FOO
138240
    1MOL0     O    1   8.277   7.387   1.431  0.8046 -0.0073  0.1580
    1MOL0     C    2   8.301   7.289   1.361 -1.2812 -0.5324  0.5807
    1MOL0     O    3   8.230   7.177   1.348 -0.5495  0.2852 -0.4499
    1MOL0     C    4   8.115   7.182   1.422 -0.6353  0.4970  1.0691
    1MOL0     C    5   8.113   7.124   1.554  0.0836 -0.0722  0.3946
    1MOL0     C    6   8.012   7.133   1.645  0.2299  0.0409 -0.5143
    1MOL0     C    7   7.882   7.177   1.599 -0.6604  0.5521  0.9236
    1MOL0     O    8   7.767   7.167   1.680  0.1031 -0.1057 -0.2875
    1MOL0     C    9   7.637   7.213   1.644  0.7584 -0.3172  0.6306
    1MOL0     C   10   7.537   7.153   1.739  0.9298 -0.3079 -0.0024
    1MOL0     C   11   7.391   7.207   1.725 -0.1099  0.6308  0.7275
    1MOL0     C   12   7.327   7.186   1.600 -0.3897 -0.2038 -0.5284
    1MOL0     C   13   7.174   7.181   1.604 -1.1480  0.8092  0.2309
    1MOL0     C   14   7.118   7.185   1.468  0.0386 -0.6553 -0.1966
    1MOL0     C   15   6.970   7.156   1.467 -0.2133  0.1302 -0.0151
    1MOL0     C   16   6.938   7.108   1.326  0.4721 -0.2393  0.3077
    1MOL0     N   17   6.798   7.107   1.295  0.2753  0.1966  0.4655
    1MOL0     C   18   6.716   7.218   1.290 -0.7414  0.2029  0.1018
    1MOL0     C   19   6.596   7.168   1.272  1.1472  0.3734  0.1127
    1MOL0     C   20   6.466   7.236   1.237  0.0670 -0.3563  0.8303
    1MOL0     C   21   6.466   7.282   1.084  0.3826  0.1834 -0.0457
    1MOL0     C   22   6.448   7.171   0.972 -0.2822 -0.4474 -0.5072
    1MOL0     C   23   6.453   7.252   0.832 -0.9065  0.0618  0.0860
    1MOL0     O   24   6.586   7.306   0.787  0.5646 -0.1909 -0.4527
    1MOL0     C   25   6.681   7.218   0.774 -0.6882  0.4389 -0.7645
    1MOL0     C   26   6.792   7.207   0.857 -0.4853 -1.0296 -0.0853
    1MOL0     C   27   6.896   7.109   0.842  0.0402  0.2416  0.1547
    1MOL0     C   28   6.990   7.081   0.952 -0.4108  0.0083 -0.9185
    1MOL0     C   29   6.882   7.023   0.729  0.3005 -0.4050 -0.3809
    1MOL0     C   30   6.975   6.906   0.701 -0.5853  1.9271  0.1120
    1MOL0     O   31   6.926   6.820   0.605  0.5844 -0.7141  0.8071
    1MOL0     C   32   6.998   6.709   0.562 -0.1603 -0.7348 -0.5274
    1MOL0     C   33   7.034   6.604   0.647  1.1210 -1.4560  1.1535
    1MOL0     C   34   7.104   6.490   0.599 -0.7485  0.1632 -0.2730
    1MOL0     C   35   7.136   6.479   0.462 -0.2053  0.3271 -1.4580
    1MOL0     O   36   7.199   6.369   0.401  0.1434  0.4640 -0.2668
    1MOL0     C   37   7.263   6.269   0.472 -0.7789  1.0356  0.3543
    1MOL0     C   38   7.395   6.313   0.532 -0.1274  0.0253 -0.0440
    1MOL0     C   39   7.493   6.374   0.437 -0.4879 -0.2153  0.3136
    1MOL0     C   40   7.635   6.371   0.492  0.0781  0.5081 -0.4551
    1MOL0     C   41   7.737   6.420   0.393 -0.3718  0.5566  0.3091
    1MOL0     C   42   7.875   6.400   0.434 -0.7595 -0.3854 -0.4731
    1MOL0     C   43   7.979   6.427   0.316 -0.1483 -0.2436  0.4967
    1MOL0     C   44   8.127   6.436   0.362  0.7799  0.1019 -0.5896
    1MOL0    Cl   45   8.177   6.568   0.469  0.0689  0.0868 -0.1398
    1MOL0     C   46   7.088   6.575   0.377  0.4661  0.0188 -0.2932
    1MOL0     C   47   7.018   6.687   0.429  0.8635  1.1786 -0.9095
    1MOL0     O   48   7.089   6.890   0.747 -0.0665  0.0516  0.0642
    1MOL0     C   49   6.772   7.042   0.637  0.2349  0.0366 -0.7593
    1MOL0     C   50   6.676   7.145   0.665  0.5776 -0.1876  1.0658
    1MOL0     N   51   6.606   7.032   1.277  0.9978 -0.4739  1.1597
    1MOL0     N   52   6.727   6.991   1.276  0.0013 -0.0288 -0.0808
    1MOL0     C   53   7.877   7.234   1.471 -0.5259 -0.3880  0.2323
    1MOL0     C   54   7.990   7.244   1.379 -0.0705  0.5282 -0.2385
    1MOL0     C   55   8.424   7.296   1.276  0.9485  0.3612 -1.0347
    1MOL0     C   56   8.451   7.191   1.189  0.5442 -0.4907  0.7069
    1MOL0     C   57   8.566   7.204   1.110  0.5003  0.8648 -0.0190
    1MOL0     C   58   8.628   7.331   1.099  0.2827  0.0240  0.4169
    1MOL0     O   59   8.732   7.345   1.010  0.0508  0.3972  0.3751
    1MOL0     C   60   8.769   7.237   0.927  0.4699 -0.0639  0.0991
    1MOL0     C   61   8.681   7.213   0.799  0.8679  0.7163  0.7746
    1MOL0     C   62   8.753   7.124   0.702 -0.2635  0.1198  0.8659
    1MOL0     C   63   8.679   7.084   0.570 -0.2057  0.1189  0.5332
    1MOL0     C   64   8.702   7.175   0.458 -0.2561 -0.0255  1.4932
    1MOL0     C   65   8.728   7.226   0.346 -0.7074 -0.5652 -0.7495
    1MOL0     C   66   8.594   7.438   1.182  0.7531  0.0461  0.0352
    1MOL0     C   67   8.497   7.415   1.277  0.5687  0.8510 -0.4327
    1MOL0     H   68   8.208   7.086   1.589  1.6127  3.7615  0.8806
    1MOL0     H   69   8.031   7.095   1.745  1.2064 -3.0204 -1.7490
    1MOL0     H   70   7.638   7.321   1.659  0.8546  0.1642 -2.2578
    1MOL0     H   71   7.622   7.189   1.539 -2.0739 -1.1177  1.1473
    1MOL0     H   72   7.542   7.045   1.720  1.7411  0.0076 -1.8199
    1MOL0     H   73   7.573   7.184   1.838 -1.9687 -0.3681  1.1762
    1MOL0     H   74   7.333   7.157   1.802 -1.8613 -0.6810 -1.3143
    1MOL0     H   75   7.383   7.314   1.747 -0.7063  0.2012  2.7531
    1MOL0     H   76   7.366   7.260   1.530  2.6115 -1.7943 -0.7229
    1MOL0     H   77   7.379   7.098   1.561  2.4432  0.6348  1.0541
    1MOL0     H   78   7.134   7.089   1.648  0.8773  0.0813  0.6547
    1MOL0     H   79   7.137   7.265   1.664 -0.9083  2.2774 -1.5803
    1MOL0     H   80   7.139   7.280   1.419  0.8908 -1.5655 -1.6662
    1MOL0     H   81   7.162   7.109   1.403  1.3668 -0.5095  0.5000
    1MOL0     H   82   6.936   7.087   1.544 -2.1607  0.9067 -0.0986
    1MOL0     H   83   6.916   7.249   1.486 -0.4708 -0.1926  0.8454
    1MOL0     H   84   6.980   7.008   1.314  1.3323  0.2140 -0.6688
    1MOL0     H   85   6.991   7.163   1.247 -3.0539 -1.2176 -3.1015
    1MOL0     H   86   6.759   7.318   1.297  2.1814 -0.9346 -0.1339
    1MOL0     H   87   6.381   7.172   1.261 -0.1940  1.0980  4.3527
    1MOL0     H   88   6.450   7.327   1.295  0.3716  0.4530 -0.3250
    1MOL0     H   89   6.567   7.324   1.076 -0.3941  1.8445 -2.1247
    1MOL0     H   90   6.385   7.355   1.078  1.9359  1.9848 -0.0449
    1MOL0     H   91   6.352   7.125   0.999 -0.1462 -0.4401  0.0103
    1MOL0     H   92   6.525   7.094   0.976  0.5217  0.0862 -3.6444
    1MOL0     H   93   6.386   7.338   0.827 -2.3755 -1.1367 -2.1664
    1MOL0     H   94   6.420   7.178   0.760 -1.7054  1.7043 -1.2985
    1MOL0     H   95   6.808   7.282   0.933 -0.1962  0.8399 -1.8911
    1MOL0     H   96   6.949   7.117   1.047 -0.2636 -1.5261 -0.2425
    1MOL0     H   97   6.999   6.975   0.976  2.8607 -0.1498 -2.3016
    1MOL0     H   98   7.091   7.121   0.937 -0.2385  0.7395  1.7474
    1MOL0     H   99   7.004   6.611   0.751 -6.2127 -0.8537 -0.5003
    1MOL0     H  100   7.149   6.411   0.659 -0.2379  1.6161  1.3217
    1MOL0     H  101   7.212   6.212   0.551  1.1414 -2.3315 -0.6057
    1MOL0     H  102   7.292   6.185   0.407 -0.9828  1.2804 -0.0599
    1MOL0     H  103   7.381   6.392   0.606  1.5204  0.1620  0.1713
    1MOL0     H  104   7.440   6.221   0.572  1.4246 -0.4028 -2.5558
    1MOL0     H  105   7.459   6.478   0.432  0.0692  0.0025  0.9671
    1MOL0     H  106   7.500   6.319   0.342 -2.6004 -1.6360  0.9146
    1MOL0     H  107   7.644   6.451   0.567  1.2511  0.4131 -0.4806
    1MOL0     H  108   7.662   6.273   0.532  2.0989 -0.0026 -2.8505
    1MOL0     H  109   7.712   6.523   0.365 -0.6871  0.0908 -1.2192
    1MOL0     H  110   7.727   6.348   0.310  0.0761 -1.4303  1.8948
    1MOL0     H  111   7.894   6.461   0.523 -1.9699 -3.5791  2.2255
    1MOL0     H  112   7.889   6.298   0.473  4.0876  0.1102 -0.3358
    1MOL0     H  113   7.957   6.518   0.259  5.4382  0.2674 -1.3646
    1MOL0     H  114   7.976   6.333   0.261  2.6012 -1.8557  2.8471
    1MOL0     H  115   8.186   6.428   0.270  0.2684 -1.0258 -0.8493
    1MOL0     H  116   8.140   6.337   0.408 -3.4272 -0.0112  0.7723
    1MOL0     H  117   7.088   6.576   0.269  2.7939  1.1131 -0.3460
    1MOL0     H  118   6.995   6.767   0.359  0.2856  1.6475 -0.1922
    1MOL0     H  119   6.746   6.984   0.549 -1.2710  2.5916 -2.1383
    1MOL0     H  120   6.588   7.169   0.606  1.6888  2.0341  0.1836
    1MOL0     H  121   7.783   7.272   1.434 -1.0269 -2.7189 -1.1158
    1MOL0     H  122   7.987   7.284   1.279 -0.3355 -3.4503 -2.0086
    1MOL0     H  123   8.397   7.098   1.203  0.6811 -0.5800  0.6373
    1MOL0     H  124   8.573   7.114   1.050 -2.3348  0.1311  0.5919
    1MOL0     H  125   8.870   7.267   0.897  1.6094 -0.4865  3.1157
    1MOL0     H  126   8.761   7.145   0.984 -2.1617  0.5062  0.7537
    1MOL0     H  127   8.670   7.312   0.754 -1.7467  0.0550 -0.2517
    1MOL0     H  128   8.577   7.183   0.817  1.4730 -1.1143  1.3681
    1MOL0     H  129   8.796   7.038   0.755  5.5877  1.3119 -1.1763
    1MOL0     H  130   8.850   7.168   0.677 -1.4820  5.0228  3.4304
    1MOL0     H  131   8.572   7.076   0.594 -0.4055  2.8828  0.8467
    1MOL0     H  132   8.714   6.984   0.544 -1.3194 -0.6414  1.7888
    1MOL0     H  133   8.749   7.252   0.244 -1.9844 -2.3586 -1.5243
    1MOL0     H  134   8.653   7.527   1.165 -1.0031  0.9704 -1.6347
    1MOL0     H  135   8.484   7.497   1.347 -1.0957  0.7433 -0.5567
    2MOL0     O  136   8.926   5.359   7.772  0.6790  0.2683  0.0670
    2MOL0     C  137   9.032   5.321   7.830 -0.3354 -0.0962 -0.0448
    2MOL0     O  138   9.041   5.224   7.932  0.3444  0.7464  0.0189
    2MOL0     C  139   8.939   5.140   7.959  0.6892  0.1612  0.8851
    2MOL0     C  140   8.830   5.097   7.878  0.7324 -0.3832 -0.8232
    2MOL0     C  141   8.732   5.010   7.920  0.0501  0.1151 -0.0758
    2MOL0     C  142   8.749   4.947   8.040 -0.2957  0.3305  0.7679
    2MOL0     O  143   8.659   4.860   8.086 -0.5867  0.0989 -0.0926
    2MOL0     C  144   8.646   4.745   8.008  0.6984  0.1628  0.4229
    2MOL0     C  145   8.493   4.716   8.011  1.1841 -0.1015 -0.6757
    2MOL0     C  146   8.466   4.581   7.955  0.8426  1.4234  0.3738
    2MOL0     C  147   8.326   4.523   7.979 -0.3391 -0.1849 -0.5073
    2MOL0     C  148   8.337   4.388   7.900 -0.5067  0.0552  0.8112
    2MOL0     C  149   8.197   4.333   7.862  0.1844  0.1261 -0.3766
    2MOL0     C  150   8.131   4.267   7.978 -0.2102 -0.6462 -0.1838
    2MOL0     C  151   7.979   4.247   7.956 -0.0082  0.2635 -0.1303
    2MOL0     N  152   7.915   4.191   8.074  0.8445 -0.3251 -0.3630
    2MOL0     C  153   7.816   4.098   8.078  0.3113  0.3721  0.0215
    2MOL0     C  154   7.802   4.069   8.211  0.1183  0.4916 -0.8296
    2MOL0     C  155   7.734   3.950   8.277  0.0817  0.0327  0.8039
    2MOL0     C  156   7.624   4.016   8.361  0.6855  0.3090 -0.5456
    2MOL0     C  157   7.528   3.906   8.417 -0.0288 -0.4750 -0.2789
    2MOL0     C  158   7.435   3.872   8.304  0.3090 -0.7854 -0.0582
    2MOL0     O  159   7.319   3.807   8.358  0.1634 -0.6190 -0.4247
    2MOL0     C  160   7.191   3.845   8.313  0.7878  0.8089  0.9677
    2MOL0     C  161   7.161   3.903   8.187 -0.3869 -0.1874  0.6668
    2MOL0     C  162   7.027   3.928   8.139 -0.2792 -0.8433  0.2530
    2MOL0     C  163   7.008   3.966   7.990  0.2590 -0.0467  0.3074
    2MOL0     C  164   6.918   3.895   8.226 -0.5392  1.0118 -0.6548
    2MOL0     C  165   6.773   3.916   8.198 -0.1976  0.3955  0.3238
    2MOL0     O  166   6.738   3.990   8.095  0.2589  0.1996  0.0832
    2MOL0     C  167   6.605   4.007   8.063  0.1719  0.2140 -0.4349
    2MOL0     C  168   6.525   4.079   8.153 -0.3275  0.0474  0.2011
    2MOL0     C  169   6.392   4.091   8.134  0.4985 -0.6676  0.3221
    2MOL0     C  170   6.340   4.056   8.012 -0.2221  0.1696 -0.7600
    2MOL0     O  171   6.215   4.083   7.969 -0.1539  0.6310 -0.0821
    2MOL0     C  172   6.123   4.142   8.063 -0.2848  0.0931 -1.0315
    2MOL0     C  173   5.991   4.167   7.989  0.6584 -0.2788 -0.3294
    2MOL0     C  174   5.898   4.239   8.085 -0.4528 -1.3685 -0.2598
    2MOL0     C  175   5.792   4.324   8.010  0.2510 -0.4183 -0.2315
    2MOL0     C  176   5.681   4.363   8.113  0.7598 -0.0507  0.1787
    2MOL0     C  177   5.572   4.270   8.111  0.7292  0.1277  0.3111
    2MOL0     C  178   5.481   4.288   8.229  0.3862 -0.4721  0.0551
    2MOL0     C  179   5.359   4.192   8.219 -0.4863  0.3669  0.8126
    2MOL0    Cl  180   5.282   4.204   8.056 -0.0553  0.3200 -0.0108
    2MOL0     C  181   6.418   4.000   7.917 -0.4685  0.1577 -0.3123
    2MOL0     C  182   6.552   3.970   7.938  0.5225 -0.2468  0.5382
    2MOL0     O  183   6.697   3.855   8.272 -0.4373 -0.5213  0.5419
    2MOL0     C  184   6.951   3.846   8.355  0.0762 -0.6650 -0.1064
    2MOL0     C  185   7.083   3.824   8.401 -0.0630  0.4904 -1.1730
    2MOL0     N  186   7.895   4.145   8.288  1.1120  0.4644  1.0623
    2MOL0     N  187   7.955   4.218   8.206 -0.1504 -0.5069  0.2926
    2MOL0     C  188   8.853   4.977   8.121  0.1740  0.2596 -0.1702
    2MOL0     C  189   8.947   5.065   8.079  0.4988  0.1038  0.3400
    2MOL0     C  190   9.157   5.382   7.784  0.2866  0.6141  0.4110
    2MOL0     C  191   9.264   5.299   7.750 -0.2640 -0.2033  0.0090
    2MOL0     C  192   9.376   5.349   7.675 -0.0875  0.1113 -0.2281
    2MOL0     C  193   9.374   5.479   7.623  0.2831 -0.8301 -0.2165
    2MOL0     O  194   9.479   5.545   7.559 -0.0368 -0.0317  0.6852
    2MOL0     C  195   9.560   5.456   7.483  0.5036  0.1841  0.2927
    2MOL0     C  196   9.477   5.389   7.364 -0.7090 -0.0273 -0.5899
    2MOL0     C  197   9.556   5.294   7.294 -0.6009 -0.2862  0.8863
    2MOL0     C  198   9.482   5.253   7.166  0.3542  0.2487 -0.5941
    2MOL0     C  199   9.516   5.117   7.116  0.3692 -1.0382 -0.9818
    2MOL0     C  200   9.572   5.015   7.071  0.7238 -0.2693  1.0865
    2MOL0     C  201   9.257   5.557   7.643 -0.4349 -0.2674 -0.7927
    2MOL0     C  202   9.155   5.511   7.730  0.7075  0.3932  0.1604
    2MOL0     H  203   8.811   5.130   7.776  0.5072 -1.3693 -1.1183
    2MOL0     H  204   8.644   4.982   7.862 -1.5097  3.3743  0.5061
    2MOL0     H  205   8.674   4.751   7.902  1.5589 -3.3045  0.3138
    2MOL0     H  206   8.714   4.666   8.042 -0.2946 -0.8568  0.1067
    2MOL0     H  207   8.462   4.710   8.116  1.3974  0.2452 -0.5913
    2MOL0     H  208   8.436   4.797   7.965  1.1685 -1.0441 -2.4305
    2MOL0     H  209   8.490   4.586   7.848 -1.9227 -0.9233 -0.4809
    2MOL0     H  210   8.539   4.518   8.006  1.4125  3.1843  1.8473
    2MOL0     H  211   8.309   4.506   8.085 -1.5609  1.3415 -0.4078
    2MOL0     H  212   8.243   4.583   7.938 -0.9459 -1.1553 -0.7312
    2MOL0     H  213   8.379   4.401   7.800 -2.7267 -2.1679 -0.5163
    2MOL0     H  214   8.399   4.319   7.959  2.2220  0.1009 -1.7576
    2MOL0     H  215   8.140   4.421   7.832  0.6376 -0.2170 -2.3943
    2MOL0     H  216   8.208   4.265   7.777  0.4121 -0.1234 -0.1493
    2MOL0     H  217   8.193   4.178   7.993 -0.0401 -0.3558  0.9672
    2MOL0     H  218   8.145   4.334   8.063  1.3608 -1.7405  0.4671
    2MOL0     H  219   7.967   4.174   7.876  2.3212  1.2590 -1.5059
    2MOL0     H  220   7.921   4.338   7.942  2.7487  2.2150  0.2051
    2MOL0     H  221   7.763   4.046   7.999 -1.1380 -1.0232  1.8143
    2MOL0     H  222   7.693   3.894   8.193 -0.6593  3.6493 -1.4162
    2MOL0     H  223   7.809   3.885   8.325  1.1257 -0.3050 -1.1807
    2MOL0     H  224   7.574   4.098   8.310  0.1802 -0.3714 -1.1595
    2MOL0     H  225   7.677   4.058   8.447  0.3621 -0.3403 -0.0099
    2MOL0     H  226   7.473   3.938   8.505  1.8421  1.2161  0.3484
    2MOL0     H  227   7.601   3.830   8.447  2.5442  1.8461 -0.2307
    2MOL0     H  228   7.478   3.821   8.217 -1.0683  0.4953 -1.5708
    2MOL0     H  229   7.414   3.970   8.261  1.2325 -0.0608  1.1113
    2MOL0     H  230   7.245   3.918   8.120 -1.1473  0.3830 -0.1937
    2MOL0     H  231   7.079   3.931   7.914 -3.3432  0.3667 -3.6381
    2MOL0     H  232   6.909   3.936   7.953 -1.7211  4.4485  1.2978
    2MOL0     H  233   7.001   4.075   7.990 -2.9533 -0.1279  1.6253
    2MOL0     H  234   6.570   4.123   8.242  0.9815  1.5523 -1.1474
    2MOL0     H  235   6.333   4.129   8.217 -1.9260 -4.6986  0.7258
    2MOL0     H  236   6.110   4.064   8.139  0.6483  2.6410  1.9544
    2MOL0     H  237   6.158   4.233   8.113 -2.1016  0.3708 -0.1887
    2MOL0     H  238   6.016   4.221   7.897  2.0073  1.1427  0.8114
    2MOL0     H  239   5.946   4.071   7.959  1.0071 -0.2692 -0.9090
    2MOL0     H  240   5.949   4.313   8.147 -1.2806 -0.7914 -0.2553
    2MOL0     H  241   5.856   4.176   8.165 -2.6710 -0.4382 -0.6256
    2MOL0     H  242   5.831   4.411   7.956 -0.3519 -0.6310 -1.0299
    2MOL0     H  243   5.743   4.256   7.939  3.8466 -2.1444 -1.2977
    2MOL0     H  244   5.631   4.444   8.060  1.4658  1.0223  1.1149
    2MOL0     H  245   5.712   4.400   8.211  1.2455 -1.0732  0.4261
    2MOL0     H  246   5.517   4.275   8.016 -1.3419 -0.9685  1.3887
    2MOL0     H  247   5.607   4.167   8.120 -0.3627 -0.3640 -0.7352
    2MOL0     H  248   5.433   4.386   8.234  2.4487  0.8916 -3.1854
    2MOL0     H  249   5.546   4.288   8.317 -0.8197  1.0997  1.0042
    2MOL0     H  250   5.289   4.202   8.303 -1.7647 -2.4179  0.2071
    2MOL0     H  251   5.398   4.090   8.227  0.5147  0.8685  3.7388
    2MOL0     H  252   6.368   3.973   7.824 -3.0814  0.1161  1.0104
    2MOL0     H  253   6.601   3.907   7.865 -0.1608  0.2160 -0.3333
    2MOL0     H  254   6.868   3.837   8.425 -1.6974  3.8825 -1.2803
    2MOL0     H  255   7.097   3.775   8.497 -0.1284  3.3605  0.4392
    2MOL0     H  256   8.869   4.930   8.218 -2.3453  0.3364  0.3472
    2MOL0     H  257   9.031   5.081   8.146  2.4880  0.9176 -2.2022
    2MOL0     H  258   9.268   5.194   7.777 -1.0299 -1.3660 -3.7412
    2MOL0     H  259   9.455   5.274   7.677  0.0809  0.2690  2.3493
    2MOL0     H  260   9.643   5.506   7.433  1.3149 -0.8370  0.6037
    2MOL0     H  261   9.600   5.373   7.541 -4.7824 -2.0054  1.4348
    2MOL0     H  262   9.444   5.471   7.300  1.0263  1.4335  0.2996
    2MOL0     H  263   9.384   5.345   7.400 -0.7771  1.0766  0.6635
    2MOL0     H  264   9.579   5.209   7.359  0.4703  0.2241  1.1989
    2MOL0     H  265   9.651   5.342   7.268 -0.2674 -1.5033 -0.2851
    2MOL0     H  266   9.496   5.332   7.092 -1.0507 -1.2543 -2.5852
    2MOL0     H  267   9.376   5.249   7.192  1.0245 -2.4584  2.2741
    2MOL0     H  268   9.609   4.935   7.010 -3.0357 -1.2705 -0.1621
    2MOL0     H  269   9.251   5.656   7.598  0.4356 -0.1323 -0.6282
    2MOL0     H  270   9.077   5.586   7.743  0.4578  1.4792 -5.2823
    3MOL0     O  271  11.127  10.062   1.559  0.9242  0.3375 -0.1103
    3MOL0     C  272  11.187  10.013   1.657  0.1367 -0.1315  0.6441
    3MOL0     O  273  11.134   9.939   1.759 -0.0271 -0.1991 -0.1336
    3MOL0     C  274  11.104   9.806   1.728 -0.7635 -1.0126 -0.7196
    3MOL0     C  275  11.068   9.760   1.596 -0.4673  0.9776 -0.4645
    3MOL0     C  276  11.034   9.628   1.570 -0.2921 -0.3786  0.6771
    3MOL0     C  277  11.026   9.530   1.675  0.3547  0.3901  0.0405
    3MOL0     O  278  10.999   9.400   1.657  0.0733  0.2296 -1.0094
    3MOL0     C  279  10.948   9.342   1.537 -0.5243 -0.7512  0.2574
    3MOL0     C  280  10.799   9.370   1.512 -1.0203 -0.1983 -0.6197
    3MOL0     C  281  10.702   9.288   1.603 -0.2959 -0.7543  1.3970
    3MOL0     C  282  10.558   9.321   1.559 -0.1658  0.6354 -0.3312
    3MOL0     C  283  10.441   9.266   1.642  0.3559  0.7478  1.1549
    3MOL0     C  284  10.302   9.271   1.576  0.2936  0.0561 -0.3842
    3MOL0     C  285  10.277   9.153   1.490  0.1058  0.9430 -1.3807
    3MOL0     C  286  10.135   9.120   1.454 -0.2707 -0.0624  0.0609
    3MOL0     N  287  10.080   9.230   1.373  0.3725 -0.4998 -0.2987
    3MOL0     C  288  10.138   9.279   1.254  0.0739  0.7259 -0.6204
    3MOL0     C  289  10.070   9.395   1.236  0.4134  0.5314 -0.3643
    3MOL0     C  290  10.095   9.499   1.128  0.6793  0.2289  0.3651
    3MOL0     C  291  10.151   9.447   0.998  0.1740 -0.1599  0.1735
    3MOL0     C  292  10.037   9.431   0.900  0.0623 -0.4439 -0.6480
    3MOL0     C  293  10.083   9.349   0.781  0.9098  0.2186 -0.0517
    3MOL0     O  294  10.138   9.435   0.687  0.2796  0.8134 -0.0382
    3MOL0     C  295  10.194   9.367   0.584  0.1468  0.6563  0.0338
    3MOL0     C  296  10.304   9.283   0.604  0.2199 -0.1175  1.0634
    3MOL0     C  297  10.355   9.204   0.496  0.1061 -0.7856  0.3819
    3MOL0     C  298  10.476   9.114   0.509  0.5383  0.0861 -0.4020
    3MOL0     C  299  10.308   9.229   0.366 -0.1142 -0.5928 -0.0515
    3MOL0     C  300  10.374   9.179   0.239  0.0951  0.1992  0.7980
    3MOL0     O  301  10.288   9.151   0.144  0.2877  0.1800  0.0222
    3MOL0     C  302  10.324   9.052   0.054 -1.1591 -0.0277 -0.1194
    3MOL0     C  303  10.303   8.912   0.066  0.2347 -0.1694  0.8809
    3MOL0     C  304  10.342   8.818  -0.034  0.1938  0.1250  0.0899
    3MOL0     C  305  10.409   8.867  -0.146  0.9472  0.7488 -0.0652
    3MOL0     O  306  10.444   8.774  -0.237  0.6721 -0.0784 -0.2930
    3MOL0     C  307  10.453   8.814  -0.376  0.5277  0.0476 -0.8373
    3MOL0     C  308  10.313   8.839  -0.424 -0.1237 -0.3388  0.7255
    3MOL0     C  309  10.217   8.721  -0.418  0.0167 -0.4288  0.1248
    3MOL0     C  310  10.111   8.735  -0.530  0.9328  0.3205  0.2245
    3MOL0     C  311  10.042   8.605  -0.556  0.1102 -0.6169 -1.5363
    3MOL0     C  312   9.942   8.608  -0.667 -0.8389  0.4431 -0.2354
    3MOL0     C  313   9.869   8.484  -0.682 -1.4560  1.1642  0.9947
    3MOL0     C  314   9.714   8.516  -0.658 -0.0401  0.2942  1.3583
    3MOL0    Cl  315   9.670   8.546  -0.488  0.1876 -0.0238  0.2224
    3MOL0     C  316  10.444   8.999  -0.151 -0.4149  1.5366 -0.1883
    3MOL0     C  317  10.407   9.097  -0.060 -0.5527 -0.3904  0.4458
    3MOL0     O  318  10.496   9.168   0.235  0.4445 -0.9954 -0.4357
    3MOL0     C  319  10.195   9.323   0.353 -0.4081  0.4353 -0.0043
    3MOL0     C  320  10.135   9.385   0.464 -0.3072 -0.3586 -0.3701
    3MOL0     N  321   9.970   9.407   1.330 -0.0822  0.2561 -0.2914
    3MOL0     N  322   9.979   9.306   1.415 -0.0751 -1.2021 -0.4949
    3MOL0     C  323  11.052   9.583   1.806 -0.9249  0.0068  0.0282
    3MOL0     C  324  11.102   9.715   1.824  1.4875 -0.5817 -0.4030
    3MOL0     C  325  11.320  10.079   1.672  0.2985 -0.1523 -0.6239
    3MOL0     C  326  11.424  10.012   1.743  0.8879 -0.0051  0.8800
    3MOL0     C  327  11.536  10.082   1.786 -0.0402 -0.6491  0.6053
    3MOL0     C  328  11.561  10.218   1.764 -0.2544  0.4892  0.9273
    3MOL0     O  329  11.676  10.283   1.808 -0.1710  0.1144 -0.6451
    3MOL0     C  330  11.680  10.294   1.950  0.0639  1.0094  0.1597
    3MOL0     C  331  11.825  10.324   1.993 -0.3238 -0.4377 -0.1353
    3MOL0     C  332  11.923  10.212   1.987 -0.8666  0.8085  0.6922
    3MOL0     C  333  12.060  10.221   1.908  0.5166  0.0133  0.5135
    3MOL0     C  334  12.022  10.224   1.765 -1.2257 -0.1142 -0.1437
    3MOL0     C  335  12.011  10.218   1.643 -0.5778  0.1622 -0.3447
    3MOL0     C  336  11.464  10.281   1.692  0.1675 -0.2950  0.1463
    3MOL0     C  337  11.351  10.219   1.646 -0.4589  0.3147  0.5280
    3MOL0     H  338  11.067   9.818   1.505 -1.9158  1.1130 -0.3908
    3MOL0     H  339  11.013   9.592   1.470 -0.9830 -0.4071  0.8258
    3MOL0     H  340  10.998   9.383   1.448  0.0096 -1.1180  0.3824
    3MOL0     H  341  10.971   9.235   1.532 -1.5059 -0.9206 -0.8574
    3MOL0     H  342  10.787   9.475   1.539  3.6783  0.3727  0.1671
    3MOL0     H  343  10.781   9.344   1.407 -0.4852 -1.9653 -0.3205
    3MOL0     H  344  10.724   9.185   1.573  1.8076  0.5792 -2.1305
    3MOL0     H  345  10.710   9.318   1.708 -0.6173  0.0488  1.1946
    3MOL0     H  346  10.543   9.429   1.549 -4.3909  0.1203 -1.3686
    3MOL0     H  347  10.554   9.278   1.459 -2.0518 -1.2177  0.4591
    3MOL0     H  348  10.474   9.165   1.670  2.4679  0.5905 -1.5087
    3MOL0     H  349  10.428   9.323   1.734  2.2964  2.3581  0.5121
    3MOL0     H  350  10.218   9.278   1.646 -2.0687  1.2455 -3.1311
    3MOL0     H  351  10.283   9.358   1.512 -3.5600 -0.0906  0.3523
    3MOL0     H  352  10.341   9.158   1.402  0.9815  0.2340 -0.8090
    3MOL0     H  353  10.308   9.065   1.548  1.1246  1.1470 -1.6018
    3MOL0     H  354  10.070   9.108   1.541 -3.5638  2.6986 -1.7862
    3MOL0     H  355  10.130   9.031   1.391  1.4583  2.2021 -3.5788
    3MOL0     H  356  10.217   9.238   1.193  0.0949  1.8166 -1.3555
    3MOL0     H  357  10.003   9.550   1.098 -1.4051 -2.5175  1.6898
    3MOL0     H  358  10.163   9.571   1.173 -0.3158 -0.3794  2.9907
    3MOL0     H  359  10.204   9.352   1.014  3.1556  1.4205  0.4127
    3MOL0     H  360  10.228   9.519   0.969  0.9422 -1.1773 -0.3691
    3MOL0     H  361  10.008   9.532   0.869 -0.2214  1.5805  5.0688
    3MOL0     H  362   9.957   9.375   0.950 -0.7152  1.4472  0.3314
    3MOL0     H  363   9.994   9.310   0.730  0.4647 -2.1534  2.2978
    3MOL0     H  364  10.137   9.259   0.811  0.2856 -0.2789 -0.4015
    3MOL0     H  365  10.338   9.270   0.707 -3.4317  1.9792  2.7176
    3MOL0     H  366  10.567   9.174   0.496  2.2114 -2.1754  0.3459
    3MOL0     H  367  10.486   9.063   0.605  2.5365  0.3728 -0.3999
    3MOL0     H  368  10.486   9.026   0.446 -0.6108 -2.2505  2.4696
    3MOL0     H  369  10.235   8.889   0.148  1.6500  1.2800  2.5372
    3MOL0     H  370  10.296   8.720  -0.044 -1.6339  0.7944  1.4714
    3MOL0     H  371  10.499   8.912  -0.393  2.8541 -0.8170  0.1857
    3MOL0     H  372  10.511   8.736  -0.427 -0.4389  0.0788 -2.0538
    3MOL0     H  373  10.268   8.918  -0.362 -0.8718  1.6471 -2.1646
    3MOL0     H  374  10.314   8.877  -0.526  1.0180 -2.3016 -0.0626
    3MOL0     H  375  10.155   8.722  -0.329 -3.1959 -1.4823 -1.9063
    3MOL0     H  376  10.286   8.635  -0.411  3.1053  1.8815  0.2668
    3MOL0     H  377  10.034   8.808  -0.503  0.9497  0.9239 -1.2567
    3MOL0     H  378  10.160   8.770  -0.621 -1.2491 -0.9251 -1.5339
    3MOL0     H  379   9.989   8.577  -0.464  0.8112  1.7934 -0.3210
    3MOL0     H  380  10.116   8.528  -0.576  2.2379  0.6834  0.8216
    3MOL0     H  381   9.874   8.694  -0.657  0.4755  1.3842  0.8904
    3MOL0     H  382  10.000   8.623  -0.758 -0.3447  0.0671  0.0154
    3MOL0     H  383   9.904   8.401  -0.621 -2.3904  0.0901  0.1003
    3MOL0     H  384   9.885   8.461  -0.788 -0.4793 -0.1939  1.4216
    3MOL0     H  385   9.643   8.444  -0.699  0.6577  1.0718 -1.4041
    3MOL0     H  386   9.687   8.605  -0.716  0.5398 -1.1806 -1.3424
    3MOL0     H  387  10.510   9.033  -0.230  2.0724 -3.1250 -0.4499
    3MOL0     H  388  10.417   9.204  -0.067  0.3131 -0.4405  0.7488
    3MOL0     H  389  10.170   9.353   0.251  2.4317 -0.5273 -1.0808
    3MOL0     H  390  10.052   9.453   0.447 -1.1142 -1.5561 -1.3818
    3MOL0     H  391  11.040   9.528   1.899 -0.3974 -2.1862 -1.1391
    3MOL0     H  392  11.122   9.770   1.916  0.6948  0.5706 -0.9004
    3MOL0     H  393  11.423   9.908   1.771 -0.7351 -1.1759 -2.8659
    3MOL0     H  394  11.615  10.041   1.849 -0.4891 -2.5444  0.0121
    3MOL0     H  395  11.604  10.365   1.983 -0.3044  0.4758  0.4787
    3MOL0     H  396  11.657  10.197   1.995 -0.3932  0.6619 -0.7943
    3MOL0     H  397  11.811  10.348   2.099 -1.3032 -1.6061  0.0139
    3MOL0     H  398  11.856  10.412   1.936  1.9452  1.5981  3.7833
    3MOL0     H  399  11.883  10.121   1.942  1.1489  0.5306 -0.6399
    3MOL0     H  400  11.936  10.185   2.092 -4.6037 -2.7253  0.5138
    3MOL0     H  401  12.124  10.135   1.928  1.2397  0.0266 -1.4936
    3MOL0     H  402  12.122  10.305   1.940 -1.3077  1.1918  1.1456
    3MOL0     H  403  12.027  10.210   1.537  3.1205  1.9683 -0.0459
    3MOL0     H  404  11.484  10.385   1.667  0.0297  0.6740  3.5291
    3MOL0     H  405  11.280  10.275   1.585 -0.3758  0.1838  0.3130
    4MOL0     O  406   3.086   3.515   4.174  0.6020  0.0569 -0.4746
    4MOL0     C  407   3.015   3.599   4.122  0.9285 -0.1764  0.0399
    4MOL0     O  408   2.893   3.583   4.062  0.2270 -0.2247 -0.6696
    4MOL0     C  409   2.852   3.449   4.074 -1.0115  0.5980 -0.5237
    4MOL0     C  410   2.922   3.333   4.038  0.8279 -0.3133  0.6956
    4MOL0     C  411   2.859   3.210   4.033  0.1448  0.6052  0.0186
    4MOL0     C  412   2.722   3.203   4.072 -0.8284 -0.2784 -0.3796
    4MOL0     O  413   2.664   3.084   4.083 -0.4600 -0.2872 -0.8346
    4MOL0     C  414   2.662   3.005   3.964  0.2952 -1.0869  0.0369
    4MOL0     C  415   2.664   2.852   3.987  0.2766 -0.3826 -0.7435
    4MOL0     C  416   2.551   2.794   4.078  0.2837  0.2475  0.2239
    4MOL0     C  417   2.571   2.648   4.103 -0.0724  0.1742  0.8795
    4MOL0     C  418   2.484   2.607   4.219  0.7466  0.5098  0.7111
    4MOL0     C  419   2.460   2.462   4.250 -0.7480  0.1692  0.1499
    4MOL0     C  420   2.357   2.439   4.366 -0.7748  0.2562  0.2348
    4MOL0     C  421   2.363   2.294   4.421  0.4150 -0.5870 -0.5484
    4MOL0     N  422   2.271   2.280   4.533  0.3175  0.1884  0.0054
    4MOL0     C  423   2.145   2.213   4.527  0.6678  0.8225 -0.3108
    4MOL0     C  424   2.102   2.256   4.652 -0.2183  0.1537 -0.5066
    4MOL0     C  425   1.965   2.234   4.715  0.4599 -0.5135 -0.1381
    4MOL0     C  426   1.986   2.145   4.839 -0.3788  0.3404  1.3317
    4MOL0     C  427   1.868   2.068   4.881  0.1243  0.2287  0.1444
    4MOL0     C  428   1.744   2.138   4.863  0.0079  0.0767 -0.5252
    4MOL0     O  429   1.633   2.060   4.908 -1.0373  0.3289  0.1516
    4MOL0     C  430   1.603   1.945   4.841  0.0305  0.6669 -0.2044
    4MOL0     C  431   1.562   1.832   4.918  0.2720 -0.2477  0.2017
    4MOL0     C  432   1.540   1.699   4.863 -0.5815  0.6461 -0.4142
    4MOL0     C  433   1.504   1.583   4.956 -0.6819  0.0719  0.4332
    4MOL0     C  434   1.553   1.688   4.724  0.4485  0.8428 -1.1475
    4MOL0     C  435   1.512   1.569   4.651  0.7617 -0.4905 -0.5211
    4MOL0     O  436   1.412   1.489   4.696 -0.6706 -0.5372 -0.0199
    4MOL0     C  437   1.382   1.368   4.640 -0.8355 -0.2149  0.1556
    4MOL0     C  438   1.485   1.269   4.611 -0.1405 -0.1178 -0.2886
    4MOL0     C  439   1.434   1.158   4.548 -0.2523 -0.8459  1.0984
    4MOL0     C  440   1.298   1.126   4.539 -0.5285  0.1187 -0.2508
    4MOL0     O  441   1.278   1.003   4.482  0.0135 -0.3089 -0.3447
    4MOL0     C  442   1.145   0.964   4.448  0.0056 -0.5327 -0.6884
    4MOL0     C  443   1.144   0.826   4.387  0.0073 -0.3996 -0.2876
    4MOL0     C  444   1.175   0.728   4.490  0.6172  0.3686  0.1638
    4MOL0     C  445   1.183   0.596   4.415 -0.1007 -0.5600  0.0675
    4MOL0     C  446   1.179   0.472   4.495  0.5356 -0.3001 -0.0685
    4MOL0     C  447   1.303   0.431   4.571 -0.6723 -0.4495 -0.4689
    4MOL0     C  448   1.306   0.282   4.595 -0.9558  0.4007 -0.3671
    4MOL0     C  449   1.427   0.230   4.673 -1.1688  0.3262  0.0323
    4MOL0    Cl  450   1.584   0.298   4.634  0.3215  0.0410  0.0035
    4MOL0     C  451   1.201   1.218   4.583 -0.8054 -0.1776 -0.0098
    4MOL0     C  452   1.248   1.343   4.628 -0.4149  0.7356  0.0015
    4MOL0     O  453   1.580   1.543   4.549  0.2535  0.1157 -0.2834
    4MOL0     C  454   1.593   1.798   4.645 -0.6169  0.2995 -0.3058
    4MOL0     C  455   1.619   1.923   4.706 -0.0159 -0.3095  0.1258
    4MOL0     N  456   2.210   2.315   4.726  1.2468 -0.0644 -0.2558
    4MOL0     N  457   2.305   2.329   4.650 -0.1428 -0.5076  0.5834
    4MOL0     C  458   2.658   3.323   4.122 -0.0231 -0.6299 -0.0111
    4MOL0     C  459   2.722   3.446   4.121 -0.1162  0.0900 -0.2567
    4MOL0     C  460   3.077   3.730   4.113  0.3455 -0.6504 -0.1857
    4MOL0     C  461   3.204   3.758   4.162  0.2020  0.2022 -0.9643
    4MOL0     C  462   3.254   3.886   4.162  0.1764  0.2743 -0.5759
    4MOL0     C  463   3.179   3.990   4.112 -0.2944  0.6592  0.4217
    4MOL0     O  464   3.242   4.117   4.105 -0.5434 -0.1671 -0.4883
    4MOL0     C  465   3.381   4.129   4.071 -0.5055  0.4873 -0.2607
    4MOL0     C  466   3.439   4.265   4.094 -0.1904 -0.6331  0.2100
    4MOL0     C  467   3.413   4.315   4.236 -0.2307 -0.6858  0.7049
    4MOL0     C  468   3.505   4.254   4.353  0.8819  0.0286  0.5449
    4MOL0     C  469   3.455   4.127   4.403  0.4378 -0.1538 -0.4207
    4MOL0     C  470   3.426   4.022   4.464 -0.5975 -0.0177  0.3336
    4MOL0     C  471   3.057   3.968   4.059  0.6317  0.6132  0.0438
    4MOL0     C  472   3.003   3.840   4.061  0.6159  0.0606  0.5104
    4MOL0     H  473   3.022   3.351   4.000 -0.9017  0.4475 -4.3054
    4MOL0     H  474   2.898   3.113   4.005 -2.9452 -0.8998  0.4253
    4MOL0     H  475   2.564   3.024   3.920  2.0883  2.2173 -3.0144
    4MOL0     H  476   2.731   3.033   3.884 -2.8920  3.3428 -1.5296
    4MOL0     H  477   2.647   2.801   3.892  0.5549  0.8735 -1.4940
    4MOL0     H  478   2.761   2.825   4.031 -0.5636 -2.6412 -0.1116
    4MOL0     H  479   2.556   2.855   4.168 -0.7181 -2.2995  2.1114
    4MOL0     H  480   2.461   2.806   4.017  0.4393  2.4023  0.3520
    4MOL0     H  481   2.530   2.590   4.021  1.8981 -2.4963  1.6479
    4MOL0     H  482   2.673   2.611   4.117 -1.2046 -3.4131  0.4541
    4MOL0     H  483   2.508   2.660   4.312  0.8799 -0.0984  1.0275
    4MOL0     H  484   2.383   2.646   4.207  0.1217 -0.4336  2.5427
    4MOL0     H  485   2.426   2.409   4.161  0.0974  0.0013 -0.0867
    4MOL0     H  486   2.559   2.424   4.278  0.1749  2.0600 -0.3793
    4MOL0     H  487   2.364   2.516   4.442  0.2567  0.8123 -0.4123
    4MOL0     H  488   2.257   2.450   4.323 -0.4246 -0.9693 -0.9999
    4MOL0     H  489   2.467   2.282   4.455 -0.3238 -0.6722  1.8669
    4MOL0     H  490   2.345   2.227   4.336  0.7640  0.6105 -1.6006
    4MOL0     H  491   2.100   2.152   4.450 -0.2802  1.3328 -0.1770
    4MOL0     H  492   1.920   2.331   4.736 -0.0705 -0.8949  0.5584
    4MOL0     H  493   1.896   2.179   4.649 -0.3158  0.1653  0.0877
    4MOL0     H  494   2.022   2.212   4.918 -2.5320  0.1184  2.5822
    4MOL0     H  495   2.071   2.077   4.830 -0.5827 -0.2282  3.2839
    4MOL0     H  496   1.878   2.040   4.986  2.0145 -0.2890 -0.1425
    4MOL0     H  497   1.859   1.972   4.828 -0.7811  1.0097 -1.1888
    4MOL0     H  498   1.714   2.168   4.763 -0.4802  0.9785 -0.1197
    4MOL0     H  499   1.746   2.229   4.924  1.4154 -0.5426  0.4048
    4MOL0     H  500   1.536   1.855   5.021  2.4213  0.4222  0.6270
    4MOL0     H  501   1.404   1.539   4.952 -2.0020  2.9616 -1.0805
    4MOL0     H  502   1.579   1.504   4.945 -1.0196 -0.0623 -0.9996
    4MOL0     H  503   1.525   1.625   5.055  2.7269  1.3754 -0.6963
    4MOL0     H  504   1.592   1.278   4.625  0.5686  0.5380 -4.5151
    4MOL0     H  505   1.504   1.081   4.518 -0.2197 -0.8443  1.1705
    4MOL0     H  506   1.089   0.955   4.541  0.8882 -0.6283 -0.1482
    4MOL0     H  507   1.101   1.038   4.380  0.6915 -0.6679 -1.3053
    4MOL0     H  508   1.048   0.814   4.336  0.2725 -2.3269 -0.4076
    4MOL0     H  509   1.216   0.827   4.305  0.2906  2.8938 -0.1506
    4MOL0     H  510   1.094   0.720   4.563  1.7288  0.5329  1.4567
    4MOL0     H  511   1.266   0.747   4.548  2.4291 -4.1780 -0.8171
    4MOL0     H  512   1.109   0.581   4.336 -0.5079 -1.0419  0.5403
    4MOL0     H  513   1.283   0.598   4.370 -0.5502  0.1483 -0.9437
    4MOL0     H  514   1.148   0.391   4.428  0.1571 -1.8884  1.9321
    4MOL0     H  515   1.096   0.480   4.566 -0.1504  1.1028 -0.9716
    4MOL0     H  516   1.400   0.457   4.527 -1.6410 -1.9392 -3.8107
    4MOL0     H  517   1.285   0.483   4.665 -5.1696  3.6735 -3.1285
    4MOL0     H  518   1.296   0.232   4.499  1.4204 -2.8507  0.8805
    4MOL0     H  519   1.212   0.265   4.647 -0.8241  3.2330  1.0436
    4MOL0     H  520   1.436   0.122   4.660  0.7742  0.2322  1.6824
    4MOL0     H  521   1.405   0.240   4.780  1.1458  3.7222  0.3674
    4MOL0     H  522   1.097   1.189   4.590 -0.2753 -2.6414 -1.3465
    4MOL0     H  523   1.170   1.411   4.663 -0.7569  0.3515 -0.0004
    4MOL0     H  524   1.610   1.800   4.538  0.2707  1.8225 -0.1579
    4MOL0     H  525   1.665   1.995   4.639 -0.6751  0.8448  0.8750
    4MOL0     H  526   2.555   3.308   4.151  0.0401 -2.2127 -0.5300
    4MOL0     H  527   2.668   3.537   4.144 -0.6250 -0.0902 -0.7333
    4MOL0     H  528   3.252   3.677   4.215  3.2607  1.8170 -1.0275
    4MOL0     H  529   3.348   3.893   4.216  2.4253 -3.8265 -3.3568
    4MOL0     H  530   3.448   4.059   4.121 -2.2609 -1.4406 -0.5045
    4MOL0     H  531   3.389   4.108   3.964  0.3944  0.4826 -0.1980
    4MOL0     H  532   3.395   4.328   4.016 -0.0568  0.6021  1.1100
    4MOL0     H  533   3.548   4.256   4.081 -0.2778 -3.4869  0.7873
    4MOL0     H  534   3.308   4.300   4.259 -1.0008 -0.5430 -2.2783
    4MOL0     H  535   3.413   4.425   4.233 -1.5358 -0.6518  1.4440
    4MOL0     H  536   3.494   4.322   4.438 -0.5112 -0.0100  0.4228
    4MOL0     H  537   3.608   4.240   4.319  0.4584  0.4792 -1.0142
    4MOL0     H  538   3.412   3.927   4.511 -2.1194  0.6772  1.3376
    4MOL0     H  539   2.999   4.052   4.020  0.2391  0.4552  0.2761
    4MOL0     H  540   2.906   3.812   4.023  2.5114 -2.6795 -3.0243
    5MOL0     O  541   7.899   8.644   0.213  0.6027 -0.8743  0.3695
    5MOL0     C  542   7.931   8.636   0.332 -0.4360  0.2730 -0.3326
    5MOL0     O  543   7.886   8.720   0.427 -0.0623 -0.7016 -0.3759
    5MOL0     C  544   7.808   8.825   0.383  0.4987  0.5896  0.5127
    5MOL0     C  545   7.849   8.950   0.421 -0.2806 -0.4121  0.3114
    5MOL0     C  546   7.770   9.062   0.400  0.0281  0.1712 -0.3738
    5MOL0     C  547   7.645   9.045   0.332  0.1585  0.2570 -0.2790
    5MOL0     O  548   7.574   9.155   0.308 -0.1799  0.6056  0.1806
    5MOL0     C  549   7.637   9.288   0.284  1.5326 -0.0545  0.4823
    5MOL0     C  550   7.553   9.365   0.186  0.2485  0.2852  0.2594
    5MOL0     C  551   7.414   9.400   0.250  0.2307 -0.0532  0.0222
    5MOL0     C  552   7.333   9.495   0.157 -0.5918 -0.2166  0.4453
    5MOL0     C  553   7.186   9.531   0.198 -0.0534  0.9428  0.6026
    5MOL0     C  554   7.111   9.631   0.112 -0.8375  0.5577  0.5043
    5MOL0     C  555   6.993   9.693   0.183 -0.3072 -0.3862  0.3131
    5MOL0     C  556   6.889   9.583   0.191 -0.5847  0.1804  1.2308
    5MOL0     N  557   6.821   9.614   0.314 -0.0575 -0.1686 -0.2501
    5MOL0     C  558   6.842   9.544   0.431  0.3569 -0.4376  0.5237
    5MOL0     C  559   6.750   9.597   0.519  0.1651 -0.8575  0.8027
    5MOL0     C  560   6.716   9.540   0.651 -0.4442  0.2760  0.8798
    5MOL0     C  561   6.738   9.640   0.760  0.5391 -0.0883 -0.0539
    5MOL0     C  562   6.740   9.593   0.912  0.3500 -0.3979 -0.4777
    5MOL0     C  563   6.874   9.520   0.948 -0.1769 -0.3556  0.6538
    5MOL0     O  564   6.928   9.412   0.866 -0.3891  0.1562 -0.3519
    5MOL0     C  565   7.067   9.398   0.866  1.0957  0.3304 -0.0655
    5MOL0     C  566   7.138   9.458   0.769 -0.4378 -0.0341  0.7810
    5MOL0     C  567   7.278   9.427   0.760 -1.0960  0.2423  0.6315
    5MOL0     C  568   7.337   9.475   0.630  0.0050 -0.8322  0.1209
    5MOL0     C  569   7.342   9.338   0.858  1.1476 -0.4576 -0.3862
    5MOL0     C  570   7.476   9.291   0.843  0.0052  0.0566  0.8002
    5MOL0     O  571   7.499   9.171   0.903 -0.5528 -0.6506  0.0452
    5MOL0     C  572   7.629   9.125   0.912 -0.3809 -0.0536  0.5389
    5MOL0     C  573   7.648   9.035   1.013 -0.8185  1.0448 -0.0963
    5MOL0     C  574   7.760   8.962   1.024 -0.6346  0.3400  0.3912
    5MOL0     C  575   7.867   8.979   0.929 -0.7023  0.6925 -1.1339
    5MOL0     O  576   7.991   8.921   0.956  0.4835  0.4036 -0.5403
    5MOL0     C  577   8.107   8.959   0.886 -0.5175  0.2719  0.2127
    5MOL0     C  578   8.230   8.877   0.923 -0.4888  0.4981  0.2387
    5MOL0     C  579   8.220   8.744   0.857 -0.1844 -0.2871  0.0944
    5MOL0     C  580   8.357   8.667   0.883  0.2468  0.0505 -0.0987
    5MOL0     C  581   8.353   8.533   0.811  0.5323 -0.1252  0.4354
    5MOL0     C  582   8.487   8.465   0.828 -0.8913  0.0075  0.3508
    5MOL0     C  583   8.501   8.331   0.754 -0.2127  0.8622 -0.5576
    5MOL0     C  584   8.624   8.261   0.800 -0.6877  0.1335 -0.5872
    5MOL0    Cl  585   8.772   8.369   0.806 -0.3867 -0.0440  0.2333
    5MOL0     C  586   7.849   9.075   0.823 -0.8927 -0.7873 -0.3460
    5MOL0     C  587   7.733   9.143   0.815  0.1515 -0.3101  0.5748
    5MOL0     O  588   7.554   9.347   0.768 -0.6280 -0.3184  0.9472
    5MOL0     C  589   7.260   9.293   0.965  0.8151  0.9319  0.4008
    5MOL0     C  590   7.119   9.321   0.969 -0.1507 -0.6611 -0.2994
    5MOL0     N  591   6.691   9.710   0.451  0.3892  0.3349  0.0176
    5MOL0     N  592   6.728   9.717   0.335  0.3766 -0.4908 -0.0039
    5MOL0     C  593   7.608   8.920   0.274  0.5301  0.8354  0.3151
    5MOL0     C  594   7.688   8.809   0.310 -0.5080 -0.8980  1.2825
    5MOL0     C  595   8.029   8.537   0.369  0.5429 -0.0804  0.3679
    5MOL0     C  596   8.051   8.493   0.501  0.3909  0.5911 -0.4564
    5MOL0     C  597   8.158   8.408   0.540  0.4829  0.1719  0.2860
    5MOL0     C  598   8.228   8.350   0.436 -0.3636 -0.7042  0.3877
    5MOL0     O  599   8.327   8.262   0.480  0.8007  0.2357 -0.4596
    5MOL0     C  600   8.412   8.188   0.385  0.8923  0.7442 -0.4055
    5MOL0     C  601   8.523   8.272   0.329  0.5506  0.0376 -0.0181
    5MOL0     C  602   8.624   8.179   0.270  0.2342  0.0118 -0.3460
    5MOL0     C  603   8.747   8.234   0.214  0.6054  0.2785  0.2532
    5MOL0     C  604   8.808   8.328   0.309 -0.6295 -0.0086  0.1963
    5MOL0     C  605   8.844   8.403   0.404  0.4878  0.5942  0.5720
    5MOL0     C  606   8.205   8.387   0.303 -0.0006 -0.2310  0.1236
    5MOL0     C  607   8.107   8.479   0.274 -0.6893 -0.6380  0.5025
    5MOL0     H  608   7.932   8.964   0.490 -2.1369  3.2232  2.0674
    5MOL0     H  609   7.801   9.156   0.445  0.6297 -1.0567  1.9858
    5MOL0     H  610   7.647   9.347   0.376  0.4773  0.0409  0.5581
    5MOL0     H  611   7.739   9.280   0.246  1.4508  0.7509  0.0752
    5MOL0     H  612   7.608   9.456   0.159  1.7970 -0.1817  1.7107
    5MOL0     H  613   7.550   9.300   0.098 -0.7759 -0.2722  0.6964
    5MOL0     H  614   7.362   9.306   0.271 -3.1619  1.4254 -1.0188
    5MOL0     H  615   7.439   9.452   0.342 -2.3526 -2.1034  2.0719
    5MOL0     H  616   7.384   9.592   0.154  0.6076 -0.8380 -0.7139
    5MOL0     H  617   7.343   9.453   0.056  0.6230  1.5018 -0.1981
    5MOL0     H  618   7.128   9.438   0.191  0.1454  0.8998 -0.7015
    5MOL0     H  619   7.197   9.564   0.302  4.7734  0.2071  0.5584
    5MOL0     H  620   7.184   9.707   0.080 -0.9226 -0.0691 -1.2676
    5MOL0     H  621   7.085   9.577   0.021  0.2566  1.2150 -0.2227
    5MOL0     H  622   7.028   9.718   0.283  0.4988 -0.9099  0.1728
    5MOL0     H  623   6.962   9.786   0.135  0.9047  1.6310  3.1920
    5MOL0     H  624   6.926   9.480   0.183  5.7301  2.1368 -2.0533
    5MOL0     H  625   6.812   9.596   0.115  0.1183  1.9870  0.7656
    5MOL0     H  626   6.909   9.461   0.453  1.4135 -0.1237 -1.2882
    5MOL0     H  627   6.610   9.519   0.637 -0.6836  1.5381  0.7040
    5MOL0     H  628   6.785   9.460   0.682 -1.1803  0.2011  2.4484
    5MOL0     H  629   6.657   9.714   0.755  1.4676  0.8669 -3.0587
    5MOL0     H  630   6.835   9.686   0.738  1.2358 -1.4517  0.0688
    5MOL0     H  631   6.659   9.523   0.933 -1.1727  0.6023 -2.6480
    5MOL0     H  632   6.720   9.684   0.968 -0.3392 -1.7722  1.6331
    5MOL0     H  633   6.876   9.486   1.053  0.0209 -0.6068  0.5716
    5MOL0     H  634   6.953   9.594   0.936  2.0071 -2.8484 -1.4818
    5MOL0     H  635   7.078   9.513   0.697 -2.7264 -2.0277  0.9953
    5MOL0     H  636   7.264   9.526   0.567  1.3972  0.7473 -0.2854
    5MOL0     H  637   7.416   9.548   0.653  0.0137 -1.9915  4.9215
    5MOL0     H  638   7.382   9.393   0.573 -3.8575 -2.9796 -0.1656
    5MOL0     H  639   7.579   8.996   1.088 -1.6469  0.6206 -1.0517
    5MOL0     H  640   7.785   8.893   1.104  2.6163  1.2032  0.2760
    5MOL0     H  641   8.101   8.954   0.777 -0.6710 -1.2199  0.2622
    5MOL0     H  642   8.135   9.058   0.922 -1.6808  1.0443 -0.9257
    5MOL0     H  643   8.319   8.926   0.884  1.4007 -2.3163  0.7119
    5MOL0     H  644   8.241   8.872   1.032 -2.8107  0.7414  0.5269
    5MOL0     H  645   8.221   8.759   0.749 -0.1629 -3.4128 -0.4280
    5MOL0     H  646   8.128   8.688   0.876 -0.5811  0.6237  0.9505
    5MOL0     H  647   8.442   8.729   0.855  0.9081 -0.8008 -0.0043
    5MOL0     H  648   8.364   8.652   0.991 -1.7984 -1.5817 -0.1398
    5MOL0     H  649   8.338   8.547   0.703 -1.0324 -4.8738 -0.2165
    5MOL0     H  650   8.275   8.464   0.844  0.5323 -0.5416 -0.4076
    5MOL0     H  651   8.567   8.536   0.807 -3.3435  1.9849 -3.3299
    5MOL0     H  652   8.486   8.457   0.937 -1.8972  0.2250  0.3693
    5MOL0     H  653   8.514   8.353   0.648  1.4267 -2.7001 -1.2249
    5MOL0     H  654   8.410   8.270   0.753  0.4943 -0.2003 -1.3725
    5MOL0     H  655   8.644   8.167   0.748  0.9191 -1.6535  2.8955
    5MOL0     H  656   8.617   8.231   0.905  0.2799  0.6837 -0.3536
    5MOL0     H  657   7.935   9.101   0.762 -0.8603  0.7677  0.2993
    5MOL0     H  658   7.711   9.204   0.728 -1.9541 -0.0986  1.1829
    5MOL0     H  659   7.299   9.238   1.050  1.2135  0.3911 -0.1308
    5MOL0     H  660   7.050   9.272   1.038 -0.0366  2.8457  2.6185
    5MOL0     H  661   7.521   8.913   0.209 -1.0394 -0.5831  2.4217
    5MOL0     H  662   7.657   8.711   0.275 -1.6853 -1.2323  3.1011
    5MOL0     H  663   8.004   8.534   0.589  0.8712  1.1288 -0.4432
    5MOL0     H  664   8.181   8.381   0.643  0.4400  0.4187  0.3606
    5MOL0     H  665   8.445   8.098   0.438 -1.9330 -0.9936 -1.3830
    5MOL0     H  666   8.360   8.148   0.297 -2.7673  2.2735  0.8464
    5MOL0     H  667   8.562   8.338   0.408  1.1507  1.3589 -1.3555
    5MOL0     H  668   8.482   8.340   0.253  0.7997  0.1852 -0.0233
    5MOL0     H  669   8.578   8.126   0.187 -1.5410  3.4131 -1.7141
    5MOL0     H  670   8.668   8.107   0.340  5.4024  1.9505 -1.1475
    5MOL0     H  671   8.725   8.291   0.123 -2.0990  2.7563  2.2451
    5MOL0     H  672   8.813   8.149   0.195  0.9849  0.3475  1.1945
    5MOL0     H  673   8.862   8.450   0.499 -2.2186  0.4438  1.2278
    5MOL0     H  674   8.258   8.344   0.218  2.4726 -0.1170  1.5202
    5MOL0     H  675   8.095   8.499   0.168 -3.9685 -0.2564  0.8722
    6MOL0     O  676  10.613  11.076   5.902 -0.4364 -0.0688  0.4883
    6MOL0     C  677  10.701  11.154   5.942  0.1286 -1.4336 -1.0277
    6MOL0     O  678  10.686  11.253   6.041 -0.7760 -0.8184 -0.1988
    6MOL0     C  679  10.572  11.293   6.091  0.9204 -0.7460 -1.5687
    6MOL0     C  680  10.567  11.427   6.151 -0.8504 -0.7330 -0.6502
    6MOL0     C  681  10.449  11.472   6.220 -0.4148  0.4901  0.2229
    6MOL0     C  682  10.340  11.384   6.245  0.5833 -0.4270  0.4826
    6MOL0     O  683  10.225  11.421   6.305 -0.5032 -0.1822  0.2000
    6MOL0     C  684  10.232  11.530   6.389 -0.6804  1.5283  0.2233
    6MOL0     C  685  10.118  11.523   6.496  0.1881  0.2542  0.1500
    6MOL0     C  686   9.980  11.537   6.432  0.0066 -0.2724 -0.5809
    6MOL0     C  687   9.862  11.525   6.522  0.9629 -0.1447 -0.0676
    6MOL0     C  688   9.726  11.516   6.440 -1.0287  0.5365  0.3818
    6MOL0     C  689   9.605  11.489   6.524  0.3552 -0.2425 -0.1828
    6MOL0     C  690   9.481  11.498   6.430  0.3106 -1.0375  0.5657
    6MOL0     C  691   9.365  11.417   6.482  0.1889 -0.3549  0.0281
    6MOL0     N  692   9.275  11.495   6.569 -0.0117  0.1385 -0.5328
    6MOL0     C  693   9.154  11.557   6.523  1.5722 -0.0127  0.1854
    6MOL0     C  694   9.094  11.583   6.636  0.4154 -0.2789 -0.2143
    6MOL0     C  695   8.954  11.643   6.655 -0.6378 -0.0937 -0.4148
    6MOL0     C  696   8.848  11.541   6.635  0.4850  0.0879 -0.9998
    6MOL0     C  697   8.710  11.612   6.645 -0.3171  0.0360 -1.0847
    6MOL0     C  698   8.583  11.521   6.638 -0.6858 -0.5592 -0.5863
    6MOL0     O  699   8.462  11.591   6.624 -1.0813  0.5405 -0.6497
    6MOL0     C  700   8.365  11.526   6.687 -0.9670  0.0933 -0.7698
    6MOL0     C  701   8.303  11.424   6.627  0.0158 -0.7051 -0.7260
    6MOL0     C  702   8.187  11.364   6.687  0.4600 -0.2493  0.0601
    6MOL0     C  703   8.131  11.250   6.596 -0.1383 -0.2308  0.3703
    6MOL0     C  704   8.147  11.406   6.817  0.9668 -0.0192  0.3839
    6MOL0     C  705   8.035  11.341   6.884  0.0919 -0.4127  0.3980
    6MOL0     O  706   7.980  11.409   6.986  0.2039 -0.5280  0.1978
    6MOL0     C  707   7.859  11.364   7.031 -0.9066 -0.3127 -0.8273
    6MOL0     C  708   7.851  11.374   7.169 -0.2262 -0.4663  0.3479
    6MOL0     C  709   7.723  11.360   7.218  0.7469 -0.4274 -0.4908
    6MOL0     C  710   7.610  11.330   7.141 -0.7898  0.7858  0.1362
    6MOL0     O  711   7.481  11.327   7.198 -0.2893  0.4713 -0.2068
    6MOL0     C  712   7.364  11.306   7.121  1.0278  0.2189  0.1678
    6MOL0     C  713   7.319  11.428   7.035  0.0218 -0.1890 -0.5390
    6MOL0     C  714   7.177  11.413   6.971 -0.4717  0.7145  1.0440
    6MOL0     C  715   7.153  11.295   6.874  0.0061  0.3132 -0.5627
    6MOL0     C  716   7.264  11.274   6.775  0.0296 -0.1786  0.4433
    6MOL0     C  717   7.217  11.195   6.647 -1.1457  0.2966 -0.2260
    6MOL0     C  718   7.336  11.163   6.552 -0.0044 -0.1359 -0.2147
    6MOL0     C  719   7.280  11.130   6.410 -0.5275  0.5148 -0.5466
    6MOL0    Cl  720   7.267  11.279   6.311 -0.0356  0.5697  0.5168
    6MOL0     C  721   7.632  11.314   7.002  0.3916 -0.5343 -0.5856
    6MOL0     C  722   7.756  11.335   6.951 -1.1578  0.3090  0.2365
    6MOL0     O  723   8.001  11.229   6.849 -0.5261 -0.6317 -0.3657
    6MOL0     C  724   8.221  11.503   6.880  0.5664 -0.1260 -0.4442
    6MOL0     C  725   8.332  11.565   6.818 -0.5991 -0.1451  0.3864
    6MOL0     N  726   9.168  11.555   6.750  0.3631  0.1605  0.3905
    6MOL0     N  727   9.271  11.492   6.707 -0.0408  0.7416 -0.5656
    6MOL0     C  728  10.358  11.251   6.208  0.1696 -0.9875  1.0444
    6MOL0     C  729  10.469  11.214   6.125  0.4708 -0.1183  0.3484
    6MOL0     C  730  10.826  11.152   5.879 -0.3555  0.1811 -0.2859
    6MOL0     C  731  10.845  11.121   5.744 -0.1758 -0.4203 -0.0996
    6MOL0     C  732  10.961  11.143   5.683 -0.8555  0.2371 -0.2309
    6MOL0     C  733  11.069  11.203   5.742 -0.6125  0.1306 -0.2754
    6MOL0     O  734  11.191  11.217   5.672  0.1627 -0.7742  0.2690
    6MOL0     C  735  11.310  11.248   5.744 -0.4082 -0.3327  0.4253
    6MOL0     C  736  11.318  11.403   5.765 -0.3281 -0.2506  0.2193
    6MOL0     C  737  11.383  11.468   5.635 -0.0163 -0.0479  0.6797
    6MOL0     C  738  11.334  11.611   5.606  0.1422 -1.2378  0.9544
    6MOL0     C  739  11.427  11.699   5.535 -0.3576 -0.4590 -0.2111
    6MOL0     C  740  11.500  11.776   5.484  0.3081  0.0378  0.9565
    6MOL0     C  741  11.058  11.257   5.876 -0.2440  1.0918  0.0684
    6MOL0     C  742  10.935  11.237   5.930  0.7597  0.4003 -0.4570
    6MOL0     H  743  10.658  11.486   6.139 -0.3748 -1.5565 -1.1461
    6MOL0     H  744  10.445  11.568   6.270 -1.0064 -0.7698  2.7861
    6MOL0     H  745  10.314  11.517   6.461  1.0190 -2.7562 -2.1502
    6MOL0     H  746  10.240  11.622   6.331  0.1835  0.7504 -0.9222
    6MOL0     H  747  10.124  11.424   6.544  0.4361  1.7018  3.3541
    6MOL0     H  748  10.126  11.607   6.565  0.4184 -0.3814  0.9115
    6MOL0     H  749   9.968  11.628   6.372  0.4464  0.1166 -0.0803
    6MOL0     H  750   9.968  11.455   6.360  0.7157 -0.2343 -0.7488
    6MOL0     H  751   9.878  11.436   6.583  3.2299  0.2829  0.0508
    6MOL0     H  752   9.861  11.611   6.590  2.2102  0.6260 -0.9840
    6MOL0     H  753   9.712  11.608   6.383 -0.1283  1.1913  1.1810
    6MOL0     H  754   9.741  11.438   6.365 -0.0169  1.9154 -0.9171
    6MOL0     H  755   9.609  11.387   6.563 -0.6346 -0.3177 -0.2420
    6MOL0     H  756   9.603  11.549   6.615  3.6367 -2.3619  1.4761
    6MOL0     H  757   9.460  11.604   6.416 -0.9679 -1.2563  0.7194
    6MOL0     H  758   9.513  11.463   6.331  2.6057  0.9616  0.4975
    6MOL0     H  759   9.403  11.336   6.545 -3.5867 -2.2186  0.1828
    6MOL0     H  760   9.306  11.384   6.396 -2.1065  1.2997  0.8749
    6MOL0     H  761   9.120  11.580   6.422 -0.7088  1.1828  1.1341
    6MOL0     H  762   8.955  11.689   6.754 -0.9206  1.5661 -1.1545
    6MOL0     H  763   8.930  11.725   6.586 -4.0932 -4.0471 -4.5829
    6MOL0     H  764   8.870  11.467   6.713 -1.4230  1.2942  0.7889
    6MOL0     H  765   8.854  11.491   6.537  0.8702 -2.5585  0.2774
    6MOL0     H  766   8.696  11.674   6.557 -1.7017  1.7134  0.2472
    6MOL0     H  767   8.702  11.674   6.735 -0.5218 -0.3243 -0.8530
    6MOL0     H  768   8.578  11.460   6.729  0.3096 -1.4365 -1.1032
    6MOL0     H  769   8.594  11.460   6.549 -1.0172 -1.1748 -0.2110
    6MOL0     H  770   8.331  11.403   6.524  1.0365  0.4422 -0.6961
    6MOL0     H  771   8.025  11.272   6.583 -0.1553  1.0099  2.3288
    6MOL0     H  772   8.185  11.223   6.505 -0.7585 -0.4994  0.0757
    6MOL0     H  773   8.128  11.157   6.653 -1.3922 -0.3866  0.0784
    6MOL0     H  774   7.933  11.410   7.230 -0.0321 -0.2810 -0.0147
    6MOL0     H  775   7.698  11.361   7.324  0.2552 -2.2917 -0.5660
    6MOL0     H  776   7.379  11.212   7.068  0.4917  0.2849 -0.1068
    6MOL0     H  777   7.289  11.285   7.197 -2.6087 -1.4666 -3.5362
    6MOL0     H  778   7.321  11.518   7.097 -1.3687  1.1602 -2.3353
    6MOL0     H  779   7.387  11.452   6.952 -2.4474 -0.1441 -2.6825
    6MOL0     H  780   7.152  11.499   6.908  1.4580 -1.8625 -3.7337
    6MOL0     H  781   7.100  11.409   7.049 -1.7502 -3.0883 -0.1524
    6MOL0     H  782   7.141  11.210   6.940 -1.6364  2.8836  2.7555
    6MOL0     H  783   7.061  11.311   6.817 -1.9242 -1.3850  1.8918
    6MOL0     H  784   7.356  11.228   6.810  0.6742  0.8396  0.1167
    6MOL0     H  785   7.297  11.371   6.737 -3.7474  1.1501  0.1115
    6MOL0     H  786   7.162  11.107   6.679  0.5482 -0.5019  0.6236
    6MOL0     H  787   7.144  11.256   6.593 -0.4090  1.4170 -0.0006
    6MOL0     H  788   7.389  11.075   6.589 -2.5335 -1.1723  1.2068
    6MOL0     H  789   7.407  11.246   6.543 -1.6645  1.3466 -0.3577
    6MOL0     H  790   7.187  11.073   6.418 -0.4226  0.5247  1.1556
    6MOL0     H  791   7.347  11.060   6.359  0.4561  1.5504 -0.7133
    6MOL0     H  792   7.549  11.279   6.940 -0.9634  0.0878  0.8285
    6MOL0     H  793   7.761  11.342   6.842 -1.6710  1.1932  0.2583
    6MOL0     H  794   8.182  11.541   6.973  0.5477 -0.5144 -0.2907
    6MOL0     H  795   8.386  11.644   6.868 -3.3915  0.2210  3.0986
    6MOL0     H  796  10.283  11.179   6.237 -1.4819 -0.8239 -2.2701
    6MOL0     H  797  10.473  11.109   6.095  0.2161  0.3348 -1.3768
    6MOL0     H  798  10.765  11.078   5.685  0.8182 -2.7926  0.1617
    6MOL0     H  799  10.984  11.119   5.580 -0.6795 -0.0998 -0.1140
    6MOL0     H  800  11.315  11.202   5.843 -1.0225 -0.9889  0.1578
    6MOL0     H  801  11.397  11.209   5.691 -0.8521 -1.2555  0.3584
    6MOL0     H  802  11.389  11.426   5.845  0.3584  0.4758 -0.5727
    6MOL0     H  803  11.219  11.442   5.786  0.4401  3.7795 -2.5956
    6MOL0     H  804  11.361  11.412   5.543  3.2166 -1.0444  0.3704
    6MOL0     H  805  11.491  11.465   5.650  0.0388 -2.4164  0.2807
    6MOL0     H  806  11.307  11.651   5.704  0.9281 -0.1561  0.7463
    6MOL0     H  807  11.242  11.616   5.547  1.0339  3.1156 -0.4133
    6MOL0     H  808  11.561  11.854   5.443 -1.4050 -0.0138 -2.0287
    6MOL0     H  809  11.126  11.318   5.934  1.1537 -0.5199  0.2198
    6MOL0     H  810  10.918  11.268   6.033 -1.2409 -2.3249  0.1486
    7MOL0     O  811   4.356   9.877   3.143 -0.0304 -0.0622  0.4215
    7MOL0     C  812   4.339   9.898   3.026 -0.2561  0.3426  0.1714
    7MOL0     O  813   4.228   9.972   2.975  0.3171  0.3368  0.1470
    7MOL0     C  814   4.185  10.082   3.037 -0.0482 -0.1526  0.7862
    7MOL0     C  815   4.050  10.127   3.004 -0.5856  1.1379 -0.1642
    7MOL0     C  816   3.989  10.236   3.075  0.0147 -0.5743  0.3136
    7MOL0     C  817   4.069  10.312   3.164 -0.1979 -0.4717  0.2170
    7MOL0     O  818   4.029  10.428   3.224 -0.8725 -0.3702 -0.2350
    7MOL0     C  819   4.047  10.438   3.362  0.1867 -0.4552  0.1731
    7MOL0     C  820   4.013  10.587   3.388  0.3969 -0.2447 -0.4018
    7MOL0     C  821   4.020  10.616   3.535 -0.1523  0.8273  0.0454
    7MOL0     C  822   3.959  10.752   3.567 -0.1767  0.2107 -0.4816
    7MOL0     C  823   3.967  10.786   3.717 -1.1736  0.8331  0.4875
    7MOL0     C  824   3.922  10.927   3.756  0.6378  0.0734  0.1817
    7MOL0     C  825   3.991  11.051   3.690 -0.4208 -0.3616  0.1743
    7MOL0     C  826   4.144  11.046   3.677 -1.0270 -0.2835 -0.6449
    7MOL0     N  827   4.194  11.060   3.820 -0.1151 -0.6896  0.1518
    7MOL0     C  828   4.211  11.180   3.887  0.7886 -0.9778 -0.8290
    7MOL0     C  829   4.292  11.161   3.992 -0.5769  0.2687 -0.0472
    7MOL0     C  830   4.338  11.258   4.108 -0.0708 -0.1345 -0.1974
    7MOL0     C  831   4.219  11.331   4.179 -1.6138  0.9045  0.6902
    7MOL0     C  832   4.125  11.243   4.262 -0.3063 -0.0986  0.2657
    7MOL0     C  833   4.131  11.093   4.243 -0.7688 -0.4935  0.1036
    7MOL0     O  834   4.037  11.031   4.337  0.6884  1.4988 -0.2995
    7MOL0     C  835   4.021  10.899   4.336  0.3402  0.0992 -0.1090
    7MOL0     C  836   4.088  10.813   4.246 -0.8274 -0.9751  0.6605
    7MOL0     C  837   4.081  10.677   4.263 -0.2854  0.2554  0.1863
    7MOL0     C  838   4.164  10.596   4.167  0.3368  0.2320 -0.8085
    7MOL0     C  839   4.005  10.622   4.373  0.7507  0.7007 -0.5693
    7MOL0     C  840   3.998  10.476   4.408  0.2686 -0.0213 -0.2053
    7MOL0     O  841   3.901  10.439   4.496  0.3939 -0.5780 -0.2077
    7MOL0     C  842   3.918  10.332   4.579  0.8196 -0.5887  0.2269
    7MOL0     C  843   3.810  10.253   4.613  0.1652  0.7675  0.5503
    7MOL0     C  844   3.818  10.136   4.679 -0.2486 -0.1827  0.0098
    7MOL0     C  845   3.934  10.099   4.742 -0.2733 -0.8171 -0.8445
    7MOL0     O  846   3.954   9.987   4.822  0.0021  0.2313 -0.1409
    7MOL0     C  847   3.838   9.915   4.867  0.3372  0.1060  0.3122
    7MOL0     C  848   3.791   9.803   4.778 -1.1821  0.9836  0.1909
    7MOL0     C  849   3.910   9.710   4.747 -0.8864 -0.1751  0.7973
    7MOL0     C  850   3.875   9.603   4.642  0.7553  1.5440  1.1403
    7MOL0     C  851   4.004   9.540   4.573  0.0652  0.1309  0.2121
    7MOL0     C  852   3.998   9.405   4.490  0.4195  0.1403 -0.1750
    7MOL0     C  853   3.951   9.440   4.352 -0.1272 -0.3737  0.4754
    7MOL0     C  854   3.903   9.314   4.278 -0.3708  0.6720  0.1996
    7MOL0    Cl  855   4.031   9.179   4.259 -0.1233  0.0212 -0.1940
    7MOL0     C  856   4.050  10.176   4.709 -0.4489 -0.6430  0.4844
    7MOL0     C  857   4.042  10.293   4.634 -0.8244 -0.0787  0.2438
    7MOL0     O  858   4.090  10.405   4.366  0.2566 -0.2457  0.5749
    7MOL0     C  859   3.931  10.710   4.456  0.3766  0.5134 -0.3973
    7MOL0     C  860   3.941  10.837   4.426  0.5494 -0.8639  0.2743
    7MOL0     N  861   4.328  11.024   3.985  0.7131  0.4324  0.1470
    7MOL0     N  862   4.261  10.960   3.890  0.6661 -0.4174  0.6504
    7MOL0     C  863   4.198  10.271   3.189 -0.7306 -0.4397  1.5977
    7MOL0     C  864   4.257  10.158   3.130  0.5757 -0.4110 -0.4239
    7MOL0     C  865   4.403   9.794   2.936 -0.2967  0.7882 -0.3647
    7MOL0     C  866   4.489   9.696   2.988 -0.2138  0.3170  0.2824
    7MOL0     C  867   4.561   9.612   2.898 -0.0264  0.2832 -0.3668
    7MOL0     C  868   4.531   9.601   2.763  0.8224 -0.4567  0.3432
    7MOL0     O  869   4.596   9.523   2.669 -0.3439 -0.3659 -0.0131
    7MOL0     C  870   4.731   9.492   2.698  1.2413  0.7287 -0.5267
    7MOL0     C  871   4.825   9.566   2.612 -0.2083 -0.0067  0.2129
    7MOL0     C  872   4.797   9.540   2.466 -0.6968 -0.2339  0.3995
    7MOL0     C  873   4.703   9.640   2.388  0.1531  0.1821  0.1565
    7MOL0     C  874   4.788   9.753   2.372  0.1081  0.0918 -0.0078
    7MOL0     C  875   4.882   9.833   2.353 -1.2333  0.4714  0.0102
    7MOL0     C  876   4.433   9.691   2.719  0.6005 -0.2049 -0.5569
    7MOL0     C  877   4.379   9.791   2.793 -0.3839 -0.2207  1.2949
    7MOL0     H  878   3.995  10.086   2.920 -0.7137  2.2216 -0.6329
    7MOL0     H  879   3.893  10.274   3.043 -0.6945 -3.4855 -1.4198
    7MOL0     H  880   3.975  10.375   3.416 -1.5481  1.0312 -0.3057
    7MOL0     H  881   4.150  10.413   3.389  0.2315  2.5197  3.4681
    7MOL0     H  882   4.084  10.648   3.332  1.7919 -1.2462  0.2359
    7MOL0     H  883   3.915  10.617   3.348  0.7979  0.0267 -1.2097
    7MOL0     H  884   3.968  10.541   3.597  0.5539  0.2088 -0.0937
    7MOL0     H  885   4.123  10.611   3.570 -0.5464  0.1550  1.1805
    7MOL0     H  886   4.008  10.835   3.516 -1.7837 -1.4231 -5.2637
    7MOL0     H  887   3.853  10.755   3.540 -0.9625 -0.1809  2.2541
    7MOL0     H  888   3.911  10.712   3.775  3.2562 -0.8651  3.0182
    7MOL0     H  889   4.072  10.769   3.742 -0.9431  3.5428  1.6977
    7MOL0     H  890   3.814  10.938   3.738  0.8576  0.4092 -1.0055
    7MOL0     H  891   3.943  10.944   3.862  0.2341  3.1419 -0.1276
    7MOL0     H  892   3.949  11.049   3.589 -0.0387 -3.8655 -0.0432
    7MOL0     H  893   3.963  11.149   3.730  3.7965 -0.6246  4.7522
    7MOL0     H  894   4.183  11.110   3.598  1.8269 -2.5441 -1.2368
    7MOL0     H  895   4.170  10.943   3.650 -0.7781 -0.8835  1.6430
    7MOL0     H  896   4.161  11.272   3.858 -0.5751 -2.3354 -3.0375
    7MOL0     H  897   4.405  11.211   4.180 -1.6358  0.2106  1.5517
    7MOL0     H  898   4.398  11.340   4.066 -0.6808 -0.5685 -2.0340
    7MOL0     H  899   4.154  11.371   4.102  0.2080 -0.0804 -1.4623
    7MOL0     H  900   4.247  11.421   4.235  1.8909 -1.8419  3.9734
    7MOL0     H  901   4.021  11.261   4.233 -0.1809 -1.5581 -1.2505
    7MOL0     H  902   4.128  11.264   4.369  0.9328 -0.0036  0.2238
    7MOL0     H  903   4.236  11.062   4.244  0.1938  2.4415  0.1144
    7MOL0     H  904   4.086  11.060   4.149 -1.1696  2.4182 -0.8409
    7MOL0     H  905   4.155  10.851   4.169 -3.2108 -1.5924 -1.8619
    7MOL0     H  906   4.191  10.652   4.076  1.0704 -0.7109 -1.1830
    7MOL0     H  907   4.258  10.580   4.221  0.7312 -0.5455 -1.6983
    7MOL0     H  908   4.121  10.502   4.132 -0.9818 -0.0689  1.4364
    7MOL0     H  909   3.719  10.282   4.561 -0.8075  1.5415  2.5915
    7MOL0     H  910   3.728  10.077   4.691 -0.2191 -0.0575  0.9819
    7MOL0     H  911   3.850   9.867   4.965 -1.1462  1.3357  1.1286
    7MOL0     H  912   3.754   9.983   4.884  0.4514 -0.3211  3.0135
    7MOL0     H  913   3.702   9.753   4.818 -0.9990  0.2868 -0.2420
    7MOL0     H  914   3.752   9.845   4.686  1.2814 -1.2337 -2.0438
    7MOL0     H  915   3.941   9.661   4.840 -0.5044  0.1961  0.8688
    7MOL0     H  916   3.989   9.776   4.712 -1.5917  0.0901 -0.3545
    7MOL0     H  917   3.827   9.522   4.697 -1.5388  3.1100  1.6158
    7MOL0     H  918   3.809   9.643   4.564  2.1909  0.6021 -0.6479
    7MOL0     H  919   4.067   9.516   4.659 -3.0466 -2.9466  1.8898
    7MOL0     H  920   4.060   9.612   4.513 -3.5633  1.3415 -2.0464
    7MOL0     H  921   4.096   9.357   4.484 -0.0432 -0.9465  0.7403
    7MOL0     H  922   3.928   9.331   4.529 -0.3300  1.2321  0.6144
    7MOL0     H  923   4.035   9.486   4.299 -0.2840  0.0451  0.5877
    7MOL0     H  924   3.871   9.514   4.363 -0.3958 -0.6328  0.3113
    7MOL0     H  925   3.874   9.339   4.175  1.6138  1.2147 -0.2665
    7MOL0     H  926   3.811   9.282   4.328 -0.6896  1.3840  0.0847
    7MOL0     H  927   4.147  10.164   4.756  0.6489  3.9058 -0.1576
    7MOL0     H  928   4.124  10.362   4.616 -1.1426 -0.1248 -1.5515
    7MOL0     H  929   3.860  10.685   4.534  0.1336  0.3495 -0.6680
    7MOL0     H  930   3.885  10.905   4.490 -1.3185  0.4840 -2.6055
    7MOL0     H  931   4.268  10.327   3.250 -3.3595  1.3029  3.2042
    7MOL0     H  932   4.362  10.133   3.142  0.3251 -0.8835  0.9314
    7MOL0     H  933   4.510   9.702   3.095 -1.1121  3.6536  0.3815
    7MOL0     H  934   4.632   9.546   2.947  0.7869 -0.0194 -1.8596
    7MOL0     H  935   4.758   9.509   2.803 -1.2771  0.5353  0.2158
    7MOL0     H  936   4.729   9.387   2.667 -1.4763  1.6690 -4.1863
    7MOL0     H  937   4.929   9.538   2.633 -0.2806 -2.8084 -2.3542
    7MOL0     H  938   4.811   9.672   2.633 -1.1523 -0.4761  2.1495
    7MOL0     H  939   4.751   9.441   2.459  0.8558 -0.8787 -2.2506
    7MOL0     H  940   4.888   9.533   2.405 -1.0090 -0.5128 -0.0377
    7MOL0     H  941   4.629   9.664   2.465 -0.2612 -0.8053  0.0827
    7MOL0     H  942   4.663   9.606   2.292  1.9972 -1.7224  0.0020
    7MOL0     H  943   4.961   9.898   2.320  0.5196 -2.2215 -1.5454
    7MOL0     H  944   4.402   9.679   2.616 -1.2093  0.3582 -0.1015
    7MOL0     H  945   4.303   9.858   2.754 -2.1686 -2.6686  0.2811
    8MOL0     O  946   5.126  11.125  10.471  0.4527 -0.0559  0.2797
    8MOL0     C  947   5.073  11.040  10.407 -0.6477  0.5273 -0.6890
    8MOL0     O  948   5.144  10.937  10.340  1.5364  0.5799 -0.1089
    8MOL0     C  949   5.253  10.972  10.279  0.2304 -0.6114  0.3613
    8MOL0     C  950   5.274  11.074  10.183 -0.7220 -0.6556  0.8585
    8MOL0     C  951   5.385  11.081  10.110 -0.0128  0.2394 -0.3192
    8MOL0     C  952   5.492  10.982  10.124 -0.1216 -0.3059 -0.3014
    8MOL0     O  953   5.609  10.989  10.050  1.3972 -0.3865 -0.4385
    8MOL0     C  954   5.733  10.949  10.106 -0.9310  0.2694  0.3778
    8MOL0     C  955   5.859  11.000  10.037  0.2340 -0.1105  0.1100
    8MOL0     C  956   5.989  10.944  10.102  0.5763 -0.7101  0.5377
    8MOL0     C  957   6.104  10.951  10.005 -0.0146  0.2240 -0.5605
    8MOL0     C  958   6.235  10.902  10.082 -0.1661  0.3511  0.2519
    8MOL0     C  959   6.369  10.944  10.012  0.0521  0.2012  0.3843
    8MOL0     C  960   6.403  11.094  10.036  0.4102  0.4264 -0.4087
    8MOL0     C  961   6.529  11.118   9.962 -0.4792 -0.0412  0.9267
    8MOL0     N  962   6.649  11.050  10.021 -0.0894  1.0028 -0.9222
    8MOL0     C  963   6.702  11.089  10.144  0.2946 -0.3555  0.2917
    8MOL0     C  964   6.795  11.006  10.180 -0.3526  0.2652  0.0675
    8MOL0     C  965   6.860  10.976  10.314 -1.0191 -0.7738  0.0229
    8MOL0     C  966   7.017  10.990  10.301 -0.1420 -0.7961 -0.4090
    8MOL0     C  967   7.074  10.961  10.437 -0.7634 -0.3291  0.9616
    8MOL0     C  968   7.224  10.968  10.432 -0.5022  0.1443 -0.0559
    8MOL0     O  969   7.280  10.961  10.563 -0.6982  0.7841  0.8339
    8MOL0     C  970   7.409  10.965  10.585  0.3112 -0.6225 -0.7864
    8MOL0     C  971   7.468  11.075  10.643  0.7917  0.6036  0.3578
    8MOL0     C  972   7.598  11.072  10.681  0.2380  0.1396 -0.3357
    8MOL0     C  973   7.650  11.205  10.733  0.3134 -0.2679 -0.2777
    8MOL0     C  974   7.681  10.960  10.669  0.4733  0.2752 -0.6274
    8MOL0     C  975   7.819  10.952  10.719  1.5022 -0.3527  0.1178
    8MOL0     O  976   7.859  10.826  10.764  0.0034 -0.9716 -0.0486
    8MOL0     C  977   7.987  10.800  10.820 -0.0915 -0.0805  0.7083
    8MOL0     C  978   8.066  10.683  10.803  0.3191  0.1681 -0.6699
    8MOL0     C  979   8.191  10.671  10.873 -0.4558 -0.1281 -0.2929
    8MOL0     C  980   8.241  10.771  10.949  0.2228 -0.5144 -0.4133
    8MOL0     O  981   8.363  10.747  11.004  0.4913  0.2968 -0.2858
    8MOL0     C  982   8.440  10.854  11.060  0.8573 -0.6361  0.1319
    8MOL0     C  983   8.483  10.971  10.972  0.5836  0.4614  0.0209
    8MOL0     C  984   8.590  10.918  10.877  1.3230  0.7052 -0.6286
    8MOL0     C  985   8.691  11.016  10.823  0.4295 -0.3004  0.1202
    8MOL0     C  986   8.828  10.996  10.882 -0.5716 -0.6800 -0.1801
    8MOL0     C  987   8.930  11.095  10.829 -0.7662  0.0522 -0.0211
    8MOL0     C  988   9.004  11.038  10.693  0.2239 -0.4860 -0.3139
    8MOL0     C  989   9.092  11.152  10.634  0.6035 -0.1278  0.3107
    8MOL0    Cl  990   9.132  11.114  10.465  0.0533  0.1662 -0.2627
    8MOL0     C  991   8.168  10.892  10.962  0.3252 -0.1531 -0.4444
    8MOL0     C  992   8.036  10.901  10.900  0.0513  1.3580 -0.0283
    8MOL0     O  993   7.890  11.052  10.704  0.1040  0.3693 -0.0384
    8MOL0     C  994   7.620  10.845  10.612 -0.5196 -0.4701  0.1604
    8MOL0     C  995   7.485  10.844  10.571 -0.1887  0.3266  0.1170
    8MOL0     N  996   6.811  10.922  10.065  0.0696  1.8206  0.9912
    8MOL0     N  997   6.724  10.949   9.971  0.3356 -0.4544 -0.7284
    8MOL0     C  998   5.471  10.880  10.212 -0.3877  1.1145  1.7159
    8MOL0     C  999   5.358  10.878  10.299  0.2688  0.1841 -0.3106
    8MOL0     C 1000   4.932  11.035  10.415  0.4980 -0.9766 -1.4575
    8MOL0     C 1001   4.863  10.957  10.325 -0.2579  0.1074  0.4244
    8MOL0     C 1002   4.722  10.962  10.331  0.0563  0.6489 -0.1982
    8MOL0     C 1003   4.655  11.046  10.430  0.3758 -0.6388  0.2543
    8MOL0     O 1004   4.515  11.060  10.449  0.0123 -0.1584  0.3424
    8MOL0     C 1005   4.445  10.955  10.392 -0.5915 -0.3024  0.4687
    8MOL0     C 1006   4.297  10.978  10.411  0.4051 -0.4482  0.2471
    8MOL0     C 1007   4.267  10.958  10.562  0.8604  1.2482  0.4155
    8MOL0     C 1008   4.116  10.955  10.559 -0.5553 -0.4532  0.0484
    8MOL0     C 1009   4.068  10.923  10.690  0.6000 -0.3535  0.3688
    8MOL0     C 1010   4.027  10.884  10.798  0.4945  1.0317  0.2554
    8MOL0     C 1011   4.723  11.126  10.514 -0.3183 -0.0224  0.3220
    8MOL0     C 1012   4.859  11.119  10.508 -0.3369  0.3396  0.0208
    8MOL0     H 1013   5.189  11.132  10.149  0.6673 -0.1887 -2.1219
    8MOL0     H 1014   5.402  11.158  10.035 -0.2982  0.0586 -0.5706
    8MOL0     H 1015   5.749  10.969  10.212 -1.0955  1.9143  0.1160
    8MOL0     H 1016   5.729  10.839  10.106  0.3810  0.1748  2.0126
    8MOL0     H 1017   5.859  10.961   9.935  4.4038 -3.4608  1.0579
    8MOL0     H 1018   5.855  11.109  10.045 -1.8171 -0.1718  0.4002
    8MOL0     H 1019   6.027  10.999  10.188  3.7737 -1.7773 -0.0702
    8MOL0     H 1020   5.980  10.835  10.114 -0.5537 -0.6658  0.1988
    8MOL0     H 1021   6.091  10.893   9.913  3.9183 -0.7990 -0.6313
    8MOL0     H 1022   6.136  11.052   9.978  3.5150 -0.7356 -0.3627
    8MOL0     H 1023   6.235  10.934  10.187  2.1750  0.1941  0.3496
    8MOL0     H 1024   6.230  10.794  10.097  0.2047  0.2469 -0.3632
    8MOL0     H 1025   6.451  10.881  10.048 -0.3823  0.5050  2.0184
    8MOL0     H 1026   6.361  10.931   9.904 -1.7880  0.2592  0.4926
    8MOL0     H 1027   6.336  11.162   9.982  1.0755  1.1313 -0.3736
    8MOL0     H 1028   6.409  11.125  10.141  0.5193 -0.2887 -0.2019
    8MOL0     H 1029   6.551  11.225   9.955 -0.3671  0.1786  3.5997
    8MOL0     H 1030   6.517  11.078   9.861  0.5274 -0.3173  0.9067
    8MOL0     H 1031   6.658  11.167  10.205 -0.1814 -1.9326  2.0709
    8MOL0     H 1032   6.840  11.047  10.395  0.5039 -0.9059  0.5490
    8MOL0     H 1033   6.833  10.877  10.351  0.2185 -0.9010  0.6289
    8MOL0     H 1034   7.056  11.087  10.268 -1.1724 -0.1603  0.1773
    8MOL0     H 1035   7.053  10.919  10.225 -0.8566  0.1841 -1.7197
    8MOL0     H 1036   7.048  10.857  10.461  0.7746 -1.0930 -0.4618
    8MOL0     H 1037   7.048  11.033  10.514  2.1598  2.4791 -0.4742
    8MOL0     H 1038   7.252  11.065  10.389  0.1388 -0.4296 -0.9770
    8MOL0     H 1039   7.253  10.890  10.361 -2.6090 -2.0102  1.3173
    8MOL0     H 1040   7.406  11.164  10.652 -1.2284 -0.8926  2.4025
    8MOL0     H 1041   7.568  11.259  10.782 -1.3251 -3.9381  1.4091
    8MOL0     H 1042   7.710  11.182  10.822  0.6658 -1.8413 -0.9010
    8MOL0     H 1043   7.706  11.262  10.658 -0.7017 -1.4673 -2.0144
    8MOL0     H 1044   8.029  10.606  10.735  4.3214  0.4422 -3.5409
    8MOL0     H 1045   8.256  10.585  10.868  1.0445  0.9944 -0.9256
    8MOL0     H 1046   8.393  10.894  11.150 -1.0268  1.5015 -1.6730
    8MOL0     H 1047   8.530  10.804  11.096  0.0839 -1.6983  0.6349
    8MOL0     H 1048   8.399  11.014  10.918 -0.3936  1.0797  1.9435
    8MOL0     H 1049   8.523  11.043  11.044  2.3713 -2.7033  2.4496
    8MOL0     H 1050   8.525  10.881  10.797 -2.1654  1.4063  1.6527
    8MOL0     H 1051   8.643  10.829  10.911  1.8904  0.9483 -0.8733
    8MOL0     H 1052   8.702  10.993  10.717 -1.3004  1.2491 -0.4482
    8MOL0     H 1053   8.658  11.120  10.827  0.7552 -0.0002 -2.9562
    8MOL0     H 1054   8.865  10.894  10.865 -1.7210 -1.3390  1.1818
    8MOL0     H 1055   8.823  11.027  10.987  2.3125 -0.8618  0.0944
    8MOL0     H 1056   8.879  11.189  10.809 -3.5416 -1.0924  1.2238
    8MOL0     H 1057   9.008  11.114  10.904  1.2702 -2.3401 -1.3683
    8MOL0     H 1058   8.931  11.004  10.620 -2.5131  0.0970  1.9668
    8MOL0     H 1059   9.073  10.956  10.717  0.5839 -0.1713 -0.2694
    8MOL0     H 1060   9.185  11.163  10.690 -0.1683 -1.8489  2.0787
    8MOL0     H 1061   9.026  11.239  10.636  0.2139 -0.4184  2.0651
    8MOL0     H 1062   8.191  10.975  11.027 -0.9517 -0.1660  0.0575
    8MOL0     H 1063   7.967  10.981  10.924 -2.2280 -0.5068  0.0245
    8MOL0     H 1064   7.685  10.758  10.613  0.8098  0.4246  3.2373
    8MOL0     H 1065   7.434  10.752  10.543  0.8794  0.0409 -0.9410
    8MOL0     H 1066   5.549  10.809  10.237  0.4655  1.3169 -0.2040
    8MOL0     H 1067   5.335  10.795  10.365  1.1927  1.1466  1.2727
    8MOL0     H 1068   4.922  10.879  10.278  0.9060  0.7614  0.7643
    8MOL0     H 1069   4.656  10.903  10.269  1.2243  0.9695 -1.8131
    8MOL0     H 1070   4.464  10.970  10.285 -3.6806 -1.6307 -0.3653
    8MOL0     H 1071   4.477  10.856  10.426 -0.5346 -0.6748 -0.6249
    8MOL0     H 1072   4.241  10.924  10.334 -1.2288 -0.8240  1.6395
    8MOL0     H 1073   4.273  11.079  10.376  1.7205 -0.4172 -0.6029
    8MOL0     H 1074   4.304  11.046  10.616  0.2000  1.3142  0.7707
    8MOL0     H 1075   4.313  10.867  10.601 -0.6994 -0.0920 -0.7705
    8MOL0     H 1076   4.083  10.879  10.488 -0.4050 -0.8407  0.3880
    8MOL0     H 1077   4.086  11.052  10.519 -0.5210 -0.6590 -0.4880
    8MOL0     H 1078   4.000  10.863  10.899  3.0181 -1.3980  0.5279
    8MOL0     H 1079   4.670  11.197  10.576 -2.0373 -1.2167  0.2702
    8MOL0     H 1080   4.926  11.174  10.574 -0.7642 -0.8879  1.5365
    9MOL0     O 1081  11.141   4.234   8.759 -0.1454  0.7572  0.2186
    9MOL0     C 1082  11.156   4.269   8.875  0.9961  0.8530  0.5805
    9MOL0     O 1083  11.268   4.276   8.944 -0.1130 -0.2472  0.5204
    9MOL0     C 1084  11.382   4.221   8.910 -0.5437  0.2391  0.7446
    9MOL0     C 1085  11.499   4.298   8.940 -0.4318 -0.8662 -0.8538
    9MOL0     C 1086  11.628   4.254   8.903  0.0375 -0.0696  0.4608
    9MOL0     C 1087  11.644   4.126   8.841 -0.8033 -0.0637 -0.5184
    9MOL0     O 1088  11.757   4.064   8.798 -0.2282  0.2957 -0.2243
    9MOL0     C 1089  11.872   4.085   8.890  0.1329  0.5487  0.4141
    9MOL0     C 1090  11.955   4.195   8.830 -0.7290  0.2192 -0.2417
    9MOL0     C 1091  12.101   4.193   8.881 -0.1804  0.2835 -0.2605
    9MOL0     C 1092  12.185   4.075   8.838 -0.1802  0.0685  0.1492
    9MOL0     C 1093  12.251   4.077   8.706 -0.3271 -0.2203  0.0529
    9MOL0     C 1094  12.333   3.953   8.694 -0.9725 -1.5407  0.6115
    9MOL0     C 1095  12.362   3.934   8.538  0.0321 -0.6792 -0.2957
    9MOL0     C 1096  12.426   4.057   8.463  0.7118 -0.4244  1.1041
    9MOL0     N 1097  12.442   4.033   8.319 -0.4768  0.1779 -0.4749
    9MOL0     C 1098  12.528   3.931   8.280  0.1744 -0.6632 -0.2350
    9MOL0     C 1099  12.564   3.962   8.155  0.1731 -0.0052  0.2720
    9MOL0     C 1100  12.659   3.885   8.062  1.2702 -0.2408  0.2762
    9MOL0     C 1101  12.759   3.805   8.140  0.0664 -0.3759 -0.6169
    9MOL0     C 1102  12.815   3.685   8.059 -0.2976  0.3154  0.6581
    9MOL0     C 1103  12.870   3.722   7.922  0.1447  0.2530  1.4067
    9MOL0     O 1104  12.972   3.828   7.939  0.1986  0.5598  0.3487
    9MOL0     C 1105  13.075   3.824   7.851 -0.6539  0.2427 -0.5403
    9MOL0     C 1106  13.194   3.892   7.870  0.6085 -1.1085 -0.3357
    9MOL0     C 1107  13.296   3.912   7.775  0.0414  0.1213  0.3296
    9MOL0     C 1108  13.407   4.003   7.813  0.0308  1.9598 -0.0774
    9MOL0     C 1109  13.280   3.852   7.646 -0.1111  0.3874 -1.0919
    9MOL0     C 1110  13.385   3.854   7.543  0.2985  0.7066 -0.1911
    9MOL0     O 1111  13.512   3.902   7.572 -0.6692  0.2248  0.1080
    9MOL0     C 1112  13.615   3.849   7.502 -0.4194 -0.3593 -0.0078
    9MOL0     C 1113  13.630   3.716   7.457 -0.0418 -0.2296 -0.5582
    9MOL0     C 1114  13.752   3.676   7.396  0.0840 -0.3050 -0.7045
    9MOL0     C 1115  13.855   3.763   7.372  0.6118 -0.1044  0.2827
    9MOL0     O 1116  13.968   3.724   7.307 -0.2078  0.0367  0.9614
    9MOL0     C 1117  13.949   3.660   7.184  0.0509 -0.1739  0.0644
    9MOL0     C 1118  14.070   3.661   7.097  0.3752  0.3270  0.1385
    9MOL0     C 1119  14.184   3.577   7.162  0.5023 -0.7100  0.6533
    9MOL0     C 1120  14.318   3.617   7.105  0.4237  0.4709 -0.0870
    9MOL0     C 1121  14.421   3.525   7.152 -0.7049 -0.3822 -0.0343
    9MOL0     C 1122  14.466   3.541   7.299  0.3256 -1.1874  0.1437
    9MOL0     C 1123  14.590   3.458   7.332 -0.0300 -0.3996 -0.6872
    9MOL0     C 1124  14.641   3.487   7.473  0.3103 -0.2720 -0.1156
    9MOL0    Cl 1125  14.684   3.659   7.488 -0.2321 -0.1532 -0.3477
    9MOL0     C 1126  13.835   3.898   7.404 -0.1575  0.4334 -1.5639
    9MOL0     C 1127  13.722   3.937   7.472  0.4701  0.6738 -0.4683
    9MOL0     O 1128  13.350   3.804   7.436 -0.1916  0.3807  0.0632
    9MOL0     C 1129  13.152   3.793   7.616 -0.2798 -0.3093 -0.0473
    9MOL0     C 1130  13.054   3.787   7.715  0.2090 -0.0297 -0.6160
    9MOL0     N 1131  12.491   4.077   8.120 -0.2780 -0.0750 -0.2979
    9MOL0     N 1132  12.415   4.119   8.220 -0.3372 -0.2571 -0.2034
    9MOL0     C 1133  11.529   4.055   8.808  0.2598  0.7459 -0.7259
    9MOL0     C 1134  11.400   4.109   8.834  0.6375  0.0694 -0.0137
    9MOL0     C 1135  11.037   4.267   8.955 -0.8555 -0.7705 -0.2064
    9MOL0     C 1136  10.920   4.304   8.897 -0.6098 -0.2948 -0.7139
    9MOL0     C 1137  10.811   4.322   8.980 -0.6310  0.5767  0.5188
    9MOL0     C 1138  10.811   4.301   9.115 -0.1793  0.0245  0.3051
    9MOL0     O 1139  10.699   4.303   9.186 -0.1343  0.2319 -0.0864
    9MOL0     C 1140  10.583   4.376   9.150  0.0182  0.4779  0.7920
    9MOL0     C 1141  10.469   4.333   9.247 -0.0389  0.8280  0.5568
    9MOL0     C 1142  10.443   4.186   9.215 -0.5628 -0.9200  0.4403
    9MOL0     C 1143  10.354   4.103   9.321  0.2671  1.3087  0.1455
    9MOL0     C 1144  10.234   4.181   9.332 -0.3678  0.6358 -0.2840
    9MOL0     C 1145  10.142   4.259   9.357 -0.3103  0.2628 -0.2724
    9MOL0     C 1146  10.929   4.256   9.170 -0.8163  0.4279 -0.9862
    9MOL0     C 1147  11.042   4.239   9.096  0.0474 -0.4930  0.6779
    9MOL0     H 1148  11.485   4.396   8.985 -2.8754 -0.7133 -1.7962
    9MOL0     H 1149  11.719   4.313   8.916  1.4261 -2.1291  0.5657
    9MOL0     H 1150  11.840   4.119   8.989  2.2848  2.1956  0.6155
    9MOL0     H 1151  11.926   3.990   8.888 -0.3815  0.2164 -2.9634
    9MOL0     H 1152  11.942   4.180   8.722 -2.7613  0.4497 -0.0739
    9MOL0     H 1153  11.921   4.297   8.852  0.4763  1.0270 -1.8462
    9MOL0     H 1154  12.154   4.279   8.839  1.7040  0.0311  1.4501
    9MOL0     H 1155  12.095   4.204   8.990  0.0741 -4.2908  0.4332
    9MOL0     H 1156  12.262   4.065   8.915  1.8851 -0.7290 -1.8962
    9MOL0     H 1157  12.118   3.988   8.845 -1.3821  1.0142  0.6863
    9MOL0     H 1158  12.167   4.068   8.636  1.1426 -2.2497 -1.6132
    9MOL0     H 1159  12.315   4.165   8.695 -1.1847  0.4393  0.2532
    9MOL0     H 1160  12.426   3.957   8.751 -0.9971 -3.9042  0.8993
    9MOL0     H 1161  12.272   3.869   8.728 -2.4515  0.6782  3.9913
    9MOL0     H 1162  12.421   3.846   8.512 -0.8271 -0.0400 -5.4474
    9MOL0     H 1163  12.272   3.904   8.484  1.9606  1.9757 -5.8133
    9MOL0     H 1164  12.524   4.060   8.511  2.0942 -3.7479 -1.1842
    9MOL0     H 1165  12.371   4.152   8.459  1.0615 -0.1810  1.9994
    9MOL0     H 1166  12.554   3.852   8.350 -1.7348 -1.6815 -0.5924
    9MOL0     H 1167  12.598   3.823   7.995 -1.9208  1.1225  1.6940
    9MOL0     H 1168  12.710   3.957   7.997 -1.0544 -1.0871 -2.7601
    9MOL0     H 1169  12.717   3.760   8.231 -2.6009  0.8252 -1.1481
    9MOL0     H 1170  12.842   3.870   8.168  0.4951 -1.4492  0.6911
    9MOL0     H 1171  12.738   3.612   8.034 -0.9659  1.3482 -0.3641
    9MOL0     H 1172  12.896   3.647   8.123 -0.2805  0.4302  0.7062
    9MOL0     H 1173  12.790   3.761   7.858  0.2804 -3.4419 -1.2984
    9MOL0     H 1174  12.911   3.633   7.875  0.0629  0.8059  0.2573
    9MOL0     H 1175  13.192   3.948   7.963 -0.2291  1.0988 -1.5961
    9MOL0     H 1176  13.375   4.052   7.906 -1.2965  1.5718 -0.3096
    9MOL0     H 1177  13.495   3.940   7.834  0.3698  2.5367  0.2557
    9MOL0     H 1178  13.431   4.066   7.727 -0.4774 -2.0060 -3.4373
    9MOL0     H 1179  13.553   3.643   7.481 -0.0455 -0.0041  0.1652
    9MOL0     H 1180  13.757   3.578   7.349  1.1578 -1.3124  1.3309
    9MOL0     H 1181  13.924   3.554   7.185 -3.9880  0.6191 -0.6368
    9MOL0     H 1182  13.878   3.710   7.117  3.4116 -0.2992 -3.9867
    9MOL0     H 1183  14.044   3.616   7.001 -1.5643  1.0295  0.2897
    9MOL0     H 1184  14.103   3.763   7.075 -1.7377  1.0367  0.0764
    9MOL0     H 1185  14.163   3.470   7.152  0.5688 -0.9082  2.4274
    9MOL0     H 1186  14.182   3.594   7.270 -0.6598 -2.4183  0.9527
    9MOL0     H 1187  14.305   3.616   6.997  2.5232  2.3673 -0.4098
    9MOL0     H 1188  14.361   3.715   7.128 -0.5969  1.3395 -1.7562
    9MOL0     H 1189  14.507   3.561   7.094 -2.0584  2.3795 -0.5081
    9MOL0     H 1190  14.386   3.425   7.125  0.1672 -1.1236  1.4744
    9MOL0     H 1191  14.491   3.647   7.307  0.0640 -1.0333 -0.9133
    9MOL0     H 1192  14.384   3.531   7.372 -1.2331  3.6368 -0.5681
    9MOL0     H 1193  14.668   3.485   7.260  1.3314  0.9306  1.1833
    9MOL0     H 1194  14.565   3.351   7.332 -1.8139 -0.0290  0.3810
    9MOL0     H 1195  14.733   3.432   7.493 -0.7291 -2.4939 -1.1282
    9MOL0     H 1196  14.559   3.455   7.539 -1.3016  0.1555 -1.8149
    9MOL0     H 1197  13.919   3.963   7.380 -0.1700  1.5309  1.0539
    9MOL0     H 1198  13.719   4.044   7.494 -4.1513  1.3570 -3.1009
    9MOL0     H 1199  13.132   3.751   7.517  0.7392 -0.0520 -0.3764
    9MOL0     H 1200  12.958   3.744   7.688 -1.1731  2.5267 -0.1381
    9MOL0     H 1201  11.546   3.966   8.748 -1.1972  0.3316 -0.5637
    9MOL0     H 1202  11.310   4.050   8.821 -1.0600  2.1736  1.5026
    9MOL0     H 1203  10.921   4.335   8.793  1.5929  0.3724 -0.5488
    9MOL0     H 1204  10.721   4.362   8.934  0.2417  0.7613 -1.1297
    9MOL0     H 1205  10.605   4.482   9.166  3.3272  1.0433 -4.7856
    9MOL0     H 1206  10.546   4.364   9.048  1.7668  3.3962 -0.3144
    9MOL0     H 1207  10.370   4.378   9.228 -1.0800 -2.0495 -1.5943
    9MOL0     H 1208  10.498   4.358   9.349  1.3455 -1.6666  0.8528
    9MOL0     H 1209  10.537   4.132   9.206  0.7956  1.5148 -1.3563
    9MOL0     H 1210  10.409   4.183   9.111  2.0738  1.0384 -0.6145
    9MOL0     H 1211  10.408   4.098   9.416  0.7178 -1.9351 -0.1563
    9MOL0     H 1212  10.325   4.001   9.294  2.7691  0.2114  1.2109
    9MOL0     H 1213  10.075   4.341   9.374  0.1428  0.5415  0.1952
    9MOL0     H 1214  10.933   4.231   9.276 -0.4847  0.7687 -0.9194
    9MOL0     H 1215  11.132   4.207   9.148  0.3807 -1.1977 -0.3017
   10MOL0     O 1216   4.635  10.069   0.797  0.0230 -0.0470 -0.9584
   10MOL0     C 1217   4.713   9.979   0.817 -0.8441 -0.4462 -0.5018
   10MOL0     O 1218   4.677   9.852   0.868  0.8113  0.1671  0.6254
   10MOL0     C 1219   4.542   9.799   0.857 -0.2643 -1.2085 -0.4708
   10MOL0     C 1220   4.497   9.699   0.944  0.0038  0.9934 -0.1920
   10MOL0     C 1221   4.371   9.641   0.933 -0.9572 -0.8987 -0.0942
   10MOL0     C 1222   4.282   9.684   0.836  0.5361  0.6190  0.1534
   10MOL0     O 1223   4.160   9.621   0.843  0.1977 -0.2182 -0.7094
   10MOL0     C 1224   4.039   9.703   0.828 -0.1713  0.2871  0.6087
   10MOL0     C 1225   3.915   9.623   0.814  0.7147 -0.0915 -0.2669
   10MOL0     C 1226   3.885   9.533   0.934  0.2513  0.6649 -0.0010
   10MOL0     C 1227   3.775   9.590   1.021  0.5794  1.2836 -1.0375
   10MOL0     C 1228   3.631   9.543   0.975 -0.4538 -0.0580  0.7290
   10MOL0     C 1229   3.538   9.612   1.075 -0.0482  0.8458 -0.6363
   10MOL0     C 1230   3.393   9.577   1.049  0.1285 -0.8547 -0.3740
   10MOL0     C 1231   3.311   9.565   1.178 -0.3520  0.2467 -0.1740
   10MOL0     N 1232   3.255   9.699   1.199  0.9410 -0.1937 -0.3493
   10MOL0     C 1233   3.127   9.745   1.166 -1.0032  0.0466 -0.3416
   10MOL0     C 1234   3.119   9.875   1.207  0.4114 -0.9095  0.5966
   10MOL0     C 1235   3.011   9.974   1.189  0.1229 -0.3677 -0.6483
   10MOL0     C 1236   2.866   9.913   1.166 -0.8023  0.5440  1.0369
   10MOL0     C 1237   2.770   9.916   1.285 -0.1572 -1.0703  0.1959
   10MOL0     C 1238   2.622   9.892   1.266  0.4943 -0.3690  0.0176
   10MOL0     O 1239   2.596   9.752   1.253 -0.2839 -0.5845 -0.0686
   10MOL0     C 1240   2.465   9.726   1.216 -0.6060 -0.3007 -1.0142
   10MOL0     C 1241   2.407   9.766   1.092 -1.1482 -0.0401 -0.5545
   10MOL0     C 1242   2.278   9.739   1.059  0.4039 -0.3558 -0.5613
   10MOL0     C 1243   2.243   9.793   0.921  0.3595 -0.5791  0.8230
   10MOL0     C 1244   2.195   9.671   1.150  0.2522 -0.7770  0.1182
   10MOL0     C 1245   2.059   9.630   1.120 -1.2185 -0.0878 -0.0015
   10MOL0     O 1246   1.951   9.667   1.193  0.1835 -0.2891 -0.2153
   10MOL0     C 1247   1.831   9.614   1.160 -0.0801 -0.1010  0.1715
   10MOL0     C 1248   1.778   9.506   1.228  0.3776  0.4267  0.4381
   10MOL0     C 1249   1.651   9.447   1.191  0.7491 -0.4097 -0.9496
   10MOL0     C 1250   1.578   9.503   1.084 -0.1669  0.1624 -0.6719
   10MOL0     O 1251   1.457   9.447   1.050 -0.1823  0.6356  0.5189
   10MOL0     C 1252   1.339   9.533   1.052  0.2477  0.0502  0.8038
   10MOL0     C 1253   1.271   9.500   0.919 -1.0584 -0.5985 -1.2242
   10MOL0     C 1254   1.348   9.552   0.795 -0.4940 -0.1563 -0.0554
   10MOL0     C 1255   1.339   9.704   0.777  0.4785  0.5402  0.6871
   10MOL0     C 1256   1.423   9.740   0.658 -0.6876 -0.2364  0.6827
   10MOL0     C 1257   1.442   9.890   0.641 -0.4966 -0.4188 -0.3936
   10MOL0     C 1258   1.316   9.950   0.584 -0.5316 -0.5542 -0.1311
   10MOL0     C 1259   1.320  10.105   0.595 -0.2010 -0.6979 -0.3625
   10MOL0    Cl 1260   1.197  10.188   0.507 -0.2893 -0.0267 -0.2329
   10MOL0     C 1261   1.638   9.610   1.016  0.4907 -0.3029  0.4628
   10MOL0     C 1262   1.761   9.664   1.056 -0.0309  0.8644  0.1713
   10MOL0     O 1263   2.052   9.552   1.024 -0.5579  0.1792  0.1887
   10MOL0     C 1264   2.251   9.623   1.274  0.1538 -0.0579 -0.7142
   10MOL0     C 1265   2.381   9.664   1.308  0.5496 -0.0176 -0.3848
   10MOL0     N 1266   3.250   9.903   1.245  0.6733 -0.1672  0.3260
   10MOL0     N 1267   3.327   9.806   1.251 -1.1337 -0.1081 -0.0061
   10MOL0     C 1268   4.323   9.786   0.752  0.5886  0.4874 -0.3942
   10MOL0     C 1269   4.445   9.836   0.758  0.1000 -0.6930  1.2957
   10MOL0     C 1270   4.854  10.004   0.798  0.1841 -0.3419  0.6311
   10MOL0     C 1271   4.951   9.911   0.849  0.5036  0.2809  0.4280
   10MOL0     C 1272   5.083   9.930   0.848 -0.4363 -0.2619 -0.5853
   10MOL0     C 1273   5.136  10.039   0.774 -0.4881 -0.7663  0.5731
   10MOL0     O 1274   5.270  10.074   0.757 -0.1266  0.4384 -0.5179
   10MOL0     C 1275   5.369   9.969   0.740  0.1466  0.1285  0.9045
   10MOL0     C 1276   5.365   9.907   0.607 -0.6399 -0.4389 -0.2229
   10MOL0     C 1277   5.396  10.002   0.498 -0.3232 -1.0358  0.3331
   10MOL0     C 1278   5.400   9.930   0.367  0.2263  0.0573 -0.4701
   10MOL0     C 1279   5.271   9.897   0.316 -0.1419  0.2672  0.2593
   10MOL0     C 1280   5.167   9.856   0.280  0.3535  0.4320 -0.5611
   10MOL0     C 1281   5.050  10.141   0.711  0.5046  0.2781  0.2580
   10MOL0     C 1282   4.908  10.119   0.725  0.7428  0.4213 -0.6190
   10MOL0     H 1283   4.566   9.660   1.019  2.9313  0.4778 -2.9421
   10MOL0     H 1284   4.340   9.556   0.992 -0.3900 -0.3362  1.0579
   10MOL0     H 1285   4.020   9.766   0.916  0.4565 -0.2441  1.1405
   10MOL0     H 1286   4.048   9.768   0.740 -3.0505  1.2903  0.9699
   10MOL0     H 1287   3.831   9.691   0.792 -0.4364 -1.4042 -0.0724
   10MOL0     H 1288   3.908   9.555   0.729 -4.8863 -1.1771  0.6988
   10MOL0     H 1289   3.871   9.426   0.918  2.0555  0.4347 -0.2660
   10MOL0     H 1290   3.966   9.535   1.007 -2.1447  0.5275  2.8112
   10MOL0     H 1291   3.795   9.554   1.122 -0.2818  0.9398 -0.9857
   10MOL0     H 1292   3.789   9.698   1.032  5.6710  0.7947  0.0611
   10MOL0     H 1293   3.608   9.570   0.871  1.3672  3.5325  1.0884
   10MOL0     H 1294   3.634   9.434   0.979 -2.4737 -0.1860 -0.0874
   10MOL0     H 1295   3.573   9.562   1.166  1.5325 -0.6396 -1.9699
   10MOL0     H 1296   3.542   9.721   1.075 -0.5275  0.9332  2.3475
   10MOL0     H 1297   3.336   9.649   0.989  0.7942 -0.0910 -0.1049
   10MOL0     H 1298   3.387   9.482   0.996 -0.7191 -0.3678 -1.1865
   10MOL0     H 1299   3.364   9.525   1.265 -1.2329 -1.4962 -0.3971
   10MOL0     H 1300   3.225   9.497   1.178 -2.6353  2.9172  1.1143
   10MOL0     H 1301   3.046   9.694   1.114 -1.0221  0.9627 -1.2326
   10MOL0     H 1302   3.013  10.036   1.279  1.1695 -0.1076 -0.8398
   10MOL0     H 1303   3.036  10.030   1.098  0.7787  1.4423  0.5947
   10MOL0     H 1304   2.876   9.810   1.130 -4.2771 -0.3560  2.2545
   10MOL0     H 1305   2.811   9.957   1.082  0.0730 -2.8867 -1.5659
   10MOL0     H 1306   2.792  10.013   1.329  0.8414 -1.3298  0.2975
   10MOL0     H 1307   2.798   9.844   1.363  0.5384  2.1198  3.0952
   10MOL0     H 1308   2.579   9.953   1.185  0.7805  2.4425  1.8308
   10MOL0     H 1309   2.564   9.911   1.357 -2.5653 -1.8102 -1.4915
   10MOL0     H 1310   2.479   9.824   1.035 -0.0011  0.3737  1.2378
   10MOL0     H 1311   2.192   9.889   0.934 -1.0726 -0.8181 -2.1658
   10MOL0     H 1312   2.334   9.815   0.864 -0.1481  0.7603  0.4963
   10MOL0     H 1313   2.175   9.724   0.870 -0.4445 -0.9749  2.3982
   10MOL0     H 1314   1.849   9.472   1.303  0.0968 -1.0884  0.0333
   10MOL0     H 1315   1.609   9.367   1.251 -1.1377  1.5054  0.4432
   10MOL0     H 1316   1.271   9.515   1.136 -3.7988 -0.7378 -2.3435
   10MOL0     H 1317   1.375   9.636   1.058  3.2845 -0.8764  0.4874
   10MOL0     H 1318   1.274   9.392   0.906 -0.2718 -0.6516 -0.6491
   10MOL0     H 1319   1.172   9.548   0.918 -0.6286  0.3095 -2.0403
   10MOL0     H 1320   1.309   9.503   0.705 -1.7652  1.0504 -0.2005
   10MOL0     H 1321   1.455   9.534   0.803  0.2225  3.2985 -0.0177
   10MOL0     H 1322   1.239   9.745   0.769  0.5941  0.6976  0.0388
   10MOL0     H 1323   1.391   9.744   0.864 -0.5454 -1.3710  2.2748
   10MOL0     H 1324   1.371   9.698   0.572 -1.4489  0.7281  0.6546
   10MOL0     H 1325   1.520   9.696   0.682  0.2908  0.9276 -0.9172
   10MOL0     H 1326   1.450   9.931   0.742 -1.2158 -1.5352  0.1274
   10MOL0     H 1327   1.529   9.911   0.578  1.3745 -0.7653  1.9514
   10MOL0     H 1328   1.224   9.915   0.631 -0.4387  0.1027  0.5641
   10MOL0     H 1329   1.318   9.930   0.477 -2.1693 -1.2505 -0.0730
   10MOL0     H 1330   1.418  10.133   0.555  0.1503  2.0038  2.0584
   10MOL0     H 1331   1.331  10.131   0.701 -0.1451 -0.5282 -0.4089
   10MOL0     H 1332   1.578   9.666   0.945  2.0332  5.1028  2.9090
   10MOL0     H 1333   1.796   9.753   1.006 -2.0183  1.1867 -0.7564
   10MOL0     H 1334   2.190   9.566   1.343 -1.2867  3.2153  0.9096
   10MOL0     H 1335   2.414   9.640   1.408 -1.9805  3.2706  1.4294
   10MOL0     H 1336   4.244   9.814   0.683 -0.0368 -2.0284 -0.7985
   10MOL0     H 1337   4.451   9.916   0.685 -1.3928 -2.1550 -0.5416
   10MOL0     H 1338   4.912   9.820   0.893  0.1082 -2.0005 -4.0630
   10MOL0     H 1339   5.154   9.854   0.879  1.1976  0.8651 -1.4196
   10MOL0     H 1340   5.477   9.988   0.745  0.4545  1.1258 -4.1481
   10MOL0     H 1341   5.350   9.897   0.820  1.8395 -0.3636  0.9165
   10MOL0     H 1342   5.263   9.872   0.585 -0.0996 -0.9483 -2.0897
   10MOL0     H 1343   5.432   9.821   0.609 -1.6710 -1.2605  0.2469
   10MOL0     H 1344   5.482  10.063   0.527 -1.1769  1.0247 -1.2064
   10MOL0     H 1345   5.321  10.082   0.501 -0.1384 -0.7228 -1.8484
   10MOL0     H 1346   5.452   9.834   0.378  1.0702  0.6064  0.5059
   10MOL0     H 1347   5.458   9.984   0.292  2.3468 -1.9829 -0.4220
   10MOL0     H 1348   5.066   9.827   0.257  0.2308  1.4395 -1.3850
   10MOL0     H 1349   5.081  10.231   0.658 -2.1544  0.8987 -0.3717
   10MOL0     H 1350   4.840  10.198   0.694 -0.3984 -0.5168 -0.6063
   11MOL0     O 1351   6.818  11.444  11.030  0.0456  0.0671 -0.0494
   11MOL0     C 1352   6.738  11.453  11.124 -1.0860  0.1787  0.2989
   11MOL0     O 1353   6.755  11.528  11.234 -1.0179 -0.0042  0.2948
   11MOL0     C 1354   6.864  11.605  11.241 -1.0396  0.5510 -0.3816
   11MOL0     C 1355   6.984  11.555  11.294 -0.1792  0.6186  1.0329
   11MOL0     C 1356   7.089  11.648  11.319  0.9330  0.8317 -0.0182
   11MOL0     C 1357   7.081  11.776  11.280  0.1869 -0.0093 -0.1941
   11MOL0     O 1358   7.194  11.856  11.288 -0.2243 -0.7298 -0.3782
   11MOL0     C 1359   7.235  11.936  11.169  0.1211 -0.4743 -0.2651
   11MOL0     C 1360   7.359  12.018  11.198  0.3200  0.2855  0.2593
   11MOL0     C 1361   7.318  12.137  11.287  0.0066 -0.2248 -0.4773
   11MOL0     C 1362   7.444  12.213  11.340 -0.2949  0.1129  0.1597
   11MOL0     C 1363   7.439  12.235  11.487 -0.3544 -0.2957 -0.1240
   11MOL0     C 1364   7.331  12.330  11.529 -1.2299 -0.3402 -0.6390
   11MOL0     C 1365   7.330  12.342  11.684  0.4064 -0.0936  0.0651
   11MOL0     C 1366   7.191  12.413  11.734 -0.5744 -0.5851 -0.5041
   11MOL0     N 1367   7.180  12.543  11.665  0.4280  1.0504  0.3147
   11MOL0     C 1368   7.080  12.578  11.572  0.2498 -0.1217  0.7138
   11MOL0     C 1369   7.096  12.712  11.547 -0.3246 -0.0885 -0.5218
   11MOL0     C 1370   7.017  12.798  11.453  0.4712 -0.1734 -0.8234
   11MOL0     C 1371   6.914  12.857  11.548  0.6776 -1.0321 -0.8197
   11MOL0     C 1372   6.801  12.904  11.454  0.7697  0.5828  0.1655
   11MOL0     C 1373   6.693  12.980  11.526 -0.7248 -0.1188  0.2085
   11MOL0     O 1374   6.606  12.897  11.604 -0.1549 -0.2093  0.6635
   11MOL0     C 1375   6.495  12.958  11.668  0.5000 -0.1810  0.2499
   11MOL0     C 1376   6.408  12.882  11.739  0.0944  0.1798  0.0891
   11MOL0     C 1377   6.281  12.925  11.786  0.6222 -0.2161 -0.2605
   11MOL0     C 1378   6.177  12.815  11.816  0.3224 -0.4264 -0.3734
   11MOL0     C 1379   6.241  13.053  11.772 -0.7413 -0.4142  0.4971
   11MOL0     C 1380   6.110  13.103  11.815  0.7059 -0.7019 -1.2620
   11MOL0     O 1381   6.049  13.047  11.924  0.1256 -0.1013 -0.7939
   11MOL0     C 1382   5.934  13.103  11.969  0.2169 -0.7522  0.8809
   11MOL0     C 1383   5.920  13.089  12.100  0.4470  0.8154 -1.2885
   11MOL0     C 1384   5.822  13.155  12.179 -0.2721  0.5622 -0.2063
   11MOL0     C 1385   5.722  13.229  12.114 -0.7990  0.0386 -0.2163
   11MOL0     O 1386   5.625  13.289  12.181 -0.3931 -0.3867  0.1689
   11MOL0     C 1387   5.628  13.434  12.192 -0.1006  0.0299  0.4621
   11MOL0     C 1388   5.486  13.492  12.163 -0.0878  0.0245  0.2417
   11MOL0     C 1389   5.461  13.644  12.202 -0.6240 -0.2616 -0.4739
   11MOL0     C 1390   5.337  13.690  12.137  0.4004 -0.6376 -0.2269
   11MOL0     C 1391   5.302  13.835  12.167  0.1870 -1.0153  0.1054
   11MOL0     C 1392   5.193  13.837  12.277 -0.7909  0.2325  0.1593
   11MOL0     C 1393   5.113  13.963  12.291 -0.3733 -0.0374  0.2720
   11MOL0     C 1394   5.087  14.012  12.444  0.1585 -0.7531 -0.1277
   11MOL0    Cl 1395   5.229  14.031  12.551 -0.1537 -0.1455  0.2132
   11MOL0     C 1396   5.735  13.255  11.974  0.6767  0.1747 -0.2504
   11MOL0     C 1397   5.837  13.188  11.897  0.3432  0.5612 -1.0766
   11MOL0     O 1398   6.067  13.211  11.764 -0.7126 -0.0322 -0.1119
   11MOL0     C 1399   6.340  13.140  11.709  0.1782  0.7842 -0.2540
   11MOL0     C 1400   6.466  13.094  11.660 -0.4161 -0.3952  0.4409
   11MOL0     N 1401   7.198  12.765  11.625 -0.0554  0.2624 -0.4057
   11MOL0     N 1402   7.239  12.662  11.694 -0.5841 -0.0062  0.1267
   11MOL0     C 1403   6.962  11.820  11.219  0.5329 -0.5739 -1.1962
   11MOL0     C 1404   6.851  11.738  11.198 -0.5756 -0.2093  0.5983
   11MOL0     C 1405   6.620  11.364  11.122  0.6470  0.3774  0.2882
   11MOL0     C 1406   6.572  11.324  10.997  1.1546  0.1465  0.1130
   11MOL0     C 1407   6.443  11.257  10.987  0.7005 -0.2386 -0.1287
   11MOL0     C 1408   6.364  11.240  11.100 -0.0850  0.3743  0.8082
   11MOL0     O 1409   6.242  11.187  11.105  0.6581  0.0759 -0.6719
   11MOL0     C 1410   6.181  11.134  10.983  0.0373 -0.4541 -0.7965
   11MOL0     C 1411   6.078  11.232  10.935  0.2683  0.1599 -0.7959
   11MOL0     C 1412   6.133  11.366  10.895 -0.4198 -0.5313 -0.3690
   11MOL0     C 1413   6.021  11.459  10.833 -0.3254  0.3465  0.6337
   11MOL0     C 1414   6.031  11.491  10.686 -0.3877 -0.3738  0.2555
   11MOL0     C 1415   6.048  11.514  10.570  0.2280 -0.3230  0.5118
   11MOL0     C 1416   6.404  11.301  11.220  0.1156  0.2665  0.0052
   11MOL0     C 1417   6.529  11.361  11.228  0.7815  0.1135 -0.0098
   11MOL0     H 1418   6.988  11.451  11.324 -0.7309 -0.1249 -1.2534
   11MOL0     H 1419   7.180  11.624  11.373  1.0026 -1.0719 -0.9131
   11MOL0     H 1420   7.253  11.860  11.092  0.8415 -2.1608  1.4831
   11MOL0     H 1421   7.146  11.994  11.142  0.2293  0.6984  1.7769
   11MOL0     H 1422   7.427  11.959  11.259 -1.5661 -0.4991  1.7061
   11MOL0     H 1423   7.408  12.040  11.102  3.2914  1.6773  1.9616
   11MOL0     H 1424   7.277  12.218  11.225  3.3785  2.1156  0.0866
   11MOL0     H 1425   7.257  12.095  11.367 -2.4701 -3.3691 -3.6946
   11MOL0     H 1426   7.528  12.151  11.306 -0.1289  0.9605 -1.0640
   11MOL0     H 1427   7.466  12.305  11.284  0.7863  1.1570  2.2049
   11MOL0     H 1428   7.419  12.140  11.536  3.3578 -0.5045  1.3784
   11MOL0     H 1429   7.535  12.270  11.526 -1.5843  5.3806 -1.2800
   11MOL0     H 1430   7.361  12.431  11.499  2.1131 -0.4359  1.8375
   11MOL0     H 1431   7.233  12.304  11.489 -1.7195 -0.0016  0.3010
   11MOL0     H 1432   7.335  12.244  11.732 -0.2496  0.5602  1.5530
   11MOL0     H 1433   7.414  12.401  11.722 -0.0454  0.8419 -0.3545
   11MOL0     H 1434   7.197  12.431  11.842 -1.9430 -4.6368  0.3893
   11MOL0     H 1435   7.114  12.337  11.722 -0.8699 -0.0694 -2.1818
   11MOL0     H 1436   7.008  12.520  11.516  1.7439 -0.9485 -0.4373
   11MOL0     H 1437   7.081  12.873  11.405  0.7873  0.8440  1.0715
   11MOL0     H 1438   6.977  12.727  11.381  1.5867 -2.7521  0.9422
   11MOL0     H 1439   6.940  12.941  11.613 -1.2308  0.1477 -1.4763
   11MOL0     H 1440   6.876  12.782  11.619  2.3081  0.5666  1.9148
   11MOL0     H 1441   6.756  12.821  11.399  0.4302 -0.1518  1.5045
   11MOL0     H 1442   6.848  12.982  11.392  0.5665 -1.8502 -3.3287
   11MOL0     H 1443   6.628  13.034  11.457 -1.4890  0.5166  1.3870
   11MOL0     H 1444   6.742  13.062  11.579 -1.2488 -0.4339  1.2063
   11MOL0     H 1445   6.426  12.777  11.758  0.6153  0.0796 -0.8911
   11MOL0     H 1446   6.216  12.726  11.766  0.4710  0.4764 -1.9115
   11MOL0     H 1447   6.159  12.804  11.924 -3.4833  0.6152 -0.7644
   11MOL0     H 1448   6.075  12.835  11.785 -0.3837 -0.8138  1.5689
   11MOL0     H 1449   5.991  13.030  12.157 -1.1500  1.1448  1.2218
   11MOL0     H 1450   5.820  13.132  12.285 -2.8546 -1.1013 -0.5267
   11MOL0     H 1451   5.667  13.459  12.291 -0.9503  0.0877  0.7912
   11MOL0     H 1452   5.696  13.477  12.118  1.9424 -1.7674  1.2089
   11MOL0     H 1453   5.472  13.488  12.054 -0.3744  2.1654  0.1633
   11MOL0     H 1454   5.412  13.427  12.209 -2.1668  2.6376  0.8239
   11MOL0     H 1455   5.553  13.693  12.171  0.2301 -0.8218  1.0569
   11MOL0     H 1456   5.452  13.659  12.310 -2.1089  0.6915 -0.7020
   11MOL0     H 1457   5.353  13.684  12.029  0.8315 -0.2334 -0.1928
   11MOL0     H 1458   5.255  13.623  12.164 -0.0993  0.6036  1.4916
   11MOL0     H 1459   5.273  13.893  12.079 -0.8141 -0.6546  0.6544
   11MOL0     H 1460   5.389  13.890  12.202 -0.4433  3.9939 -4.7576
   11MOL0     H 1461   5.118  13.759  12.255  0.2216 -0.4032 -1.1843
   11MOL0     H 1462   5.251  13.811  12.366 -2.0862  1.4326  1.4107
   11MOL0     H 1463   5.023  13.953  12.231 -0.0979  1.6510 -0.4784
   11MOL0     H 1464   5.170  14.043  12.244  1.1360 -0.5589  1.1186
   11MOL0     H 1465   5.026  13.936  12.493  2.0487 -1.5376  1.1089
   11MOL0     H 1466   5.037  14.110  12.443  0.3725 -0.6201 -1.9957
   11MOL0     H 1467   5.672  13.325  11.919  0.2206 -0.2907 -0.3218
   11MOL0     H 1468   5.844  13.211  11.791 -3.1920  1.4076 -1.2543
   11MOL0     H 1469   6.329  13.245  11.686  0.5970  1.2887  1.6624
   11MOL0     H 1470   6.519  13.174  11.608 -2.9698  2.0297  1.2990
   11MOL0     H 1471   6.954  11.918  11.174  3.4136  0.1386 -0.4037
   11MOL0     H 1472   6.767  11.757  11.133 -0.3423 -1.3614 -0.0732
   11MOL0     H 1473   6.639  11.324  10.911  1.2032  0.4076  0.1491
   11MOL0     H 1474   6.400  11.238  10.890  0.9505  2.2429 -0.7997
   11MOL0     H 1475   6.252  11.102  10.906  0.7679 -0.5333 -0.1126
   11MOL0     H 1476   6.134  11.046  11.027 -1.9271  1.4134  1.0432
   11MOL0     H 1477   5.997  11.250  11.007  0.8333 -1.8946  0.4570
   11MOL0     H 1478   6.026  11.186  10.851 -0.0941  0.6845 -0.8643
   11MOL0     H 1479   6.209  11.353  10.818 -2.2808  1.1163 -2.6361
   11MOL0     H 1480   6.178  11.416  10.982 -0.3294  1.1339 -1.3359
   11MOL0     H 1481   6.026  11.553  10.888  1.1495  0.6723 -0.0026
   11MOL0     H 1482   5.925  11.415  10.862 -2.5091  1.6729 -3.8187
   11MOL0     H 1483   6.074  11.540  10.469  0.6996  2.3978  1.2527
   11MOL0     H 1484   6.327  11.308  11.296 -0.7345 -0.4451 -0.7702
   11MOL0     H 1485   6.561  11.402  11.323  0.5638 -1.4401  0.7603
   12MOL0     O 1486   2.907  10.018   0.192 -0.0790  0.6738 -0.5335
   12MOL0     C 1487   2.937   9.901   0.217  0.8853  0.5742  0.5538
   12MOL0     O 1488   3.062   9.860   0.260  0.3189  0.2694 -0.1073
   12MOL0     C 1489   3.175   9.943   0.239  0.3093  0.1913  0.4505
   12MOL0     C 1490   3.188  10.068   0.171 -0.4038  0.5052 -0.8457
   12MOL0     C 1491   3.305  10.141   0.165  0.1341  0.1756 -0.3015
   12MOL0     C 1492   3.432  10.090   0.216  0.4475  0.3431  0.4970
   12MOL0     O 1493   3.544  10.165   0.205 -0.5572 -0.3470 -0.3540
   12MOL0     C 1494   3.666  10.128   0.268 -0.1755 -0.7068  0.1215
   12MOL0     C 1495   3.776  10.220   0.233 -0.5384  0.1804  0.2511
   12MOL0     C 1496   3.813  10.221   0.086  0.6383  0.4556 -0.7317
   12MOL0     C 1497   3.931  10.309   0.066 -0.2437 -0.7532  0.7867
   12MOL0     C 1498   3.992  10.290  -0.071 -0.1271 -0.0336 -0.0580
   12MOL0     C 1499   4.101  10.404  -0.099  0.0586 -0.7287 -0.5265
   12MOL0     C 1500   4.246  10.368  -0.041  0.4415  0.1437  0.2020
   12MOL0     C 1501   4.276  10.412   0.109  0.1626 -0.7194 -0.5154
   12MOL0     N 1502   4.254  10.565   0.129 -0.1104  1.0937 -0.4782
   12MOL0     C 1503   4.139  10.614   0.185  1.0306 -0.3300 -0.2698
   12MOL0     C 1504   4.175  10.752   0.191 -0.2003  0.1679  0.2396
   12MOL0     C 1505   4.095  10.841   0.276  0.2333 -0.3493  0.2460
   12MOL0     C 1506   3.992  10.917   0.191  0.4948 -0.4386 -0.4741
   12MOL0     C 1507   3.946  11.040   0.262  0.5464  0.0347  0.4843
   12MOL0     C 1508   3.828  11.114   0.198  0.3854 -0.1346 -0.1694
   12MOL0     O 1509   3.709  11.031   0.224 -0.8754 -0.4078  0.1632
   12MOL0     C 1510   3.590  11.103   0.231 -0.6632 -0.3144  1.3194
   12MOL0     C 1511   3.495  11.034   0.299  0.1654  0.2083 -0.7448
   12MOL0     C 1512   3.364  11.088   0.321 -0.1939  0.2368  0.5909
   12MOL0     C 1513   3.264  10.994   0.378  0.6171 -0.6353 -0.0622
   12MOL0     C 1514   3.342  11.223   0.288  0.0740 -1.4793  0.4367
   12MOL0     C 1515   3.209  11.288   0.310 -0.5411 -0.0164  0.0643
   12MOL0     O 1516   3.100  11.219   0.352 -0.1049  0.5612  0.3693
   12MOL0     C 1517   2.978  11.277   0.364 -0.1231  0.8191  0.5728
   12MOL0     C 1518   2.894  11.260   0.470  0.2055  0.6297  0.3363
   12MOL0     C 1519   2.765  11.310   0.475  0.4220 -0.7743 -0.1693
   12MOL0     C 1520   2.710  11.391   0.377 -0.0611  0.1052  0.3056
   12MOL0     O 1521   2.578  11.438   0.387 -0.9166  0.5669  0.7352
   12MOL0     C 1522   2.544  11.555   0.308 -0.1111  0.3426 -0.4334
   12MOL0     C 1523   2.409  11.601   0.364  0.1323  0.0795 -0.1531
   12MOL0     C 1524   2.312  11.497   0.293  0.2636  0.1285 -0.3609
   12MOL0     C 1525   2.165  11.524   0.322 -0.7848 -0.4387 -0.1090
   12MOL0     C 1526   2.075  11.427   0.247  0.4192 -0.5254 -0.0407
   12MOL0     C 1527   2.084  11.284   0.284 -0.2522  0.0188  0.2793
   12MOL0     C 1528   1.954  11.213   0.236 -0.3008 -0.1674 -0.4291
   12MOL0     C 1529   1.943  11.064   0.277 -0.0348 -0.3326 -1.5060
   12MOL0    Cl 1530   2.096  10.986   0.227 -0.0588  0.2672 -0.1805
   12MOL0     C 1531   2.793  11.404   0.260  0.5579 -0.9087 -0.9538
   12MOL0     C 1532   2.921  11.349   0.255  0.0045 -0.4372  0.5589
   12MOL0     O 1533   3.203  11.406   0.277 -0.5135  0.0541  0.2478
   12MOL0     C 1534   3.446  11.293   0.220 -0.1640  1.1464  0.2689
   12MOL0     C 1535   3.567  11.229   0.185 -0.0790  0.3667  0.3879
   12MOL0     N 1536   4.297  10.770   0.134 -1.2612  0.6771  0.8663
   12MOL0     N 1537   4.344  10.656   0.087 -0.2140 -0.5784 -0.2568
   12MOL0     C 1538   3.425   9.971   0.284 -0.2922 -0.3660  0.6460
   12MOL0     C 1539   3.298   9.903   0.297 -0.1069  0.1765  0.0726
   12MOL0     C 1540   2.834   9.795   0.210  0.1272  0.7731 -0.7295
   12MOL0     C 1541   2.700   9.824   0.233  0.9010 -0.1240 -0.7714
   12MOL0     C 1542   2.597   9.726   0.199 -0.0869  0.2108 -0.1918
   12MOL0     C 1543   2.634   9.593   0.161  0.2905  0.3602 -0.2261
   12MOL0     O 1544   2.533   9.507   0.120  0.0797 -0.3032 -0.8169
   12MOL0     C 1545   2.546   9.432   0.000  0.0702 -0.8730  0.1971
   12MOL0     C 1546   2.423   9.371  -0.044 -0.1571  0.2901 -0.1360
   12MOL0     C 1547   2.310   9.473  -0.077  0.4159 -0.1711 -0.2460
   12MOL0     C 1548   2.309   9.495  -0.229  0.6506  0.0382 -0.1506
   12MOL0     C 1549   2.275   9.374  -0.313  0.2584  0.8397 -0.6902
   12MOL0     C 1550   2.247   9.277  -0.379  0.3607  0.2050  0.4332
   12MOL0     C 1551   2.772   9.565   0.148  0.0750  0.1554 -0.1260
   12MOL0     C 1552   2.867   9.662   0.172  0.1861  0.0020  1.0603
   12MOL0     H 1553   3.103  10.125   0.135  0.4269  2.5049  0.2397
   12MOL0     H 1554   3.286  10.234   0.113  0.2040 -0.3525 -1.3188
   12MOL0     H 1555   3.645  10.121   0.375  1.0804  0.6407  0.4828
   12MOL0     H 1556   3.689  10.025   0.239  0.4376 -1.0282  1.6525
   12MOL0     H 1557   3.751  10.324   0.256 -2.0075  0.0540 -0.5846
   12MOL0     H 1558   3.857  10.184   0.296 -0.7165 -1.3309 -0.3462
   12MOL0     H 1559   3.839  10.118   0.058 -0.7139  0.4729 -2.2185
   12MOL0     H 1560   3.735  10.266   0.023  0.4270  2.5907  0.9464
   12MOL0     H 1561   3.896  10.412   0.056  2.0452 -0.0270 -0.5393
   12MOL0     H 1562   4.013  10.289   0.135  1.9363  0.6812 -1.2442
   12MOL0     H 1563   4.035  10.192  -0.093  3.1420  1.6672 -1.9032
   12MOL0     H 1564   3.910  10.310  -0.141  0.3909 -2.3599 -1.4318
   12MOL0     H 1565   4.116  10.410  -0.207  1.9805 -1.8467 -0.3781
   12MOL0     H 1566   4.063  10.498  -0.058 -0.6781 -1.3277  0.1955
   12MOL0     H 1567   4.263  10.262  -0.062 -2.8052 -0.0422 -2.3256
   12MOL0     H 1568   4.317  10.424  -0.103 -2.6401 -0.0441 -3.8878
   12MOL0     H 1569   4.374  10.376   0.142  0.6429 -0.0574 -1.1768
   12MOL0     H 1570   4.195  10.374   0.171 -0.3068 -0.7438 -1.1371
   12MOL0     H 1571   4.046  10.571   0.221  0.8404  0.9685  0.8917
   12MOL0     H 1572   4.045  10.785   0.356 -3.1985  1.1489 -0.6904
   12MOL0     H 1573   4.169  10.904   0.326  1.3098 -0.7338 -0.8174
   12MOL0     H 1574   3.908  10.852   0.166  1.5421 -1.0040 -2.8047
   12MOL0     H 1575   4.035  10.937   0.092 -2.6439 -0.2654 -1.9047
   12MOL0     H 1576   4.028  11.112   0.261  0.8469 -0.2194  2.4155
   12MOL0     H 1577   3.904  11.016   0.360 -3.3782  1.4399 -0.6669
   12MOL0     H 1578   3.842  11.117   0.089  1.2249 -0.3126 -0.0775
   12MOL0     H 1579   3.824  11.215   0.239  2.0947 -0.4429  0.8878
   12MOL0     H 1580   3.514  10.934   0.335  0.8825  0.7614  0.4764
   12MOL0     H 1581   3.182  10.980   0.308  0.3088 -1.3543  0.4411
   12MOL0     H 1582   3.313  10.899   0.401  1.3515  0.2469  2.3294
   12MOL0     H 1583   3.227  11.031   0.474 -0.7085  2.3792 -1.5864
   12MOL0     H 1584   2.937  11.201   0.549 -2.2677  1.7350  2.6862
   12MOL0     H 1585   2.704  11.288   0.562 -0.9021  0.7277 -0.6546
   12MOL0     H 1586   2.612  11.639   0.323 -1.5423  1.9422 -2.2979
   12MOL0     H 1587   2.539  11.529   0.202 -1.8133  0.7506 -0.4870
   12MOL0     H 1588   2.404  11.606   0.473  2.8007 -1.6969  0.1417
   12MOL0     H 1589   2.377  11.697   0.323 -0.3195 -0.5922 -1.4208
   12MOL0     H 1590   2.328  11.395   0.329 -1.5924  0.2490  0.9657
   12MOL0     H 1591   2.332  11.500   0.186  0.6169  0.7078 -0.2827
   12MOL0     H 1592   2.142  11.524   0.429  1.0804  0.5708  0.3402
   12MOL0     H 1593   2.148  11.630   0.299  0.7731 -0.2523 -0.5162
   12MOL0     H 1594   2.091  11.436   0.139 -2.8028 -2.0924 -0.7897
   12MOL0     H 1595   1.977  11.468   0.272  0.5978 -1.0833  1.6689
   12MOL0     H 1596   2.177  11.244   0.242  0.4415  2.0696 -0.2318
   12MOL0     H 1597   2.088  11.273   0.392  0.6381  3.3584  0.6810
   12MOL0     H 1598   1.967  11.221   0.128  2.4445  1.9020 -0.0515
   12MOL0     H 1599   1.869  11.276   0.262  0.8043  0.2079  2.7391
   12MOL0     H 1600   1.853  11.018   0.235 -1.5944  0.9511  0.2553
   12MOL0     H 1601   1.932  11.043   0.384  1.8505  0.3669 -1.1347
   12MOL0     H 1602   2.754  11.468   0.182  1.5301 -0.3650 -1.0106
   12MOL0     H 1603   2.982  11.365   0.166  2.2147 -1.0087  1.8915
   12MOL0     H 1604   3.431  11.397   0.191 -0.4239  1.4003  1.2576
   12MOL0     H 1605   3.638  11.282   0.122 -1.1054  0.2277 -0.9415
   12MOL0     H 1606   3.521   9.942   0.326  0.7308 -0.6372 -1.7356
   12MOL0     H 1607   3.301   9.811   0.353  1.3377 -0.1770 -0.5550
   12MOL0     H 1608   2.669   9.919   0.277  0.1403 -1.2780  1.3729
   12MOL0     H 1609   2.495   9.758   0.217 -0.9409 -1.1668 -2.3170
   12MOL0     H 1610   2.592   9.487  -0.083 -2.0359 -0.3636 -0.6812
   12MOL0     H 1611   2.626   9.358   0.013 -0.2264 -1.8127 -2.7564
   12MOL0     H 1612   2.398   9.311   0.044  0.4986  2.1976  1.4466
   12MOL0     H 1613   2.449   9.321  -0.137  1.6705  3.4439 -1.4983
   12MOL0     H 1614   2.350   9.572  -0.051  1.8755  0.1869 -3.4017
   12MOL0     H 1615   2.214   9.458  -0.028  0.6372 -0.0886  0.2274
   12MOL0     H 1616   2.401   9.543  -0.266  0.7440  0.6812  0.8545
   12MOL0     H 1617   2.226   9.563  -0.250  0.7314  0.4796  0.8728
   12MOL0     H 1618   2.237   9.196  -0.448 -0.1236  1.4097 -0.9683
   12MOL0     H 1619   2.806   9.466   0.119  0.4884 -0.3249  1.8786
   12MOL0     H 1620   2.970   9.629   0.168 -0.3212 -1.8660  2.0860
   13MOL0     O 1621   6.628   2.597   1.484  0.3448  0.6730 -1.0302
   13MOL0     C 1622   6.556   2.503   1.510  0.8087 -0.0090 -0.7536
   13MOL0     O 1623   6.432   2.505   1.579  0.5089  0.0107  0.2077
   13MOL0     C 1624   6.372   2.611   1.637  0.0988 -0.4662  1.5001
   13MOL0     C 1625   6.334   2.721   1.556 -0.3087 -0.2260  0.8941
   13MOL0     C 1626   6.259   2.826   1.614  0.1171  0.2233  0.1746
   13MOL0     C 1627   6.231   2.826   1.756  0.4659 -1.1182 -0.3519
   13MOL0     O 1628   6.158   2.931   1.809  0.6974 -0.1138 -0.1714
   13MOL0     C 1629   6.128   2.947   1.940  0.1394 -0.5844 -0.0689
   13MOL0     C 1630   6.233   3.044   2.005  0.0052 -0.2021  0.6097
   13MOL0     C 1631   6.205   3.065   2.155  0.2776 -0.1551  0.5130
   13MOL0     C 1632   6.303   3.168   2.216 -0.7336 -0.1388 -0.1911
   13MOL0     C 1633   6.264   3.227   2.346  0.0049  1.2060 -0.6208
   13MOL0     C 1634   6.201   3.132   2.451 -0.7280 -0.5697  0.0992
   13MOL0     C 1635   6.123   3.194   2.565 -0.5885  0.0643 -0.7561
   13MOL0     C 1636   6.066   3.097   2.673  0.4124 -0.8221 -0.1438
   13MOL0     N 1637   6.148   3.075   2.797  0.3086  0.1689 -0.1673
   13MOL0     C 1638   6.291   3.064   2.797  0.2090  0.2727  0.0957
   13MOL0     C 1639   6.318   3.066   2.928  1.1962 -0.0731  0.4368
   13MOL0     C 1640   6.454   3.063   2.978 -0.1069 -0.5276  0.8270
   13MOL0     C 1641   6.511   2.918   2.999 -0.2008  0.9323  0.3183
   13MOL0     C 1642   6.428   2.803   3.047  0.5225  0.4194  0.2558
   13MOL0     C 1643   6.383   2.838   3.188 -0.9554 -0.0122  0.7038
   13MOL0     O 1644   6.499   2.827   3.278 -0.4373  0.1803 -0.4909
   13MOL0     C 1645   6.565   2.712   3.313  0.0479 -0.2243 -0.3595
   13MOL0     C 1646   6.511   2.584   3.330  0.3199 -1.1862  0.6782
   13MOL0     C 1647   6.580   2.468   3.350  0.3340  0.9631 -0.3448
   13MOL0     C 1648   6.498   2.340   3.367  0.2053  0.7500 -0.4023
   13MOL0     C 1649   6.724   2.471   3.356 -0.2948 -0.3296 -0.6428
   13MOL0     C 1650   6.820   2.359   3.378  0.0785 -0.2640  0.1822
   13MOL0     O 1651   6.951   2.395   3.357  0.1331  0.4441 -0.1940
   13MOL0     C 1652   7.053   2.311   3.384  0.1908 -0.2446  0.1841
   13MOL0     C 1653   7.048   2.191   3.318 -0.0566  0.9430  0.4336
   13MOL0     C 1654   7.148   2.098   3.332 -0.6494 -0.1708  0.3055
   13MOL0     C 1655   7.263   2.127   3.405 -0.1658 -0.7234 -0.1880
   13MOL0     O 1656   7.380   2.050   3.397 -0.0962  0.1971  0.2446
   13MOL0     C 1657   7.395   1.952   3.292  0.4093  0.1506  0.8445
   13MOL0     C 1658   7.518   1.858   3.306  0.1605  0.2281 -0.9711
   13MOL0     C 1659   7.552   1.818   3.164 -0.6782 -0.0028  1.3766
   13MOL0     C 1660   7.639   1.688   3.170 -0.2265 -0.2234 -0.4474
   13MOL0     C 1661   7.787   1.691   3.219 -0.2205  0.3648  0.2072
   13MOL0     C 1662   7.857   1.556   3.183  0.8766  0.3524 -0.3624
   13MOL0     C 1663   7.994   1.536   3.251  0.1486  0.3347 -0.5659
   13MOL0     C 1664   8.078   1.428   3.203  0.6649  0.1219  0.1539
   13MOL0    Cl 1665   8.001   1.275   3.215 -0.4715 -0.0641 -0.3563
   13MOL0     C 1666   7.278   2.255   3.461 -0.0214 -0.1190  1.2253
   13MOL0     C 1667   7.165   2.345   3.454  0.2491 -0.0324 -0.1777
   13MOL0     O 1668   6.777   2.253   3.424 -0.0312 -0.1741  0.2003
   13MOL0     C 1669   6.778   2.601   3.345 -0.2015  0.1855 -0.7849
   13MOL0     C 1670   6.701   2.721   3.324 -0.6024 -0.2230  0.6918
   13MOL0     N 1671   6.207   3.051   3.007  0.0758 -0.7141 -0.5539
   13MOL0     N 1672   6.107   3.064   2.924 -0.3693  0.6012 -0.3352
   13MOL0     C 1673   6.288   2.722   1.833  1.0790  0.4013  0.7681
   13MOL0     C 1674   6.343   2.612   1.775 -0.8190  0.0270 -0.9336
   13MOL0     C 1675   6.616   2.369   1.484  0.2150 -0.3583 -0.3002
   13MOL0     C 1676   6.572   2.260   1.565  0.2440  1.2487 -0.5892
   13MOL0     C 1677   6.631   2.125   1.547  0.8919  0.8268 -0.2450
   13MOL0     C 1678   6.734   2.110   1.443  0.3155  0.6242 -0.4774
   13MOL0     O 1679   6.793   1.988   1.413  0.1607 -0.1264 -0.4837
   13MOL0     C 1680   6.767   1.860   1.477 -0.0079 -0.3541  0.0092
   13MOL0     C 1681   6.778   1.756   1.375 -0.1209  0.2046  0.0160
   13MOL0     C 1682   6.907   1.757   1.279  0.6910  0.1258 -0.3856
   13MOL0     C 1683   6.906   1.648   1.175  0.1619  0.2698  0.2960
   13MOL0     C 1684   6.800   1.691   1.076 -1.1826 -0.3639  0.3257
   13MOL0     C 1685   6.714   1.738   1.004 -0.0356  0.3707 -0.4492
   13MOL0     C 1686   6.775   2.218   1.374  0.2365 -0.6147  0.8126
   13MOL0     C 1687   6.734   2.350   1.404 -0.2640 -0.1584  0.1396
   13MOL0     H 1688   6.349   2.721   1.448 -0.1443  0.3825  0.9101
   13MOL0     H 1689   6.197   2.890   1.552 -1.5814 -2.5249 -1.1093
   13MOL0     H 1690   6.030   2.996   1.945 -0.6305 -2.1296  0.6942
   13MOL0     H 1691   6.114   2.854   1.997  0.8607 -1.6887 -1.6342
   13MOL0     H 1692   6.332   2.999   1.995 -0.4551 -1.1366  0.1566
   13MOL0     H 1693   6.226   3.139   1.950 -3.7997  0.1099  1.3548
   13MOL0     H 1694   6.102   3.098   2.171  1.1355  2.6096  0.9982
   13MOL0     H 1695   6.210   2.974   2.215 -3.4229 -0.7211  0.1944
   13MOL0     H 1696   6.395   3.110   2.224 -1.0371 -0.8791 -1.7376
   13MOL0     H 1697   6.311   3.252   2.146 -0.7395  1.4271  1.6106
   13MOL0     H 1698   6.346   3.277   2.400 -3.0415  4.6529  1.3044
   13MOL0     H 1699   6.187   3.304   2.334 -0.7128  0.9612  1.9382
   13MOL0     H 1700   6.137   3.059   2.401 -0.0162 -1.8634  1.0151
   13MOL0     H 1701   6.281   3.068   2.490 -1.1378 -1.5536 -0.6372
   13MOL0     H 1702   6.185   3.272   2.610 -0.4864  0.2572 -1.2217
   13MOL0     H 1703   6.039   3.230   2.505 -2.0461 -2.3848 -0.3113
   13MOL0     H 1704   6.032   2.999   2.638 -1.9773 -1.5688  3.7536
   13MOL0     H 1705   5.970   3.128   2.716 -0.0039 -2.6982  0.3587
   13MOL0     H 1706   6.358   3.077   2.712  1.5566 -0.9095  0.9234
   13MOL0     H 1707   6.527   3.109   2.911 -0.1353  0.0955  1.2135
   13MOL0     H 1708   6.453   3.120   3.071 -1.0701  0.2879  0.3261
   13MOL0     H 1709   6.598   2.924   3.066  0.5878 -0.1521 -0.5749
   13MOL0     H 1710   6.549   2.882   2.903 -1.7346 -3.0334  1.0260
   13MOL0     H 1711   6.491   2.714   3.061 -0.5950  0.0439  4.1180
   13MOL0     H 1712   6.340   2.778   2.987 -0.8983 -1.4653  2.9207
   13MOL0     H 1713   6.299   2.777   3.223 -0.8659  0.3428  1.5609
   13MOL0     H 1714   6.344   2.940   3.193  0.4590  0.6111 -0.4537
   13MOL0     H 1715   6.403   2.579   3.319  0.1438  1.1565  0.7685
   13MOL0     H 1716   6.550   2.255   3.320 -0.9491  0.0464 -0.4468
   13MOL0     H 1717   6.480   2.304   3.469 -2.1106 -1.0408 -1.3669
   13MOL0     H 1718   6.409   2.353   3.305 -1.1354  1.2538  1.5451
   13MOL0     H 1719   6.963   2.171   3.253  1.9095  0.9257 -2.2864
   13MOL0     H 1720   7.134   1.996   3.296 -0.3357 -0.9060  2.1024
   13MOL0     H 1721   7.311   1.883   3.298 -1.1218  1.5516 -2.2395
   13MOL0     H 1722   7.398   1.992   3.190 -1.4365  2.0820  1.4854
   13MOL0     H 1723   7.606   1.914   3.338  1.2059 -0.3034 -2.7478
   13MOL0     H 1724   7.491   1.770   3.365  1.8607  0.4083  0.1213
   13MOL0     H 1725   7.619   1.888   3.111 -0.5722 -1.2845 -0.2623
   13MOL0     H 1726   7.473   1.808   3.089 -1.3979 -2.9909  2.4363
   13MOL0     H 1727   7.588   1.611   3.229  2.6840 -0.5873  1.8478
   13MOL0     H 1728   7.639   1.648   3.068  0.0338  0.1599 -0.5990
   13MOL0     H 1729   7.785   1.709   3.327  3.6546  2.3144  0.1607
   13MOL0     H 1730   7.855   1.764   3.172  2.3704 -0.9193  1.7152
   13MOL0     H 1731   7.787   1.477   3.211 -3.2238  4.1119  1.4265
   13MOL0     H 1732   7.866   1.543   3.075  1.2221 -2.9953 -0.0271
   13MOL0     H 1733   7.953   1.507   3.349 -0.3395  1.9334 -0.2700
   13MOL0     H 1734   8.060   1.623   3.255  0.7638 -0.1674  1.3076
   13MOL0     H 1735   8.171   1.428   3.260 -0.0430  0.2655  1.3362
   13MOL0     H 1736   8.100   1.444   3.097  0.2411  0.2875  0.0895
   13MOL0     H 1737   7.372   2.290   3.501 -0.0196  0.6128  0.5949
   13MOL0     H 1738   7.181   2.445   3.494 -2.3295  0.5604 -0.4454
   13MOL0     H 1739   6.884   2.615   3.326 -0.6364  1.0805 -2.8271
   13MOL0     H 1740   6.740   2.821   3.312  0.4973 -0.6234  0.7978
   13MOL0     H 1741   6.272   2.728   1.940 -2.1064 -0.3220  0.4028
   13MOL0     H 1742   6.360   2.525   1.839 -3.0249  0.8270  0.8863
   13MOL0     H 1743   6.491   2.265   1.636 -1.2686  0.0353 -2.1569
   13MOL0     H 1744   6.595   2.035   1.595  2.0998 -0.9546 -2.4660
   13MOL0     H 1745   6.841   1.845   1.557  0.0182  3.6802  0.9676
   13MOL0     H 1746   6.662   1.859   1.507 -0.8403  4.3547 -1.9075
   13MOL0     H 1747   6.688   1.764   1.313  0.6754  0.1641 -1.1746
   13MOL0     H 1748   6.767   1.656   1.420 -2.2986 -0.1562 -1.1608
   13MOL0     H 1749   6.997   1.751   1.341  3.0279  2.1666 -3.2575
   13MOL0     H 1750   6.921   1.854   1.230 -1.8962  1.6192  1.6029
   13MOL0     H 1751   6.882   1.561   1.237  4.2075 -1.7696 -0.6647
   13MOL0     H 1752   7.009   1.644   1.140 -0.0886  2.0675 -0.7641
   13MOL0     H 1753   6.621   1.757   0.953  0.5729 -1.2905 -2.3024
   13MOL0     H 1754   6.846   2.201   1.293 -0.4989 -2.4831  0.5070
   13MOL0     H 1755   6.787   2.434   1.359  1.5322 -1.0376  0.5046
   14MOL0     O 1756   1.009   9.059   3.449  0.6222  0.0936  0.3157
   14MOL0     C 1757   1.016   8.939   3.474 -0.4755 -0.0403 -0.2687
   14MOL0     O 1758   1.032   8.843   3.378  0.5018  0.5160 -0.5702
   14MOL0     C 1759   1.077   8.866   3.248 -0.0314 -0.5797 -0.0153
   14MOL0     C 1760   0.985   8.856   3.141 -0.7393  0.3011  0.1235
   14MOL0     C 1761   1.038   8.847   3.025 -0.5798 -1.0601  0.3452
   14MOL0     C 1762   1.183   8.849   3.001  0.9849  0.2341  0.1131
   14MOL0     O 1763   1.225   8.831   2.872 -0.8021  0.2733  0.1006
   14MOL0     C 1764   1.362   8.836   2.838 -0.2785  0.4120 -0.3691
   14MOL0     C 1765   1.425   8.704   2.884 -0.4632  0.7116 -0.3906
   14MOL0     C 1766   1.365   8.581   2.810 -0.2755 -0.2315 -0.3497
   14MOL0     C 1767   1.450   8.456   2.828 -0.2232 -0.1822 -0.3945
   14MOL0     C 1768   1.363   8.332   2.770  0.3872  0.5531  0.6021
   14MOL0     C 1769   1.447   8.202   2.768  0.6234 -0.1718  0.6597
   14MOL0     C 1770   1.379   8.077   2.741 -0.2498 -0.9016  0.3852
   14MOL0     C 1771   1.308   8.009   2.855  0.2588 -0.2978  0.1615
   14MOL0     N 1772   1.395   7.938   2.944  0.3367  0.2603 -1.5028
   14MOL0     C 1773   1.399   7.949   3.082  0.4080 -1.0559 -0.8391
   14MOL0     C 1774   1.459   7.844   3.134  0.1764  0.8390 -0.4153
   14MOL0     C 1775   1.504   7.823   3.273  0.4265 -0.4906 -1.1761
   14MOL0     C 1776   1.656   7.833   3.306  0.0093 -0.1492  0.5471
   14MOL0     C 1777   1.701   7.981   3.299 -1.2933  0.4698  0.9198
   14MOL0     C 1778   1.857   8.013   3.290 -0.2804  1.4865  0.1660
   14MOL0     O 1779   1.921   7.956   3.409  0.5934  0.4290 -0.3671
   14MOL0     C 1780   2.058   7.945   3.413 -0.5708 -0.1382 -0.4277
   14MOL0     C 1781   2.144   8.012   3.330 -0.4597 -1.2835  0.0010
   14MOL0     C 1782   2.285   7.997   3.343  0.6811 -0.7654 -0.2985
   14MOL0     C 1783   2.379   8.074   3.244  0.2067 -0.5160 -0.3727
   14MOL0     C 1784   2.331   7.908   3.447  0.5122 -0.3065 -0.1996
   14MOL0     C 1785   2.475   7.872   3.466 -0.8765 -1.3264 -0.0061
   14MOL0     O 1786   2.509   7.820   3.588  0.0364 -0.6036  0.1346
   14MOL0     C 1787   2.632   7.765   3.619 -1.5831  0.2842  0.0118
   14MOL0     C 1788   2.726   7.701   3.525  0.1794  0.1918  0.4071
   14MOL0     C 1789   2.844   7.646   3.575  0.0834 -0.5099 -0.7899
   14MOL0     C 1790   2.882   7.672   3.716  0.5774  1.1791  0.0091
   14MOL0     O 1791   2.990   7.624   3.777  0.2698 -0.1618  0.0071
   14MOL0     C 1792   3.075   7.534   3.710  0.1847  0.2580 -0.2695
   14MOL0     C 1793   3.181   7.476   3.807  0.1677  0.5788  0.0271
   14MOL0     C 1794   3.253   7.351   3.748 -0.3555  0.1468  0.5164
   14MOL0     C 1795   3.350   7.280   3.849  0.1893  0.2270  0.4527
   14MOL0     C 1796   3.458   7.183   3.783  0.2748 -0.2329  0.8760
   14MOL0     C 1797   3.531   7.253   3.668  0.7440  0.2736  0.1048
   14MOL0     C 1798   3.646   7.170   3.620  0.5573  0.6463 -0.7792
   14MOL0     C 1799   3.763   7.249   3.595 -0.1092  0.8626  0.8633
   14MOL0    Cl 1800   3.902   7.138   3.584 -0.3039 -0.2616 -0.0480
   14MOL0     C 1801   2.791   7.734   3.800 -0.1220  0.2689  0.6926
   14MOL0     C 1802   2.672   7.781   3.753  0.0965  0.2758 -0.1701
   14MOL0     O 1803   2.555   7.913   3.381 -0.3502  0.2249 -0.3137
   14MOL0     C 1804   2.244   7.849   3.527 -0.2230  0.7700 -0.0372
   14MOL0     C 1805   2.110   7.866   3.518 -0.3551  0.0237  0.0121
   14MOL0     N 1806   1.498   7.757   3.025 -0.7637 -0.6282 -0.2663
   14MOL0     N 1807   1.453   7.818   2.915 -0.4204  1.0977  0.2483
   14MOL0     C 1808   1.269   8.879   3.103 -0.0661 -0.1983 -0.4210
   14MOL0     C 1809   1.215   8.882   3.230  0.4809 -0.6367 -0.5503
   14MOL0     C 1810   0.999   8.892   3.612 -0.2805  0.3016  0.0891
   14MOL0     C 1811   0.962   8.761   3.627 -0.1345 -0.0649 -0.7966
   14MOL0     C 1812   0.927   8.706   3.755 -0.1292 -0.2258  0.1474
   14MOL0     C 1813   0.918   8.788   3.862 -0.2308  0.1121  0.7242
   14MOL0     O 1814   0.897   8.760   3.991 -0.1320  0.0977 -0.2092
   14MOL0     C 1815   0.878   8.628   4.046 -0.4559  0.1605 -0.2269
   14MOL0     C 1816   1.003   8.550   4.028  0.4144 -0.9599 -0.2097
   14MOL0     C 1817   0.978   8.420   4.097  0.7453  0.4744 -1.0000
   14MOL0     C 1818   1.109   8.340   4.107 -0.2920 -0.8781  0.3343
   14MOL0     C 1819   1.092   8.213   4.179 -0.2201 -0.0868 -0.3333
   14MOL0     C 1820   1.065   8.110   4.234  0.1533  0.2486 -0.4766
   14MOL0     C 1821   0.952   8.920   3.851 -0.6601  0.7550  0.2395
   14MOL0     C 1822   0.994   8.968   3.728 -0.0195 -1.0618  0.2106
   14MOL0     H 1823   0.877   8.859   3.143 -1.0312 -2.8076 -2.3584
   14MOL0     H 1824   0.967   8.839   2.943  1.0222  0.6543 -1.3098
   14MOL0     H 1825   1.375   8.836   2.729  0.7650 -2.8574 -0.3441
   14MOL0     H 1826   1.421   8.910   2.893  0.3184 -1.6001  1.8609
   14MOL0     H 1827   1.528   8.697   2.848 -1.7426 -1.2699 -4.1908
   14MOL0     H 1828   1.422   8.687   2.992 -1.9589 -0.0486 -0.5318
   14MOL0     H 1829   1.268   8.558   2.856  1.0015 -4.6851  0.6141
   14MOL0     H 1830   1.358   8.614   2.706  0.4412  1.8832  0.2165
   14MOL0     H 1831   1.545   8.475   2.777  0.3497 -3.2500 -0.6613
   14MOL0     H 1832   1.467   8.448   2.936  2.9740  3.0821 -0.4813
   14MOL0     H 1833   1.275   8.314   2.831 -0.2150  0.1916 -0.3476
   14MOL0     H 1834   1.341   8.353   2.665 -2.7793  1.2529  1.3296
   14MOL0     H 1835   1.517   8.210   2.685  0.6566 -1.2830  0.5602
   14MOL0     H 1836   1.503   8.193   2.862  2.1638  1.4277 -0.0588
   14MOL0     H 1837   1.322   8.097   2.650  0.8093 -1.2875 -0.3921
   14MOL0     H 1838   1.451   8.003   2.705 -1.7948 -3.1432  1.6385
   14MOL0     H 1839   1.237   7.936   2.814  0.0763  0.3079 -0.6448
   14MOL0     H 1840   1.244   8.083   2.903 -0.5956 -1.8848  1.5788
   14MOL0     H 1841   1.366   8.036   3.138  1.5660  0.3712 -2.2461
   14MOL0     H 1842   1.447   7.886   3.343 -0.1897 -1.6616 -0.5992
   14MOL0     H 1843   1.479   7.722   3.307  0.4249 -0.1936 -0.2730
   14MOL0     H 1844   1.718   7.775   3.238  1.8583 -1.1599  2.9540
   14MOL0     H 1845   1.686   7.804   3.407 -1.0429 -0.2787  0.8325
   14MOL0     H 1846   1.655   8.044   3.375 -0.5512  1.3553  0.6488
   14MOL0     H 1847   1.660   8.025   3.209  2.7399  3.3962  0.2285
   14MOL0     H 1848   1.882   8.119   3.293 -1.2522  1.7027  1.3849
   14MOL0     H 1849   1.885   7.966   3.195 -3.4051  0.3529 -0.3151
   14MOL0     H 1850   2.102   8.077   3.254  0.9249  0.3239  0.5303
   14MOL0     H 1851   2.459   8.124   3.300  0.0992 -0.9048  0.1340
   14MOL0     H 1852   2.423   8.011   3.167  3.5241  0.4228  0.5757
   14MOL0     H 1853   2.323   8.145   3.182  0.3956  0.1651  0.2136
   14MOL0     H 1854   2.692   7.690   3.422  0.2406  2.5697  0.0699
   14MOL0     H 1855   2.910   7.604   3.501  0.4061 -0.4451 -0.5434
   14MOL0     H 1856   3.013   7.453   3.671  2.4637 -1.3813 -0.6798
   14MOL0     H 1857   3.116   7.579   3.619 -2.2878 -1.6952 -2.5144
   14MOL0     H 1858   3.262   7.543   3.835  3.9573 -1.9494 -3.5613
   14MOL0     H 1859   3.131   7.438   3.897  0.0613  1.0848  0.1820
   14MOL0     H 1860   3.287   7.388   3.651 -5.0443  2.1552 -0.6019
   14MOL0     H 1861   3.175   7.280   3.719 -0.6230  0.1474  1.2075
   14MOL0     H 1862   3.404   7.368   3.887  2.3398 -0.0743 -1.6697
   14MOL0     H 1863   3.295   7.234   3.932 -0.7547  3.5300  1.8657
   14MOL0     H 1864   3.401   7.104   3.733 -1.0438  0.8303  0.6298
   14MOL0     H 1865   3.529   7.153   3.860  2.3853 -4.6496 -2.3441
   14MOL0     H 1866   3.467   7.273   3.582  0.1527  3.0182  1.0848
   14MOL0     H 1867   3.571   7.340   3.722  0.2569 -0.8569  2.4257
   14MOL0     H 1868   3.615   7.122   3.527 -2.0732  2.1910 -0.7845
   14MOL0     H 1869   3.665   7.091   3.693 -1.6441 -0.5828 -1.4459
   14MOL0     H 1870   3.774   7.302   3.690 -0.8957 -0.8895  1.9863
   14MOL0     H 1871   3.748   7.316   3.509 -2.7038 -0.9185 -0.1984
   14MOL0     H 1872   2.822   7.750   3.903  0.6875 -0.5604  0.5910
   14MOL0     H 1873   2.603   7.830   3.822  2.5044  4.3054 -0.3241
   14MOL0     H 1874   2.275   7.795   3.616 -0.8610  1.0478  0.3611
   14MOL0     H 1875   2.048   7.821   3.595 -2.5448 -0.2350 -1.7959
   14MOL0     H 1876   1.378   8.881   3.098  0.2016 -3.8818  1.0192
   14MOL0     H 1877   1.272   8.894   3.321 -0.5655 -0.2146  0.0694
   14MOL0     H 1878   0.960   8.691   3.545 -3.3239 -3.1952  1.6288
   14MOL0     H 1879   0.923   8.598   3.762  0.3844 -0.2277  0.4452
   14MOL0     H 1880   0.856   8.649   4.151 -0.6357 -0.2991 -0.1743
   14MOL0     H 1881   0.794   8.570   4.009 -0.8166  0.0983  0.6485
   14MOL0     H 1882   1.091   8.601   4.068  0.3369  0.3724 -1.6888
   14MOL0     H 1883   1.029   8.525   3.925 -1.7169 -4.0233 -0.1544
   14MOL0     H 1884   0.906   8.367   4.034  0.2499  3.7853 -3.5054
   14MOL0     H 1885   0.927   8.431   4.193 -2.6284  0.5984 -2.6916
   14MOL0     H 1886   1.183   8.409   4.149  0.1222  0.7304 -2.7431
   14MOL0     H 1887   1.147   8.314   4.007 -1.8634  2.6805 -1.3520
   14MOL0     H 1888   1.034   8.018   4.280 -3.4669  1.5270 -0.0376
   14MOL0     H 1889   0.941   8.992   3.932 -1.5357  1.6497 -0.6460
   14MOL0     H 1890   0.991   9.076   3.730 -1.9645 -1.0923  1.1465
   15MOL0     O 1891   4.790  11.228   2.923  0.6474 -0.2492  0.2088
   15MOL0     C 1892   4.708  11.143   2.968  0.2606  0.4316  0.5170
   15MOL0     O 1893   4.578  11.161   2.982 -0.2375  0.1000 -1.0236
   15MOL0     C 1894   4.522  11.280   2.942  0.5459 -0.9308  0.3265
   15MOL0     C 1895   4.451  11.279   2.826 -0.5538  0.1577  0.0975
   15MOL0     C 1896   4.393  11.398   2.776 -0.1286 -0.2594 -0.6154
   15MOL0     C 1897   4.410  11.515   2.846  0.5250  0.2720  0.0764
   15MOL0     O 1898   4.351  11.634   2.805  0.3494 -0.2028  0.0022
   15MOL0     C 1899   4.273  11.633   2.685 -0.3886 -0.4094 -0.8547
   15MOL0     C 1900   4.223  11.777   2.644  0.9616  0.3463 -0.3017
   15MOL0     C 1901   4.142  11.766   2.519  1.4346 -0.1578  0.7845
   15MOL0     C 1902   4.109  11.906   2.473 -0.3944  0.4630 -0.5478
   15MOL0     C 1903   3.998  11.917   2.376  0.0718  0.6777  0.2766
   15MOL0     C 1904   3.981  12.064   2.337  0.2111  0.9665  0.6952
   15MOL0     C 1905   3.872  12.091   2.233 -0.0954  0.8067 -0.6801
   15MOL0     C 1906   3.882  12.022   2.106  0.1597  0.2021  0.8885
   15MOL0     N 1907   3.773  12.069   2.022  0.5894  0.1883 -0.4439
   15MOL0     C 1908   3.785  12.174   1.933 -0.1879  0.4064 -0.8364
   15MOL0     C 1909   3.671  12.173   1.861  0.2617 -0.4082  1.8345
   15MOL0     C 1910   3.653  12.272   1.745  0.0935 -0.4940  0.5199
   15MOL0     C 1911   3.673  12.417   1.777  0.1151 -0.0589 -0.6824
   15MOL0     C 1912   3.598  12.479   1.899 -0.0920  0.3505 -0.4038
   15MOL0     C 1913   3.443  12.452   1.901  0.2738  0.0011 -0.3259
   15MOL0     O 1914   3.388  12.515   1.795  1.0084  0.7950  0.5632
   15MOL0     C 1915   3.262  12.572   1.821 -0.1579  0.1464  0.2410
   15MOL0     C 1916   3.253  12.705   1.773  0.9103 -0.0819 -0.2185
   15MOL0     C 1917   3.140  12.775   1.803  0.7353 -0.2347 -0.7517
   15MOL0     C 1918   3.124  12.915   1.755 -0.1656  0.6317  0.2832
   15MOL0     C 1919   3.027  12.716   1.879 -0.3016 -0.2749  0.0589
   15MOL0     C 1920   2.901  12.783   1.909 -0.1455  0.3397 -0.9677
   15MOL0     O 1921   2.790  12.705   1.911 -1.1639 -0.3480 -0.7923
   15MOL0     C 1922   2.662  12.753   1.937 -0.5289 -0.4401  0.7208
   15MOL0     C 1923   2.599  12.847   1.853 -0.2857  0.1037  0.2741
   15MOL0     C 1924   2.472  12.889   1.873  0.7467 -0.3571  0.4472
   15MOL0     C 1925   2.400  12.846   1.990  0.1478  0.2679 -0.7513
   15MOL0     O 1926   2.268  12.895   2.004 -0.0561  0.2040  0.1883
   15MOL0     C 1927   2.206  12.882   2.132 -0.2268 -0.7948 -0.5495
   15MOL0     C 1928   2.074  12.948   2.151  0.1999  0.8488  0.6707
   15MOL0     C 1929   2.097  13.094   2.190  0.3532  0.4353  0.5932
   15MOL0     C 1930   1.957  13.166   2.196 -0.8726 -0.7276  0.1060
   15MOL0     C 1931   1.976  13.293   2.284 -0.5433  0.9528 -0.4944
   15MOL0     C 1932   1.839  13.355   2.328 -0.5317  0.5188 -0.1416
   15MOL0     C 1933   1.765  13.382   2.198  0.3068 -0.4262 -0.6767
   15MOL0     C 1934   1.631  13.454   2.230 -0.0855 -0.1231  1.3523
   15MOL0    Cl 1935   1.529  13.347   2.338 -0.1130 -0.3239  0.0436
   15MOL0     C 1936   2.457  12.750   2.077 -0.7372  0.1676 -0.2073
   15MOL0     C 1937   2.584  12.699   2.042  0.4515  0.0632 -0.8957
   15MOL0     O 1938   2.894  12.899   1.948 -0.1932 -0.1215 -0.3519
   15MOL0     C 1939   3.039  12.587   1.917 -0.4905  0.3490  0.5797
   15MOL0     C 1940   3.151  12.519   1.889 -0.8672 -0.1805 -0.4907
   15MOL0     N 1941   3.596  12.067   1.900 -0.5431  0.1060  0.0575
   15MOL0     N 1942   3.655  12.005   2.003 -0.4039  0.2245 -0.3284
   15MOL0     C 1943   4.487  11.517   2.963  0.6363  0.9921  0.4781
   15MOL0     C 1944   4.536  11.397   3.011  0.7174 -1.0206  0.0246
   15MOL0     C 1945   4.783  11.021   3.013 -0.3405 -0.2669 -0.1437
   15MOL0     C 1946   4.708  10.902   3.022 -0.0668 -0.4012  0.2454
   15MOL0     C 1947   4.779  10.790   3.062 -0.3281  0.3936 -0.3728
   15MOL0     C 1948   4.911  10.794   3.104  0.2065  0.3842 -0.1549
   15MOL0     O 1949   4.956  10.683   3.170  0.2931 -0.1476 -0.4728
   15MOL0     C 1950   5.070  10.696   3.259 -0.1205 -0.2283 -1.1152
   15MOL0     C 1951   5.076  10.586   3.375  1.1750 -0.4724 -0.7939
   15MOL0     C 1952   5.206  10.582   3.464  0.6215  0.9129 -0.4483
   15MOL0     C 1953   5.196  10.700   3.565 -0.1534 -0.5973 -0.9499
   15MOL0     C 1954   5.322  10.719   3.629 -0.6171 -0.1037 -0.2945
   15MOL0     C 1955   5.436  10.727   3.680  0.9018 -0.1889  1.2042
   15MOL0     C 1956   4.979  10.917   3.090 -0.2709  0.5536  0.1146
   15MOL0     C 1957   4.918  11.032   3.043 -0.6107 -0.4434  0.0596
   15MOL0     H 1958   4.427  11.189   2.771 -0.8253 -0.0441  0.5439
   15MOL0     H 1959   4.338  11.387   2.683  1.8943 -2.6632 -1.6280
   15MOL0     H 1960   4.339  11.594   2.607  0.2048 -0.3564 -0.3936
   15MOL0     H 1961   4.185  11.570   2.701 -0.0957 -0.8072 -0.7954
   15MOL0     H 1962   4.159  11.815   2.724  0.9170  2.5908 -1.3223
   15MOL0     H 1963   4.309  11.844   2.650  0.1294  1.3968  0.1273
   15MOL0     H 1964   4.204  11.726   2.437  3.7074  1.0656  1.8160
   15MOL0     H 1965   4.060  11.696   2.536 -0.9859  2.3171  0.0427
   15MOL0     H 1966   4.084  11.964   2.562  2.3381 -1.6884  1.8444
   15MOL0     H 1967   4.197  11.950   2.427  1.6614 -0.0915  2.5571
   15MOL0     H 1968   4.004  11.860   2.282 -1.6564  2.9314 -1.3126
   15MOL0     H 1969   3.911  11.876   2.429  0.7879 -0.7803  0.3735
   15MOL0     H 1970   3.956  12.125   2.424  1.3581  1.6342  0.5867
   15MOL0     H 1971   4.076  12.100   2.295  0.2450  0.4457  0.3103
   15MOL0     H 1972   3.772  12.082   2.278  0.9199 -0.9257  1.4152
   15MOL0     H 1973   3.881  12.197   2.209 -0.9409  0.9705 -0.3102
   15MOL0     H 1974   3.883  11.913   2.106 -0.5721  0.0868 -2.2466
   15MOL0     H 1975   3.973  12.044   2.049 -1.3282  0.7747 -1.4476
   15MOL0     H 1976   3.868  12.240   1.913  2.0604 -2.3411 -1.2168
   15MOL0     H 1977   3.729  12.242   1.672  0.1668 -0.7806  0.7147
   15MOL0     H 1978   3.550  12.262   1.710 -0.0622  0.1120  0.7930
   15MOL0     H 1979   3.646  12.466   1.683 -0.6987 -1.0036 -0.9648
   15MOL0     H 1980   3.778  12.432   1.802  0.2300  1.1688 -1.7917
   15MOL0     H 1981   3.610  12.587   1.885 -1.3836  0.4993 -0.4517
   15MOL0     H 1982   3.641  12.443   1.993 -1.6108 -3.8453 -1.1246
   15MOL0     H 1983   3.403  12.484   1.997 -2.0946  2.0375 -1.8878
   15MOL0     H 1984   3.415  12.346   1.895 -2.2040  0.6207 -0.5905
   15MOL0     H 1985   3.341  12.750   1.727  0.2150  2.1306  0.5180
   15MOL0     H 1986   3.219  12.950   1.712  0.6172 -2.5268 -0.8350
   15MOL0     H 1987   3.042  12.918   1.682 -0.1776  0.9468  0.3080
   15MOL0     H 1988   3.097  12.985   1.834  0.1719  0.1729  0.8076
   15MOL0     H 1989   2.646  12.892   1.766 -0.7101  2.7088  1.2906
   15MOL0     H 1990   2.425  12.962   1.807 -1.1535 -2.4237 -0.6126
   15MOL0     H 1991   2.182  12.778   2.158 -3.1532 -0.4345 -1.4649
   15MOL0     H 1992   2.276  12.918   2.207  1.2779 -2.3317 -1.1497
   15MOL0     H 1993   2.021  12.938   2.056  2.7807 -2.2744 -0.6002
   15MOL0     H 1994   2.017  12.902   2.232 -2.6622  0.0657 -1.6164
   15MOL0     H 1995   2.177  13.143   2.134 -0.9858 -0.9001 -2.7760
   15MOL0     H 1996   2.144  13.088   2.288  0.6210 -0.3460  0.4283
   15MOL0     H 1997   1.928  13.211   2.101  1.1595  2.9519  1.0045
   15MOL0     H 1998   1.878  13.098   2.228 -0.3620 -2.9768 -3.0185
   15MOL0     H 1999   2.025  13.357   2.211 -0.2538 -1.2508 -2.3214
   15MOL0     H 2000   2.033  13.267   2.374 -0.2810  0.6802 -0.7421
   15MOL0     H 2001   1.781  13.288   2.392  2.3454 -1.2713  0.8074
   15MOL0     H 2002   1.865  13.447   2.381  0.5027 -1.2790  2.7520
   15MOL0     H 2003   1.724  13.291   2.154 -0.7481 -1.0113  1.4144
   15MOL0     H 2004   1.827  13.434   2.125  1.8187 -3.2082 -1.5114
   15MOL0     H 2005   1.576  13.469   2.136  0.2023 -0.5070  1.1149
   15MOL0     H 2006   1.657  13.552   2.272  0.8837  0.5671 -0.6982
   15MOL0     H 2007   2.413  12.713   2.168  0.9588 -1.1469  0.1377
   15MOL0     H 2008   2.631  12.619   2.098  1.1826 -0.1477 -1.7836
   15MOL0     H 2009   2.955  12.534   1.961 -1.6711  1.1392 -0.6512
   15MOL0     H 2010   3.162  12.412   1.907  2.0480  0.0676 -0.3178
   15MOL0     H 2011   4.491  11.609   3.021 -0.9117 -0.2402  2.6899
   15MOL0     H 2012   4.597  11.393   3.101  1.0485  0.3258 -0.1092
   15MOL0     H 2013   4.602  10.891   3.004 -0.1441  0.6092  0.0264
   15MOL0     H 2014   4.714  10.704   3.079 -1.7871  1.6661  0.8433
   15MOL0     H 2015   5.164  10.691   3.204  0.7309 -1.1522  0.3473
   15MOL0     H 2016   5.074  10.792   3.311 -1.2435 -0.4778 -0.5261
   15MOL0     H 2017   5.058  10.486   3.335 -0.4677 -0.9483  0.9688
   15MOL0     H 2018   4.988  10.606   3.437 -0.0681 -2.5852 -1.7858
   15MOL0     H 2019   5.300  10.591   3.409  1.9339 -0.2699  1.5132
   15MOL0     H 2020   5.207  10.491   3.524  0.3301  2.5481  2.2089
   15MOL0     H 2021   5.115  10.670   3.633  0.9670  0.9924  1.2357
   15MOL0     H 2022   5.161  10.795   3.523 -1.8967  0.3162  2.2313
   15MOL0     H 2023   5.527  10.737   3.735  0.0350 -1.3370  2.9213
   15MOL0     H 2024   5.085  10.915   3.112 -0.2321 -2.5195  0.0114
   15MOL0     H 2025   4.962  11.131   3.042 -2.7192  0.5447 -0.7407
   16MOL0     O 2026   7.119   2.167   4.073  0.1367 -0.0666  0.1396
   16MOL0     C 2027   7.144   2.197   3.954 -0.0626 -0.1712 -0.0754
   16MOL0     O 2028   7.056   2.248   3.868  0.3479 -0.6399  0.1949
   16MOL0     C 2029   6.916   2.252   3.876  0.1916  0.1789  0.6787
   16MOL0     C 2030   6.854   2.272   3.752 -0.4150  0.6748 -0.5092
   16MOL0     C 2031   6.719   2.285   3.736 -0.1845  0.0934 -0.3748
   16MOL0     C 2032   6.632   2.277   3.849  0.2157  0.1501  0.4632
   16MOL0     O 2033   6.490   2.282   3.848  0.2141  0.1786 -0.1012
   16MOL0     C 2034   6.438   2.185   3.749  0.0086  0.2346  0.6382
   16MOL0     C 2035   6.315   2.253   3.693  0.3091 -0.5490 -0.1958
   16MOL0     C 2036   6.198   2.249   3.790 -0.3078  0.4081 -0.1337
   16MOL0     C 2037   6.079   2.327   3.746 -1.4399  1.2096 -0.3906
   16MOL0     C 2038   5.964   2.294   3.830 -0.1596  1.5972 -0.3929
   16MOL0     C 2039   5.833   2.348   3.777 -0.5473  0.0801  0.1513
   16MOL0     C 2040   5.715   2.314   3.875  0.2311 -0.0338 -1.7639
   16MOL0     C 2041   5.657   2.176   3.838 -0.5805  0.1741  0.4779
   16MOL0     N 2042   5.556   2.144   3.937  0.0796 -0.1705 -0.4451
   16MOL0     C 2043   5.579   2.151   4.076  0.0347 -0.8372  0.7218
   16MOL0     C 2044   5.454   2.155   4.117  0.5031  0.2304 -0.0416
   16MOL0     C 2045   5.412   2.154   4.263  0.0518  0.4833  0.6853
   16MOL0     C 2046   5.518   2.207   4.360  0.6298  0.1441 -0.0141
   16MOL0     C 2047   5.468   2.181   4.506  0.2186 -0.6683 -0.5053
   16MOL0     C 2048   5.584   2.239   4.587  0.3526 -0.2150 -0.7087
   16MOL0     O 2049   5.715   2.174   4.590 -0.2240  0.1495 -0.1564
   16MOL0     C 2050   5.828   2.255   4.631 -0.2654 -0.4145 -0.4388
   16MOL0     C 2051   5.823   2.366   4.722 -0.2285 -0.2269  0.9546
   16MOL0     C 2052   5.934   2.435   4.762 -0.2924  0.8510  0.0177
   16MOL0     C 2053   5.915   2.539   4.867  0.4976  0.1998  0.0293
   16MOL0     C 2054   6.060   2.398   4.704  0.2526  0.1687  0.5144
   16MOL0     C 2055   6.186   2.465   4.726 -0.4045 -0.9301 -0.2571
   16MOL0     O 2056   6.297   2.411   4.669  0.0955 -0.0336  0.7300
   16MOL0     C 2057   6.419   2.467   4.682 -0.7049  0.0002  0.5196
   16MOL0     C 2058   6.518   2.360   4.700  0.3675 -0.3177 -0.8203
   16MOL0     C 2059   6.644   2.409   4.729  0.4474 -0.9054 -0.1856
   16MOL0     C 2060   6.675   2.543   4.751 -0.7664  0.0962 -0.1041
   16MOL0     O 2061   6.809   2.565   4.782  0.2081  0.0092  0.4487
   16MOL0     C 2062   6.875   2.638   4.682  0.2895  0.2831 -0.4307
   16MOL0     C 2063   6.962   2.745   4.759 -0.0226  0.0755 -0.6425
   16MOL0     C 2064   7.086   2.688   4.824 -0.9583 -0.5623 -0.0983
   16MOL0     C 2065   7.200   2.648   4.717 -0.9679  0.2578 -0.3418
   16MOL0     C 2066   7.297   2.760   4.682 -0.1746  0.2937 -0.7933
   16MOL0     C 2067   7.416   2.720   4.612  0.2077  0.5824 -0.3395
   16MOL0     C 2068   7.503   2.840   4.577  0.1899  0.2813  0.2832
   16MOL0     C 2069   7.605   2.804   4.477  0.5050  0.3952 -0.9779
   16MOL0    Cl 2070   7.729   2.684   4.538  0.1353  0.0911 -0.1468
   16MOL0     C 2071   6.581   2.640   4.723  0.7827  0.2095  0.3424
   16MOL0     C 2072   6.451   2.601   4.693  0.1295 -0.1979 -0.8178
   16MOL0     O 2073   6.190   2.568   4.797  0.1829  0.1017 -0.8633
   16MOL0     C 2074   6.068   2.296   4.598 -0.1902  1.1569 -0.9552
   16MOL0     C 2075   5.949   2.220   4.581  0.4581  0.4082  0.7398
   16MOL0     N 2076   5.362   2.173   4.008  0.3422  0.3542 -0.2356
   16MOL0     N 2077   5.427   2.156   3.898 -0.4311  0.2901 -0.5625
   16MOL0     C 2078   6.688   2.251   3.973  0.0668 -0.5662 -0.1021
   16MOL0     C 2079   6.827   2.237   3.984  0.0566  0.5893 -0.7899
   16MOL0     C 2080   7.275   2.151   3.900 -0.1404 -0.0585 -0.2226
   16MOL0     C 2081   7.290   2.102   3.773 -0.4952  0.2584  0.8796
   16MOL0     C 2082   7.412   2.047   3.724  0.7934 -0.3649  0.4422
   16MOL0     C 2083   7.521   2.035   3.807 -0.7250 -1.2089 -0.7126
   16MOL0     O 2084   7.646   1.984   3.775 -0.4383 -0.0573 -0.6246
   16MOL0     C 2085   7.707   1.980   3.634  1.0139 -0.4343 -1.4243
   16MOL0     C 2086   7.706   2.116   3.567 -0.2253  0.2882  0.1278
   16MOL0     C 2087   7.786   2.207   3.648 -0.5338 -0.1748  0.8267
   16MOL0     C 2088   7.935   2.213   3.611  1.0943  0.4657  0.1716
   16MOL0     C 2089   8.005   2.277   3.718 -0.3805  1.1330 -0.4337
   16MOL0     C 2090   8.064   2.337   3.803 -0.2590  1.1120  0.9401
   16MOL0     C 2091   7.498   2.070   3.946  0.2529  0.0964  0.1699
   16MOL0     C 2092   7.375   2.128   3.991 -0.6505 -0.5513  0.1296
   16MOL0     H 2093   6.919   2.282   3.665 -1.2034 -3.3912 -1.7699
   16MOL0     H 2094   6.688   2.319   3.638 -1.2112  1.3026  0.3465
   16MOL0     H 2095   6.500   2.163   3.662 -0.5935  1.9099 -0.2732
   16MOL0     H 2096   6.424   2.089   3.799  0.1818 -0.0540  0.1330
   16MOL0     H 2097   6.330   2.359   3.672 -0.8605 -0.2003  0.6181
   16MOL0     H 2098   6.277   2.199   3.605  1.1709 -2.6997  0.6713
   16MOL0     H 2099   6.172   2.144   3.812  1.8770 -0.2916 -0.6282
   16MOL0     H 2100   6.238   2.281   3.887 -2.6941  1.9656  0.4114
   16MOL0     H 2101   6.097   2.435   3.757 -0.8250  1.1179 -0.4918
   16MOL0     H 2102   6.058   2.299   3.643 -1.0663 -1.5049  0.1946
   16MOL0     H 2103   5.955   2.185   3.833 -0.9702  1.6432 -0.8909
   16MOL0     H 2104   5.978   2.334   3.931 -0.0322  0.0309  0.2386
   16MOL0     H 2105   5.828   2.457   3.778 -3.5172  0.0568 -1.4942
   16MOL0     H 2106   5.810   2.310   3.677  0.0010 -0.1383  0.1061
   16MOL0     H 2107   5.756   2.319   3.976 -1.6060  0.7017 -1.0340
   16MOL0     H 2108   5.645   2.396   3.863  0.6764  0.4120 -1.3279
   16MOL0     H 2109   5.730   2.095   3.846 -0.7399 -0.1215 -0.8277
   16MOL0     H 2110   5.620   2.181   3.735  0.7292 -1.8172 -0.1525
   16MOL0     H 2111   5.671   2.150   4.133  0.1719 -1.0299  0.4993
   16MOL0     H 2112   5.318   2.207   4.283 -0.7597 -1.0055  0.9645
   16MOL0     H 2113   5.393   2.049   4.290 -0.6549  0.4135 -0.0527
   16MOL0     H 2114   5.515   2.310   4.322  0.4489 -0.5536 -2.0349
   16MOL0     H 2115   5.616   2.161   4.346 -0.0042 -0.8577 -1.4024
   16MOL0     H 2116   5.469   2.076   4.534  4.9089 -0.1781  2.1190
   16MOL0     H 2117   5.369   2.227   4.513  1.5024  2.3339 -0.1878
   16MOL0     H 2118   5.544   2.245   4.689 -0.0102 -3.6298 -0.5531
   16MOL0     H 2119   5.596   2.339   4.544  1.1879  0.4817  1.0256
   16MOL0     H 2120   5.726   2.386   4.766 -0.4495 -0.4093  0.5499
   16MOL0     H 2121   5.991   2.528   4.945  0.8325  1.2580 -0.1381
   16MOL0     H 2122   5.930   2.633   4.814 -0.8022  0.8787  0.8220
   16MOL0     H 2123   5.815   2.532   4.912 -0.2744  0.7964 -1.5116
   16MOL0     H 2124   6.496   2.255   4.683  0.9223 -0.2897 -1.7928
   16MOL0     H 2125   6.726   2.339   4.741  2.0075  1.1387  1.9537
   16MOL0     H 2126   6.936   2.572   4.621  0.5893  0.2920 -0.1449
   16MOL0     H 2127   6.805   2.688   4.615 -2.6541 -2.6941  0.1560
   16MOL0     H 2128   7.006   2.810   4.683 -0.1735 -1.1525 -1.8125
   16MOL0     H 2129   6.908   2.792   4.842  1.0826 -1.3802  0.9687
   16MOL0     H 2130   7.062   2.596   4.877  0.2697 -1.4871 -1.0792
   16MOL0     H 2131   7.119   2.774   4.883 -0.0181 -1.4055  0.6259
   16MOL0     H 2132   7.249   2.564   4.768 -1.5868 -1.1416 -1.9613
   16MOL0     H 2133   7.147   2.601   4.634  1.4387 -0.9900 -1.2744
   16MOL0     H 2134   7.329   2.803   4.777  1.6135 -0.2332 -1.1182
   16MOL0     H 2135   7.248   2.836   4.619 -1.5559 -0.8365 -1.1489
   16MOL0     H 2136   7.476   2.648   4.668 -2.9148 -2.9712 -1.1250
   16MOL0     H 2137   7.394   2.666   4.519 -0.0207  0.5236 -0.2527
   16MOL0     H 2138   7.561   2.872   4.664 -0.7213  0.0030  1.0063
   16MOL0     H 2139   7.437   2.924   4.552  0.6811  1.5387  2.8304
   16MOL0     H 2140   7.659   2.895   4.448 -2.3848  2.5214 -0.0899
   16MOL0     H 2141   7.564   2.751   4.391  2.1704  2.8444 -3.4792
   16MOL0     H 2142   6.607   2.742   4.746  3.2381 -0.2884 -0.0148
   16MOL0     H 2143   6.372   2.675   4.698 -0.3054 -0.7504  0.9816
   16MOL0     H 2144   6.164   2.276   4.550  0.2494 -2.3301  1.1055
   16MOL0     H 2145   5.948   2.135   4.514 -0.6170 -0.4751  1.8310
   16MOL0     H 2146   6.631   2.237   4.064 -2.3073 -0.0361 -1.4088
   16MOL0     H 2147   6.860   2.230   4.087 -1.1383  1.4617 -0.3259
   16MOL0     H 2148   7.206   2.094   3.705  0.6692 -1.1933 -0.4531
   16MOL0     H 2149   7.419   2.005   3.624  0.3933 -1.7818  0.9894
   16MOL0     H 2150   7.810   1.947   3.649  1.2405  1.1874  1.3479
   16MOL0     H 2151   7.638   1.909   3.587  1.4216 -1.1496 -0.9509
   16MOL0     H 2152   7.603   2.147   3.587 -0.2506  1.2158 -1.2381
   16MOL0     H 2153   7.714   2.096   3.459 -4.5731 -0.6777 -0.2201
   16MOL0     H 2154   7.789   2.185   3.755 -0.5845  0.0125  0.8675
   16MOL0     H 2155   7.743   2.307   3.633 -3.6642 -1.3413  1.4061
   16MOL0     H 2156   7.941   2.259   3.512  1.3872 -0.5619 -0.3116
   16MOL0     H 2157   7.981   2.114   3.602  1.5773  0.8112 -1.4088
   16MOL0     H 2158   8.125   2.394   3.870 -0.6780  1.5931  0.9205
   16MOL0     H 2159   7.584   2.049   4.010  0.8138  4.2716  1.0323
   16MOL0     H 2160   7.381   2.156   4.096  2.4774  1.5500 -0.4731
   17MOL0     O 2161   9.281   4.267   9.180 -0.4994 -0.6407 -0.4896
   17MOL0     C 2162   9.228   4.326   9.272 -0.1891  1.2168 -0.5004
   17MOL0     O 2163   9.092   4.344   9.280 -1.4975  0.2498 -0.0681
   17MOL0     C 2164   9.018   4.261   9.218  0.3489  0.3997 -0.6307
   17MOL0     C 2165   9.002   4.133   9.258  0.2143 -0.3120  2.0310
   17MOL0     C 2166   8.934   4.040   9.179  0.3953 -0.6461 -0.1163
   17MOL0     C 2167   8.877   4.076   9.057 -0.1607 -0.3374  0.6118
   17MOL0     O 2168   8.799   4.005   8.972 -0.7835  0.3610 -0.0440
   17MOL0     C 2169   8.730   3.894   9.035  0.1885  0.6608 -0.5864
   17MOL0     C 2170   8.630   3.837   8.937  0.2269  0.1568 -0.1543
   17MOL0     C 2171   8.504   3.921   8.926 -0.0038  0.1097  0.0134
   17MOL0     C 2172   8.406   3.859   8.815  0.4345  0.6643 -0.3352
   17MOL0     C 2173   8.303   3.970   8.767 -0.7471 -0.1461 -0.4292
   17MOL0     C 2174   8.195   3.906   8.675 -0.5752 -0.7560  0.1170
   17MOL0     C 2175   8.092   4.001   8.635  0.0015 -0.0190  0.1838
   17MOL0     C 2176   7.992   3.942   8.529  0.3035 -0.4609  0.0300
   17MOL0     N 2177   7.926   3.814   8.566 -0.3421 -0.3087 -0.4906
   17MOL0     C 2178   7.800   3.809   8.629 -0.6176 -0.0083  0.5305
   17MOL0     C 2179   7.780   3.673   8.650  0.3155 -0.0535  0.1588
   17MOL0     C 2180   7.662   3.610   8.730  0.0357 -0.3718  0.2767
   17MOL0     C 2181   7.537   3.658   8.676  0.7426 -0.3593  0.3504
   17MOL0     C 2182   7.416   3.590   8.743 -0.1712 -0.6088 -0.4503
   17MOL0     C 2183   7.408   3.439   8.729  1.1231  0.5050  0.4595
   17MOL0     O 2184   7.415   3.400   8.585  0.6157  0.0300 -0.1214
   17MOL0     C 2185   7.300   3.416   8.509 -0.1714  0.6686 -0.0496
   17MOL0     C 2186   7.311   3.430   8.375 -0.0654 -0.4789  0.7899
   17MOL0     C 2187   7.192   3.433   8.292  0.3243 -0.6505  0.1124
   17MOL0     C 2188   7.223   3.454   8.154  0.2916 -0.3012  0.3148
   17MOL0     C 2189   7.060   3.436   8.343 -0.2315  0.5976 -0.0199
   17MOL0     C 2190   6.939   3.425   8.260  0.3319  0.0999  0.0570
   17MOL0     O 2191   6.942   3.431   8.119  0.2150 -0.1534  0.1058
   17MOL0     C 2192   6.820   3.458   8.049  0.5195  0.1731 -0.6513
   17MOL0     C 2193   6.763   3.365   7.966  0.8106  1.8558 -0.0627
   17MOL0     C 2194   6.643   3.395   7.897 -0.0105 -0.9336  0.6791
   17MOL0     C 2195   6.570   3.514   7.920 -0.0744 -0.6758  0.1766
   17MOL0     O 2196   6.449   3.536   7.860 -0.2189 -0.2336 -0.4983
   17MOL0     C 2197   6.387   3.657   7.876  0.4932  0.4466  0.4919
   17MOL0     C 2198   6.246   3.642   7.817  0.2147  0.5905 -0.7653
   17MOL0     C 2199   6.139   3.605   7.924  0.3623  0.6072 -0.0471
   17MOL0     C 2200   6.097   3.710   8.031 -0.8807 -0.4506 -0.7572
   17MOL0     C 2201   5.984   3.650   8.114  0.8461  0.0717 -0.0941
   17MOL0     C 2202   5.927   3.759   8.197 -0.6680 -0.5253 -0.4392
   17MOL0     C 2203   5.814   3.713   8.288  0.3482  1.4966  0.7065
   17MOL0     C 2204   5.772   3.825   8.389 -0.1678  0.8611 -1.3394
   17MOL0    Cl 2205   5.672   3.951   8.306 -0.0195 -0.2432 -0.3505
   17MOL0     C 2206   6.629   3.605   8.007 -0.3476  0.4727  0.5344
   17MOL0     C 2207   6.748   3.575   8.075  0.3644  0.1519  0.4354
   17MOL0     O 2208   6.840   3.409   8.327  0.5644  0.0057  0.7228
   17MOL0     C 2209   7.054   3.425   8.488 -0.0356 -1.4258  0.6946
   17MOL0     C 2210   7.166   3.408   8.564 -0.6710 -0.1741 -0.2390
   17MOL0     N 2211   7.878   3.600   8.592 -0.1500 -0.7361  0.5562
   17MOL0     N 2212   7.969   3.687   8.543  0.5313 -0.3190  0.1066
   17MOL0     C 2213   8.893   4.210   9.018 -0.2640 -0.1515 -0.1113
   17MOL0     C 2214   8.964   4.300   9.097  0.4131 -0.2267 -0.0254
   17MOL0     C 2215   9.318   4.382   9.380  0.2688 -0.2316 -0.6279
   17MOL0     C 2216   9.458   4.378   9.384  0.1338  0.2497  0.1091
   17MOL0     C 2217   9.531   4.453   9.476  0.8177 -0.4284 -0.0710
   17MOL0     C 2218   9.462   4.541   9.571 -0.7220 -0.5606  0.6012
   17MOL0     O 2219   9.529   4.617   9.671 -0.2124  0.0248 -0.0323
   17MOL0     C 2220   9.667   4.591   9.696  0.2876  0.0196  0.2838
   17MOL0     C 2221   9.735   4.688   9.604  0.2345  0.4777  0.3571
   17MOL0     C 2222   9.891   4.669   9.612 -0.0888  0.0124  0.4925
   17MOL0     C 2223   9.965   4.787   9.696 -0.8474  0.0732 -0.5676
   17MOL0     C 2224   9.900   4.812   9.826  0.1980 -0.0551  0.0375
   17MOL0     C 2225   9.838   4.840   9.927 -0.8899  0.0614  0.3732
   17MOL0     C 2226   9.325   4.544   9.573  0.7085  0.1375 -0.4096
   17MOL0     C 2227   9.255   4.468   9.477  0.7090  0.5535 -0.6626
   17MOL0     H 2228   9.030   4.110   9.361 -0.0551 -1.4324  1.8609
   17MOL0     H 2229   8.903   3.947   9.225 -1.8188 -0.1834 -0.5990
   17MOL0     H 2230   8.804   3.815   9.046 -3.4686 -2.9015  1.4689
   17MOL0     H 2231   8.683   3.917   9.132  1.1633  2.2931 -0.4700
   17MOL0     H 2232   8.669   3.819   8.836 -1.6686  1.2051 -1.1360
   17MOL0     H 2233   8.601   3.737   8.969  4.7156 -1.7289 -1.2310
   17MOL0     H 2234   8.452   3.938   9.021  2.0460  0.3218  1.1446
   17MOL0     H 2235   8.519   4.019   8.881 -2.1600 -0.9664 -3.4966
   17MOL0     H 2236   8.466   3.811   8.737  1.4370 -0.0905  0.8450
   17MOL0     H 2237   8.351   3.786   8.875  2.5659  1.1651  2.4974
   17MOL0     H 2238   8.250   4.008   8.855 -1.1978 -1.3641 -0.1583
   17MOL0     H 2239   8.355   4.057   8.724  1.3338 -1.9789 -1.8635
   17MOL0     H 2240   8.257   3.864   8.596 -0.1104  0.6647 -0.2837
   17MOL0     H 2241   8.156   3.820   8.731 -1.9915 -0.1211  0.1349
   17MOL0     H 2242   8.038   4.035   8.723 -1.0418  1.0034 -0.8095
   17MOL0     H 2243   8.146   4.088   8.595 -0.9481  0.6788  0.4045
   17MOL0     H 2244   8.051   3.916   8.441  1.8710  1.0996  0.5731
   17MOL0     H 2245   7.923   4.023   8.505  2.4437  1.5500  0.3786
   17MOL0     H 2246   7.743   3.894   8.663  0.1210  1.7125 -2.1826
   17MOL0     H 2247   7.663   3.501   8.716 -2.6407 -0.0388 -5.1662
   17MOL0     H 2248   7.673   3.645   8.833  1.3326 -1.0329  0.3797
   17MOL0     H 2249   7.535   3.636   8.569 -2.0888  4.1665 -0.7927
   17MOL0     H 2250   7.521   3.766   8.683 -1.8151 -0.6835  0.6676
   17MOL0     H 2251   7.333   3.627   8.682 -0.0692 -1.0933 -0.8991
   17MOL0     H 2252   7.402   3.628   8.844  0.2555 -1.0098 -0.2362
   17MOL0     H 2253   7.321   3.402   8.784  0.2289  0.1252 -1.1327
   17MOL0     H 2254   7.495   3.385   8.765 -0.2418 -1.7735  0.5582
   17MOL0     H 2255   7.411   3.445   8.334 -1.6044 -0.1920 -3.4109
   17MOL0     H 2256   7.169   3.535   8.106 -0.8142 -1.0201  0.3109
   17MOL0     H 2257   7.329   3.477   8.140  0.2210  2.5445  3.2141
   17MOL0     H 2258   7.200   3.363   8.098  1.0994  1.2550 -2.7664
   17MOL0     H 2259   6.805   3.268   7.942 -0.6083  1.5390 -1.3721
   17MOL0     H 2260   6.585   3.324   7.839 -0.9627  0.6820 -0.4212
   17MOL0     H 2261   6.382   3.689   7.981  0.1830  0.8040  0.3712
   17MOL0     H 2262   6.446   3.733   7.823  1.1472  0.0517  0.6385
   17MOL0     H 2263   6.219   3.737   7.770  1.5135  0.4632 -1.8113
   17MOL0     H 2264   6.249   3.575   7.730  1.2872  1.2169 -1.2259
   17MOL0     H 2265   6.165   3.508   7.969 -4.9508 -1.5822 -0.8998
   17MOL0     H 2266   6.050   3.574   7.869 -0.0160 -1.1138  1.4136
   17MOL0     H 2267   6.182   3.734   8.095 -1.6627 -0.8771  0.4779
   17MOL0     H 2268   6.049   3.794   7.979 -0.2625  1.3006  1.3758
   17MOL0     H 2269   6.020   3.569   8.179 -0.8050  0.2967  1.1862
   17MOL0     H 2270   5.911   3.616   8.040 -0.1586  1.4824  0.2135
   17MOL0     H 2271   6.005   3.801   8.261  0.2573 -1.0357 -1.2124
   17MOL0     H 2272   5.900   3.849   8.140  2.2199  1.7474  1.4848
   17MOL0     H 2273   5.853   3.625   8.340 -0.7122  0.9377  0.5919
   17MOL0     H 2274   5.724   3.678   8.237 -1.5265  1.0929  3.9655
   17MOL0     H 2275   5.867   3.854   8.434  0.5052 -3.9773  1.0435
   17MOL0     H 2276   5.714   3.795   8.477  3.1000  3.0660  1.8370
   17MOL0     H 2277   6.584   3.703   8.023 -1.6935  0.4957 -2.6210
   17MOL0     H 2278   6.802   3.659   8.116  1.5372  1.1553 -2.8036
   17MOL0     H 2279   6.964   3.408   8.545  1.0584 -3.0381  2.0257
   17MOL0     H 2280   7.150   3.386   8.669  0.8869  0.8818  0.2657
   17MOL0     H 2281   8.869   4.244   8.918  1.4404  1.2185 -0.0963
   17MOL0     H 2282   8.972   4.405   9.072 -1.3981 -0.3243 -1.2116
   17MOL0     H 2283   9.502   4.311   9.310 -1.5124 -1.4398  0.5827
   17MOL0     H 2284   9.637   4.434   9.484  1.1493 -0.2895 -2.9332
   17MOL0     H 2285   9.686   4.632   9.795  1.1017  3.1822 -1.0620
   17MOL0     H 2286   9.694   4.486   9.683 -0.0313 -0.0402  0.0772
   17MOL0     H 2287   9.703   4.791   9.622  1.1874  0.9075 -0.3150
   17MOL0     H 2288   9.708   4.669   9.499  0.3413 -1.0733  0.5894
   17MOL0     H 2289   9.936   4.665   9.512  0.5474 -0.0661  0.7717
   17MOL0     H 2290   9.924   4.578   9.664  1.6468 -0.0576 -0.6494
   17MOL0     H 2291   9.979   4.877   9.636  2.5152  0.6386  0.8479
   17MOL0     H 2292  10.070   4.760   9.712 -0.9801 -0.5192 -0.6548
   17MOL0     H 2293   9.802   4.880  10.020 -2.2407  0.1148 -0.1526
   17MOL0     H 2294   9.279   4.595   9.658 -1.3798  0.7554 -1.8395
   17MOL0     H 2295   9.149   4.486   9.463  1.1316  1.3773 -3.4972
   18MOL0     O 2296  10.382  10.746   4.012 -0.4556 -0.9374 -0.4570
   18MOL0     C 2297  10.420  10.637   3.972  0.4131  0.4826  0.0534
   18MOL0     O 2298  10.359  10.547   3.885  0.3629 -0.4709  0.2955
   18MOL0     C 2299  10.244  10.587   3.826  0.6986  0.1860  0.2006
   18MOL0     C 2300  10.147  10.491   3.804 -0.2859 -0.3979  0.4008
   18MOL0     C 2301  10.039  10.515   3.727 -0.1585 -0.9029 -0.1085
   18MOL0     C 2302  10.020  10.639   3.660 -0.2914 -0.4504  0.2726
   18MOL0     O 2303   9.910  10.672   3.580  0.1272 -0.0241  0.6422
   18MOL0     C 2304   9.794  10.581   3.590 -0.4162  0.0215 -0.9271
   18MOL0     C 2305   9.686  10.612   3.488 -0.7716  0.1366 -0.0742
   18MOL0     C 2306   9.560  10.546   3.534 -0.3245 -0.8139  1.4858
   18MOL0     C 2307   9.461  10.554   3.419 -0.3702 -0.0443  0.1427
   18MOL0     C 2308   9.325  10.510   3.468  1.1070 -0.0603 -0.5066
   18MOL0     C 2309   9.246  10.565   3.594 -0.6844 -0.9750  0.1546
   18MOL0     C 2310   9.225  10.721   3.595 -0.1648 -0.4334  1.6101
   18MOL0     C 2311   9.093  10.772   3.535 -1.3066 -0.2528 -0.2916
   18MOL0     N 2312   9.064  10.714   3.400 -0.5278  0.9031  0.1264
   18MOL0     C 2313   8.985  10.608   3.366  0.6346 -0.4526 -0.4362
   18MOL0     C 2314   9.010  10.593   3.232 -0.2163 -0.1240 -0.1333
   18MOL0     C 2315   8.957  10.490   3.143  0.4789 -0.7169 -0.0668
   18MOL0     C 2316   9.021  10.359   3.164  0.4372 -0.2942  0.0637
   18MOL0     C 2317   9.149  10.332   3.092 -0.1771 -0.7310 -0.4664
   18MOL0     C 2318   9.228  10.223   3.157  0.7038  0.5779  0.0589
   18MOL0     O 2319   9.147  10.110   3.196 -0.5944 -0.3657 -0.1830
   18MOL0     C 2320   9.191  10.041   3.306 -0.9282 -0.3140 -0.0183
   18MOL0     C 2321   9.091   9.973   3.382 -0.5045  0.1631  0.2291
   18MOL0     C 2322   9.118   9.871   3.477 -0.6672 -0.2305  1.0734
   18MOL0     C 2323   9.003   9.786   3.531 -0.0190 -0.8741 -0.1523
   18MOL0     C 2324   9.247   9.841   3.511 -0.9468  0.5389  0.5113
   18MOL0     C 2325   9.295   9.731   3.603 -1.0446 -0.3084 -0.9562
   18MOL0     O 2326   9.427   9.744   3.636  0.7779  0.9468 -0.0377
   18MOL0     C 2327   9.490   9.653   3.720 -0.4269 -0.0092  0.0208
   18MOL0     C 2328   9.546   9.703   3.834  0.3888  0.2259 -0.6475
   18MOL0     C 2329   9.624   9.620   3.914  0.1081 -0.5149 -0.1338
   18MOL0     C 2330   9.641   9.485   3.887  0.9044 -0.0776 -0.4068
   18MOL0     O 2331   9.717   9.408   3.975  1.0032 -0.4063  0.4009
   18MOL0     C 2332   9.671   9.274   4.014 -0.5394  1.0590 -0.3850
   18MOL0     C 2333   9.746   9.249   4.147 -0.1466  0.0868  0.1816
   18MOL0     C 2334   9.894   9.201   4.137 -1.0661 -0.4587 -0.0100
   18MOL0     C 2335   9.926   9.067   4.081 -0.7427 -0.4785 -0.8108
   18MOL0     C 2336  10.067   9.022   4.134 -0.0359  0.3745  0.6247
   18MOL0     C 2337  10.084   8.878   4.074 -0.8465  0.4450  0.0613
   18MOL0     C 2338  10.232   8.829   4.091  0.3172  0.1551 -0.3344
   18MOL0     C 2339  10.265   8.708   4.001 -0.0811  0.2267 -0.1552
   18MOL0    Cl 2340  10.425   8.648   3.989 -0.0258  0.1326 -0.2402
   18MOL0     C 2341   9.568   9.428   3.782  0.2006  0.3997 -0.0773
   18MOL0     C 2342   9.497   9.513   3.697 -0.8617 -0.6433  0.2363
   18MOL0     O 2343   9.219   9.635   3.638 -0.2551 -0.1147  0.1199
   18MOL0     C 2344   9.353   9.920   3.440  0.1420 -0.0309  0.0974
   18MOL0     C 2345   9.319  10.024   3.348  0.4196  0.1470  0.1347
   18MOL0     N 2346   9.109  10.686   3.182 -0.1724  0.3663  0.1116
   18MOL0     N 2347   9.127  10.761   3.295 -0.5501 -1.0519  0.5393
   18MOL0     C 2348  10.129  10.730   3.674  0.9867 -0.5555 -0.2174
   18MOL0     C 2349  10.235  10.709   3.759  0.9552  0.5887 -0.3940
   18MOL0     C 2350  10.546  10.586   4.046  0.2956 -0.1380 -0.7847
   18MOL0     C 2351  10.618  10.666   4.134 -0.2301  0.4026  0.1096
   18MOL0     C 2352  10.732  10.621   4.194  0.9900  0.4476  0.1326
   18MOL0     C 2353  10.778  10.491   4.176 -0.4344  0.1949  0.3374
   18MOL0     O 2354  10.894  10.433   4.221 -0.6096  0.2307 -0.2125
   18MOL0     C 2355  11.001  10.485   4.307  0.6100  0.1963  0.5789
   18MOL0     C 2356  11.094  10.372   4.347  1.1339  0.6390  0.5853
   18MOL0     C 2357  11.017  10.286   4.443 -0.5109  0.0592 -0.5253
   18MOL0     C 2358  11.092  10.145   4.444  0.0571  1.0935 -0.0901
   18MOL0     C 2359  11.026  10.055   4.540  0.4155  0.5270 -0.0439
   18MOL0     C 2360  10.978   9.983   4.623 -0.7273 -0.0340  0.9456
   18MOL0     C 2361  10.703  10.413   4.084  0.5139  0.4999 -0.6987
   18MOL0     C 2362  10.589  10.459   4.019  0.4713 -0.1086  0.4395
   18MOL0     H 2363  10.166  10.388   3.833  0.9145 -0.7986 -1.5620
   18MOL0     H 2364   9.977  10.428   3.705  0.5690 -1.5765  0.4750
   18MOL0     H 2365   9.820  10.476   3.574 -0.4838  0.1226 -1.7317
   18MOL0     H 2366   9.751  10.588   3.690 -2.6328  1.7518 -1.8976
   18MOL0     H 2367   9.674  10.720   3.477 -1.3478  0.0174 -0.6256
   18MOL0     H 2368   9.719  10.562   3.397  0.7881  1.2691 -0.1822
   18MOL0     H 2369   9.583  10.439   3.545  0.5273 -1.3444 -3.1969
   18MOL0     H 2370   9.517  10.597   3.620 -2.3799 -1.0376  0.6428
   18MOL0     H 2371   9.455  10.657   3.384  1.1642  0.4885  1.3441
   18MOL0     H 2372   9.475  10.497   3.326 -0.6420  2.7894 -1.7567
   18MOL0     H 2373   9.262  10.521   3.380 -1.5970  0.2107  1.3209
   18MOL0     H 2374   9.344  10.405   3.494  2.9638  0.6509  1.3650
   18MOL0     H 2375   9.146  10.519   3.594 -0.8165 -0.6950 -0.3211
   18MOL0     H 2376   9.310  10.537   3.678  0.5404  0.1719 -0.3765
   18MOL0     H 2377   9.208  10.737   3.702 -2.8102 -1.1850  1.3559
   18MOL0     H 2378   9.310  10.777   3.554 -1.0709 -0.0260  0.2172
   18MOL0     H 2379   9.104  10.881   3.531  1.0447 -0.4321 -0.0201
   18MOL0     H 2380   9.010  10.749   3.603 -0.4021 -1.5841  0.3961
   18MOL0     H 2381   8.919  10.552   3.431  0.1024  1.8969  1.1850
   18MOL0     H 2382   8.849  10.485   3.160  0.5279  1.5464  1.2539
   18MOL0     H 2383   8.951  10.517   3.037 -2.1648  1.9759  0.6182
   18MOL0     H 2384   8.954  10.276   3.141 -0.1123 -0.2740  1.5291
   18MOL0     H 2385   9.031  10.354   3.272 -1.6752 -3.0133  0.2405
   18MOL0     H 2386   9.213  10.421   3.096 -3.4898  1.8308 -0.1188
   18MOL0     H 2387   9.124  10.312   2.987  0.9956  4.1800 -1.9389
   18MOL0     H 2388   9.283  10.267   3.241  1.2729  1.5180 -0.7828
   18MOL0     H 2389   9.303  10.195   3.082 -1.3930  2.1309 -2.8126
   18MOL0     H 2390   8.986   9.989   3.361  0.0383  0.1410 -2.8732
   18MOL0     H 2391   8.985   9.800   3.638  0.6180  1.8469 -0.3453
   18MOL0     H 2392   8.907   9.803   3.482  1.4386  2.0878 -2.2786
   18MOL0     H 2393   9.026   9.679   3.527 -0.2502 -1.0258  1.7643
   18MOL0     H 2394   9.539   9.809   3.855  2.6450  1.0282 -3.3151
   18MOL0     H 2395   9.679   9.655   4.001  1.2353 -0.9812 -0.6363
   18MOL0     H 2396   9.564   9.285   4.033 -0.4503  1.2442  0.0187
   18MOL0     H 2397   9.687   9.191   3.945  1.4606  0.6028  0.5620
   18MOL0     H 2398   9.744   9.343   4.203  2.0778  1.0673 -1.2384
   18MOL0     H 2399   9.694   9.164   4.192 -0.5722 -1.0056 -2.2005
   18MOL0     H 2400   9.919   9.209   4.243 -1.8895 -1.0744  0.2470
   18MOL0     H 2401   9.935   9.262   4.057 -3.1494 -0.8756 -1.5004
   18MOL0     H 2402   9.854   8.988   4.103 -0.5618 -0.5011 -0.2945
   18MOL0     H 2403   9.931   9.071   3.971  1.4563 -1.0763 -0.7886
   18MOL0     H 2404  10.092   9.021   4.240  0.7658 -0.3041  0.4428
   18MOL0     H 2405  10.136   9.089   4.083 -1.7253  2.0021  0.3892
   18MOL0     H 2406  10.029   8.798   4.124  1.6754  0.6132  3.4660
   18MOL0     H 2407  10.048   8.869   3.971  0.9946 -1.1370 -0.4967
   18MOL0     H 2408  10.239   8.801   4.197 -3.0133  1.9815  0.5184
   18MOL0     H 2409  10.297   8.910   4.057  2.5295 -1.2641  0.3311
   18MOL0     H 2410  10.242   8.728   3.896 -0.4884 -1.6995 -0.4703
   18MOL0     H 2411  10.198   8.628   4.033  2.3607 -0.9773  2.3018
   18MOL0     H 2412   9.569   9.321   3.764  3.4436 -0.6346  4.3840
   18MOL0     H 2413   9.442   9.470   3.614  2.4114 -0.8481 -2.0293
   18MOL0     H 2414   9.460   9.911   3.457 -0.0006 -0.0973  1.0176
   18MOL0     H 2415   9.405  10.064   3.295 -1.6647  3.9729 -0.6901
   18MOL0     H 2416  10.129  10.829   3.628  1.1146 -0.4439  0.0174
   18MOL0     H 2417  10.321  10.776   3.756  1.3998  0.0229 -0.7875
   18MOL0     H 2418  10.587  10.769   4.146  0.9769  0.8401 -0.3898
   18MOL0     H 2419  10.802  10.675   4.257  1.8108  0.5684 -0.8565
   18MOL0     H 2420  11.065  10.559   4.258  1.3985 -3.0036 -3.7649
   18MOL0     H 2421  10.961  10.524   4.402 -0.1177  0.8551  0.0237
   18MOL0     H 2422  11.182  10.404   4.404 -0.4927  3.3533  1.7966
   18MOL0     H 2423  11.136  10.321   4.261 -0.2787  0.6334 -0.1347
   18MOL0     H 2424  10.915  10.262   4.413 -0.6726 -0.2567  0.2725
   18MOL0     H 2425  11.010  10.330   4.542 -2.4682 -2.5497  0.5971
   18MOL0     H 2426  11.200  10.139   4.455 -0.1837 -2.5604  1.8689
   18MOL0     H 2427  11.067  10.113   4.342 -0.6659  2.7273 -0.4632
   18MOL0     H 2428  10.927   9.939   4.706 -0.3180  3.9098  3.5841
   18MOL0     H 2429  10.739  10.313   4.064 -1.5058 -0.2510 -0.8511
   18MOL0     H 2430  10.538  10.385   3.958  0.3507  0.4481 -0.1476
   19MOL0     O 2431   1.984   8.666   0.497  0.2487  0.8387  0.1486
   19MOL0     C 2432   1.946   8.716   0.601  1.2454 -0.1705  0.8449
   19MOL0     O 2433   2.007   8.818   0.665 -0.3215  0.3792  0.1918
   19MOL0     C 2434   2.127   8.866   0.633 -0.6318  0.2063 -0.0669
   19MOL0     C 2435   2.238   8.799   0.574  0.3351  0.3771  0.6100
   19MOL0     C 2436   2.367   8.862   0.571  0.1699 -0.4651  0.2829
   19MOL0     C 2437   2.389   8.987   0.621  0.1901 -0.9810 -0.3403
   19MOL0     O 2438   2.521   9.030   0.619 -0.7412  1.2785  0.2192
   19MOL0     C 2439   2.547   9.129   0.721  0.8241 -0.5321  0.4990
   19MOL0     C 2440   2.689   9.128   0.746  0.7147  0.2600 -0.5212
   19MOL0     C 2441   2.741   9.227   0.853  0.2964 -0.2585  0.3383
   19MOL0     C 2442   2.804   9.164   0.981  0.3660 -0.3246 -0.2934
   19MOL0     C 2443   2.876   9.256   1.076 -0.2987  0.4543  0.2948
   19MOL0     C 2444   2.928   9.180   1.193  0.2880  0.5383 -0.2584
   19MOL0     C 2445   3.006   9.279   1.280 -0.0704 -0.4100  0.3439
   19MOL0     C 2446   3.031   9.211   1.410  0.2312  0.1625  0.1597
   19MOL0     N 2447   3.107   9.315   1.480  0.4698  0.3763 -0.2344
   19MOL0     C 2448   3.243   9.333   1.475  0.1779  0.3813  0.4069
   19MOL0     C 2449   3.264   9.444   1.537 -0.3280 -0.1047 -0.9480
   19MOL0     C 2450   3.391   9.521   1.561 -0.3325  0.1318  0.6849
   19MOL0     C 2451   3.477   9.460   1.667  0.7094  0.0600  0.8739
   19MOL0     C 2452   3.589   9.547   1.715 -0.0042 -0.4119 -0.6748
   19MOL0     C 2453   3.683   9.582   1.607 -0.7068  0.7782  0.3671
   19MOL0     O 2454   3.631   9.700   1.539 -0.3233 -0.4775 -0.3569
   19MOL0     C 2455   3.706   9.771   1.454  0.0872 -0.1111 -0.0460
   19MOL0     C 2456   3.640   9.877   1.385 -1.1631  0.5006 -0.5843
   19MOL0     C 2457   3.701   9.956   1.288  0.1028 -0.3228 -1.3457
   19MOL0     C 2458   3.613  10.074   1.241  0.5144  0.3197  0.5398
   19MOL0     C 2459   3.838   9.934   1.263  0.4558  0.1222  1.4434
   19MOL0     C 2460   3.911  10.009   1.154  0.0604  0.3491 -0.2461
   19MOL0     O 2461   4.053   9.997   1.147  0.2777 -0.1915 -0.1060
   19MOL0     C 2462   4.131  10.098   1.094 -0.1191 -0.4833 -0.5825
   19MOL0     C 2463   4.090  10.234   1.088 -0.7598  1.6078 -0.6146
   19MOL0     C 2464   4.176  10.330   1.036 -0.2921 -0.4723  0.6516
   19MOL0     C 2465   4.302  10.287   0.984  0.1620 -0.2548  0.9100
   19MOL0     O 2466   4.378  10.394   0.950 -0.3305  0.5090 -0.5108
   19MOL0     C 2467   4.504  10.366   0.897 -1.2204 -0.2009  0.3893
   19MOL0     C 2468   4.582  10.486   0.847  0.2303  0.2896 -0.2571
   19MOL0     C 2469   4.724  10.451   0.815 -0.0570  0.8690  0.2366
   19MOL0     C 2470   4.794  10.575   0.767  0.3361  0.2032 -0.0142
   19MOL0     C 2471   4.929  10.577   0.699  0.0958  0.5978  0.8221
   19MOL0     C 2472   5.035  10.515   0.784 -0.2486  0.1367  0.2436
   19MOL0     C 2473   5.183  10.544   0.751  0.3279 -0.3663 -0.9626
   19MOL0     C 2474   5.233  10.673   0.814 -0.3870 -0.5360  0.0619
   19MOL0    Cl 2475   5.263  10.638   0.980  0.4282  0.0383  0.2085
   19MOL0     C 2476   4.337  10.153   0.990 -0.8146 -0.0122  0.7234
   19MOL0     C 2477   4.255  10.059   1.039  0.1565 -0.5774 -0.7138
   19MOL0     O 2478   3.850  10.085   1.077  0.3358 -0.4533 -0.1374
   19MOL0     C 2479   3.912   9.835   1.334  0.2657 -0.3829  0.4465
   19MOL0     C 2480   3.841   9.757   1.421  0.1783 -1.0845  0.4162
   19MOL0     N 2481   3.149   9.498   1.589  0.4338  0.8676  0.3031
   19MOL0     N 2482   3.054   9.419   1.548 -0.1616  0.9639  0.6534
   19MOL0     C 2483   2.282   9.060   0.674 -0.5671  0.0110 -0.3921
   19MOL0     C 2484   2.158   8.998   0.674 -0.4155  0.0695  0.5137
   19MOL0     C 2485   1.836   8.658   0.677  0.1362 -0.3753  0.5711
   19MOL0     C 2486   1.773   8.548   0.622  0.2837 -0.4185 -0.1583
   19MOL0     C 2487   1.701   8.464   0.711  0.3383  0.0661 -0.4016
   19MOL0     C 2488   1.687   8.489   0.850 -1.2717 -1.0329 -0.0882
   19MOL0     O 2489   1.615   8.419   0.944  0.5058 -0.1336  0.4880
   19MOL0     C 2490   1.566   8.290   0.909  0.4112 -0.6911  0.2265
   19MOL0     C 2491   1.544   8.232   1.050 -0.7378 -0.1997  0.2271
   19MOL0     C 2492   1.534   8.071   1.057  0.5631 -0.4568  0.0358
   19MOL0     C 2493   1.427   8.024   0.959 -0.3606  0.4667 -0.5652
   19MOL0     C 2494   1.291   8.067   0.994  0.4837 -0.4863 -0.1772
   19MOL0     C 2495   1.174   8.075   1.023  0.4398 -0.9654 -0.5081
   19MOL0     C 2496   1.747   8.609   0.892 -0.4066  0.0190  0.8455
   19MOL0     C 2497   1.815   8.698   0.815  0.3749 -0.1402 -0.6002
   19MOL0     H 2498   2.225   8.697   0.538 -1.4931  0.2794  1.4390
   19MOL0     H 2499   2.456   8.812   0.534  0.5039 -0.3926  0.9811
   19MOL0     H 2500   2.515   9.227   0.686 -1.7170 -0.2881  3.1470
   19MOL0     H 2501   2.492   9.109   0.813 -2.0736  2.4610 -0.4076
   19MOL0     H 2502   2.727   9.027   0.762 -1.7345 -0.4424  1.6424
   19MOL0     H 2503   2.732   9.171   0.655 -0.5048  1.8122 -0.4187
   19MOL0     H 2504   2.823   9.285   0.810  0.1289  0.2398  0.6746
   19MOL0     H 2505   2.670   9.308   0.870 -0.7472 -0.7434 -1.4400
   19MOL0     H 2506   2.725   9.114   1.038  0.2316 -0.6206 -0.7306
   19MOL0     H 2507   2.873   9.092   0.936  0.6738 -0.7820  0.8885
   19MOL0     H 2508   2.953   9.316   1.026  0.1008  0.9477  1.4661
   19MOL0     H 2509   2.796   9.320   1.113  0.2412  0.8513  0.8020
   19MOL0     H 2510   2.847   9.141   1.254  1.3880  0.7399  1.3829
   19MOL0     H 2511   2.980   9.093   1.152 -0.5765  0.7242 -1.8634
   19MOL0     H 2512   3.096   9.312   1.226 -0.3084  2.8200  1.7320
   19MOL0     H 2513   2.951   9.373   1.291 -1.2159 -0.7228 -2.0567
   19MOL0     H 2514   3.098   9.127   1.391  1.7240  0.7085  2.6276
   19MOL0     H 2515   2.938   9.182   1.460 -0.8198  2.1752 -0.5127
   19MOL0     H 2516   3.318   9.268   1.431  1.1638  2.6061 -1.4335
   19MOL0     H 2517   3.448   9.524   1.468 -0.8237  1.4302  0.4077
   19MOL0     H 2518   3.381   9.627   1.586  2.4959  0.8774 -0.8816
   19MOL0     H 2519   3.516   9.363   1.634 -3.3469 -1.3868 -0.2677
   19MOL0     H 2520   3.407   9.442   1.749 -0.7681  0.0160 -0.3630
   19MOL0     H 2521   3.643   9.507   1.802 -0.8955  1.7829  0.9822
   19MOL0     H 2522   3.545   9.639   1.754 -2.1588 -0.4602 -2.7917
   19MOL0     H 2523   3.685   9.500   1.534 -0.1189 -2.0681  3.3355
   19MOL0     H 2524   3.786   9.601   1.639 -0.3849  1.6216 -1.0831
   19MOL0     H 2525   3.535   9.896   1.407 -0.8086  3.5226 -1.0597
   19MOL0     H 2526   3.545  10.030   1.167  0.6314  2.4024 -0.8807
   19MOL0     H 2527   3.540  10.099   1.318 -0.4503 -0.3205 -0.1327
   19MOL0     H 2528   3.676  10.153   1.199  2.8602 -3.0744 -3.1475
   19MOL0     H 2529   3.989  10.257   1.121 -0.7636  0.8225 -0.0384
   19MOL0     H 2530   4.150  10.435   1.040  3.1058  0.5347 -0.7607
   19MOL0     H 2531   4.548  10.316   0.984 -1.9516  2.7927  2.6602
   19MOL0     H 2532   4.489  10.294   0.816 -0.7668 -0.7260  0.7623
   19MOL0     H 2533   4.536  10.537   0.762  4.2625  1.9299 -1.7341
   19MOL0     H 2534   4.571  10.556   0.930  2.2037  1.5789 -0.9910
   19MOL0     H 2535   4.713  10.381   0.732 -1.2814  0.5701  0.6186
   19MOL0     H 2536   4.784  10.404   0.894 -0.7272  1.4668  1.1311
   19MOL0     H 2537   4.736  10.630   0.692  0.8885 -0.0851 -0.6615
   19MOL0     H 2538   4.797  10.637   0.857 -0.0387  1.7689 -1.0314
   19MOL0     H 2539   4.965  10.680   0.685  2.2081 -0.2115 -0.2230
   19MOL0     H 2540   4.928  10.529   0.601 -1.8302 -0.3874  1.2891
   19MOL0     H 2541   5.015  10.545   0.887 -0.0100 -1.7685  0.8839
   19MOL0     H 2542   5.016  10.407   0.788 -1.0111  0.2135 -0.9187
   19MOL0     H 2543   5.205  10.531   0.644 -0.7517 -2.6760 -0.9525
   19MOL0     H 2544   5.231  10.457   0.796 -2.6344 -0.6107  2.0512
   19MOL0     H 2545   5.156  10.751   0.810  0.2326  0.0368 -1.3519
   19MOL0     H 2546   5.319  10.708   0.756 -0.8469  0.6439  0.0586
   19MOL0     H 2547   4.433  10.119   0.952  0.2117  1.1470  2.1507
   19MOL0     H 2548   4.294   9.957   1.031  1.9374  0.1638 -2.1026
   19MOL0     H 2549   4.013   9.806   1.310  0.0346 -3.8205  2.8656
   19MOL0     H 2550   3.907   9.686   1.469  4.7534  2.6150  0.3562
   19MOL0     H 2551   2.281   9.160   0.718 -0.8211 -0.8951  1.8031
   19MOL0     H 2552   2.074   9.058   0.707  0.3031  0.7827  1.0825
   19MOL0     H 2553   1.785   8.523   0.517  2.3805 -0.2411  0.0025
   19MOL0     H 2554   1.667   8.364   0.685  2.7776 -0.8806 -0.2176
   19MOL0     H 2555   1.471   8.297   0.855  0.4208  1.6684  0.4352
   19MOL0     H 2556   1.643   8.227   0.863  1.4030 -1.3194  2.5977
   19MOL0     H 2557   1.455   8.282   1.089  0.6814  0.5886  2.6201
   19MOL0     H 2558   1.622   8.265   1.119 -0.2186 -1.1401  0.1168
   19MOL0     H 2559   1.510   8.041   1.159  1.5274 -0.8167  0.1745
   19MOL0     H 2560   1.626   8.013   1.041  0.9064  0.4975 -1.7390
   19MOL0     H 2561   1.430   7.916   0.948 -0.5489  0.3802  0.1398
   19MOL0     H 2562   1.441   8.063   0.858  0.6880  0.6684 -0.3459
   19MOL0     H 2563   1.070   8.089   1.042  0.9813 -0.1751  2.4909
   19MOL0     H 2564   1.738   8.629   0.998 -2.9342 -0.5254  0.7973
   19MOL0     H 2565   1.867   8.784   0.855 -1.7386  0.2553  1.4856
   20MOL0     O 2566   2.078   3.810   8.965 -1.1133 -0.5612  0.3306
   20MOL0     C 2567   1.990   3.724   8.990  0.4530 -0.1524 -0.5165
   20MOL0     O 2568   1.951   3.622   8.906 -0.0156  0.2560  0.5564
   20MOL0     C 2569   1.992   3.627   8.775  0.7277  0.4381 -0.2218
   20MOL0     C 2570   1.892   3.618   8.682  0.0285 -0.5652 -0.4664
   20MOL0     C 2571   1.921   3.634   8.541 -0.4472  0.6808 -0.6679
   20MOL0     C 2572   2.058   3.646   8.498 -0.3604  0.4855 -0.0536
   20MOL0     O 2573   2.080   3.647   8.362  0.7317 -0.5080 -0.2581
   20MOL0     C 2574   2.196   3.710   8.316 -0.2841  0.3185  0.2307
   20MOL0     C 2575   2.196   3.703   8.166  0.1154 -0.2612  0.6680
   20MOL0     C 2576   2.318   3.783   8.114 -0.4958 -0.0799 -0.3463
   20MOL0     C 2577   2.320   3.807   7.965 -0.0482  0.2406 -1.0731
   20MOL0     C 2578   2.470   3.820   7.913 -0.3942 -0.6133  0.4844
   20MOL0     C 2579   2.468   3.823   7.760 -1.4109 -0.5041 -0.5891
   20MOL0     C 2580   2.609   3.872   7.707  0.6107 -0.4212 -0.3881
   20MOL0     C 2581   2.648   4.016   7.751 -0.5696 -0.3135  0.2388
   20MOL0     N 2582   2.535   4.116   7.753  0.4009  0.8617 -0.3908
   20MOL0     C 2583   2.461   4.169   7.652  0.2019  0.0152  0.9643
   20MOL0     C 2584   2.364   4.259   7.703  0.3691  0.5412  0.0423
   20MOL0     C 2585   2.234   4.310   7.638 -0.4387 -0.3557 -0.2282
   20MOL0     C 2586   2.241   4.458   7.582  0.6575 -0.2950  0.0702
   20MOL0     C 2587   2.316   4.547   7.679  0.0533  0.8320 -0.6556
   20MOL0     C 2588   2.251   4.566   7.817  0.6097  0.1730  0.0337
   20MOL0     O 2589   2.124   4.628   7.795 -0.0181 -0.4386 -0.0916
   20MOL0     C 2590   2.122   4.767   7.769  1.2151 -0.0842 -0.5002
   20MOL0     C 2591   2.214   4.866   7.801  0.0846  1.1278 -0.6283
   20MOL0     C 2592   2.198   4.997   7.768  0.7645  0.4607  0.1996
   20MOL0     C 2593   2.314   5.089   7.808  0.3369  0.3504 -0.3649
   20MOL0     C 2594   2.076   5.046   7.699  0.0261  0.8806 -0.3228
   20MOL0     C 2595   2.031   5.192   7.687  0.4758 -0.4373  0.3853
   20MOL0     O 2596   1.899   5.211   7.644  0.4860  0.2732  0.4182
   20MOL0     C 2597   1.869   5.326   7.586 -0.5072 -0.4354 -0.2080
   20MOL0     C 2598   1.949   5.399   7.500 -1.1014  0.2969  0.7710
   20MOL0     C 2599   1.912   5.531   7.458  0.8847  0.7222  0.6172
   20MOL0     C 2600   1.786   5.584   7.501 -0.4423 -0.3524 -0.1302
   20MOL0     O 2601   1.767   5.722   7.485 -0.0053 -0.8458  0.1242
   20MOL0     C 2602   1.853   5.817   7.554  0.0117 -0.0818 -0.6491
   20MOL0     C 2603   1.888   5.949   7.474  0.1949 -0.3327  0.7241
   20MOL0     C 2604   1.993   6.037   7.545  0.4354  1.0647 -0.1732
   20MOL0     C 2605   2.003   6.186   7.490  0.0707  0.0019  0.4773
   20MOL0     C 2606   2.129   6.251   7.547 -0.2353 -0.3991 -0.4193
   20MOL0     C 2607   2.164   6.370   7.466 -0.5882 -0.0060  0.1440
   20MOL0     C 2608   2.073   6.483   7.497  0.1341  0.0391 -0.1025
   20MOL0     C 2609   2.124   6.605   7.432 -1.4025 -1.0523  0.7105
   20MOL0    Cl 2610   2.030   6.747   7.457 -0.1923  0.1531 -0.1482
   20MOL0     C 2611   1.701   5.507   7.586  0.1749  0.1412  0.3687
   20MOL0     C 2612   1.749   5.380   7.628  0.3433 -0.2409  0.0347
   20MOL0     O 2613   2.112   5.281   7.706 -0.5721  0.1509 -0.6299
   20MOL0     C 2614   1.985   4.946   7.668 -0.3094 -0.5860 -0.3563
   20MOL0     C 2615   2.005   4.818   7.707  0.4698 -0.4968 -0.7928
   20MOL0     N 2616   2.379   4.249   7.840  0.2106 -0.4235 -0.0393
   20MOL0     N 2617   2.478   4.168   7.867  0.7817  0.4821 -0.3953
   20MOL0     C 2618   2.156   3.647   8.594 -1.1827 -0.2960  0.7909
   20MOL0     C 2619   2.127   3.646   8.730 -0.1359 -1.0617  1.5660
   20MOL0     C 2620   1.915   3.730   9.119 -0.1716  0.4130 -0.0980
   20MOL0     C 2621   1.818   3.635   9.152 -0.0486 -0.8198 -0.1440
   20MOL0     C 2622   1.750   3.625   9.272 -0.6019 -0.1687  0.6102
   20MOL0     C 2623   1.788   3.707   9.373 -1.3794 -0.8652 -0.0077
   20MOL0     O 2624   1.713   3.682   9.487 -0.7871 -0.6625 -0.0089
   20MOL0     C 2625   1.708   3.779   9.600 -0.2949  0.3377  0.8175
   20MOL0     C 2626   1.829   3.762   9.686 -0.1348  0.4875 -0.1376
   20MOL0     C 2627   1.841   3.873   9.796 -0.2584  0.0121 -0.3030
   20MOL0     C 2628   1.903   3.813   9.926  0.8697  0.5596 -0.3795
   20MOL0     C 2629   1.955   3.931   9.994  0.1772  0.1883 -0.3530
   20MOL0     C 2630   2.003   4.030  10.038  0.2457  0.6594 -0.2250
   20MOL0     C 2631   1.894   3.793   9.349  0.4062  0.0527 -1.0531
   20MOL0     C 2632   1.955   3.805   9.221 -0.0204  0.1917 -0.0848
   20MOL0     H 2633   1.790   3.591   8.708  0.7558 -1.2385  1.9577
   20MOL0     H 2634   1.844   3.628   8.465 -0.9981 -1.9095 -0.0128
   20MOL0     H 2635   2.213   3.809   8.361 -2.0979  1.2647 -1.0487
   20MOL0     H 2636   2.287   3.662   8.353 -0.1874 -1.1051 -1.7131
   20MOL0     H 2637   2.200   3.598   8.135  2.6821 -0.7837  2.4482
   20MOL0     H 2638   2.103   3.751   8.136 -0.6152 -1.4152  1.0600
   20MOL0     H 2639   2.318   3.880   8.164  0.6056  1.0402 -2.3739
   20MOL0     H 2640   2.409   3.723   8.130 -0.9835 -1.0924 -1.2190
   20MOL0     H 2641   2.276   3.716   7.923  1.7475 -1.3263  0.2718
   20MOL0     H 2642   2.266   3.900   7.945 -1.2341 -0.4490 -1.1211
   20MOL0     H 2643   2.513   3.906   7.965  1.0556  0.0524 -1.6474
   20MOL0     H 2644   2.535   3.734   7.935  1.7943  0.7662 -0.2782
   20MOL0     H 2645   2.459   3.720   7.723  0.9041 -0.3190 -1.8556
   20MOL0     H 2646   2.385   3.885   7.724 -0.9688  0.2109 -0.4044
   20MOL0     H 2647   2.693   3.810   7.740 -0.2210 -2.3214 -1.6669
   20MOL0     H 2648   2.610   3.882   7.598 -2.8344 -3.2401 -0.8751
   20MOL0     H 2649   2.742   4.051   7.707  1.0307 -1.4173  2.6336
   20MOL0     H 2650   2.669   4.008   7.857  1.4209 -1.5888 -0.2088
   20MOL0     H 2651   2.477   4.148   7.547  2.7235  3.0588  0.5900
   20MOL0     H 2652   2.232   4.236   7.558  2.8326 -0.8400 -0.0254
   20MOL0     H 2653   2.151   4.292   7.706 -0.8451 -4.2214 -1.5180
   20MOL0     H 2654   2.149   4.512   7.557  1.8410  1.4420 -0.6884
   20MOL0     H 2655   2.303   4.459   7.492  2.0827 -1.0464  1.0114
   20MOL0     H 2656   2.336   4.640   7.625  1.3569 -0.5440 -2.6681
   20MOL0     H 2657   2.415   4.507   7.702 -0.5308  0.4150  1.3235
   20MOL0     H 2658   2.309   4.624   7.889  0.0644  3.5130 -1.9596
   20MOL0     H 2659   2.230   4.471   7.867 -1.4270  0.8936  0.6670
   20MOL0     H 2660   2.307   4.843   7.852 -0.4850  0.0084 -0.0478
   20MOL0     H 2661   2.315   5.187   7.760  0.4234  0.2928 -0.4826
   20MOL0     H 2662   2.296   5.100   7.915 -0.2226 -1.1769 -0.2698
   20MOL0     H 2663   2.416   5.049   7.797 -0.0671 -0.7963 -0.0702
   20MOL0     H 2664   2.048   5.367   7.467 -1.7853 -1.9162  0.7095
   20MOL0     H 2665   1.984   5.588   7.399  0.1977  3.0877  1.9176
   20MOL0     H 2666   1.811   5.852   7.648 -1.5169 -0.3693 -1.1854
   20MOL0     H 2667   1.941   5.756   7.576 -0.7943 -0.6190  1.2669
   20MOL0     H 2668   1.910   5.922   7.370  1.5539 -1.2095  1.2076
   20MOL0     H 2669   1.792   6.001   7.470  0.6317  0.5314  1.0432
   20MOL0     H 2670   2.090   5.987   7.537 -1.7946 -4.0139  0.3411
   20MOL0     H 2671   1.977   6.035   7.653  3.8448 -0.9228  0.4559
   20MOL0     H 2672   2.010   6.181   7.381  0.0760  0.7329  0.4436
   20MOL0     H 2673   1.915   6.239   7.527  0.3520 -0.9933  2.7696
   20MOL0     H 2674   2.214   6.182   7.536 -1.1920 -1.3814 -1.8939
   20MOL0     H 2675   2.112   6.268   7.654 -1.2106 -1.0367 -0.4695
   20MOL0     H 2676   2.266   6.391   7.500 -0.1486  2.0622 -2.0696
   20MOL0     H 2677   2.155   6.341   7.361 -3.1195 -1.6161  0.7306
   20MOL0     H 2678   2.070   6.498   7.605 -3.4900 -1.1487  0.0766
   20MOL0     H 2679   1.972   6.471   7.459  0.3578  0.3796 -0.8372
   20MOL0     H 2680   2.139   6.583   7.326 -0.1778  0.7464  0.4632
   20MOL0     H 2681   2.218   6.628   7.483 -2.0836  1.3088  0.9830
   20MOL0     H 2682   1.603   5.542   7.616  0.4402  0.7062  0.6002
   20MOL0     H 2683   1.683   5.328   7.697  2.6193  0.7478  3.1828
   20MOL0     H 2684   1.893   4.971   7.615 -2.0072 -0.1360  2.5724
   20MOL0     H 2685   1.935   4.741   7.677  1.3540 -1.3881 -0.6140
   20MOL0     H 2686   2.262   3.660   8.578 -1.2964  0.3093  0.5204
   20MOL0     H 2687   2.198   3.666   8.810  0.6025  0.9000  0.4845
   20MOL0     H 2688   1.772   3.567   9.082 -0.4836 -0.7298  0.0531
   20MOL0     H 2689   1.664   3.559   9.281 -3.5181  3.4946  2.0635
   20MOL0     H 2690   1.701   3.882   9.564 -2.5622 -0.0781 -0.0880
   20MOL0     H 2691   1.614   3.760   9.652 -0.3468  1.6991  1.2776
   20MOL0     H 2692   1.920   3.767   9.625 -0.0249 -1.3852 -0.1898
   20MOL0     H 2693   1.823   3.668   9.741 -0.3303  1.3941  1.4414
   20MOL0     H 2694   1.739   3.905   9.819 -0.2757  0.8601 -1.4496
   20MOL0     H 2695   1.904   3.956   9.764  0.8695  1.2413  4.3389
   20MOL0     H 2696   1.991   3.755   9.895  0.5442 -0.1582  0.0369
   20MOL0     H 2697   1.829   3.756   9.982  3.1105  0.0066  2.2462
   20MOL0     H 2698   2.059   4.117  10.063 -0.1750  1.3024 -1.4006
   20MOL0     H 2699   1.933   3.864   9.422  1.9392 -2.3379  0.5942
   20MOL0     H 2700   2.045   3.864   9.206  1.5459 -1.9459  0.4217
   21MOL0     O 2701   3.364   8.976   2.983 -0.6462 -0.0513 -0.0001
   21MOL0     C 2702   3.297   8.916   3.072 -0.0751  0.2951 -0.0737
   21MOL0     O 2703   3.314   8.918   3.199  1.0182  0.2692 -0.3663
   21MOL0     C 2704   3.430   8.970   3.247 -0.0952  1.0422 -0.8615
   21MOL0     C 2705   3.421   9.110   3.274  0.2042  0.8081 -0.9438
   21MOL0     C 2706   3.525   9.174   3.328 -0.0694 -0.5850 -0.2685
   21MOL0     C 2707   3.641   9.108   3.360  0.1522  0.6663 -0.7941
   21MOL0     O 2708   3.749   9.180   3.406 -0.7865  0.2477 -0.4219
   21MOL0     C 2709   3.886   9.138   3.386 -0.0141  0.2025  0.7099
   21MOL0     C 2710   3.987   9.233   3.454 -0.4501  0.0386  0.0262
   21MOL0     C 2711   3.976   9.364   3.393 -0.5101  0.3014  0.7138
   21MOL0     C 2712   4.020   9.480   3.488  1.1968  0.7309 -0.3642
   21MOL0     C 2713   3.998   9.618   3.440  0.9667 -0.3079 -0.6061
   21MOL0     C 2714   4.049   9.705   3.551 -0.2760 -0.9168  0.7117
   21MOL0     C 2715   4.036   9.866   3.524 -0.0320 -0.3701 -0.3902
   21MOL0     C 2716   4.126   9.938   3.423  0.9115  0.1212  0.2622
   21MOL0     N 2717   4.261   9.945   3.478 -0.9442  0.1885 -0.0527
   21MOL0     C 2718   4.364   9.849   3.511  0.7807 -0.4596 -0.9574
   21MOL0     C 2719   4.453   9.917   3.585 -0.2426  0.4794 -0.4038
   21MOL0     C 2720   4.582   9.851   3.636 -0.9695 -0.3723 -0.1345
   21MOL0     C 2721   4.562   9.812   3.788  0.6497 -0.3740 -0.6284
   21MOL0     C 2722   4.457   9.699   3.782  1.5324  0.2239 -0.8084
   21MOL0     C 2723   4.416   9.644   3.927  0.7925  0.4966  0.4114
   21MOL0     O 2724   4.356   9.741   4.017  0.1850  0.1727 -0.2581
   21MOL0     C 2725   4.229   9.779   3.992 -0.6183  0.2273 -0.9854
   21MOL0     C 2726   4.121   9.696   4.029 -0.5585  0.8123 -0.0089
   21MOL0     C 2727   3.989   9.737   3.991 -0.1647  0.6876 -0.1272
   21MOL0     C 2728   3.884   9.652   4.056 -0.2116 -0.0118 -0.3874
   21MOL0     C 2729   3.969   9.853   3.914 -0.2123  0.6044  0.2935
   21MOL0     C 2730   3.835   9.892   3.868  0.3236 -0.3953  0.0730
   21MOL0     O 2731   3.755   9.792   3.830 -0.5599  0.0132 -0.2891
   21MOL0     C 2732   3.633   9.816   3.780  0.0543  0.1440 -0.4893
   21MOL0     C 2733   3.617   9.885   3.659 -0.7144 -0.0045 -0.3672
   21MOL0     C 2734   3.495   9.910   3.605 -0.3810 -0.2981 -0.0589
   21MOL0     C 2735   3.382   9.857   3.666 -0.1886  0.6492  0.5787
   21MOL0     O 2736   3.262   9.856   3.606  0.1157  0.2227 -0.4189
   21MOL0     C 2737   3.248   9.831   3.461  0.0600 -0.2374 -0.5965
   21MOL0     C 2738   3.120   9.749   3.428  0.1173 -0.5452  0.0599
   21MOL0     C 2739   3.135   9.608   3.492 -0.0934  0.3619 -0.7944
   21MOL0     C 2740   3.024   9.513   3.474  0.1914 -0.9638  0.3582
   21MOL0     C 2741   3.040   9.383   3.567  0.3320 -0.1301  0.0234
   21MOL0     C 2742   2.953   9.272   3.521  0.0639  0.5798  0.0463
   21MOL0     C 2743   2.978   9.231   3.376  0.4372  0.5454 -0.9332
   21MOL0     C 2744   2.944   9.084   3.358  0.0360  0.5794 -0.1872
   21MOL0    Cl 2745   3.069   8.984   3.414  0.0936 -0.1304  0.0999
   21MOL0     C 2746   3.396   9.773   3.775  0.6335 -0.0356  0.0570
   21MOL0     C 2747   3.518   9.756   3.837  0.0530 -0.0030  0.4068
   21MOL0     O 2748   3.814  10.008   3.847 -0.0756 -0.2589  1.2087
   21MOL0     C 2749   4.079   9.941   3.882 -0.0109  0.7235  0.3921
   21MOL0     C 2750   4.206   9.894   3.917 -0.4705 -0.7250  0.0481
   21MOL0     N 2751   4.425  10.053   3.567  0.3285 -0.0508  0.6720
   21MOL0     N 2752   4.311  10.061   3.504 -0.0807 -0.2279  0.3090
   21MOL0     C 2753   3.648   8.968   3.344 -0.6194 -0.4343 -0.0026
   21MOL0     C 2754   3.551   8.900   3.272  0.8089 -0.2952  0.5428
   21MOL0     C 2755   3.185   8.828   3.027 -0.8061  0.2769  0.4267
   21MOL0     C 2756   3.094   8.771   3.114  0.1419 -0.6059 -1.2880
   21MOL0     C 2757   2.978   8.700   3.070 -0.4920 -0.8757  0.2759
   21MOL0     C 2758   2.947   8.700   2.937  0.4022 -0.3560 -0.5348
   21MOL0     O 2759   2.828   8.649   2.901 -0.3426  0.1455 -0.0474
   21MOL0     C 2760   2.715   8.680   2.985 -0.3834  0.9750 -0.1426
   21MOL0     C 2761   2.584   8.708   2.904 -0.1442 -0.0279 -0.8521
   21MOL0     C 2762   2.531   8.835   2.942  0.0636  0.4988  0.3291
   21MOL0     C 2763   2.409   8.890   2.864 -0.7139  0.1226  0.5641
   21MOL0     C 2764   2.282   8.812   2.882  0.6456  0.2840 -0.2568
   21MOL0     C 2765   2.179   8.744   2.877 -0.5865 -0.0980 -0.1027
   21MOL0     C 2766   3.045   8.746   2.848 -0.3103  0.1993 -0.4343
   21MOL0     C 2767   3.158   8.807   2.892 -0.6407  1.2333  0.9735
   21MOL0     H 2768   3.326   9.157   3.252 -2.0582 -3.4672 -1.5050
   21MOL0     H 2769   3.520   9.283   3.331  0.1277 -0.4752 -2.4483
   21MOL0     H 2770   3.907   9.035   3.417  1.4284 -0.2626 -1.5298
   21MOL0     H 2771   3.892   9.140   3.276  1.0367  1.1208  0.7764
   21MOL0     H 2772   3.973   9.242   3.562  1.7169  1.1780  0.2459
   21MOL0     H 2773   4.085   9.189   3.433  0.6793  1.2328  2.4530
   21MOL0     H 2774   4.043   9.370   3.307 -0.1784  0.9742  1.0140
   21MOL0     H 2775   3.870   9.375   3.367 -0.9941 -0.4546  2.2809
   21MOL0     H 2776   3.956   9.466   3.576  0.1703 -0.1915 -1.2220
   21MOL0     H 2777   4.121   9.472   3.528  1.4306  0.4707 -0.9907
   21MOL0     H 2778   4.046   9.641   3.344  1.3858 -1.6065 -0.7296
   21MOL0     H 2779   3.898   9.656   3.419  1.0030 -1.5585 -3.6833
   21MOL0     H 2780   4.017   9.689   3.655 -0.1484  3.0503  1.5098
   21MOL0     H 2781   4.156   9.688   3.541 -0.1528  0.7172 -1.0539
   21MOL0     H 2782   3.929   9.883   3.506  0.1349  2.4762  0.8212
   21MOL0     H 2783   4.071   9.915   3.614  0.6739 -1.8624  0.1861
   21MOL0     H 2784   4.094  10.040   3.400  1.3975 -0.5158 -4.2245
   21MOL0     H 2785   4.124   9.880   3.330 -2.9088 -1.5886  1.2485
   21MOL0     H 2786   4.359   9.740   3.503  1.3041 -0.5473 -0.2840
   21MOL0     H 2787   4.602   9.756   3.586  0.4090 -1.4110  2.2413
   21MOL0     H 2788   4.675   9.908   3.633 -1.1471 -0.0742 -0.1270
   21MOL0     H 2789   4.523   9.893   3.851  1.4693 -1.1774  0.9664
   21MOL0     H 2790   4.655   9.780   3.836  0.4804 -1.6116 -1.0876
   21MOL0     H 2791   4.500   9.611   3.734  2.2020 -0.5577  1.1566
   21MOL0     H 2792   4.364   9.733   3.735  1.2597  3.4364  1.7338
   21MOL0     H 2793   4.501   9.589   3.969  1.0024  0.8464  0.4511
   21MOL0     H 2794   4.338   9.568   3.915  0.7808  0.7086 -1.0377
   21MOL0     H 2795   4.152   9.608   4.085 -0.7290 -0.5474 -1.9479
   21MOL0     H 2796   3.841   9.709   4.138 -0.6391  0.2946 -0.8193
   21MOL0     H 2797   3.804   9.626   3.986 -1.1494 -1.2376  1.0682
   21MOL0     H 2798   3.932   9.564   4.100  0.1259  0.6480  0.5922
   21MOL0     H 2799   3.701   9.938   3.614  0.3736  0.3960  1.9605
   21MOL0     H 2800   3.483   9.966   3.513 -1.1292 -2.6686 -1.4979
   21MOL0     H 2801   3.225   9.929   3.416 -0.4595 -0.0058  0.1515
   21MOL0     H 2802   3.329   9.778   3.411  2.3210  0.5918  1.9455
   21MOL0     H 2803   3.034   9.798   3.476 -0.0952 -1.5312  0.7191
   21MOL0     H 2804   3.102   9.743   3.320  0.0907 -3.7196  0.1625
   21MOL0     H 2805   3.155   9.617   3.599 -0.1703 -1.8528 -0.5475
   21MOL0     H 2806   3.226   9.554   3.461  0.9623 -0.5743  3.3081
   21MOL0     H 2807   2.924   9.555   3.486  0.8475  1.3729 -1.7112
   21MOL0     H 2808   3.024   9.493   3.366 -2.3022  2.9708 -0.5726
   21MOL0     H 2809   3.016   9.408   3.671  0.0665 -2.6198  0.6262
   21MOL0     H 2810   3.144   9.348   3.560  0.0058 -2.6506  4.2791
   21MOL0     H 2811   2.964   9.190   3.593 -3.4572  1.9638  2.4191
   21MOL0     H 2812   2.852   9.309   3.539  0.0382  1.1153 -1.1554
   21MOL0     H 2813   3.083   9.246   3.350  0.2685  1.4558 -1.1230
   21MOL0     H 2814   2.913   9.287   3.308  0.6261 -0.0122 -1.5856
   21MOL0     H 2815   2.932   9.071   3.250  1.6244 -0.1253 -0.3091
   21MOL0     H 2816   2.854   9.052   3.411  1.0074 -3.8123 -0.7422
   21MOL0     H 2817   3.304   9.725   3.806 -0.3045  0.7635 -1.3794
   21MOL0     H 2818   3.522   9.688   3.921  0.3468 -0.9831 -0.3930
   21MOL0     H 2819   4.078  10.038   3.833 -0.0869  0.9916  0.9074
   21MOL0     H 2820   4.279   9.965   3.880 -1.5561  0.2801 -0.2178
   21MOL0     H 2821   3.741   8.915   3.366  0.3069  0.4738 -1.5883
   21MOL0     H 2822   3.565   8.796   3.248  0.6194 -0.3251  0.5677
   21MOL0     H 2823   3.108   8.777   3.221  0.5900  1.7201 -1.4420
   21MOL0     H 2824   2.917   8.646   3.142  1.4084  0.0675  2.7724
   21MOL0     H 2825   2.703   8.597   3.054  1.3455  0.6645 -0.1558
   21MOL0     H 2826   2.735   8.774   3.037 -2.4865  2.2341 -1.4680
   21MOL0     H 2827   2.515   8.623   2.912 -0.2425  0.0545 -0.8409
   21MOL0     H 2828   2.598   8.719   2.796  1.6468  0.4252 -0.6098
   21MOL0     H 2829   2.614   8.906   2.930 -1.1462  2.2233  1.5929
   21MOL0     H 2830   2.508   8.830   3.049  0.8353 -2.7951  0.4243
   21MOL0     H 2831   2.430   8.899   2.758 -3.4840 -0.4783 -0.1266
   21MOL0     H 2832   2.378   8.989   2.899 -0.8857 -0.1440  1.1889
   21MOL0     H 2833   2.090   8.686   2.866 -2.5406  2.2403  2.0599
   21MOL0     H 2834   3.033   8.728   2.741 -1.0180  0.5289 -0.4192
   21MOL0     H 2835   3.232   8.830   2.817 -2.4306  3.3181 -0.2702
   22MOL0     O 2836   5.660   3.948   4.553 -0.2969 -1.2704 -0.1274
   22MOL0     C 2837   5.741   3.978   4.646 -0.1953  0.1793 -0.4762
   22MOL0     O 2838   5.702   4.022   4.770 -0.4680 -0.5999 -0.3052
   22MOL0     C 2839   5.574   4.021   4.813  0.1831 -0.1879  0.6887
   22MOL0     C 2840   5.533   4.111   4.914 -1.0207 -0.3387 -0.6060
   22MOL0     C 2841   5.403   4.124   4.953  1.3287 -0.1680 -0.0317
   22MOL0     C 2842   5.302   4.051   4.890  0.1809 -0.3336 -0.5092
   22MOL0     O 2843   5.169   4.058   4.911  0.3725 -0.8140  0.6831
   22MOL0     C 2844   5.116   4.143   5.001 -1.0110  0.4993 -0.0756
   22MOL0     C 2845   4.974   4.182   4.970 -0.6310 -0.4634  0.6416
   22MOL0     C 2846   4.870   4.065   5.004  1.2394  0.0218  0.4045
   22MOL0     C 2847   4.738   4.082   4.916 -0.2034  0.1907 -0.2259
   22MOL0     C 2848   4.669   3.943   4.909  0.4241 -0.8997  0.1200
   22MOL0     C 2849   4.541   3.950   4.824 -0.5016 -0.4938 -0.0764
   22MOL0     C 2850   4.529   4.035   4.693 -0.1044  0.4132  0.2134
   22MOL0     C 2851   4.383   4.068   4.658 -0.2847  0.0253  0.3620
   22MOL0     N 2852   4.299   3.951   4.619 -0.1078  0.2717  0.1339
   22MOL0     C 2853   4.285   3.896   4.494  0.1057  1.2299 -0.5479
   22MOL0     C 2854   4.220   3.777   4.518 -0.4856  0.8244  0.5997
   22MOL0     C 2855   4.168   3.687   4.412  0.0900 -0.9617  0.2977
   22MOL0     C 2856   4.275   3.652   4.311  0.2384 -0.3797  0.4333
   22MOL0     C 2857   4.209   3.591   4.180 -0.2277  0.4557 -0.6658
   22MOL0     C 2858   4.142   3.458   4.186  0.6413 -0.2777 -0.3788
   22MOL0     O 2859   4.017   3.474   4.257  0.0104 -0.7730  0.5290
   22MOL0     C 2860   3.923   3.374   4.249  0.2166 -0.2069  0.0393
   22MOL0     C 2861   3.939   3.245   4.196 -0.3654  1.3587  0.0143
   22MOL0     C 2862   3.839   3.149   4.195  0.2788 -0.6345 -0.8124
   22MOL0     C 2863   3.873   3.015   4.128 -0.1233  1.3667  0.4287
   22MOL0     C 2864   3.715   3.174   4.255 -0.5058  0.0441  0.0339
   22MOL0     C 2865   3.599   3.082   4.230 -0.9676 -1.0249 -0.0481
   22MOL0     O 2866   3.483   3.140   4.203 -0.2203  0.4661 -0.5126
   22MOL0     C 2867   3.354   3.091   4.231 -0.4794  0.1211  0.4256
   22MOL0     C 2868   3.251   3.178   4.208  0.7254  0.6089 -0.0222
   22MOL0     C 2869   3.114   3.145   4.227  0.0307  0.7393 -0.2174
   22MOL0     C 2870   3.083   3.021   4.285  0.4782 -0.3281 -0.6716
   22MOL0     O 2871   2.947   2.995   4.299  0.2622 -0.2200  0.5788
   22MOL0     C 2872   2.903   2.917   4.412  0.6561 -0.3858  0.9869
   22MOL0     C 2873   2.747   2.933   4.419 -1.5846  0.1949 -0.0436
   22MOL0     C 2874   2.693   2.841   4.527  0.5677 -0.2499 -0.6616
   22MOL0     C 2875   2.543   2.870   4.537 -0.2431 -0.3351 -0.4130
   22MOL0     C 2876   2.491   2.769   4.631 -0.4601 -0.4630  1.1484
   22MOL0     C 2877   2.347   2.799   4.680 -0.8529 -0.3025 -0.3225
   22MOL0     C 2878   2.240   2.820   4.567 -0.1950 -1.0841 -0.5107
   22MOL0     C 2879   2.104   2.813   4.635 -0.0944 -0.7492  0.6349
   22MOL0    Cl 2880   2.063   2.971   4.704 -0.2499 -0.3704 -0.1593
   22MOL0     C 2881   3.187   2.938   4.323 -0.0906 -0.5501  0.8703
   22MOL0     C 2882   3.319   2.966   4.283  0.9874  0.6132  0.4122
   22MOL0     O 2883   3.616   2.965   4.245 -0.1512 -0.4268 -0.7195
   22MOL0     C 2884   3.692   3.309   4.301 -0.3822  0.2103  0.3210
   22MOL0     C 2885   3.796   3.403   4.305 -0.6672 -0.1242  0.5174
   22MOL0     N 2886   4.194   3.768   4.654  0.8072  0.1135  0.4930
   22MOL0     N 2887   4.249   3.864   4.715 -0.3684  0.4485  0.8015
   22MOL0     C 2888   5.335   3.946   4.802 -0.4079 -0.0038  0.1909
   22MOL0     C 2889   5.467   3.935   4.760 -0.0511 -0.0463  0.3936
   22MOL0     C 2890   5.885   3.977   4.618 -0.4769  0.5236 -0.0638
   22MOL0     C 2891   5.933   3.890   4.516  0.4384  0.4975  0.1164
   22MOL0     C 2892   6.071   3.885   4.501  0.7528  0.5511  0.7794
   22MOL0     C 2893   6.163   3.960   4.583  0.0019 -0.5137  0.1772
   22MOL0     O 2894   6.303   3.941   4.562  1.1836 -0.0790 -0.2674
   22MOL0     C 2895   6.392   4.026   4.634  1.0644  0.3972  0.8994
   22MOL0     C 2896   6.530   4.028   4.566  0.9698 -0.2206  0.6155
   22MOL0     C 2897   6.605   3.891   4.565 -0.1503  0.1077 -0.1441
   22MOL0     C 2898   6.687   3.858   4.437 -0.4924 -0.0619 -0.5601
   22MOL0     C 2899   6.598   3.848   4.315 -0.0270 -0.1820 -0.0666
   22MOL0     C 2900   6.517   3.822   4.228 -1.4145  0.8993  0.5847
   22MOL0     C 2901   6.112   4.048   4.678  0.1278 -0.0472 -1.1755
   22MOL0     C 2902   5.980   4.059   4.695 -0.2425 -0.2576 -0.4489
   22MOL0     H 2903   5.608   4.167   4.969 -1.1641 -0.4088 -0.3396
   22MOL0     H 2904   5.377   4.188   5.037 -0.4756 -2.1117  0.9991
   22MOL0     H 2905   5.121   4.081   5.091 -0.2852 -1.7091 -1.5668
   22MOL0     H 2906   5.173   4.237   4.999  0.7427 -0.5067 -2.4063
   22MOL0     H 2907   4.951   4.278   5.018  2.0949 -0.4285  2.1409
   22MOL0     H 2908   4.973   4.191   4.861 -0.6631 -1.5474  0.5493
   22MOL0     H 2909   4.910   3.964   4.991  1.6741 -0.1236  2.4938
   22MOL0     H 2910   4.841   4.080   5.109 -4.7651 -1.4260 -0.6993
   22MOL0     H 2911   4.684   4.159   4.973 -0.6846 -1.2767  1.4045
   22MOL0     H 2912   4.755   4.124   4.817  3.7810  0.0955  0.2667
   22MOL0     H 2913   4.740   3.869   4.870 -1.0295 -3.6918  2.3941
   22MOL0     H 2914   4.634   3.906   5.005 -0.2615 -0.6825 -0.0401
   22MOL0     H 2915   4.505   3.847   4.812  1.6333 -1.1340 -1.4519
   22MOL0     H 2916   4.464   3.989   4.891  0.9448 -0.3642  1.5806
   22MOL0     H 2917   4.575   4.131   4.721  0.1369  0.0397  1.1272
   22MOL0     H 2918   4.576   3.980   4.611  1.3871  1.3455  0.4048
   22MOL0     H 2919   4.361   4.142   4.581  0.8748 -2.4011 -2.4728
   22MOL0     H 2920   4.348   4.108   4.754  2.0704 -2.0006  2.1985
   22MOL0     H 2921   4.317   3.937   4.399  2.6608  3.8436  1.2523
   22MOL0     H 2922   4.129   3.603   4.471  1.4962  0.8820  4.2238
   22MOL0     H 2923   4.085   3.734   4.359 -0.0653  1.3923  2.4581
   22MOL0     H 2924   4.343   3.587   4.366  1.0151  0.4043  0.4232
   22MOL0     H 2925   4.330   3.739   4.273 -2.1227  0.0696 -2.3655
   22MOL0     H 2926   4.297   3.570   4.117  1.6170 -0.2852  1.9652
   22MOL0     H 2927   4.139   3.659   4.132 -1.0811 -1.2899 -2.0447
   22MOL0     H 2928   4.212   3.390   4.236  3.1444  2.8604  0.7355
   22MOL0     H 2929   4.121   3.420   4.086  0.8836  0.5392 -0.7431
   22MOL0     H 2930   4.042   3.233   4.164  0.1184  3.6551  0.4861
   22MOL0     H 2931   3.806   2.985   4.046  4.0391  0.9947 -3.2218
   22MOL0     H 2932   3.966   3.012   4.069 -2.0707  0.1158 -2.8827
   22MOL0     H 2933   3.872   2.936   4.203  1.1334  2.2347  1.4044
   22MOL0     H 2934   3.279   3.280   4.185 -2.2648  1.8353  1.2430
   22MOL0     H 2935   3.037   3.222   4.229 -1.5082 -0.7214  2.4961
   22MOL0     H 2936   2.939   2.814   4.400  0.7776 -0.2793  0.4330
   22MOL0     H 2937   2.940   2.957   4.507  0.1637  2.3641  0.1070
   22MOL0     H 2938   2.725   3.038   4.443 -1.2863 -0.1009  1.5982
   22MOL0     H 2939   2.700   2.898   4.327  1.8126 -1.3824 -1.3463
   22MOL0     H 2940   2.736   2.861   4.626 -0.3484 -1.1429 -0.0651
   22MOL0     H 2941   2.700   2.733   4.511 -1.3729 -0.5052 -0.0274
   22MOL0     H 2942   2.528   2.970   4.578  2.2445 -0.5055  1.1418
   22MOL0     H 2943   2.496   2.860   4.438 -3.2692  0.6350  0.8131
   22MOL0     H 2944   2.555   2.754   4.719 -2.0532 -1.0397  2.2629
   22MOL0     H 2945   2.480   2.675   4.577 -0.4886  0.3694 -0.3344
   22MOL0     H 2946   2.324   2.709   4.737 -0.9756 -1.9487 -2.8092
   22MOL0     H 2947   2.355   2.893   4.735 -1.0817  0.3964 -1.4560
   22MOL0     H 2948   2.250   2.746   4.487  0.4853  0.3256 -1.7691
   22MOL0     H 2949   2.245   2.922   4.528 -1.9414 -0.1539  1.4784
   22MOL0     H 2950   2.113   2.752   4.726  3.1010 -1.4418 -0.0209
   22MOL0     H 2951   2.024   2.782   4.568 -0.8730 -1.6547  1.9396
   22MOL0     H 2952   3.167   2.837   4.356 -1.9024 -0.5449 -0.0864
   22MOL0     H 2953   3.397   2.893   4.303  0.3758 -0.1431  0.0878
   22MOL0     H 2954   3.594   3.330   4.343 -0.7349  0.9622 -0.8247
   22MOL0     H 2955   3.777   3.502   4.344  0.6765  1.2920 -2.1522
   22MOL0     H 2956   5.263   3.866   4.789 -1.4114  0.8342  0.5258
   22MOL0     H 2957   5.485   3.872   4.673  0.6263 -0.4478  0.8145
   22MOL0     H 2958   5.862   3.831   4.459  0.4922 -2.0211  2.4345
   22MOL0     H 2959   6.109   3.814   4.429 -1.4605 -0.7490  0.7912
   22MOL0     H 2960   6.354   4.129   4.624  1.9963  0.7393  0.8033
   22MOL0     H 2961   6.388   3.994   4.738 -0.4786 -0.3465  0.6482
   22MOL0     H 2962   6.592   4.104   4.615 -0.7815  0.6218  1.6764
   22MOL0     H 2963   6.511   4.064   4.465 -1.5333  3.1430  2.0863
   22MOL0     H 2964   6.529   3.816   4.588 -1.2349  0.8285 -1.2347
   22MOL0     H 2965   6.676   3.888   4.648 -0.7193  0.0212  0.3479
   22MOL0     H 2966   6.730   3.759   4.452  0.9350  0.8740  2.6083
   22MOL0     H 2967   6.768   3.930   4.420 -0.2545 -0.1205  0.2592
   22MOL0     H 2968   6.464   3.794   4.139 -1.8622  0.8572  0.8630
   22MOL0     H 2969   6.179   4.106   4.742  0.7505  0.8165 -2.5620
   22MOL0     H 2970   5.940   4.121   4.774 -1.3345 -0.4731 -0.8249
   23MOL0     O 2971   6.532  10.582   7.134 -0.4761 -0.3885 -0.1252
   23MOL0     C 2972   6.476  10.557   7.026  0.4772  0.1283  0.1450
   23MOL0     O 2973   6.524  10.582   6.896 -0.3272  0.2753 -0.4231
   23MOL0     C 2974   6.648  10.636   6.876  0.6385  0.3508  0.0193
   23MOL0     C 2975   6.646  10.758   6.812  0.1216 -0.2524 -0.0668
   23MOL0     C 2976   6.763  10.826   6.805  0.2834  0.1629  0.6026
   23MOL0     C 2977   6.885  10.782   6.844 -0.3727 -0.9901  0.6645
   23MOL0     O 2978   6.986  10.875   6.832  0.0272  0.0708  0.5570
   23MOL0     C 2979   7.111  10.814   6.805  0.5250  0.0559 -0.4722
   23MOL0     C 2980   7.227  10.859   6.897  0.2035  0.0197  0.5435
   23MOL0     C 2981   7.355  10.772   6.885 -1.0050 -0.2545 -0.1453
   23MOL0     C 2982   7.484  10.848   6.913  0.7139 -0.6443 -0.8640
   23MOL0     C 2983   7.614  10.767   6.885 -0.9767  0.7691 -0.4541
   23MOL0     C 2984   7.733  10.836   6.950  0.1105 -0.9535 -0.9401
   23MOL0     C 2985   7.762  10.985   6.904 -0.6425  0.1538 -0.3206
   23MOL0     C 2986   7.780  11.011   6.751  0.0258 -0.4479  0.2320
   23MOL0     N 2987   7.884  10.930   6.690 -0.1069  0.9179 -0.0606
   23MOL0     C 2988   8.019  10.916   6.734 -0.1992  0.1058  0.8593
   23MOL0     C 2989   8.078  10.826   6.655 -0.4367 -0.4571 -0.6940
   23MOL0     C 2990   8.222  10.788   6.648 -0.0492  0.2182 -0.4664
   23MOL0     C 2991   8.294  10.746   6.766 -0.5078 -0.7994  0.1490
   23MOL0     C 2992   8.229  10.640   6.849 -0.1664 -0.2612 -0.1865
   23MOL0     C 2993   8.318  10.576   6.955  0.2708 -0.0132  0.0589
   23MOL0     O 2994   8.396  10.475   6.887  0.0397 -0.2428  0.2796
   23MOL0     C 2995   8.434  10.359   6.946  0.0513 -0.0405 -0.1820
   23MOL0     C 2996   8.555  10.305   6.907  0.0187  0.1970  0.3971
   23MOL0     C 2997   8.623  10.222   6.992  0.1317  0.1205 -1.1309
   23MOL0     C 2998   8.763  10.185   6.947  0.1852  0.8920  0.1399
   23MOL0     C 2999   8.565  10.174   7.109 -0.7699  0.2014 -0.4366
   23MOL0     C 3000   8.640  10.073   7.205 -0.6077  0.2014 -0.6046
   23MOL0     O 3001   8.566  10.005   7.297  0.0979 -0.6642 -0.1591
   23MOL0     C 3002   8.621   9.908   7.376 -0.6594  0.5701 -0.3986
   23MOL0     C 3003   8.731   9.826   7.335  0.1830 -0.0597  0.6538
   23MOL0     C 3004   8.773   9.720   7.420 -0.6076 -0.8841  0.2951
   23MOL0     C 3005   8.716   9.708   7.545  0.1019 -0.6735 -0.2262
   23MOL0     O 3006   8.766   9.624   7.649  0.2169 -0.3568  0.3701
   23MOL0     C 3007   8.909   9.594   7.654  0.3277 -0.0894  0.6325
   23MOL0     C 3008   8.971   9.735   7.685 -0.8678  0.3471 -0.8897
   23MOL0     C 3009   9.128   9.715   7.689  0.5117 -0.7376  0.3797
   23MOL0     C 3010   9.179   9.629   7.810 -0.7207 -0.2621 -0.3746
   23MOL0     C 3011   9.306   9.689   7.864 -0.4063 -0.1842 -0.9342
   23MOL0     C 3012   9.360   9.607   7.983  0.1913  0.0522 -0.3838
   23MOL0     C 3013   9.449   9.489   7.936 -0.0854 -0.4916 -0.5129
   23MOL0     C 3014   9.490   9.390   8.050 -0.3875 -1.0717 -0.9555
   23MOL0    Cl 3015   9.597   9.466   8.168  0.2302 -0.5917  0.2461
   23MOL0     C 3016   8.609   9.779   7.587  0.5586  1.2450  0.5511
   23MOL0     C 3017   8.563   9.880   7.502  0.2109 -0.5344 -0.3491
   23MOL0     O 3018   8.761  10.057   7.193  0.7577  0.3247  0.3175
   23MOL0     C 3019   8.424  10.208   7.130 -0.8445 -1.6754 -0.1931
   23MOL0     C 3020   8.364  10.302   7.051 -0.7297  0.9083  0.7810
   23MOL0     N 3021   7.978  10.777   6.574 -0.3576 -0.5226  0.0540
   23MOL0     N 3022   7.860  10.831   6.602  0.1295  0.8345  0.1358
   23MOL0     C 3023   6.885  10.645   6.900  0.8854  0.5315 -0.0594
   23MOL0     C 3024   6.766  10.579   6.918  0.7239 -0.5859 -0.2436
   23MOL0     C 3025   6.348  10.484   7.045  0.7332 -0.4711 -0.1522
   23MOL0     C 3026   6.275  10.491   7.168 -0.2723 -0.8775  0.2521
   23MOL0     C 3027   6.158  10.418   7.184  0.5038 -0.6860 -0.8956
   23MOL0     C 3028   6.101  10.339   7.088 -0.1340 -0.3481 -0.1059
   23MOL0     O 3029   5.989  10.263   7.094 -0.4941  0.4295 -0.4738
   23MOL0     C 3030   5.899  10.284   7.209  0.0087  1.0864  0.6746
   23MOL0     C 3031   5.750  10.281   7.160 -0.2067  0.0290 -0.1531
   23MOL0     C 3032   5.699  10.165   7.070  0.3799 -0.1299  0.3996
   23MOL0     C 3033   5.644  10.053   7.146  0.5947  0.8548  0.1928
   23MOL0     C 3034   5.739   9.976   7.224  0.3080 -0.0370 -0.3861
   23MOL0     C 3035   5.820   9.912   7.286  0.0791 -0.2969  0.0674
   23MOL0     C 3036   6.171  10.323   6.972 -0.3079 -1.0575  0.6551
   23MOL0     C 3037   6.292  10.398   6.948 -0.1185 -0.3645 -0.0357
   23MOL0     H 3038   6.552  10.804   6.785 -0.6704 -0.1959  2.5611
   23MOL0     H 3039   6.771  10.919   6.749  1.6204 -1.1357 -1.5105
   23MOL0     H 3040   7.097  10.707   6.787  0.6111  0.2787 -1.9828
   23MOL0     H 3041   7.125  10.844   6.701 -1.1274 -3.7191 -1.9782
   23MOL0     H 3042   7.260  10.963   6.898 -1.1410  0.4731  2.2013
   23MOL0     H 3043   7.188  10.854   6.999 -3.1474  3.6083 -0.3226
   23MOL0     H 3044   7.344  10.686   6.952  1.0713 -0.5096 -0.0660
   23MOL0     H 3045   7.353  10.733   6.783  5.1372 -2.3676  0.0948
   23MOL0     H 3046   7.483  10.933   6.844 -2.2312  1.2126  1.2206
   23MOL0     H 3047   7.495  10.879   7.017  3.0160  3.4820 -2.0988
   23MOL0     H 3048   7.599  10.663   6.917  1.3360  0.8139  0.9997
   23MOL0     H 3049   7.631  10.768   6.777 -0.8652  0.2966 -0.4457
   23MOL0     H 3050   7.708  10.854   7.055 -3.4012  2.8223 -2.1230
   23MOL0     H 3051   7.816  10.766   6.946 -0.1229 -1.5645  2.1326
   23MOL0     H 3052   7.689  11.052   6.950 -2.6397 -0.7581 -2.0027
   23MOL0     H 3053   7.864  11.005   6.937 -0.5418 -2.1847  1.0280
   23MOL0     H 3054   7.806  11.117   6.746  0.2907 -0.5693 -1.6131
   23MOL0     H 3055   7.683  11.012   6.700 -1.0001  1.4040  2.0618
   23MOL0     H 3056   8.061  10.986   6.805 -1.6009  0.4602  1.3725
   23MOL0     H 3057   8.243  10.721   6.564  0.3576 -0.2727  0.0181
   23MOL0     H 3058   8.261  10.882   6.610 -2.4781  1.6661  0.3950
   23MOL0     H 3059   8.300  10.840   6.821 -1.6247 -0.7599  0.2432
   23MOL0     H 3060   8.396  10.720   6.735 -0.0425  1.2588 -0.1403
   23MOL0     H 3061   8.193  10.562   6.781 -3.6699  3.1726 -2.6516
   23MOL0     H 3062   8.136  10.682   6.888 -0.2599  0.7471 -1.4127
   23MOL0     H 3063   8.260  10.528   7.035 -1.4386 -0.1992 -1.2337
   23MOL0     H 3064   8.383  10.650   7.003  2.2470 -1.8010  0.2939
   23MOL0     H 3065   8.607  10.333   6.816  2.2792 -2.2223  0.8240
   23MOL0     H 3066   8.793  10.228   6.851 -1.6536 -0.2125 -0.9671
   23MOL0     H 3067   8.834  10.218   7.024  0.0506 -0.5864  0.9329
   23MOL0     H 3068   8.779  10.080   6.923  4.3426  0.9738  1.7145
   23MOL0     H 3069   8.781   9.827   7.238 -2.4942  0.4375 -0.8351
   23MOL0     H 3070   8.852   9.652   7.390 -0.9105 -1.3204  0.4778
   23MOL0     H 3071   8.928   9.513   7.725  0.9933 -1.0634 -0.6126
   23MOL0     H 3072   8.945   9.553   7.560  2.5568 -0.4373  1.5795
   23MOL0     H 3073   8.956   9.816   7.614 -1.3808  0.6103 -0.4909
   23MOL0     H 3074   8.923   9.768   7.778 -1.3016  1.1914 -1.4062
   23MOL0     H 3075   9.166   9.815   7.709  0.0064 -0.9734  2.8237
   23MOL0     H 3076   9.165   9.666   7.598 -1.7605 -3.3992  0.7426
   23MOL0     H 3077   9.109   9.615   7.893 -0.1642 -0.7029  0.0331
   23MOL0     H 3078   9.199   9.532   7.763 -1.3230 -1.5117  1.7897
   23MOL0     H 3079   9.280   9.791   7.893 -1.6545  0.7470 -4.6883
   23MOL0     H 3080   9.375   9.700   7.779 -0.5010  0.4572 -0.9328
   23MOL0     H 3081   9.430   9.665   8.044 -1.7790  0.8739  1.1845
   23MOL0     H 3082   9.279   9.572   8.047  1.1370 -0.3583  0.6203
   23MOL0     H 3083   9.539   9.516   7.880 -0.1182  0.2757 -0.2080
   23MOL0     H 3084   9.393   9.410   7.887 -1.4095 -0.2296  0.5121
   23MOL0     H 3085   9.529   9.300   8.002  2.8144  0.2729 -1.1287
   23MOL0     H 3086   9.399   9.352   8.098 -1.7529  0.2823 -2.3641
   23MOL0     H 3087   8.559   9.763   7.682 -0.6484 -2.3278 -0.5362
   23MOL0     H 3088   8.485   9.945   7.540  0.2630 -1.7561  1.9914
   23MOL0     H 3089   8.376  10.154   7.211  2.5933 -0.8732  2.6571
   23MOL0     H 3090   8.257  10.317   7.066 -0.6554  0.7013  1.5568
   23MOL0     H 3091   6.974  10.592   6.931 -0.0097  0.8325  3.5142
   23MOL0     H 3092   6.756  10.475   6.948 -1.6103 -1.3425 -3.1023
   23MOL0     H 3093   6.301  10.562   7.246 -2.7237 -0.8524  1.1395
   23MOL0     H 3094   6.115  10.427   7.284  3.6416 -0.5644  0.5688
   23MOL0     H 3095   5.908  10.204   7.283 -1.3529  2.3191  2.2418
   23MOL0     H 3096   5.916  10.381   7.256  2.9652  1.7766 -1.5255
   23MOL0     H 3097   5.735  10.373   7.103 -2.2464 -0.0021  0.2637
   23MOL0     H 3098   5.675  10.303   7.236  0.7990 -2.1678  1.6206
   23MOL0     H 3099   5.778  10.127   7.004 -1.0719  0.6055 -1.8786
   23MOL0     H 3100   5.612  10.202   7.015 -0.1289 -2.1269 -0.2205
   23MOL0     H 3101   5.578   9.997   7.079 -2.1346  2.1482  1.6663
   23MOL0     H 3102   5.573  10.092   7.219  0.1183  1.5784 -0.6424
   23MOL0     H 3103   5.884   9.850   7.345 -0.5559  0.4781  1.6388
   23MOL0     H 3104   6.137  10.256   6.894 -0.1959 -0.0005 -0.3303
   23MOL0     H 3105   6.346  10.397   6.855  1.0813 -2.8207  0.5851
   24MOL0     O 3106   8.598   1.015  10.604 -0.1000 -0.4436 -0.2639
   24MOL0     C 3107   8.622   0.965  10.710  0.7818  0.2417  0.3710
   24MOL0     O 3108   8.627   1.025  10.830 -0.9583  0.4119 -0.3877
   24MOL0     C 3109   8.612   1.162  10.832 -0.6405  0.4360 -0.5381
   24MOL0     C 3110   8.706   1.233  10.912  0.4286  0.0567  0.6816
   24MOL0     C 3111   8.681   1.368  10.928 -0.7230 -0.5029 -0.3729
   24MOL0     C 3112   8.580   1.441  10.862  0.0320 -0.8736 -0.1121
   24MOL0     O 3113   8.569   1.581  10.872  0.5291  0.5189  0.8503
   24MOL0     C 3114   8.623   1.644  10.987  0.4826 -0.0104  0.3636
   24MOL0     C 3115   8.537   1.620  11.109 -0.8379  0.4641  0.3101
   24MOL0     C 3116   8.526   1.753  11.186 -0.3127 -0.6772 -0.0416
   24MOL0     C 3117   8.421   1.743  11.301  0.0236 -0.8253  0.4063
   24MOL0     C 3118   8.415   1.876  11.378 -0.4334  0.1485 -0.6717
   24MOL0     C 3119   8.541   1.911  11.451 -0.6870  0.6734  0.4834
   24MOL0     C 3120   8.528   1.945  11.599  0.3363 -1.0355  0.2434
   24MOL0     C 3121   8.662   2.005  11.649  1.2751  0.1380 -0.9384
   24MOL0     N 3122   8.641   2.038  11.790 -0.2559 -0.6787 -0.6573
   24MOL0     C 3123   8.636   1.956  11.898 -0.2962  0.0264  0.4083
   24MOL0     C 3124   8.648   2.050  11.998  0.4297  0.2735 -0.9025
   24MOL0     C 3125   8.651   2.021  12.143 -0.1953  0.0557  0.6089
   24MOL0     C 3126   8.507   2.008  12.192  0.7707 -0.7614  0.3862
   24MOL0     C 3127   8.492   1.956  12.333 -0.2310 -0.1393 -0.3985
   24MOL0     C 3128   8.352   1.934  12.373 -0.0570 -0.1899 -0.5713
   24MOL0     O 3129   8.348   1.889  12.507 -0.0594  0.6824  0.7899
   24MOL0     C 3130   8.230   1.876  12.569 -0.2867 -0.3024 -0.1774
   24MOL0     C 3131   8.105   1.937  12.530  0.6008  0.0458 -0.3633
   24MOL0     C 3132   7.987   1.924  12.610 -0.8617 -0.0854 -0.6308
   24MOL0     C 3133   7.864   2.009  12.562 -0.2277 -0.1568  0.6697
   24MOL0     C 3134   7.996   1.841  12.724  1.1178 -0.3511  0.9257
   24MOL0     C 3135   7.881   1.813  12.817 -0.2551  0.6630  0.6373
   24MOL0     O 3136   7.871   1.685  12.882 -0.7868  0.2660  0.9113
   24MOL0     C 3137   7.753   1.627  12.909 -0.7201 -0.0370  0.3054
   24MOL0     C 3138   7.729   1.562  13.022 -0.5788 -0.5225 -0.9017
   24MOL0     C 3139   7.603   1.508  13.053 -0.2612  0.9804  0.2513
   24MOL0     C 3140   7.497   1.526  12.963 -0.8116  0.3060 -0.5242
   24MOL0     O 3141   7.372   1.475  12.975  0.3004  0.4093  0.0697
   24MOL0     C 3142   7.356   1.381  13.078 -0.4724  0.3846 -0.4808
   24MOL0     C 3143   7.205   1.334  13.054  0.3208 -0.2761 -0.4168
   24MOL0     C 3144   7.154   1.207  13.119 -0.0395 -0.0675  0.2258
   24MOL0     C 3145   7.179   1.194  13.269 -0.0236  1.4125 -0.2980
   24MOL0     C 3146   7.178   1.049  13.332  0.0364 -0.5597  0.6749
   24MOL0     C 3147   7.182   1.047  13.485  0.3997  0.6461  0.0290
   24MOL0     C 3148   7.325   1.085  13.529 -0.3638  0.5375 -0.3292
   24MOL0     C 3149   7.347   1.059  13.677  0.1863 -0.5293 -0.7750
   24MOL0    Cl 3150   7.467   1.172  13.738 -0.3958  0.2076 -0.0238
   24MOL0     C 3151   7.520   1.591  12.848  0.1775  0.1114  1.0163
   24MOL0     C 3152   7.645   1.638  12.813  0.2087 -0.1603  0.8868
   24MOL0     O 3153   7.791   1.899  12.814 -0.1497  0.3637  0.6592
   24MOL0     C 3154   8.116   1.787  12.758 -1.0085  0.1553 -0.9360
   24MOL0     C 3155   8.234   1.813  12.690  0.1664 -0.3951  0.4871
   24MOL0     N 3156   8.643   2.179  11.952 -0.0359  0.3073  0.3896
   24MOL0     N 3157   8.643   2.166  11.829  0.6715 -0.0739  0.0428
   24MOL0     C 3158   8.488   1.366  10.783 -0.8027  0.2075  1.1121
   24MOL0     C 3159   8.512   1.233  10.766 -0.5723  0.1232 -0.6345
   24MOL0     C 3160   8.635   0.813  10.704 -0.1461  0.4783 -0.7957
   24MOL0     C 3161   8.622   0.736  10.593 -0.1793 -0.4641  0.7212
   24MOL0     C 3162   8.636   0.600  10.594 -0.7146 -0.3957  0.2937
   24MOL0     C 3163   8.661   0.532  10.714 -0.8057  0.0402  0.4459
   24MOL0     O 3164   8.658   0.396  10.704  0.2519 -0.1745 -0.4266
   24MOL0     C 3165   8.728   0.317  10.805  0.6080  0.1835  0.1969
   24MOL0     C 3166   8.755   0.172  10.758 -0.1569  0.8276  0.2509
   24MOL0     C 3167   8.646   0.104  10.678 -1.0410 -0.6794  0.0483
   24MOL0     C 3168   8.650  -0.046  10.678  1.1997 -0.1823  1.0835
   24MOL0     C 3169   8.734  -0.115  10.575 -0.1367 -0.5885  0.1629
   24MOL0     C 3170   8.808  -0.169  10.494 -0.5318 -0.0720 -0.2302
   24MOL0     C 3171   8.667   0.609  10.823  0.4751  0.0087  0.5147
   24MOL0     C 3172   8.653   0.743  10.822 -1.1893 -0.9934  1.2529
   24MOL0     H 3173   8.801   1.187  10.939  0.1809 -1.0054 -0.1953
   24MOL0     H 3174   8.760   1.416  10.986 -1.3648 -1.2963  1.2296
   24MOL0     H 3175   8.723   1.612  11.016 -0.6885 -2.5651  1.9329
   24MOL0     H 3176   8.620   1.747  10.950 -2.1013 -0.9241 -2.4945
   24MOL0     H 3177   8.434   1.600  11.079  0.2465 -2.0046 -2.1496
   24MOL0     H 3178   8.574   1.535  11.167  0.1452 -1.3031 -2.7199
   24MOL0     H 3179   8.625   1.780  11.224 -0.9945 -0.7544  1.8965
   24MOL0     H 3180   8.510   1.833  11.114  1.2941 -1.4592 -1.3243
   24MOL0     H 3181   8.323   1.720  11.258 -0.9103 -0.4652  2.2086
   24MOL0     H 3182   8.443   1.662  11.372  1.6799 -1.0301 -0.3132
   24MOL0     H 3183   8.391   1.962  11.315 -1.1826  1.5067  1.3429
   24MOL0     H 3184   8.324   1.877  11.440 -1.0883 -0.5111 -1.5966
   24MOL0     H 3185   8.614   1.831  11.434 -3.6527 -1.8362 -1.3877
   24MOL0     H 3186   8.582   1.991  11.389  0.8824  0.6919  1.4743
   24MOL0     H 3187   8.454   2.024  11.611  0.2544 -1.1937  0.8004
   24MOL0     H 3188   8.491   1.858  11.655 -0.3785 -1.1727 -0.4182
   24MOL0     H 3189   8.693   2.092  11.591 -0.9028  1.2450 -0.5648
   24MOL0     H 3190   8.732   1.922  11.637  0.0136 -0.6778 -3.6605
   24MOL0     H 3191   8.658   1.850  11.905  2.0896  0.5633  2.9670
   24MOL0     H 3192   8.704   1.927  12.165 -0.0961  0.8220  4.2061
   24MOL0     H 3193   8.704   2.103  12.191  0.9587  0.6547 -1.5271
   24MOL0     H 3194   8.448   1.946  12.124  0.3040 -0.4269  0.4757
   24MOL0     H 3195   8.451   2.103  12.190  0.8483 -0.7248 -0.6831
   24MOL0     H 3196   8.546   2.020  12.402 -0.1382 -0.0040 -0.5951
   24MOL0     H 3197   8.546   1.861  12.325  1.3331  0.7435 -0.8649
   24MOL0     H 3198   8.301   1.866  12.304 -1.6210 -2.8613  2.9068
   24MOL0     H 3199   8.304   2.033  12.379 -0.2392 -0.3564  1.5390
   24MOL0     H 3200   8.098   1.989  12.435 -2.1792 -0.4454 -0.5116
   24MOL0     H 3201   7.775   1.953  12.532  0.4789 -0.8121 -0.2690
   24MOL0     H 3202   7.842   2.081  12.642  1.3651  0.5834  0.4828
   24MOL0     H 3203   7.901   2.077  12.485 -0.4124  0.8964  1.4948
   24MOL0     H 3204   7.802   1.557  13.102  0.8872 -0.3371 -2.1882
   24MOL0     H 3205   7.598   1.450  13.145 -0.0470  1.0307  0.2962
   24MOL0     H 3206   7.420   1.295  13.060 -0.5596  0.3589 -0.6725
   24MOL0     H 3207   7.357   1.432  13.175 -0.9165  3.0520 -1.7539
   24MOL0     H 3208   7.147   1.416  13.095  1.3956  0.5158 -0.4322
   24MOL0     H 3209   7.177   1.326  12.949  0.7759  2.1288 -0.7780
   24MOL0     H 3210   7.195   1.122  13.064 -0.3667  0.9207 -1.6658
   24MOL0     H 3211   7.045   1.200  13.114 -0.2538  2.4035 -0.0822
   24MOL0     H 3212   7.275   1.236  13.303 -0.4410  1.4666  0.8709
   24MOL0     H 3213   7.096   1.258  13.298 -0.3340  0.3049  1.4092
   24MOL0     H 3214   7.260   0.995  13.285 -2.7217 -4.6034  0.0409
   24MOL0     H 3215   7.087   0.996  13.302  1.5119 -2.4477 -0.7355
   24MOL0     H 3216   7.113   1.120  13.528  1.1019  1.7632 -0.6655
   24MOL0     H 3217   7.166   0.947  13.526 -0.3253  1.4962  1.9160
   24MOL0     H 3218   7.334   1.193  13.520 -0.9350  0.6273  0.0836
   24MOL0     H 3219   7.405   1.044  13.468 -0.1555 -2.8754  1.9462
   24MOL0     H 3220   7.383   0.955  13.681 -0.0339 -0.9051 -4.9613
   24MOL0     H 3221   7.250   1.073  13.726 -1.3731 -1.8756 -3.2879
   24MOL0     H 3222   7.429   1.584  12.789  1.3690 -3.5173 -0.6667
   24MOL0     H 3223   7.660   1.687  12.718  0.1303  1.9596  1.9246
   24MOL0     H 3224   8.130   1.729  12.849  1.4693  1.4391 -0.4124
   24MOL0     H 3225   8.332   1.786  12.728  0.7546 -5.1117 -3.4118
   24MOL0     H 3226   8.406   1.410  10.727  1.8259  0.1051 -3.2454
   24MOL0     H 3227   8.453   1.169  10.701 -0.5720  0.8525 -1.3661
   24MOL0     H 3228   8.615   0.781  10.495 -2.6195 -1.7321  0.2387
   24MOL0     H 3229   8.623   0.542  10.504  2.6744 -0.4301 -0.3064
   24MOL0     H 3230   8.818   0.369  10.838 -0.7234  1.6599  1.6536
   24MOL0     H 3231   8.664   0.322  10.893 -0.9186  1.0431 -0.9208
   24MOL0     H 3232   8.787   0.106  10.840 -2.2591  0.6447  0.9832
   24MOL0     H 3233   8.836   0.180  10.685 -0.9038 -1.4450 -0.9359
   24MOL0     H 3234   8.665   0.147  10.579 -0.4876  0.3198  0.5655
   24MOL0     H 3235   8.557   0.132  10.735 -0.5810 -1.5573  1.2239
   24MOL0     H 3236   8.554  -0.095  10.656  1.7530 -0.9895  0.3620
   24MOL0     H 3237   8.679  -0.069  10.781 -0.9268  4.2405  2.9035
   24MOL0     H 3238   8.878  -0.210  10.424 -2.3902 -2.1643 -0.9972
   24MOL0     H 3239   8.692   0.568  10.920 -0.4457  0.5986  1.0120
   24MOL0     H 3240   8.679   0.797  10.913 -2.2465  1.5445  0.1394
   25MOL0     O 3241   4.580   0.928   5.249  1.0478  0.1901 -0.0966
   25MOL0     C 3242   4.652   1.029   5.260  0.6623 -0.3940  0.2328
   25MOL0     O 3243   4.606   1.163   5.260 -0.2161  0.4937 -0.6072
   25MOL0     C 3244   4.474   1.176   5.275  0.0272 -0.3482  0.7206
   25MOL0     C 3245   4.382   1.152   5.173 -1.0217  0.6469  0.0729
   25MOL0     C 3246   4.249   1.179   5.193  0.2888 -0.3928 -0.0673
   25MOL0     C 3247   4.193   1.232   5.314 -0.4256 -0.0050 -0.4943
   25MOL0     O 3248   4.054   1.258   5.325 -0.0835  0.5101 -0.6378
   25MOL0     C 3249   3.996   1.312   5.443 -0.1376 -0.4489 -0.4316
   25MOL0     C 3250   3.845   1.333   5.440 -1.0455  0.2899 -0.9219
   25MOL0     C 3251   3.791   1.367   5.583 -0.7010 -0.2316 -0.1799
   25MOL0     C 3252   3.652   1.419   5.586  0.4938  0.1758  0.5943
   25MOL0     C 3253   3.623   1.507   5.708  0.0397 -0.3271 -0.1670
   25MOL0     C 3254   3.587   1.422   5.835 -0.1790  0.4201  0.0028
   25MOL0     C 3255   3.575   1.505   5.967  0.4284  0.7105  0.0339
   25MOL0     C 3256   3.559   1.409   6.087 -1.2309  0.0879 -0.1298
   25MOL0     N 3257   3.685   1.336   6.107  0.3100 -0.8884 -0.6951
   25MOL0     C 3258   3.711   1.205   6.077  0.3377 -0.0333  1.0800
   25MOL0     C 3259   3.833   1.181   6.116 -0.7928  0.3707  0.2220
   25MOL0     C 3260   3.920   1.066   6.090 -0.1063 -0.8525 -0.1359
   25MOL0     C 3261   3.949   1.062   5.947  0.7770  0.7733  0.2551
   25MOL0     C 3262   4.066   0.958   5.910  0.4319  0.3770  0.2335
   25MOL0     C 3263   4.044   0.802   5.953  0.6509 -0.4452  0.2305
   25MOL0     O 3264   4.040   0.796   6.101  0.2464 -0.3593  0.4669
   25MOL0     C 3265   4.029   0.663   6.149 -0.2101 -0.0979 -0.3835
   25MOL0     C 3266   4.081   0.639   6.277 -0.4503 -0.3618  0.0134
   25MOL0     C 3267   4.058   0.523   6.347 -0.3426 -0.7265  0.5609
   25MOL0     C 3268   4.122   0.514   6.487  0.3156  0.5527  0.1949
   25MOL0     C 3269   3.964   0.429   6.294 -0.3227 -0.2811 -0.7224
   25MOL0     C 3270   3.914   0.300   6.372  0.6717  0.2444  0.9020
   25MOL0     O 3271   3.893   0.196   6.287 -0.1562  0.2957  0.7887
   25MOL0     C 3272   3.842   0.075   6.332 -0.8554 -0.5954 -0.7691
   25MOL0     C 3273   3.892  -0.042   6.275 -0.0253 -0.5073  0.0798
   25MOL0     C 3274   3.841  -0.162   6.318 -0.2708 -0.3074 -0.7278
   25MOL0     C 3275   3.733  -0.160   6.409  0.0067 -0.2378 -0.0767
   25MOL0     O 3276   3.669  -0.270   6.450 -0.3595  0.7870  0.1346
   25MOL0     C 3277   3.710  -0.404   6.423  0.6807 -0.4779 -0.0880
   25MOL0     C 3278   3.634  -0.510   6.504 -0.2393 -0.0002 -0.5118
   25MOL0     C 3279   3.701  -0.537   6.638  1.2639 -1.3526 -0.1225
   25MOL0     C 3280   3.618  -0.645   6.719 -1.0301  0.0420  0.5408
   25MOL0     C 3281   3.672  -0.676   6.855  0.5761 -0.6596  0.2218
   25MOL0     C 3282   3.647  -0.566   6.960 -0.0749  0.2417  0.6327
   25MOL0     C 3283   3.635  -0.622   7.103 -1.0984  0.1475  0.7492
   25MOL0     C 3284   3.497  -0.597   7.162  0.4564  0.4083  0.0410
   25MOL0    Cl 3285   3.392  -0.726   7.101  0.5188 -0.6371  0.4547
   25MOL0     C 3286   3.685  -0.044   6.465 -0.3810  0.2575  0.9583
   25MOL0     C 3287   3.740   0.079   6.427 -0.0972  0.6930  0.0041
   25MOL0     O 3288   3.913   0.295   6.492  0.0972 -0.1071 -0.4482
   25MOL0     C 3289   3.905   0.455   6.161 -0.1763 -0.5065 -0.6187
   25MOL0     C 3290   3.942   0.573   6.092  0.6695  0.1265 -0.0648
   25MOL0     N 3291   3.885   1.292   6.173  0.4239 -0.8926  0.2023
   25MOL0     N 3292   3.789   1.376   6.181  0.2646 -0.1057  0.8716
   25MOL0     C 3293   4.288   1.259   5.410 -0.1509 -0.9353  0.2142
   25MOL0     C 3294   4.423   1.214   5.402  0.7045 -0.6101  0.8131
   25MOL0     C 3295   4.805   1.016   5.278 -0.1577 -0.0745  0.7021
   25MOL0     C 3296   4.882   1.124   5.243  0.0673  0.7553  0.6344
   25MOL0     C 3297   5.016   1.111   5.230 -0.0702 -0.3336 -1.0182
   25MOL0     C 3298   5.081   0.986   5.264 -0.0370  0.1785 -0.6829
   25MOL0     O 3299   5.210   0.962   5.241  0.2551 -0.1784  0.1662
   25MOL0     C 3300   5.309   1.071   5.227  0.2089  0.7828 -0.5594
   25MOL0     C 3301   5.440   1.020   5.172 -0.5746 -0.0564  0.0713
   25MOL0     C 3302   5.540   1.123   5.119  0.3621 -0.8856  0.6533
   25MOL0     C 3303   5.558   1.258   5.204  1.1677  1.0265 -0.5041
   25MOL0     C 3304   5.620   1.232   5.332  0.5883 -0.6444  0.3463
   25MOL0     C 3305   5.674   1.220   5.442  0.2889 -0.7855 -0.1667
   25MOL0     C 3306   5.001   0.883   5.317 -0.3080 -0.6011  0.2393
   25MOL0     C 3307   4.860   0.892   5.327 -0.0089 -0.4683  0.0441
   25MOL0     H 3308   4.429   1.111   5.084 -1.8850 -0.8440  0.2620
   25MOL0     H 3309   4.181   1.155   5.112  2.1774  0.3470 -1.9501
   25MOL0     H 3310   4.026   1.257   5.533 -1.1692  0.2439  0.3575
   25MOL0     H 3311   4.042   1.410   5.456  0.1730 -0.5815 -0.5173
   25MOL0     H 3312   3.814   1.401   5.360 -0.4446 -1.5917 -2.8490
   25MOL0     H 3313   3.797   1.239   5.411  0.6330 -0.5984 -0.9184
   25MOL0     H 3314   3.794   1.285   5.654 -1.5295  0.0184  0.1513
   25MOL0     H 3315   3.862   1.445   5.613 -0.9166  0.0186 -0.3196
   25MOL0     H 3316   3.644   1.492   5.505  1.7751  0.8628  1.0694
   25MOL0     H 3317   3.578   1.339   5.573 -1.7713  1.9193  1.9747
   25MOL0     H 3318   3.710   1.570   5.731 -0.6227  0.2527  0.8146
   25MOL0     H 3319   3.536   1.571   5.688  0.3456  0.0938 -0.1718
   25MOL0     H 3320   3.490   1.373   5.826  0.6016 -0.7749 -4.1502
   25MOL0     H 3321   3.663   1.343   5.836 -2.5895 -2.0608 -0.2756
   25MOL0     H 3322   3.661   1.572   5.978  0.5528  0.4005  1.1419
   25MOL0     H 3323   3.475   1.549   5.961 -0.9173 -2.1534 -0.1686
   25MOL0     H 3324   3.476   1.341   6.064 -1.0744 -0.1898  0.1151
   25MOL0     H 3325   3.530   1.474   6.170 -1.5471  1.7016 -1.4530
   25MOL0     H 3326   3.635   1.149   6.024  0.1925  2.3229 -1.4242
   25MOL0     H 3327   4.021   1.082   6.129  1.4894 -2.6500 -3.1895
   25MOL0     H 3328   3.881   0.978   6.143 -0.6864 -0.4756  0.0716
   25MOL0     H 3329   3.991   1.160   5.921 -0.4631  0.9024 -1.4392
   25MOL0     H 3330   3.858   1.051   5.888  0.7422 -1.2071  0.5948
   25MOL0     H 3331   4.157   1.000   5.953  0.5011 -0.4679  0.9367
   25MOL0     H 3332   4.080   0.957   5.802 -2.8113 -1.5474 -0.3026
   25MOL0     H 3333   4.134   0.749   5.922  1.1937  2.2536 -3.5028
   25MOL0     H 3334   3.955   0.758   5.907  0.7495 -1.4955  1.0220
   25MOL0     H 3335   4.156   0.709   6.311  0.5281 -0.5464 -1.6547
   25MOL0     H 3336   4.064   0.455   6.558  2.3709 -2.1922 -0.2391
   25MOL0     H 3337   4.220   0.468   6.474 -1.0317 -2.0753 -1.4764
   25MOL0     H 3338   4.138   0.617   6.521  2.0303  1.7783 -3.7237
   25MOL0     H 3339   3.960  -0.043   6.191  0.7896 -0.4148  0.7301
   25MOL0     H 3340   3.880  -0.253   6.273 -0.3419 -1.6288  1.6777
   25MOL0     H 3341   3.695  -0.429   6.318 -1.0860 -1.4666  0.3439
   25MOL0     H 3342   3.814  -0.421   6.450  0.5953 -2.0930 -0.6813
   25MOL0     H 3343   3.528  -0.483   6.508  0.3269  2.9734 -1.9708
   25MOL0     H 3344   3.648  -0.601   6.445 -2.0815 -1.0818  0.6413
   25MOL0     H 3345   3.698  -0.443   6.694 -2.0082 -0.1578 -2.0153
   25MOL0     H 3346   3.803  -0.570   6.614  2.3382  2.4728 -1.6089
   25MOL0     H 3347   3.516  -0.605   6.716 -0.6746  0.9325 -1.8145
   25MOL0     H 3348   3.611  -0.738   6.663 -1.1928 -0.7659  1.8473
   25MOL0     H 3349   3.778  -0.702   6.841 -0.0582 -3.5960  0.3294
   25MOL0     H 3350   3.618  -0.761   6.896  2.7372 -2.1630  0.1332
   25MOL0     H 3351   3.732  -0.498   6.955  0.5712 -0.6132 -0.2607
   25MOL0     H 3352   3.563  -0.501   6.931  1.7123  2.1031 -0.6766
   25MOL0     H 3353   3.714  -0.586   7.170 -0.6973 -0.4604  0.6156
   25MOL0     H 3354   3.651  -0.729   7.088 -1.1015  0.5383 -3.0783
   25MOL0     H 3355   3.461  -0.501   7.123 -0.3245  1.8007  3.7376
   25MOL0     H 3356   3.490  -0.592   7.272 -1.5766 -1.3579  0.0495
   25MOL0     H 3357   3.604  -0.051   6.537 -3.0250  1.8832 -1.6334
   25MOL0     H 3358   3.705   0.164   6.485 -1.0243 -0.8527  1.8425
   25MOL0     H 3359   3.841   0.381   6.112  1.6748 -0.6315 -3.0318
   25MOL0     H 3360   3.898   0.597   5.996  1.8648 -0.9675 -0.9157
   25MOL0     H 3361   4.271   1.314   5.503  1.4983 -0.0985  0.0668
   25MOL0     H 3362   4.498   1.239   5.476  2.6644  1.8362 -1.8118
   25MOL0     H 3363   4.843   1.222   5.219  0.6560  0.8547  0.0672
   25MOL0     H 3364   5.072   1.202   5.209 -0.9588  1.1702  2.4332
   25MOL0     H 3365   5.271   1.143   5.153  0.5661  0.9650 -0.5670
   25MOL0     H 3366   5.327   1.122   5.322 -2.4768  1.8616 -0.5539
   25MOL0     H 3367   5.418   0.951   5.090 -2.5532  0.9689 -0.3330
   25MOL0     H 3368   5.492   0.948   5.236 -0.1443 -1.7905 -2.1143
   25MOL0     H 3369   5.506   1.159   5.021  0.6826  0.2554  0.9397
   25MOL0     H 3370   5.637   1.073   5.123  1.1149  0.4414 -0.0654
   25MOL0     H 3371   5.467   1.317   5.214  1.9364  1.9385  1.9379
   25MOL0     H 3372   5.633   1.325   5.160 -0.0209  2.5540 -0.2581
   25MOL0     H 3373   5.719   1.194   5.536  0.5248 -0.4127 -0.1750
   25MOL0     H 3374   5.061   0.796   5.344  2.8960  1.4027  0.0874
   25MOL0     H 3375   4.794   0.813   5.362 -1.9705  0.5387 -1.1434
   26MOL0     O 3376   0.402  10.047   3.821  0.3255 -0.2082 -0.1648
   26MOL0     C 3377   0.452   9.931   3.818  0.2176 -0.2773  0.8198
   26MOL0     O 3378   0.386   9.810   3.790 -0.1507 -0.2073  0.0216
   26MOL0     C 3379   0.265   9.824   3.736  1.1332 -0.1213  0.4136
   26MOL0     C 3380   0.252   9.787   3.602  0.4888 -0.2354 -0.1746
   26MOL0     C 3381   0.131   9.805   3.539 -0.1803  0.2374  0.4781
   26MOL0     C 3382   0.023   9.874   3.594  0.6240 -0.3874  0.8400
   26MOL0     O 3383  -0.098   9.911   3.536 -0.8587  0.0705  0.4905
   26MOL0     C 3384  -0.130   9.855   3.402  0.4554  0.9785  0.4726
   26MOL0     C 3385  -0.270   9.880   3.375 -0.8778  0.3549  0.5841
   26MOL0     C 3386  -0.328   9.805   3.250  0.2036  0.4712 -0.7940
   26MOL0     C 3387  -0.349   9.657   3.293  0.1490 -0.4710 -0.9006
   26MOL0     C 3388  -0.437   9.587   3.185  0.0177  0.1330 -0.5087
   26MOL0     C 3389  -0.375   9.594   3.045 -0.3439 -0.0555 -0.1612
   26MOL0     C 3390  -0.478   9.526   2.950  0.5449  0.5378  0.0927
   26MOL0     C 3391  -0.426   9.542   2.804  0.6378 -0.9878  0.3631
   26MOL0     N 3392  -0.505   9.466   2.705 -0.3556 -0.6278 -0.2979
   26MOL0     C 3393  -0.498   9.336   2.688 -0.3095 -0.7597 -0.1679
   26MOL0     C 3394  -0.559   9.315   2.566  0.1484  0.5260  0.2514
   26MOL0     C 3395  -0.581   9.187   2.497 -0.3396 -0.1501  0.5234
   26MOL0     C 3396  -0.538   9.197   2.358  0.0097 -0.7896 -0.1756
   26MOL0     C 3397  -0.379   9.224   2.346 -0.3616  0.8075  0.8431
   26MOL0     C 3398  -0.365   9.370   2.313 -0.0496 -0.6920  0.5287
   26MOL0     O 3399  -0.230   9.417   2.307 -0.2432 -0.4069  0.6437
   26MOL0     C 3400  -0.195   9.478   2.428  0.6999  0.6143 -0.0003
   26MOL0     C 3401  -0.241   9.604   2.458  0.3891 -0.3074 -0.4864
   26MOL0     C 3402  -0.197   9.681   2.568  0.6761 -0.0082  0.6159
   26MOL0     C 3403  -0.237   9.830   2.573 -0.0601  0.9602  0.3425
   26MOL0     C 3404  -0.103   9.630   2.657 -0.2965  0.0793 -0.1524
   26MOL0     C 3405  -0.062   9.692   2.785  0.5200  0.4878  0.2733
   26MOL0     O 3406   0.058   9.652   2.829 -0.3112  0.2254 -0.9941
   26MOL0     C 3407   0.116   9.702   2.942 -0.1411  0.3289 -0.1735
   26MOL0     C 3408   0.228   9.626   2.995  0.0400  0.1930  0.6192
   26MOL0     C 3409   0.305   9.684   3.099  0.3731  0.4560  0.0669
   26MOL0     C 3410   0.274   9.820   3.144 -0.1646  0.5863 -0.1585
   26MOL0     O 3411   0.352   9.860   3.242  0.3454  0.2753  0.4405
   26MOL0     C 3412   0.340   9.987   3.313  0.4651 -0.9270 -0.0978
   26MOL0     C 3413   0.418  10.102   3.256 -0.1255  0.4428 -0.2572
   26MOL0     C 3414   0.398  10.230   3.340 -0.2247  0.5903  0.1772
   26MOL0     C 3415   0.522  10.303   3.348  0.0123  0.2594  0.1839
   26MOL0     C 3416   0.507  10.428   3.443  0.7519  0.1643  0.1840
   26MOL0     C 3417   0.645  10.487   3.454  0.2852 -0.4017  0.0209
   26MOL0     C 3418   0.660  10.594   3.556 -0.5436 -1.2346  0.4868
   26MOL0     C 3419   0.803  10.638   3.560 -0.1409  0.4982  0.4810
   26MOL0    Cl 3420   0.815  10.781   3.658  0.0951 -0.0916  0.4363
   26MOL0     C 3421   0.172   9.888   3.092  0.2831 -0.9738 -0.6887
   26MOL0     C 3422   0.090   9.833   2.992  0.1728 -0.6142  1.2380
   26MOL0     O 3423  -0.139   9.772   2.838 -0.7419 -0.1500  0.3614
   26MOL0     C 3424  -0.064   9.495   2.639 -0.8106  0.3393 -1.1240
   26MOL0     C 3425  -0.098   9.428   2.517 -0.0944  0.4747 -0.5624
   26MOL0     N 3426  -0.626   9.430   2.539  0.2360  0.7505 -0.5377
   26MOL0     N 3427  -0.601   9.522   2.623 -0.4091 -0.1805 -0.6242
   26MOL0     C 3428   0.035   9.913   3.727 -0.3965 -0.9995 -0.3842
   26MOL0     C 3429   0.146   9.872   3.807  0.3642  0.5083 -0.8681
   26MOL0     C 3430   0.594   9.934   3.832  0.3168  0.4882  0.1182
   26MOL0     C 3431   0.659   9.820   3.867  0.4022  0.6564  0.1135
   26MOL0     C 3432   0.804   9.814   3.870 -0.9135  0.2293 -0.4796
   26MOL0     C 3433   0.884   9.920   3.836  0.7516  0.0022 -1.5619
   26MOL0     O 3434   1.024   9.904   3.833 -0.2906  0.9202 -0.5025
   26MOL0     C 3435   1.108   9.975   3.747 -1.0534  0.0365  0.3339
   26MOL0     C 3436   1.252   9.936   3.784 -0.4053 -0.0128 -0.7137
   26MOL0     C 3437   1.290   9.976   3.927  0.7397  0.1219 -0.0490
   26MOL0     C 3438   1.428   9.929   3.953  0.2481  0.1253  0.2672
   26MOL0     C 3439   1.446   9.913   4.096  0.2671  0.3520  0.7792
   26MOL0     C 3440   1.470   9.905   4.211 -0.4656 -0.2528 -0.4850
   26MOL0     C 3441   0.809  10.042   3.812  0.2430  0.0841  0.3273
   26MOL0     C 3442   0.666  10.045   3.799 -0.5440  0.5463 -0.3330
   26MOL0     H 3443   0.340   9.771   3.541  0.5357 -0.5728 -0.0243
   26MOL0     H 3444   0.114   9.770   3.438 -2.8894  1.3436  0.4661
   26MOL0     H 3445  -0.069   9.909   3.329 -0.0787  2.3544  1.0187
   26MOL0     H 3446  -0.094   9.753   3.386  1.9437  1.5939 -0.3218
   26MOL0     H 3447  -0.322   9.844   3.464 -0.6627 -0.3585  0.4298
   26MOL0     H 3448  -0.283   9.989   3.371  0.0865  0.5756  2.3514
   26MOL0     H 3449  -0.427   9.842   3.220 -0.3362 -0.9586 -0.8695
   26MOL0     H 3450  -0.255   9.806   3.169 -0.5340  0.7590 -1.4749
   26MOL0     H 3451  -0.253   9.608   3.308 -0.9567 -1.7196  3.7852
   26MOL0     H 3452  -0.390   9.634   3.392 -1.6225 -1.3074 -1.7859
   26MOL0     H 3453  -0.463   9.484   3.210 -1.1779  0.4904 -0.2201
   26MOL0     H 3454  -0.527   9.649   3.186  0.1850  0.5795  3.5015
   26MOL0     H 3455  -0.365   9.697   3.009  0.7324  0.3886  1.3190
   26MOL0     H 3456  -0.277   9.546   3.043 -0.4468 -0.3365  0.9068
   26MOL0     H 3457  -0.480   9.418   2.970 -3.8401  0.7036  1.4958
   26MOL0     H 3458  -0.583   9.556   2.955 -0.4879 -1.8326 -3.4361
   26MOL0     H 3459  -0.320   9.516   2.793  1.0334  1.5373 -5.8406
   26MOL0     H 3460  -0.436   9.649   2.784  1.5374 -1.0065 -0.2535
   26MOL0     H 3461  -0.445   9.258   2.742 -0.3537  0.3593  1.5909
   26MOL0     H 3462  -0.521   9.114   2.553  1.4430  0.7147 -0.1883
   26MOL0     H 3463  -0.684   9.153   2.509 -0.4540  0.3312  0.9421
   26MOL0     H 3464  -0.598   9.279   2.316 -1.8293 -2.9695 -2.0408
   26MOL0     H 3465  -0.558   9.105   2.302 -0.2825  0.1788 -1.7425
   26MOL0     H 3466  -0.346   9.162   2.262 -1.8212  1.7518 -0.4870
   26MOL0     H 3467  -0.315   9.196   2.431  4.8480  0.2261 -2.7851
   26MOL0     H 3468  -0.425   9.434   2.378  0.6156 -0.1429  0.6176
   26MOL0     H 3469  -0.413   9.386   2.216  0.7605  0.0908  0.2407
   26MOL0     H 3470  -0.313   9.641   2.386  0.7536 -0.1486 -0.7741
   26MOL0     H 3471  -0.246   9.864   2.469  3.0264  0.1105 -0.3059
   26MOL0     H 3472  -0.333   9.853   2.619 -0.5443  1.2264 -0.7608
   26MOL0     H 3473  -0.164   9.892   2.626  0.4154 -0.2609  1.1420
   26MOL0     H 3474   0.256   9.531   2.951  0.6049 -0.1959  1.7875
   26MOL0     H 3475   0.394   9.640   3.142  1.4865  2.0586 -0.5056
   26MOL0     H 3476   0.235  10.017   3.325  1.0240  0.7718  0.8301
   26MOL0     H 3477   0.376   9.972   3.415 -3.9041 -1.6194  1.5702
   26MOL0     H 3478   0.519  10.062   3.238 -0.0204  0.4116  0.3868
   26MOL0     H 3479   0.372  10.126   3.160  1.2497 -0.3046 -1.1420
   26MOL0     H 3480   0.368  10.206   3.442  1.4641  3.3042  1.4004
   26MOL0     H 3481   0.322  10.285   3.283 -0.2867  0.9917  0.6457
   26MOL0     H 3482   0.597  10.235   3.388  1.4197  0.5368 -1.8657
   26MOL0     H 3483   0.550  10.337   3.248  0.1871 -0.1857  0.0811
   26MOL0     H 3484   0.468  10.402   3.542 -3.4067 -0.2875 -1.3425
   26MOL0     H 3485   0.450  10.509   3.395  1.4338  0.4179 -0.1981
   26MOL0     H 3486   0.703  10.404   3.495 -1.5320 -0.9290  1.6655
   26MOL0     H 3487   0.672  10.532   3.358 -1.1800 -1.2408 -0.8102
   26MOL0     H 3488   0.622  10.569   3.655 -1.4290  0.5597  0.6321
   26MOL0     H 3489   0.598  10.679   3.526  1.3308  0.1548  0.3510
   26MOL0     H 3490   0.839  10.670   3.462  2.7682 -2.2429  0.4704
   26MOL0     H 3491   0.872  10.562   3.599  1.8392  2.6220  1.3899
   26MOL0     H 3492   0.151   9.990   3.123 -2.2509 -1.8156  0.6569
   26MOL0     H 3493   0.005   9.895   2.966  1.8638  0.9990 -0.7839
   26MOL0     H 3494   0.002   9.446   2.710  1.2038  2.0232 -1.7261
   26MOL0     H 3495  -0.049   9.338   2.483  1.2526  1.4954 -1.4103
   26MOL0     H 3496  -0.044   9.964   3.780  1.9822 -1.0920  3.6532
   26MOL0     H 3497   0.152   9.902   3.911  0.0667 -1.9001 -0.0758
   26MOL0     H 3498   0.608   9.727   3.889 -0.6983  1.5615  1.5469
   26MOL0     H 3499   0.861   9.725   3.896  1.5048  1.8137  0.0396
   26MOL0     H 3500   1.089   9.933   3.648  1.9934 -0.3408 -0.1906
   26MOL0     H 3501   1.091  10.083   3.747  1.3035  0.4600 -0.7177
   26MOL0     H 3502   1.317   9.961   3.699  1.1198  0.2589  0.5005
   26MOL0     H 3503   1.255   9.827   3.787 -0.4457 -0.0097  2.9675
   26MOL0     H 3504   1.225   9.935   4.005  0.2338  2.9034  1.1520
   26MOL0     H 3505   1.278  10.085   3.926  0.6156  0.1024 -0.8744
   26MOL0     H 3506   1.501  10.003   3.919  2.5595 -2.7218 -1.3795
   26MOL0     H 3507   1.447   9.831   3.909 -2.1075 -0.2775  0.0084
   26MOL0     H 3508   1.494   9.913   4.315  2.0856 -2.1991 -0.8280
   26MOL0     H 3509   0.866  10.129   3.780  2.6969  0.0319  3.8852
   26MOL0     H 3510   0.623  10.135   3.756  1.4427  1.5282 -0.4288
   27MOL0     O 3511   3.335   0.101   9.394 -0.3529  0.5703 -0.0823
   27MOL0     C 3512   3.311   0.043   9.290 -0.5683  0.4653 -0.4132
   27MOL0     O 3513   3.288   0.103   9.167 -0.3520  0.1409 -0.8822
   27MOL0     C 3514   3.277   0.239   9.152  0.1974 -0.6666 -0.7197
   27MOL0     C 3515   3.218   0.328   9.250 -0.9373 -0.5375  0.2934
   27MOL0     C 3516   3.216   0.472   9.231  0.4740  0.0394 -0.7794
   27MOL0     C 3517   3.287   0.523   9.126 -0.2281  0.1569  0.3122
   27MOL0     O 3518   3.285   0.661   9.120  0.5610 -0.2401  0.3120
   27MOL0     C 3519   3.411   0.729   9.106  0.8457 -0.2496  0.3899
   27MOL0     C 3520   3.406   0.866   9.177  0.4086 -0.2230  0.8799
   27MOL0     C 3521   3.327   0.977   9.104 -0.2793 -0.3201  0.9793
   27MOL0     C 3522   3.178   0.963   9.106  0.1919 -0.5606 -0.1806
   27MOL0     C 3523   3.109   1.088   9.045  0.2358 -0.3489 -0.3324
   27MOL0     C 3524   3.147   1.099   8.904  0.1942  0.1319  0.0789
   27MOL0     C 3525   3.023   1.154   8.836 -0.1500  0.5188  0.2502
   27MOL0     C 3526   2.964   1.300   8.877  0.7231  0.7230 -0.3543
   27MOL0     N 3527   2.857   1.337   8.796  1.3008  0.6375 -0.4750
   27MOL0     C 3528   2.856   1.424   8.698  0.3677  0.7702  0.5710
   27MOL0     C 3529   2.727   1.434   8.648 -0.0423 -0.4935 -0.7406
   27MOL0     C 3530   2.674   1.515   8.538  0.6605 -0.5071  0.0670
   27MOL0     C 3531   2.783   1.620   8.489  0.7015  0.7582 -1.3314
   27MOL0     C 3532   2.716   1.703   8.388  0.0459  0.6752 -0.5180
   27MOL0     C 3533   2.807   1.804   8.322  0.5481 -0.2438  0.8961
   27MOL0     O 3534   2.896   1.738   8.240 -0.0797  0.3424 -0.5619
   27MOL0     C 3535   3.005   1.817   8.192  0.5809 -0.8898 -0.4658
   27MOL0     C 3536   3.029   1.957   8.212 -0.2676 -0.2767 -0.1369
   27MOL0     C 3537   3.142   2.027   8.171 -0.6548 -0.0690  0.2011
   27MOL0     C 3538   3.150   2.163   8.223 -0.0883  1.1081  0.3746
   27MOL0     C 3539   3.241   1.967   8.092  0.8159  0.2308 -0.2552
   27MOL0     C 3540   3.359   2.037   8.032  0.1762 -0.8974  0.5204
   27MOL0     O 3541   3.363   2.172   8.039  0.5984 -0.6243 -0.0347
   27MOL0     C 3542   3.469   2.231   7.974  0.1419 -0.6119  0.4162
   27MOL0     C 3543   3.604   2.227   8.019 -0.5162 -0.6443  0.5881
   27MOL0     C 3544   3.700   2.310   7.955 -0.4507  0.4305 -0.1373
   27MOL0     C 3545   3.669   2.394   7.842  0.5644  0.0679  0.2355
   27MOL0     O 3546   3.758   2.463   7.772 -0.0271 -0.0667 -0.4592
   27MOL0     C 3547   3.879   2.499   7.842  0.3777  0.1809  0.8111
   27MOL0     C 3548   3.961   2.589   7.756 -0.0506 -0.7689  0.4448
   27MOL0     C 3549   3.948   2.738   7.777  0.4274  0.7158  0.6803
   27MOL0     C 3550   4.053   2.801   7.692 -0.2804 -0.8207  0.7637
   27MOL0     C 3551   4.006   2.943   7.661 -0.7375  0.0331  0.1192
   27MOL0     C 3552   3.918   2.943   7.531  0.1283 -0.4486  0.3724
   27MOL0     C 3553   3.851   3.082   7.496  0.7686  0.7128  0.0443
   27MOL0     C 3554   3.768   3.111   7.376 -0.9432 -0.2061 -1.0797
   27MOL0    Cl 3555   3.867   3.167   7.230  0.1279  0.0198  0.0549
   27MOL0     C 3556   3.537   2.382   7.795 -0.3914  0.3681  0.4320
   27MOL0     C 3557   3.445   2.314   7.864 -0.1424  0.1593 -0.6514
   27MOL0     O 3558   3.445   1.974   7.969  0.3998 -0.4266 -0.5131
   27MOL0     C 3559   3.222   1.826   8.072  0.3505  0.7024 -0.0433
   27MOL0     C 3560   3.112   1.757   8.128  1.2483  0.5566  0.5375
   27MOL0     N 3561   2.650   1.343   8.718 -0.2792  0.1872 -0.3317
   27MOL0     N 3562   2.728   1.290   8.809 -0.7708 -0.0119  0.4532
   27MOL0     C 3563   3.349   0.437   9.031 -0.1594  0.5847 -0.3172
   27MOL0     C 3564   3.345   0.299   9.050 -0.0916 -0.6186 -1.0428
   27MOL0     C 3565   3.306  -0.106   9.292 -0.7901 -0.0937  0.7043
   27MOL0     C 3566   3.312  -0.176   9.170 -0.4639 -0.4253  0.6507
   27MOL0     C 3567   3.317  -0.314   9.172  0.1015  0.2043 -1.0320
   27MOL0     C 3568   3.308  -0.390   9.297  0.2378  0.0610  1.2099
   27MOL0     O 3569   3.293  -0.521   9.293 -0.7146 -0.3069  0.0741
   27MOL0     C 3570   3.290  -0.587   9.169  0.3729 -0.4322  0.2570
   27MOL0     C 3571   3.260  -0.729   9.176 -0.1227  0.0431 -0.5349
   27MOL0     C 3572   3.382  -0.792   9.238 -0.6615 -0.3546  0.1993
   27MOL0     C 3573   3.510  -0.793   9.146  0.3310 -0.2642 -0.1972
   27MOL0     C 3574   3.476  -0.864   9.018 -0.0528  0.0480 -0.4303
   27MOL0     C 3575   3.435  -0.908   8.913 -0.6878  0.5607 -0.0867
   27MOL0     C 3576   3.303  -0.323   9.412  0.1428 -0.4018  0.6355
   27MOL0     C 3577   3.297  -0.183   9.412  0.0605  0.0627  0.2190
   27MOL0     H 3578   3.174   0.286   9.340 -1.4576 -1.5646 -0.4092
   27MOL0     H 3579   3.174   0.540   9.303  1.1136 -1.0451  0.6819
   27MOL0     H 3580   3.499   0.673   9.139 -0.0416 -0.6257  2.2209
   27MOL0     H 3581   3.429   0.733   8.998 -0.8465 -0.2087  0.0780
   27MOL0     H 3582   3.372   0.866   9.280 -1.0463  0.0457  0.4166
   27MOL0     H 3583   3.509   0.902   9.167  0.2009  0.0826 -0.3799
   27MOL0     H 3584   3.340   1.071   9.158  0.8626  0.4861 -0.6137
   27MOL0     H 3585   3.374   0.995   9.007  0.3534 -1.6263  1.0328
   27MOL0     H 3586   3.146   0.875   9.049  0.5298  0.4028 -1.8958
   27MOL0     H 3587   3.142   0.960   9.210  2.9533  0.9519  0.9095
   27MOL0     H 3588   3.001   1.072   9.052  0.2493 -0.5776 -0.6351
   27MOL0     H 3589   3.140   1.176   9.102 -2.0036  1.2560 -1.4659
   27MOL0     H 3590   3.221   1.178   8.887 -0.8418  1.1114 -0.0334
   27MOL0     H 3591   3.160   1.004   8.852 -1.1129 -1.0700  1.8216
   27MOL0     H 3592   3.047   1.166   8.730  0.8313 -2.1618  0.0956
   27MOL0     H 3593   2.949   1.074   8.848  0.8251 -0.6065 -0.9044
   27MOL0     H 3594   3.038   1.379   8.870  1.7284 -0.2250 -0.6760
   27MOL0     H 3595   2.929   1.296   8.981  0.7559  1.3201 -0.3209
   27MOL0     H 3596   2.941   1.473   8.652  0.6916  0.0998  0.4437
   27MOL0     H 3597   2.643   1.445   8.460 -0.6469 -3.4468  3.0133
   27MOL0     H 3598   2.586   1.568   8.577  2.6096  2.8072  0.3543
   27MOL0     H 3599   2.877   1.574   8.458  1.7612  2.0213 -0.1076
   27MOL0     H 3600   2.805   1.677   8.579 -0.5430  1.5744 -1.5204
   27MOL0     H 3601   2.635   1.760   8.434  0.4907  0.7066  0.2553
   27MOL0     H 3602   2.677   1.630   8.317  0.5949 -0.9687  0.7797
   27MOL0     H 3603   2.875   1.846   8.397  2.7085 -2.0546  0.1027
   27MOL0     H 3604   2.750   1.880   8.270  0.2482 -1.7189 -1.0404
   27MOL0     H 3605   2.959   2.007   8.279  1.0865 -0.1577  1.2545
   27MOL0     H 3606   3.074   2.180   8.300 -0.9851 -0.0576 -0.2340
   27MOL0     H 3607   3.247   2.179   8.272 -0.0070  0.3039  0.4853
   27MOL0     H 3608   3.125   2.232   8.142 -0.8643  0.0937 -0.2723
   27MOL0     H 3609   3.629   2.178   8.113  0.2845  0.0896  0.7733
   27MOL0     H 3610   3.805   2.302   7.979 -0.1565 -1.9530 -1.8484
   27MOL0     H 3611   3.864   2.553   7.936 -0.8430  1.1979  0.0594
   27MOL0     H 3612   3.941   2.411   7.861  0.6169  0.5845  2.0007
   27MOL0     H 3613   4.067   2.572   7.775 -0.0236  0.7312  1.8635
   27MOL0     H 3614   3.937   2.570   7.651 -2.6140  1.9921  0.3836
   27MOL0     H 3615   3.963   2.764   7.882 -2.0858  1.6615  0.8612
   27MOL0     H 3616   3.845   2.765   7.753  0.2131 -0.9519 -0.5020
   27MOL0     H 3617   4.152   2.799   7.740  0.1456 -5.0577  0.0874
   27MOL0     H 3618   4.066   2.758   7.592  3.0949 -0.1584  0.7690
   27MOL0     H 3619   4.083   3.016   7.634  0.4237 -0.9169  0.7889
   27MOL0     H 3620   3.946   2.978   7.745 -1.1900 -1.6203  0.5151
   27MOL0     H 3621   3.981   2.916   7.446  1.0790  0.4685  0.7675
   27MOL0     H 3622   3.831   2.880   7.547 -1.3225  0.9740 -1.3878
   27MOL0     H 3623   3.932   3.156   7.497  0.0810  1.4866 -0.0125
   27MOL0     H 3624   3.782   3.104   7.578 -1.4408  1.2576 -1.8444
   27MOL0     H 3625   3.695   3.188   7.402 -0.3131 -0.0731  0.4044
   27MOL0     H 3626   3.720   3.016   7.351 -0.3700  0.1738 -3.9381
   27MOL0     H 3627   3.503   2.438   7.709  4.4660  1.2271 -1.2451
   27MOL0     H 3628   3.340   2.304   7.837 -0.0365  1.0436 -1.4781
   27MOL0     H 3629   3.305   1.781   8.018 -1.1384 -0.3832 -1.5252
   27MOL0     H 3630   3.111   1.652   8.099  0.9597  0.7518 -0.1643
   27MOL0     H 3631   3.403   0.475   8.946 -0.6845 -0.1930 -1.0155
   27MOL0     H 3632   3.395   0.229   8.984  2.9739 -0.9106  1.3491
   27MOL0     H 3633   3.313  -0.121   9.077 -1.2978 -2.9781 -0.9562
   27MOL0     H 3634   3.316  -0.352   9.070 -1.8315  0.2623 -1.0723
   27MOL0     H 3635   3.213  -0.539   9.109  0.5409 -0.4168  0.0508
   27MOL0     H 3636   3.384  -0.568   9.117  0.0629 -1.9347 -0.9140
   27MOL0     H 3637   3.234  -0.777   9.081 -1.5100 -0.3924  0.0482
   27MOL0     H 3638   3.170  -0.746   9.236 -0.7061 -2.3078 -1.9307
   27MOL0     H 3639   3.371  -0.897   9.265  0.6032 -0.9287 -1.3391
   27MOL0     H 3640   3.404  -0.733   9.328 -3.1913 -0.6856  1.1028
   27MOL0     H 3641   3.595  -0.844   9.191  1.6435  3.0303  1.3865
   27MOL0     H 3642   3.539  -0.688   9.139 -0.5945  0.0687  0.6745
   27MOL0     H 3643   3.409  -0.941   8.814  0.7330  0.6006 -0.4987
   27MOL0     H 3644   3.293  -0.381   9.503  0.6319 -0.5221  0.6156
   27MOL0     H 3645   3.289  -0.135   9.510  0.9865  0.8865 -0.0955
   28MOL0     O 3646   7.390  10.586   9.850  0.0392  0.5917  0.2216
   28MOL0     C 3647   7.351  10.541   9.961  0.0475  0.4799  0.3188
   28MOL0     O 3648   7.279  10.606  10.061  0.6209 -0.2506  1.1919
   28MOL0     C 3649   7.241  10.738  10.024  0.0210  0.3663 -0.5582
   28MOL0     C 3650   7.311  10.843  10.075 -0.8525  0.4724  0.1933
   28MOL0     C 3651   7.266  10.970  10.065  1.4338 -0.7585 -0.0420
   28MOL0     C 3652   7.157  11.000   9.985 -1.0792 -0.0811 -0.1986
   28MOL0     O 3653   7.114  11.130   9.977  0.1404 -0.0625  0.1510
   28MOL0     C 3654   7.038  11.167   9.860 -0.0523  0.1258 -0.3354
   28MOL0     C 3655   7.021  11.310   9.860 -0.5606  0.1490 -0.7411
   28MOL0     C 3656   6.956  11.361   9.726  0.2373  1.1432  0.1508
   28MOL0     C 3657   6.898  11.503   9.729  0.0470 -0.8628  0.2519
   28MOL0     C 3658   6.908  11.572   9.597 -0.3035  0.8149  0.0788
   28MOL0     C 3659   6.887  11.718   9.605 -0.8714 -0.2867  0.2569
   28MOL0     C 3660   6.752  11.773   9.653  0.2784  1.3099  0.1951
   28MOL0     C 3661   6.636  11.683   9.599  1.0249 -0.0421  0.2074
   28MOL0     N 3662   6.500  11.733   9.646  0.4400 -0.4735 -0.0274
   28MOL0     C 3663   6.422  11.833   9.589 -0.5435  0.4085 -0.5434
   28MOL0     C 3664   6.326  11.845   9.678  0.6923 -0.1244  1.2757
   28MOL0     C 3665   6.211  11.941   9.659 -0.0384  0.4912  0.0386
   28MOL0     C 3666   6.106  11.858   9.581  1.0095  0.3546  0.9816
   28MOL0     C 3667   5.999  11.967   9.536  0.1080 -0.0045 -0.2331
   28MOL0     C 3668   5.885  11.914   9.453  0.8660  0.0576  0.4231
   28MOL0     O 3669   5.784  12.018   9.446  0.2564 -0.4568 -0.0359
   28MOL0     C 3670   5.675  11.981   9.374  0.7972  0.3438 -0.4661
   28MOL0     C 3671   5.656  12.011   9.240 -0.0683  1.0559 -0.1305
   28MOL0     C 3672   5.540  11.973   9.172  0.1928 -0.6816  0.1168
   28MOL0     C 3673   5.523  11.999   9.020 -0.8164 -0.3131  0.0399
   28MOL0     C 3674   5.436  11.908   9.239 -0.1348 -0.5743 -0.0134
   28MOL0     C 3675   5.296  11.877   9.183 -0.0118  0.2082 -0.5172
   28MOL0     O 3676   5.224  11.793   9.250  0.7439  0.6201 -0.9744
   28MOL0     C 3677   5.098  11.775   9.203 -0.0263 -0.1757 -0.0718
   28MOL0     C 3678   5.068  11.667   9.116  0.0825 -0.3420  0.0396
   28MOL0     C 3679   4.938  11.646   9.071 -0.2180  0.6638  0.8711
   28MOL0     C 3680   4.828  11.726   9.111 -0.4306  1.1726  0.6244
   28MOL0     O 3681   4.708  11.692   9.065 -0.0039 -0.4951 -0.0596
   28MOL0     C 3682   4.617  11.794   9.030 -0.5842 -0.4230  0.9273
   28MOL0     C 3683   4.640  11.873   8.899 -0.0619  0.0975  0.0613
   28MOL0     C 3684   4.722  11.791   8.795  0.9332  0.8219 -0.1842
   28MOL0     C 3685   4.862  11.828   8.792 -0.4179  0.4877  0.3549
   28MOL0     C 3686   4.949  11.733   8.706 -0.1349  0.4004  0.2644
   28MOL0     C 3687   5.093  11.798   8.684  0.5003  0.5270 -0.0030
   28MOL0     C 3688   5.191  11.690   8.636  0.3500 -0.7596  0.1647
   28MOL0     C 3689   5.232  11.592   8.751  0.4551  0.3350  0.2809
   28MOL0    Cl 3690   5.307  11.667   8.885 -0.4084  0.2530 -0.1109
   28MOL0     C 3691   4.853  11.819   9.211  0.6116 -0.3724  0.8504
   28MOL0     C 3692   4.984  11.847   9.258  0.8182  0.2113 -0.3849
   28MOL0     O 3693   5.259  11.941   9.085 -0.2008  0.2421 -0.2628
   28MOL0     C 3694   5.456  11.880   9.373  0.3671 -0.3324  0.1534
   28MOL0     C 3695   5.574  11.904   9.444  0.0023  0.9650  0.2142
   28MOL0     N 3696   6.355  11.776   9.796  0.6791  0.0057  0.2752
   28MOL0     N 3697   6.461  11.710   9.774  0.4373 -0.5757  0.4632
   28MOL0     C 3698   7.102  10.893   9.913  1.0963  0.5637 -0.2073
   28MOL0     C 3699   7.139  10.763   9.938  0.0865 -0.5406  0.2051
   28MOL0     C 3700   7.386  10.402   9.989 -0.0004 -0.1794 -0.6615
   28MOL0     C 3701   7.458  10.322   9.902 -0.3947  0.1563 -0.0653
   28MOL0     C 3702   7.477  10.189   9.934  0.1441  0.0096  0.5928
   28MOL0     C 3703   7.450  10.132  10.060  0.1606  0.0910  0.0111
   28MOL0     O 3704   7.462   9.996  10.092  0.1528  0.0569  0.4744
   28MOL0     C 3705   7.441   9.941  10.219 -0.6935 -0.0886 -0.5861
   28MOL0     C 3706   7.451   9.790  10.216  0.3406 -0.2278  0.4055
   28MOL0     C 3707   7.383   9.725  10.335 -0.2684  0.1378  1.4140
   28MOL0     C 3708   7.493   9.703  10.439  0.4467  0.2261 -0.3775
   28MOL0     C 3709   7.425   9.700  10.571 -0.8807  0.5311 -0.1262
   28MOL0     C 3710   7.355   9.684  10.670 -0.1086  1.0031 -0.8888
   28MOL0     C 3711   7.402  10.225  10.150 -0.5250  0.9377  0.0089
   28MOL0     C 3712   7.371  10.350  10.113 -0.2002 -0.4193 -0.9053
   28MOL0     H 3713   7.399  10.823  10.134 -0.2799  0.3187 -0.6930
   28MOL0     H 3714   7.311  11.055  10.116 -0.8306 -0.9667  2.5442
   28MOL0     H 3715   7.092  11.129   9.772 -0.7836  0.8843 -1.1413
   28MOL0     H 3716   6.940  11.120   9.865  0.8105 -2.1482 -2.4746
   28MOL0     H 3717   6.957  11.336   9.946  1.3163  1.8668  0.2138
   28MOL0     H 3718   7.121  11.354   9.866 -0.5476  0.1604 -1.0213
   28MOL0     H 3719   7.025  11.356   9.641 -0.3111  0.8779 -0.2798
   28MOL0     H 3720   6.876  11.291   9.703  2.4137 -0.6587 -2.6455
   28MOL0     H 3721   6.789  11.498   9.741 -0.1404 -2.6816 -1.6934
   28MOL0     H 3722   6.945  11.567   9.804 -1.2266  1.3844 -0.7530
   28MOL0     H 3723   7.013  11.573   9.565 -0.5583  0.4818 -0.8035
   28MOL0     H 3724   6.856  11.516   9.518  1.6337 -4.6162  2.1873
   28MOL0     H 3725   6.964  11.772   9.661 -2.6559  0.5635  1.9726
   28MOL0     H 3726   6.885  11.758   9.503 -0.4880  0.8794  0.6936
   28MOL0     H 3727   6.744  11.782   9.761 -0.5753  1.5032  0.1262
   28MOL0     H 3728   6.732  11.872   9.612 -2.1785  0.4980 -0.7615
   28MOL0     H 3729   6.635  11.580   9.638 -0.2437  0.0993  0.6095
   28MOL0     H 3730   6.637  11.675   9.490 -0.2016  0.9652  0.1042
   28MOL0     H 3731   6.435  11.867   9.487  0.2759  1.7851 -0.0089
   28MOL0     H 3732   6.170  11.967   9.757  0.7548 -1.9944  1.1238
   28MOL0     H 3733   6.246  12.026   9.601  3.4358 -0.9271 -0.2383
   28MOL0     H 3734   6.055  11.786   9.647  0.4108  1.2733  1.5479
   28MOL0     H 3735   6.157  11.807   9.499 -1.9884 -1.5128  0.1055
   28MOL0     H 3736   6.045  12.048   9.479  2.1402 -0.5751  0.4886
   28MOL0     H 3737   5.960  12.004   9.631  2.8366 -3.0968  2.3582
   28MOL0     H 3738   5.839  11.819   9.482  0.9462 -0.5695 -1.3783
   28MOL0     H 3739   5.929  11.889   9.356 -0.1489 -2.5790  0.5591
   28MOL0     H 3740   5.728  12.061   9.176  1.2982 -1.8708 -1.0869
   28MOL0     H 3741   5.508  11.906   8.963  1.4599 -1.6386  1.4262
   28MOL0     H 3742   5.453  12.077   8.989  0.3806  1.6045  1.9734
   28MOL0     H 3743   5.625  12.032   9.000 -0.4371 -1.3835  0.1054
   28MOL0     H 3744   5.148  11.612   9.067  0.1857  0.6963 -0.9998
   28MOL0     H 3745   4.930  11.576   8.988  2.6832 -0.6087  1.5396
   28MOL0     H 3746   4.519  11.746   9.019  1.0679 -3.5371 -1.8620
   28MOL0     H 3747   4.600  11.863   9.113 -0.8537  1.8796 -0.9664
   28MOL0     H 3748   4.556  11.918   8.847  2.3012  2.4475 -2.0570
   28MOL0     H 3749   4.692  11.963   8.935 -1.1717  0.1598  1.5724
   28MOL0     H 3750   4.682  11.810   8.695 -1.0703  2.9723  0.9010
   28MOL0     H 3751   4.712  11.683   8.804  1.7816  0.8490  1.4102
   28MOL0     H 3752   4.864  11.923   8.739 -0.8903 -1.0419 -2.5879
   28MOL0     H 3753   4.920  11.847   8.883  2.5525 -0.8130 -1.1471
   28MOL0     H 3754   4.906  11.699   8.611  1.6444  0.3157 -0.5462
   28MOL0     H 3755   4.953  11.643   8.768  0.4943 -1.4878 -2.3274
   28MOL0     H 3756   5.086  11.868   8.600  0.3214  0.2586 -0.2146
   28MOL0     H 3757   5.127  11.852   8.773  2.0018  2.5672 -1.7190
   28MOL0     H 3758   5.270  11.757   8.601  0.7788  0.0546  2.4801
   28MOL0     H 3759   5.159  11.643   8.543  0.5659  0.6756 -0.6718
   28MOL0     H 3760   5.301  11.516   8.713  0.1990  0.8289 -1.2429
   28MOL0     H 3761   5.144  11.539   8.787  1.4841 -1.9010 -0.3266
   28MOL0     H 3762   4.782  11.879   9.266 -1.5181 -2.7972  0.9460
   28MOL0     H 3763   4.991  11.921   9.338  2.8055 -0.4658  0.1475
   28MOL0     H 3764   5.373  11.832   9.425 -0.0385 -3.2791 -2.8113
   28MOL0     H 3765   5.575  11.882   9.550  0.5959 -0.7852 -0.1158
   28MOL0     H 3766   7.024  10.915   9.841 -1.4851  0.7994  2.4655
   28MOL0     H 3767   7.075  10.686   9.896  3.0790 -1.7614 -2.5914
   28MOL0     H 3768   7.498  10.357   9.807  2.0951  0.0235  0.8623
   28MOL0     H 3769   7.509  10.113   9.864  0.0110  0.3744  0.1383
   28MOL0     H 3770   7.515   9.972  10.293 -2.0376 -1.7149  1.5640
   28MOL0     H 3771   7.342   9.969  10.256  0.3939  1.4154  1.3581
   28MOL0     H 3772   7.552   9.756  10.194  0.9834  2.9983 -2.5185
   28MOL0     H 3773   7.389   9.756  10.133 -2.1137 -2.7668  3.0419
   28MOL0     H 3774   7.337   9.629  10.306 -3.4522  1.8101  0.4349
   28MOL0     H 3775   7.300   9.790  10.362 -1.2850 -0.2162 -0.6489
   28MOL0     H 3776   7.569   9.782  10.440  0.4470  0.2438 -1.3045
   28MOL0     H 3777   7.556   9.620  10.408  0.4327  1.5239 -4.5170
   28MOL0     H 3778   7.296   9.680  10.759  1.1266 -0.7987 -0.0817
   28MOL0     H 3779   7.371  10.188  10.247 -0.6145  1.4845  0.1913
   28MOL0     H 3780   7.311  10.395  10.191 -1.0154 -1.7701 -0.7177
   29MOL0     O 3781   7.058   2.689   5.580  0.4785 -1.1662  0.2075
   29MOL0     C 3782   7.052   2.638   5.689  0.1351  0.3175  0.3618
   29MOL0     O 3783   6.943   2.619   5.760 -1.6254 -0.6236 -0.0893
   29MOL0     C 3784   6.829   2.643   5.695  0.4728 -0.0280 -1.5561
   29MOL0     C 3785   6.794   2.570   5.577  0.1381 -0.6571  0.9211
   29MOL0     C 3786   6.675   2.605   5.505  0.8775  0.1142 -1.2409
   29MOL0     C 3787   6.593   2.706   5.556 -0.1883 -0.3055 -0.8303
   29MOL0     O 3788   6.470   2.747   5.495  0.3510 -0.3866  0.4607
   29MOL0     C 3789   6.478   2.799   5.361  0.2355  0.0712  0.0128
   29MOL0     C 3790   6.389   2.714   5.276 -0.5699  0.1563  0.4098
   29MOL0     C 3791   6.254   2.743   5.299 -0.7236 -0.9191 -0.0401
   29MOL0     C 3792   6.165   2.673   5.196 -0.6041  0.1413 -0.9209
   29MOL0     C 3793   6.029   2.711   5.219 -0.2253 -0.2400 -0.2868
   29MOL0     C 3794   5.994   2.835   5.134  0.0978 -0.2602  0.0112
   29MOL0     C 3795   5.840   2.864   5.130 -0.8630  0.3771 -0.7818
   29MOL0     C 3796   5.791   2.931   5.262  0.3362  0.5026  0.3065
   29MOL0     N 3797   5.649   2.910   5.263  0.1333 -0.3687 -0.6021
   29MOL0     C 3798   5.558   3.013   5.244 -1.0911  0.2520  1.3194
   29MOL0     C 3799   5.440   2.966   5.296  0.0183  0.8029  0.4049
   29MOL0     C 3800   5.320   3.040   5.315  0.1039  0.4858 -0.1423
   29MOL0     C 3801   5.191   2.964   5.274 -0.0186  1.0693  0.4329
   29MOL0     C 3802   5.072   3.004   5.362  0.4033 -0.4189 -0.3271
   29MOL0     C 3803   4.942   2.966   5.301  1.2760  0.3393 -0.1997
   29MOL0     O 3804   4.856   2.945   5.415  0.5450  0.4598 -0.9635
   29MOL0     C 3805   4.760   2.847   5.390  0.1717 -0.3228 -0.6094
   29MOL0     C 3806   4.787   2.710   5.395 -0.9475  0.4230  0.1827
   29MOL0     C 3807   4.684   2.617   5.383 -1.2080  0.1586  0.1619
   29MOL0     C 3808   4.715   2.457   5.395  1.1578  0.6578  0.1950
   29MOL0     C 3809   4.558   2.667   5.347  0.1223  0.0419 -0.5050
   29MOL0     C 3810   4.431   2.588   5.339 -0.9541 -0.3415  0.7822
   29MOL0     O 3811   4.316   2.655   5.302  0.2336  0.2646 -0.2316
   29MOL0     C 3812   4.188   2.612   5.331 -0.5153  0.3330 -0.1057
   29MOL0     C 3813   4.096   2.666   5.238 -0.4083  0.2360 -0.1557
   29MOL0     C 3814   3.963   2.625   5.259 -0.0912 -0.3621 -0.8138
   29MOL0     C 3815   3.916   2.529   5.355  0.2943 -0.5669  0.8866
   29MOL0     O 3816   3.784   2.495   5.345  0.5395  0.8634 -0.1502
   29MOL0     C 3817   3.745   2.378   5.425 -0.8733  0.8078 -0.1896
   29MOL0     C 3818   3.597   2.352   5.412 -0.2816  0.6201  0.2252
   29MOL0     C 3819   3.555   2.227   5.492 -0.3938  0.0700  0.4959
   29MOL0     C 3820   3.401   2.204   5.483 -0.9759 -0.6565  0.7575
   29MOL0     C 3821   3.305   2.309   5.549 -0.0486  0.5670  0.2652
   29MOL0     C 3822   3.171   2.306   5.479  0.3921  0.1627  0.2500
   29MOL0     C 3823   3.055   2.368   5.561  0.0646 -0.6460  0.0840
   29MOL0     C 3824   2.934   2.386   5.470 -0.0563 -0.5860 -0.2632
   29MOL0    Cl 3825   2.869   2.232   5.405  0.1767 -0.0450 -0.2106
   29MOL0     C 3826   4.013   2.473   5.431 -0.3180 -0.4240 -0.5177
   29MOL0     C 3827   4.149   2.514   5.424  0.2659 -0.3694  0.2569
   29MOL0     O 3828   4.439   2.465   5.361 -0.5658 -0.1802  0.9369
   29MOL0     C 3829   4.534   2.810   5.343 -0.2251 -0.0312 -0.7851
   29MOL0     C 3830   4.632   2.897   5.372 -0.5339  0.4421 -0.6541
   29MOL0     N 3831   5.466   2.839   5.343 -0.6725  0.2719  0.1245
   29MOL0     N 3832   5.589   2.807   5.325 -0.0172  0.4023 -0.2308
   29MOL0     C 3833   6.625   2.781   5.675  1.3055 -0.0050  0.1627
   29MOL0     C 3834   6.740   2.745   5.747 -0.0701 -0.1494 -0.9856
   29MOL0     C 3835   7.179   2.595   5.760  0.6989 -0.8376 -0.0350
   29MOL0     C 3836   7.189   2.605   5.897  0.7458  0.0160 -1.2798
   29MOL0     C 3837   7.309   2.573   5.959  0.4069 -0.5917 -0.1135
   29MOL0     C 3838   7.420   2.543   5.875  0.3239  0.2477 -0.2974
   29MOL0     O 3839   7.538   2.524   5.938 -0.4023 -1.5589 -1.1140
   29MOL0     C 3840   7.654   2.495   5.871  0.9055  0.3455 -0.0977
   29MOL0     C 3841   7.778   2.474   5.963 -0.1053 -0.1328 -0.7685
   29MOL0     C 3842   7.896   2.416   5.868  0.1425  0.3759 -1.0013
   29MOL0     C 3843   7.957   2.524   5.783 -0.0142 -0.0991 -0.4303
   29MOL0     C 3844   8.086   2.477   5.735  0.4577  0.2106 -0.0974
   29MOL0     C 3845   8.190   2.450   5.679 -0.0407 -0.0395 -0.2982
   29MOL0     C 3846   7.412   2.537   5.737 -0.4126  0.0189 -0.5274
   29MOL0     C 3847   7.286   2.554   5.680 -0.3066 -0.7297 -0.3748
   29MOL0     H 3848   6.858   2.493   5.536 -0.0103  0.6300 -1.9309
   29MOL0     H 3849   6.648   2.542   5.421 -0.0393 -1.6496  0.3147
   29MOL0     H 3850   6.457   2.906   5.352  0.9636  0.1354 -1.1228
   29MOL0     H 3851   6.583   2.800   5.330  0.7310 -1.7957  1.4562
   29MOL0     H 3852   6.416   2.745   5.174  0.7551  0.1954  0.7498
   29MOL0     H 3853   6.409   2.606   5.277 -3.1326 -0.4102 -1.2520
   29MOL0     H 3854   6.225   2.710   5.400 -2.5143  1.3776  0.2722
   29MOL0     H 3855   6.228   2.849   5.299 -3.5116 -1.5015 -0.7220
   29MOL0     H 3856   6.202   2.685   5.093 -0.5092 -1.2254 -1.0660
   29MOL0     H 3857   6.172   2.566   5.220  0.6244  0.0207 -1.7083
   29MOL0     H 3858   5.967   2.625   5.193 -1.4692  1.3435 -3.0354
   29MOL0     H 3859   6.010   2.730   5.325 -0.6731  0.3023 -0.4590
   29MOL0     H 3860   6.036   2.926   5.179  0.0795  0.8943 -2.1802
   29MOL0     H 3861   6.032   2.822   5.032 -1.0504 -3.2521 -0.1255
   29MOL0     H 3862   5.803   2.912   5.039 -1.3614 -0.1461 -0.8591
   29MOL0     H 3863   5.797   2.764   5.125 -1.3765  0.5459  0.0352
   29MOL0     H 3864   5.825   3.035   5.259  1.8173  0.0907  1.4391
   29MOL0     H 3865   5.837   2.884   5.350 -1.2000 -4.0400 -1.0543
   29MOL0     H 3866   5.584   3.111   5.207 -1.0184  0.4966  2.0192
   29MOL0     H 3867   5.303   3.060   5.421 -0.5296 -2.9937  0.5107
   29MOL0     H 3868   5.334   3.140   5.272  2.5071  0.4119  0.3169
   29MOL0     H 3869   5.197   2.855   5.275 -3.2579  0.5488 -4.5059
   29MOL0     H 3870   5.165   2.983   5.170  0.8870 -1.1530 -0.2456
   29MOL0     H 3871   5.068   3.106   5.399  0.5461 -0.7594  0.6574
   29MOL0     H 3872   5.078   2.943   5.453 -3.2261  0.4576  0.6673
   29MOL0     H 3873   4.949   2.876   5.239 -1.5178 -0.2197  0.1873
   29MOL0     H 3874   4.904   3.047   5.238 -0.2435  0.2678  0.5893
   29MOL0     H 3875   4.891   2.680   5.406 -0.5094  1.5901 -0.5699
   29MOL0     H 3876   4.694   2.404   5.301  0.5866  0.7724  0.2515
   29MOL0     H 3877   4.821   2.435   5.407  1.0975 -1.4289 -2.2507
   29MOL0     H 3878   4.665   2.423   5.486  3.2760  0.4331  1.3325
   29MOL0     H 3879   4.138   2.747   5.180  4.0844 -0.4608  1.6493
   29MOL0     H 3880   3.886   2.675   5.201 -0.3231 -2.2254 -2.2303
   29MOL0     H 3881   3.806   2.292   5.400  1.1378  1.9622  0.4857
   29MOL0     H 3882   3.758   2.393   5.533  0.5619 -0.5933 -0.1318
   29MOL0     H 3883   3.542   2.440   5.445 -0.6087  2.0557 -3.5645
   29MOL0     H 3884   3.575   2.344   5.305 -2.0947  4.0078  0.2196
   29MOL0     H 3885   3.568   2.229   5.600  1.4488  2.3034  0.2997
   29MOL0     H 3886   3.620   2.145   5.462  0.3070  1.1987 -1.2517
   29MOL0     H 3887   3.383   2.199   5.375 -3.4800  2.0582  0.9313
   29MOL0     H 3888   3.374   2.107   5.527  1.9485 -0.8606  2.3577
   29MOL0     H 3889   3.348   2.409   5.555 -0.2615  0.8012 -1.4435
   29MOL0     H 3890   3.292   2.280   5.653  1.3078 -2.1406 -0.2278
   29MOL0     H 3891   3.171   2.342   5.376 -2.1094  1.8540  0.7373
   29MOL0     H 3892   3.137   2.203   5.467 -0.7188  0.7559 -2.2489
   29MOL0     H 3893   3.100   2.463   5.590  1.4076 -0.7261 -1.5962
   29MOL0     H 3894   3.028   2.316   5.654 -0.6698 -0.7936 -0.2073
   29MOL0     H 3895   2.954   2.456   5.388 -1.3950 -1.2956 -1.2358
   29MOL0     H 3896   2.853   2.428   5.530 -1.7560 -1.0985 -2.0947
   29MOL0     H 3897   4.001   2.384   5.492  2.5053 -0.3082  0.3668
   29MOL0     H 3898   4.232   2.461   5.468 -0.5269 -0.8284  1.2221
   29MOL0     H 3899   4.437   2.856   5.325  0.5191  1.1155 -2.0521
   29MOL0     H 3900   4.621   3.005   5.372 -2.2765  0.2850 -0.3405
   29MOL0     H 3901   6.561   2.858   5.717  0.4678  0.9449 -2.6101
   29MOL0     H 3902   6.761   2.793   5.842  1.5643 -0.5757 -1.0936
   29MOL0     H 3903   7.106   2.633   5.961  1.6512  1.1529 -0.5758
   29MOL0     H 3904   7.323   2.583   6.066  1.1838  0.0301 -0.2624
   29MOL0     H 3905   7.634   2.399   5.823  0.1734 -0.9396  2.6021
   29MOL0     H 3906   7.683   2.579   5.807  2.3679 -0.6707 -0.8356
   29MOL0     H 3907   7.754   2.404   6.044 -2.8251  0.7593 -0.7064
   29MOL0     H 3908   7.801   2.567   6.016  0.5047 -1.2097  0.9691
   29MOL0     H 3909   7.852   2.337   5.808 -1.0863 -0.8718  1.3862
   29MOL0     H 3910   7.972   2.374   5.936  1.3237  0.7779 -2.0325
   29MOL0     H 3911   7.973   2.615   5.842 -1.4275 -1.0093  1.4832
   29MOL0     H 3912   7.895   2.542   5.695 -1.4371 -0.8757  0.3783
   29MOL0     H 3913   8.285   2.424   5.636 -0.1781 -0.1013 -0.5699
   29MOL0     H 3914   7.492   2.508   5.669  1.1697  0.0544  1.2252
   29MOL0     H 3915   7.276   2.539   5.573  3.1439 -0.4039 -0.8454
   30MOL0     O 3916   1.563   3.846   6.933 -0.0882  0.0634  0.0439
   30MOL0     C 3917   1.645   3.773   6.873  0.2709 -0.9791  0.3528
   30MOL0     O 3918   1.779   3.794   6.859 -0.3130 -0.2950 -0.2196
   30MOL0     C 3919   1.841   3.892   6.939 -0.2547 -0.3275  0.5630
   30MOL0     C 3920   1.830   4.028   6.911  0.6817 -0.1825  0.4732
   30MOL0     C 3921   1.900   4.118   6.996  0.6928 -1.2237  0.8161
   30MOL0     C 3922   1.972   4.077   7.107 -0.2525  0.5235  0.6283
   30MOL0     O 3923   2.022   4.174   7.189 -1.0811 -0.0225  0.5671
   30MOL0     C 3924   1.967   4.174   7.319  0.2063  0.6626 -0.5505
   30MOL0     C 3925   1.836   4.229   7.325  0.4964 -0.5717  0.4803
   30MOL0     C 3926   1.772   4.231   7.460 -0.2595  0.4317  0.4691
   30MOL0     C 3927   1.829   4.342   7.552 -0.1561 -0.3801  0.1957
   30MOL0     C 3928   1.778   4.341   7.700  0.4026  0.3932  0.3285
   30MOL0     C 3929   1.844   4.455   7.774 -0.4279 -0.3094  0.5232
   30MOL0     C 3930   1.808   4.453   7.915  0.7088 -0.1646 -1.1060
   30MOL0     C 3931   1.777   4.592   7.980 -0.6469  0.7895 -0.0037
   30MOL0     N 3932   1.748   4.579   8.125  1.4048  0.0557  0.3966
   30MOL0     C 3933   1.856   4.546   8.207  0.0503 -0.2118  0.5042
   30MOL0     C 3934   1.806   4.564   8.330 -0.6190  0.3881 -0.2419
   30MOL0     C 3935   1.893   4.552   8.455 -0.3248  0.0473  0.7139
   30MOL0     C 3936   1.821   4.577   8.585 -0.5128 -0.1192  0.5320
   30MOL0     C 3937   1.908   4.532   8.712  0.2396 -0.1393 -0.2705
   30MOL0     C 3938   1.823   4.544   8.842 -0.5630 -0.1500  0.5045
   30MOL0     O 3939   1.719   4.442   8.840  0.4305  0.3577 -0.0480
   30MOL0     C 3940   1.631   4.440   8.949  0.4945  0.6944  0.7280
   30MOL0     C 3941   1.625   4.529   9.058 -0.0887  0.0361  0.9778
   30MOL0     C 3942   1.518   4.531   9.155  0.1860  0.5076 -0.0045
   30MOL0     C 3943   1.529   4.639   9.255  0.1334  0.6004 -0.9075
   30MOL0     C 3944   1.424   4.416   9.148  0.9281  0.6492 -0.8615
   30MOL0     C 3945   1.322   4.391   9.251 -0.0453 -0.0800 -0.3370
   30MOL0     O 3946   1.308   4.483   9.353  0.1811  0.0724 -0.2903
   30MOL0     C 3947   1.207   4.452   9.445 -0.2161 -0.3127 -0.4286
   30MOL0     C 3948   1.075   4.452   9.413  0.1816  0.2867  0.6950
   30MOL0     C 3949   0.977   4.422   9.503  0.2980 -0.8015  0.3192
   30MOL0     C 3950   0.997   4.396   9.636  0.7737  0.5363  0.3573
   30MOL0     O 3951   0.886   4.366   9.714 -0.2772 -0.0881 -0.3309
   30MOL0     C 3952   0.905   4.272   9.820 -0.1226  0.4999 -0.8375
   30MOL0     C 3953   0.815   4.152   9.792 -0.5140 -0.0826 -1.4215
   30MOL0     C 3954   0.845   4.088   9.659  0.5145 -0.6768  0.5875
   30MOL0     C 3955   0.722   3.994   9.623 -0.2471  0.4655 -0.8686
   30MOL0     C 3956   0.734   3.905   9.500 -0.5915 -0.7134  0.2792
   30MOL0     C 3957   0.812   3.773   9.516 -1.3185 -0.3192  0.1707
   30MOL0     C 3958   0.836   3.693   9.393 -0.6454  0.6045  0.3135
   30MOL0     C 3959   0.711   3.598   9.392  0.0120  0.8444 -0.0337
   30MOL0    Cl 3960   0.719   3.470   9.519 -0.0460  0.0215  0.0533
   30MOL0     C 3961   1.129   4.417   9.679  0.4271  0.2404  0.3537
   30MOL0     C 3962   1.238   4.440   9.586 -0.0052  0.2256  0.1347
   30MOL0     O 3963   1.253   4.293   9.245  0.0106  0.2351  0.4103
   30MOL0     C 3964   1.437   4.327   9.037  0.1965  0.3112  0.6565
   30MOL0     C 3965   1.534   4.338   8.942 -0.7140  0.5602  0.3078
   30MOL0     N 3966   1.676   4.626   8.315  0.3211 -0.3183 -0.3354
   30MOL0     N 3967   1.645   4.632   8.192  0.1592 -0.2323 -0.2792
   30MOL0     C 3968   1.981   3.940   7.128 -0.5703  0.1306  0.8641
   30MOL0     C 3969   1.917   3.844   7.042  0.3079  0.2924 -0.1931
   30MOL0     C 3970   1.592   3.653   6.807  0.7241 -0.3599 -0.3486
   30MOL0     C 3971   1.446   3.628   6.808 -0.9439  0.3810  0.0377
   30MOL0     C 3972   1.392   3.502   6.762 -0.9639 -0.4508 -0.9004
   30MOL0     C 3973   1.480   3.411   6.707 -0.1481 -0.0002 -0.1655
   30MOL0     O 3974   1.430   3.295   6.652 -0.2640  0.4704  0.1404
   30MOL0     C 3975   1.509   3.225   6.553  0.1658  0.0613 -0.1189
   30MOL0     C 3976   1.589   3.102   6.610  0.3387  0.5133 -0.5317
   30MOL0     C 3977   1.658   3.026   6.490  0.2131 -0.2648  0.0801
   30MOL0     C 3978   1.731   3.115   6.392  0.0583 -0.5426  0.3226
   30MOL0     C 3979   1.834   3.197   6.453  1.1923  0.1826 -0.0064
   30MOL0     C 3980   1.923   3.263   6.485  0.3841  0.3445 -0.8034
   30MOL0     C 3981   1.620   3.426   6.722  0.4920 -0.6544 -1.0892
   30MOL0     C 3982   1.672   3.547   6.762 -0.4492  0.0068  0.1444
   30MOL0     H 3983   1.787   4.062   6.817 -0.7045  2.1329  1.8613
   30MOL0     H 3984   1.888   4.225   6.979 -1.4972 -1.7836 -1.7142
   30MOL0     H 3985   1.965   4.075   7.366 -0.2494  0.5767 -0.7417
   30MOL0     H 3986   2.034   4.235   7.380  1.5357 -1.6536  0.4565
   30MOL0     H 3987   1.848   4.334   7.299  0.5585  0.8318  5.2253
   30MOL0     H 3988   1.778   4.178   7.248  0.6987  0.0993 -0.1248
   30MOL0     H 3989   1.665   4.247   7.444  0.0679  0.4163 -2.0492
   30MOL0     H 3990   1.787   4.135   7.511  2.2858  0.6758  0.3216
   30MOL0     H 3991   1.933   4.310   7.557  0.3317  1.1055 -0.0997
   30MOL0     H 3992   1.847   4.445   7.518 -1.0714 -0.1633  0.3406
   30MOL0     H 3993   1.670   4.350   7.688  0.7803  1.7155 -4.5464
   30MOL0     H 3994   1.804   4.240   7.734  0.4203  1.2616  3.0594
   30MOL0     H 3995   1.953   4.455   7.760 -0.2732  3.7970  0.5866
   30MOL0     H 3996   1.809   4.551   7.733 -0.9802 -0.2575  1.0985
   30MOL0     H 3997   1.730   4.383   7.945 -1.1771  1.8294 -1.0769
   30MOL0     H 3998   1.901   4.418   7.961  1.2314  0.5599 -1.5896
   30MOL0     H 3999   1.689   4.626   7.924 -2.1120 -3.6479 -0.7633
   30MOL0     H 4000   1.851   4.670   7.957  0.3368 -0.2834 -0.5677
   30MOL0     H 4001   1.953   4.501   8.186  0.1299  0.0135  0.3816
   30MOL0     H 4002   1.925   4.448   8.459  2.2362  0.6975 -0.9270
   30MOL0     H 4003   1.982   4.615   8.448 -0.0750 -0.2756  1.0091
   30MOL0     H 4004   1.719   4.537   8.582 -0.6637  0.3048 -0.2025
   30MOL0     H 4005   1.811   4.685   8.598 -1.3301  0.3200 -2.8266
   30MOL0     H 4006   1.992   4.600   8.723  0.3601  0.3164 -3.1894
   30MOL0     H 4007   1.950   4.432   8.699 -0.7651 -0.6579  0.3285
   30MOL0     H 4008   1.769   4.640   8.838 -2.7060 -1.2983 -0.0600
   30MOL0     H 4009   1.896   4.538   8.923 -0.1089 -0.6460  0.0588
   30MOL0     H 4010   1.701   4.605   9.067 -1.3916  1.6002 -0.5474
   30MOL0     H 4011   1.424   4.667   9.271 -0.0981  1.4359 -3.3984
   30MOL0     H 4012   1.568   4.614   9.354 -2.8033  0.5172  0.3285
   30MOL0     H 4013   1.582   4.725   9.211  1.2148  0.0575 -0.6938
   30MOL0     H 4014   1.040   4.474   9.312  1.4150 -0.8907 -0.0306
   30MOL0     H 4015   0.878   4.412   9.459  1.2371 -5.1654 -1.3213
   30MOL0     H 4016   1.009   4.252   9.846  0.3564 -1.0687 -3.5522
   30MOL0     H 4017   0.859   4.304   9.914  0.7707 -3.1355  0.9963
   30MOL0     H 4018   0.814   4.076   9.871 -3.9557  1.4025  0.1700
   30MOL0     H 4019   0.711   4.187   9.798  0.1284  1.7886 -0.3041
   30MOL0     H 4020   0.941   4.036   9.671  0.7659 -0.7261 -1.2603
   30MOL0     H 4021   0.857   4.164   9.581 -0.7154 -0.7292  0.3280
   30MOL0     H 4022   0.707   3.925   9.707  0.5274  2.6165  1.1497
   30MOL0     H 4023   0.637   4.061   9.613  0.7991  2.7380  3.2202
   30MOL0     H 4024   0.784   3.957   9.418 -2.7057 -2.6815 -2.4528
   30MOL0     H 4025   0.633   3.885   9.461 -0.0453 -1.6539 -0.6882
   30MOL0     H 4026   0.915   3.801   9.543 -1.9232  2.7607 -0.3304
   30MOL0     H 4027   0.761   3.730   9.603  0.0972 -0.7290  0.8412
   30MOL0     H 4028   0.928   3.635   9.388 -1.4070 -0.6973  0.7939
   30MOL0     H 4029   0.823   3.756   9.305 -1.2631 -0.8500 -0.6564
   30MOL0     H 4030   0.709   3.545   9.296 -1.0069 -1.0912  1.0082
   30MOL0     H 4031   0.620   3.659   9.396 -0.6762 -0.1397 -0.3728
   30MOL0     H 4032   1.156   4.417   9.784  3.1925 -0.1493 -0.2806
   30MOL0     H 4033   1.341   4.431   9.619  0.0300 -2.8913 -0.5280
   30MOL0     H 4034   1.359   4.251   9.029  1.6412 -1.4796  2.3605
   30MOL0     H 4035   1.537   4.273   8.855  5.3007  0.8234 -0.1047
   30MOL0     H 4036   2.046   3.905   7.207 -0.9190 -0.7025  0.7957
   30MOL0     H 4037   1.915   3.735   7.042 -0.3385  0.1823 -3.4908
   30MOL0     H 4038   1.383   3.710   6.839  0.0006  1.8175 -1.6925
   30MOL0     H 4039   1.286   3.480   6.770 -1.4437  1.0403 -2.5134
   30MOL0     H 4040   1.424   3.192   6.492 -0.9490 -1.1181  1.9705
   30MOL0     H 4041   1.572   3.294   6.495  0.3294  0.1579  0.1726
   30MOL0     H 4042   1.523   3.030   6.659 -0.9164  1.4048 -0.8621
   30MOL0     H 4043   1.660   3.136   6.685  1.3785 -4.3949  1.1114
   30MOL0     H 4044   1.575   2.970   6.446  1.2116 -3.3383  1.8370
   30MOL0     H 4045   1.731   2.965   6.543 -1.3375  1.5957  4.8295
   30MOL0     H 4046   1.659   3.184   6.347 -1.2783 -0.6334  2.2107
   30MOL0     H 4047   1.756   3.044   6.313  0.8328 -0.3829  0.4167
   30MOL0     H 4048   1.996   3.330   6.527  1.0189  0.4893 -2.0664
   30MOL0     H 4049   1.694   3.358   6.681  0.9262 -0.9701  0.1805
   30MOL0     H 4050   1.779   3.566   6.755 -0.9135  2.7341 -0.3945
   31MOL0     O 4051   4.798   5.727  10.647  0.2199 -0.3987 -0.6486
   31MOL0     C 4052   4.814   5.767  10.761 -0.0760 -0.4289 -0.1133
   31MOL0     O 4053   4.719   5.837  10.837  0.2700 -0.0018 -0.2132
   31MOL0     C 4054   4.586   5.834  10.812 -1.1038 -1.0777 -0.1208
   31MOL0     C 4055   4.508   5.944  10.847 -1.4380 -0.1432  0.8229
   31MOL0     C 4056   4.375   5.940  10.854  0.7769  0.5031  0.0529
   31MOL0     C 4057   4.304   5.828  10.812 -0.0963  0.0991  0.1286
   31MOL0     O 4058   4.165   5.833  10.822  0.0162  0.6348  0.3327
   31MOL0     C 4059   4.085   5.811  10.698  0.4257 -0.0692  0.1397
   31MOL0     C 4060   4.132   5.878  10.564 -0.3287 -0.5477  0.3139
   31MOL0     C 4061   4.133   6.034  10.571  0.6518 -0.0466 -0.5849
   31MOL0     C 4062   4.228   6.112  10.477 -0.5514 -0.0702  0.8746
   31MOL0     C 4063   4.376   6.078  10.495 -0.1721  0.4796 -0.4392
   31MOL0     C 4064   4.459   6.118  10.369  0.6722 -0.2126  0.4605
   31MOL0     C 4065   4.607   6.123  10.410 -0.5665 -0.2616  0.4552
   31MOL0     C 4066   4.664   5.994  10.440 -0.1248  0.2956  0.8575
   31MOL0     N 4067   4.804   5.969  10.430 -0.5917  0.1344 -0.5067
   31MOL0     C 4068   4.883   5.940  10.320  0.2664 -0.7543  0.0562
   31MOL0     C 4069   5.010   5.951  10.373 -0.1984  0.0009  0.4144
   31MOL0     C 4070   5.130   5.930  10.283 -0.3874 -0.0439  0.9680
   31MOL0     C 4071   5.164   5.775  10.301  0.4999  0.3574 -0.1656
   31MOL0     C 4072   5.288   5.740  10.232 -0.0316  0.1849  0.2657
   31MOL0     C 4073   5.412   5.782  10.318  1.1985  0.5934  0.4361
   31MOL0     O 4074   5.418   5.682  10.425  0.0630 -0.2985 -0.6647
   31MOL0     C 4075   5.510   5.581  10.433  0.2399 -0.3294  0.2488
   31MOL0     C 4076   5.567   5.520  10.322 -0.1971  1.3803 -0.1821
   31MOL0     C 4077   5.660   5.413  10.339  0.9519 -0.5640 -0.0428
   31MOL0     C 4078   5.721   5.368  10.220 -0.1664  1.0315  0.1273
   31MOL0     C 4079   5.686   5.363  10.472  0.0842  0.7327 -0.4699
   31MOL0     C 4080   5.763   5.237  10.500  0.1623 -0.5964  0.2862
   31MOL0     O 4081   5.778   5.221  10.625  0.5061  0.1924 -0.0535
   31MOL0     C 4082   5.866   5.126  10.663  0.2482  1.1078 -0.1322
   31MOL0     C 4083   5.974   5.165  10.746  0.4567  0.4250  0.5000
   31MOL0     C 4084   6.046   5.054  10.796 -0.4251 -0.2976 -0.2612
   31MOL0     C 4085   6.031   4.924  10.757 -0.0405  0.3405  0.2097
   31MOL0     O 4086   6.110   4.821  10.796 -0.3788  0.0924  0.0409
   31MOL0     C 4087   6.197   4.847  10.904  0.2502  0.7277 -0.3136
   31MOL0     C 4088   6.262   4.711  10.935  0.6424  0.1365  0.3894
   31MOL0     C 4089   6.378   4.722  11.037 -0.0215 -0.3615  0.4956
   31MOL0     C 4090   6.399   4.605  11.120 -0.0719 -0.1781 -0.2947
   31MOL0     C 4091   6.526   4.632  11.208 -0.0885  0.1455  0.3541
   31MOL0     C 4092   6.564   4.505  11.291 -0.0340  0.3343 -1.0827
   31MOL0     C 4093   6.694   4.526  11.377 -0.3976  0.7969  0.0812
   31MOL0     C 4094   6.677   4.630  11.485 -0.8079  0.0965  0.2874
   31MOL0    Cl 4095   6.817   4.654  11.585 -1.0604 -0.0658  0.3008
   31MOL0     C 4096   5.942   4.902  10.658  1.6108  0.3572  0.4190
   31MOL0     C 4097   5.848   4.995  10.630  0.7822 -0.7881 -0.0474
   31MOL0     O 4098   5.800   5.165  10.406  0.4257  0.1177 -0.3368
   31MOL0     C 4099   5.621   5.423  10.581 -0.0846 -0.3538  0.7442
   31MOL0     C 4100   5.533   5.529  10.564  1.2510  0.1955 -0.3075
   31MOL0     N 4101   5.009   5.977  10.510  0.1155  0.5549 -0.5935
   31MOL0     N 4102   4.884   5.993  10.539  0.1454  0.2645  0.0131
   31MOL0     C 4103   4.379   5.712  10.776  0.2670 -0.4723 -0.3749
   31MOL0     C 4104   4.518   5.718  10.771 -0.7712  0.3003  0.2978
   31MOL0     C 4105   4.948   5.742  10.813  0.1901  0.4376  0.5039
   31MOL0     C 4106   4.984   5.767  10.938 -0.2034 -0.4939 -0.3665
   31MOL0     C 4107   5.119   5.749  10.982 -0.1824 -0.0059  0.2711
   31MOL0     C 4108   5.214   5.695  10.894 -1.5513 -0.7996 -0.1177
   31MOL0     O 4109   5.352   5.664  10.917  0.1573  0.1739  0.2434
   31MOL0     C 4110   5.433   5.727  11.026  1.0932  0.9137  0.1789
   31MOL0     C 4111   5.587   5.720  11.001  0.4618 -0.7493 -0.2977
   31MOL0     C 4112   5.646   5.572  11.005  0.3714 -0.0867  0.3921
   31MOL0     C 4113   5.800   5.575  10.990 -0.0424  0.2014  0.3645
   31MOL0     C 4114   5.873   5.651  11.093  0.0384  0.2321  0.2956
   31MOL0     C 4115   5.934   5.712  11.184 -0.7947  0.3276  0.7160
   31MOL0     C 4116   5.172   5.685  10.761  0.4549  0.1245  0.1874
   31MOL0     C 4117   5.044   5.715  10.719  0.9827  0.0483  0.2242
   31MOL0     H 4118   4.563   6.031  10.879  0.7436 -1.0277 -0.2968
   31MOL0     H 4119   4.332   6.036  10.878 -0.0755  0.9242 -2.7183
   31MOL0     H 4120   4.083   5.701  10.696  1.1559 -0.0782 -1.3465
   31MOL0     H 4121   3.984   5.844  10.724  0.7868 -0.5270  2.3674
   31MOL0     H 4122   4.233   5.837  10.555  1.1713  3.1820 -2.2828
   31MOL0     H 4123   4.074   5.846  10.477 -1.0784  2.4021 -0.3737
   31MOL0     H 4124   4.030   6.057  10.543  0.7301 -1.2562 -1.9356
   31MOL0     H 4125   4.158   6.067  10.673  2.8819 -0.5320 -0.9403
   31MOL0     H 4126   4.214   6.067  10.378 -0.6485  1.7209  0.0352
   31MOL0     H 4127   4.198   6.217  10.485  1.2328  0.5504 -0.0653
   31MOL0     H 4128   4.403   6.137  10.583 -0.7382  0.8646 -0.5231
   31MOL0     H 4129   4.396   5.973  10.521  2.9772  0.9358 -0.5919
   31MOL0     H 4130   4.443   6.039  10.295  1.6418 -1.7633  1.8376
   31MOL0     H 4131   4.423   6.213  10.330 -2.5285 -1.8128 -0.8595
   31MOL0     H 4132   4.660   6.169  10.326  0.3538  1.2847  1.8221
   31MOL0     H 4133   4.618   6.189  10.496  0.7527  2.0199 -1.3280
   31MOL0     H 4134   4.618   5.917  10.378  1.4916  0.1610 -0.2327
   31MOL0     H 4135   4.633   5.976  10.544  0.0226 -0.3776  0.7917
   31MOL0     H 4136   4.868   5.902  10.219  1.9028 -2.4661  0.3979
   31MOL0     H 4137   5.103   5.941  10.177 -1.3770  1.2751  1.3323
   31MOL0     H 4138   5.217   5.988  10.316 -0.5796  0.0090  1.3797
   31MOL0     H 4139   5.086   5.715  10.254  3.5235 -1.3126 -3.5727
   31MOL0     H 4140   5.174   5.756  10.408 -0.2428  2.1850  0.2709
   31MOL0     H 4141   5.297   5.779  10.130 -0.7430 -1.7564 -0.5931
   31MOL0     H 4142   5.293   5.631  10.223 -2.7450  0.1375 -2.5464
   31MOL0     H 4143   5.396   5.886  10.348  0.5813  1.2149 -1.8428
   31MOL0     H 4144   5.507   5.789  10.264  1.9264  0.1428  1.6214
   31MOL0     H 4145   5.539   5.539  10.219  2.2916 -1.1967 -1.4625
   31MOL0     H 4146   5.688   5.423  10.132 -4.3378 -2.1923 -0.6895
   31MOL0     H 4147   5.829   5.377  10.232 -0.2419  0.7807  1.0941
   31MOL0     H 4148   5.712   5.260  10.205  0.5089  0.5523  2.5913
   31MOL0     H 4149   5.986   5.271  10.763 -2.1905  1.6450 -3.6843
   31MOL0     H 4150   6.127   5.080  10.863 -1.0374  0.8348  0.0718
   31MOL0     H 4151   6.280   4.915  10.882  2.4922 -2.0812 -1.1621
   31MOL0     H 4152   6.142   4.883  10.991 -1.0655  2.3573 -1.7290
   31MOL0     H 4153   6.189   4.641  10.976  1.3323 -2.9677 -3.1215
   31MOL0     H 4154   6.294   4.673  10.837  1.0642 -1.4139  1.0938
   31MOL0     H 4155   6.354   4.800  11.109  0.1584 -0.2324  0.4152
   31MOL0     H 4156   6.467   4.758  10.986 -1.0524  1.1991 -0.2865
   31MOL0     H 4157   6.313   4.582  11.183  1.9010  0.5945  2.8842
   31MOL0     H 4158   6.422   4.520  11.054  1.1582 -0.5796  0.6108
   31MOL0     H 4159   6.496   4.708  11.281 -2.3993  0.6546 -1.0189
   31MOL0     H 4160   6.614   4.669  11.154  0.3075 -1.8823 -0.4618
   31MOL0     H 4161   6.480   4.494  11.361  0.4644  1.1125 -0.3438
   31MOL0     H 4162   6.584   4.415  11.232 -2.2549 -0.5055 -0.6514
   31MOL0     H 4163   6.776   4.556  11.312  1.3858 -1.1934  1.3055
   31MOL0     H 4164   6.726   4.435  11.427 -0.6312  0.4793 -0.3397
   31MOL0     H 4165   6.592   4.602  11.548  0.3741 -0.9259  1.4786
   31MOL0     H 4166   6.645   4.727  11.445  1.2919  1.8345  2.4919
   31MOL0     H 4167   5.924   4.798  10.631 -2.8068  1.5477 -2.3782
   31MOL0     H 4168   5.760   4.977  10.569 -1.3055 -2.9258  3.2908
   31MOL0     H 4169   5.638   5.383  10.681  1.0213 -0.8607  0.3631
   31MOL0     H 4170   5.491   5.571  10.655  1.0001 -0.6264 -0.0317
   31MOL0     H 4171   4.320   5.621  10.766  1.1012 -1.2559  1.4069
   31MOL0     H 4172   4.572   5.624  10.760 -0.1177  0.6489  0.4611
   31MOL0     H 4173   4.904   5.804  11.002  1.8063  0.0498  2.0117
   31MOL0     H 4174   5.153   5.776  11.082  0.7844 -1.2197  0.2966
   31MOL0     H 4175   5.407   5.833  11.042 -0.8428  0.1153  3.1111
   31MOL0     H 4176   5.410   5.679  11.122  1.1651 -1.1228 -0.7734
   31MOL0     H 4177   5.639   5.789  11.068  2.9112  1.0385 -3.7054
   31MOL0     H 4178   5.611   5.769  10.906  1.9017  0.3051  0.5653
   31MOL0     H 4179   5.614   5.515  10.917  3.3019 -2.7086  0.8559
   31MOL0     H 4180   5.614   5.517  11.094  4.0065 -1.5053  0.9677
   31MOL0     H 4181   5.827   5.604  10.888  0.0110  0.5691  0.4807
   31MOL0     H 4182   5.837   5.473  11.005 -2.9521 -0.8820  0.8116
   31MOL0     H 4183   5.985   5.762  11.264  3.3519  0.6965 -1.8185
   31MOL0     H 4184   5.249   5.649  10.693 -0.3144  0.9542 -1.1582
   31MOL0     H 4185   5.019   5.706  10.614 -0.4229 -0.7636  0.5858
   32MOL0     O 4186   9.617  10.833   8.418 -0.3750 -0.2590  0.0527
   32MOL0     C 4187   9.694  10.926   8.461 -0.4597 -0.8554 -0.3156
   32MOL0     O 4188   9.650  11.031   8.551  0.1682 -0.5703 -0.3523
   32MOL0     C 4189   9.530  10.998   8.608 -0.1521  0.0037  0.8422
   32MOL0     C 4190   9.408  11.033   8.543 -0.3697 -0.1818 -0.4271
   32MOL0     C 4191   9.287  11.020   8.620 -0.1604 -0.1871  0.1781
   32MOL0     C 4192   9.292  10.984   8.758  0.3159 -0.7429  0.0238
   32MOL0     O 4193   9.183  10.987   8.852 -0.4186 -0.2750 -0.3997
   32MOL0     C 4194   9.044  10.994   8.795 -0.2135 -0.3396  1.4392
   32MOL0     C 4195   9.012  10.861   8.731  0.0351  0.1250 -0.9861
   32MOL0     C 4196   8.874  10.865   8.670  0.5363 -0.2431 -0.6168
   32MOL0     C 4197   8.814  10.727   8.638  0.0865 -0.5024 -0.5957
   32MOL0     C 4198   8.882  10.662   8.521  0.8998 -0.1293 -0.1406
   32MOL0     C 4199   8.837  10.509   8.512  0.1314 -0.0779  0.0251
   32MOL0     C 4200   8.905  10.441   8.390 -0.7227 -0.1668  0.2173
   32MOL0     C 4201   8.855  10.302   8.363 -0.7848  0.4716  0.3346
   32MOL0     N 4202   8.893  10.201   8.467 -0.0996  0.4203  0.1626
   32MOL0     C 4203   9.023  10.156   8.505  0.6592  0.6360 -0.0434
   32MOL0     C 4204   9.005  10.060   8.594 -0.3966  0.5199 -1.2189
   32MOL0     C 4205   9.104   9.966   8.647 -0.3411  0.9228 -0.3834
   32MOL0     C 4206   9.085   9.832   8.568 -0.3111  0.0925  0.2168
   32MOL0     C 4207   9.011   9.724   8.647 -0.5261 -0.0432 -0.4944
   32MOL0     C 4208   9.019   9.587   8.578  0.4047 -0.1385 -0.1597
   32MOL0     O 4209   9.149   9.544   8.570 -0.7267 -0.3054  0.3103
   32MOL0     C 4210   9.184   9.427   8.500  0.3183  0.7783 -0.2609
   32MOL0     C 4211   9.310   9.371   8.524 -0.1303 -0.7052 -0.6456
   32MOL0     C 4212   9.359   9.257   8.465 -0.1522  0.9434 -0.2357
   32MOL0     C 4213   9.507   9.228   8.506  0.5863  0.7325 -0.3908
   32MOL0     C 4214   9.280   9.184   8.377 -0.2187 -0.2975 -0.8284
   32MOL0     C 4215   9.334   9.063   8.300 -0.5866 -0.3495 -0.1334
   32MOL0     O 4216   9.311   9.058   8.168 -0.0638 -0.4370 -0.3924
   32MOL0     C 4217   9.335   8.939   8.112  0.1967  0.0327  0.8776
   32MOL0     C 4218   9.463   8.912   8.055 -0.0466 -0.0153 -0.1962
   32MOL0     C 4219   9.496   8.783   8.008 -0.2274 -0.0109 -0.0413
   32MOL0     C 4220   9.393   8.684   8.000  0.1260 -0.4737 -0.0007
   32MOL0     O 4221   9.415   8.552   7.959  1.0660  0.1319 -0.1543
   32MOL0     C 4222   9.532   8.494   7.968  0.2995  0.2339 -0.9298
   32MOL0     C 4223   9.577   8.450   8.109 -0.3004  1.2625 -0.2183
   32MOL0     C 4224   9.690   8.335   8.110  0.6791  0.6508 -0.0024
   32MOL0     C 4225   9.642   8.202   8.057 -0.1156 -0.2937 -0.4455
   32MOL0     C 4226   9.754   8.098   8.043  0.9114  0.8324  0.0598
   32MOL0     C 4227   9.844   8.116   7.916  0.4508  0.3184  0.2454
   32MOL0     C 4228   9.976   8.034   7.924  0.0763  0.5874 -1.0293
   32MOL0     C 4229  10.058   8.055   7.803  0.2176 -0.0938 -0.1050
   32MOL0    Cl 4230  10.192   7.930   7.817  0.2473 -0.1716 -0.0779
   32MOL0     C 4231   9.268   8.712   8.051  0.1335  0.7223 -0.1310
   32MOL0     C 4232   9.237   8.836   8.102 -0.4164  0.5033  0.4541
   32MOL0     O 4233   9.407   8.984   8.358  0.0095  0.9029  0.5264
   32MOL0     C 4234   9.146   9.227   8.351 -0.4274  0.1019  0.7918
   32MOL0     C 4235   9.103   9.343   8.408  0.1087 -0.9789  0.1841
   32MOL0     N 4236   8.869  10.046   8.619 -0.3734  0.1337 -0.1387
   32MOL0     N 4237   8.798  10.129   8.542  0.6069 -0.4259 -1.1919
   32MOL0     C 4238   9.414  10.948   8.808 -1.0285 -0.1527 -1.4313
   32MOL0     C 4239   9.535  10.949   8.742  0.2684  0.3899  1.1003
   32MOL0     C 4240   9.837  10.931   8.430  1.0099 -0.4621  0.6499
   32MOL0     C 4241   9.928  11.007   8.498 -0.2972  1.6941 -0.5879
   32MOL0     C 4242  10.059  11.021   8.465  0.0592  0.2055  0.8988
   32MOL0     C 4243  10.108  10.954   8.356  0.0340  0.1101  0.4802
   32MOL0     O 4244  10.242  10.976   8.328  0.0180  0.0666  0.6020
   32MOL0     C 4245  10.305  10.860   8.271  0.5308 -0.1560  0.1011
   32MOL0     C 4246  10.460  10.875   8.276  0.1357 -0.0424 -0.1883
   32MOL0     C 4247  10.526  10.755   8.219  0.0543 -1.4162  0.7096
   32MOL0     C 4248  10.668  10.745   8.279 -0.5396  0.0358 -0.1350
   32MOL0     C 4249  10.736  10.628   8.229 -0.2236  0.1473  0.6257
   32MOL0     C 4250  10.803  10.549   8.165  0.1686 -0.0343  0.7745
   32MOL0     C 4251  10.022  10.874   8.284 -0.6862  0.2502  0.0083
   32MOL0     C 4252   9.886  10.874   8.313  0.6214  0.0010 -1.0816
   32MOL0     H 4253   9.417  11.061   8.439  2.3151  0.4215 -0.0955
   32MOL0     H 4254   9.203  11.052   8.559  2.7455  2.8435 -2.6482
   32MOL0     H 4255   8.969  11.020   8.870 -1.8460 -0.3760 -0.1060
   32MOL0     H 4256   9.038  11.079   8.726 -4.0014 -1.1879  0.5042
   32MOL0     H 4257   9.088  10.829   8.659  0.5794 -0.9183  0.0225
   32MOL0     H 4258   9.027  10.787   8.810  2.2239  0.1870 -1.2633
   32MOL0     H 4259   8.809  10.925   8.735  0.4646  0.9682 -1.7670
   32MOL0     H 4260   8.873  10.927   8.580 -3.0126  0.0621 -0.5028
   32MOL0     H 4261   8.807  10.664   8.727 -0.6894 -2.0297 -1.6928
   32MOL0     H 4262   8.712  10.740   8.603 -0.4070 -0.9754  0.6271
   32MOL0     H 4263   8.847  10.722   8.437  1.3658  1.0263  0.4647
   32MOL0     H 4264   8.990  10.670   8.534  0.6599  1.8375  1.1606
   32MOL0     H 4265   8.876  10.468   8.605 -1.6825  1.0613  1.3389
   32MOL0     H 4266   8.728  10.506   8.501 -0.1145  0.0221  2.1330
   32MOL0     H 4267   8.879  10.505   8.305  0.8492 -1.8733 -1.6384
   32MOL0     H 4268   9.014  10.444   8.394 -0.6394 -0.0733 -1.6000
   32MOL0     H 4269   8.901  10.261   8.273 -3.0900 -0.7495 -0.3658
   32MOL0     H 4270   8.746  10.302   8.357 -0.9974 -1.9735  2.4505
   32MOL0     H 4271   9.124  10.185   8.477  0.0003  2.3844 -0.7632
   32MOL0     H 4272   9.208   9.998   8.635  0.1935  1.6944  4.3709
   32MOL0     H 4273   9.094   9.952   8.755 -0.3197 -1.3734 -0.6270
   32MOL0     H 4274   9.186   9.798   8.543  0.5821  0.6572  2.7477
   32MOL0     H 4275   9.025   9.853   8.479 -0.4968 -0.8791  0.0951
   32MOL0     H 4276   8.911   9.761   8.668 -0.3584 -0.0690  0.3980
   32MOL0     H 4277   9.063   9.709   8.743  3.2223 -1.6484 -2.5569
   32MOL0     H 4278   8.976   9.595   8.477  0.7910  0.8065 -0.2603
   32MOL0     H 4279   8.970   9.513   8.642  0.8504  2.5132  3.5359
   32MOL0     H 4280   9.373   9.414   8.602 -0.4497 -3.9610  1.5876
   32MOL0     H 4281   9.517   9.125   8.540  0.4544  1.4842  2.0916
   32MOL0     H 4282   9.569   9.232   8.415  1.0014 -4.3099 -0.5644
   32MOL0     H 4283   9.548   9.295   8.582  3.6756  1.4982 -2.5212
   32MOL0     H 4284   9.538   8.990   8.061 -0.8888  0.6916  2.6747
   32MOL0     H 4285   9.586   8.761   7.952 -0.6105  0.7741 -0.9985
   32MOL0     H 4286   9.527   8.399   7.914 -0.6821  0.3521 -1.0518
   32MOL0     H 4287   9.609   8.555   7.920  0.8540  2.5836  2.5611
   32MOL0     H 4288   9.615   8.531   8.172  3.6526 -1.2770  1.0264
   32MOL0     H 4289   9.489   8.409   8.160  1.1629 -1.2550  0.4987
   32MOL0     H 4290   9.712   8.307   8.213 -3.5505  1.0068  1.1516
   32MOL0     H 4291   9.771   8.372   8.046 -1.0349  0.0741 -2.6672
   32MOL0     H 4292   9.563   8.173   8.127 -0.2805 -0.5313 -0.7205
   32MOL0     H 4293   9.597   8.213   7.958  1.3213 -0.2198 -1.1152
   32MOL0     H 4294   9.713   7.997   8.051 -0.6070  1.5405  2.3587
   32MOL0     H 4295   9.819   8.108   8.130  0.9438 -1.1352  0.2945
   32MOL0     H 4296   9.793   8.106   7.820  1.4879  2.4362 -0.5761
   32MOL0     H 4297   9.875   8.220   7.913 -2.0812  1.1395  0.1169
   32MOL0     H 4298   9.951   7.928   7.926  0.3068  0.5440 -0.3840
   32MOL0     H 4299  10.037   8.041   8.015 -1.9312  1.4042  0.3127
   32MOL0     H 4300  10.101   8.155   7.789  2.9783 -1.4558 -2.3097
   32MOL0     H 4301  10.001   8.031   7.713 -0.5058  0.7211  0.1240
   32MOL0     H 4302   9.195   8.633   8.064  2.6835 -1.7851  0.2013
   32MOL0     H 4303   9.140   8.860   8.145 -0.2380 -0.0569  1.1995
   32MOL0     H 4304   9.078   9.159   8.300 -0.2435 -0.3892  1.1875
   32MOL0     H 4305   9.001   9.363   8.377 -0.4659 -3.5235  0.2577
   32MOL0     H 4306   9.408  10.930   8.915  0.4282  0.0444 -1.3032
   32MOL0     H 4307   9.629  10.921   8.790 -0.1836  0.6091  2.1391
   32MOL0     H 4308   9.912  11.048   8.597 -2.0479 -2.4108  1.0777
   32MOL0     H 4309  10.125  11.072   8.534  1.3252  0.3143 -0.3589
   32MOL0     H 4310  10.273  10.776   8.334 -1.4335  1.0849  0.8523
   32MOL0     H 4311  10.271  10.844   8.169 -1.4472 -2.0393  0.9626
   32MOL0     H 4312  10.498  10.892   8.377 -0.6743  2.0260 -0.1840
   32MOL0     H 4313  10.493  10.961   8.218 -0.9978  0.6555  0.1705
   32MOL0     H 4314  10.544  10.779   8.114  1.4340  0.5259  1.3232
   32MOL0     H 4315  10.456  10.671   8.227 -2.0463 -0.2329 -2.7994
   32MOL0     H 4316  10.660  10.737   8.388  0.6525  0.2822 -0.0176
   32MOL0     H 4317  10.726  10.832   8.248 -1.0520 -0.3720 -2.4214
   32MOL0     H 4318  10.852  10.474   8.106 -2.2275 -1.9112  1.0370
   32MOL0     H 4319  10.062  10.817   8.200 -1.3977 -0.2687  0.0100
   32MOL0     H 4320   9.815  10.824   8.248 -0.9202 -0.7632  1.0760
   33MOL0     O 4321   5.464   8.952  10.532  0.8641  0.3202  0.2769
   33MOL0     C 4322   5.462   9.069  10.497 -1.0343 -0.0832  0.4893
   33MOL0     O 4323   5.360   9.152  10.514  0.5999 -0.3962 -0.7796
   33MOL0     C 4324   5.262   9.110  10.608 -0.9503 -0.1717 -0.3280
   33MOL0     C 4325   5.137   9.095  10.555  0.6954  0.0213 -0.3817
   33MOL0     C 4326   5.028   9.045  10.634 -0.0315 -0.2101  0.5473
   33MOL0     C 4327   5.050   9.011  10.770  0.4547 -1.5097  0.3263
   33MOL0     O 4328   4.937   8.975  10.846 -0.5927 -0.3836  0.1309
   33MOL0     C 4329   4.959   8.978  10.994  0.9380 -0.6443  0.4553
   33MOL0     C 4330   4.822   8.939  11.058 -0.1249 -0.3132  1.2178
   33MOL0     C 4331   4.823   8.916  11.216 -0.2365  0.1016  0.0119
   33MOL0     C 4332   4.690   8.846  11.255  0.1597 -0.2816 -0.0630
   33MOL0     C 4333   4.648   8.880  11.400  0.4192  0.5281 -0.5944
   33MOL0     C 4334   4.744   8.838  11.511  0.2335 -0.8133 -0.0370
   33MOL0     C 4335   4.693   8.890  11.646  0.7946 -0.1678 -1.1243
   33MOL0     C 4336   4.797   8.869  11.758  0.3614  0.8959  0.6597
   33MOL0     N 4337   4.872   8.990  11.771 -1.0689 -0.2156 -0.1193
   33MOL0     C 4338   4.828   9.084  11.867  0.1510  0.8227  0.3956
   33MOL0     C 4339   4.926   9.178  11.881  0.2546  0.1940 -1.0113
   33MOL0     C 4340   4.895   9.318  11.933  0.1048  0.3053  0.8643
   33MOL0     C 4341   5.024   9.407  11.929  0.7056 -0.0149 -0.0085
   33MOL0     C 4342   4.985   9.555  11.933 -0.3387  1.2357  1.4655
   33MOL0     C 4343   4.926   9.605  12.061  0.0372  0.2615  0.0907
   33MOL0     O 4344   4.802   9.549  12.099  0.1299  0.1077  0.0904
   33MOL0     C 4345   4.681   9.568  12.031 -0.0348  0.0430  0.4237
   33MOL0     C 4346   4.646   9.659  11.925  0.1962 -0.4197 -0.4619
   33MOL0     C 4347   4.515   9.686  11.875 -0.3504  1.1364 -0.0254
   33MOL0     C 4348   4.506   9.789  11.763  0.1673 -0.5770 -0.5195
   33MOL0     C 4349   4.401   9.616  11.932  0.0544 -0.4950 -0.4441
   33MOL0     C 4350   4.257   9.615  11.880 -0.4308 -0.6442 -0.8313
   33MOL0     O 4351   4.218   9.719  11.807  1.2250  0.4599  0.1363
   33MOL0     C 4352   4.083   9.717  11.785  0.4211 -0.5269  0.0265
   33MOL0     C 4353   4.037   9.676  11.665 -1.1809  0.2013 -0.7244
   33MOL0     C 4354   3.904   9.675  11.637 -0.3447 -0.8119  0.0414
   33MOL0     C 4355   3.808   9.705  11.738  0.6245 -0.2851  0.0794
   33MOL0     O 4356   3.669   9.699  11.724 -0.8450  0.7051  0.1292
   33MOL0     C 4357   3.612   9.612  11.623  1.0248  0.1116  0.2328
   33MOL0     C 4358   3.459   9.585  11.648 -0.3622  0.5572 -0.0492
   33MOL0     C 4359   3.409   9.478  11.543 -0.8764 -0.5184  0.1098
   33MOL0     C 4360   3.263   9.449  11.545  0.7998  0.4262 -0.6845
   33MOL0     C 4361   3.209   9.370  11.429 -0.1197 -0.0888  0.1150
   33MOL0     C 4362   3.063   9.347  11.427  0.4926  0.4152 -0.0812
   33MOL0     C 4363   3.010   9.300  11.294  0.3575 -0.4440  0.4402
   33MOL0     C 4364   2.857   9.262  11.291  0.1118 -0.6085  0.1071
   33MOL0    Cl 4365   2.826   9.114  11.391  0.3053  0.2466  0.1743
   33MOL0     C 4366   3.850   9.743  11.868  0.1786  0.3529 -0.6109
   33MOL0     C 4367   3.990   9.752  11.886  0.7354  1.0471  0.0817
   33MOL0     O 4368   4.180   9.520  11.917 -0.4485 -0.2180  0.4071
   33MOL0     C 4369   4.442   9.525  12.028  0.1442  0.9826  0.1515
   33MOL0     C 4370   4.570   9.502  12.079 -0.0745 -0.4438  0.1305
   33MOL0     N 4371   5.030   9.137  11.800  0.5565  0.7186 -0.8600
   33MOL0     N 4372   5.000   9.018  11.745  0.5580  0.3650  0.1593
   33MOL0     C 4373   5.175   9.036  10.824  0.1447 -0.1092  0.0838
   33MOL0     C 4374   5.280   9.074  10.744  0.5979 -0.0222  0.3900
   33MOL0     C 4375   5.589   9.123  10.439 -0.0009 -0.5778  0.6976
   33MOL0     C 4376   5.698   9.044  10.413 -0.9594 -0.1937 -0.0968
   33MOL0     C 4377   5.817   9.104  10.370 -0.1513 -0.5027 -0.3334
   33MOL0     C 4378   5.828   9.244  10.346  0.2712  0.2166  0.0755
   33MOL0     O 4379   5.927   9.313  10.285  0.0277 -0.1813  0.0264
   33MOL0     C 4380   6.055   9.256  10.260  0.8304  0.0042 -0.0369
   33MOL0     C 4381   6.053   9.158  10.139 -0.0326  0.3603 -0.0541
   33MOL0     C 4382   6.199   9.117  10.104  0.3399 -0.9660 -0.5085
   33MOL0     C 4383   6.244   9.013  10.210  0.3324 -0.2599  0.5379
   33MOL0     C 4384   6.373   8.960  10.173 -0.5594 -0.1413  0.0232
   33MOL0     C 4385   6.489   8.941  10.146 -0.3944 -0.5838  0.0036
   33MOL0     C 4386   5.717   9.317  10.354  1.8119 -0.4677 -0.1994
   33MOL0     C 4387   5.600   9.262  10.414 -0.3103  0.3640 -0.7236
   33MOL0     H 4388   5.129   9.128  10.452 -1.7562 -1.3002 -0.6740
   33MOL0     H 4389   4.926   9.041  10.595  0.5157 -0.5366 -0.9261
   33MOL0     H 4390   5.048   8.920  11.022  2.1444  0.8077 -0.1992
   33MOL0     H 4391   4.975   9.082  11.024  4.5635 -0.5723 -1.0783
   33MOL0     H 4392   4.745   9.015  11.038  1.8731  2.2666  2.6917
   33MOL0     H 4393   4.784   8.850  11.007  0.9701  0.2755 -0.7043
   33MOL0     H 4394   4.913   8.857  11.232  0.1817  0.4490 -0.9747
   33MOL0     H 4395   4.836   9.010  11.272 -1.2095  0.9806 -1.1859
   33MOL0     H 4396   4.609   8.878  11.188 -1.1536 -1.2526  1.0100
   33MOL0     H 4397   4.697   8.738  11.241  0.0259 -0.4117  0.8159
   33MOL0     H 4398   4.632   8.988  11.408  1.1914  0.5271  1.6492
   33MOL0     H 4399   4.550   8.837  11.418  0.8547  0.4420  1.8719
   33MOL0     H 4400   4.757   8.730  11.503  2.0672 -0.5962 -0.3961
   33MOL0     H 4401   4.846   8.878  11.508 -0.3821  1.3700  3.0389
   33MOL0     H 4402   4.669   8.996  11.631 -1.7455 -0.6165 -0.7783
   33MOL0     H 4403   4.602   8.833  11.667  2.4964 -3.6093 -2.3911
   33MOL0     H 4404   4.872   8.793  11.735  1.3772  0.9983  3.2550
   33MOL0     H 4405   4.740   8.832  11.844 -1.4245  0.3004 -0.7328
   33MOL0     H 4406   4.723   9.086  11.894  0.5038  1.8458  1.7544
   33MOL0     H 4407   4.818   9.355  11.865  0.2516 -1.6923 -0.4649
   33MOL0     H 4408   4.858   9.316  12.036  3.1256  0.9164  2.0589
   33MOL0     H 4409   5.074   9.389  11.833 -2.9994 -3.5932 -1.5539
   33MOL0     H 4410   5.085   9.370  12.011 -0.1375  0.7987  1.0148
   33MOL0     H 4411   4.926   9.587  11.846  1.3045 -1.1925 -0.6943
   33MOL0     H 4412   5.081   9.606  11.922  0.4263 -0.5196 -0.6940
   33MOL0     H 4413   4.925   9.714  12.057  1.5370  0.3969  2.1152
   33MOL0     H 4414   4.998   9.578  12.138 -0.5804 -2.1288 -0.0782
   33MOL0     H 4415   4.731   9.711  11.883  0.4614  0.1802  0.7842
   33MOL0     H 4416   4.417   9.783  11.700 -2.6873 -0.1678  3.0985
   33MOL0     H 4417   4.507   9.888  11.808 -0.1810  0.0909 -1.9435
   33MOL0     H 4418   4.595   9.777  11.702  2.0907  1.4713  1.7030
   33MOL0     H 4419   4.115   9.670  11.590  2.1756  0.8328  2.4129
   33MOL0     H 4420   3.875   9.645  11.536  1.1446  1.2271 -1.0646
   33MOL0     H 4421   3.626   9.653  11.523  1.7893  1.5496  0.8903
   33MOL0     H 4422   3.661   9.515  11.620  2.4640  0.8446 -1.2389
   33MOL0     H 4423   3.442   9.553  11.751 -0.9511  0.8131 -0.0634
   33MOL0     H 4424   3.405   9.680  11.638 -0.8944  0.2317 -0.2830
   33MOL0     H 4425   3.458   9.386  11.577 -1.2890 -0.6462  0.3678
   33MOL0     H 4426   3.438   9.509  11.442 -0.0258  1.2678  0.8713
   33MOL0     H 4427   3.246   9.388  11.634  2.2680 -2.3644 -2.1625
   33MOL0     H 4428   3.204   9.541  11.542 -0.6943 -0.4089  1.3762
   33MOL0     H 4429   3.266   9.278  11.413 -0.7353 -0.8793  2.1569
   33MOL0     H 4430   3.220   9.442  11.348 -2.0097  0.2106  0.0721
   33MOL0     H 4431   3.029   9.275  11.502 -2.1111  1.1581 -0.4558
   33MOL0     H 4432   3.025   9.447  11.454 -0.7800 -0.4129  1.3780
   33MOL0     H 4433   3.074   9.218  11.261  3.6902  1.6740  1.1442
   33MOL0     H 4434   3.021   9.382  11.222  0.8592  0.3924  1.4398
   33MOL0     H 4435   2.820   9.242  11.190 -1.4812  0.6699  0.3924
   33MOL0     H 4436   2.796   9.347  11.325 -0.2017 -0.8520  0.1624
   33MOL0     H 4437   3.785   9.781  11.946  0.6604 -0.9633  0.4695
   33MOL0     H 4438   4.038   9.778  11.980  1.9760 -1.4294  0.2189
   33MOL0     H 4439   4.371   9.454  12.068  0.2608  0.0564 -1.1970
   33MOL0     H 4440   4.591   9.417  12.143  1.1206  1.6588  2.7019
   33MOL0     H 4441   5.201   9.021  10.929  1.7302  2.3180  0.1218
   33MOL0     H 4442   5.378   9.078  10.790  1.2051  0.4915 -0.9199
   33MOL0     H 4443   5.704   8.940  10.445  1.6474  0.4892  1.9159
   33MOL0     H 4444   5.901   9.037  10.356  0.9253  0.2704  1.9643
   33MOL0     H 4445   6.115   9.344  10.238  3.7343 -1.8777 -0.1203
   33MOL0     H 4446   6.095   9.203  10.347 -1.6512 -2.7681 -0.4146
   33MOL0     H 4447   6.012   9.198  10.046 -0.2012 -0.4934 -0.3559
   33MOL0     H 4448   5.986   9.072  10.156 -1.5118  1.2699 -1.0178
   33MOL0     H 4449   6.259   9.208  10.116  2.6337 -2.2138 -1.8591
   33MOL0     H 4450   6.220   9.083  10.003  1.4810 -0.8084 -0.3376
   33MOL0     H 4451   6.185   8.921  10.211 -0.6162  0.2793 -1.0967
   33MOL0     H 4452   6.239   9.056  10.311 -1.9279  0.4136  0.2104
   33MOL0     H 4453   6.590   8.937  10.113 -0.7226 -0.1870 -1.1027
   33MOL0     H 4454   5.734   9.421  10.330  4.8679 -1.2024 -1.6504
   33MOL0     H 4455   5.520   9.334  10.428 -1.4163 -0.7280 -1.2269
   34MOL0     O 4456   4.071   3.156  10.654 -0.0394 -0.1499  0.8368
   34MOL0     C 4457   4.010   3.159  10.764  0.5848  0.2412  0.7268
   34MOL0     O 4458   4.073   3.150  10.877 -0.0835 -0.4557 -1.0890
   34MOL0     C 4459   4.198   3.205  10.884  0.2881 -0.1195  1.1995
   34MOL0     C 4460   4.306   3.139  10.821 -0.4165  0.0246  1.8768
   34MOL0     C 4461   4.430   3.196  10.825 -0.1120 -0.4646 -0.3902
   34MOL0     C 4462   4.437   3.323  10.888  0.4268 -0.2029  0.2784
   34MOL0     O 4463   4.557   3.392  10.897  0.1711 -0.0221  0.5159
   34MOL0     C 4464   4.610   3.423  10.762 -0.3084  0.4150 -0.4281
   34MOL0     C 4465   4.736   3.502  10.782 -0.9028 -0.3347 -0.0955
   34MOL0     C 4466   4.833   3.425  10.877  0.0545 -0.4489  0.5991
   34MOL0     C 4467   4.983   3.463  10.862  0.2897  0.0352 -0.2556
   34MOL0     C 4468   5.080   3.365  10.922  0.3907  0.3514  0.5695
   34MOL0     C 4469   5.223   3.414  10.878 -0.0744 -0.1582 -0.1055
   34MOL0     C 4470   5.331   3.392  10.995  0.4619 -0.1438  1.2872
   34MOL0     C 4471   5.466   3.451  10.945 -1.0493 -0.7056  0.1596
   34MOL0     N 4472   5.519   3.369  10.835 -0.0203  0.2131 -0.4053
   34MOL0     C 4473   5.533   3.415  10.712  0.2141  1.2687  1.1117
   34MOL0     C 4474   5.637   3.335  10.666 -0.5515  1.0376 -0.8542
   34MOL0     C 4475   5.722   3.345  10.536 -0.3711  0.8264 -0.4117
   34MOL0     C 4476   5.841   3.440  10.555  0.4122  0.1422  0.0416
   34MOL0     C 4477   5.949   3.380  10.642 -0.0466  0.0699 -0.4085
   34MOL0     C 4478   6.084   3.449  10.622 -0.0485  0.1489 -1.1845
   34MOL0     O 4479   6.144   3.404  10.506 -0.4046  0.6561 -0.0718
   34MOL0     C 4480   6.270   3.357  10.516  0.8234  0.1369 -0.1791
   34MOL0     C 4481   6.300   3.249  10.432 -0.6627  0.9720 -0.8630
   34MOL0     C 4482   6.429   3.196  10.425 -0.0216 -1.2721  0.4748
   34MOL0     C 4483   6.459   3.097  10.318  0.4125 -0.0562 -0.0263
   34MOL0     C 4484   6.531   3.257  10.513  0.5790  0.1244 -0.1746
   34MOL0     C 4485   6.669   3.216  10.529  0.4796  0.7022  0.1282
   34MOL0     O 4486   6.700   3.098  10.482 -0.3484  0.2271 -1.0227
   34MOL0     C 4487   6.829   3.054  10.496 -0.0918  0.4819 -0.2694
   34MOL0     C 4488   6.865   3.014  10.624  0.3100  0.6968  0.2636
   34MOL0     C 4489   6.998   2.965  10.643  0.6732  0.2577  0.3279
   34MOL0     C 4490   7.088   2.951  10.536  0.4903 -0.0854 -0.5837
   34MOL0     O 4491   7.212   2.916  10.562 -0.1980 -0.2031  0.0395
   34MOL0     C 4492   7.253   2.868  10.695 -0.3024  0.0552 -0.4759
   34MOL0     C 4493   7.378   2.778  10.673 -0.1794  1.2376  0.0631
   34MOL0     C 4494   7.513   2.852  10.668 -0.0268 -0.0432  0.4836
   34MOL0     C 4495   7.628   2.743  10.685 -0.1266 -0.8200 -0.5232
   34MOL0     C 4496   7.760   2.784  10.602 -0.2415 -0.4660  0.8715
   34MOL0     C 4497   7.834   2.903  10.670  0.4635 -0.1440 -0.6925
   34MOL0     C 4498   7.983   2.908  10.639  0.1834 -0.4323  0.8994
   34MOL0     C 4499   8.018   2.912  10.495  0.1514 -0.3845  0.9998
   34MOL0    Cl 4500   8.192   2.884  10.520 -0.4662  0.6681  0.4699
   34MOL0     C 4501   7.036   2.977  10.410  0.2421  0.0983  0.2157
   34MOL0     C 4502   6.910   3.026  10.382  0.5651  1.1098  0.1340
   34MOL0     O 4503   6.746   3.289  10.585 -0.3740  0.0029 -0.7063
   34MOL0     C 4504   6.489   3.357  10.599 -0.1669 -0.8750  0.5080
   34MOL0     C 4505   6.364   3.410  10.596 -0.7336  0.5852 -0.3578
   34MOL0     N 4506   5.668   3.238  10.759 -0.2075 -0.0242  0.0201
   34MOL0     N 4507   5.601   3.264  10.866 -0.2041 -0.5567  0.7391
   34MOL0     C 4508   4.334   3.382  10.959 -0.5669  0.7445  0.3324
   34MOL0     C 4509   4.212   3.324  10.946 -0.1597 -0.0054 -0.6010
   34MOL0     C 4510   3.861   3.134  10.776 -0.0048  0.3631  0.5056
   34MOL0     C 4511   3.786   3.117  10.657 -0.3445 -0.5100 -0.1595
   34MOL0     C 4512   3.652   3.102  10.662 -0.0678  0.1922  0.0130
   34MOL0     C 4513   3.592   3.125  10.786 -0.4420  0.4537  0.3311
   34MOL0     O 4514   3.458   3.112  10.817  0.0032 -0.0560 -0.2988
   34MOL0     C 4515   3.362   3.094  10.713  0.3958 -0.1566 -0.5447
   34MOL0     C 4516   3.351   3.220  10.626  0.0561 -0.0062 -0.1225
   34MOL0     C 4517   3.315   3.177  10.481 -0.2833  0.5128 -0.2425
   34MOL0     C 4518   3.307   3.288  10.375 -0.7736  0.7993 -0.0706
   34MOL0     C 4519   3.400   3.396  10.377 -0.1529 -0.1151  0.0777
   34MOL0     C 4520   3.481   3.484  10.383  0.1680  0.0262  0.5476
   34MOL0     C 4521   3.664   3.137  10.905 -0.3661 -0.7005  0.3670
   34MOL0     C 4522   3.802   3.137  10.899  0.2465  0.5493  0.2433
   34MOL0     H 4523   4.285   3.051  10.762  0.6606 -0.0370  1.5661
   34MOL0     H 4524   4.517   3.145  10.786 -0.5510 -2.0070  0.5506
   34MOL0     H 4525   4.638   3.339  10.698  1.2741  2.0564 -2.0224
   34MOL0     H 4526   4.541   3.471  10.693 -0.0453  0.5031 -0.6299
   34MOL0     H 4527   4.781   3.527  10.686 -2.9525 -4.2371 -2.3300
   34MOL0     H 4528   4.697   3.594  10.828 -2.0930 -1.3963  1.1305
   34MOL0     H 4529   4.799   3.458  10.975 -3.1188  1.2269 -0.9433
   34MOL0     H 4530   4.823   3.316  10.873  0.0972 -0.4610  0.8226
   34MOL0     H 4531   5.002   3.461  10.755  3.8765  0.6317  0.2317
   34MOL0     H 4532   4.992   3.567  10.895 -2.0015  1.1516 -2.7863
   34MOL0     H 4533   5.078   3.373  11.031 -0.2876 -1.9808  0.7864
   34MOL0     H 4534   5.071   3.261  10.890  1.3103 -0.3490  2.4448
   34MOL0     H 4535   5.250   3.367  10.783 -1.8153  2.4109 -2.0166
   34MOL0     H 4536   5.222   3.522  10.860 -0.6897  0.1952  1.8811
   34MOL0     H 4537   5.291   3.453  11.076  0.3563 -1.1090  1.9765
   34MOL0     H 4538   5.337   3.286  11.021  1.1879 -0.7384 -1.0506
   34MOL0     H 4539   5.526   3.434  11.035 -1.0994 -0.3074  0.2747
   34MOL0     H 4540   5.449   3.557  10.921  0.2818 -0.7462 -1.0845
   34MOL0     H 4541   5.475   3.489  10.658 -0.2736 -1.4408 -2.5094
   34MOL0     H 4542   5.745   3.244  10.500 -1.0655  0.3588  0.4320
   34MOL0     H 4543   5.652   3.380  10.460 -1.8832 -3.7053 -1.3880
   34MOL0     H 4544   5.801   3.531  10.600  1.4513  0.0978  1.1116
   34MOL0     H 4545   5.895   3.468  10.464  3.8817 -3.7581  0.5925
   34MOL0     H 4546   5.956   3.273  10.623 -0.0701 -0.2915  1.3887
   34MOL0     H 4547   5.923   3.381  10.749 -0.3050  2.5206 -0.4340
   34MOL0     H 4548   6.142   3.437  10.714  1.9080  0.3472 -2.3477
   34MOL0     H 4549   6.062   3.556  10.616 -4.2785 -0.1692  2.9164
   34MOL0     H 4550   6.229   3.221  10.355  0.6450 -0.1949 -1.6897
   34MOL0     H 4551   6.511   3.148  10.236 -0.8435  1.0529 -0.1563
   34MOL0     H 4552   6.517   3.009  10.346  0.5030  0.1404  0.4126
   34MOL0     H 4553   6.364   3.063  10.276  0.5449  2.5726 -2.8263
   34MOL0     H 4554   6.801   3.022  10.711  1.2252 -0.7204  1.1078
   34MOL0     H 4555   7.036   2.952  10.744  2.7562 -3.0658 -0.7131
   34MOL0     H 4556   7.292   2.956  10.746 -0.5328 -0.4405  0.5694
   34MOL0     H 4557   7.172   2.819  10.749  0.0289  0.3961  0.3403
   34MOL0     H 4558   7.378   2.704  10.753 -1.2017  2.3269  1.1180
   34MOL0     H 4559   7.350   2.734  10.577 -0.3876 -1.6536  1.3730
   34MOL0     H 4560   7.516   2.925  10.749 -1.3275  0.5402  0.0378
   34MOL0     H 4561   7.529   2.903  10.573 -2.9756 -0.4383 -0.3456
   34MOL0     H 4562   7.654   2.747  10.791 -0.0435  0.6582 -0.5841
   34MOL0     H 4563   7.606   2.641  10.652  0.5880 -1.4227  0.7736
   34MOL0     H 4564   7.742   2.802  10.496  0.7289  1.5666  1.0082
   34MOL0     H 4565   7.820   2.694  10.622  0.9843  0.7266  2.9896
   34MOL0     H 4566   7.780   2.998  10.657  2.3763  1.2876  1.1834
   34MOL0     H 4567   7.832   2.891  10.779  1.2824 -3.1993 -0.9439
   34MOL0     H 4568   8.026   2.831  10.705 -2.9417 -0.7812  2.7131
   34MOL0     H 4569   8.037   2.990  10.686  2.5465 -2.6029  2.2904
   34MOL0     H 4570   7.998   3.011  10.454  1.9606 -0.4256 -0.0782
   34MOL0     H 4571   7.970   2.830  10.440 -0.0720  0.0945  0.4737
   34MOL0     H 4572   7.105   2.962  10.327  2.1665  1.7844  1.4192
   34MOL0     H 4573   6.893   3.050  10.278  1.5171  1.0457 -0.0477
   34MOL0     H 4574   6.567   3.394  10.666  1.5241 -0.7195 -1.4310
   34MOL0     H 4575   6.337   3.499  10.651  1.7434  1.2823 -0.1576
   34MOL0     H 4576   4.360   3.478  11.003 -0.8386  0.6184  0.7775
   34MOL0     H 4577   4.119   3.375  10.967  0.7617  0.8572  1.7640
   34MOL0     H 4578   3.846   3.123  10.566  0.6523  2.6901  0.5849
   34MOL0     H 4579   3.609   3.062  10.571 -0.6336  1.3945 -0.2673
   34MOL0     H 4580   3.396   3.009  10.654  4.9889  0.9737  0.0598
   34MOL0     H 4581   3.264   3.079  10.757  1.2141  0.7289  1.7295
   34MOL0     H 4582   3.439   3.284  10.614 -1.6088  2.0344 -2.5222
   34MOL0     H 4583   3.278   3.281  10.679  0.8952  0.0485  1.0070
   34MOL0     H 4584   3.225   3.116  10.469 -1.0382  1.8196 -1.4265
   34MOL0     H 4585   3.397   3.110  10.452 -2.7769 -2.4429 -0.9519
   34MOL0     H 4586   3.205   3.327  10.378 -0.4836  1.5369  1.0537
   34MOL0     H 4587   3.319   3.240  10.278  2.2675 -2.1743  1.5362
   34MOL0     H 4588   3.550   3.565  10.392 -1.1812  1.2221  0.3880
   34MOL0     H 4589   3.618   3.144  11.003 -1.4498 -1.2406 -0.0814
   34MOL0     H 4590   3.861   3.130  10.990 -1.3706 -2.4560  1.2165
   35MOL0     O 4591   2.228  10.763   6.650 -0.5459  0.2149 -0.2364
   35MOL0     C 4592   2.220  10.660   6.576  0.2175 -0.5113  0.7139
   35MOL0     O 4593   2.199  10.657   6.440 -0.3578 -0.2471  0.2134
   35MOL0     C 4594   2.186  10.770   6.369 -0.8500  0.1395 -0.4824
   35MOL0     C 4595   2.077  10.791   6.278 -1.3553  0.8116 -0.0060
   35MOL0     C 4596   2.061  10.917   6.214 -0.1346 -0.7242 -1.0265
   35MOL0     C 4597   2.164  11.009   6.221  1.1130 -0.6978 -0.2122
   35MOL0     O 4598   2.132  11.137   6.171  0.5054  0.8305 -0.5174
   35MOL0     C 4599   2.240  11.225   6.152 -0.1043 -0.5902  1.2112
   35MOL0     C 4600   2.182  11.355   6.105  0.4624 -0.1820 -0.0933
   35MOL0     C 4601   2.149  11.443   6.236  0.5615 -0.3484  0.0353
   35MOL0     C 4602   2.044  11.545   6.178 -0.9813  0.2702  0.1906
   35MOL0     C 4603   2.019  11.651   6.292 -0.1997 -0.2003  0.1591
   35MOL0     C 4604   1.938  11.770   6.243  0.2623  0.2498 -0.3680
   35MOL0     C 4605   1.934  11.886   6.342 -0.9232  0.2981 -0.4418
   35MOL0     C 4606   1.833  11.986   6.295  0.4711 -0.3795  0.3579
   35MOL0     N 4607   1.847  12.113   6.373 -0.0553 -0.3178 -0.0040
   35MOL0     C 4608   1.934  12.222   6.350  0.4080  0.0391 -0.1425
   35MOL0     C 4609   1.916  12.300   6.464  0.3573  1.0000  0.4814
   35MOL0     C 4610   1.990  12.423   6.501 -0.8928  0.6302  0.2655
   35MOL0     C 4611   2.101  12.462   6.397  0.4309 -0.4663  0.1979
   35MOL0     C 4612   2.240  12.389   6.415 -0.0510  1.1695 -0.8960
   35MOL0     C 4613   2.324  12.383   6.286  0.0967 -0.6627  1.0011
   35MOL0     O 4614   2.363  12.515   6.249  0.3834 -0.8938  0.5022
   35MOL0     C 4615   2.501  12.525   6.275  0.6608  0.1036  0.3935
   35MOL0     C 4616   2.583  12.519   6.166  0.2360 -0.2307  0.2164
   35MOL0     C 4617   2.719  12.529   6.170 -0.5179 -0.7877 -0.1287
   35MOL0     C 4618   2.795  12.495   6.045 -0.2175 -0.3709  0.3556
   35MOL0     C 4619   2.773  12.550   6.297  0.1815 -0.5029 -0.4655
   35MOL0     C 4620   2.916  12.574   6.334 -0.3617  0.2085  0.1243
   35MOL0     O 4621   3.001  12.533   6.237  0.0257  0.3524  0.2638
   35MOL0     C 4622   3.131  12.508   6.278 -0.8450  0.1836  0.0906
   35MOL0     C 4623   3.226  12.609   6.279  0.3130  0.0073  0.2232
   35MOL0     C 4624   3.360  12.584   6.307 -0.0802 -0.1126 -1.2651
   35MOL0     C 4625   3.399  12.449   6.333  0.4322  0.9312 -0.3903
   35MOL0     O 4626   3.526  12.405   6.357 -0.0448 -0.3084 -0.2914
   35MOL0     C 4627   3.638  12.493   6.393  0.1519 -0.4105 -0.4900
   35MOL0     C 4628   3.767  12.408   6.376  0.7939  0.2048 -0.3003
   35MOL0     C 4629   3.816  12.353   6.507 -0.1372  0.6783 -0.6447
   35MOL0     C 4630   3.783  12.211   6.522 -0.0083  0.4063 -0.3074
   35MOL0     C 4631   3.829  12.141   6.657 -0.3232  0.8193  0.4204
   35MOL0     C 4632   3.751  12.182   6.779 -0.4264 -0.9269  0.5882
   35MOL0     C 4633   3.811  12.116   6.900  0.0389 -0.4071 -0.2073
   35MOL0     C 4634   3.718  12.128   7.021  0.1895 -0.2065 -0.1217
   35MOL0    Cl 4635   3.818  12.064   7.165  0.3707 -0.1179 -0.2217
   35MOL0     C 4636   3.304  12.348   6.312 -0.0352 -0.4229 -0.1066
   35MOL0     C 4637   3.177  12.380   6.279  0.0742  0.5038 -1.1604
   35MOL0     O 4638   2.945  12.620   6.443 -0.7826  0.1480  0.0728
   35MOL0     C 4639   2.687  12.549   6.415 -0.3544  0.6344  0.3857
   35MOL0     C 4640   2.548  12.529   6.399 -1.1081 -0.6518 -0.8100
   35MOL0     N 4641   1.805  12.248   6.537  0.3460 -0.5811 -0.9725
   35MOL0     N 4642   1.759  12.145   6.474  0.1052 -0.3686 -0.7330
   35MOL0     C 4643   2.282  10.982   6.293  0.1930 -0.3968  1.1680
   35MOL0     C 4644   2.291  10.865   6.366  1.0364  0.0925 -0.9461
   35MOL0     C 4645   2.212  10.538   6.652 -0.6706 -0.4385  0.2100
   35MOL0     C 4646   2.156  10.529   6.783 -0.0954  0.1462  0.2060
   35MOL0     C 4647   2.148  10.410   6.852 -1.7513  0.6497  0.1517
   35MOL0     C 4648   2.209  10.295   6.793  0.1814 -0.0803  0.4019
   35MOL0     O 4649   2.213  10.171   6.851  0.3532  0.0371  0.2550
   35MOL0     C 4650   2.229  10.167   6.990 -0.5401 -0.4704 -0.6461
   35MOL0     C 4651   2.256  10.015   7.008  0.7188 -0.1451 -0.7567
   35MOL0     C 4652   2.290   9.983   7.153  0.9037  0.6903 -0.3569
   35MOL0     C 4653   2.339   9.842   7.174  0.7036 -0.2216 -0.7385
   35MOL0     C 4654   2.338   9.799   7.313 -0.3120  0.3810  0.3355
   35MOL0     C 4655   2.349   9.753   7.423  0.1732  0.5755  0.4625
   35MOL0     C 4656   2.257  10.304   6.660  0.1604  0.5587 -0.1012
   35MOL0     C 4657   2.255  10.420   6.590 -0.2458  0.5880 -0.5577
   35MOL0     H 4658   2.005  10.710   6.274 -1.4904  0.8810  0.8410
   35MOL0     H 4659   1.976  10.947   6.153 -5.4175 -2.1652  4.6624
   35MOL0     H 4660   2.300  11.244   6.242  0.0334 -0.5049  1.0998
   35MOL0     H 4661   2.305  11.185   6.074  0.4682  1.0157  0.8460
   35MOL0     H 4662   2.253  11.405   6.039  0.1610 -2.4494 -2.3247
   35MOL0     H 4663   2.096  11.325   6.044  1.9129 -0.5487 -2.0632
   35MOL0     H 4664   2.101  11.382   6.313  0.8874 -1.4278 -0.5809
   35MOL0     H 4665   2.244  11.491   6.260 -0.0884  2.6574 -2.7677
   35MOL0     H 4666   2.078  11.583   6.081 -2.1647 -1.6309 -1.0352
   35MOL0     H 4667   1.947  11.498   6.163 -0.0423 -1.7974  0.2651
   35MOL0     H 4668   1.971  11.607   6.379 -0.6543  0.5915  0.3196
   35MOL0     H 4669   2.119  11.690   6.312 -0.3124  0.2559 -0.1492
   35MOL0     H 4670   1.971  11.811   6.147 -0.7576  0.9332 -0.4458
   35MOL0     H 4671   1.840  11.726   6.222  0.6217  0.6020 -3.1534
   35MOL0     H 4672   1.907  11.853   6.443 -0.5638  2.7160  0.5177
   35MOL0     H 4673   2.034  11.931   6.341 -1.1473  1.1025  2.6106
   35MOL0     H 4674   1.733  11.943   6.310 -1.4303  3.2297 -0.7308
   35MOL0     H 4675   1.847  12.026   6.194  0.7867  2.7842  1.5155
   35MOL0     H 4676   2.022  12.238   6.289  1.2517  2.6915  1.5914
   35MOL0     H 4677   1.919  12.505   6.512 -0.0423  1.4593 -0.2424
   35MOL0     H 4678   2.035  12.413   6.600 -1.0530 -4.5660  0.1270
   35MOL0     H 4679   2.110  12.570   6.414  0.1764 -0.7629  2.5360
   35MOL0     H 4680   2.069  12.457   6.292  1.1393  3.2959 -0.3534
   35MOL0     H 4681   2.229  12.284   6.445  0.5472  0.8700 -1.6683
   35MOL0     H 4682   2.284  12.442   6.500 -2.1369  3.1145 -0.9270
   35MOL0     H 4683   2.258  12.345   6.208 -2.8410  1.3752  2.3103
   35MOL0     H 4684   2.410  12.315   6.290  1.2710  0.3633 -2.8014
   35MOL0     H 4685   2.532  12.504   6.072 -1.2072 -0.5473  1.0044
   35MOL0     H 4686   2.868  12.575   6.030 -0.1726 -0.7322 -1.7262
   35MOL0     H 4687   2.851  12.404   6.066 -0.0693 -0.4605 -0.3914
   35MOL0     H 4688   2.734  12.484   5.955  1.3044 -0.4448 -0.6944
   35MOL0     H 4689   3.198  12.712   6.260  1.6154  1.0557  3.3284
   35MOL0     H 4690   3.427  12.669   6.312 -1.0180  0.6517 -1.4519
   35MOL0     H 4691   3.644  12.577   6.324 -1.4420  1.1156  1.1400
   35MOL0     H 4692   3.617  12.536   6.491 -0.0381  2.6642 -1.7773
   35MOL0     H 4693   3.756  12.341   6.290  2.1570  2.5302 -2.4192
   35MOL0     H 4694   3.846  12.479   6.350  1.5264  0.1799  1.6681
   35MOL0     H 4695   3.766  12.412   6.584 -2.3401 -2.6700  0.7199
   35MOL0     H 4696   3.923  12.377   6.511  0.8572 -2.5420 -3.1949
   35MOL0     H 4697   3.675  12.198   6.508 -0.0499  2.1826 -2.1748
   35MOL0     H 4698   3.824  12.156   6.436 -2.7000 -3.4452  0.5988
   35MOL0     H 4699   3.936  12.158   6.671 -0.5757  1.2655  1.9398
   35MOL0     H 4700   3.823  12.033   6.642  1.7993  0.7251 -0.1202
   35MOL0     H 4701   3.762  12.290   6.792 -1.6363 -0.7318  0.1028
   35MOL0     H 4702   3.644  12.170   6.763 -0.5040  0.5216 -0.1208
   35MOL0     H 4703   3.912  12.154   6.918  0.8810 -2.8845  0.7469
   35MOL0     H 4704   3.815  12.008   6.881 -1.8164 -0.1907 -2.1858
   35MOL0     H 4705   3.626  12.074   6.995 -0.0692 -1.8256  3.4799
   35MOL0     H 4706   3.679  12.229   7.038 -3.5524 -0.8406 -3.4564
   35MOL0     H 4707   3.331  12.247   6.338 -0.1619 -0.1356  1.2059
   35MOL0     H 4708   3.111  12.294   6.275  0.8325 -0.2969  1.4209
   35MOL0     H 4709   2.728  12.573   6.512  0.3774 -1.3816  0.6135
   35MOL0     H 4710   2.487  12.544   6.488 -1.9997  0.3908 -1.5704
   35MOL0     H 4711   2.372  11.043   6.300  0.5543 -0.3828 -2.0976
   35MOL0     H 4712   2.388  10.841   6.408  0.2393  0.3140  1.1109
   35MOL0     H 4713   2.111  10.616   6.830 -1.1235 -1.3337  2.0802
   35MOL0     H 4714   2.110  10.411   6.954 -1.3798  1.2399  0.2914
   35MOL0     H 4715   2.304  10.233   7.034 -1.1259 -2.1061  3.2141
   35MOL0     H 4716   2.137  10.197   7.042  1.6966  0.0042  3.4757
   35MOL0     H 4717   2.334   9.983   6.938  0.9415  0.9773 -1.0418
   35MOL0     H 4718   2.163   9.965   6.982  0.1474 -0.8327  2.2430
   35MOL0     H 4719   2.201  10.009   7.211  1.7780 -1.3396  2.1177
   35MOL0     H 4720   2.363  10.051   7.198  1.4800 -0.7981  1.0521
   35MOL0     H 4721   2.440   9.825   7.136  0.7519 -0.3097 -0.5705
   35MOL0     H 4722   2.273   9.771   7.124  0.0465 -0.6287  0.6513
   35MOL0     H 4723   2.355   9.696   7.514  0.1513  0.1470  0.1959
   35MOL0     H 4724   2.303  10.216   6.617  0.2498  0.1920  0.7379
   35MOL0     H 4725   2.295  10.423   6.489 -0.1529 -0.1086 -0.5436
   36MOL0     O 4726   2.055   7.592   0.677  0.6814  0.2183 -1.0690
   36MOL0     C 4727   1.950   7.530   0.669 -0.7908  0.6362 -0.1210
   36MOL0     O 4728   1.848   7.574   0.596 -0.8674 -0.0700  0.1607
   36MOL0     C 4729   1.854   7.667   0.496  0.5449  0.1632 -1.3779
   36MOL0     C 4730   1.725   7.696   0.448  0.9337 -0.0274 -0.7241
   36MOL0     C 4731   1.717   7.779   0.335 -0.5691  0.6297  0.9830
   36MOL0     C 4732   1.829   7.828   0.267 -0.2133  0.6014 -0.6909
   36MOL0     O 4733   1.802   7.876   0.143  0.1963 -0.1300  0.2420
   36MOL0     C 4734   1.901   7.955   0.069 -0.0752 -0.0954  0.0642
   36MOL0     C 4735   1.849   8.017  -0.060  0.1740  0.5052 -0.5044
   36MOL0     C 4736   1.770   7.921  -0.160 -0.0693 -0.6855 -0.4744
   36MOL0     C 4737   1.865   7.829  -0.227 -0.2938 -0.8231 -0.0488
   36MOL0     C 4738   1.828   7.795  -0.378 -0.0627  0.2588 -0.5451
   36MOL0     C 4739   1.904   7.881  -0.475 -0.2297  0.0524  0.6343
   36MOL0     C 4740   1.821   8.005  -0.521  0.5092  0.3729 -0.9556
   36MOL0     C 4741   1.913   8.082  -0.625 -0.0518  0.3396 -0.4606
   36MOL0     N 4742   1.871   8.221  -0.625  0.6073 -0.2716  0.7903
   36MOL0     C 4743   1.938   8.333  -0.573 -0.3440  1.1848  0.2053
   36MOL0     C 4744   1.861   8.440  -0.606 -0.6402  0.4157  0.0186
   36MOL0     C 4745   1.888   8.591  -0.588  0.6137 -0.3049 -0.2454
   36MOL0     C 4746   1.909   8.661  -0.716 -0.2899 -0.4669 -0.9588
   36MOL0     C 4747   2.004   8.777  -0.697 -0.5467 -0.8577  0.0977
   36MOL0     C 4748   2.035   8.842  -0.831 -0.3437 -0.0566 -0.4349
   36MOL0     O 4749   2.105   8.959  -0.792 -0.2596 -0.4535  0.6173
   36MOL0     C 4750   2.188   9.020  -0.882  0.1249  0.4412  0.5055
   36MOL0     C 4751   2.193   8.984  -1.023 -0.7256 -0.1063 -0.1920
   36MOL0     C 4752   2.299   9.045  -1.105  0.6195 -0.8608 -0.1168
   36MOL0     C 4753   2.290   9.008  -1.248 -0.2836 -0.0249  0.2715
   36MOL0     C 4754   2.387   9.146  -1.050  0.2458 -0.0338  0.2864
   36MOL0     C 4755   2.505   9.209  -1.114 -0.3836  0.1749 -0.7961
   36MOL0     O 4756   2.586   9.294  -1.036  0.6212 -0.0687 -0.4437
   36MOL0     C 4757   2.718   9.281  -1.059 -0.3857 -0.2592 -0.4485
   36MOL0     C 4758   2.800   9.193  -0.982 -0.1407  0.4386  0.3779
   36MOL0     C 4759   2.935   9.181  -1.004  0.7129  0.2533  0.3398
   36MOL0     C 4760   3.003   9.256  -1.099 -0.1455  0.1449 -0.3237
   36MOL0     O 4761   3.135   9.250  -1.128 -0.2552  0.2743  0.5558
   36MOL0     C 4762   3.229   9.223  -1.022 -0.0298 -0.7810 -0.0057
   36MOL0     C 4763   3.369   9.186  -1.082 -0.0252  0.0106 -1.1542
   36MOL0     C 4764   3.359   9.063  -1.178  0.3599  0.3804 -0.5231
   36MOL0     C 4765   3.479   9.027  -1.269  0.4024  0.1280 -0.0645
   36MOL0     C 4766   3.525   9.139  -1.363  0.1996 -0.3897  0.5084
   36MOL0     C 4767   3.427   9.184  -1.482  1.2223 -0.1360 -0.2611
   36MOL0     C 4768   3.500   9.265  -1.589 -0.8360 -0.4859 -0.3690
   36MOL0     C 4769   3.404   9.312  -1.695  0.7003 -0.3944  0.2675
   36MOL0    Cl 4770   3.379   9.189  -1.824 -0.0941  0.3333 -0.1336
   36MOL0     C 4771   2.923   9.348  -1.166  0.4677 -0.3829 -0.3327
   36MOL0     C 4772   2.789   9.365  -1.143  0.3026 -0.5850  0.6896
   36MOL0     O 4773   2.535   9.167  -1.220 -0.6006  0.0077 -0.5971
   36MOL0     C 4774   2.367   9.171  -0.912  0.2119 -0.1804  0.2577
   36MOL0     C 4775   2.274   9.111  -0.833  0.2995  0.2937 -0.1829
   36MOL0     N 4776   1.743   8.393  -0.655  0.5488 -0.8940 -0.4342
   36MOL0     N 4777   1.747   8.268  -0.672  0.1418 -0.0288  0.0450
   36MOL0     C 4778   1.962   7.797   0.312 -0.0281  1.1491 -0.9416
   36MOL0     C 4779   1.969   7.721   0.431  0.1091 -0.1374 -0.0358
   36MOL0     C 4780   1.937   7.419   0.770 -0.1459  0.9520  0.0485
   36MOL0     C 4781   2.043   7.361   0.840 -0.0703 -0.4354  0.1519
   36MOL0     C 4782   2.020   7.261   0.927 -0.4065  0.4491 -0.5007
   36MOL0     C 4783   1.889   7.217   0.953 -0.0850  0.6792 -1.6045
   36MOL0     O 4784   1.872   7.116   1.051 -0.0708  0.6303  0.1116
   36MOL0     C 4785   1.746   7.107   1.104 -0.0533 -0.5429 -0.5464
   36MOL0     C 4786   1.732   6.987   1.192  0.4540 -0.3980  0.2295
   36MOL0     C 4787   1.590   6.969   1.241 -0.2908  0.3104  0.1045
   36MOL0     C 4788   1.488   6.918   1.136  0.2892 -0.5032 -0.2820
   36MOL0     C 4789   1.368   6.995   1.133  0.5880  0.8858  0.3196
   36MOL0     C 4790   1.257   7.042   1.148 -0.0084 -0.0342  0.3955
   36MOL0     C 4791   1.785   7.268   0.874  0.6687 -0.1836 -0.2695
   36MOL0     C 4792   1.811   7.363   0.775 -0.8270 -0.2455  0.8733
   36MOL0     H 4793   1.629   7.662   0.485  1.2423  0.4358  0.5462
   36MOL0     H 4794   1.624   7.804   0.286  0.4955  0.0104 -1.5056
   36MOL0     H 4795   1.941   8.037   0.130  2.2049 -1.1958  0.1702
   36MOL0     H 4796   1.994   7.901   0.047  1.6505  2.7895 -0.3807
   36MOL0     H 4797   1.785   8.102  -0.033 -0.0755 -0.4354  2.0933
   36MOL0     H 4798   1.933   8.057  -0.118 -0.0817  0.2277 -1.0767
   36MOL0     H 4799   1.691   7.860  -0.116 -1.0422  0.4298 -0.6433
   36MOL0     H 4800   1.717   7.993  -0.224 -1.7341 -1.9319 -0.5740
   36MOL0     H 4801   1.966   7.871  -0.221 -0.5234  0.0589 -1.8425
   36MOL0     H 4802   1.863   7.738  -0.167  1.1474 -1.6153 -1.1569
   36MOL0     H 4803   1.854   7.689  -0.391  3.0783  0.3131  3.4793
   36MOL0     H 4804   1.720   7.794  -0.396 -0.4911 -0.9751  1.7352
   36MOL0     H 4805   2.001   7.914  -0.438  0.3309  0.4529 -1.1108
   36MOL0     H 4806   1.922   7.810  -0.557 -0.3388 -0.0405  0.6907
   36MOL0     H 4807   1.726   7.962  -0.554  0.2642 -1.9601  2.3209
   36MOL0     H 4808   1.806   8.066  -0.432 -1.6139 -2.5750  0.8776
   36MOL0     H 4809   1.881   8.038  -0.720  1.2547 -1.1042 -0.2652
   36MOL0     H 4810   2.019   8.060  -0.610 -0.3898 -1.6679 -0.8065
   36MOL0     H 4811   2.030   8.352  -0.519 -0.0262 -0.3832  0.2766
   36MOL0     H 4812   1.805   8.645  -0.541  0.6634  0.3806 -0.9290
   36MOL0     H 4813   1.974   8.613  -0.524  0.7104 -0.2601 -0.3908
   36MOL0     H 4814   1.820   8.701  -0.766  0.8147  1.3076 -1.6100
   36MOL0     H 4815   1.957   8.585  -0.779  0.9692 -0.7014  0.2182
   36MOL0     H 4816   2.096   8.744  -0.647 -0.4250 -1.4258 -0.4752
   36MOL0     H 4817   1.953   8.846  -0.630  1.4061 -1.1578  1.9980
   36MOL0     H 4818   1.940   8.863  -0.882 -0.6206  2.3298  0.8854
   36MOL0     H 4819   2.100   8.779  -0.891  1.6333 -1.3634  2.8222
   36MOL0     H 4820   2.120   8.920  -1.070 -3.5810  2.7674 -0.0028
   36MOL0     H 4821   2.291   9.092  -1.319 -0.1559  0.2538  0.6030
   36MOL0     H 4822   2.371   8.942  -1.279 -0.9422  0.0624 -1.8027
   36MOL0     H 4823   2.194   8.961  -1.273  1.5302 -2.3105 -3.2706
   36MOL0     H 4824   2.737   9.143  -0.909 -0.2402  0.5903  0.3979
   36MOL0     H 4825   2.998   9.118  -0.941  2.5690 -0.0150 -1.6776
   36MOL0     H 4826   3.245   9.307  -0.953  0.0330 -1.1765  0.4610
   36MOL0     H 4827   3.187   9.142  -0.963  0.0456 -0.2993  0.7241
   36MOL0     H 4828   3.418   9.267  -1.138  1.9593 -0.2267  0.1177
   36MOL0     H 4829   3.441   9.155  -1.005 -1.1263 -0.4389 -0.2827
   36MOL0     H 4830   3.277   9.090  -1.245 -2.6119  0.5439  2.9042
   36MOL0     H 4831   3.322   8.983  -1.114  1.5068  0.8184  0.7409
   36MOL0     H 4832   3.556   9.005  -1.195 -1.5969  2.7859  3.1072
   36MOL0     H 4833   3.459   8.938  -1.330 -0.4442  0.7570 -0.7407
   36MOL0     H 4834   3.618   9.104  -1.409 -0.4748  0.3225 -1.5098
   36MOL0     H 4835   3.549   9.228  -1.305  0.4981  1.4920 -2.3318
   36MOL0     H 4836   3.372   9.098  -1.521  0.2268 -0.7960  2.4006
   36MOL0     H 4837   3.343   9.240  -1.439 -1.7760 -2.8233 -2.1813
   36MOL0     H 4838   3.576   9.203  -1.636 -0.5327  0.9326 -1.8212
   36MOL0     H 4839   3.535   9.358  -1.544 -2.5801  2.3741 -4.2935
   36MOL0     H 4840   3.456   9.398  -1.740  1.2133  0.6811  2.7636
   36MOL0     H 4841   3.306   9.337  -1.654  0.9158 -1.0946  1.2227
   36MOL0     H 4842   2.971   9.410  -1.240  0.2711  0.3880  0.1731
   36MOL0     H 4843   2.744   9.448  -1.196  1.7202  0.9516  1.7629
   36MOL0     H 4844   2.439   9.225  -0.851 -0.8520  0.0636  1.3250
   36MOL0     H 4845   2.263   9.147  -0.731 -1.2365 -0.8939  0.1247
   36MOL0     H 4846   2.054   7.832   0.267 -0.7609  1.7551 -2.0244
   36MOL0     H 4847   2.069   7.703   0.470 -0.0363  1.5820  1.2499
   36MOL0     H 4848   2.141   7.405   0.830  0.2019 -1.0688 -0.0450
   36MOL0     H 4849   2.107   7.220   0.976 -1.3368 -1.5756 -0.4347
   36MOL0     H 4850   1.708   7.195   1.156 -2.5915  0.1135 -3.2546
   36MOL0     H 4851   1.679   7.091   1.019 -2.4444  0.0022  1.1574
   36MOL0     H 4852   1.807   6.991   1.271 -0.7648  0.2649  1.3796
   36MOL0     H 4853   1.760   6.899   1.133 -1.1753  0.6802 -2.3196
   36MOL0     H 4854   1.567   7.059   1.298  2.2108  0.8122  0.3929
   36MOL0     H 4855   1.589   6.888   1.314  1.4726 -1.1015 -1.3560
   36MOL0     H 4856   1.460   6.818   1.169 -1.9083  0.7744  2.1839
   36MOL0     H 4857   1.538   6.894   1.042 -1.0491 -3.2273 -0.3867
   36MOL0     H 4858   1.166   7.093   1.174 -0.6393  0.6891 -2.7872
   36MOL0     H 4859   1.684   7.229   0.878  0.7704 -0.5671 -1.2474
   36MOL0     H 4860   1.743   7.396   0.696  0.2111 -0.7995 -0.2912
   37MOL0     O 4861   7.565   8.824  10.979  0.4762 -0.0553 -0.1942
   37MOL0     C 4862   7.610   8.764  11.074  0.1596 -0.3549 -0.6811
   37MOL0     O 4863   7.724   8.799  11.149  0.0025  0.5472  0.4346
   37MOL0     C 4864   7.823   8.887  11.104  0.3638 -0.8705 -0.6673
   37MOL0     C 4865   7.901   8.942  11.198 -0.7058 -0.6850 -0.2812
   37MOL0     C 4866   8.002   9.031  11.166 -1.1512 -0.5300  0.0377
   37MOL0     C 4867   8.023   9.080  11.035 -0.0644  0.1957  0.4307
   37MOL0     O 4868   8.116   9.178  11.017  0.3608  0.4589  0.1460
   37MOL0     C 4869   8.057   9.297  11.070  0.7511 -0.1121 -0.0045
   37MOL0     C 4870   8.130   9.424  11.028 -0.8022  1.1581  0.0931
   37MOL0     C 4871   8.285   9.406  11.013 -1.4579 -0.9778  0.4507
   37MOL0     C 4872   8.347   9.363  11.148  0.6606  0.5462  0.4018
   37MOL0     C 4873   8.490   9.391  11.174  0.0439 -0.5171 -0.4195
   37MOL0     C 4874   8.568   9.288  11.092 -0.1926 -0.0045  0.0285
   37MOL0     C 4875   8.720   9.325  11.096  0.1719 -0.3593 -0.1754
   37MOL0     C 4876   8.752   9.437  10.990  0.0460 -0.0693  0.0166
   37MOL0     N 4877   8.895   9.442  10.994 -0.7503  0.2722  0.7872
   37MOL0     C 4878   8.972   9.471  11.104  0.7110  0.2404  0.0997
   37MOL0     C 4879   9.090   9.518  11.050 -0.2799  0.6130 -0.1692
   37MOL0     C 4880   9.198   9.575  11.132 -0.3029  0.4378  0.6877
   37MOL0     C 4881   9.245   9.703  11.068 -0.8056  0.4356  0.4692
   37MOL0     C 4882   9.346   9.775  11.153 -0.0342  0.2969 -0.1775
   37MOL0     C 4883   9.385   9.912  11.095  0.7864  0.5434  0.1968
   37MOL0     O 4884   9.482   9.910  10.987 -0.8458 -0.0830  0.9935
   37MOL0     C 4885   9.615   9.865  10.999  0.1896 -0.0447 -0.4189
   37MOL0     C 4886   9.665   9.827  11.123  0.3366  1.0971  0.3290
   37MOL0     C 4887   9.792   9.774  11.145 -0.6135 -0.3363 -0.9232
   37MOL0     C 4888   9.833   9.762  11.294  0.7124  0.2644  1.3270
   37MOL0     C 4889   9.881   9.761  11.034 -0.4522  0.9836  0.1380
   37MOL0     C 4890  10.017   9.726  11.049  0.5036 -1.2403 -0.7291
   37MOL0     O 4891  10.107   9.815  11.001  0.6030 -1.6801 -0.3447
   37MOL0     C 4892  10.229   9.814  11.072 -0.2089 -1.1068 -0.0881
   37MOL0     C 4893  10.353   9.819  11.006  0.2671  0.2339 -0.0511
   37MOL0     C 4894  10.473   9.801  11.078 -1.0503 -1.2402 -1.0909
   37MOL0     C 4895  10.478   9.805  11.220 -0.4946  0.6694  0.1850
   37MOL0     O 4896  10.596   9.808  11.282  0.3054 -0.0722 -0.3313
   37MOL0     C 4897  10.650   9.943  11.291  0.6425  1.0545  0.2112
   37MOL0     C 4898  10.801   9.951  11.287  0.4286 -0.6553 -1.0979
   37MOL0     C 4899  10.855   9.887  11.415 -1.2016  0.1585 -0.2742
   37MOL0     C 4900  11.009   9.890  11.408 -0.0297 -0.7553  1.0249
   37MOL0     C 4901  11.057  10.025  11.457  0.5195  1.1614 -0.5970
   37MOL0     C 4902  11.209  10.028  11.472  0.4971 -0.3347  0.5345
   37MOL0     C 4903  11.263  10.153  11.539  0.3257  0.4473  0.4631
   37MOL0     C 4904  11.404  10.183  11.508  0.9296  0.4884 -1.0974
   37MOL0    Cl 4905  11.423  10.259  11.345 -0.3387 -0.1156 -0.1855
   37MOL0     C 4906  10.358   9.828  11.286 -0.7693 -0.0151 -0.6203
   37MOL0     C 4907  10.237   9.830  11.212  0.1432 -0.4957  0.3369
   37MOL0     O 4908  10.040   9.619  11.088 -0.8448  1.1367  0.7340
   37MOL0     C 4909   9.831   9.800  10.914 -0.4504  0.1734  0.2212
   37MOL0     C 4910   9.702   9.863  10.891 -0.7723  0.2498  0.4110
   37MOL0     N 4911   9.084   9.512  10.913  0.1957 -0.2172 -0.8036
   37MOL0     N 4912   8.973   9.460  10.880 -0.0727  0.3111 -0.1455
   37MOL0     C 4913   7.945   9.015  10.937  0.0390 -0.0246  0.2629
   37MOL0     C 4914   7.853   8.907  10.970 -0.1222 -0.5524 -0.6094
   37MOL0     C 4915   7.530   8.660  11.133  0.4638  1.1692  0.4735
   37MOL0     C 4916   7.390   8.657  11.096 -1.0632 -0.1441 -0.0079
   37MOL0     C 4917   7.321   8.552  11.161  0.4668  0.2188 -0.2843
   37MOL0     C 4918   7.374   8.446  11.236  0.4144 -0.1167 -0.6436
   37MOL0     O 4919   7.288   8.349  11.283  0.1713 -0.3082 -0.0101
   37MOL0     C 4920   7.344   8.233  11.339 -0.5187  0.4704 -0.7004
   37MOL0     C 4921   7.235   8.159  11.429 -0.5501 -0.5736  0.6622
   37MOL0     C 4922   7.117   8.108  11.339  0.3079 -0.0749 -0.6047
   37MOL0     C 4923   6.997   8.053  11.412 -0.8788  0.4007 -0.5699
   37MOL0     C 4924   7.021   7.931  11.487 -0.6837 -0.1848  0.3206
   37MOL0     C 4925   7.023   7.825  11.543  0.1793 -0.4410  0.1056
   37MOL0     C 4926   7.507   8.451  11.258  0.0654 -0.3448  0.4921
   37MOL0     C 4927   7.580   8.561  11.207 -0.0075  1.0273  0.1211
   37MOL0     H 4928   7.889   8.918  11.303 -0.0392 -1.9262 -0.4602
   37MOL0     H 4929   8.061   9.083  11.240  2.2158  1.2702 -3.5377
   37MOL0     H 4930   7.953   9.316  11.042  0.1945 -1.2850  1.1390
   37MOL0     H 4931   8.072   9.308  11.178  0.5873  1.0734 -0.0881
   37MOL0     H 4932   8.089   9.458  10.933  2.8864 -0.0443 -2.1673
   37MOL0     H 4933   8.114   9.501  11.104 -0.9091  3.4974 -2.1761
   37MOL0     H 4934   8.308   9.330  10.938 -0.2874  1.3402 -1.6995
   37MOL0     H 4935   8.333   9.492  10.965 -1.1471 -3.1774 -3.5428
   37MOL0     H 4936   8.293   9.420  11.225  1.9055  1.2291  0.7967
   37MOL0     H 4937   8.320   9.259  11.167  0.8158  0.2296 -1.0126
   37MOL0     H 4938   8.520   9.494  11.149  2.0686 -0.7503  0.7988
   37MOL0     H 4939   8.527   9.382  11.277  0.6848  1.7956 -0.3776
   37MOL0     H 4940   8.566   9.193  11.146 -0.6979  0.3092  0.5714
   37MOL0     H 4941   8.524   9.267  10.994 -3.5206 -3.1405  1.9197
   37MOL0     H 4942   8.758   9.362  11.192  1.7270  3.1384 -1.9449
   37MOL0     H 4943   8.784   9.240  11.073  1.0101 -0.0476  0.8740
   37MOL0     H 4944   8.706   9.535  11.011  0.2204 -0.0156  0.1508
   37MOL0     H 4945   8.726   9.399  10.891  1.1006  0.3831 -0.4540
   37MOL0     H 4946   8.956   9.478  11.211  2.9110 -0.8887  0.5545
   37MOL0     H 4947   9.155   9.592  11.231 -1.2462  4.3613 -0.2198
   37MOL0     H 4948   9.281   9.504  11.129 -1.2486 -0.6900  0.4343
   37MOL0     H 4949   9.154   9.763  11.070 -1.3928 -0.4259  0.2328
   37MOL0     H 4950   9.285   9.683  10.968  1.6800  2.0839  1.0502
   37MOL0     H 4951   9.440   9.720  11.159  1.4982  2.8166  0.4498
   37MOL0     H 4952   9.308   9.789  11.255  2.1639 -1.7122  1.0215
   37MOL0     H 4953   9.421   9.953  11.189 -0.9460  3.7778 -0.3886
   37MOL0     H 4954   9.299   9.973  11.065  0.7175  0.0592 -0.6320
   37MOL0     H 4955   9.601   9.835  11.211  1.6561 -3.7690  2.0659
   37MOL0     H 4956   9.866   9.659  11.304  1.7023 -0.4534 -5.3272
   37MOL0     H 4957   9.911   9.836  11.314 -0.9173  3.2782 -2.2350
   37MOL0     H 4958   9.742   9.783  11.352 -2.0009  0.3732 -2.5964
   37MOL0     H 4959  10.362   9.811  10.898 -5.7815 -0.5315 -0.8113
   37MOL0     H 4960  10.567   9.775  11.031 -0.5489  2.7975 -2.7460
   37MOL0     H 4961  10.626  10.015  11.212 -0.6461  2.5668  1.9058
   37MOL0     H 4962  10.606   9.995  11.376  1.3945 -1.7522  2.4633
   37MOL0     H 4963  10.829   9.886  11.204  1.3302 -0.9358 -0.5853
   37MOL0     H 4964  10.827  10.056  11.275 -1.7122 -0.0598 -0.9131
   37MOL0     H 4965  10.822   9.783  11.419 -3.0663  0.7648  1.5716
   37MOL0     H 4966  10.816   9.937  11.504 -0.7061 -1.2242  0.7475
   37MOL0     H 4967  11.051   9.812  11.473  0.9148 -1.4579 -0.3715
   37MOL0     H 4968  11.051   9.875  11.308  1.7386  0.6655  1.5033
   37MOL0     H 4969  11.010  10.045  11.553 -0.9902 -2.0654 -0.5385
   37MOL0     H 4970  11.018  10.102  11.390 -0.6586  1.3909  0.3202
   37MOL0     H 4971  11.240   9.939  11.527 -2.3757 -1.5610  0.3675
   37MOL0     H 4972  11.243  10.036  11.368  0.6371 -0.4031  0.5758
   37MOL0     H 4973  11.237  10.141  11.645  1.2915 -3.4261  0.4086
   37MOL0     H 4974  11.203  10.239  11.506  2.4903  3.2094  3.0675
   37MOL0     H 4975  11.455  10.087  11.495  1.5271  1.0646 -3.6690
   37MOL0     H 4976  11.439  10.251  11.586  1.2737 -0.7630 -0.1365
   37MOL0     H 4977  10.355   9.858  11.391  1.2138  3.1948 -1.3189
   37MOL0     H 4978  10.147   9.867  11.261  0.9905  1.6212  0.4220
   37MOL0     H 4979   9.892   9.781  10.826 -1.3266 -0.4543 -0.2701
   37MOL0     H 4980   9.686   9.893  10.788  2.6027  1.7758  0.1829
   37MOL0     H 4981   7.952   9.038  10.832 -3.4558 -0.6073 -0.2329
   37MOL0     H 4982   7.790   8.868  10.891 -1.1519 -0.2276  0.0332
   37MOL0     H 4983   7.347   8.745  11.049 -4.9427 -1.7331  0.2066
   37MOL0     H 4984   7.214   8.558  11.142  0.3964  4.9051  0.3530
   37MOL0     H 4985   7.372   8.163  11.260 -3.6141 -0.8959 -0.7498
   37MOL0     H 4986   7.432   8.250  11.401  0.0480 -2.0304 -0.7161
   37MOL0     H 4987   7.204   8.233  11.504 -0.1186 -1.1635  1.4296
   37MOL0     H 4988   7.276   8.066  11.469  0.7166 -1.3024 -2.1099
   37MOL0     H 4989   7.167   8.040  11.270  1.5344 -2.0259  2.0420
   37MOL0     H 4990   7.083   8.193  11.279  0.5560 -1.2516 -2.4914
   37MOL0     H 4991   6.922   8.027  11.338 -0.3441 -0.1791 -0.9227
   37MOL0     H 4992   6.964   8.134  11.478 -5.4283  1.6003 -3.8983
   37MOL0     H 4993   7.028   7.730  11.592  3.4062 -0.0204  0.8350
   37MOL0     H 4994   7.566   8.372  11.305  1.2859 -2.1823 -3.6734
   37MOL0     H 4995   7.686   8.544  11.225 -0.6189 -0.0725  3.2321
   38MOL0     O 4996   3.135   8.472  11.202 -0.2771 -0.3697 -0.5694
   38MOL0     C 4997   3.134   8.409  11.100 -0.1015  0.2786  0.3978
   38MOL0     O 4998   3.057   8.300  11.075 -0.3528 -0.7435  0.2134
   38MOL0     C 4999   2.978   8.243  11.173  0.6053 -0.2913 -0.2119
   38MOL0     C 5000   2.893   8.145  11.116  0.2818  0.0673 -0.4509
   38MOL0     C 5001   2.823   8.059  11.188 -0.0739  0.0057  0.8546
   38MOL0     C 5002   2.812   8.071  11.327 -0.7841  0.1671  0.6331
   38MOL0     O 5003   2.748   7.973  11.400  0.2949  0.0759  0.1680
   38MOL0     C 5004   2.614   7.930  11.374  0.8897  0.6489 -0.6057
   38MOL0     C 5005   2.569   7.824  11.480 -0.1085  0.5170  0.4076
   38MOL0     C 5006   2.580   7.885  11.617 -0.3456  0.0078  0.2389
   38MOL0     C 5007   2.501   7.798  11.719 -0.1514 -0.2038  0.9145
   38MOL0     C 5008   2.511   7.848  11.862 -0.4824 -0.7999 -0.5924
   38MOL0     C 5009   2.432   7.983  11.883  0.5805 -0.1008  0.3597
   38MOL0     C 5010   2.408   8.011  12.033 -0.6879 -0.0178  0.2830
   38MOL0     C 5011   2.536   8.074  12.107  0.5591  0.1646  0.7912
   38MOL0     N 5012   2.512   8.175  12.213 -0.1454 -0.4386  0.9466
   38MOL0     C 5013   2.586   8.174  12.325 -0.4793 -0.6442  0.1672
   38MOL0     C 5014   2.549   8.275  12.402 -0.5293 -1.3102 -0.6080
   38MOL0     C 5015   2.605   8.315  12.542 -0.5830  0.7174 -0.0278
   38MOL0     C 5016   2.702   8.432  12.527 -0.3576 -0.6417 -0.5124
   38MOL0     C 5017   2.757   8.484  12.656 -0.2551 -0.4271 -0.1862
   38MOL0     C 5018   2.821   8.383  12.753 -0.2218 -0.7820  0.4442
   38MOL0     O 5019   2.716   8.348  12.839  0.1134 -0.3444 -0.1010
   38MOL0     C 5020   2.746   8.284  12.957  0.3876 -0.4013 -0.6161
   38MOL0     C 5021   2.879   8.230  12.994  0.3192 -0.5489  0.1287
   38MOL0     C 5022   2.898   8.150  13.113 -0.2571 -0.0568  0.5519
   38MOL0     C 5023   3.031   8.098  13.128 -0.1162  0.5518 -0.3216
   38MOL0     C 5024   2.783   8.133  13.197  0.5665  0.3698 -0.7253
   38MOL0     C 5025   2.774   8.047  13.326  0.4120 -0.2194 -0.2306
   38MOL0     O 5026   2.669   8.065  13.406 -0.1868  0.1957 -0.1611
   38MOL0     C 5027   2.676   8.027  13.539 -0.4612 -0.4328  0.5988
   38MOL0     C 5028   2.572   7.957  13.595 -0.8435  0.1358  1.0435
   38MOL0     C 5029   2.574   7.920  13.733 -0.2289 -0.1509  0.4531
   38MOL0     C 5030   2.666   7.973  13.826  0.6731 -0.6374  0.8912
   38MOL0     O 5031   2.676   7.945  13.961 -0.1355 -0.6016 -0.3709
   38MOL0     C 5032   2.571   7.864  14.019 -0.2759 -0.0654 -0.0997
   38MOL0     C 5033   2.598   7.850  14.161 -0.3797  0.2464 -0.5070
   38MOL0     C 5034   2.484   7.761  14.229  0.2630  0.1985  0.5443
   38MOL0     C 5035   2.523   7.711  14.370  0.1071 -0.2395 -0.2140
   38MOL0     C 5036   2.408   7.633  14.449 -0.3363 -0.6116  0.0263
   38MOL0     C 5037   2.322   7.735  14.523  0.1259 -0.6130 -0.5633
   38MOL0     C 5038   2.208   7.667  14.594  0.6503 -0.6128 -0.2194
   38MOL0     C 5039   2.096   7.613  14.512  0.1577 -0.0975  0.5701
   38MOL0    Cl 5040   2.022   7.717  14.397 -0.4920 -0.0142  0.1976
   38MOL0     C 5041   2.765   8.054  13.763  0.3941  0.8723 -0.2531
   38MOL0     C 5042   2.774   8.080  13.620  0.0423  0.2181 -1.4865
   38MOL0     O 5043   2.882   8.000  13.356 -0.4379  0.4500 -0.3754
   38MOL0     C 5044   2.664   8.188  13.160  0.7364  0.4529 -0.4755
   38MOL0     C 5045   2.641   8.260  13.039 -0.2878 -0.1442  0.0147
   38MOL0     N 5046   2.447   8.335  12.330  0.1143  0.1822  1.2474
   38MOL0     N 5047   2.421   8.282  12.219 -0.5929 -0.4904 -0.3834
   38MOL0     C 5048   2.900   8.166  11.387 -0.5362  0.1871  0.0082
   38MOL0     C 5049   2.979   8.261  11.314  0.1254 -0.2811  0.2026
   38MOL0     C 5050   3.205   8.479  10.988  0.8310  0.5190  0.5566
   38MOL0     C 5051   3.323   8.549  11.009  0.0538 -0.1756 -0.2863
   38MOL0     C 5052   3.382   8.619  10.902  0.0493  0.0319 -0.3052
   38MOL0     C 5053   3.334   8.609  10.766  0.4509  0.2246 -0.1226
   38MOL0     O 5054   3.408   8.677  10.679  0.3921 -0.1866  0.1476
   38MOL0     C 5055   3.353   8.725  10.560 -0.1176 -0.6429 -0.6019
   38MOL0     C 5056   3.348   8.628  10.451 -0.0035  0.6044  0.2643
   38MOL0     C 5057   3.433   8.665  10.328 -0.5339 -0.0569 -0.8636
   38MOL0     C 5058   3.438   8.548  10.231 -0.1093 -1.0303 -0.6623
   38MOL0     C 5059   3.527   8.445  10.300  0.5026 -0.5056  0.5155
   38MOL0     C 5060   3.611   8.364  10.344  0.7875  0.3429  0.4809
   38MOL0     C 5061   3.214   8.536  10.741  0.1469  0.7223  0.2411
   38MOL0     C 5062   3.159   8.468  10.854 -0.2863 -0.2655  0.7087
   38MOL0     H 5063   2.902   8.132  11.009  1.5384  0.9779 -0.4785
   38MOL0     H 5064   2.774   7.975  11.139  1.6052  0.2035 -1.3015
   38MOL0     H 5065   2.553   8.021  11.381  1.0589  0.8305 -1.4158
   38MOL0     H 5066   2.596   7.887  11.275 -0.1129 -2.2648  0.7164
   38MOL0     H 5067   2.465   7.800  11.459  0.1918  2.8590 -5.9484
   38MOL0     H 5068   2.624   7.730  11.471 -1.8638 -0.5191  0.0376
   38MOL0     H 5069   2.677   7.907  11.661  0.6662  1.4689 -2.5117
   38MOL0     H 5070   2.538   7.985  11.605  0.8094  0.7636  2.0547
   38MOL0     H 5071   2.393   7.806  11.702 -0.0159 -2.1929 -1.4171
   38MOL0     H 5072   2.540   7.696  11.708  3.7728  0.7222  3.8050
   38MOL0     H 5073   2.472   7.772  11.931 -0.9447 -0.5257 -0.5477
   38MOL0     H 5074   2.616   7.869  11.882 -0.9124  2.6447 -1.2822
   38MOL0     H 5075   2.487   8.065  11.836  1.5873 -0.2273  1.2751
   38MOL0     H 5076   2.333   7.976  11.836  0.0328  1.8472  1.1099
   38MOL0     H 5077   2.317   8.071  12.019  1.0236  2.3106 -1.8903
   38MOL0     H 5078   2.390   7.923  12.096  1.1122 -0.5412  0.1204
   38MOL0     H 5079   2.594   8.121  12.027  0.3432  1.4395  1.3682
   38MOL0     H 5080   2.601   7.993  12.142  0.9169 -0.0262 -0.2652
   38MOL0     H 5081   2.674   8.118  12.354 -0.9216 -1.6741 -0.4389
   38MOL0     H 5082   2.524   8.334  12.613 -2.4730  0.7594 -2.0716
   38MOL0     H 5083   2.665   8.231  12.580 -1.1031  0.2125 -0.3077
   38MOL0     H 5084   2.658   8.520  12.480  2.9750  0.1505 -2.5332
   38MOL0     H 5085   2.786   8.401  12.463  1.1433 -0.3300  1.2071
   38MOL0     H 5086   2.686   8.551  12.705  2.1373  3.2693 -1.3355
   38MOL0     H 5087   2.832   8.556  12.623 -0.1837 -0.8275 -0.9079
   38MOL0     H 5088   2.911   8.431  12.792  0.1013  1.2533 -2.4543
   38MOL0     H 5089   2.859   8.293  12.703 -3.6772 -0.4458 -3.3576
   38MOL0     H 5090   2.949   8.230  12.911 -1.8087  0.9814 -1.7786
   38MOL0     H 5091   3.061   8.047  13.036 -0.5698  1.3099 -0.8971
   38MOL0     H 5092   3.103   8.171  13.166  1.9626 -2.1522  1.2735
   38MOL0     H 5093   3.047   8.017  13.200  1.9335  0.1448 -1.1486
   38MOL0     H 5094   2.491   7.932  13.529  1.1447 -1.8092 -0.8173
   38MOL0     H 5095   2.494   7.855  13.768 -1.4029  0.3342 -1.2094
   38MOL0     H 5096   2.470   7.899  14.000 -0.7969 -2.5487 -2.5071
   38MOL0     H 5097   2.571   7.763  13.977  3.7540 -1.8584  3.4179
   38MOL0     H 5098   2.692   7.795  14.175 -1.1551 -1.9210 -2.9472
   38MOL0     H 5099   2.597   7.945  14.213 -0.0060 -0.1867  0.3013
   38MOL0     H 5100   2.459   7.680  14.160 -5.5419  3.1433 -1.5164
   38MOL0     H 5101   2.396   7.826  14.226  0.0419 -0.0947  0.6123
   38MOL0     H 5102   2.613   7.649  14.363 -1.0808 -1.9368 -1.1101
   38MOL0     H 5103   2.559   7.796  14.429 -1.2777  0.6928 -0.6444
   38MOL0     H 5104   2.462   7.579  14.528 -0.2687  0.2040  0.5592
   38MOL0     H 5105   2.335   7.574  14.393 -1.6677  1.5035 -0.5897
   38MOL0     H 5106   2.391   7.774  14.599  2.7418  0.6012 -3.3633
   38MOL0     H 5107   2.285   7.819  14.463 -3.0222  0.3263  2.3281
   38MOL0     H 5108   2.167   7.730  14.674  0.8580 -0.8749  0.0898
   38MOL0     H 5109   2.248   7.586  14.654 -2.1687 -0.4581  2.0962
   38MOL0     H 5110   2.015   7.570  14.571 -2.1138 -1.6207 -3.3036
   38MOL0     H 5111   2.119   7.517  14.465 -0.7627  0.0821 -0.3002
   38MOL0     H 5112   2.838   8.096  13.831  0.8015  0.4359 -0.4097
   38MOL0     H 5113   2.854   8.149  13.594  1.6937 -0.1494  2.0088
   38MOL0     H 5114   2.585   8.179  13.234  0.8153 -1.0302 -0.5555
   38MOL0     H 5115   2.541   8.296  13.017 -1.2360 -0.7304  2.9567
   38MOL0     H 5116   2.890   8.150  11.494  1.0403 -0.1848  0.1169
   38MOL0     H 5117   3.035   8.337  11.368 -0.1318  1.8435 -2.3010
   38MOL0     H 5118   3.367   8.540  11.108 -2.4245  4.4138  1.5463
   38MOL0     H 5119   3.473   8.673  10.928 -0.0972 -0.5830  1.6411
   38MOL0     H 5120   3.253   8.767  10.571  0.1435  0.6745 -2.6075
   38MOL0     H 5121   3.409   8.814  10.529  1.4335 -0.9289  1.2193
   38MOL0     H 5122   3.242   8.621  10.423 -0.0752  0.7835  0.4853
   38MOL0     H 5123   3.384   8.532  10.489 -1.4002 -0.4003 -0.8089
   38MOL0     H 5124   3.533   8.689  10.366 -0.7872  0.0389 -0.2529
   38MOL0     H 5125   3.401   8.763  10.292  0.5343  0.5447 -0.2435
   38MOL0     H 5126   3.469   8.589  10.134 -0.8912  2.7751  0.5387
   38MOL0     H 5127   3.341   8.500  10.215  0.0218 -2.4052  2.1854
   38MOL0     H 5128   3.695   8.300  10.364 -0.6917 -2.8869 -2.5277
   38MOL0     H 5129   3.173   8.542  10.640  0.0093 -1.7356  0.1042
   38MOL0     H 5130   3.061   8.423  10.841 -0.6753  1.0607 -1.3880
   39MOL0     O 5131  11.314   1.202   3.241 -0.1496 -0.0588  0.3028
   39MOL0     C 5132  11.371   1.094   3.219 -0.0611 -2.3820 -0.3445
   39MOL0     O 5133  11.481   1.083   3.141  0.2346 -0.7399 -0.3035
   39MOL0     C 5134  11.549   1.191   3.092 -0.1004  0.4182 -0.2537
   39MOL0     C 5135  11.599   1.183   2.959 -0.1895 -0.0607 -0.3577
   39MOL0     C 5136  11.678   1.288   2.916  0.1449  0.3652  0.8365
   39MOL0     C 5137  11.719   1.399   2.991 -0.7796  0.8814  0.6007
   39MOL0     O 5138  11.785   1.511   2.949  0.2735  0.4679  0.0091
   39MOL0     C 5139  11.828   1.512   2.813  0.2126 -0.4742  0.8869
   39MOL0     C 5140  11.836   1.663   2.778  0.0683  0.5964  0.4916
   39MOL0     C 5141  11.967   1.747   2.821 -0.0619  0.4412  0.6093
   39MOL0     C 5142  11.957   1.890   2.769  0.1473 -0.3340  0.5493
   39MOL0     C 5143  12.068   1.972   2.825 -0.2502  0.4864  0.3070
   39MOL0     C 5144  12.071   2.113   2.778 -0.3664 -0.9856  0.2868
   39MOL0     C 5145  12.193   2.184   2.828 -0.9999 -0.1671 -0.3572
   39MOL0     C 5146  12.190   2.337   2.811 -0.0386 -0.4263  0.0135
   39MOL0     N 5147  12.181   2.362   2.669 -0.5311 -0.2510  0.5781
   39MOL0     C 5148  12.272   2.323   2.565  0.3361  0.6815  1.1401
   39MOL0     C 5149  12.205   2.361   2.454 -0.3810 -0.1881 -0.1757
   39MOL0     C 5150  12.264   2.360   2.318 -0.1247  0.3357  0.3138
   39MOL0     C 5151  12.400   2.424   2.324 -0.4382 -0.7675  0.2771
   39MOL0     C 5152  12.400   2.575   2.353 -0.2075 -0.0180  0.9492
   39MOL0     C 5153  12.537   2.647   2.349  0.0932  0.4347 -0.4262
   39MOL0     O 5154  12.615   2.623   2.240  0.8759  0.0535  0.2609
   39MOL0     C 5155  12.598   2.698   2.116  0.0193  0.0899 -0.2870
   39MOL0     C 5156  12.496   2.799   2.101  0.6932  0.2327  0.0697
   39MOL0     C 5157  12.504   2.895   1.991  0.0674 -0.4304 -0.4979
   39MOL0     C 5158  12.391   2.997   1.989 -0.2575 -0.0573  0.0721
   39MOL0     C 5159  12.602   2.887   1.894 -0.5331 -0.8073 -0.1078
   39MOL0     C 5160  12.604   2.966   1.761 -0.2453  0.4078 -0.4972
   39MOL0     O 5161  12.732   2.963   1.696 -0.6342  0.7319  0.1431
   39MOL0     C 5162  12.779   3.050   1.616 -0.1191 -0.0494 -0.3969
   39MOL0     C 5163  12.729   3.183   1.606  0.6605 -0.1251  0.4487
   39MOL0     C 5164  12.774   3.262   1.504 -0.1686 -0.6012  0.4438
   39MOL0     C 5165  12.865   3.221   1.410  0.4170  1.0136 -0.6974
   39MOL0     O 5166  12.921   3.310   1.322  0.3463  0.2992  0.7912
   39MOL0     C 5167  13.062   3.309   1.294  0.5892 -0.3278  0.1107
   39MOL0     C 5168  13.151   3.365   1.400  1.2958  0.0093  0.7569
   39MOL0     C 5169  13.292   3.377   1.352 -0.4434 -0.2996 -0.4130
   39MOL0     C 5170  13.314   3.490   1.249 -0.0697 -0.4234 -0.5000
   39MOL0     C 5171  13.262   3.623   1.303 -0.0305 -0.9706 -0.0546
   39MOL0     C 5172  13.304   3.737   1.213 -0.3833 -0.0645 -0.0231
   39MOL0     C 5173  13.247   3.875   1.235  0.4239 -0.3545  0.0592
   39MOL0     C 5174  13.328   3.971   1.149  0.1879  0.0990  0.3733
   39MOL0    Cl 5175  13.253   4.144   1.155  0.3307 -0.1082 -0.1853
   39MOL0     C 5176  12.914   3.082   1.414 -0.6265  0.6460 -1.3465
   39MOL0     C 5177  12.875   3.006   1.526  0.1749 -0.8113  0.1197
   39MOL0     O 5178  12.506   3.019   1.718 -0.1563  0.2116  0.6873
   39MOL0     C 5179  12.695   2.778   1.909  0.0358  0.8363  0.0715
   39MOL0     C 5180  12.688   2.687   2.018 -0.3256  0.7885  0.0054
   39MOL0     N 5181  12.082   2.417   2.481  0.3212 -0.0647 -0.2812
   39MOL0     N 5182  12.070   2.419   2.610 -1.2510  0.0515 -0.4457
   39MOL0     C 5183  11.667   1.407   3.120  1.2630  1.3279 -0.8470
   39MOL0     C 5184  11.585   1.300   3.168  0.4455 -0.0915 -0.6726
   39MOL0     C 5185  11.305   0.972   3.262 -0.0830 -0.6072  0.2832
   39MOL0     C 5186  11.366   0.839   3.254  0.1875 -0.0123 -0.1486
   39MOL0     C 5187  11.300   0.721   3.296 -0.1338 -0.3340  0.5012
   39MOL0     C 5188  11.171   0.734   3.343  0.3825  0.0099 -0.3584
   39MOL0     O 5189  11.113   0.610   3.371  0.1487  0.1211  0.7175
   39MOL0     C 5190  10.992   0.612   3.443 -0.1757  0.6866  0.4130
   39MOL0     C 5191  11.011   0.623   3.591 -0.4569  0.5344  0.0254
   39MOL0     C 5192  11.091   0.502   3.647  0.3024 -0.3081  0.2297
   39MOL0     C 5193  11.105   0.531   3.802  0.7913  0.0526  0.7468
   39MOL0     C 5194  11.184   0.425   3.852 -0.4536  0.1171  0.3600
   39MOL0     C 5195  11.251   0.347   3.912 -0.9770  0.3616 -0.4230
   39MOL0     C 5196  11.110   0.851   3.343 -0.0806 -0.5154 -0.0859
   39MOL0     C 5197  11.170   0.972   3.320 -0.1129  0.6060 -0.0888
   39MOL0     H 5198  11.601   1.086   2.910  0.0345  0.6594 -1.8196
   39MOL0     H 5199  11.703   1.276   2.811 -1.1132 -0.6058  0.6189
   39MOL0     H 5200  11.922   1.460   2.792  0.0432 -0.3159 -0.4025
   39MOL0     H 5201  11.748   1.474   2.748 -0.3266  1.3346  0.4315
   39MOL0     H 5202  11.832   1.672   2.669  1.1560 -1.1252  0.2682
   39MOL0     H 5203  11.745   1.713   2.813 -0.4917  0.8246 -1.2237
   39MOL0     H 5204  11.976   1.736   2.929 -0.0564  1.8499  0.7736
   39MOL0     H 5205  12.056   1.702   2.778 -0.0469  0.8722  0.1811
   39MOL0     H 5206  11.954   1.891   2.660 -0.0915  0.5971  0.5501
   39MOL0     H 5207  11.856   1.928   2.786 -0.6707 -0.5681 -2.9895
   39MOL0     H 5208  12.059   1.980   2.933 -2.0596  0.3831  0.1876
   39MOL0     H 5209  12.162   1.926   2.792 -0.5334  1.7648 -2.6598
   39MOL0     H 5210  12.081   2.112   2.669  1.3433 -1.6011  0.4163
   39MOL0     H 5211  11.981   2.165   2.812  0.3655  0.7854 -0.3797
   39MOL0     H 5212  12.199   2.159   2.934  0.0737  0.2356 -0.3114
   39MOL0     H 5213  12.284   2.135   2.790 -2.1958 -4.4552  1.7046
   39MOL0     H 5214  12.283   2.373   2.857 -0.8444  2.1407 -0.2020
   39MOL0     H 5215  12.105   2.386   2.859 -0.2046  0.4868 -1.1475
   39MOL0     H 5216  12.375   2.290   2.576 -0.0449 -0.8571  0.3134
   39MOL0     H 5217  12.281   2.264   2.269  2.0762  0.7431  0.2015
   39MOL0     H 5218  12.203   2.430   2.260  0.3396  2.1793  1.9173
   39MOL0     H 5219  12.451   2.420   2.228 -2.4377 -0.1011 -0.8826
   39MOL0     H 5220  12.458   2.373   2.402 -1.2023 -0.7495  0.8746
   39MOL0     H 5221  12.345   2.597   2.445 -0.4440  1.9734  0.3701
   39MOL0     H 5222  12.338   2.620   2.275  1.8364  3.5303  1.1604
   39MOL0     H 5223  12.604   2.616   2.430  0.1592 -1.0611 -1.0164
   39MOL0     H 5224  12.520   2.754   2.364  1.5691  0.6611 -0.1890
   39MOL0     H 5225  12.416   2.821   2.171  1.9274  3.6783  0.6105
   39MOL0     H 5226  12.331   2.987   2.080  0.1856  3.0116  0.8211
   39MOL0     H 5227  12.437   3.097   1.987 -1.9281  0.7461  0.5646
   39MOL0     H 5228  12.330   2.985   1.899  1.3510 -2.4420 -0.7974
   39MOL0     H 5229  12.670   3.213   1.692 -1.4268 -1.1830 -0.5472
   39MOL0     H 5230  12.748   3.367   1.499 -2.1526 -1.0309  0.9123
   39MOL0     H 5231  13.092   3.208   1.264  1.6459  0.2799 -0.9839
   39MOL0     H 5232  13.064   3.357   1.195 -0.3131  0.1021  0.2840
   39MOL0     H 5233  13.104   3.460   1.426 -0.7125 -0.7562  0.0520
   39MOL0     H 5234  13.144   3.294   1.482  1.2317  0.2197  0.9338
   39MOL0     H 5235  13.305   3.283   1.298 -2.2281  0.7994 -2.9954
   39MOL0     H 5236  13.378   3.385   1.419 -0.5336 -2.6095  0.0504
   39MOL0     H 5237  13.419   3.497   1.221 -0.0773  0.4097 -0.3458
   39MOL0     H 5238  13.262   3.483   1.153 -3.1353  2.2356  0.7533
   39MOL0     H 5239  13.303   3.625   1.404 -0.4791 -2.4533  0.1733
   39MOL0     H 5240  13.153   3.631   1.308 -0.1189 -0.9811 -1.4874
   39MOL0     H 5241  13.414   3.741   1.211 -0.3671 -0.6764 -0.8947
   39MOL0     H 5242  13.278   3.718   1.108  1.2729  0.1523 -0.5141
   39MOL0     H 5243  13.262   3.913   1.337 -3.0659  0.6353  0.3258
   39MOL0     H 5244  13.143   3.884   1.204  0.7403 -0.9106 -1.2333
   39MOL0     H 5245  13.338   3.935   1.046  2.7711  2.7459 -0.4250
   39MOL0     H 5246  13.434   3.978   1.176  0.3527  0.3565 -0.3243
   39MOL0     H 5247  12.988   3.048   1.343 -1.4299 -0.6055 -1.6098
   39MOL0     H 5248  12.903   2.901   1.535  0.2614 -1.0645 -2.4896
   39MOL0     H 5249  12.771   2.759   1.834 -0.1957 -2.5817  0.5232
   39MOL0     H 5250  12.767   2.612   2.023 -0.2130  0.9808  3.5363
   39MOL0     H 5251  11.705   1.487   3.182 -0.6037  0.6358  1.3627
   39MOL0     H 5252  11.535   1.309   3.264 -0.8140 -0.6774 -1.2556
   39MOL0     H 5253  11.468   0.842   3.219 -0.4587 -0.7038 -2.2222
   39MOL0     H 5254  11.359   0.632   3.277 -1.6988 -1.1579 -0.8027
   39MOL0     H 5255  10.924   0.689   3.404 -1.1178 -0.3503 -0.0458
   39MOL0     H 5256  10.946   0.515   3.423 -0.3234  0.3592  2.1970
   39MOL0     H 5257  10.912   0.617   3.638  0.2704 -0.9795  1.5063
   39MOL0     H 5258  11.070   0.713   3.613  0.6630 -0.4465  1.2392
   39MOL0     H 5259  11.189   0.498   3.599 -0.5240 -2.6209 -1.4758
   39MOL0     H 5260  11.042   0.405   3.636 -1.8264 -0.0967  5.1283
   39MOL0     H 5261  11.011   0.537   3.857  0.2665 -2.3354  0.2116
   39MOL0     H 5262  11.150   0.628   3.827 -0.1010  0.0667  2.4700
   39MOL0     H 5263  11.301   0.279   3.977 -0.8366  2.9296  2.3911
   39MOL0     H 5264  11.003   0.863   3.356  0.2952  2.4083  0.9977
   39MOL0     H 5265  11.116   1.066   3.312 -1.2122 -0.1368 -2.2385
   40MOL0     O 5266   8.172  11.176   7.737 -0.1830 -0.4474  0.5547
   40MOL0     C 5267   8.118  11.076   7.791 -0.5035 -1.1064 -0.2639
   40MOL0     O 5268   8.189  10.955   7.804  0.4298 -0.0611  0.6767
   40MOL0     C 5269   8.313  10.944   7.753  0.2669  0.0490  0.9002
   40MOL0     C 5270   8.425  10.973   7.824 -0.1720  0.4977 -0.0011
   40MOL0     C 5271   8.554  10.946   7.768  0.8960  0.0850 -0.7489
   40MOL0     C 5272   8.570  10.881   7.646  0.6799 -0.3335 -1.0218
   40MOL0     O 5273   8.701  10.857   7.602 -0.0141  0.0463 -1.0898
   40MOL0     C 5274   8.748  10.719   7.594  0.0546  0.2235 -0.3120
   40MOL0     C 5275   8.901  10.721   7.650  0.3499 -0.4994  0.2122
   40MOL0     C 5276   8.957  10.582   7.659 -0.1883  0.3977 -0.2083
   40MOL0     C 5277   9.107  10.596   7.700 -0.1273 -0.1204 -0.3395
   40MOL0     C 5278   9.143  10.454   7.737 -0.0281 -0.6521  0.1383
   40MOL0     C 5279   9.293  10.438   7.771 -0.0341 -0.3711 -0.2514
   40MOL0     C 5280   9.399  10.483   7.668  0.1256 -0.6603 -0.1735
   40MOL0     C 5281   9.525  10.511   7.744  0.2315  0.5608 -0.3303
   40MOL0     N 5282   9.579  10.379   7.803  0.1918  0.1093  0.5388
   40MOL0     C 5283   9.564  10.247   7.757 -0.0175  0.1529 -0.5137
   40MOL0     C 5284   9.631  10.162   7.847 -0.2808  0.0469 -0.7704
   40MOL0     C 5285   9.641  10.014   7.868 -0.4730  0.4186  0.0569
   40MOL0     C 5286   9.732   9.959   7.757 -0.2047 -0.2012 -0.1790
   40MOL0     C 5287   9.849  10.051   7.710  0.0022 -0.3823 -0.1956
   40MOL0     C 5288   9.926   9.980   7.596  0.3783 -0.1975 -1.2728
   40MOL0     O 5289  10.014   9.877   7.665 -0.0063  0.1497  0.1014
   40MOL0     C 5290  10.152   9.907   7.678 -0.4666 -0.9402 -1.1885
   40MOL0     C 5291  10.226   9.797   7.664 -0.9236 -0.5223 -0.3198
   40MOL0     C 5292  10.365   9.797   7.666 -0.0030  0.1040 -0.0274
   40MOL0     C 5293  10.432   9.660   7.646 -0.1637 -0.4986  0.5253
   40MOL0     C 5294  10.435   9.922   7.683 -0.3468  0.8292 -0.2200
   40MOL0     C 5295  10.577   9.934   7.690 -0.6788 -0.2317  0.1205
   40MOL0     O 5296  10.656   9.833   7.630  0.9215  0.1799 -0.1011
   40MOL0     C 5297  10.787   9.868   7.611  0.0207  1.2346  0.3012
   40MOL0     C 5298  10.820   9.883   7.481  0.6745  1.1120 -0.2021
   40MOL0     C 5299  10.948   9.927   7.446  0.2199  0.5230  0.5190
   40MOL0     C 5300  11.040   9.959   7.532 -0.8129  0.6544  0.7123
   40MOL0     O 5301  11.163  10.004   7.480  0.3681 -0.0902  0.3388
   40MOL0     C 5302  11.282   9.997   7.560 -0.4978 -0.7784  0.0256
   40MOL0     C 5303  11.406  10.064   7.488 -0.9043  0.1956  0.1200
   40MOL0     C 5304  11.535  10.047   7.557 -0.2570  0.2344 -1.0579
   40MOL0     C 5305  11.654  10.041   7.463  0.3681 -0.1693 -1.2115
   40MOL0     C 5306  11.787  10.067   7.527 -0.0185 -0.1505 -0.0435
   40MOL0     C 5307  11.786  10.204   7.577 -0.5102 -0.7219 -0.1823
   40MOL0     C 5308  11.926  10.251   7.627 -0.4065 -0.2769  0.7204
   40MOL0     C 5309  11.911  10.395   7.674 -0.1232  0.8550 -0.0663
   40MOL0    Cl 5310  11.814  10.413   7.839  0.4557  0.0037  0.0604
   40MOL0     C 5311  11.009   9.932   7.673 -0.3554  0.8088 -0.5365
   40MOL0     C 5312  10.878   9.881   7.711  0.6241  0.5185  0.5723
   40MOL0     O 5313  10.618  10.038   7.745 -0.0450  0.0372  0.2707
   40MOL0     C 5314  10.353  10.040   7.690  0.6811  0.8802  0.0015
   40MOL0     C 5315  10.211  10.030   7.686  0.0272 -0.6448  0.8185
   40MOL0     N 5316   9.689  10.254   7.936 -0.9118  0.0413 -0.3217
   40MOL0     N 5317   9.648  10.377   7.920 -0.1201 -1.1296  0.1683
   40MOL0     C 5318   8.454  10.853   7.578  0.4285 -0.9862  0.6951
   40MOL0     C 5319   8.326  10.884   7.627  0.4646 -0.5565  0.2956
   40MOL0     C 5320   7.988  11.083   7.863  0.4821  0.4912  0.1286
   40MOL0     C 5321   7.940  10.980   7.933 -0.0401  0.2574 -0.2193
   40MOL0     C 5322   7.809  10.991   7.994  0.7867  0.4400  0.3822
   40MOL0     C 5323   7.740  11.108   7.992  0.5008 -0.3499  0.7887
   40MOL0     O 5324   7.619  11.136   8.054  0.5195 -0.4680 -0.1864
   40MOL0     C 5325   7.544  11.024   8.111 -0.9448 -0.7412  0.0033
   40MOL0     C 5326   7.394  11.063   8.122 -0.2355  0.7746  0.4482
   40MOL0     C 5327   7.305  10.953   8.185 -0.0358 -0.5771  0.3914
   40MOL0     C 5328   7.293  10.818   8.104  0.9121 -0.2503  0.2971
   40MOL0     C 5329   7.226  10.821   7.976  1.1077 -0.1706  0.4067
   40MOL0     C 5330   7.165  10.825   7.869 -0.1001  0.4278  1.5767
   40MOL0     C 5331   7.804  11.219   7.930  0.7646  0.3474  0.3814
   40MOL0     C 5332   7.923  11.203   7.863 -0.2109 -0.1177 -0.2667
   40MOL0     H 5333   8.400  11.030   7.913 -0.1337  1.9606 -0.8872
   40MOL0     H 5334   8.639  10.986   7.823 -1.2425 -0.5349  3.4314
   40MOL0     H 5335   8.690  10.652   7.658  1.1885  2.1488  2.9781
   40MOL0     H 5336   8.742  10.687   7.490  1.0127  1.9827 -0.9470
   40MOL0     H 5337   8.962  10.792   7.593  0.6067  3.1863  4.5361
   40MOL0     H 5338   8.897  10.769   7.748  3.2351  0.6099 -0.1081
   40MOL0     H 5339   8.898  10.533   7.737  1.4388 -1.0166  0.2129
   40MOL0     H 5340   8.956  10.524   7.567 -0.4879 -0.4427  0.3122
   40MOL0     H 5341   9.165  10.647   7.623 -0.4781 -0.4821 -0.8532
   40MOL0     H 5342   9.114  10.663   7.786 -1.8229  0.4249 -0.5768
   40MOL0     H 5343   9.085  10.430   7.827 -0.8777 -0.8013 -0.4421
   40MOL0     H 5344   9.115  10.386   7.656 -0.9633 -2.5221  1.9366
   40MOL0     H 5345   9.311  10.495   7.863  3.8043  1.6238 -1.9988
   40MOL0     H 5346   9.307  10.333   7.800  1.0887 -0.0868  0.2929
   40MOL0     H 5347   9.413  10.412   7.585  1.8590 -1.9410  1.1334
   40MOL0     H 5348   9.373  10.578   7.620 -2.3077 -0.0430  2.1325
   40MOL0     H 5349   9.503  10.578   7.827 -0.5570 -1.3911  1.1235
   40MOL0     H 5350   9.605  10.556   7.685  0.1923  0.5186 -0.4153
   40MOL0     H 5351   9.498  10.210   7.679 -0.1196  1.0737 -0.8737
   40MOL0     H 5352   9.691  10.008   7.965  1.3103  0.6784 -0.7957
   40MOL0     H 5353   9.547   9.958   7.867  1.7105 -3.5494 -0.7064
   40MOL0     H 5354   9.658   9.944   7.678 -0.1954 -1.0112 -0.0489
   40MOL0     H 5355   9.772   9.859   7.776  2.5987  0.7155 -0.8149
   40MOL0     H 5356   9.918  10.071   7.793  1.4865  1.6374 -1.8076
   40MOL0     H 5357   9.815  10.142   7.662 -0.5973  0.0495  0.9970
   40MOL0     H 5358   9.974  10.056   7.534 -1.3221  0.5240 -1.7629
   40MOL0     H 5359   9.861   9.947   7.514  1.1595  0.6179 -2.2466
   40MOL0     H 5360  10.172   9.708   7.633 -0.0291 -1.0569 -0.3848
   40MOL0     H 5361  10.522   9.668   7.708  0.3269  0.0446 -0.2404
   40MOL0     H 5362  10.371   9.572   7.666  0.1811 -1.9163 -3.6450
   40MOL0     H 5363  10.449   9.651   7.538  1.3826 -0.4667  0.7410
   40MOL0     H 5364  10.757   9.842   7.403 -0.1451 -1.3052  1.5751
   40MOL0     H 5365  10.969   9.946   7.342  0.4729  1.1093  0.6758
   40MOL0     H 5366  11.269  10.055   7.652 -0.3208 -0.6794 -0.0103
   40MOL0     H 5367  11.306   9.896   7.595 -1.0458 -1.0222 -0.2917
   40MOL0     H 5368  11.412  10.016   7.390 -2.1821 -3.6593  1.7301
   40MOL0     H 5369  11.386  10.171   7.483  3.3232  1.1004 -1.9085
   40MOL0     H 5370  11.527   9.951   7.610 -0.8052 -0.4187 -2.2918
   40MOL0     H 5371  11.538  10.131   7.628  3.1837 -0.2264 -0.4696
   40MOL0     H 5372  11.655   9.940   7.422  2.8094 -1.0800  0.8445
   40MOL0     H 5373  11.631  10.111   7.382  2.1816  0.3039 -1.3544
   40MOL0     H 5374  11.870  10.062   7.455  1.0359  2.8066  0.8281
   40MOL0     H 5375  11.802  10.002   7.613  0.4774  1.8577  1.4512
   40MOL0     H 5376  11.756  10.275   7.499 -1.5434 -1.9655 -0.9489
   40MOL0     H 5377  11.720  10.201   7.664  1.8221 -0.5827  1.7231
   40MOL0     H 5378  11.998  10.247   7.544  0.1561  1.0830  1.1155
   40MOL0     H 5379  11.963  10.187   7.708  0.3613 -0.9475 -0.1311
   40MOL0     H 5380  11.857  10.447   7.594 -1.7783 -1.3010 -0.4301
   40MOL0     H 5381  12.011  10.436   7.688  0.1474  0.1098  0.2249
   40MOL0     H 5382  11.081   9.934   7.754  0.0762  0.5295 -0.9036
   40MOL0     H 5383  10.844   9.857   7.811  0.4964  0.0486  0.4191
   40MOL0     H 5384  10.400  10.138   7.702  1.7094  0.2681  1.2416
   40MOL0     H 5385  10.146  10.117   7.676  0.9763  0.4320  3.1601
   40MOL0     H 5386   8.472  10.795   7.488  1.9091 -0.0094  0.3121
   40MOL0     H 5387   8.236  10.860   7.571 -0.4058  2.4056  0.2502
   40MOL0     H 5388   7.991  10.885   7.945 -2.0781 -1.0122 -0.9622
   40MOL0     H 5389   7.759  10.910   8.045 -1.1137  0.9981 -0.5075
   40MOL0     H 5390   7.556  10.941   8.041  1.9387  0.5812 -1.2467
   40MOL0     H 5391   7.578  10.996   8.211 -1.6005  1.1408  0.8079
   40MOL0     H 5392   7.346  11.070   8.024  2.2936  3.2542 -0.7591
   40MOL0     H 5393   7.368  11.154   8.179 -1.2640  0.4816  0.4777
   40MOL0     H 5394   7.209  11.004   8.199  0.7022  1.9816 -2.6510
   40MOL0     H 5395   7.360  10.925   8.275 -1.1566  0.2993  1.3793
   40MOL0     H 5396   7.256  10.739   8.170  0.1755 -1.7727 -1.8437
   40MOL0     H 5397   7.392  10.786   8.071  1.6277  0.2915  1.8595
   40MOL0     H 5398   7.122  10.833   7.771  1.4994 -1.9606  0.5864
   40MOL0     H 5399   7.749  11.312   7.916 -2.4914 -1.4701  0.2295
   40MOL0     H 5400   7.967  11.282   7.804 -0.4374 -0.1069 -0.4209
   41MOL0     O 5401   8.713   7.756   7.089  0.0946  0.0747  0.3987
   41MOL0     C 5402   8.785   7.659   7.099 -0.3866  1.7784  0.8034
   41MOL0     O 5403   8.799   7.584   7.220  0.2880  0.8787 -0.0578
   41MOL0     C 5404   8.706   7.612   7.320  0.0468 -0.8830 -0.6955
   41MOL0     C 5405   8.697   7.739   7.377  0.1310  0.3316 -0.1939
   41MOL0     C 5406   8.606   7.761   7.479 -0.0344 -0.6306 -0.5032
   41MOL0     C 5407   8.538   7.665   7.545  0.1030 -0.1032  0.6569
   41MOL0     O 5408   8.474   7.701   7.663  0.2316 -0.0704 -0.7286
   41MOL0     C 5409   8.344   7.640   7.676 -0.0703  0.3816 -0.4089
   41MOL0     C 5410   8.274   7.713   7.793  0.0988  0.0835 -0.4509
   41MOL0     C 5411   8.263   7.859   7.748 -0.7287 -0.3165  0.1237
   41MOL0     C 5412   8.121   7.921   7.766  0.4513  0.0289  0.2213
   41MOL0     C 5413   8.121   8.069   7.754  0.6059  0.2445 -0.2336
   41MOL0     C 5414   8.155   8.144   7.884 -0.2870 -0.0942  0.3619
   41MOL0     C 5415   8.149   8.300   7.883  0.9735 -0.1457  0.3097
   41MOL0     C 5416   8.271   8.354   7.808 -0.3768 -0.0978  0.2898
   41MOL0     N 5417   8.289   8.501   7.823 -0.9143  0.3954  0.5481
   41MOL0     C 5418   8.201   8.596   7.828 -0.2408 -0.2376  0.1757
   41MOL0     C 5419   8.260   8.711   7.866 -0.3825 -0.8117 -0.2222
   41MOL0     C 5420   8.178   8.844   7.888  0.0617 -0.1571  0.7514
   41MOL0     C 5421   8.066   8.860   7.776  0.5685  0.4790  0.5978
   41MOL0     C 5422   8.006   8.990   7.764  0.6599  0.7416 -0.1858
   41MOL0     C 5423   7.889   9.007   7.664  0.4606 -0.6062  1.4914
   41MOL0     O 5424   7.941   9.061   7.538 -0.0184 -0.3108 -0.1900
   41MOL0     C 5425   7.851   9.100   7.446 -0.1184  0.6551 -0.3749
   41MOL0     C 5426   7.904   9.177   7.344  0.0300  0.5749 -0.1923
   41MOL0     C 5427   7.813   9.229   7.257 -0.0420 -0.6096 -0.0433
   41MOL0     C 5428   7.882   9.319   7.153 -0.7851  0.5896  0.5411
   41MOL0     C 5429   7.674   9.208   7.259 -0.5797  0.5624 -0.3626
   41MOL0     C 5430   7.567   9.265   7.166  0.3280 -0.4018  0.3245
   41MOL0     O 5431   7.437   9.253   7.198  1.0363  0.9072 -0.1300
   41MOL0     C 5432   7.346   9.276   7.096  0.1889 -0.8889 -0.0495
   41MOL0     C 5433   7.232   9.359   7.131 -0.0791  0.0426 -0.3484
   41MOL0     C 5434   7.133   9.390   7.033 -0.4908  0.2905 -0.0141
   41MOL0     C 5435   7.140   9.340   6.905 -0.7618  0.3200 -0.4561
   41MOL0     O 5436   7.054   9.372   6.804 -0.3476 -0.5482  0.5828
   41MOL0     C 5437   6.913   9.351   6.837  0.0743 -0.0821 -0.2617
   41MOL0     C 5438   6.853   9.229   6.776  0.3910 -0.3264 -0.4961
   41MOL0     C 5439   6.865   9.238   6.620  0.1905 -0.4128  0.1531
   41MOL0     C 5440   6.747   9.177   6.546 -0.0661 -0.3800  0.2441
   41MOL0     C 5441   6.736   9.023   6.563  0.3137 -0.3057  0.0918
   41MOL0     C 5442   6.587   8.980   6.532  0.1649  0.3164  0.4773
   41MOL0     C 5443   6.555   8.996   6.384 -0.9309  0.5842 -0.2198
   41MOL0     C 5444   6.421   8.925   6.346  0.0244  0.7474 -0.0018
   41MOL0    Cl 5445   6.281   8.983   6.446  0.0924 -0.1334  0.2773
   41MOL0     C 5446   7.251   9.252   6.873  0.4931 -0.2707 -0.5609
   41MOL0     C 5447   7.351   9.220   6.971  0.3434  0.1025 -0.0843
   41MOL0     O 5448   7.610   9.310   7.059 -0.1363  0.0072 -0.4044
   41MOL0     C 5449   7.632   9.129   7.362 -0.5406 -0.1823  0.4287
   41MOL0     C 5450   7.718   9.083   7.453  1.4588  1.8276 -0.7309
   41MOL0     N 5451   8.397   8.689   7.863 -0.0138 -0.1473 -0.5305
   41MOL0     N 5452   8.412   8.560   7.842  0.4161 -0.7284  0.9344
   41MOL0     C 5453   8.558   7.534   7.498 -0.0267 -0.2672  0.3002
   41MOL0     C 5454   8.650   7.509   7.394 -0.1012  0.4958 -0.4662
   41MOL0     C 5455   8.872   7.611   6.993  0.6099  0.0567 -0.9520
   41MOL0     C 5456   8.895   7.684   6.881 -0.5954 -0.4869  0.2772
   41MOL0     C 5457   8.994   7.649   6.789 -0.4082 -1.4576 -0.2185
   41MOL0     C 5458   9.070   7.537   6.811 -1.0950  0.2623  1.1304
   41MOL0     O 5459   9.187   7.505   6.740  0.1814  0.1180 -0.2576
   41MOL0     C 5460   9.270   7.616   6.719  0.7104  0.0893 -0.7320
   41MOL0     C 5461   9.390   7.567   6.651 -0.3310  0.0554  0.2772
   41MOL0     C 5462   9.469   7.447   6.722 -0.3710  0.6054 -0.8058
   41MOL0     C 5463   9.609   7.409   6.665 -0.5958  0.7230  0.8977
   41MOL0     C 5464   9.698   7.521   6.701  1.2909  0.3836 -0.0489
   41MOL0     C 5465   9.768   7.620   6.716  0.6611 -0.0101 -0.1243
   41MOL0     C 5466   9.034   7.452   6.911 -0.2576 -0.5373 -0.0593
   41MOL0     C 5467   8.942   7.487   7.007  0.6686 -0.4115  0.0278
   41MOL0     H 5468   8.760   7.817   7.337 -2.1804  1.8124 -1.1789
   41MOL0     H 5469   8.602   7.868   7.500  0.1266 -0.4874 -1.1753
   41MOL0     H 5470   8.288   7.630   7.582  0.0870 -1.7407 -0.3187
   41MOL0     H 5471   8.354   7.536   7.708 -1.6725  0.0398 -0.9365
   41MOL0     H 5472   8.175   7.667   7.801 -0.2398  0.7057 -0.9993
   41MOL0     H 5473   8.327   7.703   7.889 -2.2883  1.7483  1.1485
   41MOL0     H 5474   8.325   7.928   7.807  0.0655 -1.0704  0.1914
   41MOL0     H 5475   8.285   7.874   7.642  0.2066  1.4865  0.5299
   41MOL0     H 5476   8.054   7.880   7.689  0.8795 -0.0894 -0.0905
   41MOL0     H 5477   8.088   7.893   7.866  3.0469  0.2198  1.2073
   41MOL0     H 5478   8.195   8.094   7.677  2.5709 -1.8677  0.8441
   41MOL0     H 5479   8.017   8.098   7.738  0.3394  1.3630  2.8841
   41MOL0     H 5480   8.070   8.120   7.950 -1.1972  1.4453 -0.1995
   41MOL0     H 5481   8.245   8.096   7.925 -0.2104 -2.8771 -2.6346
   41MOL0     H 5482   8.056   8.332   7.835  0.0233 -0.1260  2.0831
   41MOL0     H 5483   8.152   8.338   7.985  1.0605  0.2462  0.1622
   41MOL0     H 5484   8.253   8.333   7.703  2.4739  0.6184 -0.4445
   41MOL0     H 5485   8.366   8.308   7.836  1.1001  1.5824 -1.6653
   41MOL0     H 5486   8.094   8.595   7.806 -0.6836  1.3085  1.9336
   41MOL0     H 5487   8.146   8.847   7.992  0.6198  0.0410  0.9234
   41MOL0     H 5488   8.235   8.937   7.884 -2.6343  1.5854 -1.8458
   41MOL0     H 5489   7.984   8.787   7.784 -1.8813  1.8633 -5.9242
   41MOL0     H 5490   8.107   8.837   7.677 -0.5697 -0.0336  0.2266
   41MOL0     H 5491   8.088   9.056   7.731  2.1105 -0.0310  1.7332
   41MOL0     H 5492   7.972   9.017   7.864 -1.3918 -1.9224 -0.0563
   41MOL0     H 5493   7.808   9.068   7.704  0.4757  1.2728 -1.0852
   41MOL0     H 5494   7.846   8.911   7.637 -0.6486  0.0505  0.8736
   41MOL0     H 5495   8.011   9.195   7.351  0.4711 -1.6904 -0.4905
   41MOL0     H 5496   7.991   9.315   7.169 -0.3973 -4.9969 -1.0573
   41MOL0     H 5497   7.868   9.291   7.048  2.5628  2.3583 -0.5495
   41MOL0     H 5498   7.850   9.423   7.154  2.9658  1.9788 -1.3569
   41MOL0     H 5499   7.218   9.394   7.233 -0.1918 -3.7219  1.0733
   41MOL0     H 5500   7.061   9.470   7.047  0.0551  1.1756 -1.8756
   41MOL0     H 5501   6.896   9.359   6.945 -3.3527 -0.7957 -0.6470
   41MOL0     H 5502   6.866   9.443   6.802  3.3963  1.8684 -0.0488
   41MOL0     H 5503   6.907   9.139   6.808  0.1429 -0.0186  0.8567
   41MOL0     H 5504   6.749   9.230   6.810  0.5875  1.8139  0.2512
   41MOL0     H 5505   6.958   9.199   6.580  0.0762  0.3476 -0.8911
   41MOL0     H 5506   6.868   9.345   6.595  1.2539 -0.6911 -0.9853
   41MOL0     H 5507   6.651   9.215   6.580 -2.4687 -0.7027 -5.2805
   41MOL0     H 5508   6.752   9.211   6.443 -0.6400 -0.7652  0.0883
   41MOL0     H 5509   6.756   8.996   6.667  1.8270 -2.1208 -0.6114
   41MOL0     H 5510   6.805   8.971   6.496  0.4026  1.6649 -1.4585
   41MOL0     H 5511   6.573   8.875   6.557  2.0080 -0.4406 -1.3160
   41MOL0     H 5512   6.505   9.038   6.576 -0.8734 -0.3317 -0.5494
   41MOL0     H 5513   6.638   8.954   6.327 -2.3624 -0.3872 -1.6890
   41MOL0     H 5514   6.563   9.100   6.350  2.4059  0.9597  1.3317
   41MOL0     H 5515   6.440   8.819   6.362  3.4239  1.3956  1.0785
   41MOL0     H 5516   6.402   8.932   6.238  0.1367 -0.4994 -0.1124
   41MOL0     H 5517   7.265   9.224   6.769  3.0270 -2.1235  0.1887
   41MOL0     H 5518   7.417   9.139   6.941  0.6959  0.8219 -1.3592
   41MOL0     H 5519   7.528   9.099   7.374  0.4478 -3.0124  2.8983
   41MOL0     H 5520   7.683   9.023   7.536  3.3746  3.4403  1.3645
   41MOL0     H 5521   8.512   7.457   7.558 -0.2353 -2.9004 -2.9240
   41MOL0     H 5522   8.675   7.406   7.374 -0.3562  0.5750 -1.2589
   41MOL0     H 5523   8.833   7.772   6.868 -0.4546 -0.3353  0.6251
   41MOL0     H 5524   9.019   7.705   6.699  3.8404 -2.0566  0.3684
   41MOL0     H 5525   9.218   7.693   6.662 -0.5362  0.2301  0.5110
   41MOL0     H 5526   9.296   7.664   6.814  0.1260 -0.5135 -0.2520
   41MOL0     H 5527   9.461   7.650   6.644  0.8769 -0.8559  1.2565
   41MOL0     H 5528   9.347   7.545   6.552 -0.8709 -0.5807  0.6485
   41MOL0     H 5529   9.406   7.358   6.717 -0.6423  0.7942 -0.7637
   41MOL0     H 5530   9.478   7.471   6.828 -1.3749 -3.1831  0.2934
   41MOL0     H 5531   9.612   7.387   6.558 -2.3912  1.0763  0.7396
   41MOL0     H 5532   9.636   7.308   6.698 -3.1003 -0.7521 -1.1370
   41MOL0     H 5533   9.830   7.707   6.722 -2.4521  2.5573 -1.7749
   41MOL0     H 5534   9.085   7.358   6.928 -0.0003 -0.4445 -0.3139
   41MOL0     H 5535   8.931   7.423   7.094  0.0492  2.6933  2.4011
   42MOL0     O 5536   5.147   4.914   8.174 -0.2996  0.0366 -0.5277
   42MOL0     C 5537   5.110   5.000   8.255  0.1092  0.4364 -0.2660
   42MOL0     O 5538   5.175   5.047   8.365  0.1746  0.1559  1.2458
   42MOL0     C 5539   5.295   4.992   8.390 -0.2513  0.3022 -0.7181
   42MOL0     C 5540   5.310   4.929   8.518  0.1594 -0.3194  0.3443
   42MOL0     C 5541   5.438   4.893   8.566  0.1871  0.8142  0.4119
   42MOL0     C 5542   5.553   4.931   8.490  0.8641  0.5603  0.2293
   42MOL0     O 5543   5.671   4.895   8.547  0.1035 -0.6038  0.2047
   42MOL0     C 5544   5.795   4.967   8.514 -0.6107  0.3965 -1.1409
   42MOL0     C 5545   5.883   4.967   8.641 -0.5562 -0.7723  0.7055
   42MOL0     C 5546   5.925   4.821   8.674  0.5376 -0.0467  0.1094
   42MOL0     C 5547   6.034   4.818   8.780  0.0624  0.4181 -0.2164
   42MOL0     C 5548   6.064   4.669   8.805  0.2239 -0.3364  0.0125
   42MOL0     C 5549   6.175   4.613   8.709  0.5474 -0.3441  0.3543
   42MOL0     C 5550   6.174   4.461   8.698  0.8582  0.1720  0.5165
   42MOL0     C 5551   6.086   4.399   8.593 -0.7367  0.6460  0.7645
   42MOL0     N 5552   6.120   4.427   8.456 -1.2198 -0.5696  0.4092
   42MOL0     C 5553   6.042   4.508   8.381  0.9525  0.0584 -0.3647
   42MOL0     C 5554   6.111   4.514   8.263  0.6401  0.2637 -0.3381
   42MOL0     C 5555   6.077   4.595   8.149 -0.5242 -0.0993 -0.0004
   42MOL0     C 5556   6.072   4.740   8.196 -0.6172  0.4422  0.0855
   42MOL0     C 5557   6.220   4.789   8.224 -0.7470  0.7122  0.3526
   42MOL0     C 5558   6.228   4.937   8.245 -0.8563  0.7864 -0.6026
   42MOL0     O 5559   6.362   4.988   8.260  0.4093 -0.1194 -0.4812
   42MOL0     C 5560   6.447   4.956   8.162  0.8687  0.7674 -0.0139
   42MOL0     C 5561   6.436   4.981   8.026  0.1133 -0.2974 -0.3528
   42MOL0     C 5562   6.528   4.942   7.938 -0.7793 -0.1898  0.5174
   42MOL0     C 5563   6.498   4.961   7.791  0.0639 -1.1276  0.0457
   42MOL0     C 5564   6.644   4.880   7.984 -0.1134  0.0020  0.7870
   42MOL0     C 5565   6.765   4.856   7.900  0.2569  0.4505  1.0063
   42MOL0     O 5566   6.867   4.780   7.945 -0.3308  0.6734 -0.6847
   42MOL0     C 5567   6.964   4.732   7.866  0.3428 -0.0609  0.0779
   42MOL0     C 5568   7.094   4.778   7.882 -0.2837  0.2445 -0.6194
   42MOL0     C 5569   7.200   4.739   7.795  1.1045  0.6269  0.1883
   42MOL0     C 5570   7.172   4.634   7.696 -0.2967 -0.2407  0.3660
   42MOL0     O 5571   7.259   4.596   7.589  0.3883 -0.0329  0.5836
   42MOL0     C 5572   7.382   4.671   7.591 -0.5681  1.6405  0.1729
   42MOL0     C 5573   7.497   4.632   7.489 -0.1857 -0.2584  0.3059
   42MOL0     C 5574   7.617   4.736   7.500  0.9951  0.2910 -1.2628
   42MOL0     C 5575   7.709   4.714   7.381  0.1166 -0.6026 -0.1883
   42MOL0     C 5576   7.811   4.828   7.371  0.4881 -0.1086 -0.5506
   42MOL0     C 5577   7.741   4.956   7.326  1.2343  0.0951  0.0785
   42MOL0     C 5578   7.845   5.051   7.262  0.3755  0.1324  0.3968
   42MOL0     C 5579   7.806   5.193   7.257 -0.4856  0.4509  1.3239
   42MOL0    Cl 5580   7.843   5.265   7.423 -0.7152 -0.3144  0.1358
   42MOL0     C 5581   7.048   4.578   7.691 -0.1966 -0.7372  0.2196
   42MOL0     C 5582   6.939   4.630   7.771 -0.1512 -0.3261  0.0287
   42MOL0     O 5583   6.771   4.921   7.796 -0.0647 -0.0125  0.1314
   42MOL0     C 5584   6.650   4.842   8.125 -0.2724  0.3165  0.6942
   42MOL0     C 5585   6.552   4.886   8.212 -0.1051 -0.4105  0.6757
   42MOL0     N 5586   6.230   4.441   8.278  0.6010  0.0138 -0.7542
   42MOL0     N 5587   6.233   4.382   8.389  0.3047 -0.0016 -0.4797
   42MOL0     C 5588   5.541   5.006   8.365  0.9970 -0.0539 -0.1957
   42MOL0     C 5589   5.413   5.032   8.314  0.1017  0.0073 -1.4610
   42MOL0     C 5590   4.974   5.063   8.230 -0.9135  0.4375 -1.0011
   42MOL0     C 5591   4.888   5.005   8.137 -0.1069 -0.2052 -0.0251
   42MOL0     C 5592   4.762   5.058   8.111 -0.0549  0.8426  0.2173
   42MOL0     C 5593   4.722   5.175   8.178  0.0785 -0.4435 -0.0136
   42MOL0     O 5594   4.603   5.241   8.148 -0.9211  0.4329 -0.2418
   42MOL0     C 5595   4.613   5.375   8.105 -0.1464 -0.3684  1.0458
   42MOL0     C 5596   4.472   5.430   8.081 -0.2546  0.4792  0.0397
   42MOL0     C 5597   4.375   5.368   7.974  0.5324 -0.0852  0.1922
   42MOL0     C 5598   4.249   5.452   7.970 -0.4312 -0.7483  0.3472
   42MOL0     C 5599   4.160   5.414   7.855  0.0150  0.0517 -0.0974
   42MOL0     C 5600   4.103   5.383   7.752  0.0261 -0.4259  0.2834
   42MOL0     C 5601   4.815   5.237   8.260  0.5273  0.0097 -0.2923
   42MOL0     C 5602   4.933   5.180   8.293 -0.4918 -0.2289  0.3971
   42MOL0     H 5603   5.232   4.906   8.590 -1.9102  0.5315 -1.5165
   42MOL0     H 5604   5.444   4.856   8.668  0.9862 -2.8929 -0.8396
   42MOL0     H 5605   5.841   4.905   8.437 -5.8282 -4.9604 -0.6973
   42MOL0     H 5606   5.773   5.069   8.482 -0.8415  0.7503  0.0667
   42MOL0     H 5607   5.971   5.026   8.614 -1.9166  1.7832  1.5429
   42MOL0     H 5608   5.832   5.015   8.725  1.6246  0.3642  1.4620
   42MOL0     H 5609   5.839   4.761   8.706 -0.6783  1.5239 -0.1119
   42MOL0     H 5610   5.957   4.773   8.581  1.1178  1.0308 -0.2595
   42MOL0     H 5611   6.126   4.864   8.743  0.1506 -1.2081 -2.1766
   42MOL0     H 5612   6.005   4.867   8.874  3.1523 -2.2065  2.3426
   42MOL0     H 5613   6.098   4.665   8.908 -3.2301 -1.9915  1.2370
   42MOL0     H 5614   5.967   4.619   8.804 -0.5184  1.0613  0.4428
   42MOL0     H 5615   6.184   4.663   8.612  0.9911  1.7815  1.4413
   42MOL0     H 5616   6.263   4.643   8.766 -1.2898  0.9129  2.7178
   42MOL0     H 5617   6.271   4.415   8.680 -0.0502 -1.8323  0.4513
   42MOL0     H 5618   6.143   4.426   8.797  4.6798  0.3924  1.9689
   42MOL0     H 5619   5.980   4.421   8.613 -1.8038 -1.2649 -2.0763
   42MOL0     H 5620   6.097   4.290   8.602  0.8463  0.6122 -1.0300
   42MOL0     H 5621   5.956   4.569   8.407  1.0442 -0.2935  0.8016
   42MOL0     H 5622   6.157   4.591   8.074 -0.6538 -0.3230 -0.1307
   42MOL0     H 5623   5.993   4.556   8.092 -0.0575 -2.2740  0.7038
   42MOL0     H 5624   6.001   4.741   8.279  0.4948  0.0330  1.0657
   42MOL0     H 5625   6.030   4.802   8.117 -0.1338  1.5872  0.6975
   42MOL0     H 5626   6.289   4.762   8.144  0.0361 -0.0287  1.2518
   42MOL0     H 5627   6.255   4.742   8.317  2.5125  2.6844  0.2822
   42MOL0     H 5628   6.165   4.960   8.332 -2.1669 -0.2882 -1.2244
   42MOL0     H 5629   6.174   4.980   8.160 -0.5118 -0.2248 -1.3321
   42MOL0     H 5630   6.346   5.037   7.999  0.0948 -0.2726 -0.2385
   42MOL0     H 5631   6.540   4.879   7.732  0.7006 -1.1871  0.5677
   42MOL0     H 5632   6.391   4.975   7.775  0.2346  0.7961  0.3487
   42MOL0     H 5633   6.548   5.050   7.751  0.3951 -0.7439  1.2604
   42MOL0     H 5634   7.109   4.850   7.962 -1.0863  0.6102 -0.7883
   42MOL0     H 5635   7.297   4.787   7.800  1.7948 -0.1309 -3.2170
   42MOL0     H 5636   7.359   4.776   7.570  1.5670  2.5023  1.7755
   42MOL0     H 5637   7.428   4.669   7.690  0.3536  0.8825 -0.2615
   42MOL0     H 5638   7.540   4.534   7.511  0.3224 -0.3237 -0.9013
   42MOL0     H 5639   7.460   4.635   7.386 -2.2918  4.0881  0.9691
   42MOL0     H 5640   7.667   4.720   7.596 -2.3847 -0.0986  0.6090
   42MOL0     H 5641   7.587   4.841   7.504  2.9693  0.9871  4.3747
   42MOL0     H 5642   7.764   4.623   7.406  4.8118  2.3087  1.2788
   42MOL0     H 5643   7.665   4.700   7.281  1.6161 -3.5222 -0.5769
   42MOL0     H 5644   7.886   4.793   7.299 -0.9333 -2.6772 -0.8635
   42MOL0     H 5645   7.857   4.850   7.468 -1.3377  4.3625 -0.4490
   42MOL0     H 5646   7.665   4.940   7.248 -1.0417  1.9639  1.7438
   42MOL0     H 5647   7.689   5.007   7.408 -1.1544 -2.1533  0.1061
   42MOL0     H 5648   7.870   5.027   7.158 -0.9162  0.4586 -0.0036
   42MOL0     H 5649   7.941   5.046   7.315  1.1045  0.2020 -0.8686
   42MOL0     H 5650   7.701   5.197   7.228 -0.0944 -1.9087 -0.7244
   42MOL0     H 5651   7.863   5.244   7.179 -0.8206 -0.9797  0.1103
   42MOL0     H 5652   7.040   4.491   7.626  1.6122 -0.4210 -0.5062
   42MOL0     H 5653   6.847   4.572   7.767  0.2095 -0.9258  0.2185
   42MOL0     H 5654   6.720   4.773   8.172 -2.5349 -2.3839  0.3420
   42MOL0     H 5655   6.568   4.874   8.319  4.6199  1.3184  0.3923
   42MOL0     H 5656   5.632   5.047   8.323  2.7683  0.0344  3.3454
   42MOL0     H 5657   5.394   5.086   8.222  0.2208  0.1156 -1.4238
   42MOL0     H 5658   4.928   4.916   8.087  2.3295  1.8234 -1.9595
   42MOL0     H 5659   4.696   5.011   8.039  2.2453 -0.7843 -0.9557
   42MOL0     H 5660   4.678   5.425   8.177  0.1935  0.0255  0.4721
   42MOL0     H 5661   4.668   5.380   8.011 -1.2061  0.9746  0.4678
   42MOL0     H 5662   4.487   5.533   8.048  0.6039 -0.0227 -1.2125
   42MOL0     H 5663   4.427   5.442   8.180  1.3566 -0.1494  0.8715
   42MOL0     H 5664   4.348   5.267   8.007 -0.5206  0.4893  1.1784
   42MOL0     H 5665   4.420   5.364   7.875 -1.7696 -0.6456 -0.8944
   42MOL0     H 5666   4.282   5.555   7.957  0.1628 -0.6881  2.0335
   42MOL0     H 5667   4.200   5.431   8.066 -0.1348  0.1282  0.7012
   42MOL0     H 5668   4.073   5.351   7.653  2.1049 -2.5326  0.2390
   42MOL0     H 5669   4.782   5.326   8.312 -1.1735 -1.4916  1.3590
   42MOL0     H 5670   5.001   5.229   8.362  2.0460 -1.6585 -0.9414
   43MOL0     O 5671   3.147   1.092   2.991  0.1761  0.2381  0.4784
   43MOL0     C 5672   3.109   1.209   2.975 -0.7965  0.7649  0.2018
   43MOL0     O 5673   2.990   1.246   2.936  0.3793 -0.8950  0.3719
   43MOL0     C 5674   2.889   1.156   2.926 -0.2389 -0.6224  0.8514
   43MOL0     C 5675   2.807   1.166   2.813  0.0007  1.4761 -0.1200
   43MOL0     C 5676   2.711   1.066   2.785 -0.0593 -0.8035 -0.2058
   43MOL0     C 5677   2.688   0.953   2.867  0.4254 -0.4362  0.3757
   43MOL0     O 5678   2.593   0.857   2.846 -0.0339  0.0803 -0.1996
   43MOL0     C 5679   2.487   0.861   2.751 -0.1856 -0.0695  0.4774
   43MOL0     C 5680   2.546   0.824   2.608  0.7780 -0.7621  0.4424
   43MOL0     C 5681   2.626   0.697   2.594 -0.5576  0.0112 -1.1245
   43MOL0     C 5682   2.646   0.659   2.450  0.2964  0.1224 -0.3444
   43MOL0     C 5683   2.745   0.535   2.437  0.0345 -0.2388  0.0937
   43MOL0     C 5684   2.795   0.514   2.295  0.2122  0.2729 -0.4523
   43MOL0     C 5685   2.857   0.375   2.276 -1.1778 -1.0811  0.8716
   43MOL0     C 5686   2.895   0.356   2.122 -0.1198  0.6187  0.2023
   43MOL0     N 5687   2.792   0.365   2.020 -0.4766 -0.2972 -0.0187
   43MOL0     C 5688   2.743   0.476   1.948  0.2063 -0.0646 -0.6011
   43MOL0     C 5689   2.642   0.441   1.872  0.6508  0.2403  0.9603
   43MOL0     C 5690   2.570   0.535   1.779 -0.1513  0.5619  0.4454
   43MOL0     C 5691   2.420   0.546   1.836 -0.4339  0.8726  0.2604
   43MOL0     C 5692   2.331   0.423   1.790  0.1203 -0.1176 -0.1168
   43MOL0     C 5693   2.193   0.384   1.848 -0.4323  0.5533  0.4192
   43MOL0     O 5694   2.166   0.247   1.832 -0.3550  0.5576  0.1216
   43MOL0     C 5695   2.127   0.204   1.707 -0.2326 -0.4403 -0.2696
   43MOL0     C 5696   2.195   0.095   1.646  0.4542 -1.5605  0.9496
   43MOL0     C 5697   2.154   0.044   1.522  0.3671  0.1820  0.3892
   43MOL0     C 5698   2.219  -0.076   1.451 -0.2113  0.3592 -0.5138
   43MOL0     C 5699   2.033   0.092   1.464 -0.2138 -0.0356 -0.3533
   43MOL0     C 5700   1.972   0.032   1.339 -0.6115 -0.3338  0.5573
   43MOL0     O 5701   1.835   0.045   1.339 -0.9693  0.0299  0.0504
   43MOL0     C 5702   1.761   0.015   1.229  0.3052  0.7559 -0.2801
   43MOL0     C 5703   1.749   0.108   1.124 -0.8193 -0.3676 -0.4760
   43MOL0     C 5704   1.670   0.084   1.013 -0.3592  0.3752  0.5397
   43MOL0     C 5705   1.597  -0.036   0.998 -0.1871 -0.0833 -0.6637
   43MOL0     O 5706   1.507  -0.060   0.897 -0.8681  0.6040 -0.0352
   43MOL0     C 5707   1.384   0.011   0.909 -0.6578 -0.0100  0.1693
   43MOL0     C 5708   1.294  -0.044   0.804 -0.3778  0.2754  0.9045
   43MOL0     C 5709   1.159   0.033   0.814  0.5915  0.1854  0.0323
   43MOL0     C 5710   1.042  -0.056   0.768  0.8966 -0.0198 -0.3508
   43MOL0     C 5711   1.061  -0.117   0.632 -0.1580 -0.3025  0.2155
   43MOL0     C 5712   0.954  -0.213   0.583  0.5130 -0.2164  0.3354
   43MOL0     C 5713   0.996  -0.262   0.446 -0.5191  0.8888  0.5542
   43MOL0     C 5714   0.959  -0.403   0.414  0.2108  0.2628  0.0321
   43MOL0    Cl 5715   1.049  -0.521   0.518 -0.2673  0.1810 -0.2586
   43MOL0     C 5716   1.617  -0.137   1.095  0.1751  0.8328 -0.3731
   43MOL0     C 5717   1.700  -0.108   1.213 -0.7962 -0.1678  0.1694
   43MOL0     O 5718   2.036  -0.009   1.244 -0.5516 -0.8124  0.9880
   43MOL0     C 5719   1.958   0.190   1.531 -0.0580  0.2836  0.1280
   43MOL0     C 5720   2.016   0.254   1.643  0.0347  0.1227 -0.8687
   43MOL0     N 5721   2.634   0.304   1.885  0.6341  0.5419 -1.4230
   43MOL0     N 5722   2.727   0.261   1.962  0.1589 -0.2847  0.1722
   43MOL0     C 5723   2.773   0.944   2.986 -0.4759  0.4098 -0.3287
   43MOL0     C 5724   2.865   1.049   3.019 -1.1105 -0.6258  0.1557
   43MOL0     C 5725   3.206   1.314   2.978  0.6190 -1.5623  0.2567
   43MOL0     C 5726   3.175   1.433   2.912  0.5432  0.0508  0.3157
   43MOL0     C 5727   3.268   1.539   2.922 -0.3999  0.9578  0.8995
   43MOL0     C 5728   3.389   1.525   3.001 -0.3458 -0.9430  0.3779
   43MOL0     O 5729   3.461   1.649   3.008  0.6206 -0.3130  0.6212
   43MOL0     C 5730   3.514   1.682   3.141  0.0200 -0.2485  0.6105
   43MOL0     C 5731   3.601   1.803   3.131  0.5544 -0.2609  0.8160
   43MOL0     C 5732   3.732   1.791   3.059  0.9155 -0.3189  0.0831
   43MOL0     C 5733   3.839   1.903   3.094 -0.0305 -0.0475  0.5439
   43MOL0     C 5734   3.811   2.040   3.041 -0.7754  0.7700 -0.0601
   43MOL0     C 5735   3.771   2.150   3.006  0.1252  0.0499 -0.6551
   43MOL0     C 5736   3.418   1.405   3.063 -0.4123 -0.2071  1.3734
   43MOL0     C 5737   3.327   1.299   3.051  0.2224  0.3787  0.2659
   43MOL0     H 5738   2.819   1.250   2.746 -2.7273  1.0938 -1.2013
   43MOL0     H 5739   2.651   1.081   2.696 -1.8178 -0.9681  0.9148
   43MOL0     H 5740   2.421   0.776   2.772 -0.9776  0.5588  0.5740
   43MOL0     H 5741   2.426   0.952   2.747 -2.1215 -1.2454  1.7113
   43MOL0     H 5742   2.465   0.822   2.536  2.7028  1.6197 -2.0152
   43MOL0     H 5743   2.601   0.914   2.577 -1.4896  0.9103  1.0417
   43MOL0     H 5744   2.721   0.714   2.646 -1.1354  4.3671 -1.1713
   43MOL0     H 5745   2.568   0.616   2.640 -2.5628 -0.7646 -4.6749
   43MOL0     H 5746   2.544   0.644   2.414  0.3856  0.3522 -0.7043
   43MOL0     H 5747   2.690   0.749   2.405  2.3957 -0.8736 -0.3944
   43MOL0     H 5748   2.838   0.543   2.495 -0.3072  0.1879  0.5896
   43MOL0     H 5749   2.688   0.452   2.480  0.2415 -0.0368  0.7743
   43MOL0     H 5750   2.715   0.526   2.222 -0.1975  2.0613  0.2277
   43MOL0     H 5751   2.865   0.596   2.283  2.7724 -1.1982  2.6989
   43MOL0     H 5752   2.955   0.370   2.324  0.4022 -1.8365 -2.1836
   43MOL0     H 5753   2.798   0.291   2.314  3.0411 -3.4087  3.1203
   43MOL0     H 5754   2.954   0.266   2.109  0.8180  0.9682  1.7000
   43MOL0     H 5755   2.968   0.432   2.093  1.3842 -1.3717 -1.4629
   43MOL0     H 5756   2.784   0.574   1.969 -0.1144 -0.6210  3.3832
   43MOL0     H 5757   2.619   0.633   1.775  0.0574  0.4503  0.2271
   43MOL0     H 5758   2.562   0.508   1.674  1.0630  1.9099 -0.0217
   43MOL0     H 5759   2.378   0.639   1.795  1.0299  0.5090 -2.3008
   43MOL0     H 5760   2.426   0.549   1.945  1.2090  0.4109  0.2010
   43MOL0     H 5761   2.397   0.336   1.796  0.8733  0.4360 -0.1003
   43MOL0     H 5762   2.305   0.459   1.689 -2.6163 -1.2817  0.0991
   43MOL0     H 5763   2.110   0.447   1.816 -2.1456  0.3599  3.9046
   43MOL0     H 5764   2.181   0.399   1.956 -3.2935 -0.2627  0.2905
   43MOL0     H 5765   2.278   0.045   1.695 -0.6419 -1.3105  3.2045
   43MOL0     H 5766   2.294  -0.131   1.508 -0.9583  0.6788  0.8094
   43MOL0     H 5767   2.145  -0.155   1.437  0.3496 -0.6036  1.5289
   43MOL0     H 5768   2.263  -0.045   1.355  2.1039  1.4872  0.8350
   43MOL0     H 5769   1.793   0.206   1.142  0.9431 -1.0588 -0.7666
   43MOL0     H 5770   1.643   0.154   0.935  0.5750 -0.9798 -1.0531
   43MOL0     H 5771   1.342  -0.014   1.008  1.9009  2.4204  2.0295
   43MOL0     H 5772   1.392   0.119   0.899 -0.9053 -0.1206 -1.3887
   43MOL0     H 5773   1.342  -0.029   0.707  2.4537  0.4606  2.2090
   43MOL0     H 5774   1.281  -0.149   0.830  0.9281  0.2806  1.6974
   43MOL0     H 5775   1.153   0.131   0.764 -2.1232 -0.6038 -1.4030
   43MOL0     H 5776   1.131   0.051   0.918  0.8010 -0.0419  0.1295
   43MOL0     H 5777   1.044  -0.137   0.842  1.9768  1.7874  1.7115
   43MOL0     H 5778   0.942  -0.013   0.780  0.1692 -1.5837 -0.5816
   43MOL0     H 5779   1.158  -0.168   0.634 -0.3606 -0.7334 -0.5967
   43MOL0     H 5780   1.059  -0.029   0.567 -1.4835 -0.6612 -0.2590
   43MOL0     H 5781   0.957  -0.303   0.644  0.6925 -0.9315 -0.6957
   43MOL0     H 5782   0.853  -0.170   0.581  0.9501  0.8353  0.0234
   43MOL0     H 5783   1.103  -0.263   0.424 -0.3679 -1.4204  1.1647
   43MOL0     H 5784   0.953  -0.188   0.377  0.7656 -1.2065 -2.7163
   43MOL0     H 5785   0.967  -0.427   0.308 -1.1931 -0.8636  0.1409
   43MOL0     H 5786   0.851  -0.408   0.431  0.3343 -2.1069  0.4266
   43MOL0     H 5787   1.566  -0.232   1.083 -0.7101  0.4656  4.4795
   43MOL0     H 5788   1.719  -0.190   1.281  0.3013 -0.1106 -0.0469
   43MOL0     H 5789   1.864   0.225   1.491 -1.2984  0.1894  2.7823
   43MOL0     H 5790   1.972   0.343   1.688 -0.1103 -1.0220  1.3785
   43MOL0     H 5791   2.761   0.857   3.049  1.9709  1.9578  2.5036
   43MOL0     H 5792   2.928   1.033   3.106  0.8104 -1.0431 -1.2676
   43MOL0     H 5793   3.085   1.445   2.852  0.1877  0.6182  0.9601
   43MOL0     H 5794   3.237   1.635   2.881  1.0809  0.1632 -2.4054
   43MOL0     H 5795   3.435   1.717   3.208  1.5774 -0.8006  2.8193
   43MOL0     H 5796   3.561   1.597   3.190 -1.1520 -1.8671 -0.8998
   43MOL0     H 5797   3.623   1.838   3.232  0.1248  4.7826 -0.5605
   43MOL0     H 5798   3.544   1.877   3.075 -0.8069 -0.6200  1.6793
   43MOL0     H 5799   3.713   1.815   2.954  1.9931  1.6371  0.2880
   43MOL0     H 5800   3.771   1.690   3.078  2.4512  0.6692  2.5958
   43MOL0     H 5801   3.934   1.858   3.065 -0.1412 -0.1860  0.3984
   43MOL0     H 5802   3.855   1.922   3.201 -0.4807  3.0628  0.1782
   43MOL0     H 5803   3.754   2.255   2.998 -2.8850  0.2292  4.1801
   43MOL0     H 5804   3.512   1.379   3.112  0.0618 -1.7399 -0.2375
   43MOL0     H 5805   3.352   1.206   3.103  0.2173 -0.3285 -0.9699
   44MOL0     O 5806   2.318  10.487  10.490  0.4398  0.1456 -0.1021
   44MOL0     C 5807   2.397  10.519  10.577  0.1565 -0.0147  0.2496
   44MOL0     O 5808   2.536  10.524  10.571 -0.5359  0.0068  0.4692
   44MOL0     C 5809   2.610  10.497  10.458 -0.2694 -0.3094 -0.7001
   44MOL0     C 5810   2.741  10.449  10.478  0.2117 -0.2543 -0.4300
   44MOL0     C 5811   2.834  10.447  10.373  0.3331  0.0329  0.2802
   44MOL0     C 5812   2.798  10.475  10.242  0.6287 -0.6275  0.5397
   44MOL0     O 5813   2.890  10.492  10.147  0.1277 -0.3245  0.3228
   44MOL0     C 5814   2.843  10.513  10.008  0.5879  0.1719  0.1656
   44MOL0     C 5815   2.962  10.488   9.924 -0.2573  0.2485  0.2373
   44MOL0     C 5816   2.943  10.361   9.832  0.0402 -1.1410 -0.6672
   44MOL0     C 5817   2.939  10.221   9.894  0.6360  0.0438 -0.1056
   44MOL0     C 5818   3.063  10.201   9.981  0.2251 -0.1414 -0.3105
   44MOL0     C 5819   3.089  10.056  10.013 -0.8546  0.1974  0.4924
   44MOL0     C 5820   3.138   9.972   9.894 -0.3749  0.2471  0.0736
   44MOL0     C 5821   3.089   9.830   9.925  0.1034  0.5983  0.1934
   44MOL0     N 5822   3.104   9.742   9.812 -0.9978  0.4193  1.1023
   44MOL0     C 5823   3.021   9.635   9.800  0.7632 -0.1919  0.0940
   44MOL0     C 5824   3.081   9.559   9.705  1.2241 -0.3881  0.1599
   44MOL0     C 5825   3.034   9.423   9.652  0.7531  0.0635  0.0482
   44MOL0     C 5826   2.996   9.318   9.760 -0.1934  0.1363 -0.1821
   44MOL0     C 5827   2.930   9.183   9.712 -0.9147  0.1271  0.1917
   44MOL0     C 5828   2.963   9.063   9.803 -0.6919 -0.2421  0.1457
   44MOL0     O 5829   2.912   9.107   9.932 -0.4356 -0.3419  0.3053
   44MOL0     C 5830   2.921   9.015  10.035 -0.2680 -0.4211 -1.2002
   44MOL0     C 5831   2.810   8.996  10.117  0.0368  0.2860 -0.1379
   44MOL0     C 5832   2.814   8.912  10.224 -0.3640 -0.1902  0.6900
   44MOL0     C 5833   2.680   8.875  10.287  0.3509 -0.4953  0.2357
   44MOL0     C 5834   2.940   8.870  10.275  0.4368  0.7675 -0.6466
   44MOL0     C 5835   2.958   8.804  10.411 -0.4012 -0.6056  1.2648
   44MOL0     O 5836   2.890   8.871  10.510 -0.0339  0.7735  0.4226
   44MOL0     C 5837   2.892   8.806  10.631  0.5664 -0.9876  0.5249
   44MOL0     C 5838   2.983   8.835  10.738  0.0457  0.1056 -0.4447
   44MOL0     C 5839   2.963   8.774  10.869 -0.3792  1.0258  0.2001
   44MOL0     C 5840   2.856   8.681  10.883 -0.2473 -0.2389  1.0815
   44MOL0     O 5841   2.832   8.598  10.990  0.2339  0.1090  0.5288
   44MOL0     C 5842   2.866   8.645  11.119 -0.7823  0.5185 -0.1740
   44MOL0     C 5843   2.806   8.550  11.218 -0.5510 -0.3549  0.5990
   44MOL0     C 5844   2.683   8.597  11.286  0.8646  0.5772 -0.1469
   44MOL0     C 5845   2.640   8.515  11.421  0.5570 -0.7576 -0.0040
   44MOL0     C 5846   2.533   8.602  11.509  0.4293 -0.4488 -0.0716
   44MOL0     C 5847   2.495   8.508  11.629  0.1120 -0.0789  0.9777
   44MOL0     C 5848   2.436   8.594  11.745 -0.4690  0.8151  0.2500
   44MOL0     C 5849   2.391   8.491  11.863 -0.5923 -0.1332 -0.8543
   44MOL0    Cl 5850   2.264   8.374  11.802  0.1402 -0.5038 -0.0602
   44MOL0     C 5851   2.768   8.663  10.778  0.4428  0.3339 -0.0854
   44MOL0     C 5852   2.789   8.725  10.648  0.5395  0.7135  0.1486
   44MOL0     O 5853   3.025   8.700  10.418  0.0385 -0.0960 -0.5143
   44MOL0     C 5854   3.053   8.894  10.191  0.2683  0.2107 -0.5796
   44MOL0     C 5855   3.041   8.957  10.064  0.3298  0.0487  0.8207
   44MOL0     N 5856   3.195   9.615   9.655  0.5664  0.2136 -0.0396
   44MOL0     N 5857   3.218   9.720   9.725 -0.1741  0.4634  0.5265
   44MOL0     C 5858   2.661  10.511  10.229  0.5318 -0.0546 -0.5558
   44MOL0     C 5859   2.563  10.519  10.330 -1.1524 -0.7188 -0.2060
   44MOL0     C 5860   2.343  10.556  10.703  0.1413 -0.1177 -0.5376
   44MOL0     C 5861   2.208  10.527  10.718  1.0155  0.0864  0.6712
   44MOL0     C 5862   2.143  10.543  10.847 -0.3804  0.0670  1.0588
   44MOL0     C 5863   2.213  10.602  10.953  0.8363 -0.5577  0.3917
   44MOL0     O 5864   2.127  10.638  11.060 -0.5540  0.0895 -0.4586
   44MOL0     C 5865   2.177  10.721  11.165  0.2605 -0.0362 -1.1948
   44MOL0     C 5866   2.180  10.874  11.126 -0.5097  0.0431  0.3388
   44MOL0     C 5867   2.269  10.958  11.221 -0.0518  0.7527 -0.2441
   44MOL0     C 5868   2.259  11.110  11.203  0.4928 -0.4738  0.5686
   44MOL0     C 5869   2.351  11.171  11.294  0.4929 -0.7937  0.3200
   44MOL0     C 5870   2.422  11.220  11.383 -1.3378 -0.1015 -0.3349
   44MOL0     C 5871   2.343  10.621  10.943 -0.8286  0.2058 -0.5399
   44MOL0     C 5872   2.409  10.596  10.818  0.0627 -0.0250  0.1470
   44MOL0     H 5873   2.771  10.413  10.576 -0.0511 -1.6757 -0.8477
   44MOL0     H 5874   2.930  10.401  10.393  0.0036 -0.6725  0.2522
   44MOL0     H 5875   2.763  10.445   9.977  1.6192 -0.9548 -0.0959
   44MOL0     H 5876   2.813  10.618  10.002  0.5840  0.2993  1.8973
   44MOL0     H 5877   2.983  10.570   9.856  0.9065  0.0042  0.2797
   44MOL0     H 5878   3.055  10.475   9.980 -0.7652 -0.6606  0.9085
   44MOL0     H 5879   2.857  10.374   9.767  2.4485 -0.9364 -4.0766
   44MOL0     H 5880   3.029  10.366   9.765  0.7616  0.4668  0.3178
   44MOL0     H 5881   2.849  10.222   9.957  0.9730 -0.7246  0.4114
   44MOL0     H 5882   2.924  10.142   9.819 -0.9182  0.0263  0.1925
   44MOL0     H 5883   3.148  10.237   9.922  0.4299 -1.0916 -0.6073
   44MOL0     H 5884   3.052  10.247  10.080  0.6713 -0.9617  0.1300
   44MOL0     H 5885   3.174  10.062  10.082  0.0424  1.2588 -0.6737
   44MOL0     H 5886   3.004  10.005  10.059 -0.7422 -1.0037 -0.5806
   44MOL0     H 5887   3.090  10.004   9.801 -1.9098  0.8980  1.0549
   44MOL0     H 5888   3.247   9.983   9.891 -0.3945  0.2869 -1.3686
   44MOL0     H 5889   2.988   9.823   9.968  0.5499  2.0506  1.5987
   44MOL0     H 5890   3.158   9.800  10.005 -1.4647  0.1499  1.4275
   44MOL0     H 5891   2.933   9.596   9.849 -0.6324  1.5290 -0.9217
   44MOL0     H 5892   2.946   9.441   9.588  2.5792 -1.6709 -3.2576
   44MOL0     H 5893   3.116   9.379   9.595  2.2968  1.3257  1.2296
   44MOL0     H 5894   2.931   9.347   9.843 -0.2876 -3.1789  1.0338
   44MOL0     H 5895   3.088   9.292   9.813 -0.4226  1.5530  0.9640
   44MOL0     H 5896   2.966   9.155   9.612  0.4567  1.1564  0.3665
   44MOL0     H 5897   2.822   9.202   9.714 -0.7407  1.3038 -0.3530
   44MOL0     H 5898   3.070   9.041   9.813 -0.6146 -0.5971 -1.2812
   44MOL0     H 5899   2.909   8.973   9.775 -0.8397 -0.5872  1.4869
   44MOL0     H 5900   2.712   9.033  10.088 -0.1328  2.6726  2.8556
   44MOL0     H 5901   2.602   8.871  10.210 -0.8655  0.4763  1.3756
   44MOL0     H 5902   2.690   8.775  10.331 -0.1136  0.5826  3.0225
   44MOL0     H 5903   2.643   8.949  10.359  0.0741  1.4058 -1.7574
   44MOL0     H 5904   3.066   8.904  10.749 -0.8940  1.1977  0.1631
   44MOL0     H 5905   3.028   8.793  10.954  1.0592 -1.4466 -0.2420
   44MOL0     H 5906   2.975   8.640  11.125 -0.6301 -0.5601 -2.5253
   44MOL0     H 5907   2.835   8.748  11.140  0.0895  1.3080 -2.4039
   44MOL0     H 5908   2.797   8.456  11.161 -0.6352 -2.0713  3.2742
   44MOL0     H 5909   2.878   8.537  11.299 -0.8858 -1.8336  0.6962
   44MOL0     H 5910   2.602   8.570  11.217  2.6721 -2.0904 -1.4181
   44MOL0     H 5911   2.678   8.705  11.298  1.1481  0.5600  0.1498
   44MOL0     H 5912   2.580   8.426  11.398 -0.3702  0.3270 -1.9855
   44MOL0     H 5913   2.720   8.489  11.490 -1.4269 -2.2769  1.8960
   44MOL0     H 5914   2.440   8.635  11.462  0.8309 -0.0132 -0.5706
   44MOL0     H 5915   2.585   8.693  11.538 -1.8454  0.7826  0.3779
   44MOL0     H 5916   2.410   8.449  11.592  1.2325 -0.3656 -1.2884
   44MOL0     H 5917   2.573   8.437  11.658 -2.2119 -2.7515  1.1572
   44MOL0     H 5918   2.347   8.641  11.701 -2.0040 -3.3465 -1.6738
   44MOL0     H 5919   2.511   8.666  11.778 -1.3924  0.5113  3.2926
   44MOL0     H 5920   2.357   8.548  11.949  2.8884  6.4780 -3.1460
   44MOL0     H 5921   2.477   8.428  11.887 -1.3770 -1.1977 -0.7430
   44MOL0     H 5922   2.685   8.594  10.779 -1.0818  2.0685 -0.6808
   44MOL0     H 5923   2.721   8.678  10.577 -1.1086 -0.4002  2.3190
   44MOL0     H 5924   3.146   8.855  10.231 -0.3571  0.0866  0.7918
   44MOL0     H 5925   3.130   8.972  10.005 -0.3721 -4.6333 -1.8988
   44MOL0     H 5926   2.635  10.542  10.128  0.4118 -2.4561 -1.3180
   44MOL0     H 5927   2.462  10.554  10.311 -0.8995 -0.0426 -0.3256
   44MOL0     H 5928   2.148  10.488  10.637  1.1129 -1.1771  1.1868
   44MOL0     H 5929   2.040  10.518  10.869  0.4818 -3.8405  1.4596
   44MOL0     H 5930   2.107  10.717  11.249 -0.0074 -0.3132 -1.4298
   44MOL0     H 5931   2.275  10.682  11.196  0.9082  2.8159  0.7721
   44MOL0     H 5932   2.079  10.910  11.105 -0.6394 -0.2119  0.5130
   44MOL0     H 5933   2.236  10.873  11.032 -0.3887 -0.3136  0.4154
   44MOL0     H 5934   2.374  10.931  11.202  0.7515  2.3911  1.5600
   44MOL0     H 5935   2.251  10.930  11.325 -1.1157 -2.0408 -1.0661
   44MOL0     H 5936   2.156  11.138  11.227  0.1874 -1.3927  0.3661
   44MOL0     H 5937   2.287  11.138  11.102 -2.0526  0.6001  0.0948
   44MOL0     H 5938   2.476  11.260  11.467 -1.2247 -1.7162  0.3813
   44MOL0     H 5939   2.399  10.664  11.025 -0.6398 -2.6031  0.8874
   44MOL0     H 5940   2.516  10.609  10.819 -0.1752  2.3973  0.8800
   45MOL0     O 5941   9.422   3.466   6.448 -0.0064 -0.4401 -0.2545
   45MOL0     C 5942   9.464   3.558   6.376 -0.4316  0.2407 -0.8264
   45MOL0     O 5943   9.394   3.630   6.289  0.1687 -0.7855 -0.3166
   45MOL0     C 5944   9.258   3.621   6.286  0.7998 -0.9937  0.4294
   45MOL0     C 5945   9.173   3.655   6.401 -0.0238  0.7331 -0.0247
   45MOL0     C 5946   9.031   3.636   6.398  0.2107  0.5394  0.1663
   45MOL0     C 5947   8.971   3.588   6.277  1.2430 -0.4504  1.3429
   45MOL0     O 5948   8.837   3.578   6.255 -0.3177  0.4913  0.8250
   45MOL0     C 5949   8.746   3.582   6.374 -1.3678 -0.5193  0.0065
   45MOL0     C 5950   8.609   3.576   6.325  0.9460  0.8959  0.1908
   45MOL0     C 5951   8.509   3.600   6.432  0.2755 -0.5639  0.1622
   45MOL0     C 5952   8.359   3.570   6.389 -0.2505  0.2412 -0.0530
   45MOL0     C 5953   8.266   3.516   6.508 -0.6696 -0.5111  0.3674
   45MOL0     C 5954   8.260   3.615   6.624 -0.8936  0.5002  0.5208
   45MOL0     C 5955   8.160   3.572   6.729 -1.0404  0.3656 -0.6704
   45MOL0     C 5956   8.009   3.597   6.702  0.6003  0.0265  0.1742
   45MOL0     N 5957   7.957   3.729   6.682 -0.4896 -0.4270 -0.1972
   45MOL0     C 5958   7.968   3.836   6.777  0.4846  0.6810  0.0452
   45MOL0     C 5959   7.868   3.920   6.736 -0.0029  0.0716 -0.6682
   45MOL0     C 5960   7.833   4.049   6.810  0.0104 -0.4120 -0.1036
   45MOL0     C 5961   7.688   4.102   6.764  1.0750  0.0161 -0.7195
   45MOL0     C 5962   7.575   4.030   6.846 -0.5351  0.0863 -0.1198
   45MOL0     C 5963   7.437   4.073   6.819 -0.0766 -0.5796 -0.5080
   45MOL0     O 5964   7.351   3.988   6.904 -0.5142  0.4960 -1.0615
   45MOL0     C 5965   7.217   3.989   6.887 -0.7183  0.1287  0.8679
   45MOL0     C 5966   7.155   4.084   6.802  0.3163  0.1347 -0.0665
   45MOL0     C 5967   7.015   4.085   6.782 -0.5508  0.1240  0.4842
   45MOL0     C 5968   6.962   4.192   6.694 -0.9197  0.2009  0.6192
   45MOL0     C 5969   6.936   3.996   6.854  0.3554 -1.0765  0.3148
   45MOL0     C 5970   6.785   4.008   6.869 -0.2956  0.5223 -0.2076
   45MOL0     O 5971   6.724   3.913   6.944 -0.6028 -0.3198  0.5943
   45MOL0     C 5972   6.589   3.894   6.955  0.3062 -0.1079 -0.4577
   45MOL0     C 5973   6.552   3.758   6.978  0.0510  0.2013  0.1411
   45MOL0     C 5974   6.411   3.725   6.996 -1.1586  0.5950  0.6037
   45MOL0     C 5975   6.314   3.819   6.990  0.7131 -0.2785 -0.6077
   45MOL0     O 5976   6.194   3.762   6.990  1.0125 -0.1440  0.3567
   45MOL0     C 5977   6.080   3.848   6.979  0.2964 -0.1211 -0.1288
   45MOL0     C 5978   5.938   3.792   7.028 -0.2035  0.5315  1.1098
   45MOL0     C 5979   5.870   3.696   6.922 -0.2729  0.1718 -1.2247
   45MOL0     C 5980   5.835   3.762   6.781  0.1531  0.2022  0.7140
   45MOL0     C 5981   5.729   3.683   6.693  0.0821 -0.7888 -0.0037
   45MOL0     C 5982   5.721   3.742   6.552  0.0053  0.1894  0.6177
   45MOL0     C 5983   5.590   3.705   6.479 -0.5366 -0.2786  0.1059
   45MOL0     C 5984   5.468   3.789   6.523 -0.0184  0.7194  0.4293
   45MOL0    Cl 5985   5.481   3.958   6.473 -0.4206 -0.0874  0.2836
   45MOL0     C 5986   6.347   3.950   6.958 -0.2727 -0.0842 -0.1664
   45MOL0     C 5987   6.484   3.984   6.945 -0.0773 -1.3321 -0.5268
   45MOL0     O 5988   6.728   4.087   6.798  0.0595  0.2854  0.4838
   45MOL0     C 5989   6.998   3.895   6.919  0.1657 -0.0269  0.5736
   45MOL0     C 5990   7.138   3.891   6.941 -0.4878 -0.4779 -0.2794
   45MOL0     N 5991   7.812   3.872   6.617  0.8010 -0.1343  0.1576
   45MOL0     N 5992   7.865   3.754   6.596 -0.5385  0.4313  1.0195
   45MOL0     C 5993   9.055   3.566   6.166  0.6838 -0.4375  0.0754
   45MOL0     C 5994   9.191   3.583   6.168  0.2596  0.2050  0.0549
   45MOL0     C 5995   9.605   3.597   6.391 -0.2106 -0.0055 -0.2192
   45MOL0     C 5996   9.664   3.703   6.323 -0.6239 -0.7177  1.6106
   45MOL0     C 5997   9.804   3.732   6.338  0.4743 -0.6190 -0.2321
   45MOL0     C 5998   9.890   3.669   6.423 -0.4109  1.0170  0.1040
   45MOL0     O 5999  10.026   3.701   6.423 -0.5211 -0.3680  0.1050
   45MOL0     C 6000  10.058   3.794   6.526 -0.4462  0.5205  0.2247
   45MOL0     C 6001  10.169   3.746   6.618  0.4845 -0.3502 -0.4183
   45MOL0     C 6002  10.172   3.825   6.748  0.2036 -0.6864  0.1622
   45MOL0     C 6003  10.151   3.977   6.739  0.1467 -0.0925 -0.3452
   45MOL0     C 6004  10.253   4.026   6.649  0.0807  0.3053  0.5306
   45MOL0     C 6005  10.337   4.070   6.583 -0.4561  0.1011  0.9563
   45MOL0     C 6006   9.836   3.558   6.490  0.5054  1.1630  0.8830
   45MOL0     C 6007   9.699   3.526   6.478 -0.0129 -0.7477  0.3070
   45MOL0     H 6008   9.217   3.692   6.493  1.2303 -1.6359  0.3951
   45MOL0     H 6009   8.985   3.663   6.492  0.7936  4.4567 -0.5114
   45MOL0     H 6010   8.771   3.501   6.442 -0.6495  0.0212  0.4023
   45MOL0     H 6011   8.763   3.677   6.427  1.6015 -1.5367  1.1012
   45MOL0     H 6012   8.596   3.612   6.222  1.6213 -1.8704 -0.9539
   45MOL0     H 6013   8.596   3.469   6.305  1.7390  1.1395 -1.8336
   45MOL0     H 6014   8.541   3.537   6.515  0.3769 -1.1048 -0.2811
   45MOL0     H 6015   8.495   3.706   6.455 -0.6641 -0.1712 -1.9867
   45MOL0     H 6016   8.308   3.653   6.340  0.0535 -0.7867 -2.2088
   45MOL0     H 6017   8.360   3.488   6.317  1.3728  1.6018 -1.6702
   45MOL0     H 6018   8.166   3.499   6.467 -1.2115  2.8855 -0.0267
   45MOL0     H 6019   8.299   3.421   6.550 -0.1539 -0.8754 -0.8000
   45MOL0     H 6020   8.358   3.623   6.671 -1.0243  1.2055  0.6881
   45MOL0     H 6021   8.251   3.714   6.577 -1.7660  0.0272 -0.3453
   45MOL0     H 6022   8.160   3.464   6.749  0.0737  0.8091  2.3827
   45MOL0     H 6023   8.177   3.623   6.825 -2.1036 -2.5577  1.2315
   45MOL0     H 6024   7.964   3.538   6.782 -0.7566 -0.6417 -1.0420
   45MOL0     H 6025   7.970   3.540   6.618 -1.4518  2.7827 -0.9118
   45MOL0     H 6026   8.036   3.848   6.861 -0.3887  0.2820  0.8208
   45MOL0     H 6027   7.830   4.024   6.916  2.3094  0.0179  0.1032
   45MOL0     H 6028   7.918   4.116   6.796  1.1420 -1.5861  0.8983
   45MOL0     H 6029   7.666   4.064   6.664  0.6608 -0.6422 -0.3833
   45MOL0     H 6030   7.682   4.212   6.765  0.2611 -0.0080 -1.3922
   45MOL0     H 6031   7.593   4.037   6.954  3.8659 -1.5237 -0.5155
   45MOL0     H 6032   7.577   3.924   6.819 -1.7739  0.5864 -2.4361
   45MOL0     H 6033   7.419   4.053   6.713  1.5384  0.5034 -1.0241
   45MOL0     H 6034   7.413   4.176   6.847 -1.4001 -0.9923 -0.0234
   45MOL0     H 6035   7.210   4.164   6.753 -1.3920  0.1514 -2.0708
   45MOL0     H 6036   7.049   4.243   6.652 -1.1142 -1.8435 -2.5464
   45MOL0     H 6037   6.897   4.157   6.614  0.4467  2.0822 -1.4509
   45MOL0     H 6038   6.915   4.272   6.752 -1.8909  1.4366 -1.7360
   45MOL0     H 6039   6.625   3.678   6.975  0.3445  0.5052 -1.3540
   45MOL0     H 6040   6.390   3.619   6.998  3.7905 -0.5952  1.5873
   45MOL0     H 6041   6.101   3.942   7.029  0.3403  0.8266 -1.8402
   45MOL0     H 6042   6.079   3.876   6.873  1.6326 -1.8117 -0.6460
   45MOL0     H 6043   5.927   3.743   7.125  0.6460  0.9834  1.4418
   45MOL0     H 6044   5.870   3.877   7.032 -1.0066  0.2582 -2.6625
   45MOL0     H 6045   5.771   3.667   6.961  1.0986 -0.7570  1.8832
   45MOL0     H 6046   5.939   3.612   6.927  0.2503  0.6597  0.2185
   45MOL0     H 6047   5.790   3.862   6.786  2.9462  1.7831 -2.4170
   45MOL0     H 6048   5.928   3.791   6.731  2.2449 -1.3332  3.4453
   45MOL0     H 6049   5.627   3.680   6.733 -0.6194 -1.7978 -1.7480
   45MOL0     H 6050   5.757   3.580   6.671  0.0423  0.0336 -5.4707
   45MOL0     H 6051   5.727   3.851   6.559 -0.2171  0.2606 -0.2687
   45MOL0     H 6052   5.805   3.703   6.495  0.4949 -0.2843  1.6306
   45MOL0     H 6053   5.578   3.597   6.494  0.5854 -0.7004 -1.6884
   45MOL0     H 6054   5.603   3.722   6.372 -0.8281  0.4253  0.1798
   45MOL0     H 6055   5.451   3.767   6.629  1.3180 -3.2684  0.0004
   45MOL0     H 6056   5.383   3.743   6.470 -0.6883  1.9463  0.3902
   45MOL0     H 6057   6.269   4.022   6.935  1.2221  0.4622 -4.2616
   45MOL0     H 6058   6.498   4.091   6.938 -0.0315 -1.3321 -0.4347
   45MOL0     H 6059   6.933   3.823   6.968 -0.0989 -0.7519 -0.7809
   45MOL0     H 6060   7.195   3.815   6.995  2.1212 -0.4103 -2.7092
   45MOL0     H 6061   9.007   3.529   6.076  1.3623 -0.5407 -0.2449
   45MOL0     H 6062   9.252   3.549   6.085 -0.9059  1.1592 -1.2535
   45MOL0     H 6063   9.607   3.767   6.257  1.3924  0.5183  0.9916
   45MOL0     H 6064   9.851   3.800   6.268  0.3584 -1.2733 -0.9494
   45MOL0     H 6065  10.094   3.883   6.475 -0.4716  0.6994  0.5209
   45MOL0     H 6066   9.972   3.811   6.591 -1.2992 -0.4381 -0.6079
   45MOL0     H 6067  10.267   3.729   6.573 -0.7202 -2.6780 -2.3502
   45MOL0     H 6068  10.145   3.643   6.644  0.7012 -1.3266 -3.6367
   45MOL0     H 6069  10.264   3.793   6.798 -1.1987 -2.9057  1.4978
   45MOL0     H 6070  10.093   3.783   6.811 -0.1473 -3.1396 -1.7424
   45MOL0     H 6071  10.170   4.024   6.836  0.4469 -0.7316 -0.0896
   45MOL0     H 6072  10.048   3.999   6.708 -0.2796  0.2473  1.2350
   45MOL0     H 6073  10.410   4.116   6.521 -2.2443  0.3546 -1.0961
   45MOL0     H 6074   9.906   3.496   6.544  3.2622  2.0028 -1.5035
   45MOL0     H 6075   9.665   3.438   6.532 -1.0189 -2.1447 -2.3894
   46MOL0     O 6076   3.743   2.351   0.806  1.0027  1.3208 -1.0380
   46MOL0     C 6077   3.787   2.233   0.812  0.7686 -0.0955  0.0070
   46MOL0     O 6078   3.761   2.141   0.912 -0.2901 -0.0548 -0.2664
   46MOL0     C 6079   3.637   2.138   0.968  0.2572  0.5920  0.3529
   46MOL0     C 6080   3.515   2.158   0.887 -0.5594 -0.3134  0.4174
   46MOL0     C 6081   3.390   2.135   0.945  0.1871  0.1470 -0.0504
   46MOL0     C 6082   3.384   2.118   1.089 -0.3101  0.0432 -0.4770
   46MOL0     O 6083   3.269   2.071   1.148  0.7876  0.5923  0.0241
   46MOL0     C 6084   3.144   2.131   1.095  0.7451 -0.0151 -0.8819
   46MOL0     C 6085   3.053   2.121   1.212 -0.3851 -0.9444 -0.6349
   46MOL0     C 6086   3.118   2.194   1.336  0.2939  0.6789 -0.2246
   46MOL0     C 6087   3.109   2.115   1.471 -0.0034 -0.1484 -0.2013
   46MOL0     C 6088   3.171   2.195   1.588  0.2275 -0.5397 -0.5453
   46MOL0     C 6089   3.131   2.150   1.730  0.2804 -0.6212  0.2364
   46MOL0     C 6090   3.163   2.006   1.772 -0.3882 -0.5441  0.8217
   46MOL0     C 6091   3.293   2.015   1.865 -0.2959  0.2733 -0.3699
   46MOL0     N 6092   3.341   1.876   1.906  0.4881 -0.0205  0.4646
   46MOL0     C 6093   3.319   1.806   2.024  0.1765  0.5804  1.0641
   46MOL0     C 6094   3.334   1.677   1.984  0.5334  0.0287 -0.4489
   46MOL0     C 6095   3.302   1.560   2.072 -0.0164  0.1292 -0.3283
   46MOL0     C 6096   3.436   1.490   2.098 -0.5177 -0.8073 -0.5354
   46MOL0     C 6097   3.405   1.365   2.182 -0.4066 -0.3414  0.5047
   46MOL0     C 6098   3.544   1.309   2.211 -0.6510  0.7799 -0.8476
   46MOL0     O 6099   3.540   1.197   2.308 -0.6120  0.7208  0.5659
   46MOL0     C 6100   3.661   1.151   2.354  0.4075 -1.1084 -0.0351
   46MOL0     C 6101   3.776   1.226   2.379  0.4807  0.2098 -1.0505
   46MOL0     C 6102   3.891   1.166   2.444  0.5894 -0.3844 -0.3739
   46MOL0     C 6103   4.012   1.244   2.481 -0.4525 -0.5923 -0.7575
   46MOL0     C 6104   3.894   1.032   2.462  0.0572 -0.3300  0.3859
   46MOL0     C 6105   4.010   0.966   2.523 -0.2693  0.1452  0.1623
   46MOL0     O 6106   4.033   0.982   2.660  0.3219  0.9409 -0.1728
   46MOL0     C 6107   4.132   0.920   2.723 -1.2408 -0.1634  0.2571
   46MOL0     C 6108   4.132   0.782   2.729  0.6745 -0.0866  0.2176
   46MOL0     C 6109   4.224   0.711   2.797 -0.3908  0.4781  0.3970
   46MOL0     C 6110   4.330   0.776   2.860 -0.3473 -0.6402  0.6014
   46MOL0     O 6111   4.415   0.722   2.946 -0.2298 -0.0406  0.2085
   46MOL0     C 6112   4.368   0.648   3.061 -0.0855 -0.2329 -0.2350
   46MOL0     C 6113   4.439   0.511   3.068 -0.6958  0.1484 -0.1554
   46MOL0     C 6114   4.394   0.432   3.191 -0.0601  0.3427  0.1921
   46MOL0     C 6115   4.436   0.504   3.320  0.4768 -0.1147  0.2276
   46MOL0     C 6116   4.452   0.410   3.431 -0.2704  0.6524  0.2146
   46MOL0     C 6117   4.577   0.315   3.442 -0.6225  0.7579 -0.2576
   46MOL0     C 6118   4.709   0.385   3.402  0.9008 -0.2454 -0.3433
   46MOL0     C 6119   4.826   0.292   3.414 -0.6295  0.4543 -0.5812
   46MOL0    Cl 6120   4.897   0.278   3.586  0.0571 -0.1677 -0.0969
   46MOL0     C 6121   4.339   0.916   2.840  0.4624 -0.3840  0.2767
   46MOL0     C 6122   4.237   0.994   2.774  0.0205 -0.2254  0.4019
   46MOL0     O 6123   4.073   0.900   2.438 -0.0411 -0.3421 -0.1420
   46MOL0     C 6124   3.778   0.958   2.433 -0.1790 -0.0193 -0.4565
   46MOL0     C 6125   3.663   1.020   2.387  0.6966  0.4559  0.0140
   46MOL0     N 6126   3.367   1.675   1.851  0.5251 -0.0614  0.6917
   46MOL0     N 6127   3.371   1.794   1.807 -0.5250  0.4605 -0.8795
   46MOL0     C 6128   3.497   2.123   1.168 -0.2929  0.0935  0.0893
   46MOL0     C 6129   3.622   2.121   1.105  0.2036  0.5466 -0.3280
   46MOL0     C 6130   3.884   2.209   0.704 -1.0405  0.5587  0.8235
   46MOL0     C 6131   3.901   2.303   0.597 -0.2119 -0.3782  0.1569
   46MOL0     C 6132   4.015   2.285   0.506 -0.2981 -0.8708 -0.5634
   46MOL0     C 6133   4.100   2.173   0.517  0.1985 -0.7189  0.4356
   46MOL0     O 6134   4.211   2.170   0.433  1.1534 -0.7804 -0.6136
   46MOL0     C 6135   4.274   2.047   0.402 -0.8844 -0.6593 -0.9094
   46MOL0     C 6136   4.338   2.046   0.265  0.4829  0.8225  0.3709
   46MOL0     C 6137   4.226   2.033   0.157  0.1679  0.2700  0.5966
   46MOL0     C 6138   4.089   1.985   0.207 -0.0110  0.3547 -0.5087
   46MOL0     C 6139   3.997   1.948   0.100 -0.4161 -0.1797 -0.1403
   46MOL0     C 6140   3.921   1.906   0.019  0.9188 -0.2148  0.1371
   46MOL0     C 6141   4.067   2.071   0.610  1.3411 -0.4417  0.3140
   46MOL0     C 6142   3.972   2.099   0.704  0.4691 -0.2354 -0.2804
   46MOL0     H 6143   3.509   2.169   0.779  0.8889  0.6204  0.4046
   46MOL0     H 6144   3.300   2.116   0.886 -0.1043  3.2413 -0.8212
   46MOL0     H 6145   3.158   2.235   1.064  1.8244  0.0173 -0.3381
   46MOL0     H 6146   3.095   2.074   1.016 -0.3430  1.3992 -1.2678
   46MOL0     H 6147   2.959   2.174   1.191 -0.2004 -1.0710 -1.8445
   46MOL0     H 6148   3.045   2.015   1.238 -0.1332 -1.3684 -2.2001
   46MOL0     H 6149   3.225   2.208   1.320  1.1889 -0.4941  3.6141
   46MOL0     H 6150   3.071   2.292   1.336  1.2400  1.1592 -1.2007
   46MOL0     H 6151   3.003   2.089   1.481  0.3072 -1.7480 -0.6755
   46MOL0     H 6152   3.180   2.031   1.471  2.5141  1.8682 -1.2478
   46MOL0     H 6153   3.279   2.177   1.583  0.1600 -1.1018 -0.1033
   46MOL0     H 6154   3.150   2.302   1.579  1.6513 -0.2606 -0.8208
   46MOL0     H 6155   3.154   2.231   1.800 -2.2536 -0.8355  1.4440
   46MOL0     H 6156   3.021   2.158   1.733  0.3013 -0.2444  0.0390
   46MOL0     H 6157   3.071   1.968   1.817 -1.7755  1.5655 -0.1164
   46MOL0     H 6158   3.183   1.937   1.690 -1.8266 -0.0436  0.0116
   46MOL0     H 6159   3.265   2.068   1.957 -1.9741 -2.8331  1.0703
   46MOL0     H 6160   3.374   2.067   1.814  0.1355  0.4229  0.4402
   46MOL0     H 6161   3.313   1.852   2.122  2.0823  1.5093  0.7713
   46MOL0     H 6162   3.252   1.601   2.160  1.1083  2.4291 -0.6984
   46MOL0     H 6163   3.231   1.489   2.028 -1.1752  0.9549  0.1600
   46MOL0     H 6164   3.504   1.554   2.154 -3.1118  0.1492  1.7660
   46MOL0     H 6165   3.476   1.452   2.004 -0.7696 -1.6383 -0.3171
   46MOL0     H 6166   3.356   1.297   2.111 -1.7346  3.4883 -2.6064
   46MOL0     H 6167   3.339   1.390   2.266 -0.7770  1.6756 -0.3255
   46MOL0     H 6168   3.605   1.390   2.253  0.0151 -0.6377  1.1041
   46MOL0     H 6169   3.591   1.287   2.115  1.4836  1.4953 -0.0341
   46MOL0     H 6170   3.774   1.332   2.354 -3.1834  1.3035  2.7685
   46MOL0     H 6171   3.983   1.347   2.459 -1.4820 -0.1422  2.1968
   46MOL0     H 6172   4.028   1.237   2.589  1.4436 -1.1427 -1.0332
   46MOL0     H 6173   4.108   1.218   2.436  1.7726  3.0035  1.3673
   46MOL0     H 6174   4.053   0.722   2.685 -0.6598  1.7795 -0.0602
   46MOL0     H 6175   4.223   0.603   2.808 -1.3859  0.6124  1.9546
   46MOL0     H 6176   4.378   0.721   3.143 -2.0873  0.6371 -0.6846
   46MOL0     H 6177   4.262   0.623   3.044  0.6596 -1.6970 -3.3963
   46MOL0     H 6178   4.427   0.439   2.987 -0.4427 -2.2278  1.8184
   46MOL0     H 6179   4.547   0.527   3.071 -0.5391 -0.9955  1.6898
   46MOL0     H 6180   4.430   0.328   3.194  0.9930  0.7197  2.3004
   46MOL0     H 6181   4.285   0.424   3.192 -0.2199  2.0499 -0.8149
   46MOL0     H 6182   4.527   0.563   3.301 -0.5181  1.2115 -0.6375
   46MOL0     H 6183   4.357   0.578   3.336 -0.5326 -1.0542 -0.2817
   46MOL0     H 6184   4.366   0.345   3.451  0.8392 -0.5013  1.4340
   46MOL0     H 6185   4.469   0.483   3.511  1.6694  4.1745 -3.0857
   46MOL0     H 6186   4.586   0.286   3.547 -0.1915 -0.6144 -0.6542
   46MOL0     H 6187   4.559   0.225   3.382 -0.4122  0.0676  0.6951
   46MOL0     H 6188   4.722   0.470   3.469 -1.0324  0.9346 -1.3853
   46MOL0     H 6189   4.695   0.421   3.299 -1.2596 -0.1053 -0.0481
   46MOL0     H 6190   4.907   0.334   3.353  2.0266 -1.6102  1.2571
   46MOL0     H 6191   4.801   0.195   3.370 -1.0860  0.3563 -0.1064
   46MOL0     H 6192   4.424   0.970   2.881 -0.5730  0.3821  1.4811
   46MOL0     H 6193   4.241   1.103   2.767  0.6062 -0.3392 -5.2106
   46MOL0     H 6194   3.774   0.854   2.464 -0.2107 -0.0151 -0.4464
   46MOL0     H 6195   3.569   0.966   2.392 -0.2757  2.1916  1.8757
   46MOL0     H 6196   3.479   2.119   1.275  3.4679  2.3320  0.9906
   46MOL0     H 6197   3.718   2.123   1.156 -0.3498  1.7038  0.7504
   46MOL0     H 6198   3.831   2.384   0.583  0.6940  0.5214  0.6855
   46MOL0     H 6199   4.046   2.362   0.436  0.0061  1.1618  1.6554
   46MOL0     H 6200   4.360   2.038   0.469 -0.4304  1.3467 -1.1422
   46MOL0     H 6201   4.218   1.955   0.420  0.8995 -1.2766  2.2166
   46MOL0     H 6202   4.400   1.956   0.261 -0.5376  0.1198 -0.0426
   46MOL0     H 6203   4.402   2.133   0.255 -0.1206  1.2862  0.4531
   46MOL0     H 6204   4.264   1.972   0.074 -1.8792 -0.1956 -0.0599
   46MOL0     H 6205   4.211   2.134   0.117  2.1090  0.1639 -0.5200
   46MOL0     H 6206   4.046   2.069   0.262  0.1828 -0.7439  1.4140
   46MOL0     H 6207   4.096   1.893   0.265 -1.2702  1.0417  0.7915
   46MOL0     H 6208   3.851   1.881  -0.058  2.1239  0.3484 -1.1917
   46MOL0     H 6209   4.119   1.976   0.605  1.6440 -0.2431 -0.3120
   46MOL0     H 6210   3.946   2.029   0.782 -1.1700  1.3172  0.6382
   47MOL0     O 6211   9.317   1.296   3.102  0.2711  0.2419 -0.3138
   47MOL0     C 6212   9.337   1.226   3.003  0.0275 -0.8306  0.2950
   47MOL0     O 6213   9.455   1.204   2.950 -0.1009 -0.1549 -0.0375
   47MOL0     C 6214   9.574   1.233   3.013 -0.0161 -0.5859  0.0738
   47MOL0     C 6215   9.670   1.269   2.916  0.4869  0.0886 -0.1969
   47MOL0     C 6216   9.805   1.282   2.958 -0.5629  0.0820 -0.5077
   47MOL0     C 6217   9.849   1.249   3.084  0.2207 -0.5287 -0.0390
   47MOL0     O 6218   9.979   1.257   3.132 -0.0973 -0.0217 -0.9970
   47MOL0     C 6219  10.093   1.282   3.042 -0.0772  0.5244 -0.4491
   47MOL0     C 6220  10.212   1.305   3.138 -1.0747 -0.6040 -0.2266
   47MOL0     C 6221  10.193   1.417   3.250 -0.7660 -0.2188  0.7020
   47MOL0     C 6222  10.319   1.432   3.327  0.3687 -0.6190  0.7482
   47MOL0     C 6223  10.297   1.523   3.449 -0.3954  1.0336  0.3282
   47MOL0     C 6224  10.426   1.550   3.531 -0.0271 -0.1726  1.4571
   47MOL0     C 6225  10.408   1.638   3.654  0.1500  0.1028  0.6252
   47MOL0     C 6226  10.544   1.696   3.682 -1.1331  1.0985  0.0843
   47MOL0     N 6227  10.540   1.765   3.813 -0.4619  0.5100  0.1008
   47MOL0     C 6228  10.453   1.849   3.876 -0.1453  0.6293 -0.6884
   47MOL0     C 6229  10.519   1.909   3.978 -0.6209  0.6884 -0.8965
   47MOL0     C 6230  10.469   2.001   4.082  0.1935  1.0207  0.7222
   47MOL0     C 6231  10.398   1.918   4.181 -0.0608 -0.0827  0.3903
   47MOL0     C 6232  10.374   1.997   4.317 -0.0219 -0.2097  0.7014
   47MOL0     C 6233  10.305   1.914   4.427 -0.8945 -0.5088 -0.6705
   47MOL0     O 6234  10.199   1.843   4.365 -0.3847 -0.0023 -1.0558
   47MOL0     C 6235  10.077   1.904   4.348  0.3252 -0.6381  0.5787
   47MOL0     C 6236   9.971   1.815   4.304  1.1363 -0.5557  0.2165
   47MOL0     C 6237   9.844   1.861   4.279 -0.1243  0.6878  0.1559
   47MOL0     C 6238   9.751   1.751   4.237  0.7328 -0.3798  0.6396
   47MOL0     C 6239   9.810   2.002   4.300 -0.6899 -0.1070  0.2302
   47MOL0     C 6240   9.674   2.059   4.268 -1.1215 -0.7543  0.5349
   47MOL0     O 6241   9.666   2.198   4.241 -0.1748 -1.0420 -0.1069
   47MOL0     C 6242   9.544   2.252   4.208  0.2903  0.2050 -0.1613
   47MOL0     C 6243   9.435   2.249   4.295 -0.6736 -0.7348 -0.2507
   47MOL0     C 6244   9.312   2.289   4.249 -0.3932  0.5174  0.4739
   47MOL0     C 6245   9.295   2.343   4.116  0.2523  0.1767 -0.2449
   47MOL0     O 6246   9.180   2.371   4.050  0.6364 -0.1620 -0.0223
   47MOL0     C 6247   9.067   2.300   4.091  0.7214 -0.4403 -0.4226
   47MOL0     C 6248   8.966   2.278   3.981  0.0354  0.5268  0.5072
   47MOL0     C 6249   8.859   2.170   4.022  1.5015  0.4727  0.0932
   47MOL0     C 6250   8.714   2.223   3.983 -0.1673  0.0638 -0.1252
   47MOL0     C 6251   8.694   2.208   3.828 -0.0780 -0.3137 -0.7227
   47MOL0     C 6252   8.551   2.235   3.782  1.3155 -0.1494  0.3937
   47MOL0     C 6253   8.541   2.225   3.631  0.2603  0.1669  0.1478
   47MOL0     C 6254   8.394   2.244   3.587  0.4667  0.7859  0.1589
   47MOL0    Cl 6255   8.368   2.423   3.576 -0.0792 -0.0632  0.1649
   47MOL0     C 6256   9.408   2.370   4.048  0.0785  0.3973  0.1003
   47MOL0     C 6257   9.529   2.314   4.088 -0.1544  0.0569  0.1928
   47MOL0     O 6258   9.578   1.995   4.292  0.2827  0.7268 -0.1889
   47MOL0     C 6259   9.915   2.088   4.353 -0.3617 -0.7927  0.2849
   47MOL0     C 6260  10.052   2.039   4.371  0.2537 -0.1981  0.0303
   47MOL0     N 6261  10.642   1.853   3.981 -0.4088 -0.2609 -0.2997
   47MOL0     N 6262  10.663   1.775   3.881 -0.4334  0.4941 -0.7616
   47MOL0     C 6263   9.751   1.209   3.182  0.1511  0.7706 -0.0661
   47MOL0     C 6264   9.609   1.197   3.148  0.0069  0.4806  0.5020
   47MOL0     C 6265   9.218   1.166   2.932 -0.8754 -0.0282 -0.1913
   47MOL0     C 6266   9.093   1.208   2.970 -0.0934  0.2298 -0.4500
   47MOL0     C 6267   8.982   1.176   2.899 -0.2417 -0.0799 -0.8572
   47MOL0     C 6268   8.993   1.093   2.786 -0.0528 -0.3857 -0.6413
   47MOL0     O 6269   8.884   1.059   2.706 -0.5965 -0.4106 -0.8152
   47MOL0     C 6270   8.755   1.116   2.725 -0.0003  0.9215  0.1447
   47MOL0     C 6271   8.641   1.043   2.642  0.5471  0.1412 -0.3147
   47MOL0     C 6272   8.604   0.916   2.717  0.1703 -0.2516 -0.0271
   47MOL0     C 6273   8.504   0.817   2.651 -0.4071  0.1942  0.3557
   47MOL0     C 6274   8.500   0.836   2.507  0.3319 -0.3487  0.7330
   47MOL0     C 6275   8.473   0.854   2.386 -0.2864 -0.3745 -0.6167
   47MOL0     C 6276   9.122   1.043   2.753  0.4272 -0.0325 -0.0852
   47MOL0     C 6277   9.237   1.084   2.814  1.1049 -0.7171 -0.1887
   47MOL0     H 6278   9.633   1.284   2.815  1.5027 -0.7096 -0.7175
   47MOL0     H 6279   9.876   1.321   2.886  1.8766 -1.8151  0.7206
   47MOL0     H 6280  10.100   1.196   2.974 -4.4991 -1.0060  0.7310
   47MOL0     H 6281  10.080   1.374   2.984  0.9019  0.2461 -1.1443
   47MOL0     H 6282  10.232   1.206   3.179  1.9890  0.6887  1.7803
   47MOL0     H 6283  10.292   1.332   3.068 -3.0157  2.1447 -1.5898
   47MOL0     H 6284  10.172   1.516   3.209  2.7605  0.7596  0.9552
   47MOL0     H 6285  10.112   1.394   3.320  0.5360  0.7372  2.6046
   47MOL0     H 6286  10.348   1.331   3.359 -0.6217 -0.4782  2.1956
   47MOL0     H 6287  10.384   1.486   3.258 -0.9394  0.8931  0.6466
   47MOL0     H 6288  10.260   1.621   3.421  2.6439  1.5011 -2.7255
   47MOL0     H 6289  10.227   1.468   3.513 -1.0795  1.3700 -0.1332
   47MOL0     H 6290  10.468   1.457   3.569 -1.2464 -0.1804  2.9094
   47MOL0     H 6291  10.497   1.587   3.457 -0.7415  0.0625  0.8810
   47MOL0     H 6292  10.344   1.723   3.632 -0.7771 -0.8659 -0.5586
   47MOL0     H 6293  10.379   1.577   3.740 -0.3765  0.8444  0.9880
   47MOL0     H 6294  10.565   1.763   3.598 -0.9509  0.1342 -0.6674
   47MOL0     H 6295  10.627   1.625   3.682 -0.0899  2.2877  0.7152
   47MOL0     H 6296  10.350   1.861   3.845 -0.4343  1.5361  0.5172
   47MOL0     H 6297  10.559   2.049   4.121  0.4377  1.4671 -0.3346
   47MOL0     H 6298  10.401   2.081   4.050 -0.4926 -0.1465 -0.9045
   47MOL0     H 6299  10.469   1.836   4.197  1.3102 -0.1338 -4.3680
   47MOL0     H 6300  10.310   1.874   4.133  1.4302 -3.0900  0.1869
   47MOL0     H 6301  10.323   2.093   4.312  2.9028  1.6931  3.4439
   47MOL0     H 6302  10.473   2.024   4.354 -0.0973  0.3889  0.4700
   47MOL0     H 6303  10.263   1.981   4.502  1.5489 -1.7719  2.0075
   47MOL0     H 6304  10.385   1.863   4.481  0.9351  3.3838  0.6831
   47MOL0     H 6305  10.015   1.719   4.278  1.3273  0.1333 -2.2436
   47MOL0     H 6306   9.648   1.780   4.259  0.1206 -2.2993  0.4790
   47MOL0     H 6307   9.763   1.726   4.132  2.0970  2.8338 -0.0808
   47MOL0     H 6308   9.774   1.664   4.299 -0.1608 -0.6489  0.6019
   47MOL0     H 6309   9.452   2.219   4.398 -2.3884 -1.3782 -0.1170
   47MOL0     H 6310   9.235   2.274   4.324 -1.3249  1.1375 -0.3332
   47MOL0     H 6311   9.087   2.199   4.127 -2.7879 -0.7663  0.9906
   47MOL0     H 6312   9.017   2.349   4.174 -0.0420 -2.0206  0.0805
   47MOL0     H 6313   8.912   2.372   3.969  1.4042  1.3872  0.9133
   47MOL0     H 6314   9.019   2.244   3.892 -0.5444 -2.2493  1.1157
   47MOL0     H 6315   8.857   2.153   4.130 -3.5573  2.7331  0.6206
   47MOL0     H 6316   8.887   2.074   3.977 -0.9014  0.7566 -2.2380
   47MOL0     H 6317   8.633   2.160   4.022 -1.7220  3.0490  1.8655
   47MOL0     H 6318   8.692   2.317   4.034 -0.1920  1.1395 -2.0262
   47MOL0     H 6319   8.718   2.103   3.812 -1.3807 -0.3971 -2.4539
   47MOL0     H 6320   8.767   2.268   3.774  0.2467 -0.7302 -0.7492
   47MOL0     H 6321   8.492   2.154   3.826  1.2126  0.1311  0.7749
   47MOL0     H 6322   8.512   2.331   3.818  1.3263  0.0422 -0.1009
   47MOL0     H 6323   8.577   2.126   3.602 -2.6601 -0.8889 -0.1618
   47MOL0     H 6324   8.601   2.303   3.582  2.1155  0.0019  1.9916
   47MOL0     H 6325   8.327   2.201   3.662 -4.1685  0.7904 -3.5214
   47MOL0     H 6326   8.384   2.198   3.488 -1.4016  1.8570 -0.1992
   47MOL0     H 6327   9.405   2.409   3.946  1.6431  0.4173  0.0285
   47MOL0     H 6328   9.627   2.319   4.041  0.3062 -0.1388  1.1015
   47MOL0     H 6329   9.895   2.194   4.339  1.8644 -0.2659  0.6071
   47MOL0     H 6330  10.121   2.118   4.399  0.5251 -0.7149  0.8772
   47MOL0     H 6331   9.775   1.195   3.286 -1.1666 -1.1832  0.0261
   47MOL0     H 6332   9.545   1.160   3.227 -1.0387  0.1083 -0.4773
   47MOL0     H 6333   9.077   1.286   3.044  1.5578 -1.9523  2.4149
   47MOL0     H 6334   8.885   1.208   2.937  0.2007  0.9729 -0.5948
   47MOL0     H 6335   8.727   1.094   2.828  0.5640 -0.9033 -0.0615
   47MOL0     H 6336   8.766   1.225   2.719  2.1120  0.6765 -2.0098
   47MOL0     H 6337   8.696   1.019   2.551  2.0574 -1.1087  0.8760
   47MOL0     H 6338   8.555   1.108   2.624  1.0154  0.2101 -2.4803
   47MOL0     H 6339   8.567   0.938   2.818 -0.3332 -1.6966  0.1284
   47MOL0     H 6340   8.696   0.863   2.742  1.6593  3.0432  2.3499
   47MOL0     H 6341   8.404   0.817   2.696 -0.4144  1.7967  0.3874
   47MOL0     H 6342   8.545   0.721   2.685  3.7423  2.2431  1.9206
   47MOL0     H 6343   8.471   0.877   2.281  0.0215  0.5240 -0.4325
   47MOL0     H 6344   9.123   0.984   2.661 -0.0890  0.5904 -0.5059
   47MOL0     H 6345   9.336   1.044   2.793  1.3297 -1.4339  1.9843
   48MOL0     O 6346   1.352   9.050   9.413  0.1908  0.8828 -0.0122
   48MOL0     C 6347   1.451   9.014   9.344  0.3344  0.0995 -0.0430
   48MOL0     O 6348   1.450   8.984   9.213  0.5197 -0.5209 -0.2238
   48MOL0     C 6349   1.328   8.963   9.140 -0.6185 -0.8310 -0.2704
   48MOL0     C 6350   1.224   8.890   9.207  0.4098  0.1005  0.1376
   48MOL0     C 6351   1.108   8.854   9.129 -0.4737  0.4331  0.3739
   48MOL0     C 6352   1.094   8.901   9.003  0.9044 -0.1360 -0.1929
   48MOL0     O 6353   0.986   8.857   8.919 -0.5912 -0.5321  0.1184
   48MOL0     C 6354   0.866   8.797   8.971  0.2350  0.3899 -0.6420
   48MOL0     C 6355   0.769   8.899   9.018 -0.0152  0.0059 -1.0906
   48MOL0     C 6356   0.629   8.836   9.035 -0.1513 -0.2993 -0.4936
   48MOL0     C 6357   0.520   8.927   9.078 -1.1201  0.4246 -0.1141
   48MOL0     C 6358   0.570   9.046   9.167 -0.4994 -0.1855 -0.3131
   48MOL0     C 6359   0.456   9.132   9.228 -0.0959  0.5497 -0.1094
   48MOL0     C 6360   0.505   9.258   9.306 -0.0007 -0.1523  0.2280
   48MOL0     C 6361   0.546   9.216   9.443  0.7614 -0.4592 -0.3400
   48MOL0     N 6362   0.609   9.328   9.523 -0.4944  0.9964 -0.5283
   48MOL0     C 6363   0.743   9.359   9.528  0.1867 -0.2983  0.7155
   48MOL0     C 6364   0.758   9.455   9.629  0.2199  0.3644  0.0564
   48MOL0     C 6365   0.886   9.507   9.707 -0.1346  0.4213  0.4786
   48MOL0     C 6366   0.870   9.650   9.761 -0.3597 -0.1068  0.3165
   48MOL0     C 6367   0.981   9.722   9.840  0.3400 -0.1363  0.9441
   48MOL0     C 6368   0.929   9.862   9.879 -0.7332  1.6210  1.0987
   48MOL0     O 6369   0.843   9.867   9.992 -0.5618  0.3619  0.0321
   48MOL0     C 6370   0.877   9.794  10.102 -0.3162  0.0112  0.8307
   48MOL0     C 6371   0.998   9.803  10.164 -0.1144 -0.4537  0.0400
   48MOL0     C 6372   1.024   9.741  10.292 -0.9686  0.9036 -0.7087
   48MOL0     C 6373   1.163   9.743  10.344  0.4869  0.3679 -0.3537
   48MOL0     C 6374   0.919   9.675  10.351 -0.7916 -0.3325 -0.0876
   48MOL0     C 6375   0.911   9.620  10.488  0.1321 -0.4480  0.8843
   48MOL0     O 6376   1.024   9.600  10.551 -0.4946 -0.0355 -0.0840
   48MOL0     C 6377   1.017   9.613  10.687  0.1384  0.0598 -0.4519
   48MOL0     C 6378   0.971   9.521  10.776 -0.1914  0.9753  0.9193
   48MOL0     C 6379   0.980   9.540  10.917 -0.4826 -0.5526 -0.6160
   48MOL0     C 6380   1.036   9.666  10.969 -0.4549  0.9850 -0.0441
   48MOL0     O 6381   1.025   9.701  11.102 -0.1590 -0.5821 -0.1165
   48MOL0     C 6382   0.988   9.610  11.205 -0.5098  0.0977  0.3750
   48MOL0     C 6383   1.101   9.510  11.219 -1.1436  0.3949  0.3877
   48MOL0     C 6384   1.231   9.576  11.272 -0.9857 -0.5844  0.0611
   48MOL0     C 6385   1.220   9.630  11.417  0.3552  0.0239  0.3431
   48MOL0     C 6386   1.349   9.662  11.479  0.2180 -0.2482 -1.1633
   48MOL0     C 6387   1.443   9.754  11.400  0.3808  0.6305  0.6624
   48MOL0     C 6388   1.388   9.890  11.352  0.1919  0.6266  0.2696
   48MOL0     C 6389   1.492   9.970  11.287  0.1229  0.1835 -0.3545
   48MOL0    Cl 6390   1.503   9.916  11.112 -0.2137 -0.1140 -0.2635
   48MOL0     C 6391   1.084   9.755  10.877  0.1836  0.3454 -0.2529
   48MOL0     C 6392   1.083   9.727  10.741  0.4890  0.5491  0.1169
   48MOL0     O 6393   0.796   9.603  10.540 -0.4978 -0.3004 -0.0582
   48MOL0     C 6394   0.800   9.656  10.279  0.2775 -0.2689 -0.9756
   48MOL0     C 6395   0.778   9.726  10.165 -0.4153 -0.7053 -0.0450
   48MOL0     N 6396   0.634   9.468   9.688  0.2945 -0.6729 -0.5398
   48MOL0     N 6397   0.547   9.387   9.631 -0.2420 -0.5558 -1.2490
   48MOL0     C 6398   1.188   8.983   8.947 -0.9201 -0.3608  0.9315
   48MOL0     C 6399   1.309   9.018   9.013  0.7411 -0.5425 -0.1387
   48MOL0     C 6400   1.574   9.007   9.427 -0.9898  0.4782 -0.0281
   48MOL0     C 6401   1.575   9.052   9.564 -0.1037 -1.3798 -0.2428
   48MOL0     C 6402   1.679   9.048   9.654 -0.0370  0.5728 -0.4820
   48MOL0     C 6403   1.797   8.981   9.617  0.4747  0.1258  0.7254
   48MOL0     O 6404   1.882   8.940   9.713  0.0492 -0.4761 -0.9272
   48MOL0     C 6405   2.013   8.903   9.678  0.8401 -0.7315  0.2630
   48MOL0     C 6406   2.095   8.964   9.784  0.8382 -0.5603 -0.3191
   48MOL0     C 6407   2.242   8.931   9.759  0.8091 -0.9968  1.0499
   48MOL0     C 6408   2.288   8.797   9.825  0.1721  0.8188 -0.1948
   48MOL0     C 6409   2.433   8.765   9.797  0.7604  0.0418 -0.4934
   48MOL0     C 6410   2.557   8.767   9.772  0.2382 -0.3519  0.0415
   48MOL0     C 6411   1.803   8.935   9.480 -1.1868  0.1356 -0.5684
   48MOL0     C 6412   1.698   8.943   9.393  1.2182  0.3196  0.5467
   48MOL0     H 6413   1.242   8.850   9.306  0.2443 -1.9996 -0.6372
   48MOL0     H 6414   1.034   8.794   9.182 -2.7500  1.5870 -1.2692
   48MOL0     H 6415   0.823   8.742   8.887  0.1848  0.6674 -0.8009
   48MOL0     H 6416   0.880   8.725   9.052 -0.1032  0.4766 -0.5027
   48MOL0     H 6417   0.785   8.934   9.120 -3.3330  0.2787 -0.5495
   48MOL0     H 6418   0.777   8.988   8.956 -0.1423  2.1839  1.8098
   48MOL0     H 6419   0.612   8.771   8.949 -1.5495 -0.4546 -0.1308
   48MOL0     H 6420   0.633   8.769   9.121  1.9446  0.6221  0.1971
   48MOL0     H 6421   0.489   8.974   8.984 -0.4314 -1.9705 -1.6168
   48MOL0     H 6422   0.437   8.881   9.132  0.0308  0.1110  1.4568
   48MOL0     H 6423   0.624   9.002   9.251 -1.1323 -1.1236 -0.3788
   48MOL0     H 6424   0.649   9.106   9.119  3.0791 -4.0229  0.1588
   48MOL0     H 6425   0.407   9.162   9.135  2.7498 -0.7118 -2.1534
   48MOL0     H 6426   0.390   9.077   9.295  0.4619  1.3706  1.1627
   48MOL0     H 6427   0.592   9.295   9.250  2.5189 -1.3880  3.0636
   48MOL0     H 6428   0.430   9.338   9.306 -0.1550 -0.2944  0.0113
   48MOL0     H 6429   0.613   9.129   9.436 -2.9989 -3.5803 -1.9807
   48MOL0     H 6430   0.458   9.191   9.502  0.5271  4.5524  1.8916
   48MOL0     H 6431   0.820   9.304   9.474 -0.0096 -1.9861  2.0656
   48MOL0     H 6432   0.906   9.438   9.790 -3.8327  0.2038  1.3688
   48MOL0     H 6433   0.968   9.511   9.634  0.7771  1.9192  1.5250
   48MOL0     H 6434   0.781   9.656   9.825 -0.2905  2.0538  0.2772
   48MOL0     H 6435   0.856   9.718   9.677  2.1654 -1.6222 -1.4730
   48MOL0     H 6436   1.069   9.727   9.776  0.3148 -0.9918  0.8320
   48MOL0     H 6437   1.003   9.667   9.931 -0.7145  0.8521  1.8303
   48MOL0     H 6438   0.880   9.904   9.790 -0.3228  2.6908  1.3649
   48MOL0     H 6439   1.018   9.922   9.898  0.5706  0.5472 -1.1896
   48MOL0     H 6440   1.074   9.860  10.111 -1.5929  2.7904  1.1760
   48MOL0     H 6441   1.191   9.645  10.383 -0.4478  0.3115  0.1964
   48MOL0     H 6442   1.230   9.764  10.259 -0.8970  2.7511 -0.9620
   48MOL0     H 6443   1.173   9.818  10.423  0.0941  0.3906 -0.3263
   48MOL0     H 6444   0.927   9.428  10.741 -0.3272  1.7238 -1.0643
   48MOL0     H 6445   0.934   9.462  10.978 -0.8999 -1.2999 -1.8476
   48MOL0     H 6446   0.976   9.674  11.293 -2.2815  1.1903 -0.6032
   48MOL0     H 6447   0.894   9.555  11.194 -0.5702  0.3518 -0.5154
   48MOL0     H 6448   1.065   9.426  11.279 -0.9883  0.8774  1.1633
   48MOL0     H 6449   1.120   9.464  11.121 -3.7815 -0.7934  0.3540
   48MOL0     H 6450   1.254   9.653  11.198  0.0941 -2.6971 -1.9405
   48MOL0     H 6451   1.313   9.504  11.279  1.5812  2.3563  3.0863
   48MOL0     H 6452   1.154   9.717  11.409 -0.3251 -0.6571 -3.3937
   48MOL0     H 6453   1.176   9.550  11.478  2.3680 -0.8525  0.7040
   48MOL0     H 6454   1.403   9.572  11.511  2.1505  0.8777 -1.1641
   48MOL0     H 6455   1.315   9.719  11.566 -3.4516 -2.7279 -0.7270
   48MOL0     H 6456   1.532   9.783  11.457  0.4081  3.3101 -0.6017
   48MOL0     H 6457   1.481   9.689  11.322 -1.3859  0.0064  0.2820
   48MOL0     H 6458   1.376   9.946  11.445 -0.5152 -0.1951  0.6887
   48MOL0     H 6459   1.296   9.895  11.294 -1.0396 -0.2216  2.0391
   48MOL0     H 6460   1.591   9.962  11.334  0.1401  0.7318 -0.2903
   48MOL0     H 6461   1.465  10.075  11.304 -0.2442 -0.3064  2.5879
   48MOL0     H 6462   1.140   9.842  10.909  0.8469  0.0265 -0.5355
   48MOL0     H 6463   1.139   9.793  10.676 -0.8712  1.4132 -0.2204
   48MOL0     H 6464   0.718   9.608  10.332  0.4766 -0.7210 -1.0699
   48MOL0     H 6465   0.681   9.725  10.116  0.8749 -1.4820 -2.7822
   48MOL0     H 6466   1.146   8.995   8.848 -0.7348 -1.5100  0.6981
   48MOL0     H 6467   1.375   9.083   8.957 -0.6629 -0.6772 -2.0618
   48MOL0     H 6468   1.479   9.077   9.607 -1.7318 -3.6471 -2.2890
   48MOL0     H 6469   1.677   9.093   9.753  2.3541  4.1253 -1.8322
   48MOL0     H 6470   2.020   8.795   9.666  3.4382 -0.3033 -4.0263
   48MOL0     H 6471   2.046   8.958   9.590 -1.0565 -1.3361 -0.8884
   48MOL0     H 6472   2.063   8.919   9.878 -0.4568 -0.4768 -0.6965
   48MOL0     H 6473   2.069   9.070   9.794  0.2421 -0.7262 -0.0454
   48MOL0     H 6474   2.297   9.024   9.776 -4.1593  3.4563 -3.6574
   48MOL0     H 6475   2.252   8.924   9.650  0.3050  3.2295  0.5901
   48MOL0     H 6476   2.225   8.715   9.788 -0.0784  0.7849  0.2972
   48MOL0     H 6477   2.270   8.798   9.933 -0.7952 -0.0103 -0.3362
   48MOL0     H 6478   2.662   8.777   9.753 -0.3643  2.2332 -2.7469
   48MOL0     H 6479   1.895   8.889   9.446 -0.5181  2.5040 -2.1385
   48MOL0     H 6480   1.725   8.903   9.296  5.3393  4.2544 -0.2803
   49MOL0     O 6481   8.149   1.452   5.297  0.0929  0.2384  0.4430
   49MOL0     C 6482   8.154   1.386   5.197 -0.7591 -0.5872  0.0608
   49MOL0     O 6483   8.045   1.375   5.109 -0.0498  0.1921  0.1835
   49MOL0     C 6484   7.916   1.423   5.135 -0.0686  0.8718  0.3085
   49MOL0     C 6485   7.855   1.394   5.257  0.4264 -1.4320 -0.3187
   49MOL0     C 6486   7.715   1.430   5.274 -0.2301 -0.2224  0.8128
   49MOL0     C 6487   7.642   1.488   5.171  0.3703  0.1340  0.0001
   49MOL0     O 6488   7.505   1.515   5.181 -0.3963  0.0375  0.2237
   49MOL0     C 6489   7.434   1.458   5.295  0.1093 -0.5057  0.0359
   49MOL0     C 6490   7.286   1.463   5.258 -0.9718  0.3046  0.2895
   49MOL0     C 6491   7.201   1.417   5.379 -1.2004  0.1909 -0.3779
   49MOL0     C 6492   7.209   1.516   5.494 -0.0670 -0.0682  0.5278
   49MOL0     C 6493   7.128   1.468   5.606  0.4806  0.2724 -0.0534
   49MOL0     C 6494   7.207   1.388   5.712 -0.2969 -0.1502 -0.3801
   49MOL0     C 6495   7.105   1.284   5.771  0.4513  0.5318  0.5763
   49MOL0     C 6496   7.178   1.189   5.867 -0.0458  0.0630  0.5554
   49MOL0     N 6497   7.249   1.081   5.796 -0.7225  1.2198 -0.2311
   49MOL0     C 6498   7.189   0.960   5.767 -0.0761 -0.2930  0.5194
   49MOL0     C 6499   7.286   0.895   5.700 -0.2972  0.3511  0.9812
   49MOL0     C 6500   7.283   0.766   5.628 -0.4410 -0.2840 -1.3223
   49MOL0     C 6501   7.333   0.656   5.727  0.2111  0.2091  0.3259
   49MOL0     C 6502   7.323   0.514   5.670  0.2067  0.0331  0.5253
   49MOL0     C 6503   7.186   0.479   5.617  0.6847  0.2724 -0.1327
   49MOL0     O 6504   7.147   0.522   5.489 -0.1413 -0.0986  0.2198
   49MOL0     C 6505   7.021   0.573   5.455 -0.5043 -0.0701 -0.8627
   49MOL0     C 6506   7.018   0.622   5.331  0.7099 -0.5797  0.2340
   49MOL0     C 6507   6.902   0.678   5.269 -1.1856 -0.2342 -1.9737
   49MOL0     C 6508   6.911   0.730   5.131 -0.4195  0.0262 -0.6934
   49MOL0     C 6509   6.789   0.697   5.350 -0.0476  0.5410  0.5660
   49MOL0     C 6510   6.664   0.763   5.309  0.6651 -0.6810 -0.5023
   49MOL0     O 6511   6.595   0.819   5.417  0.9495 -0.0652  0.0787
   49MOL0     C 6512   6.465   0.865   5.398  0.1533 -0.3706  0.6718
   49MOL0     C 6513   6.422   1.002   5.413 -0.8402 -0.8651  0.3205
   49MOL0     C 6514   6.284   1.042   5.399  0.7636  0.5321 -0.3297
   49MOL0     C 6515   6.189   0.942   5.357 -0.8302 -0.4949 -0.2000
   49MOL0     O 6516   6.054   0.977   5.332  0.3709 -0.2111 -0.7473
   49MOL0     C 6517   5.979   0.928   5.219  0.6782 -0.6863 -0.8975
   49MOL0     C 6518   5.853   0.855   5.280  0.0806  0.0246 -0.1840
   49MOL0     C 6519   5.782   0.776   5.161 -0.1400 -0.3596  0.7322
   49MOL0     C 6520   5.850   0.641   5.142  0.4269  0.2629  1.0172
   49MOL0     C 6521   5.794   0.548   5.042 -0.0223  0.2045  0.0322
   49MOL0     C 6522   5.663   0.479   5.098  0.0166 -0.4429 -0.4490
   49MOL0     C 6523   5.618   0.392   4.978  0.3336 -0.0173 -0.1257
   49MOL0     C 6524   5.532   0.275   5.023  0.3120  0.0539 -0.2335
   49MOL0    Cl 6525   5.505   0.165   4.882 -0.1137 -0.1872  0.2305
   49MOL0     C 6526   6.235   0.814   5.339 -0.0551  0.9354 -0.1160
   49MOL0     C 6527   6.367   0.771   5.359 -0.4917  0.1141 -0.4143
   49MOL0     O 6528   6.624   0.755   5.191 -0.2237 -0.0383 -0.6250
   49MOL0     C 6529   6.790   0.629   5.478 -0.3266  0.4889 -1.1024
   49MOL0     C 6530   6.904   0.580   5.532  0.2533  0.4726  0.9929
   49MOL0     N 6531   7.396   0.985   5.703 -0.5489 -0.0806  0.6376
   49MOL0     N 6532   7.373   1.090   5.759 -0.0624 -0.1401 -0.0168
   49MOL0     C 6533   7.709   1.529   5.060  0.1395  0.5037  0.4000
   49MOL0     C 6534   7.842   1.493   5.035  0.0826 -0.0632 -0.1942
   49MOL0     C 6535   8.279   1.304   5.168 -0.3668 -0.2848  0.0464
   49MOL0     C 6536   8.373   1.301   5.273 -0.0294 -0.2074  0.6040
   49MOL0     C 6537   8.492   1.236   5.242  1.7173  0.2384  0.1521
   49MOL0     C 6538   8.516   1.161   5.127  0.3619 -0.7714  0.5994
   49MOL0     O 6539   8.629   1.084   5.104  1.2686 -0.4113 -0.6306
   49MOL0     C 6540   8.672   1.003   5.215 -0.4183 -0.7813  0.3688
   49MOL0     C 6541   8.756   0.884   5.176 -0.4510 -0.1395 -0.7910
   49MOL0     C 6542   8.855   0.930   5.065 -0.9090  0.0051 -0.6673
   49MOL0     C 6543   8.984   0.837   5.070 -0.1797 -0.4150 -0.7663
   49MOL0     C 6544   9.057   0.845   5.200 -0.7614  0.0158 -0.2781
   49MOL0     C 6545   9.111   0.852   5.308 -0.2081  0.1457  0.5438
   49MOL0     C 6546   8.427   1.181   5.020 -0.1195 -0.6122  0.3467
   49MOL0     C 6547   8.308   1.254   5.039  0.0185  0.5810 -0.5901
   49MOL0     H 6548   7.910   1.347   5.338  0.5906  0.0812  0.4753
   49MOL0     H 6549   7.666   1.424   5.370 -1.5505  0.3351  0.2058
   49MOL0     H 6550   7.463   1.357   5.326  1.7458 -0.0119  0.2242
   49MOL0     H 6551   7.459   1.516   5.385 -0.7916 -2.3190  1.5283
   49MOL0     H 6552   7.244   1.552   5.211 -0.2344  0.3725 -0.2758
   49MOL0     H 6553   7.272   1.384   5.184 -3.1001 -0.2747  1.2442
   49MOL0     H 6554   7.098   1.410   5.344 -1.7780  0.0051  1.2587
   49MOL0     H 6555   7.242   1.322   5.415  0.2837  0.6034 -0.9273
   49MOL0     H 6556   7.310   1.547   5.523  0.6885 -1.4798 -0.4871
   49MOL0     H 6557   7.176   1.612   5.452 -0.2363 -0.5644 -0.5170
   49MOL0     H 6558   7.053   1.540   5.642  2.1871  1.1380  1.9589
   49MOL0     H 6559   7.061   1.398   5.555 -1.1284  2.1539 -0.6865
   49MOL0     H 6560   7.284   1.329   5.661 -0.1025 -0.8363  0.6862
   49MOL0     H 6561   7.246   1.456   5.788 -2.6887  2.2840 -1.1520
   49MOL0     H 6562   7.020   1.328   5.823 -1.1792 -2.6695  0.9120
   49MOL0     H 6563   7.066   1.226   5.687  0.6764  1.6605 -0.3281
   49MOL0     H 6564   7.099   1.151   5.931  1.6281 -3.7831  0.6044
   49MOL0     H 6565   7.253   1.245   5.925  0.8073  2.3951 -2.5196
   49MOL0     H 6566   7.089   0.925   5.792 -0.2834  1.8595  3.1184
   49MOL0     H 6567   7.178   0.741   5.607 -0.4392  0.2224 -1.9781
   49MOL0     H 6568   7.337   0.766   5.533  2.7409  0.2328  0.3437
   49MOL0     H 6569   7.280   0.662   5.823 -1.1583 -0.7390 -0.3250
   49MOL0     H 6570   7.439   0.665   5.750  0.7183 -2.8936 -0.2768
   49MOL0     H 6571   7.359   0.462   5.759  2.5058  1.7112  0.6743
   49MOL0     H 6572   7.401   0.505   5.594 -0.5949 -3.1659 -0.0783
   49MOL0     H 6573   7.108   0.504   5.690 -0.5527 -1.5221 -0.7786
   49MOL0     H 6574   7.172   0.371   5.624  0.4026  0.3490  0.5960
   49MOL0     H 6575   7.100   0.599   5.264  0.1314 -1.3623 -0.2251
   49MOL0     H 6576   7.019   0.738   5.119 -0.4784  1.5324 -0.4198
   49MOL0     H 6577   6.864   0.657   5.064 -1.1746  1.3437 -1.6519
   49MOL0     H 6578   6.876   0.834   5.122  0.0516  0.2622  0.0539
   49MOL0     H 6579   6.492   1.083   5.434 -1.7616  1.5586 -4.3998
   49MOL0     H 6580   6.233   1.137   5.416 -3.4178 -1.8567  2.3176
   49MOL0     H 6581   5.943   1.014   5.163  1.3268  0.9488  1.0445
   49MOL0     H 6582   6.041   0.861   5.158 -0.5131 -2.2245 -0.4875
   49MOL0     H 6583   5.895   0.786   5.353 -0.6599 -0.4591 -0.1963
   49MOL0     H 6584   5.785   0.930   5.323  0.1722  0.7574 -1.2816
   49MOL0     H 6585   5.779   0.830   5.067  1.4941 -2.4614 -0.6261
   49MOL0     H 6586   5.681   0.753   5.196 -0.3771 -0.2884  0.1082
   49MOL0     H 6587   5.954   0.657   5.113 -0.2509  0.3197 -1.5866
   49MOL0     H 6588   5.842   0.586   5.237 -1.0180 -1.2793  0.0397
   49MOL0     H 6589   5.865   0.472   5.007 -1.4976 -0.3961 -1.8614
   49MOL0     H 6590   5.764   0.600   4.950  1.9062  2.7441  0.7132
   49MOL0     H 6591   5.679   0.423   5.191 -1.3556  0.3801  0.3128
   49MOL0     H 6592   5.584   0.552   5.119  1.1599  0.2706  1.6454
   49MOL0     H 6593   5.701   0.355   4.918  2.3396  4.2820 -0.3656
   49MOL0     H 6594   5.559   0.448   4.904  0.7380 -0.0152 -0.4502
   49MOL0     H 6595   5.445   0.323   5.068  1.5580  0.5657  1.7670
   49MOL0     H 6596   5.578   0.222   5.107 -2.3499 -2.1056  0.0006
   49MOL0     H 6597   6.169   0.735   5.304  1.0143 -0.2669  0.5094
   49MOL0     H 6598   6.395   0.668   5.343  2.5734  0.3868  2.1898
   49MOL0     H 6599   6.696   0.625   5.533 -0.9239  4.4735 -1.5606
   49MOL0     H 6600   6.900   0.516   5.619 -0.4267 -1.7493 -0.5697
   49MOL0     H 6601   7.658   1.576   4.977  0.4201 -1.7882 -1.1551
   49MOL0     H 6602   7.902   1.520   4.949 -0.5750 -0.0225 -0.6469
   49MOL0     H 6603   8.373   1.348   5.370  3.7941  2.0268 -0.2877
   49MOL0     H 6604   8.573   1.231   5.314  1.8578  2.1536  0.1828
   49MOL0     H 6605   8.740   1.065   5.275 -1.8226 -0.7397  1.9857
   49MOL0     H 6606   8.593   0.960   5.277  0.8321 -1.0639  1.8213
   49MOL0     H 6607   8.699   0.805   5.127 -1.7556  1.6200 -2.2523
   49MOL0     H 6608   8.800   0.847   5.269 -3.2415 -2.0123 -0.0967
   49MOL0     H 6609   8.878   1.036   5.070  0.9459 -0.4051  0.5214
   49MOL0     H 6610   8.802   0.916   4.970  0.0931 -2.9158 -0.9095
   49MOL0     H 6611   9.052   0.858   4.986 -0.5670  1.2486 -0.7030
   49MOL0     H 6612   8.947   0.736   5.056 -3.0277  0.2807  0.9674
   49MOL0     H 6613   9.164   0.862   5.401  1.4386  2.2309 -0.5366
   49MOL0     H 6614   8.457   1.137   4.926  4.3077  0.5146  0.9783
   49MOL0     H 6615   8.233   1.248   4.961 -1.7007 -0.5446  1.0708
   50MOL0     O 6616   9.793   0.952   8.636  0.2625 -0.0334  0.2984
   50MOL0     C 6617   9.905   0.907   8.659 -0.4295  0.3330  0.4497
   50MOL0     O 6618   9.930   0.788   8.713 -0.2635  0.4596  0.5346
   50MOL0     C 6619   9.828   0.707   8.749 -0.2381  0.2531 -0.4390
   50MOL0     C 6620   9.817   0.586   8.680  1.0459 -0.3116  0.5542
   50MOL0     C 6621   9.728   0.490   8.718 -0.5394 -0.5334 -0.3882
   50MOL0     C 6622   9.651   0.512   8.831  0.2320 -0.1007  0.4467
   50MOL0     O 6623   9.550   0.416   8.834 -0.1405 -0.3344 -0.1807
   50MOL0     C 6624   9.446   0.453   8.927  0.4486  0.0414 -0.4226
   50MOL0     C 6625   9.344   0.332   8.910  0.3989 -0.7535  0.2610
   50MOL0     C 6626   9.241   0.347   8.795  0.0873  0.3810 -0.4875
   50MOL0     C 6627   9.115   0.425   8.831 -0.3607  0.1388  0.0391
   50MOL0     C 6628   9.028   0.464   8.717  0.4228  0.1078  0.7088
   50MOL0     C 6629   8.900   0.523   8.767  0.1756  0.0620  0.0444
   50MOL0     C 6630   8.805   0.538   8.652  0.2239 -0.3881  0.7791
   50MOL0     C 6631   8.679   0.612   8.700  0.1625 -0.6119 -0.4907
   50MOL0     N 6632   8.589   0.636   8.584 -0.0500  0.5575  0.1797
   50MOL0     C 6633   8.529   0.554   8.493 -0.6614  0.6790  0.7349
   50MOL0     C 6634   8.466   0.633   8.409  0.1059  0.4274  0.2716
   50MOL0     C 6635   8.399   0.571   8.284  0.4441 -0.1426 -0.2560
   50MOL0     C 6636   8.243   0.601   8.276 -0.2369 -0.5940 -0.0512
   50MOL0     C 6637   8.169   0.550   8.408 -0.5687  0.6927 -0.8268
   50MOL0     C 6638   8.112   0.410   8.408 -0.0991  0.4480 -0.2519
   50MOL0     O 6639   8.065   0.370   8.537 -0.1080 -0.2449 -0.1848
   50MOL0     C 6640   7.930   0.373   8.553 -0.2041 -0.0804 -1.1625
   50MOL0     C 6641   7.854   0.473   8.490 -0.6931  0.0292 -0.2089
   50MOL0     C 6642   7.715   0.479   8.503  0.7334  0.7553 -0.0152
   50MOL0     C 6643   7.654   0.581   8.412 -0.3998 -0.1875 -0.8722
   50MOL0     C 6644   7.647   0.372   8.578 -0.6433 -0.5194  0.3177
   50MOL0     C 6645   7.503   0.362   8.589  0.3153  0.4207 -0.4708
   50MOL0     O 6646   7.468   0.263   8.675  0.7200 -0.3214 -0.3495
   50MOL0     C 6647   7.338   0.249   8.708 -0.2201 -0.0738 -0.7392
   50MOL0     C 6648   7.279   0.127   8.690  0.1717  0.2367 -0.2165
   50MOL0     C 6649   7.149   0.101   8.735 -0.2039  0.0397  0.3535
   50MOL0     C 6650   7.071   0.198   8.807 -0.3757 -0.0854  0.3227
   50MOL0     O 6651   6.944   0.174   8.861  0.6755 -0.1883  0.2593
   50MOL0     C 6652   6.886   0.045   8.838  0.4842  0.3581  0.0978
   50MOL0     C 6653   6.747   0.024   8.908 -1.0642  0.3548  0.2503
   50MOL0     C 6654   6.679  -0.101   8.864  0.2441 -0.9487 -0.1431
   50MOL0     C 6655   6.554  -0.143   8.949 -0.3322 -0.1007 -0.3069
   50MOL0     C 6656   6.586  -0.256   9.046  0.1658  0.8023 -0.0439
   50MOL0     C 6657   6.712  -0.239   9.138 -0.8179  0.9286 -0.1568
   50MOL0     C 6658   6.728  -0.378   9.196 -0.6834 -0.1596  0.2408
   50MOL0     C 6659   6.846  -0.396   9.288 -0.3886  0.2547  0.0053
   50MOL0    Cl 6660   6.837  -0.273   9.415  0.5042 -0.3352 -0.0803
   50MOL0     C 6661   7.135   0.313   8.833 -1.3591 -0.2736  0.6071
   50MOL0     C 6662   7.263   0.341   8.789  0.2729 -0.5359  0.4571
   50MOL0     O 6663   7.433   0.433   8.532 -0.0529  0.2470 -0.4569
   50MOL0     C 6664   7.732   0.263   8.626 -0.0810 -0.1761 -0.9736
   50MOL0     C 6665   7.870   0.267   8.603  0.4002  0.9636  0.1513
   50MOL0     N 6666   8.479   0.764   8.446  0.1221  0.0668 -0.1954
   50MOL0     N 6667   8.554   0.763   8.551  0.4301  0.1336  0.3513
   50MOL0     C 6668   9.658   0.636   8.893 -0.4540 -0.2767  0.2073
   50MOL0     C 6669   9.753   0.727   8.863  0.3433  0.7743  0.4419
   50MOL0     C 6670  10.023   0.985   8.613 -0.2462  0.1418  0.6408
   50MOL0     C 6671  10.146   0.927   8.606  0.0872 -0.3902  0.0568
   50MOL0     C 6672  10.255   0.996   8.561 -0.2720 -0.1351 -0.0491
   50MOL0     C 6673  10.246   1.135   8.530 -0.1019  0.2696 -0.2393
   50MOL0     O 6674  10.349   1.217   8.509 -0.3572 -0.2207  0.2240
   50MOL0     C 6675  10.483   1.164   8.513 -0.0399  0.5457 -0.1073
   50MOL0     C 6676  10.586   1.257   8.451 -0.2549 -0.5742  0.2051
   50MOL0     C 6677  10.617   1.382   8.534  0.2974  1.1042 -0.9348
   50MOL0     C 6678  10.510   1.486   8.546 -1.2884  0.5320 -0.7493
   50MOL0     C 6679  10.467   1.551   8.423 -0.7018  0.1342  0.9316
   50MOL0     C 6680  10.441   1.621   8.324  0.0413 -0.0631 -0.4092
   50MOL0     C 6681  10.122   1.197   8.531 -0.8148 -0.5059 -0.5436
   50MOL0     C 6682  10.011   1.111   8.568  0.9212 -0.0107 -0.2855
   50MOL0     H 6683   9.876   0.570   8.591  1.7094 -0.6990  1.0574
   50MOL0     H 6684   9.709   0.398   8.664  0.1831 -1.1637  0.3982
   50MOL0     H 6685   9.496   0.459   9.024  0.0603  0.8323 -0.2639
   50MOL0     H 6686   9.397   0.547   8.900 -1.1491 -0.4032  0.7665
   50MOL0     H 6687   9.402   0.240   8.899  2.4361  0.3102  1.4860
   50MOL0     H 6688   9.295   0.326   9.008  1.3475 -1.6664  0.7076
   50MOL0     H 6689   9.290   0.403   8.716  2.0891  0.7920  0.9780
   50MOL0     H 6690   9.211   0.244   8.770 -1.2156  0.4898  0.4900
   50MOL0     H 6691   9.075   0.359   8.908 -0.0078 -5.8481 -4.2687
   50MOL0     H 6692   9.157   0.517   8.875  3.8024 -0.4898 -2.1149
   50MOL0     H 6693   9.086   0.531   8.654  0.8296  0.0542  1.0217
   50MOL0     H 6694   8.999   0.377   8.657  0.8119 -0.8900  1.9063
   50MOL0     H 6695   8.870   0.449   8.841  3.4039 -1.1263  0.3428
   50MOL0     H 6696   8.913   0.622   8.812  0.9545 -0.4647  1.0000
   50MOL0     H 6697   8.854   0.588   8.569  1.2520  0.0998  1.6468
   50MOL0     H 6698   8.773   0.436   8.627  1.2766  0.0350 -2.8513
   50MOL0     H 6699   8.707   0.709   8.741 -1.1912 -0.3785 -0.0560
   50MOL0     H 6700   8.625   0.548   8.771  0.1339 -0.3446 -0.2696
   50MOL0     H 6701   8.542   0.447   8.486  2.4290  1.0188 -0.1261
   50MOL0     H 6702   8.448   0.611   8.195 -1.9217  1.3806 -0.9599
   50MOL0     H 6703   8.413   0.463   8.281 -0.5698 -0.2655 -0.8594
   50MOL0     H 6704   8.196   0.563   8.185 -0.9615 -0.2525  0.1689
   50MOL0     H 6705   8.231   0.710   8.282  1.9179 -0.2708 -0.6442
   50MOL0     H 6706   8.084   0.619   8.415 -0.0958  1.1325  0.9625
   50MOL0     H 6707   8.230   0.561   8.497 -3.5140 -1.2250  1.6458
   50MOL0     H 6708   8.186   0.341   8.366 -0.9319  1.1874 -3.1089
   50MOL0     H 6709   8.025   0.396   8.343 -2.1002 -0.5812  2.4528
   50MOL0     H 6710   7.902   0.552   8.434  2.1359  0.7587  2.9392
   50MOL0     H 6711   7.646   0.529   8.317  0.8749  0.3550 -1.3007
   50MOL0     H 6712   7.554   0.609   8.448 -0.3354 -0.1509 -0.7213
   50MOL0     H 6713   7.718   0.668   8.392 -0.5237 -0.5563 -3.1247
   50MOL0     H 6714   7.322   0.051   8.624  1.5398  1.4984 -0.8403
   50MOL0     H 6715   7.114  -0.001   8.722 -0.4657  0.0424  1.0096
   50MOL0     H 6716   6.873   0.033   8.730 -0.4812  1.7506  0.0453
   50MOL0     H 6717   6.944  -0.037   8.883  1.8461  0.9236 -0.5790
   50MOL0     H 6718   6.768   0.021   9.015  1.5682  3.7901  0.0015
   50MOL0     H 6719   6.685   0.114   8.895 -0.1320  0.6819 -2.4529
   50MOL0     H 6720   6.743  -0.188   8.847 -0.0575 -1.6313  1.9931
   50MOL0     H 6721   6.638  -0.088   8.763 -0.1891  2.4323  0.3490
   50MOL0     H 6722   6.519  -0.055   9.005  1.2113 -0.7431  1.7813
   50MOL0     H 6723   6.483  -0.184   8.877 -0.6294  0.1207 -0.1452
   50MOL0     H 6724   6.588  -0.347   8.986 -0.2221  1.4015 -0.9795
   50MOL0     H 6725   6.499  -0.275   9.111  0.2716 -1.1913 -0.4193
   50MOL0     H 6726   6.797  -0.206   9.079 -0.5643  2.1499  0.8364
   50MOL0     H 6727   6.696  -0.167   9.219 -2.6462  0.6830 -0.2492
   50MOL0     H 6728   6.750  -0.452   9.118  3.8075 -0.7180  1.7220
   50MOL0     H 6729   6.646  -0.405   9.263  1.0306 -1.7532  1.8126
   50MOL0     H 6730   6.942  -0.387   9.237  0.0318  3.9831  1.1056
   50MOL0     H 6731   6.852  -0.492   9.340 -0.1920  1.7189  2.9013
   50MOL0     H 6732   7.084   0.390   8.889 -1.4233 -0.5152  0.8812
   50MOL0     H 6733   7.308   0.429   8.834 -3.6931  2.5840 -1.1033
   50MOL0     H 6734   7.685   0.182   8.680 -0.2249  0.2032 -0.5287
   50MOL0     H 6735   7.932   0.182   8.629  1.7397  1.3179 -1.6655
   50MOL0     H 6736   9.598   0.685   8.969 -0.8659  4.5399 -2.7856
   50MOL0     H 6737   9.765   0.814   8.927  0.2083  1.0418  0.1045
   50MOL0     H 6738  10.162   0.827   8.643 -1.0718  0.0047  1.7808
   50MOL0     H 6739  10.354   0.953   8.573 -0.6032 -1.0167 -0.3329
   50MOL0     H 6740  10.512   1.134   8.614 -1.8148  2.0608  0.9421
   50MOL0     H 6741  10.481   1.075   8.450 -0.0544  0.7647 -0.4213
   50MOL0     H 6742  10.559   1.285   8.349  0.3870 -0.4689  0.0665
   50MOL0     H 6743  10.675   1.196   8.439  0.0737  0.3652 -3.2041
   50MOL0     H 6744  10.704   1.439   8.499  3.3732 -0.8199  2.8244
   50MOL0     H 6745  10.642   1.356   8.637 -1.0479  1.9197 -0.3668
   50MOL0     H 6746  10.559   1.561   8.609  2.2999  0.2123 -2.8886
   50MOL0     H 6747  10.423   1.452   8.603 -3.4949  2.6322 -2.7061
   50MOL0     H 6748  10.403   1.662   8.232 -1.6375 -0.0179  0.2670
   50MOL0     H 6749  10.114   1.305   8.524 -0.9110  0.1987  5.2884
   50MOL0     H 6750   9.915   1.161   8.566  0.1988 -1.3329 -0.0876
   51MOL0     O 6751   9.837   7.292   8.086 -0.4680 -0.2820 -0.2754
   51MOL0     C 6752   9.791   7.287   8.204  0.4677  1.0093 -0.7796
   51MOL0     O 6753   9.863   7.312   8.321  0.4425  0.2704  0.6096
   51MOL0     C 6754   9.993   7.305   8.304 -0.5466  0.2687  0.0809
   51MOL0     C 6755  10.071   7.420   8.317 -0.6332  0.3521 -0.4930
   51MOL0     C 6756  10.207   7.410   8.300  1.0343 -0.0337  0.1356
   51MOL0     C 6757  10.271   7.291   8.250  0.1000 -0.7414  0.5414
   51MOL0     O 6758  10.402   7.292   8.213 -0.5933  0.2227  0.3450
   51MOL0     C 6759  10.453   7.197   8.107 -0.4419 -0.3872  0.2287
   51MOL0     C 6760  10.588   7.243   8.057  0.7307  0.0049  0.2669
   51MOL0     C 6761  10.656   7.130   7.973  0.1237 -0.0569 -0.3816
   51MOL0     C 6762  10.806   7.125   8.022  0.1339 -0.1730  0.5308
   51MOL0     C 6763  10.820   7.041   8.141  0.4826 -0.2387 -0.4203
   51MOL0     C 6764  10.812   6.891   8.122 -0.2450  0.7879  0.2416
   51MOL0     C 6765  10.897   6.818   8.012  0.3104  0.1342 -0.5948
   51MOL0     C 6766  11.049   6.848   8.017  0.3789  0.1344 -1.1773
   51MOL0     N 6767  11.102   6.773   7.908 -0.7987 -0.7403  0.5636
   51MOL0     C 6768  11.159   6.652   7.917  1.2460 -0.1227 -0.6228
   51MOL0     C 6769  11.163   6.599   7.788 -0.0350 -0.4357 -0.0315
   51MOL0     C 6770  11.197   6.455   7.737 -0.2520 -0.3481  0.1963
   51MOL0     C 6771  11.066   6.376   7.718  0.0956  0.3424  0.0858
   51MOL0     C 6772  10.997   6.425   7.593  0.7134  1.0781 -0.3509
   51MOL0     C 6773  10.848   6.376   7.586 -0.8323 -0.2965 -0.3439
   51MOL0     O 6774  10.787   6.411   7.712  0.1372  0.2686  0.2524
   51MOL0     C 6775  10.651   6.411   7.731  0.0612  0.2201  0.4522
   51MOL0     C 6776  10.607   6.518   7.809  0.3334 -0.3433 -0.2070
   51MOL0     C 6777  10.474   6.520   7.849 -0.4320 -0.0096  0.6890
   51MOL0     C 6778  10.433   6.621   7.954 -0.3406  0.7139 -0.0311
   51MOL0     C 6779  10.378   6.427   7.795  0.3273 -0.2071 -0.2892
   51MOL0     C 6780  10.233   6.419   7.830 -0.0557  0.5492  0.3413
   51MOL0     O 6781  10.162   6.395   7.716  0.5333 -0.2245  0.2261
   51MOL0     C 6782  10.026   6.417   7.725  0.1519 -0.3595 -0.5199
   51MOL0     C 6783   9.939   6.312   7.742  0.1918  0.0186  0.8576
   51MOL0     C 6784   9.807   6.329   7.738  0.4125 -0.5721 -1.4612
   51MOL0     C 6785   9.753   6.453   7.743  0.4799 -1.1468  0.0495
   51MOL0     O 6786   9.618   6.466   7.775  0.1861 -0.0142  0.2216
   51MOL0     C 6787   9.541   6.461   7.649  0.2083 -0.8235  0.5229
   51MOL0     C 6788   9.406   6.528   7.686  0.1619 -1.0917  0.7904
   51MOL0     C 6789   9.297   6.524   7.563  0.6009 -0.0231 -0.9310
   51MOL0     C 6790   9.252   6.377   7.524 -0.2131  0.5206 -0.1581
   51MOL0     C 6791   9.110   6.366   7.460 -0.2768  0.0808 -0.8677
   51MOL0     C 6792   9.091   6.231   7.398 -0.1538 -0.3467  0.1494
   51MOL0     C 6793   8.948   6.185   7.424  0.0769 -0.7227  1.0585
   51MOL0     C 6794   8.926   6.049   7.360  0.0509 -0.3223  0.6451
   51MOL0    Cl 6795   8.972   5.935   7.486 -0.3620 -0.0638 -0.4335
   51MOL0     C 6796   9.835   6.564   7.720 -0.1400  0.3957 -0.0682
   51MOL0     C 6797   9.974   6.545   7.708  0.1406 -0.3180  0.3121
   51MOL0     O 6798  10.188   6.428   7.949 -0.5789  0.1683  0.1069
   51MOL0     C 6799  10.426   6.342   7.695  0.0378  1.2177  0.3175
   51MOL0     C 6800  10.558   6.332   7.664 -0.3339  0.9117  0.2846
   51MOL0     N 6801  11.128   6.707   7.714 -1.4088  0.3022 -0.2697
   51MOL0     N 6802  11.097   6.813   7.777  0.4254  0.0146 -0.2854
   51MOL0     C 6803  10.191   7.175   8.229 -0.1652 -0.5569 -0.0556
   51MOL0     C 6804  10.053   7.185   8.259  0.9500 -0.8048  0.2845
   51MOL0     C 6805   9.643   7.270   8.226 -0.1626  0.7426 -0.3486
   51MOL0     C 6806   9.585   7.271   8.352  0.7357 -0.3464  0.4290
   51MOL0     C 6807   9.447   7.270   8.377  0.3313 -0.7498  0.0501
   51MOL0     C 6808   9.358   7.257   8.275  0.1819 -0.4712  0.5305
   51MOL0     O 6809   9.229   7.250   8.311  0.4590 -0.0310 -0.2938
   51MOL0     C 6810   9.141   7.178   8.226  1.1632  0.3218 -0.1687
   51MOL0     C 6811   9.072   7.284   8.131  0.5179 -0.3216  1.0622
   51MOL0     C 6812   8.951   7.211   8.061 -0.6938 -0.0597  0.1146
   51MOL0     C 6813   8.846   7.207   8.155 -0.5175  0.0170  0.5620
   51MOL0     C 6814   8.730   7.137   8.093 -1.0524 -0.0177  1.1474
   51MOL0     C 6815   8.628   7.098   8.049 -0.1173  0.7512 -0.3096
   51MOL0     C 6816   9.405   7.234   8.143  1.1181  1.7065 -0.1709
   51MOL0     C 6817   9.542   7.243   8.126  0.4234 -0.8628  0.1662
   51MOL0     H 6818  10.025   7.516   8.340 -0.6035 -0.0866  1.5560
   51MOL0     H 6819  10.273   7.496   8.296  0.6582  0.2080 -1.4415
   51MOL0     H 6820  10.447   7.093   8.141 -0.5599 -1.7240 -3.4671
   51MOL0     H 6821  10.389   7.213   8.019 -0.7535 -2.8525 -0.0604
   51MOL0     H 6822  10.591   7.338   8.004  0.8250 -0.9289 -1.4732
   51MOL0     H 6823  10.644   7.251   8.151 -1.5988 -1.2048  1.8606
   51MOL0     H 6824  10.594   7.040   7.979 -0.0174  0.0686  0.1005
   51MOL0     H 6825  10.635   7.163   7.871 -1.8196  2.1421  0.6053
   51MOL0     H 6826  10.869   7.102   7.935 -0.5176  3.0619 -0.9463
   51MOL0     H 6827  10.846   7.223   8.050  0.9578  0.4880 -2.5751
   51MOL0     H 6828  10.910   7.059   8.200  0.6262 -0.5213 -0.5479
   51MOL0     H 6829  10.737   7.069   8.206  1.7954 -1.0765  1.6951
   51MOL0     H 6830  10.824   6.836   8.216 -1.4216  0.5333  0.2598
   51MOL0     H 6831  10.708   6.868   8.098  0.0606 -0.6072  0.1880
   51MOL0     H 6832  10.895   6.710   8.027  1.1783  0.4706  2.8341
   51MOL0     H 6833  10.858   6.846   7.914 -1.2251 -2.0373 -0.6772
   51MOL0     H 6834  11.097   6.821   8.112 -1.8256  0.5955  0.1410
   51MOL0     H 6835  11.058   6.955   7.997  2.7633  0.2890  0.3177
   51MOL0     H 6836  11.162   6.603   8.013 -4.3351  3.4471  1.9308
   51MOL0     H 6837  11.256   6.471   7.646 -2.5444  0.7697 -1.1863
   51MOL0     H 6838  11.271   6.404   7.799  0.3848  0.7090  0.3296
   51MOL0     H 6839  10.999   6.380   7.804  0.5364  1.9780  0.3937
   51MOL0     H 6840  11.086   6.272   7.692  3.7692  0.5883  1.3768
   51MOL0     H 6841  11.051   6.399   7.501 -2.4061 -2.0131 -1.5198
   51MOL0     H 6842  10.992   6.533   7.613  0.2000  0.7692  1.3364
   51MOL0     H 6843  10.840   6.271   7.554  1.3392 -0.2491 -1.2586
   51MOL0     H 6844  10.799   6.434   7.508  1.9954  1.2379 -1.1069
   51MOL0     H 6845  10.681   6.594   7.831  1.3335 -0.8786 -1.5677
   51MOL0     H 6846  10.335   6.657   7.920 -0.8265 -1.1039 -0.6444
   51MOL0     H 6847  10.421   6.576   8.052  0.9165 -1.0838 -0.6491
   51MOL0     H 6848  10.505   6.704   7.957  3.5129 -2.2497 -1.5586
   51MOL0     H 6849   9.982   6.216   7.768  3.5778 -0.3577 -4.5257
   51MOL0     H 6850   9.744   6.241   7.750  1.9077 -1.3565  1.6521
   51MOL0     H 6851   9.591   6.513   7.567  0.8663 -2.3772 -0.1151
   51MOL0     H 6852   9.527   6.355   7.625  0.9801 -1.0874  1.1964
   51MOL0     H 6853   9.374   6.463   7.768 -0.9644 -0.5233  0.8186
   51MOL0     H 6854   9.429   6.633   7.707  2.0115 -0.9335 -1.5685
   51MOL0     H 6855   9.334   6.587   7.481  1.6102 -0.6888 -1.0123
   51MOL0     H 6856   9.208   6.577   7.597 -0.4736 -2.2769  0.0217
   51MOL0     H 6857   9.332   6.330   7.467  2.7783  1.8350  2.6632
   51MOL0     H 6858   9.246   6.322   7.618 -1.3801 -1.4482 -1.3131
   51MOL0     H 6859   9.093   6.444   7.385  0.3903 -0.3051 -1.4424
   51MOL0     H 6860   9.036   6.388   7.537 -2.3405  0.5096 -2.8715
   51MOL0     H 6861   9.092   6.246   7.290  1.3578 -1.4803 -0.0268
   51MOL0     H 6862   9.169   6.160   7.426  1.3934  0.5100 -1.7763
   51MOL0     H 6863   8.884   6.261   7.378 -2.3551 -2.2510  1.7719
   51MOL0     H 6864   8.923   6.176   7.530  1.6402 -2.8798  1.3091
   51MOL0     H 6865   8.979   6.037   7.265  2.0438  2.0119  1.3580
   51MOL0     H 6866   8.819   6.038   7.339  0.4367 -0.8072 -1.3237
   51MOL0     H 6867   9.792   6.663   7.737  2.2550  1.7501 -1.3076
   51MOL0     H 6868  10.040   6.630   7.697 -2.0371  1.3754 -0.1878
   51MOL0     H 6869  10.363   6.267   7.649  0.9978  0.4823  0.1789
   51MOL0     H 6870  10.599   6.262   7.592  0.6969  3.1354 -1.4237
   51MOL0     H 6871  10.234   7.091   8.176 -2.2581 -1.2289 -0.8141
   51MOL0     H 6872   9.992   7.095   8.253  2.5867 -2.1310  2.0802
   51MOL0     H 6873   9.650   7.275   8.439 -0.5104  0.8575  1.3397
   51MOL0     H 6874   9.399   7.280   8.474 -1.1163 -0.5773 -0.6587
   51MOL0     H 6875   9.194   7.099   8.171  3.8863  1.7874  0.1555
   51MOL0     H 6876   9.074   7.123   8.292  2.9720 -0.8300  0.7892
   51MOL0     H 6877   9.149   7.323   8.064  0.7947 -1.5108  0.6671
   51MOL0     H 6878   9.025   7.372   8.175  0.6221  1.9394 -2.9209
   51MOL0     H 6879   8.984   7.108   8.046  1.6461  0.6517  0.0064
   51MOL0     H 6880   8.915   7.257   7.969  1.3880 -1.3099 -1.4074
   51MOL0     H 6881   8.803   7.300   8.192  0.1502  1.0387 -1.1395
   51MOL0     H 6882   8.875   7.145   8.241  1.4240 -0.2152 -0.2153
   51MOL0     H 6883   8.530   7.067   8.019  0.4056 -1.2298 -0.1094
   51MOL0     H 6884   9.344   7.217   8.055  0.8512 -0.4889  0.3828
   51MOL0     H 6885   9.575   7.242   8.023 -0.8524 -2.8172 -0.2748
   52MOL0     O 6886   2.724   2.546   1.968  0.0155 -0.0088  0.2739
   52MOL0     C 6887   2.765   2.425   1.972 -0.5417  0.7597 -0.4004
   52MOL0     O 6888   2.809   2.346   1.866 -0.7777 -0.1616  0.0717
   52MOL0     C 6889   2.840   2.415   1.756 -0.5980 -0.1981 -0.0195
   52MOL0     C 6890   2.743   2.439   1.653  0.0586  0.4335  0.4514
   52MOL0     C 6891   2.768   2.534   1.557 -0.1415 -0.5178 -0.0685
   52MOL0     C 6892   2.904   2.586   1.528  0.3061 -0.1545  0.0624
   52MOL0     O 6893   2.941   2.666   1.427  0.0598 -1.0709  0.0625
   52MOL0     C 6894   2.867   2.675   1.308  0.9891 -0.2679  0.5336
   52MOL0     C 6895   2.913   2.798   1.228 -0.5951 -0.6144  0.6704
   52MOL0     C 6896   3.048   2.774   1.178 -0.8932  0.7776 -0.5927
   52MOL0     C 6897   3.107   2.884   1.089  0.2762 -0.0621  0.0711
   52MOL0     C 6898   3.225   2.837   1.000 -0.1935 -0.6068  0.2111
   52MOL0     C 6899   3.362   2.865   1.047  0.3672 -0.5745 -0.5971
   52MOL0     C 6900   3.469   2.809   0.950  0.4470  0.0199 -0.2165
   52MOL0     C 6901   3.610   2.845   0.976 -0.8622  0.3618 -0.0827
   52MOL0     N 6902   3.658   2.782   1.088  0.4802 -0.6435  0.3692
   52MOL0     C 6903   3.714   2.660   1.085  0.3970 -0.3439 -0.0290
   52MOL0     C 6904   3.782   2.655   1.203  0.3227  0.1796 -0.0350
   52MOL0     C 6905   3.857   2.542   1.254  0.0523 -0.5646 -0.2058
   52MOL0     C 6906   3.984   2.505   1.182 -1.2194 -0.0524  0.6892
   52MOL0     C 6907   4.091   2.617   1.162 -0.2738 -1.0760 -0.1177
   52MOL0     C 6908   4.237   2.566   1.135  0.2901  0.7127  0.3615
   52MOL0     O 6909   4.222   2.475   1.029 -0.1967  0.0223  0.1382
   52MOL0     C 6910   4.317   2.443   0.946  0.1969  0.0619 -0.3984
   52MOL0     C 6911   4.450   2.485   0.951  0.0608 -0.6383  0.2774
   52MOL0     C 6912   4.539   2.458   0.838 -0.1054  0.1352 -0.6410
   52MOL0     C 6913   4.687   2.515   0.854  0.6835 -0.0653  0.0550
   52MOL0     C 6914   4.486   2.374   0.736 -0.2980  0.3419  0.6235
   52MOL0     C 6915   4.574   2.338   0.617 -0.2261 -0.0204  0.7808
   52MOL0     O 6916   4.521   2.239   0.540 -0.9903 -0.5297  0.3700
   52MOL0     C 6917   4.600   2.185   0.442  0.8789 -0.2580  0.6429
   52MOL0     C 6918   4.627   2.249   0.320  0.8684  0.1129 -0.8783
   52MOL0     C 6919   4.692   2.183   0.219  0.1454 -0.0244  0.3346
   52MOL0     C 6920   4.709   2.048   0.234 -1.2160  0.2245  0.1272
   52MOL0     O 6921   4.789   1.990   0.139 -0.1680  0.5372  0.5239
   52MOL0     C 6922   4.719   1.876   0.085 -0.0982  0.9357 -0.2271
   52MOL0     C 6923   4.758   1.854  -0.057  0.4215 -0.7072  0.4255
   52MOL0     C 6924   4.904   1.832  -0.070  0.4165  0.3893 -0.9957
   52MOL0     C 6925   4.964   1.871  -0.209  0.8823 -0.2814  0.1264
   52MOL0     C 6926   5.115   1.850  -0.203  0.2148  0.3873 -0.2144
   52MOL0     C 6927   5.167   1.837  -0.351 -0.5593  0.7289 -0.8056
   52MOL0     C 6928   5.198   1.979  -0.409 -0.1251 -0.4724  0.4313
   52MOL0     C 6929   5.272   1.954  -0.541 -0.2441 -0.3391  0.1430
   52MOL0    Cl 6930   5.148   1.891  -0.659 -0.4925  0.3886 -0.2799
   52MOL0     C 6931   4.681   1.977   0.352 -0.6555  0.6054  1.6767
   52MOL0     C 6932   4.627   2.044   0.456  0.7529  0.3339  0.4426
   52MOL0     O 6933   4.685   2.384   0.610  0.4822 -0.0941  0.4580
   52MOL0     C 6934   4.349   2.348   0.721  0.0672  0.5102 -0.3001
   52MOL0     C 6935   4.261   2.387   0.829 -0.9563  0.9265  0.3836
   52MOL0     N 6936   3.774   2.779   1.260  0.2101 -0.7622  0.2459
   52MOL0     N 6937   3.698   2.863   1.194 -0.7767  1.0538 -0.1357
   52MOL0     C 6938   3.002   2.543   1.622  0.7755  0.2316 -0.4720
   52MOL0     C 6939   2.968   2.469   1.737  0.3953  0.0798  0.1817
   52MOL0     C 6940   2.737   2.353   2.107  0.1842  0.4254 -0.2798
   52MOL0     C 6941   2.734   2.217   2.132  1.6530  0.0128 -0.5313
   52MOL0     C 6942   2.692   2.164   2.255 -0.7376  0.1518  0.9937
   52MOL0     C 6943   2.649   2.243   2.358 -0.3303 -1.1756  0.6823
   52MOL0     O 6944   2.612   2.194   2.483 -0.4004  0.0235 -0.4926
   52MOL0     C 6945   2.660   2.060   2.513 -1.1091 -1.0115 -0.8620
   52MOL0     C 6946   2.812   2.056   2.537  0.4675  0.9534  0.3016
   52MOL0     C 6947   2.868   2.144   2.651  0.2876  0.0066 -0.6713
   52MOL0     C 6948   3.015   2.144   2.677 -0.7012  0.2109 -0.0488
   52MOL0     C 6949   3.073   2.004   2.705 -0.9264 -0.2562 -0.7898
   52MOL0     C 6950   3.107   1.893   2.739 -0.5821  0.5974 -0.2542
   52MOL0     C 6951   2.660   2.379   2.336  0.6962  0.2823  0.6395
   52MOL0     C 6952   2.705   2.435   2.219 -0.4507 -0.3659  0.5690
   52MOL0     H 6953   2.651   2.385   1.673  2.0808 -2.6119  2.3284
   52MOL0     H 6954   2.697   2.538   1.476  1.8102  0.3906 -1.8104
   52MOL0     H 6955   2.867   2.590   1.239 -2.5822 -0.7993  0.9991
   52MOL0     H 6956   2.762   2.696   1.333 -0.1886 -4.0526 -0.4785
   52MOL0     H 6957   2.848   2.812   1.142  1.5223 -3.1553 -1.5352
   52MOL0     H 6958   2.896   2.882   1.296  0.0060 -1.7408  2.2739
   52MOL0     H 6959   3.122   2.743   1.252 -1.2769  1.7404  0.2268
   52MOL0     H 6960   3.045   2.683   1.118  1.5820 -0.8025  1.4749
   52MOL0     H 6961   3.024   2.927   1.033 -0.9036  2.3023  3.3248
   52MOL0     H 6962   3.151   2.964   1.150 -0.2005 -0.6008  1.1545
   52MOL0     H 6963   3.211   2.733   0.968 -1.1487 -1.1528  2.2065
   52MOL0     H 6964   3.217   2.884   0.902 -1.2209 -0.6816  0.2430
   52MOL0     H 6965   3.382   2.972   1.057  0.4553 -0.6264 -0.2310
   52MOL0     H 6966   3.384   2.814   1.141  0.3466 -2.7385 -1.7004
   52MOL0     H 6967   3.448   2.703   0.932 -2.5623  0.5843 -0.6194
   52MOL0     H 6968   3.447   2.854   0.852  1.0792 -0.0691 -0.4052
   52MOL0     H 6969   3.626   2.953   0.989  1.4072  0.0468  0.1151
   52MOL0     H 6970   3.679   2.822   0.894 -2.7188  0.3990 -1.7271
   52MOL0     H 6971   3.708   2.588   1.004 -1.7208 -0.1263 -0.1207
   52MOL0     H 6972   3.873   2.563   1.360 -0.4029  3.6074 -0.7906
   52MOL0     H 6973   3.797   2.451   1.242  1.8642 -1.7292 -0.8666
   52MOL0     H 6974   3.975   2.455   1.085  1.3771  2.7664 -1.1992
   52MOL0     H 6975   4.028   2.436   1.255 -2.2093 -2.1998 -0.6421
   52MOL0     H 6976   4.089   2.686   1.246 -0.4944  2.4306 -2.7967
   52MOL0     H 6977   4.065   2.677   1.074  0.6125 -0.8244 -0.2248
   52MOL0     H 6978   4.278   2.524   1.227  1.2322 -0.6711 -0.6613
   52MOL0     H 6979   4.286   2.658   1.103 -0.9607  1.4801  0.5707
   52MOL0     H 6980   4.493   2.530   1.040  1.0237 -1.8526  0.4520
   52MOL0     H 6981   4.707   2.555   0.954 -1.8723  0.0397  0.5973
   52MOL0     H 6982   4.757   2.430   0.857  0.2001 -0.5058 -0.6987
   52MOL0     H 6983   4.714   2.587   0.777  1.5641 -0.6778 -0.2266
   52MOL0     H 6984   4.592   2.351   0.308  0.3145 -0.0494 -0.6810
   52MOL0     H 6985   4.723   2.226   0.124 -2.2010 -1.1776 -1.0475
   52MOL0     H 6986   4.736   1.779   0.134 -1.0307 -0.7793 -3.0574
   52MOL0     H 6987   4.614   1.898   0.064 -0.0867 -1.1473 -3.0097
   52MOL0     H 6988   4.703   1.769  -0.099 -1.6683  1.5756 -1.7786
   52MOL0     H 6989   4.745   1.940  -0.123  4.5588 -1.0966 -1.2539
   52MOL0     H 6990   4.919   1.724  -0.071 -1.6762  0.0471 -1.7633
   52MOL0     H 6991   4.969   1.874   0.007  0.5165  1.4341 -1.6255
   52MOL0     H 6992   4.924   1.804  -0.286  1.0099  0.0144 -0.1992
   52MOL0     H 6993   4.941   1.976  -0.228  1.3257  0.2096  2.0560
   52MOL0     H 6994   5.140   1.760  -0.146 -0.4003  2.2071  3.2350
   52MOL0     H 6995   5.162   1.939  -0.159  1.4362 -0.5432  0.4331
   52MOL0     H 6996   5.257   1.774  -0.348 -2.7417 -2.6474 -1.2175
   52MOL0     H 6997   5.108   1.779  -0.423 -0.4156  3.3804 -3.2502
   52MOL0     H 6998   5.264   2.040  -0.348  0.2161  2.5213 -2.6255
   52MOL0     H 6999   5.109   2.041  -0.420  1.8370  2.3163 -1.0331
   52MOL0     H 7000   5.346   1.875  -0.524  2.0316  1.6155 -0.0580
   52MOL0     H 7001   5.322   2.047  -0.571 -1.0289  0.5672  1.5407
   52MOL0     H 7002   4.694   1.870   0.349  2.8538  0.9483 -0.7853
   52MOL0     H 7003   4.615   2.001   0.555  1.4333  0.3938  0.5573
   52MOL0     H 7004   4.300   2.309   0.632  2.0067 -0.9214 -0.8143
   52MOL0     H 7005   4.155   2.374   0.811 -0.3805 -1.2355 -2.0811
   52MOL0     H 7006   3.108   2.566   1.609  1.4393 -1.5250  1.3060
   52MOL0     H 7007   3.051   2.467   1.806  2.3247  0.4837 -2.0173
   52MOL0     H 7008   2.750   2.141   2.057  2.1453 -1.4301  0.9834
   52MOL0     H 7009   2.710   2.057   2.254 -1.7428 -0.0632 -1.2866
   52MOL0     H 7010   2.633   2.038   2.617  1.3628 -3.0344 -0.5544
   52MOL0     H 7011   2.633   1.985   2.439 -2.5673  0.5362 -1.9773
   52MOL0     H 7012   2.849   2.093   2.441 -1.4156  1.2202 -0.3636
   52MOL0     H 7013   2.850   1.953   2.547 -0.8400  0.4066 -0.1174
   52MOL0     H 7014   2.816   2.110   2.741  1.1982  1.0919  0.3020
   52MOL0     H 7015   2.846   2.250   2.635 -2.0349 -0.4553 -0.8949
   52MOL0     H 7016   3.055   2.211   2.754  3.3293  1.3805 -2.8318
   52MOL0     H 7017   3.060   2.160   2.578 -3.2173  0.8461 -1.1620
   52MOL0     H 7018   3.126   1.791   2.762  1.1144  1.0929  0.6509
   52MOL0     H 7019   2.635   2.437   2.425  2.3432 -0.1708  1.4352
   52MOL0     H 7020   2.709   2.543   2.208 -3.1525 -0.4796 -4.2187
   53MOL0     O 7021   4.964   4.198   5.310 -0.3696  0.8637 -0.1650
   53MOL0     C 7022   4.973   4.277   5.400 -0.8488  0.3303 -0.2451
   53MOL0     O 7023   4.867   4.339   5.456 -0.8737 -0.2059 -0.5945
   53MOL0     C 7024   4.737   4.294   5.429  1.3567  0.3058  1.2186
   53MOL0     C 7025   4.646   4.379   5.379 -0.1277 -0.6982 -0.6174
   53MOL0     C 7026   4.514   4.332   5.356 -0.3678 -0.4941 -0.1257
   53MOL0     C 7027   4.467   4.204   5.387  0.2679  1.0289  0.1153
   53MOL0     O 7028   4.337   4.172   5.372  0.7742  0.2188 -0.4324
   53MOL0     C 7029   4.298   4.038   5.356  0.1704  0.2160 -1.1196
   53MOL0     C 7030   4.141   4.038   5.331  0.5456  0.3069 -0.6753
   53MOL0     C 7031   4.073   4.074   5.463  0.0516  0.9106  0.0729
   53MOL0     C 7032   3.927   4.053   5.437  0.5031  0.5868 -0.3435
   53MOL0     C 7033   3.849   4.130   5.540  0.3193  0.8775  0.5800
   53MOL0     C 7034   3.703   4.089   5.516 -0.0585  0.4163  0.1455
   53MOL0     C 7035   3.604   4.165   5.617 -0.2142  0.1724  1.2235
   53MOL0     C 7036   3.459   4.140   5.569 -1.1240  0.5633 -0.1578
   53MOL0     N 7037   3.372   4.169   5.680  0.1207 -0.5333 -0.3549
   53MOL0     C 7038   3.320   4.076   5.765  0.1031  0.0449  0.2409
   53MOL0     C 7039   3.247   4.145   5.862 -0.2543  0.1556 -0.6986
   53MOL0     C 7040   3.166   4.088   5.978  0.7744  0.2205  0.1692
   53MOL0     C 7041   3.018   4.082   5.938  0.2040 -0.7670  1.0835
   53MOL0     C 7042   2.931   4.031   6.050 -0.0297  0.5241  0.8722
   53MOL0     C 7043   2.786   4.006   5.998  0.9075 -0.1024 -0.3390
   53MOL0     O 7044   2.715   3.936   6.111 -0.5544 -0.1607 -0.5534
   53MOL0     C 7045   2.581   3.911   6.090  0.7579 -0.7793 -0.4909
   53MOL0     C 7046   2.511   3.863   6.196  0.1316  0.8630  0.8123
   53MOL0     C 7047   2.372   3.837   6.196 -1.1181 -0.0402  0.0437
   53MOL0     C 7048   2.321   3.779   6.327 -1.4458  0.2864 -0.3876
   53MOL0     C 7049   2.293   3.852   6.076  0.1192  0.9841  0.0756
   53MOL0     C 7050   2.164   3.801   6.056  0.3402  0.1063 -0.4412
   53MOL0     O 7051   2.096   3.845   5.951  0.3918  0.2573  0.2739
   53MOL0     C 7052   1.968   3.813   5.921  0.3271  0.7509 -0.4912
   53MOL0     C 7053   1.887   3.709   5.970 -0.2035 -0.2012 -0.2264
   53MOL0     C 7054   1.756   3.702   5.924 -0.9391  0.1872 -0.1691
   53MOL0     C 7055   1.698   3.795   5.834  1.3098  0.7874  1.0433
   53MOL0     O 7056   1.568   3.766   5.804 -0.0670  0.0552  0.3457
   53MOL0     C 7057   1.508   3.825   5.687  0.4720 -0.7762 -0.1006
   53MOL0     C 7058   1.387   3.753   5.648 -0.0053  0.0707  0.0584
   53MOL0     C 7059   1.269   3.772   5.749  0.1248 -0.2442 -0.4583
   53MOL0     C 7060   1.150   3.695   5.693 -0.1708 -0.2194  0.3915
   53MOL0     C 7061   1.026   3.698   5.793  1.3196 -0.2004  0.8330
   53MOL0     C 7062   0.909   3.616   5.729  0.6093  0.3916  0.5484
   53MOL0     C 7063   0.795   3.584   5.825  1.6377 -0.1544  0.0626
   53MOL0     C 7064   0.716   3.716   5.861  0.7223  0.2443 -0.0487
   53MOL0    Cl 7065   0.576   3.672   5.977 -0.0555 -0.0797 -0.1583
   53MOL0     C 7066   1.781   3.889   5.774 -0.0271 -0.6081  0.4416
   53MOL0     C 7067   1.912   3.903   5.832  0.6706 -1.0054 -0.2678
   53MOL0     O 7068   2.133   3.710   6.128 -0.3302 -0.2224 -0.2879
   53MOL0     C 7069   2.368   3.909   5.967  0.0849 -0.2652 -0.4126
   53MOL0     C 7070   2.508   3.924   5.970 -1.3394  0.0229  0.3103
   53MOL0     N 7071   3.283   4.281   5.844 -0.0752 -0.5968 -0.7643
   53MOL0     N 7072   3.348   4.295   5.735 -0.0876 -0.5461  0.5734
   53MOL0     C 7073   4.573   4.110   5.430  0.4300 -0.6762 -0.2302
   53MOL0     C 7074   4.701   4.165   5.455  0.1721  0.6489  0.1223
   53MOL0     C 7075   5.102   4.310   5.455  0.6011 -0.2528 -0.0864
   53MOL0     C 7076   5.120   4.305   5.601 -0.9910  0.3586 -0.2473
   53MOL0     C 7077   5.242   4.347   5.652 -0.5110  0.1141  0.0672
   53MOL0     C 7078   5.345   4.392   5.569 -0.1336 -1.0636 -0.3139
   53MOL0     O 7079   5.474   4.426   5.605  0.0597  0.2197 -0.3218
   53MOL0     C 7080   5.498   4.465   5.735  1.1113  0.1992 -0.1446
   53MOL0     C 7081   5.530   4.616   5.739  0.4234 -0.2438 -0.4497
   53MOL0     C 7082   5.541   4.659   5.888 -0.4099 -0.0674 -0.6962
   53MOL0     C 7083   5.556   4.811   5.905 -1.1124  0.1341 -0.7502
   53MOL0     C 7084   5.447   4.894   5.855  0.2983  0.0803  0.6060
   53MOL0     C 7085   5.353   4.948   5.795 -0.4029 -1.1605  0.1598
   53MOL0     C 7086   5.326   4.394   5.436  0.2352 -0.6699 -0.0752
   53MOL0     C 7087   5.207   4.355   5.381 -0.6141 -0.4455 -0.2152
   53MOL0     H 7088   4.679   4.480   5.360  0.3979 -1.0275 -1.4988
   53MOL0     H 7089   4.436   4.388   5.306 -0.2803 -0.7423 -0.5401
   53MOL0     H 7090   4.341   3.999   5.263  0.6892  1.2371 -1.3219
   53MOL0     H 7091   4.324   3.969   5.437  1.0854  1.2200 -0.5362
   53MOL0     H 7092   4.103   4.098   5.248  1.1449  3.0925  0.9624
   53MOL0     H 7093   4.107   3.937   5.304  1.8212 -0.5041  0.6104
   53MOL0     H 7094   4.104   4.021   5.554  1.9228 -1.7561 -1.9368
   53MOL0     H 7095   4.095   4.181   5.472  0.4991  0.9638 -1.4723
   53MOL0     H 7096   3.892   4.109   5.350  2.5709  1.0118 -0.9480
   53MOL0     H 7097   3.894   3.949   5.428 -1.6055  1.0021  1.7038
   53MOL0     H 7098   3.882   4.104   5.641  0.6091  2.0165  0.7925
   53MOL0     H 7099   3.847   4.237   5.518  2.4243  0.3210 -3.2210
   53MOL0     H 7100   3.665   4.088   5.413  2.1072 -0.9271 -0.7053
   53MOL0     H 7101   3.700   3.981   5.531 -1.2024  0.6404  1.7820
   53MOL0     H 7102   3.611   4.130   5.720  1.9948 -0.8218  0.7803
   53MOL0     H 7103   3.643   4.268   5.621  0.0614  0.1277  0.0009
   53MOL0     H 7104   3.429   4.036   5.558 -2.9133  0.9927  0.2479
   53MOL0     H 7105   3.439   4.197   5.478  0.3567 -0.7299 -1.3396
   53MOL0     H 7106   3.320   3.969   5.747 -2.2152  0.0930 -0.3100
   53MOL0     H 7107   3.208   3.992   6.011 -0.8320  0.0712  1.9731
   53MOL0     H 7108   3.175   4.152   6.066 -2.5212  2.8651 -1.2204
   53MOL0     H 7109   3.005   4.015   5.853  1.6234  1.7905 -1.3370
   53MOL0     H 7110   2.998   4.181   5.896 -0.9339 -1.3810  0.1004
   53MOL0     H 7111   2.929   4.102   6.134  0.8201 -0.7050  1.9701
   53MOL0     H 7112   2.965   3.936   6.092  4.0645  0.0625 -2.7758
   53MOL0     H 7113   2.782   3.936   5.914 -1.5089  0.0097 -0.3825
   53MOL0     H 7114   2.743   4.101   5.963 -0.8899 -0.3738  0.9824
   53MOL0     H 7115   2.565   3.849   6.289  0.2582 -2.6728  0.3496
   53MOL0     H 7116   2.226   3.827   6.350 -0.2132  2.0360  1.3345
   53MOL0     H 7117   2.307   3.672   6.309 -0.8053  0.2985 -1.0200
   53MOL0     H 7118   2.381   3.794   6.417 -1.1157  1.0351 -0.7209
   53MOL0     H 7119   1.942   3.631   6.021  0.8387  0.3168 -0.5244
   53MOL0     H 7120   1.690   3.623   5.959  2.0043 -2.3687  0.0673
   53MOL0     H 7121   1.500   3.930   5.717  3.2922 -0.9630  1.6626
   53MOL0     H 7122   1.574   3.829   5.600 -0.2591  0.2215 -0.6306
   53MOL0     H 7123   1.350   3.787   5.551  4.7644  0.1106 -2.0282
   53MOL0     H 7124   1.401   3.645   5.642 -1.4282 -0.2472  1.7669
   53MOL0     H 7125   1.259   3.880   5.767  1.5437 -0.0587 -0.6531
   53MOL0     H 7126   1.305   3.727   5.841 -0.9636 -2.4988 -1.0655
   53MOL0     H 7127   1.122   3.737   5.597 -0.3940  0.3682  0.7082
   53MOL0     H 7128   1.184   3.592   5.678 -0.7537 -0.1455 -1.6377
   53MOL0     H 7129   0.992   3.802   5.798  0.6981 -0.0908 -2.9248
   53MOL0     H 7130   1.054   3.652   5.888  3.3774  0.4566  0.5897
   53MOL0     H 7131   0.879   3.670   5.639  4.6395  0.3592 -1.0467
   53MOL0     H 7132   0.961   3.526   5.694 -0.8939 -1.0244  1.8437
   53MOL0     H 7133   0.847   3.548   5.914  0.5126 -0.4717  0.6029
   53MOL0     H 7134   0.725   3.514   5.779  1.1659  1.0995 -1.1690
   53MOL0     H 7135   0.685   3.763   5.766 -0.5267 -1.0909 -0.3378
   53MOL0     H 7136   0.774   3.799   5.902  0.3381 -0.1933  1.4152
   53MOL0     H 7137   1.743   3.970   5.713 -2.3370 -0.6276  1.7401
   53MOL0     H 7138   1.959   3.996   5.802  1.2249 -0.2702  2.6293
   53MOL0     H 7139   2.309   3.927   5.877 -1.7977  0.9520  0.9921
   53MOL0     H 7140   2.554   3.944   5.874  0.9997  0.6466  1.4935
   53MOL0     H 7141   4.556   4.007   5.460  2.2338 -1.3522 -1.3561
   53MOL0     H 7142   4.786   4.102   5.480  1.6108  2.1675 -0.7311
   53MOL0     H 7143   5.048   4.260   5.668  0.3419 -2.2439 -0.4351
   53MOL0     H 7144   5.247   4.337   5.760 -3.0368  0.2700  0.2533
   53MOL0     H 7145   5.420   4.443   5.808  2.7108  2.1035  2.3042
   53MOL0     H 7146   5.587   4.404   5.757 -1.1454 -2.1953  3.4598
   53MOL0     H 7147   5.445   4.670   5.698 -0.0910  0.1275  1.0682
   53MOL0     H 7148   5.614   4.629   5.670  2.2338  1.0019  1.8486
   53MOL0     H 7149   5.628   4.616   5.940 -2.6922 -0.2522  3.3938
   53MOL0     H 7150   5.459   4.619   5.948 -0.0827 -0.7079 -0.6638
   53MOL0     H 7151   5.647   4.836   5.850  0.9774  0.9540  2.8110
   53MOL0     H 7152   5.568   4.830   6.012 -0.4690  0.6638 -0.9071
   53MOL0     H 7153   5.270   4.993   5.745  1.1177 -0.2229 -1.6647
   53MOL0     H 7154   5.406   4.436   5.376  0.6463  0.8378  1.4408
   53MOL0     H 7155   5.193   4.353   5.273 -3.0719 -2.3278  0.0555
   54MOL0     O 7156   5.444   6.145   7.902  0.4002  0.0743  0.4870
   54MOL0     C 7157   5.494   6.044   7.953  0.4472  1.0995 -0.5830
   54MOL0     O 7158   5.438   5.923   7.961 -0.0428  0.4848 -0.4845
   54MOL0     C 7159   5.335   5.900   7.870  0.9225  0.9147 -0.1559
   54MOL0     C 7160   5.349   5.942   7.738 -0.3852 -0.8560 -0.0566
   54MOL0     C 7161   5.237   5.945   7.660 -1.1200 -0.1207 -0.1053
   54MOL0     C 7162   5.113   5.893   7.704 -0.1361 -0.8135 -0.4748
   54MOL0     O 7163   5.016   5.914   7.609  0.7508 -0.6890  0.2979
   54MOL0     C 7164   4.883   5.877   7.636 -0.0352 -0.5604  0.0475
   54MOL0     C 7165   4.792   5.914   7.522 -0.3210 -0.5678 -0.4995
   54MOL0     C 7166   4.689   6.012   7.554  0.2917 -0.7687  0.3397
   54MOL0     C 7167   4.613   6.062   7.428  1.1473 -0.9995 -0.2347
   54MOL0     C 7168   4.494   6.156   7.459 -0.0868  0.6096  0.4310
   54MOL0     C 7169   4.385   6.087   7.548 -0.4515 -0.2738 -0.3566
   54MOL0     C 7170   4.265   6.172   7.556 -1.5297 -0.9923  0.4835
   54MOL0     C 7171   4.195   6.178   7.699 -0.4870  0.2488 -0.1184
   54MOL0     N 7172   4.131   6.049   7.750  0.0412 -0.3485 -1.0597
   54MOL0     C 7173   4.157   5.994   7.876  0.5841  0.0627 -0.3625
   54MOL0     C 7174   4.098   5.870   7.876  0.6992  0.2955 -0.3829
   54MOL0     C 7175   4.092   5.785   7.998  0.5512  0.4679 -0.8150
   54MOL0     C 7176   3.999   5.844   8.109 -0.2056  0.1414 -0.2218
   54MOL0     C 7177   3.854   5.855   8.061 -0.5056  0.5376  0.7557
   54MOL0     C 7178   3.755   5.918   8.160  0.0120 -0.6439 -1.5858
   54MOL0     O 7179   3.774   6.061   8.184 -0.3766 -0.6171  0.5505
   54MOL0     C 7180   3.695   6.123   8.276 -0.1498  0.5069  0.5136
   54MOL0     C 7181   3.571   6.077   8.327  0.2049  0.1778  0.1323
   54MOL0     C 7182   3.485   6.155   8.414  0.4035  0.6244  0.1636
   54MOL0     C 7183   3.358   6.080   8.463 -0.3107 -0.3478  0.1860
   54MOL0     C 7184   3.514   6.289   8.427  1.0481 -0.5496  0.3665
   54MOL0     C 7185   3.419   6.391   8.474  0.1800  0.2239 -0.3660
   54MOL0     O 7186   3.285   6.362   8.439  0.1369 -0.2046  0.0809
   54MOL0     C 7187   3.179   6.441   8.479 -0.3783 -0.3333 -1.0729
   54MOL0     C 7188   3.048   6.407   8.427 -1.5655 -0.5727  0.5320
   54MOL0     C 7189   2.928   6.473   8.469 -0.8544  0.2306 -0.0099
   54MOL0     C 7190   2.934   6.560   8.574  0.2419 -0.1094 -0.6106
   54MOL0     O 7191   2.816   6.607   8.634  0.2086 -0.6180  0.6932
   54MOL0     C 7192   2.806   6.596   8.779  0.6834 -0.1971 -0.5840
   54MOL0     C 7193   2.658   6.578   8.825 -0.1604 -0.0194 -0.6972
   54MOL0     C 7194   2.582   6.459   8.771 -0.4379  0.3265  0.6400
   54MOL0     C 7195   2.449   6.503   8.719 -0.2480 -0.1368 -0.1247
   54MOL0     C 7196   2.369   6.394   8.646  1.3406  1.3656  0.0429
   54MOL0     C 7197   2.431   6.339   8.525  0.1379  0.1131 -0.0397
   54MOL0     C 7198   2.466   6.449   8.425  1.0891  0.2926 -0.3764
   54MOL0     C 7199   2.477   6.402   8.279 -0.5202 -0.0873  0.8294
   54MOL0    Cl 7200   2.620   6.290   8.270 -0.3414  0.2918  0.2341
   54MOL0     C 7201   3.059   6.597   8.625 -0.0714  0.1816  0.2153
   54MOL0     C 7202   3.181   6.540   8.589 -0.1795  0.5953  0.6028
   54MOL0     O 7203   3.469   6.494   8.524  0.7110  0.0267 -0.0493
   54MOL0     C 7204   3.637   6.335   8.384  0.3034  0.3029 -0.2588
   54MOL0     C 7205   3.723   6.257   8.308 -0.1964 -0.4265  0.1376
   54MOL0     N 7206   4.043   5.866   7.747  0.8494  0.4485 -0.6792
   54MOL0     N 7207   4.053   5.973   7.674 -0.1520  0.3348  0.3932
   54MOL0     C 7208   5.098   5.843   7.834  0.1854 -0.2638 -0.2331
   54MOL0     C 7209   5.211   5.857   7.922  0.3840 -0.0639  0.5918
   54MOL0     C 7210   5.629   6.059   8.019 -1.0790  0.2893 -0.2562
   54MOL0     C 7211   5.744   6.129   7.974 -0.5446 -0.9291 -0.1477
   54MOL0     C 7212   5.868   6.117   8.041  0.3506  0.2241  0.5150
   54MOL0     C 7213   5.880   6.045   8.157 -0.6398  0.1909 -0.2902
   54MOL0     O 7214   5.998   6.024   8.231  0.2364 -0.4357  0.0891
   54MOL0     C 7215   6.099   6.122   8.218  0.2003 -0.4709  0.2179
   54MOL0     C 7216   6.199   6.073   8.104  1.0047 -0.9273  1.0958
   54MOL0     C 7217   6.271   5.936   8.141  0.3012  0.0772  0.4022
   54MOL0     C 7218   6.361   5.943   8.265 -0.4089 -0.8664 -0.4878
   54MOL0     C 7219   6.454   5.839   8.265 -0.2491  0.3518 -0.1601
   54MOL0     C 7220   6.518   5.733   8.257 -0.1531 -0.0044 -0.5812
   54MOL0     C 7221   5.771   5.976   8.197  0.2883 -0.1960  0.5152
   54MOL0     C 7222   5.644   5.983   8.130  0.2809  0.6069 -0.4152
   54MOL0     H 7223   5.450   5.976   7.717 -0.1345  1.6469  4.2231
   54MOL0     H 7224   5.242   5.993   7.563 -1.1439  0.5158  0.2023
   54MOL0     H 7225   4.871   5.771   7.661  0.8012 -0.3482  1.4790
   54MOL0     H 7226   4.860   5.932   7.727  1.0390 -0.7070  0.4271
   54MOL0     H 7227   4.849   5.957   7.439  0.6594 -1.7371 -0.4674
   54MOL0     H 7228   4.755   5.824   7.472 -1.6889 -0.4726  0.3006
   54MOL0     H 7229   4.626   5.980   7.638 -2.1225 -0.9657 -1.4384
   54MOL0     H 7230   4.751   6.093   7.595  3.1200 -1.5669 -2.0308
   54MOL0     H 7231   4.690   6.116   7.372 -0.1293 -0.2996 -1.3863
   54MOL0     H 7232   4.584   5.971   7.375 -2.1497 -0.3816  0.2767
   54MOL0     H 7233   4.524   6.237   7.525 -2.5651  1.7845  0.2231
   54MOL0     H 7234   4.463   6.203   7.365 -0.0630 -1.0450 -0.4557
   54MOL0     H 7235   4.358   5.988   7.511  2.2781 -0.4906 -2.0297
   54MOL0     H 7236   4.425   6.070   7.649 -1.6212 -2.2180 -0.1761
   54MOL0     H 7237   4.305   6.268   7.521  1.2201 -2.6189 -1.2064
   54MOL0     H 7238   4.200   6.132   7.477  0.6439 -0.6513 -1.6039
   54MOL0     H 7239   4.110   6.246   7.707  0.7370  1.6975  1.1914
   54MOL0     H 7240   4.268   6.217   7.770 -0.3057 -0.7818  0.2697
   54MOL0     H 7241   4.217   6.037   7.955  1.2355 -1.1185 -0.1879
   54MOL0     H 7242   4.052   5.687   7.969 -2.9070  1.4017  0.3262
   54MOL0     H 7243   4.192   5.775   8.042  0.8186 -2.4948 -1.8240
   54MOL0     H 7244   4.033   5.944   8.139 -1.9051  0.3698  1.1082
   54MOL0     H 7245   4.002   5.770   8.189 -0.5957 -1.1866 -1.4000
   54MOL0     H 7246   3.814   5.754   8.048  0.8724 -0.0199  0.6987
   54MOL0     H 7247   3.844   5.909   7.967 -0.4684  4.0065  2.5855
   54MOL0     H 7248   3.767   5.872   8.258 -0.1249 -0.8392 -1.6598
   54MOL0     H 7249   3.657   5.891   8.117 -0.4394 -1.1072 -0.3027
   54MOL0     H 7250   3.531   5.980   8.299 -0.7891  0.1647  1.5186
   54MOL0     H 7251   3.261   6.113   8.426 -0.0919 -1.7462 -1.7840
   54MOL0     H 7252   3.354   5.976   8.431 -3.3854 -0.3133  0.1543
   54MOL0     H 7253   3.368   6.094   8.571 -0.4724  0.0909  0.1473
   54MOL0     H 7254   3.054   6.328   8.353  2.4295  1.0099 -1.0719
   54MOL0     H 7255   2.827   6.450   8.434 -1.3344 -1.1532  2.0996
   54MOL0     H 7256   2.865   6.519   8.829  0.3219 -0.1895 -0.1384
   54MOL0     H 7257   2.847   6.685   8.829  1.3419 -1.1808  0.6865
   54MOL0     H 7258   2.653   6.571   8.934 -0.8486 -1.6724 -0.8016
   54MOL0     H 7259   2.605   6.665   8.786  0.0229 -0.0702 -1.0590
   54MOL0     H 7260   2.561   6.388   8.852 -0.5505 -1.0148 -0.5122
   54MOL0     H 7261   2.637   6.401   8.697  0.0000 -0.3286  1.4540
   54MOL0     H 7262   2.403   6.528   8.815 -0.1738  0.9842 -0.3741
   54MOL0     H 7263   2.461   6.589   8.653  0.7212 -0.4299 -0.3549
   54MOL0     H 7264   2.272   6.436   8.619  1.6836  0.5207 -2.9088
   54MOL0     H 7265   2.354   6.308   8.712 -3.8490  0.5318 -1.7339
   54MOL0     H 7266   2.528   6.291   8.544 -0.6625 -0.7014  2.1970
   54MOL0     H 7267   2.360   6.273   8.474 -0.7180  2.0568 -1.4800
   54MOL0     H 7268   2.561   6.495   8.453  1.6310 -0.4571 -0.9330
   54MOL0     H 7269   2.387   6.525   8.428  2.4397  1.7761 -0.4631
   54MOL0     H 7270   2.488   6.487   8.211 -2.7414 -0.7829 -0.5193
   54MOL0     H 7271   2.379   6.358   8.258 -0.1729 -0.8585  0.7930
   54MOL0     H 7272   3.074   6.675   8.699  3.2869  1.0882 -1.2223
   54MOL0     H 7273   3.276   6.558   8.638  1.5040 -2.3762 -1.2858
   54MOL0     H 7274   3.677   6.435   8.397 -1.1249  1.0206 -1.1463
   54MOL0     H 7275   3.803   6.301   8.249  0.1503 -1.6144 -0.3046
   54MOL0     H 7276   5.004   5.821   7.885 -0.4063 -0.8877 -1.5391
   54MOL0     H 7277   5.186   5.814   8.019  1.1885 -2.7549 -0.3186
   54MOL0     H 7278   5.731   6.179   7.879 -0.7364 -2.3118 -0.8733
   54MOL0     H 7279   5.953   6.172   8.001  0.5861  1.0080  2.0013
   54MOL0     H 7280   6.049   6.212   8.180 -2.2954 -1.1764  1.5910
   54MOL0     H 7281   6.143   6.118   8.318 -1.2542 -4.4295  0.8597
   54MOL0     H 7282   6.271   6.154   8.087 -2.3122  1.4355 -4.1022
   54MOL0     H 7283   6.153   6.064   8.005  2.1793 -0.0156  0.4463
   54MOL0     H 7284   6.339   5.908   8.060  3.4680 -2.7487  3.6538
   54MOL0     H 7285   6.193   5.860   8.151  1.0841 -0.5970  1.6190
   54MOL0     H 7286   6.303   5.934   8.358  0.3049  1.4330  0.2419
   54MOL0     H 7287   6.408   6.041   8.271 -0.8281 -0.6812 -0.1388
   54MOL0     H 7288   6.568   5.640   8.237  0.8234  0.4927 -0.5366
   54MOL0     H 7289   5.786   5.929   8.294  2.0966  1.1909  0.9651
   54MOL0     H 7290   5.565   5.917   8.163 -0.2020 -0.1919 -2.9776
   55MOL0     O 7291   9.022   3.975   4.403 -0.4992 -0.3304 -0.3504
   55MOL0     C 7292   9.124   4.020   4.461 -0.6037  0.0260  0.5210
   55MOL0     O 7293   9.134   4.062   4.586  0.2408 -0.4083 -0.1691
   55MOL0     C 7294   9.020   4.060   4.671 -0.2248 -0.5175  0.1145
   55MOL0     C 7295   8.898   3.986   4.659 -0.5159  0.2567  1.0611
   55MOL0     C 7296   8.790   4.018   4.732  1.0115  0.0945 -0.0801
   55MOL0     C 7297   8.797   4.125   4.818  0.1745 -0.6023  0.8208
   55MOL0     O 7298   8.695   4.125   4.913  0.3147 -0.3012 -1.0490
   55MOL0     C 7299   8.625   4.243   4.946  0.8741 -0.1280 -1.4561
   55MOL0     C 7300   8.594   4.240   5.103  0.6774 -0.3177 -0.3697
   55MOL0     C 7301   8.485   4.334   5.138  0.5404  0.2857 -0.2598
   55MOL0     C 7302   8.411   4.287   5.259 -0.0729 -0.4796 -0.2695
   55MOL0     C 7303   8.289   4.375   5.276 -0.1560  0.4901  0.8091
   55MOL0     C 7304   8.223   4.368   5.413  0.4920  1.2185 -0.9745
   55MOL0     C 7305   8.142   4.497   5.432 -0.9060 -0.2584  0.6326
   55MOL0     C 7306   8.032   4.494   5.331 -1.3375  0.8448 -0.0352
   55MOL0     N 7307   7.942   4.607   5.345  0.5920 -0.5911  0.3081
   55MOL0     C 7308   7.802   4.603   5.359  0.5012  0.2583  0.7474
   55MOL0     C 7309   7.761   4.729   5.325 -0.3021  0.2669 -1.1102
   55MOL0     C 7310   7.623   4.784   5.318  0.0894  0.5904  0.4157
   55MOL0     C 7311   7.544   4.735   5.441 -0.7914 -0.9411 -0.0368
   55MOL0     C 7312   7.399   4.780   5.413 -1.1643  0.4756  0.0981
   55MOL0     C 7313   7.299   4.694   5.489  0.7559 -0.1494  0.6441
   55MOL0     O 7314   7.338   4.676   5.621 -0.0152  0.1130  0.1282
   55MOL0     C 7315   7.313   4.772   5.713 -0.1677 -0.1683  0.0554
   55MOL0     C 7316   7.393   4.795   5.824 -0.0189 -0.1889 -0.8274
   55MOL0     C 7317   7.386   4.899   5.907 -0.8832 -0.6000 -0.7946
   55MOL0     C 7318   7.492   4.911   6.019 -0.5188 -0.0939  0.5216
   55MOL0     C 7319   7.266   4.974   5.905  0.3768 -0.9558 -0.8159
   55MOL0     C 7320   7.217   5.078   6.005  0.7417  0.4958 -0.6132
   55MOL0     O 7321   7.087   5.133   6.000 -0.4343  0.4299  0.3536
   55MOL0     C 7322   7.045   5.202   6.108 -0.2755  0.1480 -0.4120
   55MOL0     C 7323   6.999   5.152   6.236 -0.1042 -0.8517  0.1465
   55MOL0     C 7324   6.961   5.235   6.338  0.5124  0.1843  0.5434
   55MOL0     C 7325   6.945   5.366   6.299 -0.1966 -0.1323  0.2431
   55MOL0     O 7326   6.895   5.447   6.399  0.5111  0.0381  0.4188
   55MOL0     C 7327   6.947   5.581   6.396  0.4275 -0.3675  0.1199
   55MOL0     C 7328   6.870   5.668   6.498  0.2900  0.0549 -0.4096
   55MOL0     C 7329   6.909   5.647   6.644  0.1788  0.3289 -0.3262
   55MOL0     C 7330   7.058   5.675   6.679  0.5648  0.4652 -0.6369
   55MOL0     C 7331   7.114   5.807   6.615 -0.3710  0.2296 -0.1047
   55MOL0     C 7332   7.256   5.837   6.637 -0.3429  0.6644 -0.4022
   55MOL0     C 7333   7.361   5.728   6.602 -0.5964  0.0915  0.9690
   55MOL0     C 7334   7.349   5.677   6.463  0.1186 -0.0590 -0.0069
   55MOL0    Cl 7335   7.472   5.554   6.426  0.0044 -0.0217  0.1518
   55MOL0     C 7336   6.986   5.414   6.176  0.9915  0.1479 -0.1944
   55MOL0     C 7337   7.037   5.335   6.086  0.2906 -0.3189 -0.1098
   55MOL0     O 7338   7.302   5.116   6.089 -0.1347  0.8724  0.0026
   55MOL0     C 7339   7.174   4.948   5.799  0.0902  0.0739 -0.0927
   55MOL0     C 7340   7.201   4.853   5.704  1.0104 -0.5397 -0.3483
   55MOL0     N 7341   7.873   4.810   5.308  0.0814 -1.3217  0.5947
   55MOL0     N 7342   7.977   4.741   5.317  0.4752  0.6470 -0.4271
   55MOL0     C 7343   8.910   4.197   4.836 -0.0270  0.7502  0.1899
   55MOL0     C 7344   9.025   4.160   4.764 -0.2030 -0.0335 -0.9355
   55MOL0     C 7345   9.246   4.051   4.376 -0.0000 -0.1886 -0.4430
   55MOL0     C 7346   9.374   4.025   4.423 -0.2483  0.2750 -0.4940
   55MOL0     C 7347   9.482   4.053   4.337  0.2761  0.4163  0.3917
   55MOL0     C 7348   9.458   4.085   4.200  0.5683  0.2568  1.5161
   55MOL0     O 7349   9.544   4.109   4.099  0.4304 -0.1587  0.0134
   55MOL0     C 7350   9.683   4.144   4.132 -0.6080  0.6089  1.0192
   55MOL0     C 7351   9.750   4.187   4.005 -0.3963  0.2852 -0.0853
   55MOL0     C 7352   9.882   4.128   4.011  1.2345 -0.0307  0.7665
   55MOL0     C 7353   9.943   4.158   3.867 -0.4126 -0.0804 -0.0861
   55MOL0     C 7354  10.075   4.083   3.862  0.4545  0.1485  0.3491
   55MOL0     C 7355  10.173   4.023   3.879  0.0043 -0.2318 -0.5276
   55MOL0     C 7356   9.337   4.121   4.162  0.4854  0.1786  0.1718
   55MOL0     C 7357   9.227   4.089   4.244  0.0127 -0.3915  0.3879
   55MOL0     H 7358   8.898   3.899   4.594 -2.1662  0.6281  0.5285
   55MOL0     H 7359   8.703   3.954   4.724  0.1672  1.3666 -2.0518
   55MOL0     H 7360   8.688   4.332   4.931  0.9704  0.4651  1.7416
   55MOL0     H 7361   8.532   4.246   4.889 -0.1104  1.8973  0.1158
   55MOL0     H 7362   8.560   4.139   5.129 -0.7509  0.8350  2.6302
   55MOL0     H 7363   8.678   4.261   5.169 -2.5190  1.0646  3.7231
   55MOL0     H 7364   8.521   4.436   5.151 -3.1248  1.3645  3.3443
   55MOL0     H 7365   8.408   4.340   5.060 -0.5147  0.7644  0.7952
   55MOL0     H 7366   8.374   4.184   5.256 -0.8711 -0.1968 -2.2255
   55MOL0     H 7367   8.473   4.292   5.349  0.4108  2.7790 -0.6609
   55MOL0     H 7368   8.316   4.477   5.248 -2.0901  1.2070  1.4108
   55MOL0     H 7369   8.220   4.349   5.196  1.3212 -1.3420  0.0588
   55MOL0     H 7370   8.166   4.275   5.406  2.4651 -0.2095  0.6344
   55MOL0     H 7371   8.299   4.351   5.489  0.7080  1.3316 -1.1625
   55MOL0     H 7372   8.098   4.504   5.533 -1.4610  1.3243  0.3123
   55MOL0     H 7373   8.211   4.581   5.420  0.1491 -1.0749  0.8489
   55MOL0     H 7374   7.974   4.405   5.355 -0.1422 -0.0062 -0.2269
   55MOL0     H 7375   8.070   4.479   5.230 -3.0160 -2.0235 -0.3597
   55MOL0     H 7376   7.739   4.516   5.375 -0.7975  1.1963  0.8504
   55MOL0     H 7377   7.613   4.893   5.316 -0.3706  0.6105  2.1759
   55MOL0     H 7378   7.571   4.736   5.235  0.3716 -2.0068  1.6550
   55MOL0     H 7379   7.566   4.787   5.534 -2.4354  0.2064 -0.2406
   55MOL0     H 7380   7.543   4.629   5.469 -1.9148 -0.3729  2.3507
   55MOL0     H 7381   7.378   4.786   5.306 -0.5753  0.5350 -0.0174
   55MOL0     H 7382   7.394   4.885   5.444  1.3983  0.5111  0.6202
   55MOL0     H 7383   7.293   4.597   5.437  0.9296  0.0895  0.1700
   55MOL0     H 7384   7.201   4.743   5.490  1.7511  1.9312  1.0366
   55MOL0     H 7385   7.474   4.722   5.825 -1.4775 -1.9803 -3.0734
   55MOL0     H 7386   7.568   4.834   6.007 -0.4126 -0.0336  0.8209
   55MOL0     H 7387   7.542   5.008   6.028 -3.5569  1.6014  0.6820
   55MOL0     H 7388   7.434   4.892   6.109 -4.5574 -5.5064 -2.6124
   55MOL0     H 7389   6.988   5.045   6.247 -0.2329 -1.0209 -1.5040
   55MOL0     H 7390   6.931   5.202   6.437  1.0809  0.5103  0.8280
   55MOL0     H 7391   7.056   5.592   6.400  0.4737 -0.9196  0.4305
   55MOL0     H 7392   6.924   5.642   6.308 -1.3412  0.7999  1.2969
   55MOL0     H 7393   6.887   5.775   6.485 -2.3747  1.0928  3.0331
   55MOL0     H 7394   6.762   5.652   6.483  0.6343 -0.6383 -2.4100
   55MOL0     H 7395   6.886   5.545   6.678 -0.8049  0.7164  0.2114
   55MOL0     H 7396   6.852   5.706   6.717  0.2088 -2.8159  2.5133
   55MOL0     H 7397   7.065   5.666   6.788  0.9938  2.1059 -0.4987
   55MOL0     H 7398   7.117   5.592   6.637  1.7828  1.3190 -0.6643
   55MOL0     H 7399   7.055   5.896   6.638  0.5483  1.0000 -0.6728
   55MOL0     H 7400   7.093   5.807   6.508 -1.6962  0.2411  0.1340
   55MOL0     H 7401   7.282   5.928   6.584  0.4118  0.6982  0.0071
   55MOL0     H 7402   7.269   5.857   6.744 -1.8997 -2.4611  0.4951
   55MOL0     H 7403   7.361   5.648   6.677  1.1133 -1.5448 -0.6499
   55MOL0     H 7404   7.457   5.781   6.600 -0.6330  0.1499  0.7029
   55MOL0     H 7405   7.351   5.755   6.387  1.6841 -0.3584 -0.3084
   55MOL0     H 7406   7.249   5.633   6.452 -1.4460  2.9892  0.6808
   55MOL0     H 7407   6.976   5.519   6.148 -1.6379 -0.5930 -2.5353
   55MOL0     H 7408   7.064   5.377   5.989  2.6065  2.6192  1.6330
   55MOL0     H 7409   7.081   5.001   5.784  0.6250  0.7889 -0.9756
   55MOL0     H 7410   7.126   4.849   5.627  1.9620 -0.3869 -1.3051
   55MOL0     H 7411   8.923   4.259   4.924  0.6285  2.2298 -0.8999
   55MOL0     H 7412   9.114   4.220   4.784 -0.6948 -0.0865  1.8080
   55MOL0     H 7413   9.401   3.993   4.524 -1.0118 -1.5725 -0.8236
   55MOL0     H 7414   9.583   4.077   4.369  0.1076  2.6781 -0.5602
   55MOL0     H 7415   9.697   4.230   4.199 -1.1436  1.3235  0.2338
   55MOL0     H 7416   9.722   4.052   4.176 -0.4580 -0.7206 -1.6963
   55MOL0     H 7417   9.764   4.295   3.995  1.0881 -0.0642 -2.6318
   55MOL0     H 7418   9.694   4.143   3.923  0.7891 -1.8642  0.1969
   55MOL0     H 7419   9.875   4.021   4.034  1.2849  0.3343  2.5826
   55MOL0     H 7420   9.943   4.171   4.091  2.1607 -0.3965  0.2762
   55MOL0     H 7421   9.961   4.266   3.871 -0.3241 -0.1200  0.7152
   55MOL0     H 7422   9.885   4.132   3.778 -1.2298  3.0125 -0.5562
   55MOL0     H 7423  10.258   3.959   3.887 -0.1062 -0.6030 -2.0993
   55MOL0     H 7424   9.327   4.170   4.065  0.0525  2.5667  1.3453
   55MOL0     H 7425   9.135   4.135   4.209 -0.0391  2.3401  3.6657
   56MOL0     O 7426   5.308   3.661  10.673 -0.6249 -0.2854  0.8097
   56MOL0     C 7427   5.316   3.720  10.566 -0.3455 -1.1001 -0.0395
   56MOL0     O 7428   5.221   3.720  10.469 -0.1198  1.0953 -0.5908
   56MOL0     C 7429   5.121   3.622  10.471  0.0920 -0.7588  0.4566
   56MOL0     C 7430   5.154   3.486  10.498 -0.3609  1.0981  0.0870
   56MOL0     C 7431   5.068   3.373  10.495  0.3972 -0.5440 -0.0352
   56MOL0     C 7432   4.930   3.404  10.462  0.5424 -0.6919  0.4376
   56MOL0     O 7433   4.834   3.306  10.447  0.9345 -0.3660  1.1311
   56MOL0     C 7434   4.843   3.191  10.532  0.4153 -0.4543 -0.2757
   56MOL0     C 7435   4.711   3.106  10.522  0.2149  0.1772  0.3579
   56MOL0     C 7436   4.708   2.970  10.597  0.2671 -0.1897 -0.8246
   56MOL0     C 7437   4.745   2.863  10.500 -0.1622 -0.5751  0.5923
   56MOL0     C 7438   4.801   2.733  10.563 -0.7974 -0.6938  0.2021
   56MOL0     C 7439   4.686   2.673  10.645  0.4415 -0.9323  0.0175
   56MOL0     C 7440   4.739   2.549  10.719  0.0342 -0.1670  0.3076
   56MOL0     C 7441   4.625   2.470  10.775  0.2368 -0.0601  0.1402
   56MOL0     N 7442   4.543   2.524  10.883  0.5918 -0.3310  0.1942
   56MOL0     C 7443   4.429   2.598  10.852 -0.3846  0.6605  0.5699
   56MOL0     C 7444   4.364   2.609  10.970  0.0311  1.1942 -0.2743
   56MOL0     C 7445   4.228   2.666  10.996  0.8652  0.1688  0.0677
   56MOL0     C 7446   4.166   2.607  11.123  0.0487  0.3240 -0.2407
   56MOL0     C 7447   4.015   2.645  11.126  0.6006 -0.1346  0.0747
   56MOL0     C 7448   3.976   2.788  11.179 -0.1017 -0.5144  0.1080
   56MOL0     O 7449   3.849   2.816  11.113 -0.3807  0.1333  0.2133
   56MOL0     C 7450   3.732   2.766  11.162  0.0334  0.5524 -0.2962
   56MOL0     C 7451   3.627   2.779  11.075 -0.0359  0.2141  0.1546
   56MOL0     C 7452   3.497   2.736  11.104 -0.1254 -0.2553  0.0136
   56MOL0     C 7453   3.397   2.763  10.992 -0.3207 -0.0510  0.4327
   56MOL0     C 7454   3.471   2.655  11.226  0.0706  0.3644  1.0508
   56MOL0     C 7455   3.352   2.594  11.271 -0.1435  0.0915  0.1600
   56MOL0     O 7456   3.371   2.497  11.368  0.4829  0.0765  0.2420
   56MOL0     C 7457   3.258   2.442  11.421 -0.0292 -0.4541  0.0942
   56MOL0     C 7458   3.188   2.357  11.344 -0.0681 -0.4047  0.5015
   56MOL0     C 7459   3.069   2.304  11.399  0.4204  0.0885  0.2296
   56MOL0     C 7460   3.030   2.332  11.533 -0.2921 -0.2319 -0.1386
   56MOL0     O 7461   2.910   2.295  11.592  0.3658 -1.0754  0.2865
   56MOL0     C 7462   2.826   2.192  11.538 -0.1522 -0.2973  0.8262
   56MOL0     C 7463   2.733   2.139  11.642 -0.0531 -0.4227  0.7169
   56MOL0     C 7464   2.632   2.250  11.694  0.2238 -0.8506  0.2923
   56MOL0     C 7465   2.630   2.285  11.845 -0.3266  0.1821 -0.3688
   56MOL0     C 7466   2.499   2.352  11.890  0.5017 -0.2009 -0.0674
   56MOL0     C 7467   2.529   2.416  12.030 -0.4052  0.7415  0.9044
   56MOL0     C 7468   2.408   2.480  12.109 -0.1724 -0.2053  0.0130
   56MOL0     C 7469   2.320   2.367  12.173 -0.9819 -0.1312  0.2088
   56MOL0    Cl 7470   2.407   2.330  12.338  0.2536  0.0981 -0.2521
   56MOL0     C 7471   3.111   2.408  11.610  0.5752 -0.3440 -0.1848
   56MOL0     C 7472   3.224   2.467  11.554 -0.2387 -0.4881 -0.3942
   56MOL0     O 7473   3.242   2.619  11.220  0.5548  0.4555 -0.4593
   56MOL0     C 7474   3.587   2.627  11.299 -0.5400  0.1873 -0.3733
   56MOL0     C 7475   3.714   2.691  11.280 -0.0987  0.2623  0.7520
   56MOL0     N 7476   4.429   2.538  11.071 -0.0915  0.0226  0.4732
   56MOL0     N 7477   4.534   2.487  11.013 -0.3164 -0.1502 -0.3067
   56MOL0     C 7478   4.893   3.537  10.429  0.2049  0.2508 -0.3922
   56MOL0     C 7479   4.984   3.645  10.436 -0.6570 -0.1878  0.3540
   56MOL0     C 7480   5.441   3.808  10.561  0.3786  0.2802  0.7049
   56MOL0     C 7481   5.536   3.826  10.659 -0.5056  0.5575 -0.9683
   56MOL0     C 7482   5.637   3.927  10.652  1.2198  0.1053 -0.3685
   56MOL0     C 7483   5.635   4.009  10.537 -0.2563 -0.2673  0.6830
   56MOL0     O 7484   5.740   4.098  10.529  0.5488  0.7012  0.0809
   56MOL0     C 7485   5.742   4.170  10.407 -0.6806  0.2116 -1.1943
   56MOL0     C 7486   5.818   4.293  10.418  0.5878  0.7301  0.7511
   56MOL0     C 7487   5.790   4.369  10.545  0.5216  0.4159 -0.0176
   56MOL0     C 7488   5.838   4.510  10.534 -0.5878 -0.1101 -1.1432
   56MOL0     C 7489   5.765   4.591  10.437 -0.2427  0.2220 -0.3554
   56MOL0     C 7490   5.705   4.654  10.351  0.2897  0.6533 -0.2339
   56MOL0     C 7491   5.539   3.985  10.430 -0.6539  0.3045 -0.1267
   56MOL0     C 7492   5.446   3.885  10.444  0.7645  0.8045  0.1297
   56MOL0     H 7493   5.252   3.470  10.543 -0.7981  0.0155  0.6995
   56MOL0     H 7494   5.112   3.275  10.513  0.4092 -0.8626 -1.6165
   56MOL0     H 7495   4.928   3.133  10.496  1.5885  1.9387 -1.6269
   56MOL0     H 7496   4.856   3.224  10.635 -5.8338 -0.5598  0.9329
   56MOL0     H 7497   4.620   3.161  10.551 -0.4360  0.6277 -2.2662
   56MOL0     H 7498   4.687   3.090  10.416 -2.3666 -1.0616  1.0355
   56MOL0     H 7499   4.792   2.966  10.668  1.6313  0.9759 -2.2882
   56MOL0     H 7500   4.612   2.956  10.647  1.5752  1.5695  2.4828
   56MOL0     H 7501   4.652   2.848  10.445  2.4107  2.0663 -5.2092
   56MOL0     H 7502   4.820   2.907  10.434  3.1043 -2.1039  2.9941
   56MOL0     H 7503   4.835   2.672  10.479  0.5907  3.1598 -2.2451
   56MOL0     H 7504   4.884   2.746  10.633 -1.3302 -0.2582  0.7611
   56MOL0     H 7505   4.646   2.747  10.715 -1.5963  0.9522 -2.8722
   56MOL0     H 7506   4.607   2.634  10.580 -2.0271  0.8615  1.7350
   56MOL0     H 7507   4.789   2.482  10.647  1.7465  3.3910 -2.1639
   56MOL0     H 7508   4.820   2.570  10.790 -1.7886  2.0041  1.8938
   56MOL0     H 7509   4.669   2.378  10.815  0.6579 -0.5085 -1.2915
   56MOL0     H 7510   4.561   2.440  10.691  0.5167 -2.7318  0.7827
   56MOL0     H 7511   4.396   2.627  10.753 -1.1012 -1.5954  0.0941
   56MOL0     H 7512   4.241   2.775  11.003  1.4127  0.0095  1.8463
   56MOL0     H 7513   4.161   2.654  10.910 -0.7987  0.8720  1.2085
   56MOL0     H 7514   4.224   2.651  11.206  1.0430  0.5414 -1.0283
   56MOL0     H 7515   4.174   2.498  11.129 -2.2038  0.1555  0.5763
   56MOL0     H 7516   3.969   2.575  11.197  2.2463  0.2740  1.5994
   56MOL0     H 7517   3.979   2.637  11.023  1.6821 -0.3367 -0.2951
   56MOL0     H 7518   4.049   2.860  11.142 -0.2182  0.5214  1.7855
   56MOL0     H 7519   3.967   2.796  11.288 -3.4348  0.6328 -0.1205
   56MOL0     H 7520   3.646   2.809  10.972  1.6171 -2.5539 -0.4484
   56MOL0     H 7521   3.439   2.742  10.893  0.6381  0.7842  0.6480
   56MOL0     H 7522   3.304   2.706  11.000 -0.1286 -0.7129 -1.5469
   56MOL0     H 7523   3.375   2.869  11.008 -0.5972 -0.1885  0.9653
   56MOL0     H 7524   3.226   2.345  11.243  1.0715  2.2656  0.5245
   56MOL0     H 7525   3.000   2.242  11.343  2.2449 -0.0771 -2.0111
   56MOL0     H 7526   2.783   2.230  11.445 -1.7447 -1.7920  0.9092
   56MOL0     H 7527   2.894   2.115  11.501  0.8825  1.4896 -1.1643
   56MOL0     H 7528   2.669   2.065  11.593  1.0431  0.1163 -1.6530
   56MOL0     H 7529   2.784   2.081  11.720 -1.5184  0.5981  2.5128
   56MOL0     H 7530   2.533   2.208  11.675  0.7504 -2.3503  0.7124
   56MOL0     H 7531   2.645   2.341  11.634  4.5691 -1.8281 -0.5929
   56MOL0     H 7532   2.646   2.203  11.916 -1.6350  2.5329  2.8774
   56MOL0     H 7533   2.717   2.352  11.852 -0.2160 -0.0816  1.5634
   56MOL0     H 7534   2.411   2.287  11.892  1.1541 -1.1383 -0.7949
   56MOL0     H 7535   2.473   2.435  11.824 -2.3805  0.2149  1.4238
   56MOL0     H 7536   2.584   2.343  12.091 -1.4286 -0.1860  0.7513
   56MOL0     H 7537   2.604   2.494  12.022 -1.1217  1.4619  1.0667
   56MOL0     H 7538   2.345   2.531  12.036 -0.9393 -1.7335 -0.4339
   56MOL0     H 7539   2.447   2.553  12.181  0.3200  0.4526 -0.8892
   56MOL0     H 7540   2.307   2.282  12.107 -1.2892 -0.6115  0.8751
   56MOL0     H 7541   2.223   2.406  12.206  0.1609 -1.1409  5.7820
   56MOL0     H 7542   3.079   2.439  11.709 -0.3229 -3.4258  0.5861
   56MOL0     H 7543   3.276   2.538  11.617 -0.1346  1.3647 -2.4447
   56MOL0     H 7544   3.582   2.576  11.395 -0.0874 -1.6687 -1.2912
   56MOL0     H 7545   3.800   2.673  11.344 -1.6461 -1.3114  2.5065
   56MOL0     H 7546   4.791   3.560  10.399 -0.9571 -3.5220  0.1719
   56MOL0     H 7547   4.940   3.735  10.394  1.7578  0.6826 -0.4769
   56MOL0     H 7548   5.523   3.766  10.749  0.2487 -0.4639 -1.5179
   56MOL0     H 7549   5.712   3.936  10.730 -1.4810 -0.7579  2.5421
   56MOL0     H 7550   5.793   4.108  10.332 -1.0002  0.9553 -2.0468
   56MOL0     H 7551   5.642   4.197  10.372 -1.0807  2.3816  1.2857
   56MOL0     H 7552   5.792   4.352  10.330 -1.9638 -0.3547  0.6973
   56MOL0     H 7553   5.925   4.269  10.422  0.5581 -0.0459 -1.6330
   56MOL0     H 7554   5.835   4.325  10.634 -0.0045 -0.1094 -0.0040
   56MOL0     H 7555   5.682   4.376  10.562  0.4862 -1.4017  0.7857
   56MOL0     H 7556   5.945   4.511  10.514 -0.2064 -3.7461  0.0805
   56MOL0     H 7557   5.817   4.554  10.632  0.6207  1.5206 -1.5749
   56MOL0     H 7558   5.651   4.705  10.274  0.3187 -0.1083 -0.7747
   56MOL0     H 7559   5.541   4.025  10.329 -0.3857 -1.0207 -0.6631
   56MOL0     H 7560   5.369   3.878  10.368 -0.4793  1.6439  1.2708
   57MOL0     O 7561   6.104   5.130   7.227 -0.0282  0.3482  0.5598
   57MOL0     C 7562   6.094   5.249   7.248  0.3602  1.0100  0.0406
   57MOL0     O 7563   6.196   5.327   7.299 -0.4079  0.2400  0.3212
   57MOL0     C 7564   6.317   5.265   7.324 -0.4418  0.6079 -0.7957
   57MOL0     C 7565   6.328   5.154   7.418  0.4115  0.0972 -0.3973
   57MOL0     C 7566   6.451   5.086   7.435  0.5621 -0.6542 -0.0287
   57MOL0     C 7567   6.567   5.129   7.364  0.2542 -0.6670  0.1644
   57MOL0     O 7568   6.694   5.071   7.386 -0.3702 -0.3845 -0.1576
   57MOL0     C 7569   6.711   4.947   7.450 -0.4536  0.2505 -0.5755
   57MOL0     C 7570   6.858   4.898   7.433  0.4571  0.4009 -0.0219
   57MOL0     C 7571   6.903   4.885   7.281 -0.3971 -0.4035  0.0170
   57MOL0     C 7572   7.054   4.868   7.260  0.2267 -0.2695 -0.5213
   57MOL0     C 7573   7.092   4.849   7.104 -0.0621  0.2166 -0.0451
   57MOL0     C 7574   7.232   4.890   7.069  0.0499  0.3820 -0.5046
   57MOL0     C 7575   7.332   4.799   7.144 -0.1165 -0.1697  0.3183
   57MOL0     C 7576   7.439   4.758   7.047  0.6154  0.1212  0.0177
   57MOL0     N 7577   7.532   4.855   6.999 -0.3816 -0.3661  0.0014
   57MOL0     C 7578   7.621   4.835   6.899 -0.3500 -1.4458 -0.3514
   57MOL0     C 7579   7.686   4.946   6.899 -1.0620 -0.2529  0.8052
   57MOL0     C 7580   7.807   4.959   6.814 -0.3517  0.5980 -0.6885
   57MOL0     C 7581   7.773   5.009   6.671 -0.5763  0.2113  0.9612
   57MOL0     C 7582   7.675   4.933   6.586 -0.1004 -0.3695 -0.3340
   57MOL0     C 7583   7.667   4.986   6.442 -0.1756  0.3672  0.5805
   57MOL0     O 7584   7.783   4.928   6.370 -0.9711  1.1407  0.5754
   57MOL0     C 7585   7.790   4.805   6.312  0.7311 -0.1457 -0.2398
   57MOL0     C 7586   7.681   4.725   6.282  0.1150  0.4792  0.1926
   57MOL0     C 7587   7.705   4.596   6.222 -0.3910  0.3880  0.3382
   57MOL0     C 7588   7.585   4.509   6.170 -0.1382  0.3317  0.1412
   57MOL0     C 7589   7.843   4.556   6.188 -0.7095 -0.3179 -0.5241
   57MOL0     C 7590   7.888   4.428   6.129  1.0787  0.1691  0.4010
   57MOL0     O 7591   7.957   4.435   6.014 -0.1556 -0.0033  0.8204
   57MOL0     C 7592   7.995   4.319   5.939 -0.0048  0.6142 -0.4971
   57MOL0     C 7593   8.054   4.208   6.002 -0.6261  0.6928 -0.5446
   57MOL0     C 7594   8.078   4.099   5.926 -0.8252 -0.0981  0.0141
   57MOL0     C 7595   8.053   4.097   5.790 -0.3852  0.1250 -0.7841
   57MOL0     O 7596   8.088   3.982   5.724 -0.2463  0.8049 -0.2176
   57MOL0     C 7597   7.989   3.880   5.725  0.7733 -0.2638 -0.7561
   57MOL0     C 7598   7.896   3.891   5.597 -0.9644 -0.9797  0.3158
   57MOL0     C 7599   7.777   3.793   5.599  0.7597  0.4797  0.0705
   57MOL0     C 7600   7.652   3.830   5.516  0.4696  0.1989 -1.1613
   57MOL0     C 7601   7.541   3.739   5.568  0.1859 -0.0693 -0.3844
   57MOL0     C 7602   7.512   3.621   5.480  0.9871  0.3620 -0.5785
   57MOL0     C 7603   7.404   3.512   5.526  0.3913 -0.5781 -0.2771
   57MOL0     C 7604   7.265   3.566   5.550 -0.3052  0.0259  0.4119
   57MOL0    Cl 7605   7.192   3.615   5.388 -0.0431  0.1735  0.2058
   57MOL0     C 7606   8.010   4.212   5.724 -0.0053  0.5997  0.3516
   57MOL0     C 7607   7.971   4.317   5.802 -0.3627  0.0225 -0.2328
   57MOL0     O 7608   7.853   4.327   6.190  0.3589 -0.0672 -0.6371
   57MOL0     C 7609   7.946   4.647   6.215  1.0708 -0.4094 -0.2994
   57MOL0     C 7610   7.920   4.769   6.275  0.4394 -0.4792  0.0046
   57MOL0     N 7611   7.639   5.038   6.980  0.2909  0.3095 -0.3225
   57MOL0     N 7612   7.533   4.988   7.036 -0.2081 -0.5781  0.6889
   57MOL0     C 7613   6.557   5.248   7.291  0.3601 -0.5325  0.2395
   57MOL0     C 7614   6.440   5.315   7.272 -0.5500  0.3336  0.1232
   57MOL0     C 7615   5.957   5.311   7.215 -0.1002  0.8994  0.2521
   57MOL0     C 7616   5.874   5.254   7.117  0.4266 -0.0955  0.0938
   57MOL0     C 7617   5.747   5.304   7.085  0.4313 -0.2038 -0.7829
   57MOL0     C 7618   5.714   5.422   7.143  0.6806 -0.8333  0.5560
   57MOL0     O 7619   5.598   5.480   7.094 -0.1076  0.5659  0.8665
   57MOL0     C 7620   5.553   5.620   7.137 -0.4518  0.8851  0.2861
   57MOL0     C 7621   5.436   5.651   7.047  0.0671 -0.4954 -0.8817
   57MOL0     C 7622   5.371   5.782   7.079 -0.1891  0.4403  0.3657
   57MOL0     C 7623   5.268   5.770   7.194  0.1427  0.2544  0.0460
   57MOL0     C 7624   5.194   5.888   7.193 -0.1341  0.1422  0.1647
   57MOL0     C 7625   5.121   5.991   7.190 -0.9890  0.1810  0.5017
   57MOL0     C 7626   5.804   5.489   7.234 -0.2170  0.3502  0.1155
   57MOL0     C 7627   5.921   5.430   7.278 -0.5240 -0.2200 -0.9564
   57MOL0     H 7628   6.244   5.123   7.480 -0.4216  1.0303 -1.0390
   57MOL0     H 7629   6.450   5.005   7.506 -1.6644  0.9955  1.9586
   57MOL0     H 7630   6.697   4.955   7.558 -0.3019 -2.7609 -0.2304
   57MOL0     H 7631   6.644   4.872   7.407 -0.7513  0.2678 -0.1548
   57MOL0     H 7632   6.924   4.969   7.484 -0.4181  1.3092 -0.1247
   57MOL0     H 7633   6.865   4.807   7.495 -0.0251  1.1952  1.2387
   57MOL0     H 7634   6.855   4.793   7.245  1.5020 -1.5207  0.2240
   57MOL0     H 7635   6.877   4.980   7.234 -1.1214  1.1169  3.1715
   57MOL0     H 7636   7.105   4.959   7.292 -0.8666 -0.3637  1.6357
   57MOL0     H 7637   7.101   4.794   7.325  0.4630  1.2183  1.0632
   57MOL0     H 7638   7.086   4.743   7.076  1.9174  0.4133 -1.3211
   57MOL0     H 7639   7.033   4.914   7.039 -1.8982 -0.5467  0.7791
   57MOL0     H 7640   7.245   4.916   6.964 -1.4580  1.8253 -0.3926
   57MOL0     H 7641   7.247   4.992   7.107  2.3227 -0.1080  0.0731
   57MOL0     H 7642   7.372   4.858   7.228 -1.4020 -1.9522  2.2939
   57MOL0     H 7643   7.291   4.712   7.196  0.6274 -0.2043  0.8650
   57MOL0     H 7644   7.403   4.702   6.959  0.1927  1.0662 -0.4189
   57MOL0     H 7645   7.498   4.679   7.094 -0.2174  0.4066  1.5991
   57MOL0     H 7646   7.638   4.745   6.841 -0.2115 -1.9807  0.4955
   57MOL0     H 7647   7.855   5.044   6.862 -0.9658  0.5105  0.1076
   57MOL0     H 7648   7.874   4.872   6.818 -0.7310  0.3329  2.0601
   57MOL0     H 7649   7.866   5.016   6.613  0.1154 -2.2610  1.6265
   57MOL0     H 7650   7.749   5.115   6.682  3.5003  1.4187  0.1575
   57MOL0     H 7651   7.574   4.931   6.629 -0.1393  0.5859 -0.3450
   57MOL0     H 7652   7.709   4.829   6.592  1.1521  0.0077 -0.5579
   57MOL0     H 7653   7.655   5.094   6.432 -0.0673  0.2874 -0.5455
   57MOL0     H 7654   7.576   4.947   6.395  0.2343  1.6053 -1.3475
   57MOL0     H 7655   7.575   4.744   6.298 -1.2260 -4.8371 -0.3690
   57MOL0     H 7656   7.620   4.416   6.123  1.7145 -0.1978  2.3502
   57MOL0     H 7657   7.530   4.483   6.261  0.9930 -0.0906  0.7336
   57MOL0     H 7658   7.524   4.564   6.098  0.2337 -0.4879 -0.8402
   57MOL0     H 7659   8.072   4.218   6.109 -0.4639  8.6928 -0.7176
   57MOL0     H 7660   8.123   4.008   5.966  2.3736  0.9448 -0.9127
   57MOL0     H 7661   8.042   3.785   5.724 -0.0091 -0.7466  0.3823
   57MOL0     H 7662   7.923   3.880   5.813 -2.3915 -1.0796 -2.9679
   57MOL0     H 7663   7.868   3.997   5.591 -1.3570 -0.9187  2.3424
   57MOL0     H 7664   7.957   3.864   5.511 -1.4575  2.1021 -1.1301
   57MOL0     H 7665   7.741   3.791   5.702 -1.9362 -0.2018 -0.7949
   57MOL0     H 7666   7.810   3.691   5.576  0.4298  0.7142 -1.6005
   57MOL0     H 7667   7.625   3.933   5.544  0.4173 -0.4763  1.5336
   57MOL0     H 7668   7.681   3.846   5.411  4.2154  1.7704 -0.0668
   57MOL0     H 7669   7.450   3.800   5.571  1.4006  1.7995 -0.1246
   57MOL0     H 7670   7.559   3.699   5.668 -4.2234  0.6156  0.8959
   57MOL0     H 7671   7.480   3.660   5.383  0.7365 -0.4142 -0.8216
   57MOL0     H 7672   7.603   3.560   5.471  1.2771  0.6285  0.4621
   57MOL0     H 7673   7.444   3.452   5.607  1.1560 -2.4692 -1.9674
   57MOL0     H 7674   7.383   3.438   5.448 -0.6060 -1.4130  0.7456
   57MOL0     H 7675   7.269   3.647   5.624  0.7509 -0.0725  0.4807
   57MOL0     H 7676   7.207   3.484   5.592 -0.0799 -2.7739 -4.0732
   57MOL0     H 7677   7.987   4.205   5.618  0.9681 -1.5116  0.2369
   57MOL0     H 7678   7.925   4.400   5.749  2.0836  0.9392 -1.0285
   57MOL0     H 7679   8.048   4.615   6.201  1.5269 -1.5781  4.2411
   57MOL0     H 7680   8.010   4.825   6.298 -1.0355  1.2984  1.6856
   57MOL0     H 7681   6.651   5.289   7.255  1.2821 -3.3574 -0.8484
   57MOL0     H 7682   6.424   5.413   7.227 -2.2092 -0.7378 -1.8356
   57MOL0     H 7683   5.885   5.153   7.080 -0.1900  0.0779 -0.5843
   57MOL0     H 7684   5.687   5.246   7.015  2.7126 -3.0850 -0.5039
   57MOL0     H 7685   5.510   5.617   7.238  0.4329  1.8016  0.7157
   57MOL0     H 7686   5.624   5.703   7.131 -3.0996  3.2064 -1.3202
   57MOL0     H 7687   5.356   5.577   7.053  0.2804 -0.5942  1.9373
   57MOL0     H 7688   5.479   5.655   6.946 -0.3594 -0.6461 -1.0712
   57MOL0     H 7689   5.315   5.808   6.989  0.2119 -0.3745 -0.1355
   57MOL0     H 7690   5.450   5.855   7.097  1.7931 -1.6746  0.7593
   57MOL0     H 7691   5.317   5.762   7.292  0.6644  2.7736  0.0677
   57MOL0     H 7692   5.205   5.681   7.185 -0.1995  0.5650 -0.6752
   57MOL0     H 7693   5.048   6.069   7.196 -0.1840  1.0489 -0.7897
   57MOL0     H 7694   5.764   5.582   7.273  0.3521 -0.5206  2.9864
   57MOL0     H 7695   5.981   5.472   7.358 -0.5169 -0.1658 -0.9897
   58MOL0     O 7696   4.910   9.722   2.926  0.1014 -0.1206  0.1271
   58MOL0     C 7697   4.963   9.803   3.003  0.3985 -0.1216  0.0848
   58MOL0     O 7698   4.956   9.940   3.005 -0.5768 -0.0024  0.2771
   58MOL0     C 7699   4.853   9.985   2.920 -0.0140 -0.2443 -0.4410
   58MOL0     C 7700   4.728  10.013   2.960 -0.2146 -0.0078  0.2341
   58MOL0     C 7701   4.639  10.064   2.873  1.4496 -0.2914 -0.4402
   58MOL0     C 7702   4.667  10.087   2.740 -0.5101  0.8977  0.7613
   58MOL0     O 7703   4.569  10.128   2.647 -0.6904 -0.9829 -0.0685
   58MOL0     C 7704   4.493  10.239   2.701  0.3059 -0.1969 -0.3558
   58MOL0     C 7705   4.401  10.292   2.588  0.2023  0.1211 -0.2893
   58MOL0     C 7706   4.331  10.426   2.608 -0.0797  0.0497 -0.2920
   58MOL0     C 7707   4.249  10.465   2.493 -0.0457  0.0844  0.3549
   58MOL0     C 7708   4.144  10.573   2.529 -0.2740  0.3353 -0.6019
   58MOL0     C 7709   4.087  10.642   2.402  0.3966 -0.0016  0.3780
   58MOL0     C 7710   3.956  10.716   2.439  0.5079  0.1128 -1.4140
   58MOL0     C 7711   3.887  10.772   2.313  0.1792  0.0808  0.6580
   58MOL0     N 7712   3.785  10.869   2.354  0.0424 -0.5198  0.0926
   58MOL0     C 7713   3.807  10.996   2.389 -0.5893  0.4462 -0.5533
   58MOL0     C 7714   3.685  11.063   2.414  0.1206  0.2150  0.1267
   58MOL0     C 7715   3.662  11.190   2.493 -0.0145 -0.2138 -0.0077
   58MOL0     C 7716   3.596  11.296   2.397  1.0529  0.4724  0.1268
   58MOL0     C 7717   3.463  11.249   2.338 -0.4226  0.4329  0.1681
   58MOL0     C 7718   3.381  11.357   2.275  0.1762  0.1365 -0.3860
   58MOL0     O 7719   3.465  11.417   2.174  0.2399 -1.1528 -0.6262
   58MOL0     C 7720   3.394  11.497   2.089 -0.0766 -0.4277 -0.4899
   58MOL0     C 7721   3.273  11.462   2.024  0.2287 -0.6812 -0.6876
   58MOL0     C 7722   3.201  11.552   1.943 -0.6806  0.3738 -0.9974
   58MOL0     C 7723   3.081  11.495   1.883 -1.1945 -0.3548  0.6237
   58MOL0     C 7724   3.244  11.676   1.926  0.3167 -0.5481  0.6299
   58MOL0     C 7725   3.179  11.783   1.853 -0.9877  0.6163  0.0911
   58MOL0     O 7726   3.158  11.753   1.726  0.2338 -0.7989 -0.0597
   58MOL0     C 7727   3.084  11.841   1.649  0.4719  0.8720 -0.3754
   58MOL0     C 7728   2.948  11.806   1.619 -0.0118 -0.1483  0.6074
   58MOL0     C 7729   2.870  11.887   1.534  0.0576  0.4153  0.5959
   58MOL0     C 7730   2.931  12.003   1.481  0.5003 -0.4654 -0.2021
   58MOL0     O 7731   2.850  12.086   1.407  0.3951  0.2044 -0.1356
   58MOL0     C 7732   2.903  12.216   1.349  0.9854  0.0579  0.2115
   58MOL0     C 7733   2.795  12.275   1.270 -0.1347 -0.9922  1.2104
   58MOL0     C 7734   2.681  12.331   1.342  0.9995 -0.5539 -0.5194
   58MOL0     C 7735   2.552  12.255   1.303 -0.3224  0.0948  0.3502
   58MOL0     C 7736   2.435  12.298   1.398 -0.1515 -0.6241 -0.4472
   58MOL0     C 7737   2.301  12.239   1.364  0.1402  0.2810  0.2485
   58MOL0     C 7738   2.188  12.301   1.460 -0.2083 -0.0563  0.0378
   58MOL0     C 7739   2.172  12.229   1.592 -0.4156  0.6493  0.2310
   58MOL0    Cl 7740   2.084  12.071   1.565  0.2597  0.0850 -0.1541
   58MOL0     C 7741   3.060  12.037   1.510  0.0167 -1.1943 -0.2546
   58MOL0     C 7742   3.134  11.966   1.600 -0.0425 -0.0339 -1.0578
   58MOL0     O 7743   3.136  11.882   1.918  0.2732  0.8300  0.4119
   58MOL0     C 7744   3.373  11.710   1.981  0.8471 -0.5691 -0.9700
   58MOL0     C 7745   3.445  11.626   2.064  0.2070  0.8308  0.8983
   58MOL0     N 7746   3.591  10.962   2.395  0.8887 -0.7272  0.3259
   58MOL0     N 7747   3.650  10.854   2.358  0.6953 -0.6197 -0.0573
   58MOL0     C 7748   4.795  10.049   2.692 -0.6082 -0.3273 -0.6297
   58MOL0     C 7749   4.893  10.006   2.786 -0.3877  0.5161 -0.0894
   58MOL0     C 7750   5.045   9.738   3.105 -0.2077  0.5400 -0.3583
   58MOL0     C 7751   5.054   9.600   3.132  0.5382  0.2642  0.1142
   58MOL0     C 7752   5.131   9.542   3.229 -0.7172 -0.2045  0.3367
   58MOL0     C 7753   5.213   9.621   3.308  0.4285  0.1095  0.5013
   58MOL0     O 7754   5.302   9.570   3.393 -0.0178 -0.2119  0.3660
   58MOL0     C 7755   5.422   9.584   3.331  0.1305  0.4757  0.1391
   58MOL0     C 7756   5.515   9.503   3.418  0.0789 -0.2501  0.4388
   58MOL0     C 7757   5.658   9.518   3.372  0.0319  1.7655  0.1129
   58MOL0     C 7758   5.698   9.669   3.352 -0.4210 -0.2725 -0.2825
   58MOL0     C 7759   5.849   9.691   3.362  0.4770 -0.9348 -0.6047
   58MOL0     C 7760   5.969   9.690   3.381  0.2571  0.0854 -0.1551
   58MOL0     C 7761   5.207   9.760   3.296  0.2667 -0.8451  0.4283
   58MOL0     C 7762   5.125   9.813   3.194  0.1504  0.0372 -0.8347
   58MOL0     H 7763   4.699  10.001   3.063  0.8733  1.6631  0.7668
   58MOL0     H 7764   4.535  10.075   2.903  1.2707  0.2761 -1.2228
   58MOL0     H 7765   4.422  10.213   2.780 -2.4579  2.0961 -1.8810
   58MOL0     H 7766   4.558  10.311   2.752  2.3854 -2.0335 -0.2872
   58MOL0     H 7767   4.446  10.308   2.490  0.0310  2.0145 -0.0919
   58MOL0     H 7768   4.313  10.227   2.590  0.0356  0.3309  1.7583
   58MOL0     H 7769   4.268  10.416   2.697 -1.4141 -1.5802 -1.3518
   58MOL0     H 7770   4.411  10.498   2.630  1.1017 -2.0200  2.9832
   58MOL0     H 7771   4.318  10.501   2.416 -1.8917  0.7570 -1.0572
   58MOL0     H 7772   4.195  10.379   2.451 -1.4022  0.9080  0.3814
   58MOL0     H 7773   4.067  10.517   2.582  0.2741  1.7812  1.8612
   58MOL0     H 7774   4.177  10.647   2.602 -4.7961  1.4823  0.6019
   58MOL0     H 7775   4.161  10.718   2.374  0.8240  0.6444  3.0546
   58MOL0     H 7776   4.079  10.568   2.321 -1.6812  0.4488  0.1000
   58MOL0     H 7777   3.886  10.647   2.488  1.2165  1.5264  1.8321
   58MOL0     H 7778   3.957  10.796   2.514 -3.8378  0.5008 -1.5054
   58MOL0     H 7779   3.850  10.691   2.249 -0.2381 -0.0363  1.0473
   58MOL0     H 7780   3.962  10.833   2.262  0.1035 -2.2113 -2.4706
   58MOL0     H 7781   3.907  11.032   2.409 -0.1638 -0.5046 -0.8957
   58MOL0     H 7782   3.599  11.167   2.580  1.1847  1.3261  1.3146
   58MOL0     H 7783   3.753  11.229   2.538  1.5832 -1.4326 -2.0210
   58MOL0     H 7784   3.671  11.318   2.321  2.8747  0.7657  1.9117
   58MOL0     H 7785   3.573  11.387   2.454 -2.6485 -0.5658  0.5759
   58MOL0     H 7786   3.401  11.208   2.418 -0.5016 -2.6619 -1.3501
   58MOL0     H 7787   3.476  11.177   2.257  2.0318  2.5154 -1.4397
   58MOL0     H 7788   3.357  11.427   2.356  3.6673  0.4374  0.5351
   58MOL0     H 7789   3.285  11.317   2.240 -1.3075  2.5602  0.6403
   58MOL0     H 7790   3.241  11.361   2.046  0.4664 -0.1170  2.7031
   58MOL0     H 7791   2.993  11.554   1.909  0.0438 -0.1580  5.3747
   58MOL0     H 7792   3.091  11.472   1.776 -0.1133 -3.6465  1.3090
   58MOL0     H 7793   3.065  11.399   1.933  1.2577 -0.7176  0.8655
   58MOL0     H 7794   2.902  11.717   1.661 -1.1897 -0.2287 -0.7881
   58MOL0     H 7795   2.769  11.853   1.514  0.5237 -0.1924 -0.9394
   58MOL0     H 7796   2.935  12.287   1.426 -0.3904 -2.0815  2.9696
   58MOL0     H 7797   2.989  12.204   1.283  0.9117  1.2655 -0.1128
   58MOL0     H 7798   2.843  12.348   1.204  1.7702 -3.2675 -0.0825
   58MOL0     H 7799   2.767  12.204   1.192 -1.2947  3.1940 -2.6649
   58MOL0     H 7800   2.667  12.437   1.317  2.1963 -0.2822 -0.0733
   58MOL0     H 7801   2.700  12.324   1.450 -3.9184 -2.0467  0.5282
   58MOL0     H 7802   2.514  12.289   1.206 -2.8217 -2.2523  0.3728
   58MOL0     H 7803   2.567  12.146   1.298 -1.2703 -0.0414 -3.5412
   58MOL0     H 7804   2.433  12.407   1.407 -3.4359 -0.6562  0.3702
   58MOL0     H 7805   2.466  12.255   1.494  0.2326 -0.4881 -0.5086
   58MOL0     H 7806   2.273  12.243   1.258 -4.6577 -0.6219  1.2179
   58MOL0     H 7807   2.306  12.132   1.388 -1.0025  0.3302  0.7847
   58MOL0     H 7808   2.099  12.282   1.400 -0.6224  0.9186  0.3329
   58MOL0     H 7809   2.195  12.409   1.478 -4.0999  0.3289  0.0866
   58MOL0     H 7810   2.116  12.292   1.661 -2.4050 -1.1356  0.3505
   58MOL0     H 7811   2.272  12.206   1.630 -0.2066 -1.1062 -1.2189
   58MOL0     H 7812   3.106  12.128   1.474  2.6950 -2.2017  0.3359
   58MOL0     H 7813   3.233  12.004   1.625 -0.5274  0.5676 -0.0192
   58MOL0     H 7814   3.396  11.816   1.980  0.2597 -0.4373 -1.7686
   58MOL0     H 7815   3.534  11.665   2.114 -0.9919  2.3886  1.9391
   58MOL0     H 7816   4.819  10.060   2.587 -2.4852  0.1285 -1.0339
   58MOL0     H 7817   4.995   9.983   2.759 -0.5825  0.0224 -0.4243
   58MOL0     H 7818   4.982   9.537   3.080  0.8425  0.1233 -0.1385
   58MOL0     H 7819   5.135   9.435   3.242  2.2486 -0.4560 -1.7026
   58MOL0     H 7820   5.423   9.542   3.230  0.4292 -3.7362  1.6756
   58MOL0     H 7821   5.448   9.690   3.339 -3.2329  1.4274  0.0955
   58MOL0     H 7822   5.486   9.398   3.410 -1.6397  0.2058  0.3794
   58MOL0     H 7823   5.507   9.528   3.524 -1.0240 -0.9311  0.5308
   58MOL0     H 7824   5.670   9.466   3.276 -0.0719  2.8176 -0.4797
   58MOL0     H 7825   5.735   9.475   3.437  0.2922 -1.0505 -1.8731
   58MOL0     H 7826   5.651   9.724   3.434  2.0623  0.6704  0.5965
   58MOL0     H 7827   5.668   9.714   3.257 -0.4808 -1.1967 -0.7172
   58MOL0     H 7828   6.075   9.678   3.367  1.1381  1.8716  3.6287
   58MOL0     H 7829   5.269   9.832   3.349 -1.9939  0.4450  1.4994
   58MOL0     H 7830   5.136   9.921   3.183  0.0461  0.1614  0.1271
   59MOL0     O 7831   8.724   0.536   0.454  0.0386  0.7946 -0.1452
   59MOL0     C 7832   8.759   0.439   0.388 -0.4732 -0.4738 -0.2061
   59MOL0     O 7833   8.674   0.336   0.344 -0.3497 -0.7276 -0.7193
   59MOL0     C 7834   8.547   0.340   0.392 -0.9472  0.4840  0.1377
   59MOL0     C 7835   8.530   0.314   0.523 -0.1898 -0.4102 -0.4109
   59MOL0     C 7836   8.403   0.300   0.571 -0.4307 -0.2429  0.2654
   59MOL0     C 7837   8.289   0.309   0.493  0.3646  0.3709 -0.3829
   59MOL0     O 7838   8.160   0.274   0.530  0.6954 -0.5012 -0.1676
   59MOL0     C 7839   8.135   0.256   0.665 -0.1503  0.4103 -0.1663
   59MOL0     C 7840   8.002   0.201   0.691 -0.5920 -0.3224 -0.3533
   59MOL0     C 7841   7.896   0.283   0.618 -0.6216  0.7327 -0.5798
   59MOL0     C 7842   7.756   0.207   0.635 -0.0617  1.1319  0.1748
   59MOL0     C 7843   7.765   0.062   0.585  0.1908 -0.3069 -0.0607
   59MOL0     C 7844   7.628   0.015   0.558  0.2242 -0.6081 -0.3461
   59MOL0     C 7845   7.631  -0.139   0.530 -0.4630 -0.9831  0.2906
   59MOL0     C 7846   7.731  -0.173   0.416  0.4053 -0.3413  0.8696
   59MOL0     N 7847   7.678  -0.132   0.280 -0.2131 -0.2102  0.4752
   59MOL0     C 7848   7.649  -0.005   0.226  0.6009 -0.1244  0.3420
   59MOL0     C 7849   7.599  -0.024   0.103  0.5308  0.8145  1.1007
   59MOL0     C 7850   7.524   0.076   0.007 -0.0695  0.1626  0.5448
   59MOL0     C 7851   7.609   0.201  -0.022  0.0188 -0.0671 -0.1322
   59MOL0     C 7852   7.535   0.320   0.031  0.0699 -0.1620 -0.8596
   59MOL0     C 7853   7.545   0.331   0.194  0.3872  0.9708  0.7197
   59MOL0     O 7854   7.451   0.242   0.251  0.1913 -0.0183  0.0709
   59MOL0     C 7855   7.328   0.278   0.247  0.3928 -1.4183 -0.0857
   59MOL0     C 7856   7.262   0.397   0.199 -0.6345 -0.3715  0.1823
   59MOL0     C 7857   7.133   0.417   0.196  0.2252  0.3761  0.0612
   59MOL0     C 7858   7.085   0.549   0.136  0.2543 -0.6902  0.0360
   59MOL0     C 7859   7.039   0.312   0.230 -0.1471 -0.7446 -0.3478
   59MOL0     C 7860   6.891   0.319   0.208 -0.1830  0.3790 -0.0692
   59MOL0     O 7861   6.836   0.197   0.231  0.1391  0.2855 -0.6684
   59MOL0     C 7862   6.700   0.191   0.224 -0.0198 -0.4513 -0.7598
   59MOL0     C 7863   6.631   0.147   0.332  0.5873 -0.5991 -0.1502
   59MOL0     C 7864   6.495   0.125   0.329 -0.2752  0.7873 -0.2861
   59MOL0     C 7865   6.424   0.145   0.208  0.1828 -0.4492  0.5762
   59MOL0     O 7866   6.295   0.116   0.192  0.6006 -1.2088  0.0903
   59MOL0     C 7867   6.221   0.050   0.295 -0.0706 -0.2041  0.4882
   59MOL0     C 7868   6.087  -0.010   0.240  0.0818 -0.6777  0.1947
   59MOL0     C 7869   6.000  -0.097   0.341  0.5013 -0.6898 -0.3862
   59MOL0     C 7870   6.067  -0.233   0.370 -0.5469 -0.2294 -1.0251
   59MOL0     C 7871   5.985  -0.310   0.475  0.7453  0.8967  0.3263
   59MOL0     C 7872   6.077  -0.410   0.540 -0.6269 -0.5842  0.1552
   59MOL0     C 7873   6.017  -0.536   0.593  0.5723  0.3447 -0.1765
   59MOL0     C 7874   6.099  -0.611   0.698  0.0843 -0.2906  0.1332
   59MOL0    Cl 7875   5.994  -0.750   0.760 -0.4067 -0.4311 -0.1741
   59MOL0     C 7876   6.493   0.194   0.096 -0.3957 -0.0589 -0.3011
   59MOL0     C 7877   6.629   0.212   0.106 -0.5207  0.4840  0.1727
   59MOL0     O 7878   6.825   0.417   0.195 -0.0916 -0.9858 -0.1006
   59MOL0     C 7879   7.095   0.194   0.265  0.3425 -0.1771 -0.7253
   59MOL0     C 7880   7.238   0.172   0.269 -0.6941 -0.2090  0.3084
   59MOL0     N 7881   7.592  -0.161   0.079 -0.3078 -0.1949  0.4872
   59MOL0     N 7882   7.641  -0.221   0.180  0.2726  0.3309 -0.6240
   59MOL0     C 7883   8.303   0.337   0.361  0.6986  0.4654  0.3561
   59MOL0     C 7884   8.433   0.356   0.305 -0.3840 -0.4873 -0.7135
   59MOL0     C 7885   8.900   0.439   0.337  0.2631 -0.0649 -0.9864
   59MOL0     C 7886   8.961   0.336   0.267 -0.4490 -1.4732 -0.2402
   59MOL0     C 7887   9.094   0.356   0.234 -0.1041 -0.5195 -0.1383
   59MOL0     C 7888   9.168   0.468   0.258 -0.3270 -0.6104  0.5207
   59MOL0     O 7889   9.297   0.467   0.208 -0.3364 -0.7767  0.8081
   59MOL0     C 7890   9.383   0.588   0.221  0.0117  0.3126  0.1258
   59MOL0     C 7891   9.517   0.567   0.159  0.0415  0.7438  0.1214
   59MOL0     C 7892   9.517   0.556   0.008 -0.0305 -0.2458 -0.3746
   59MOL0     C 7893   9.473   0.431  -0.066 -0.6149 -0.6687 -0.7208
   59MOL0     C 7894   9.593   0.340  -0.050  0.5961  0.0785  0.5036
   59MOL0     C 7895   9.692   0.275  -0.045 -0.3568 -0.5999  0.3460
   59MOL0     C 7896   9.101   0.577   0.313  0.8356  0.4310 -0.7154
   59MOL0     C 7897   8.974   0.563   0.352  0.8872  0.2414  0.6690
   59MOL0     H 7898   8.622   0.297   0.579 -0.7896 -5.3154 -0.4558
   59MOL0     H 7899   8.397   0.269   0.675  1.3499 -3.4845 -0.4633
   59MOL0     H 7900   8.210   0.187   0.703  0.3004  1.4878  0.9975
   59MOL0     H 7901   8.160   0.344   0.727  0.7035 -1.4464  2.2893
   59MOL0     H 7902   8.015   0.098   0.655  0.3874 -0.1492 -0.5431
   59MOL0     H 7903   7.973   0.200   0.796  1.5500 -2.8194  0.3480
   59MOL0     H 7904   7.903   0.382   0.664  1.3549  0.1639  0.4630
   59MOL0     H 7905   7.929   0.277   0.515 -3.0966 -1.9556 -1.3445
   59MOL0     H 7906   7.733   0.208   0.742  0.2474 -0.7314  0.2900
   59MOL0     H 7907   7.689   0.273   0.579 -0.0006  0.7847 -0.3175
   59MOL0     H 7908   7.826   0.057   0.494 -2.0820 -1.5303 -1.6348
   59MOL0     H 7909   7.798  -0.000   0.669 -1.2697  0.3830  1.0812
   59MOL0     H 7910   7.565   0.045   0.642 -4.0079 -3.3705 -2.1785
   59MOL0     H 7911   7.593   0.068   0.468 -1.4454  2.1924  1.7741
   59MOL0     H 7912   7.660  -0.194   0.620 -0.1989 -0.7698  0.3380
   59MOL0     H 7913   7.532  -0.175   0.502 -0.7851  1.7918 -2.7105
   59MOL0     H 7914   7.737  -0.282   0.425 -2.1472 -0.3518  4.4527
   59MOL0     H 7915   7.831  -0.129   0.428  1.2291 -1.7605 -0.3378
   59MOL0     H 7916   7.660   0.083   0.290 -0.7320 -0.0899  0.5427
   59MOL0     H 7917   7.522   0.035  -0.094 -1.2712  1.6744 -0.0769
   59MOL0     H 7918   7.422   0.092   0.042 -0.2879 -0.0701  0.0092
   59MOL0     H 7919   7.621   0.213  -0.130  2.2427 -2.7430 -0.2981
   59MOL0     H 7920   7.705   0.184   0.026 -1.1070 -0.0004  2.3046
   59MOL0     H 7921   7.428   0.306   0.011 -0.2295  0.3988  0.2778
   59MOL0     H 7922   7.565   0.414  -0.018  3.3281 -0.1402  0.8980
   59MOL0     H 7923   7.530   0.436   0.220  0.6796  1.6756 -1.6665
   59MOL0     H 7924   7.649   0.310   0.220  0.3877 -0.7869 -0.5213
   59MOL0     H 7925   7.319   0.484   0.166  1.4972 -0.6081  2.8769
   59MOL0     H 7926   7.000   0.533   0.069  0.6793 -0.1890 -0.6292
   59MOL0     H 7927   7.052   0.614   0.218  2.8081  0.0155  0.5871
   59MOL0     H 7928   7.165   0.602   0.084  1.9814 -3.9734 -0.9095
   59MOL0     H 7929   6.694   0.118   0.415  1.4866  0.5605 -0.4044
   59MOL0     H 7930   6.451   0.085   0.419 -0.3798 -1.0089 -1.0831
   59MOL0     H 7931   6.280  -0.036   0.328 -1.1230 -1.5906 -1.0643
   59MOL0     H 7932   6.203   0.119   0.377 -0.5988 -2.2887  2.2203
   59MOL0     H 7933   6.016   0.069   0.210  1.7880 -0.3926 -3.7028
   59MOL0     H 7934   6.112  -0.076   0.156  1.4693 -0.4619  0.4201
   59MOL0     H 7935   5.897  -0.121   0.314 -0.3020  2.0283 -0.0705
   59MOL0     H 7936   6.011  -0.047   0.437 -0.4197 -0.1491 -0.5492
   59MOL0     H 7937   6.091  -0.283   0.276  2.4114  2.0116 -1.6045
   59MOL0     H 7938   6.160  -0.207   0.420 -0.7511 -0.5408 -0.4695
   59MOL0     H 7939   5.900  -0.356   0.424 -1.0706  2.4285  1.7998
   59MOL0     H 7940   5.933  -0.244   0.545  0.6119 -0.1303  1.2280
   59MOL0     H 7941   6.149  -0.437   0.462  1.5353  2.0269  1.1193
   59MOL0     H 7942   6.126  -0.358   0.623 -0.8293  1.0359 -0.7095
   59MOL0     H 7943   5.984  -0.605   0.515 -2.5099  0.7304  0.6644
   59MOL0     H 7944   5.931  -0.498   0.648 -1.0406 -2.3205 -0.7025
   59MOL0     H 7945   6.134  -0.540   0.773  0.0441 -0.4129  0.2686
   59MOL0     H 7946   6.183  -0.656   0.644 -1.1072  1.9602 -4.0026
   59MOL0     H 7947   6.442   0.203   0.000  0.3110 -2.7089 -1.0142
   59MOL0     H 7948   6.688   0.248   0.023  1.0862  0.5227  1.2832
   59MOL0     H 7949   7.036   0.106   0.289  0.9468 -0.5483 -0.5484
   59MOL0     H 7950   7.287   0.076   0.281  1.6207  0.7444 -0.8261
   59MOL0     H 7951   8.213   0.344   0.301  1.9893  0.1136 -1.7318
   59MOL0     H 7952   8.451   0.385   0.202  2.6640 -1.1655 -0.4538
   59MOL0     H 7953   8.896   0.251   0.247 -0.6397 -0.8557 -2.5802
   59MOL0     H 7954   9.149   0.283   0.174  0.0254  0.2669 -0.9885
   59MOL0     H 7955   9.340   0.681   0.183 -1.0385 -0.1609  0.1448
   59MOL0     H 7956   9.397   0.598   0.329  0.9306 -2.2428  0.3099
   59MOL0     H 7957   9.569   0.483   0.205  1.1743  1.1434 -0.4025
   59MOL0     H 7958   9.574   0.656   0.187  1.7575 -0.1185 -0.4582
   59MOL0     H 7959   9.618   0.581  -0.026  1.3426 -5.4317 -1.0709
   59MOL0     H 7960   9.451   0.632  -0.036 -0.6278 -0.5031  0.0618
   59MOL0     H 7961   9.439   0.448  -0.169 -0.0558  0.4887 -0.7334
   59MOL0     H 7962   9.384   0.392  -0.017 -2.3320  2.6398 -0.8811
   59MOL0     H 7963   9.791   0.237  -0.026  1.2489  1.8082 -2.3404
   59MOL0     H 7964   9.147   0.673   0.331  1.8715  0.5322 -3.4761
   59MOL0     H 7965   8.928   0.653   0.393 -0.5584  0.7612 -1.8646
   60MOL0     O 7966   0.008   6.541   4.113  0.3138 -0.3589 -0.4166
   60MOL0     C 7967   0.091   6.617   4.061 -0.3674  0.0455  0.6276
   60MOL0     O 7968   0.206   6.565   4.004  0.2270 -0.8996  0.5253
   60MOL0     C 7969   0.246   6.444   4.055 -0.8980 -0.2244 -0.1478
   60MOL0     C 7970   0.264   6.350   3.957  0.7338 -0.0894  0.0543
   60MOL0     C 7971   0.311   6.224   3.977  0.2017  1.0435 -0.4947
   60MOL0     C 7972   0.354   6.180   4.105  0.1908 -0.4544  0.9705
   60MOL0     O 7973   0.423   6.069   4.132 -0.3165  0.1225 -0.0271
   60MOL0     C 7974   0.537   6.048   4.044  0.8326  0.7929  1.1376
   60MOL0     C 7975   0.606   5.923   4.090 -0.6870 -0.3498 -0.0641
   60MOL0     C 7976   0.657   5.940   4.232 -0.8905 -0.4773  0.4208
   60MOL0     C 7977   0.778   5.853   4.274 -0.4449 -0.9704  0.5057
   60MOL0     C 7978   0.851   5.897   4.403  0.0591 -0.2679  0.4108
   60MOL0     C 7979   0.968   6.009   4.402  0.8212  0.1931 -0.4417
   60MOL0     C 7980   0.907   6.146   4.364 -0.7083 -0.7016  0.6807
   60MOL0     C 7981   0.914   6.175   4.219 -0.7371 -0.2428 -0.3652
   60MOL0     N 7982   0.864   6.314   4.193  0.3825  0.0399 -0.9024
   60MOL0     C 7983   0.733   6.364   4.187 -0.1000  0.1303 -0.0050
   60MOL0     C 7984   0.734   6.503   4.184  0.3633 -0.2432  0.0478
   60MOL0     C 7985   0.606   6.586   4.165  0.4405  0.1541 -0.2594
   60MOL0     C 7986   0.615   6.726   4.233  0.1017  0.6947  0.2585
   60MOL0     C 7987   0.498   6.816   4.195  0.1404  0.5248 -0.9715
   60MOL0     C 7988   0.505   6.952   4.264  0.0726  0.4701 -0.0154
   60MOL0     O 7989   0.405   7.034   4.203 -0.5115 -0.3959 -0.0027
   60MOL0     C 7990   0.342   7.119   4.287 -0.2348  0.4043  0.4734
   60MOL0     C 7991   0.209   7.106   4.320  1.2358  0.0952  0.4706
   60MOL0     C 7992   0.137   7.197   4.400 -0.0697 -0.7639  0.2909
   60MOL0     C 7993  -0.010   7.163   4.419 -0.0019 -0.5496  0.6772
   60MOL0     C 7994   0.208   7.314   4.451 -0.7037  0.2496 -0.1820
   60MOL0     C 7995   0.142   7.396   4.559 -0.0584 -0.5874 -0.0203
   60MOL0     O 7996   0.034   7.345   4.619  0.0277  0.1338 -0.8213
   60MOL0     C 7997  -0.046   7.410   4.714  0.3957  1.0063 -0.2548
   60MOL0     C 7998  -0.003   7.501   4.815  0.1129 -0.0219 -0.7206
   60MOL0     C 7999  -0.104   7.576   4.895  0.2882  0.5322  0.3849
   60MOL0     C 8000  -0.238   7.545   4.880  0.5495  0.0602 -0.6139
   60MOL0     O 8001  -0.338   7.614   4.952 -0.0982 -1.0039  0.7054
   60MOL0     C 8002  -0.308   7.692   5.070  1.1300  0.9280 -0.0584
   60MOL0     C 8003  -0.292   7.846   5.051 -0.9783 -0.3652  0.5258
   60MOL0     C 8004  -0.422   7.902   4.987  1.1795 -0.8329  0.7821
   60MOL0     C 8005  -0.440   8.055   5.006  0.3248 -0.0442 -0.2994
   60MOL0     C 8006  -0.564   8.095   4.927 -0.1411 -0.4411  0.5114
   60MOL0     C 8007  -0.585   8.248   4.927  1.1596 -0.4891 -0.6590
   60MOL0     C 8008  -0.673   8.301   4.811 -0.2562  0.4698 -0.0032
   60MOL0     C 8009  -0.642   8.446   4.765  0.2828 -0.2143 -0.9555
   60MOL0    Cl 8010  -0.672   8.476   4.597  0.4866 -0.0481 -0.4807
   60MOL0     C 8011  -0.273   7.453   4.786 -0.3118 -0.1780 -0.3355
   60MOL0     C 8012  -0.184   7.384   4.706 -0.3847 -0.0276  0.6971
   60MOL0     O 8013   0.184   7.510   4.580 -1.0840  0.1392  1.1983
   60MOL0     C 8014   0.343   7.327   4.402  0.1019 -0.4137  0.2422
   60MOL0     C 8015   0.405   7.237   4.324 -0.0536 -0.1611  0.0988
   60MOL0     N 8016   0.870   6.543   4.187  0.4032  0.1703  0.8568
   60MOL0     N 8017   0.939   6.428   4.193  0.1537  0.1221 -0.1183
   60MOL0     C 8018   0.337   6.276   4.209  1.0161 -0.6065 -0.1297
   60MOL0     C 8019   0.279   6.404   4.180  0.2353 -1.0601  0.5774
   60MOL0     C 8020   0.054   6.757   4.026 -0.0341 -0.2237  0.3886
   60MOL0     C 8021  -0.077   6.808   4.046 -0.3184 -0.0298 -0.2279
   60MOL0     C 8022  -0.102   6.938   4.009 -0.1185 -0.4922 -0.5001
   60MOL0     C 8023  -0.000   7.024   3.958 -0.5663  0.0802 -0.1558
   60MOL0     O 8024  -0.027   7.157   3.930 -0.4526 -0.1898 -0.2685
   60MOL0     C 8025  -0.139   7.218   4.001 -0.0893  0.9730 -0.0487
   60MOL0     C 8026  -0.149   7.361   3.968  0.3176 -0.2360  0.2968
   60MOL0     C 8027  -0.008   7.429   3.961  0.4265  0.2445  0.8138
   60MOL0     C 8028   0.043   7.427   4.116 -0.1272 -1.2453 -1.0008
   60MOL0     C 8029  -0.036   7.500   4.218  0.3130  0.5236 -0.1210
   60MOL0     C 8030  -0.116   7.546   4.291 -0.5113 -0.0547  1.1100
   60MOL0     C 8031   0.126   6.966   3.935  0.3055 -0.6598  0.4267
   60MOL0     C 8032   0.151   6.838   3.979 -0.3686  0.1536  0.3130
   60MOL0     H 8033   0.227   6.379   3.859 -3.7068 -0.5939  1.3297
   60MOL0     H 8034   0.331   6.158   3.893  2.6892  0.3432  0.5517
   60MOL0     H 8035   0.499   6.022   3.945 -0.5998  2.2068  1.2845
   60MOL0     H 8036   0.605   6.133   4.035 -0.6401  1.9310  0.3397
   60MOL0     H 8037   0.538   5.838   4.094  1.7347 -2.4232  4.1912
   60MOL0     H 8038   0.684   5.917   4.013  2.1319  0.3609  2.5254
   60MOL0     H 8039   0.688   6.044   4.241 -0.0701 -0.4701 -1.8505
   60MOL0     H 8040   0.581   5.914   4.306 -0.5684 -3.6211 -0.2247
   60MOL0     H 8041   0.744   5.750   4.285 -1.2029 -1.4478 -4.1578
   60MOL0     H 8042   0.857   5.851   4.199 -3.2036 -2.8634 -2.6182
   60MOL0     H 8043   0.779   5.920   4.482 -0.7187 -0.4953 -0.2204
   60MOL0     H 8044   0.915   5.812   4.427  1.3389  1.3584  3.1968
   60MOL0     H 8045   1.018   6.031   4.497  1.6864 -1.6978 -0.4236
   60MOL0     H 8046   1.049   5.985   4.334  1.8848 -0.3221  0.9623
   60MOL0     H 8047   0.808   6.157   4.410 -0.8355  0.4728  0.1507
   60MOL0     H 8048   0.978   6.218   4.405 -0.0737  0.1248 -1.7300
   60MOL0     H 8049   0.859   6.106   4.154  2.4527 -2.1736 -1.2150
   60MOL0     H 8050   1.020   6.186   4.196 -0.9696 -0.9689 -1.9258
   60MOL0     H 8051   0.645   6.301   4.174  0.5038 -0.5415 -0.9756
   60MOL0     H 8052   0.584   6.615   4.062  2.2924  0.7771 -0.5185
   60MOL0     H 8053   0.519   6.539   4.213  0.1421  1.4899  0.5703
   60MOL0     H 8054   0.704   6.782   4.205 -0.0054 -0.1286 -1.9193
   60MOL0     H 8055   0.632   6.704   4.339  1.4507 -1.8696 -0.4017
   60MOL0     H 8056   0.414   6.751   4.223  1.3238 -1.3646 -1.6145
   60MOL0     H 8057   0.501   6.822   4.086  0.1418 -1.3214 -1.1104
   60MOL0     H 8058   0.604   6.995   4.251  0.7006 -1.3791 -1.8733
   60MOL0     H 8059   0.492   6.933   4.371  0.0371 -1.8318 -0.3644
   60MOL0     H 8060   0.160   7.021   4.272 -0.3789  1.7790 -1.0180
   60MOL0     H 8061  -0.037   7.098   4.336  3.2904  1.4555 -2.2707
   60MOL0     H 8062  -0.030   7.107   4.511 -1.4301 -0.0059  0.7184
   60MOL0     H 8063  -0.075   7.250   4.411 -1.0927 -1.4882 -1.1475
   60MOL0     H 8064   0.102   7.523   4.832  0.6872 -2.4016 -0.9512
   60MOL0     H 8065  -0.080   7.653   4.968  0.1258 -0.1693  1.1893
   60MOL0     H 8066  -0.387   7.681   5.145 -0.2681 -0.0532 -1.5952
   60MOL0     H 8067  -0.221   7.654   5.124  0.5059  1.1995  1.1787
   60MOL0     H 8068  -0.281   7.886   5.153  0.1055  0.4026  0.1278
   60MOL0     H 8069  -0.206   7.872   4.989 -0.9641 -2.1315 -0.2537
   60MOL0     H 8070  -0.511   7.851   5.025 -0.4513  2.4832  1.7851
   60MOL0     H 8071  -0.415   7.898   4.878 -0.6773  0.4956  0.5543
   60MOL0     H 8072  -0.450   8.071   5.114  0.9221 -1.6005  0.0231
   60MOL0     H 8073  -0.353   8.109   4.968  2.1819 -1.2040  1.9889
   60MOL0     H 8074  -0.651   8.045   4.971  0.0649 -0.5996  0.7388
   60MOL0     H 8075  -0.551   8.057   4.825 -0.4222 -1.2066  0.7537
   60MOL0     H 8076  -0.634   8.278   5.020 -0.4918  0.0631 -1.6525
   60MOL0     H 8077  -0.493   8.307   4.927  0.0041  1.5337 -2.8166
   60MOL0     H 8078  -0.776   8.288   4.845  0.6868 -3.1443  1.9140
   60MOL0     H 8079  -0.664   8.226   4.732 -2.1539 -2.1622  2.1321
   60MOL0     H 8080  -0.538   8.474   4.782  0.2111 -0.9232  0.8974
   60MOL0     H 8081  -0.704   8.507   4.832  0.9215  0.0335 -0.5823
   60MOL0     H 8082  -0.374   7.413   4.782 -0.9773  0.7228  3.5074
   60MOL0     H 8083  -0.211   7.311   4.630 -1.3945  0.6654  0.3648
   60MOL0     H 8084   0.388   7.419   4.436 -1.7452  0.8194 -0.4676
   60MOL0     H 8085   0.499   7.255   4.272 -0.2174  0.9687  0.1670
   60MOL0     H 8086   0.359   6.245   4.311 -1.8211 -3.4060 -0.2163
   60MOL0     H 8087   0.272   6.475   4.262 -0.2097 -1.0259  0.5157
   60MOL0     H 8088  -0.163   6.760   4.093 -1.4584  2.6943  0.7031
   60MOL0     H 8089  -0.199   6.987   4.006  0.6111  1.2716 -5.8260
   60MOL0     H 8090  -0.233   7.170   3.971 -0.0779  1.0746 -0.2457
   60MOL0     H 8091  -0.136   7.201   4.109 -2.0221 -0.7845 -0.2161
   60MOL0     H 8092  -0.218   7.408   4.039 -0.1134 -1.3881  0.6733
   60MOL0     H 8093  -0.181   7.368   3.864  1.4975  0.7795 -0.0217
   60MOL0     H 8094  -0.014   7.527   3.912  1.6860 -0.3501 -0.6248
   60MOL0     H 8095   0.063   7.367   3.905 -1.0194 -0.6330 -0.1363
   60MOL0     H 8096   0.139   7.479   4.116 -1.0277  0.5495 -2.2191
   60MOL0     H 8097   0.049   7.324   4.151  1.2840 -0.5862  0.8799
   60MOL0     H 8098  -0.179   7.593   4.364 -0.1122  1.1738  0.6864
   60MOL0     H 8099   0.201   7.028   3.885 -2.9700  2.1608 -1.4463
   60MOL0     H 8100   0.251   6.798   3.967 -1.8539 -3.3349 -2.0124
   61MOL0     O 8101   3.825   6.849  10.611 -0.5044  0.0058 -0.3909
   61MOL0     C 8102   3.806   6.741  10.555 -0.0131  0.3190  0.4183
   61MOL0     O 8103   3.743   6.717  10.436  0.3056 -0.8810  0.3540
   61MOL0     C 8104   3.711   6.828  10.365  0.5035 -0.2800 -0.2522
   61MOL0     C 8105   3.803   6.926  10.337 -0.5731 -0.3859 -0.1933
   61MOL0     C 8106   3.758   7.043  10.270  0.1523  0.2569 -0.0327
   61MOL0     C 8107   3.626   7.052  10.238 -0.6319  0.0086  0.4377
   61MOL0     O 8108   3.566   7.166  10.183 -0.2312 -0.3405  0.0042
   61MOL0     C 8109   3.562   7.165  10.036  0.0371  0.2188 -0.5987
   61MOL0     C 8110   3.507   7.303   9.997 -0.5790 -1.3032  0.2275
   61MOL0     C 8111   3.477   7.332   9.848  0.4576  0.7236 -0.5663
   61MOL0     C 8112   3.474   7.484   9.833 -0.5158  0.5866 -0.5946
   61MOL0     C 8113   3.389   7.565   9.939  0.5737  0.3846  0.5491
   61MOL0     C 8114   3.370   7.701   9.889  0.1576  0.1259  0.9865
   61MOL0     C 8115   3.259   7.717   9.792 -0.2275 -0.0183  0.9068
   61MOL0     C 8116   3.248   7.850   9.729  0.0221 -0.6341 -0.2694
   61MOL0     N 8117   3.103   7.876   9.696 -0.1096  0.7282  0.2681
   61MOL0     C 8118   2.995   7.878   9.776 -0.0279 -0.0529 -0.9694
   61MOL0     C 8119   2.898   7.931   9.705 -0.0897  0.2279  0.0161
   61MOL0     C 8120   2.772   7.985   9.761 -0.6766 -0.0360  0.1365
   61MOL0     C 8121   2.639   7.915   9.723 -0.0912  0.4090  0.4185
   61MOL0     C 8122   2.625   7.777   9.788  0.2589  0.8188 -0.6009
   61MOL0     C 8123   2.485   7.707   9.764  0.5242  0.3595  0.1910
   61MOL0     O 8124   2.374   7.795   9.787 -0.5215  0.1747  0.2818
   61MOL0     C 8125   2.249   7.757   9.763  0.0653 -0.5817 -0.4546
   61MOL0     C 8126   2.202   7.630   9.727 -0.0795 -0.0208 -0.2710
   61MOL0     C 8127   2.068   7.595   9.711 -0.7079  0.0576 -0.6686
   61MOL0     C 8128   2.029   7.450   9.692  0.1205 -0.0115 -0.3753
   61MOL0     C 8129   1.980   7.704   9.714 -0.1178 -0.8371  0.5966
   61MOL0     C 8130   1.827   7.691   9.696 -0.7622 -0.0778  0.0543
   61MOL0     O 8131   1.770   7.573   9.688  0.3479 -0.8287  0.5068
   61MOL0     C 8132   1.632   7.557   9.678 -0.7438 -0.8035 -0.5488
   61MOL0     C 8133   1.560   7.634   9.591 -0.1055 -0.0358 -0.3519
   61MOL0     C 8134   1.419   7.594   9.573  0.2078  0.6296  0.0923
   61MOL0     C 8135   1.368   7.475   9.629  0.8669  0.4627  1.5278
   61MOL0     O 8136   1.238   7.445   9.598 -0.0743 -0.1809  0.1273
   61MOL0     C 8137   1.178   7.345   9.689 -0.3810  1.5038  1.3308
   61MOL0     C 8138   1.024   7.324   9.655 -0.2764  0.4224 -0.2428
   61MOL0     C 8139   0.943   7.240   9.766 -0.3066  0.4601  0.5476
   61MOL0     C 8140   0.793   7.237   9.730 -1.2039  0.0088 -0.3662
   61MOL0     C 8141   0.711   7.148   9.815 -0.7505  0.0967  0.3243
   61MOL0     C 8142   0.568   7.137   9.778 -0.0535 -0.0219  0.4172
   61MOL0     C 8143   0.516   7.039   9.887  0.2010  0.9658 -0.0834
   61MOL0     C 8144   0.361   7.030   9.879  0.1453  0.6173 -0.0465
   61MOL0    Cl 8145   0.317   6.891   9.980 -0.6103  0.0705  0.1023
   61MOL0     C 8146   1.458   7.400   9.708 -0.5071  0.0649 -0.3978
   61MOL0     C 8147   1.583   7.444   9.738  1.1300  0.0212  0.4538
   61MOL0     O 8148   1.757   7.796   9.706  0.2477  0.0524 -0.4429
   61MOL0     C 8149   2.027   7.838   9.734  0.0170  0.1197 -0.4595
   61MOL0     C 8150   2.160   7.860   9.770 -0.0772  0.0392 -0.2837
   61MOL0     N 8151   2.933   7.951   9.578 -0.4079  0.1730  0.1412
   61MOL0     N 8152   3.063   7.915   9.570  0.2286 -0.0886  0.4134
   61MOL0     C 8153   3.538   6.946  10.263 -0.4842  0.7611  0.3955
   61MOL0     C 8154   3.578   6.836  10.326 -0.4932 -0.0564 -0.0819
   61MOL0     C 8155   3.870   6.626  10.631 -0.6348 -0.5962 -0.3202
   61MOL0     C 8156   3.905   6.647  10.769 -0.2748  0.1576  0.3417
   61MOL0     C 8157   3.954   6.536  10.846  0.1557 -0.3086  1.1016
   61MOL0     C 8158   3.982   6.421  10.778 -0.6165  0.2072  0.1211
   61MOL0     O 8159   4.027   6.315  10.852 -0.2880  0.7609  0.1266
   61MOL0     C 8160   3.937   6.257  10.941 -0.4199  0.5708 -0.3711
   61MOL0     C 8161   4.017   6.165  11.022  0.4725  1.0434  0.9313
   61MOL0     C 8162   3.923   6.093  11.122 -0.6213 -0.1984  0.7209
   61MOL0     C 8163   3.986   5.986  11.198  0.3950 -0.0894 -0.0873
   61MOL0     C 8164   3.867   5.921  11.259 -0.4226 -0.2017 -1.3553
   61MOL0     C 8165   3.778   5.869  11.328  0.0470 -0.1651  0.5469
   61MOL0     C 8166   3.948   6.401  10.640  0.7361  0.0827 -1.0086
   61MOL0     C 8167   3.883   6.503  10.570  0.6843  0.3629  0.1073
   61MOL0     H 8168   3.906   6.931  10.371 -0.6975  2.8273  0.0336
   61MOL0     H 8169   3.835   7.113  10.242  3.1985 -1.5575  3.0342
   61MOL0     H 8170   3.662   7.157   9.993 -0.2209 -0.0620 -1.1540
   61MOL0     H 8171   3.491   7.088  10.006 -0.7151  0.1611  1.1687
   61MOL0     H 8172   3.415   7.325  10.053  0.7613 -0.7740  2.3368
   61MOL0     H 8173   3.577   7.374  10.043 -1.7938  0.4412 -0.4877
   61MOL0     H 8174   3.555   7.294   9.781  0.2331  0.1776 -0.5222
   61MOL0     H 8175   3.382   7.287   9.819 -0.3080  1.1635  1.1452
   61MOL0     H 8176   3.577   7.519   9.845 -1.3416  2.6070  1.2521
   61MOL0     H 8177   3.442   7.508   9.731  1.2389  1.5164 -0.9630
   61MOL0     H 8178   3.294   7.514   9.958  1.2225 -1.2971 -0.4687
   61MOL0     H 8179   3.453   7.562  10.028  4.5279  2.7743 -1.8930
   61MOL0     H 8180   3.365   7.764   9.978 -1.2106 -2.7244  3.1146
   61MOL0     H 8181   3.461   7.729   9.836  0.4864 -0.0939  1.4288
   61MOL0     H 8182   3.266   7.651   9.706 -1.4311  0.9751  0.0156
   61MOL0     H 8183   3.169   7.694   9.849 -0.5889  0.1371  0.4014
   61MOL0     H 8184   3.311   7.849   9.640  1.0721  0.3781  0.4369
   61MOL0     H 8185   3.287   7.930   9.792  3.4353 -1.8103 -0.7070
   61MOL0     H 8186   2.995   7.857   9.882  0.6343  2.0276 -0.5118
   61MOL0     H 8187   2.778   8.006   9.868  0.5804 -1.0107  0.2663
   61MOL0     H 8188   2.769   8.077   9.701  1.6654 -0.5413 -0.8446
   61MOL0     H 8189   2.617   7.909   9.616 -3.2659  2.0967  0.8462
   61MOL0     H 8190   2.559   7.978   9.762  1.1828  2.6859 -0.4597
   61MOL0     H 8191   2.639   7.787   9.896  3.8186  3.3143 -1.1388
   61MOL0     H 8192   2.699   7.698   9.771  0.2038  0.6753 -0.1915
   61MOL0     H 8193   2.481   7.628   9.839 -0.0336  1.8395  1.8004
   61MOL0     H 8194   2.486   7.657   9.667 -1.9094  0.2744  0.1611
   61MOL0     H 8195   2.278   7.553   9.726 -1.7825 -1.8784 -3.8656
   61MOL0     H 8196   1.980   7.449   9.594 -0.8843  1.2657  0.0940
   61MOL0     H 8197   2.117   7.384   9.696 -1.6825 -2.4780  1.7496
   61MOL0     H 8198   1.962   7.414   9.770 -2.5407 -0.0302 -2.5460
   61MOL0     H 8199   1.587   7.720   9.530 -3.4781  2.5291  1.3919
   61MOL0     H 8200   1.358   7.653   9.505 -0.0741  2.2528  1.6826
   61MOL0     H 8201   1.236   7.252   9.689  0.5560  2.0577  2.2719
   61MOL0     H 8202   1.172   7.386   9.791 -1.0596  3.0907  0.6854
   61MOL0     H 8203   0.976   7.422   9.644 -2.0602  0.0516  3.0671
   61MOL0     H 8204   1.022   7.268   9.561 -2.5819 -1.8641  1.0549
   61MOL0     H 8205   0.947   7.269   9.871 -1.1483 -4.2422  2.1088
   61MOL0     H 8206   0.974   7.135   9.767 -0.0433  0.3859 -2.8265
   61MOL0     H 8207   0.753   7.339   9.736 -0.3662  0.5981 -3.1460
   61MOL0     H 8208   0.780   7.210   9.625  3.5124 -0.1633 -1.1366
   61MOL0     H 8209   0.722   7.177   9.920 -1.4496  0.9297  0.1872
   61MOL0     H 8210   0.753   7.048   9.803 -0.9779  0.1934 -1.7436
   61MOL0     H 8211   0.521   7.235   9.791 -1.1551 -0.4564 -0.0839
   61MOL0     H 8212   0.548   7.105   9.675  3.8271  2.4312 -1.3153
   61MOL0     H 8213   0.543   7.075   9.987  1.4869  3.2930 -1.2019
   61MOL0     H 8214   0.560   6.940   9.871 -0.5414  0.4924  0.7001
   61MOL0     H 8215   0.332   7.012   9.775  1.0749  0.7601 -0.3386
   61MOL0     H 8216   0.309   7.121   9.910 -0.8084  0.3778 -0.8851
   61MOL0     H 8217   1.411   7.321   9.765 -0.3399 -1.4191 -2.2016
   61MOL0     H 8218   1.659   7.387   9.791 -0.7407 -0.6415  2.5992
   61MOL0     H 8219   1.948   7.911   9.721  0.0291 -0.2448 -3.1608
   61MOL0     H 8220   2.192   7.962   9.789 -0.1598 -0.3599  2.5230
   61MOL0     H 8221   3.434   6.959  10.237 -0.6107 -0.7811  0.0061
   61MOL0     H 8222   3.506   6.758  10.347  0.0675 -0.7350 -0.6299
   61MOL0     H 8223   3.892   6.738  10.826  4.7254 -0.6386  3.3343
   61MOL0     H 8224   3.971   6.547  10.953  2.1414  2.8778  0.5827
   61MOL0     H 8225   3.879   6.328  11.000  1.8718 -0.4078  3.3869
   61MOL0     H 8226   3.863   6.193  10.892  0.1449 -0.8177  0.5150
   61MOL0     H 8227   4.092   6.228  11.071  0.6280  2.3634 -0.8879
   61MOL0     H 8228   4.067   6.081  10.972  2.2673  1.1833  2.3710
   61MOL0     H 8229   3.838   6.046  11.071 -1.3350  2.0002 -0.2454
   61MOL0     H 8230   3.884   6.160  11.200 -0.2933 -1.5346  2.0909
   61MOL0     H 8231   4.039   6.029  11.283 -1.4515  0.2221  0.9698
   61MOL0     H 8232   4.059   5.931  11.139  2.5033  3.8483 -1.5250
   61MOL0     H 8233   3.709   5.834  11.402  1.1970 -0.9596  1.2756
   61MOL0     H 8234   3.964   6.306  10.590 -2.6580 -0.5719 -1.0783
   61MOL0     H 8235   3.853   6.478  10.469 -1.3679  0.9492  0.5195
   62MOL0     O 8236  11.286   7.132   1.054  0.2350  0.0833 -0.6148
   62MOL0     C 8237  11.213   7.228   1.077  0.1406  0.4385  0.3997
   62MOL0     O 8238  11.130   7.277   0.984  0.7469 -0.9949  0.5224
   62MOL0     C 8239  11.150   7.242   0.851  0.1225 -0.3657 -0.0795
   62MOL0     C 8240  11.238   7.311   0.765 -0.0474 -0.2752  0.7652
   62MOL0     C 8241  11.265   7.262   0.631 -0.5829  0.3343  0.0125
   62MOL0     C 8242  11.222   7.130   0.595 -0.3994  0.0280 -0.0341
   62MOL0     O 8243  11.247   7.081   0.472 -0.3606 -0.7173 -0.4149
   62MOL0     C 8244  11.289   7.166   0.366  0.2487 -0.0497 -0.6739
   62MOL0     C 8245  11.321   7.077   0.250 -0.1594 -0.8513 -0.8907
   62MOL0     C 8246  11.368   7.184   0.128 -0.0152  0.4825 -0.0404
   62MOL0     C 8247  11.244   7.218   0.026 -0.5933  0.3392  0.0953
   62MOL0     C 8248  11.289   7.286  -0.098 -0.3558 -0.1288  0.0641
   62MOL0     C 8249  11.383   7.413  -0.085  0.9505 -0.7138  0.0715
   62MOL0     C 8250  11.442   7.442  -0.223  0.3726  0.1798  0.1776
   62MOL0     C 8251  11.328   7.480  -0.324  0.3416  0.8689  0.1202
   62MOL0     N 8252  11.249   7.596  -0.274  0.5987  0.1701 -0.6236
   62MOL0     C 8253  11.303   7.715  -0.233  0.7740  0.1580  0.1982
   62MOL0     C 8254  11.198   7.778  -0.175 -0.6524  0.1718  0.0416
   62MOL0     C 8255  11.187   7.917  -0.120 -0.9428 -0.2244  0.3070
   62MOL0     C 8256  11.185   8.024  -0.238 -0.3005 -0.1043 -0.2616
   62MOL0     C 8257  11.321   8.061  -0.305 -0.1158 -0.0021  0.4087
   62MOL0     C 8258  11.321   8.198  -0.369 -0.2864  0.7295  0.2370
   62MOL0     O 8259  11.214   8.199  -0.470 -0.3550  0.1933 -0.3231
   62MOL0     C 8260  11.197   8.317  -0.546 -0.2470 -0.1259  0.9273
   62MOL0     C 8261  11.283   8.419  -0.550 -0.1393  0.0069 -0.1534
   62MOL0     C 8262  11.252   8.537  -0.623  0.6344 -0.1542  0.3140
   62MOL0     C 8263  11.347   8.655  -0.589 -0.2057  0.4762  0.1537
   62MOL0     C 8264  11.141   8.539  -0.720 -0.2399 -1.1517 -0.1785
   62MOL0     C 8265  11.121   8.639  -0.821  0.1609 -0.0135 -0.0241
   62MOL0     O 8266  11.022   8.611  -0.915 -0.8089 -0.0018  0.3450
   62MOL0     C 8267  10.968   8.703  -1.002 -0.1212 -0.0012 -0.3734
   62MOL0     C 8268  10.872   8.646  -1.090 -1.1310 -0.2502  0.0141
   62MOL0     C 8269  10.815   8.717  -1.190 -0.3633 -0.2785  0.5460
   62MOL0     C 8270  10.835   8.855  -1.191 -0.0175  0.4107  0.7161
   62MOL0     O 8271  10.801   8.935  -1.294  0.4927  0.1154  0.2232
   62MOL0     C 8272  10.661   8.934  -1.333 -0.7204  0.2421 -0.6239
   62MOL0     C 8273  10.648   9.000  -1.470  0.9098  0.4854 -0.3498
   62MOL0     C 8274  10.504   8.991  -1.518 -0.3790 -0.1195 -0.2250
   62MOL0     C 8275  10.498   9.046  -1.659  0.1195 -0.1731  0.2741
   62MOL0     C 8276  10.361   9.033  -1.728 -0.4612 -1.1197  0.6930
   62MOL0     C 8277  10.229   9.065  -1.647 -1.0267 -0.3379 -0.6227
   62MOL0     C 8278  10.247   9.209  -1.586  0.0556  0.7243  0.5430
   62MOL0     C 8279  10.111   9.240  -1.509 -0.5821  0.1151  0.1059
   62MOL0    Cl 8280  10.146   9.384  -1.407 -0.0704  0.1334 -0.6839
   62MOL0     C 8281  10.924   8.911  -1.102 -0.7144 -0.7118 -0.0375
   62MOL0     C 8282  10.996   8.840  -1.008 -0.6017  0.0928  0.0734
   62MOL0     O 8283  11.180   8.745  -0.808 -0.0432  0.0114  0.4046
   62MOL0     C 8284  11.055   8.426  -0.712 -0.1664 -0.3370 -0.2431
   62MOL0     C 8285  11.086   8.320  -0.624 -0.0404 -0.3332 -0.6770
   62MOL0     N 8286  11.086   7.696  -0.181 -0.1065 -0.6252 -0.5729
   62MOL0     N 8287  11.117   7.588  -0.244  0.0006 -0.1930  0.3247
   62MOL0     C 8288  11.143   7.061   0.682 -0.1718  0.0534 -0.3104
   62MOL0     C 8289  11.103   7.116   0.803 -0.7466 -0.3753  0.0856
   62MOL0     C 8290  11.195   7.276   1.215  0.4941 -0.3038 -0.5961
   62MOL0     C 8291  11.255   7.214   1.326  0.5244  0.4317 -0.5145
   62MOL0     C 8292  11.201   7.240   1.459 -0.3877  0.1767  0.7786
   62MOL0     C 8293  11.098   7.334   1.481 -0.2154  1.2674 -0.0953
   62MOL0     O 8294  11.050   7.336   1.615  0.0164 -0.2480  0.1184
   62MOL0     C 8295  10.922   7.385   1.645 -0.1905  0.0764  0.0192
   62MOL0     C 8296  10.895   7.323   1.782 -0.4000 -0.7065 -0.6001
   62MOL0     C 8297  10.738   7.321   1.809 -0.0982 -0.5496  0.3016
   62MOL0     C 8298  10.738   7.279   1.957 -0.5653 -0.0012 -0.1794
   62MOL0     C 8299  10.598   7.283   2.019 -0.0240 -0.3499  0.1607
   62MOL0     C 8300  10.474   7.286   2.040 -0.4795  0.1286 -0.5477
   62MOL0     C 8301  11.061   7.406   1.368  0.8547 -0.8765 -0.1001
   62MOL0     C 8302  11.108   7.384   1.242 -0.3498  0.1495 -0.9321
   62MOL0     H 8303  11.277   7.407   0.799 -0.0022  0.7864 -2.0490
   62MOL0     H 8304  11.334   7.323   0.573 -2.0805  2.5115  0.3792
   62MOL0     H 8305  11.206   7.233   0.338 -0.6791  0.0354  1.9573
   62MOL0     H 8306  11.379   7.227   0.375 -0.6611  1.1862  0.7688
   62MOL0     H 8307  11.411   7.024   0.282  0.2379  0.2245 -0.1508
   62MOL0     H 8308  11.238   7.014   0.221  0.3554 -1.4992 -0.9857
   62MOL0     H 8309  11.416   7.277   0.160  0.9069 -0.6382  2.0603
   62MOL0     H 8310  11.437   7.132   0.062 -2.3280  1.0050 -3.0963
   62MOL0     H 8311  11.186   7.128   0.002 -2.2734  1.3737  0.1487
   62MOL0     H 8312  11.169   7.272   0.084 -2.1559 -2.5040  0.9118
   62MOL0     H 8313  11.335   7.206  -0.157 -1.8360 -0.9307 -0.0544
   62MOL0     H 8314  11.193   7.297  -0.151 -0.5840  1.3427  0.7529
   62MOL0     H 8315  11.335   7.500  -0.040  1.6927  0.2629 -0.9510
   62MOL0     H 8316  11.470   7.390  -0.023  1.4478  0.2519 -0.2417
   62MOL0     H 8317  11.521   7.518  -0.213 -0.8851  1.2612  3.4876
   62MOL0     H 8318  11.496   7.355  -0.262  3.5009  2.5506 -1.2231
   62MOL0     H 8319  11.267   7.392  -0.348  3.1475 -1.1171 -0.3386
   62MOL0     H 8320  11.368   7.508  -0.422  0.2639 -0.1956 -0.2359
   62MOL0     H 8321  11.406   7.746  -0.247  0.7955 -0.5735 -1.4414
   62MOL0     H 8322  11.110   7.920  -0.042  0.7672  3.0856  2.0914
   62MOL0     H 8323  11.281   7.943  -0.070 -1.4996 -0.8774  1.7433
   62MOL0     H 8324  11.139   8.112  -0.192 -3.3458 -2.2889  1.2429
   62MOL0     H 8325  11.111   7.996  -0.314 -0.6063 -0.2872  0.0945
   62MOL0     H 8326  11.343   7.983  -0.378  1.1756  0.4197  0.3160
   62MOL0     H 8327  11.391   8.055  -0.221 -0.0394 -1.5513  0.2689
   62MOL0     H 8328  11.411   8.216  -0.429  0.5310 -3.3440 -0.0565
   62MOL0     H 8329  11.306   8.273  -0.291 -1.0111  1.7689 -0.8523
   62MOL0     H 8330  11.367   8.422  -0.483 -0.7242 -2.3838  0.7782
   62MOL0     H 8331  11.304   8.752  -0.562  0.7904  0.7515  0.7807
   62MOL0     H 8332  11.399   8.631  -0.497 -2.2012  2.1574  1.8242
   62MOL0     H 8333  11.423   8.665  -0.667  0.9102 -0.6772  1.0609
   62MOL0     H 8334  10.854   8.538  -1.089 -0.7502 -0.3392 -1.2735
   62MOL0     H 8335  10.749   8.673  -1.265 -0.9266 -0.5552  1.1871
   62MOL0     H 8336  10.628   8.831  -1.345 -1.3062  0.6445 -2.7936
   62MOL0     H 8337  10.600   8.987  -1.259  1.6923 -0.8687  2.4412
   62MOL0     H 8338  10.678   9.105  -1.456  2.5574  0.0112 -0.1665
   62MOL0     H 8339  10.721   8.953  -1.536  1.2417 -2.8095  2.1352
   62MOL0     H 8340  10.438   9.042  -1.447 -1.7652 -0.9283 -0.8835
   62MOL0     H 8341  10.477   8.885  -1.524 -2.7199 -0.0186  4.2375
   62MOL0     H 8342  10.528   9.151  -1.655  0.2559 -0.2294  3.0200
   62MOL0     H 8343  10.576   9.003  -1.722 -0.1895  0.0133 -0.2403
   62MOL0     H 8344  10.349   8.939  -1.781 -0.8673 -0.8806  0.3569
   62MOL0     H 8345  10.365   9.108  -1.808 -2.1252 -0.3350  1.2922
   62MOL0     H 8346  10.138   9.052  -1.705 -0.0842 -3.4827 -1.5945
   62MOL0     H 8347  10.212   9.002  -1.559  0.1195  0.2775  0.0755
   62MOL0     H 8348  10.283   9.281  -1.660 -0.2837  0.6171  0.2725
   62MOL0     H 8349  10.328   9.194  -1.513  1.6430  1.7235 -0.9192
   62MOL0     H 8350  10.066   9.168  -1.440 -1.6611  1.6085  1.0284
   62MOL0     H 8351  10.033   9.250  -1.585  0.0774  0.2689 -0.5577
   62MOL0     H 8352  10.946   9.017  -1.112 -0.7159 -0.5494  1.4478
   62MOL0     H 8353  11.058   8.891  -0.934  0.5765  0.5261 -1.1799
   62MOL0     H 8354  10.962   8.417  -0.766 -0.3979 -0.8828  0.2375
   62MOL0     H 8355  11.020   8.234  -0.623  0.1102 -0.4439 -0.3347
   62MOL0     H 8356  11.111   6.964   0.646 -3.3807  0.9132 -0.0681
   62MOL0     H 8357  11.037   7.049   0.858 -0.0799 -1.1798 -0.0860
   62MOL0     H 8358  11.332   7.138   1.317 -2.1198 -2.6638  0.7558
   62MOL0     H 8359  11.240   7.177   1.538  0.5385 -1.5938 -0.9991
   62MOL0     H 8360  10.917   7.494   1.658 -1.8808 -0.0587  0.6770
   62MOL0     H 8361  10.853   7.350   1.569 -0.2911 -3.7899  1.6793
   62MOL0     H 8362  10.958   7.375   1.854 -0.3581  1.7065 -2.2671
   62MOL0     H 8363  10.934   7.221   1.787 -0.3597 -0.7366 -1.3870
   62MOL0     H 8364  10.675   7.251   1.755 -3.3646  2.8290 -0.6911
   62MOL0     H 8365  10.694   7.421   1.802  0.5419  0.0067  2.8765
   62MOL0     H 8366  10.809   7.334   2.019 -2.2667  0.1921  1.6899
   62MOL0     H 8367  10.773   7.176   1.960  0.6912  0.3163 -1.8321
   62MOL0     H 8368  10.369   7.307   2.039 -1.2459 -3.0354  0.9991
   62MOL0     H 8369  10.976   7.472   1.375  0.0284 -1.8714 -0.5292
   62MOL0     H 8370  11.051   7.430   1.161  0.8635  2.4982 -0.5434
   63MOL0     O 8371  10.977   4.895  10.664 -0.0430 -0.1021  0.1155
   63MOL0     C 8372  10.996   4.887  10.541 -0.3745  0.1971 -0.5480
   63MOL0     O 8373  10.959   4.779  10.466 -0.0818  0.2079 -0.6802
   63MOL0     C 8374  10.892   4.668  10.517  0.0557  0.0725  1.2886
   63MOL0     C 8375  10.764   4.669  10.574 -0.3521 -0.8071  0.5374
   63MOL0     C 8376  10.694   4.551  10.595  0.0835  0.5189 -0.4845
   63MOL0     C 8377  10.754   4.426  10.568  0.1132  0.0034  0.5995
   63MOL0     O 8378  10.702   4.300  10.589  0.1835  0.0496  0.2217
   63MOL0     C 8379  10.649   4.283  10.722  0.9506 -0.3599  0.2626
   63MOL0     C 8380  10.768   4.239  10.799 -0.7389 -0.0516  0.1567
   63MOL0     C 8381  10.791   4.093  10.804 -0.2740 -0.0424 -0.6437
   63MOL0     C 8382  10.923   4.063  10.873 -0.0958 -0.0034  0.1978
   63MOL0     C 8383  10.948   3.911  10.904 -0.0663 -1.0355 -0.4168
   63MOL0     C 8384  10.888   3.824  10.790  0.0922 -0.8973 -1.2962
   63MOL0     C 8385  10.905   3.677  10.805  0.5489 -0.1949  0.2842
   63MOL0     C 8386  10.840   3.598  10.698 -1.0380  0.6189  0.7392
   63MOL0     N 8387  10.852   3.454  10.719  0.7033  0.6539 -0.2085
   63MOL0     C 8388  10.856   3.359  10.616  0.5186  1.0395  0.1090
   63MOL0     C 8389  10.836   3.242  10.683  0.0462 -0.3625 -0.5069
   63MOL0     C 8390  10.825   3.098  10.636 -1.0458  0.0993 -0.5172
   63MOL0     C 8391  10.680   3.059  10.655  0.0627 -0.6359  0.1588
   63MOL0     C 8392  10.643   2.939  10.563  0.5746 -0.5488 -0.9540
   63MOL0     C 8393  10.497   2.916  10.576  0.2995 -0.1676 -0.1034
   63MOL0     O 8394  10.455   2.913  10.703  0.4587  0.1422 -0.2395
   63MOL0     C 8395  10.317   2.911  10.736 -0.2821  1.1215 -0.3984
   63MOL0     C 8396  10.216   2.892  10.637  0.0904  0.6308 -0.7247
   63MOL0     C 8397  10.080   2.902  10.670 -0.5760  0.0651 -0.7386
   63MOL0     C 8398   9.978   2.850  10.578  0.0771 -0.2230 -0.0933
   63MOL0     C 8399  10.047   2.936  10.805  0.2176 -0.5290 -0.0095
   63MOL0     C 8400   9.907   2.964  10.843 -0.5873  0.4308 -0.2360
   63MOL0     O 8401   9.851   2.866  10.910  0.0678 -0.7737  0.5031
   63MOL0     C 8402   9.714   2.875  10.922  0.8570 -0.0940  1.1435
   63MOL0     C 8403   9.661   2.867  11.050  0.1914 -0.2481 -0.9258
   63MOL0     C 8404   9.521   2.895  11.064  0.1753  0.5554 -0.5153
   63MOL0     C 8405   9.429   2.903  10.957 -0.1784 -1.3969 -1.2118
   63MOL0     O 8406   9.297   2.918  10.979  0.3506  0.4070 -0.5079
   63MOL0     C 8407   9.205   2.974  10.877 -0.0126  0.3060 -0.6504
   63MOL0     C 8408   9.089   3.046  10.957  0.1204  0.9945 -0.3767
   63MOL0     C 8409   9.010   3.132  10.856 -0.7230  0.3250 -0.2574
   63MOL0     C 8410   8.893   3.201  10.928 -0.0121  0.1417 -0.0810
   63MOL0     C 8411   8.822   3.304  10.836 -0.3856 -0.5797  0.7309
   63MOL0     C 8412   8.908   3.422  10.787 -0.9468  0.7502 -0.8187
   63MOL0     C 8413   8.835   3.481  10.666  0.5091 -0.8019  0.8213
   63MOL0     C 8414   8.926   3.610  10.624  0.0011  0.3681 -0.3953
   63MOL0    Cl 8415   8.811   3.731  10.567 -0.1229  0.5161  0.6252
   63MOL0     C 8416   9.485   2.895  10.829 -0.4132  0.7869 -0.3224
   63MOL0     C 8417   9.627   2.881  10.811  0.5189  0.0149  0.5939
   63MOL0     O 8418   9.861   3.068  10.820 -0.6784  0.2537  0.4375
   63MOL0     C 8419  10.142   2.966  10.899  1.5877 -0.4894  0.1146
   63MOL0     C 8420  10.277   2.941  10.870  0.4875 -0.4192  0.4607
   63MOL0     N 8421  10.834   3.258  10.822  0.6254  0.4659  0.6109
   63MOL0     N 8422  10.834   3.388  10.839 -0.0874 -0.2896 -0.0968
   63MOL0     C 8423  10.878   4.420  10.501 -0.4317  0.3954 -0.0706
   63MOL0     C 8424  10.944   4.542  10.479 -0.9125 -0.0291 -0.1139
   63MOL0     C 8425  11.072   4.989  10.461  0.1029  0.7192 -0.5944
   63MOL0     C 8426  11.105   5.107  10.513 -0.4670  0.5864 -0.9363
   63MOL0     C 8427  11.157   5.206  10.423 -0.5514  0.4508 -0.6095
   63MOL0     C 8428  11.204   5.172  10.293 -0.5932  0.7477 -0.5182
   63MOL0     O 8429  11.254   5.277  10.221 -0.0937  0.2404 -0.6601
   63MOL0     C 8430  11.291   5.269  10.090 -0.2741  0.7058 -0.6553
   63MOL0     C 8431  11.426   5.194  10.085 -0.1697 -0.9126 -0.2628
   63MOL0     C 8432  11.540   5.296  10.064 -0.2640 -0.5155 -0.2913
   63MOL0     C 8433  11.673   5.219  10.037 -0.8205 -0.4574 -0.4511
   63MOL0     C 8434  11.784   5.313  10.028 -0.6202  0.6377  0.6577
   63MOL0     C 8435  11.870   5.397   9.998  0.4836 -0.4207 -0.0675
   63MOL0     C 8436  11.181   5.037  10.245 -0.3739  0.2171  1.0413
   63MOL0     C 8437  11.105   4.951  10.325  0.2605 -0.8816 -0.3740
   63MOL0     H 8438  10.715   4.766  10.576 -0.8003 -1.0180  0.1448
   63MOL0     H 8439  10.596   4.558  10.642  1.3490 -0.4477  2.6053
   63MOL0     H 8440  10.615   4.373  10.773  0.9874 -0.5396  0.6060
   63MOL0     H 8441  10.561   4.219  10.732 -0.5092  1.1679 -1.9304
   63MOL0     H 8442  10.864   4.283  10.770 -0.6974  0.6562  1.2813
   63MOL0     H 8443  10.767   4.274  10.903  0.1729 -0.9165  0.4795
   63MOL0     H 8444  10.702   4.052  10.853 -0.8254  1.2369 -0.5256
   63MOL0     H 8445  10.804   4.043  10.708  3.2628 -3.8841  1.5336
   63MOL0     H 8446  11.000   4.099  10.805 -2.0940 -0.4923 -2.4771
   63MOL0     H 8447  10.948   4.105  10.971  0.3170 -2.4000  1.2081
   63MOL0     H 8448  11.054   3.893  10.925  0.5217  1.0916 -1.3100
   63MOL0     H 8449  10.889   3.882  10.991  2.4706  1.6830  2.4767
   63MOL0     H 8450  10.782   3.845  10.771  0.2312  0.3919 -0.7604
   63MOL0     H 8451  10.938   3.843  10.694  0.4230  0.7186 -0.8311
   63MOL0     H 8452  11.008   3.643  10.812  0.9909  0.6766 -1.3638
   63MOL0     H 8453  10.862   3.640  10.898  0.3205 -1.5706 -0.3498
   63MOL0     H 8454  10.883   3.605  10.598 -1.2004 -0.8855  0.5504
   63MOL0     H 8455  10.737   3.629  10.678 -0.3793  1.5229 -1.5321
   63MOL0     H 8456  10.858   3.383  10.510 -0.6821  3.2319  0.5175
   63MOL0     H 8457  10.843   3.095  10.528 -1.4165 -4.9585 -0.6436
   63MOL0     H 8458  10.896   3.030  10.683 -1.7509 -0.3696 -0.1144
   63MOL0     H 8459  10.615   3.138  10.617 -1.8015 -0.5530  3.1878
   63MOL0     H 8460  10.662   3.042  10.761 -1.2693  0.5288  0.1537
   63MOL0     H 8461  10.691   2.843  10.585 -0.1582 -0.8873 -0.7954
   63MOL0     H 8462  10.668   2.966  10.460  1.7423 -1.0909 -0.8268
   63MOL0     H 8463  10.477   2.825  10.518 -2.0618  0.4459 -0.3142
   63MOL0     H 8464  10.453   3.005  10.532  1.5682  0.9291  0.7565
   63MOL0     H 8465  10.231   2.872  10.531 -0.5592  1.1578 -0.9186
   63MOL0     H 8466   9.975   2.740  10.574 -3.0439 -0.3681  2.3914
   63MOL0     H 8467   9.875   2.878  10.601 -0.8234  0.2248 -3.8882
   63MOL0     H 8468   9.981   2.878  10.472 -4.4665  0.5169 -0.2329
   63MOL0     H 8469   9.713   2.859  11.144 -1.7497  0.9717  0.3218
   63MOL0     H 8470   9.475   2.910  11.161  1.1129  0.8815 -0.1095
   63MOL0     H 8471   9.259   3.047  10.816 -1.1076  0.7727 -1.0685
   63MOL0     H 8472   9.162   2.891  10.820 -2.1222  0.9483 -0.0616
   63MOL0     H 8473   9.024   2.971  11.003  1.7551  0.3920  1.0810
   63MOL0     H 8474   9.130   3.116  11.030  2.0579  2.1204 -2.4027
   63MOL0     H 8475   8.990   3.083  10.760  0.5403 -0.5001 -0.1251
   63MOL0     H 8476   9.088   3.201  10.821  2.5220 -2.7246  0.4376
   63MOL0     H 8477   8.816   3.128  10.955 -1.6563  1.3401 -1.3173
   63MOL0     H 8478   8.927   3.251  11.019 -0.2630 -3.4036  2.1474
   63MOL0     H 8479   8.730   3.344  10.879 -0.5043  1.8019 -1.4644
   63MOL0     H 8480   8.790   3.240  10.754 -0.6421 -2.4130  2.1965
   63MOL0     H 8481   8.910   3.494  10.870 -3.4987  0.0438 -0.0692
   63MOL0     H 8482   9.006   3.392  10.748 -0.9473 -0.9328  0.3980
   63MOL0     H 8483   8.733   3.517  10.680  0.6797 -0.2251  0.5665
   63MOL0     H 8484   8.845   3.428  10.571 -1.6495  3.6062 -2.2075
   63MOL0     H 8485   9.002   3.572  10.555 -0.2895 -1.6729  0.3512
   63MOL0     H 8486   8.976   3.651  10.713  1.0174 -2.8135  0.6167
   63MOL0     H 8487   9.423   2.895  10.740 -0.4524 -3.1698 -0.4543
   63MOL0     H 8488   9.667   2.870  10.710  0.8540 -0.7982  0.8098
   63MOL0     H 8489  10.110   2.993  10.999 -1.0490 -0.8253 -0.5525
   63MOL0     H 8490  10.371   2.950  10.925  1.1686 -1.3826 -0.5004
   63MOL0     H 8491  10.932   4.327  10.491 -0.1675  0.6007 -0.5708
   63MOL0     H 8492  11.045   4.539  10.441 -2.1048 -2.1660 -3.5453
   63MOL0     H 8493  11.073   5.132  10.613 -1.3532 -0.5481 -0.9152
   63MOL0     H 8494  11.156   5.308  10.460 -1.0010 -0.1313  1.0403
   63MOL0     H 8495  11.216   5.217  10.029  0.9367  0.5690 -2.0997
   63MOL0     H 8496  11.311   5.366  10.045  1.6352  0.5266 -0.3047
   63MOL0     H 8497  11.421   5.132   9.996  2.2080  0.3385 -1.3594
   63MOL0     H 8498  11.447   5.142  10.179 -1.4403 -0.0106  0.5632
   63MOL0     H 8499  11.547   5.357  10.155 -2.5932  0.0413 -0.4160
   63MOL0     H 8500  11.505   5.361   9.983  1.8516  2.9749  1.3546
   63MOL0     H 8501  11.664   5.156   9.948 -2.7131  0.3516 -0.8905
   63MOL0     H 8502  11.682   5.157  10.127 -1.6836  1.0381  0.7088
   63MOL0     H 8503  11.936   5.465   9.948 -0.3532  0.4045 -0.0774
   63MOL0     H 8504  11.204   5.005  10.144  0.8214 -0.3648  1.4786
   63MOL0     H 8505  11.077   4.856  10.282 -1.5643 -0.7353  0.4252
   64MOL0     O 8506   0.205   5.378   8.947 -0.5053 -0.7079 -0.2685
   64MOL0     C 8507   0.275   5.280   8.973 -0.7624 -0.6599  0.2594
   64MOL0     O 8508   0.335   5.195   8.884  0.8145 -0.0268 -0.1291
   64MOL0     C 8509   0.324   5.219   8.750  0.0466  0.5261 -0.4965
   64MOL0     C 8510   0.200   5.212   8.684 -0.8167 -0.3617 -0.2289
   64MOL0     C 8511   0.195   5.229   8.547  0.5634 -1.0490 -0.6625
   64MOL0     C 8512   0.308   5.237   8.471 -0.3360  0.4046 -0.4247
   64MOL0     O 8513   0.322   5.245   8.339 -0.0849  0.1561  0.4801
   64MOL0     C 8514   0.198   5.205   8.270 -0.4884  0.3232 -0.4411
   64MOL0     C 8515   0.240   5.192   8.122  0.5400 -0.0942 -0.0424
   64MOL0     C 8516   0.242   5.331   8.053 -0.4412 -0.0055  0.2592
   64MOL0     C 8517   0.277   5.323   7.908  0.2790 -0.0534 -0.3537
   64MOL0     C 8518   0.277   5.456   7.830  0.3644 -0.1604 -0.5202
   64MOL0     C 8519   0.246   5.430   7.690  0.2428  0.0278  1.4844
   64MOL0     C 8520   0.247   5.560   7.618  0.0954 -0.6422  0.1518
   64MOL0     C 8521   0.256   5.543   7.469 -0.6313 -0.2971 -0.3072
   64MOL0     N 8522   0.223   5.673   7.405 -0.0862 -0.4111  0.6195
   64MOL0     C 8523   0.284   5.797   7.442 -0.1779 -0.0366 -0.2141
   64MOL0     C 8524   0.250   5.878   7.335 -1.0340 -0.0736 -0.2857
   64MOL0     C 8525   0.240   6.034   7.355 -0.1389  0.2650 -0.0100
   64MOL0     C 8526   0.366   6.102   7.318  0.8989 -0.0909  0.0138
   64MOL0     C 8527   0.393   6.103   7.175  0.5930 -0.0712  0.0945
   64MOL0     C 8528   0.294   6.175   7.095  0.9347 -0.5146  1.2380
   64MOL0     O 8529   0.349   6.207   6.960 -1.1686 -0.5390 -0.9085
   64MOL0     C 8530   0.359   6.107   6.870  0.6310  0.3044  0.5405
   64MOL0     C 8531   0.309   5.981   6.890 -0.5112 -0.8013 -0.3818
   64MOL0     C 8532   0.310   5.889   6.794  0.0101  0.2136  0.0259
   64MOL0     C 8533   0.245   5.747   6.824  0.2323 -0.3428 -0.3207
   64MOL0     C 8534   0.341   5.934   6.653  0.6678  0.6633  0.0274
   64MOL0     C 8535   0.320   5.850   6.527 -0.2488  0.0087 -0.3479
   64MOL0     O 8536   0.363   5.914   6.421 -0.6056  0.0739  0.0731
   64MOL0     C 8537   0.365   5.859   6.293  0.0601 -1.3653  0.9366
   64MOL0     C 8538   0.348   5.730   6.259 -0.8238 -0.4233  0.1136
   64MOL0     C 8539   0.384   5.687   6.126 -0.4676  0.7262 -0.0567
   64MOL0     C 8540   0.430   5.775   6.023  0.6414 -0.2519  0.2522
   64MOL0     O 8541   0.477   5.727   5.904 -0.2676 -0.2719  0.0569
   64MOL0     C 8542   0.562   5.815   5.829 -0.1280  0.4260 -0.9504
   64MOL0     C 8543   0.489   5.896   5.717  0.1526 -0.9469 -0.1221
   64MOL0     C 8544   0.390   5.816   5.633  0.6997  0.0720  0.1243
   64MOL0     C 8545   0.252   5.817   5.703  0.0978 -1.1056 -0.2475
   64MOL0     C 8546   0.173   5.689   5.690  0.2396  0.2394 -0.2179
   64MOL0     C 8547   0.132   5.635   5.557  0.2672 -0.4297  0.3764
   64MOL0     C 8548   0.075   5.491   5.551  0.3379 -0.0985 -0.2882
   64MOL0     C 8549   0.038   5.438   5.403 -0.9596 -0.5780 -0.8906
   64MOL0    Cl 8550   0.000   5.257   5.425  0.3340 -0.4051  0.1882
   64MOL0     C 8551   0.425   5.911   6.056 -0.3653 -0.1368 -0.2547
   64MOL0     C 8552   0.391   5.954   6.187  0.1047  0.5565 -0.2869
   64MOL0     O 8553   0.272   5.739   6.538  0.0189  0.2554  0.6121
   64MOL0     C 8554   0.393   6.061   6.637 -0.5886  0.2003 -0.3341
   64MOL0     C 8555   0.406   6.142   6.751 -0.2444  0.2884  0.0224
   64MOL0     N 8556   0.195   5.805   7.234  0.3885  0.2749  0.9461
   64MOL0     N 8557   0.194   5.687   7.269 -0.6149  0.9529  0.0817
   64MOL0     C 8558   0.434   5.226   8.534 -0.0847 -0.7406 -0.3172
   64MOL0     C 8559   0.443   5.226   8.677 -0.8519 -0.0682  0.7800
   64MOL0     C 8560   0.292   5.245   9.115 -0.3120  0.0142 -0.0081
   64MOL0     C 8561   0.193   5.264   9.209  0.2746 -0.8335 -0.5130
   64MOL0     C 8562   0.222   5.241   9.351  0.2045  0.0443 -0.1266
   64MOL0     C 8563   0.347   5.205   9.393  0.1848  0.3087  1.2590
   64MOL0     O 8564   0.358   5.180   9.526 -0.7012 -0.0147 -0.0819
   64MOL0     C 8565   0.463   5.093   9.578 -0.0106 -0.0684  0.4562
   64MOL0     C 8566   0.461   4.950   9.529  0.0683  0.5208 -0.2323
   64MOL0     C 8567   0.585   4.862   9.584  0.0270 -0.1438 -1.4336
   64MOL0     C 8568   0.584   4.724   9.533 -0.1004  0.7240 -0.7562
   64MOL0     C 8569   0.537   4.620   9.628  1.1319 -0.3503  0.6852
   64MOL0     C 8570   0.500   4.520   9.688  0.5420 -0.9563 -0.3312
   64MOL0     C 8571   0.448   5.192   9.295  0.3026  0.2758  0.2857
   64MOL0     C 8572   0.415   5.215   9.158 -0.0439 -0.7051 -0.3565
   64MOL0     H 8573   0.108   5.207   8.741 -1.8267  0.5528 -1.6900
   64MOL0     H 8574   0.092   5.248   8.518  0.7119  2.6332  0.6381
   64MOL0     H 8575   0.167   5.108   8.310  1.5871 -0.2640 -0.1564
   64MOL0     H 8576   0.118   5.278   8.286 -0.4285  0.2092  0.4558
   64MOL0     H 8577   0.339   5.145   8.120 -0.2784 -1.9198 -0.3720
   64MOL0     H 8578   0.165   5.131   8.071 -1.4446  1.5915  0.7150
   64MOL0     H 8579   0.141   5.371   8.064 -1.5628 -2.5619 -0.2277
   64MOL0     H 8580   0.321   5.393   8.097 -1.7789 -0.1704  3.1419
   64MOL0     H 8581   0.381   5.290   7.913  0.3121  0.1944  0.7779
   64MOL0     H 8582   0.214   5.248   7.859  0.6145  1.3540 -3.1653
   64MOL0     H 8583   0.201   5.523   7.873  1.6008  1.5361 -0.8766
   64MOL0     H 8584   0.369   5.512   7.846 -0.0804  1.1083 -2.0879
   64MOL0     H 8585   0.321   5.362   7.647 -1.6235 -0.2683 -1.6021
   64MOL0     H 8586   0.146   5.388   7.685 -0.4841  1.8000 -1.4119
   64MOL0     H 8587   0.154   5.615   7.633 -0.4391 -0.5729 -2.8748
   64MOL0     H 8588   0.334   5.616   7.654  1.1022 -0.6248 -2.1314
   64MOL0     H 8589   0.193   5.469   7.420 -0.8388 -0.9211  0.8679
   64MOL0     H 8590   0.352   5.496   7.449 -1.7536 -1.8667 -2.4372
   64MOL0     H 8591   0.327   5.820   7.539 -1.3941 -1.0032  0.5875
   64MOL0     H 8592   0.155   6.081   7.304 -1.1178 -0.9692  0.4207
   64MOL0     H 8593   0.225   6.058   7.461  4.6405  2.3556  0.4580
   64MOL0     H 8594   0.445   6.067   7.385 -0.6814 -1.0309  1.4895
   64MOL0     H 8595   0.356   6.208   7.343 -1.1486 -0.4295  0.8770
   64MOL0     H 8596   0.386   5.999   7.143 -1.4822 -0.8218  2.6609
   64MOL0     H 8597   0.490   6.145   7.149  1.2731 -0.9309  1.1553
   64MOL0     H 8598   0.267   6.269   7.145  0.7388 -0.9358  1.9323
   64MOL0     H 8599   0.204   6.117   7.077 -0.9606  2.3861  0.6942
   64MOL0     H 8600   0.266   5.945   6.983 -0.2586 -4.2428 -1.4520
   64MOL0     H 8601   0.303   5.663   6.787  1.8466  0.3920  0.4100
   64MOL0     H 8602   0.243   5.724   6.931 -0.0409  0.1603 -0.2113
   64MOL0     H 8603   0.148   5.754   6.774  0.9982  2.0996 -1.6703
   64MOL0     H 8604   0.323   5.658   6.336 -0.5724  1.1343  1.7098
   64MOL0     H 8605   0.391   5.581   6.106  0.8660  1.1692 -2.2576
   64MOL0     H 8606   0.618   5.877   5.899 -3.0547  1.4536  0.6902
   64MOL0     H 8607   0.632   5.750   5.775 -0.1828 -1.7235  1.3950
   64MOL0     H 8608   0.428   5.974   5.763  0.4208 -1.0122  0.3509
   64MOL0     H 8609   0.557   5.951   5.653 -2.4764  1.0143 -1.3853
   64MOL0     H 8610   0.425   5.712   5.634  3.8701  1.0134  2.4468
   64MOL0     H 8611   0.377   5.856   5.531 -0.1591  2.6388  1.1588
   64MOL0     H 8612   0.268   5.832   5.810  1.0553 -0.3231 -0.4843
   64MOL0     H 8613   0.210   5.912   5.669  1.1361 -0.7746 -0.6368
   64MOL0     H 8614   0.086   5.691   5.756  0.0206 -0.0972 -0.4916
   64MOL0     H 8615   0.242   5.618   5.737 -0.5225  2.0851  4.1997
   64MOL0     H 8616   0.045   5.693   5.526 -0.0037 -0.9754  0.0955
   64MOL0     H 8617   0.215   5.639   5.487 -0.0240 -3.5917 -0.2949
   64MOL0     H 8618  -0.016   5.477   5.610  0.3548 -0.9221 -0.4454
   64MOL0     H 8619   0.153   5.436   5.605  0.1654  0.3720  0.4565
   64MOL0     H 8620   0.118   5.446   5.329  1.4253  2.5550  1.7582
   64MOL0     H 8621  -0.041   5.501   5.362  0.0703  1.6152  0.3282
   64MOL0     H 8622   0.440   5.988   5.982  1.0420 -0.3930 -0.2629
   64MOL0     H 8623   0.404   6.059   6.211 -1.7452  0.2486  2.5152
   64MOL0     H 8624   0.442   6.104   6.550  2.5098  0.6259  1.4813
   64MOL0     H 8625   0.443   6.242   6.734 -0.2220  0.3084  0.1930
   64MOL0     H 8626   0.520   5.222   8.468  0.0400  0.9492 -0.2939
   64MOL0     H 8627   0.537   5.229   8.732  0.1777  0.4459 -0.9422
   64MOL0     H 8628   0.095   5.300   9.180  1.4062  2.4593 -0.6902
   64MOL0     H 8629   0.137   5.261   9.416  1.0537  1.2406  0.6678
   64MOL0     H 8630   0.562   5.131   9.550  0.8681 -1.4639  1.5578
   64MOL0     H 8631   0.457   5.087   9.687  3.0387 -2.7276  0.6400
   64MOL0     H 8632   0.469   4.948   9.420 -0.2302  1.6121 -0.2872
   64MOL0     H 8633   0.361   4.907   9.544 -0.4682  1.6570 -0.4448
   64MOL0     H 8634   0.605   4.855   9.691  2.1503  0.7652 -1.7301
   64MOL0     H 8635   0.680   4.899   9.543  0.6843  0.2920  0.3920
   64MOL0     H 8636   0.689   4.704   9.508  0.3958 -0.3490  1.8872
   64MOL0     H 8637   0.537   4.721   9.434  1.9916  0.5606 -1.8088
   64MOL0     H 8638   0.451   4.433   9.727  0.2271 -2.1589 -3.1666
   64MOL0     H 8639   0.546   5.169   9.334 -0.4472 -3.4478  0.3226
   64MOL0     H 8640   0.501   5.224   9.092  0.5864  0.1734  0.5395
   65MOL0     O 8641   3.611   4.614  10.807  0.2023  0.4130 -0.8863
   65MOL0     C 8642   3.623   4.506  10.874 -0.3446 -0.9623 -0.0767
   65MOL0     O 8643   3.712   4.483  10.971  0.3712  0.0003 -0.6903
   65MOL0     C 8644   3.803   4.580  11.011  0.4637 -0.1846 -0.0715
   65MOL0     C 8645   3.796   4.636  11.139  0.5610 -0.6685 -0.4778
   65MOL0     C 8646   3.892   4.725  11.182 -0.2250 -0.4576  0.5866
   65MOL0     C 8647   3.997   4.760  11.093  1.3801 -0.5396  0.3339
   65MOL0     O 8648   4.082   4.859  11.135 -0.8090 -0.2356 -0.6020
   65MOL0     C 8649   4.032   4.981  11.188 -0.2836  0.6253 -0.2934
   65MOL0     C 8650   4.032   5.080  11.082  0.2263  0.5752  0.0235
   65MOL0     C 8651   3.934   5.052  10.960  0.0775  0.1378 -0.3612
   65MOL0     C 8652   3.792   5.049  11.021  1.1522 -0.4180  0.7621
   65MOL0     C 8653   3.695   5.026  10.900 -0.5434  0.3149  0.7160
   65MOL0     C 8654   3.553   5.000  10.950  0.0308  0.2512  0.1911
   65MOL0     C 8655   3.454   4.975  10.839 -0.8005 -0.6460  0.0928
   65MOL0     C 8656   3.324   4.916  10.895  0.1193 -0.4742  0.2913
   65MOL0     N 8657   3.238   4.861  10.788 -1.1027  0.4515 -0.3239
   65MOL0     C 8658   3.186   4.923  10.674 -1.0365  0.4471 -0.1230
   65MOL0     C 8659   3.149   4.817  10.600 -0.2039 -0.4277 -0.2607
   65MOL0     C 8660   3.102   4.837  10.453 -0.3553 -0.1946 -0.0564
   65MOL0     C 8661   2.984   4.746  10.412  0.0062  0.0450 -0.1320
   65MOL0     C 8662   2.936   4.795  10.279  0.2646  0.2366  0.1989
   65MOL0     C 8663   2.821   4.705  10.241 -0.2907 -0.2860  0.6823
   65MOL0     O 8664   2.701   4.747  10.301  0.6708 -0.3164 -0.0611
   65MOL0     C 8665   2.588   4.677  10.268 -0.9328  0.2846  0.8177
   65MOL0     C 8666   2.592   4.559  10.194 -0.5741  0.3293 -0.2259
   65MOL0     C 8667   2.472   4.498  10.161 -0.5359 -0.2491  1.3300
   65MOL0     C 8668   2.477   4.369  10.090  0.5536 -0.1369  0.1369
   65MOL0     C 8669   2.343   4.560  10.191  0.4515 -0.2870 -0.6942
   65MOL0     C 8670   2.211   4.501  10.156 -0.1028  0.2107 -1.6779
   65MOL0     O 8671   2.102   4.579  10.205  0.6194  1.4957  0.7233
   65MOL0     C 8672   1.972   4.531  10.183 -0.1377  0.1203 -0.0154
   65MOL0     C 8673   1.875   4.628  10.182  0.5191 -0.4893  0.0297
   65MOL0     C 8674   1.746   4.592  10.166  0.0933  0.7258  0.3275
   65MOL0     C 8675   1.704   4.452  10.153 -0.2368 -0.8883 -0.1154
   65MOL0     O 8676   1.569   4.427  10.137 -0.2567 -0.2894 -0.7271
   65MOL0     C 8677   1.525   4.308  10.062 -1.0304  0.2522 -1.5493
   65MOL0     C 8678   1.371   4.276  10.067 -0.2017  0.1235  0.5226
   65MOL0     C 8679   1.276   4.391  10.039  0.4561  0.0158 -0.1515
   65MOL0     C 8680   1.254   4.485  10.155 -0.0463  0.0365 -0.4683
   65MOL0     C 8681   1.114   4.564  10.162 -0.9399  0.9376  1.0526
   65MOL0     C 8682   1.096   4.668  10.276  0.0725 -0.1977  0.0078
   65MOL0     C 8683   1.124   4.597  10.421 -0.4618  0.1596 -0.0831
   65MOL0     C 8684   1.077   4.685  10.542 -0.0510  0.4136  0.7665
   65MOL0    Cl 8685   1.207   4.811  10.585 -0.1742  0.1143 -0.1584
   65MOL0     C 8686   1.805   4.357  10.149 -0.0912 -0.4358 -0.4202
   65MOL0     C 8687   1.941   4.398  10.178 -0.5629 -0.2384 -0.1219
   65MOL0     O 8688   2.196   4.398  10.091  0.1466 -0.4984  0.2637
   65MOL0     C 8689   2.349   4.680  10.266  0.4673  1.1053 -0.9935
   65MOL0     C 8690   2.467   4.728  10.314  0.1097  0.5625 -0.2476
   65MOL0     N 8691   3.177   4.690  10.654  0.1170  0.2238  0.0069
   65MOL0     N 8692   3.233   4.719  10.769  0.1842 -0.5106  0.0967
   65MOL0     C 8693   4.004   4.704  10.973 -0.2889 -0.7203  0.5598
   65MOL0     C 8694   3.908   4.606  10.929 -0.1765  1.1539  0.3061
   65MOL0     C 8695   3.513   4.405  10.849  0.7201  0.7099  0.2372
   65MOL0     C 8696   3.433   4.416  10.742 -0.0754  0.1125  0.1997
   65MOL0     C 8697   3.332   4.324  10.727 -0.2150  0.5894 -0.5747
   65MOL0     C 8698   3.315   4.199  10.796  0.3433  0.0728 -0.9198
   65MOL0     O 8699   3.214   4.114  10.763 -0.3313 -0.3952  0.8044
   65MOL0     C 8700   3.204   3.990  10.838  0.0381  0.2180 -0.0983
   65MOL0     C 8701   3.093   3.914  10.775  0.1525 -0.0736  0.0232
   65MOL0     C 8702   3.007   3.850  10.881  0.0727  0.7725 -0.2343
   65MOL0     C 8703   2.906   3.755  10.824  0.3293 -0.3985 -0.6815
   65MOL0     C 8704   2.819   3.822  10.725  0.2567  1.0490  0.8599
   65MOL0     C 8705   2.758   3.866  10.633 -0.5626 -0.1196 -0.3287
   65MOL0     C 8706   3.410   4.180  10.902  0.3335 -1.6708 -0.7126
   65MOL0     C 8707   3.506   4.281  10.923 -0.4143 -0.3736 -0.4892
   65MOL0     H 8708   3.708   4.596  11.188  1.4009 -1.8523  0.1152
   65MOL0     H 8709   3.881   4.768  11.281  1.7630  1.6881 -0.0416
   65MOL0     H 8710   3.932   4.979  11.233  0.0166 -0.6811  0.3758
   65MOL0     H 8711   4.097   5.006  11.272 -0.1331  1.3048 -0.6051
   65MOL0     H 8712   4.007   5.175  11.132  1.0045 -0.7923  3.2247
   65MOL0     H 8713   4.139   5.089  11.059  0.2356  1.3146  0.2983
   65MOL0     H 8714   3.937   5.132  10.885 -0.0936  1.1505  0.6813
   65MOL0     H 8715   3.963   4.958  10.912 -2.0870 -0.8812  0.1776
   65MOL0     H 8716   3.775   4.967  11.092  0.2298 -0.4440  0.5279
   65MOL0     H 8717   3.770   5.146  11.066  0.6596  0.1162 -0.5641
   65MOL0     H 8718   3.696   5.113  10.834 -1.8934  0.2439  0.5801
   65MOL0     H 8719   3.725   4.943  10.836 -1.6650  0.1325  0.4066
   65MOL0     H 8720   3.543   4.929  11.033 -0.9481  0.2795  0.1186
   65MOL0     H 8721   3.511   5.084  11.007 -0.0438  0.0619  0.4173
   65MOL0     H 8722   3.425   5.065  10.784  1.1502  1.6128  2.4927
   65MOL0     H 8723   3.490   4.908  10.761 -0.4299 -1.5984  1.0552
   65MOL0     H 8724   3.263   4.995  10.940 -1.7088  0.2469 -3.1598
   65MOL0     H 8725   3.346   4.843  10.974 -1.2975 -2.3298 -0.9509
   65MOL0     H 8726   3.173   5.027  10.649 -2.1856  1.1855  3.0734
   65MOL0     H 8727   3.077   4.942  10.435 -3.7844 -0.5411  1.9079
   65MOL0     H 8728   3.174   4.797  10.381 -4.1711  0.5204 -4.7200
   65MOL0     H 8729   2.901   4.756  10.483  0.4052  0.3456  0.2947
   65MOL0     H 8730   3.026   4.645  10.411 -1.0697 -0.7469  5.0225
   65MOL0     H 8731   3.016   4.787  10.205  0.9496  2.1114  0.6945
   65MOL0     H 8732   2.901   4.898  10.271 -0.1494 -0.0076 -1.4514
   65MOL0     H 8733   2.835   4.604  10.281 -0.6663 -0.6044  0.0114
   65MOL0     H 8734   2.812   4.692  10.133 -1.2453 -1.4844  0.8934
   65MOL0     H 8735   2.682   4.517  10.150 -0.4447 -0.1384  0.4619
   65MOL0     H 8736   2.417   4.369   9.999 -0.8046 -0.7237  1.0077
   65MOL0     H 8737   2.577   4.332  10.064  0.1853 -2.1932  1.3590
   65MOL0     H 8738   2.423   4.295  10.150 -1.1862  2.5231  2.0865
   65MOL0     H 8739   1.907   4.731  10.195 -0.1803 -0.1960 -0.4754
   65MOL0     H 8740   1.668   4.668  10.170 -1.0460 -0.4106  3.8325
   65MOL0     H 8741   1.552   4.312   9.956 -1.4085 -0.7608 -1.6921
   65MOL0     H 8742   1.564   4.216  10.106  0.5468  1.5869 -0.0289
   65MOL0     H 8743   1.357   4.184  10.008  0.2710 -1.4794  2.7732
   65MOL0     H 8744   1.349   4.237  10.167 -0.3511 -1.0247  0.0601
   65MOL0     H 8745   1.178   4.366   9.998  0.9626  1.6307 -2.5249
   65MOL0     H 8746   1.323   4.459   9.969 -0.3942  0.0244 -0.7296
   65MOL0     H 8747   1.253   4.423  10.245 -2.2886 -0.7756 -0.9729
   65MOL0     H 8748   1.339   4.553  10.159 -0.5070  0.6443 -0.7278
   65MOL0     H 8749   1.026   4.500  10.150  1.3021 -2.0857 -0.5715
   65MOL0     H 8750   1.120   4.622  10.070 -2.0549 -0.2450  0.1955
   65MOL0     H 8751   1.161   4.755  10.260  1.5090 -1.2795 -0.2767
   65MOL0     H 8752   0.993   4.702  10.263  0.4328  0.2545 -1.8795
   65MOL0     H 8753   1.226   4.562  10.438 -0.4719  0.0250 -0.2967
   65MOL0     H 8754   1.055   4.512  10.417  0.1085 -0.4870  2.1534
   65MOL0     H 8755   1.057   4.628  10.634  1.8384 -0.8301  0.4493
   65MOL0     H 8756   0.983   4.731  10.511 -1.9300 -3.2174  0.5579
   65MOL0     H 8757   1.793   4.251  10.129  1.4942 -1.1900  2.0937
   65MOL0     H 8758   2.012   4.317  10.193  0.2094  1.0570  5.5935
   65MOL0     H 8759   2.264   4.723  10.318  0.5966 -0.7752  0.8954
   65MOL0     H 8760   2.476   4.815  10.378  1.5938 -0.1063  0.4881
   65MOL0     H 8761   4.094   4.729  10.917 -0.2912 -0.8616  0.4928
   65MOL0     H 8762   3.911   4.556  10.833  1.8284 -3.4837  2.5025
   65MOL0     H 8763   3.442   4.502  10.676 -1.0295 -0.0528 -0.1664
   65MOL0     H 8764   3.268   4.344  10.642  0.6956 -0.6155 -1.5727
   65MOL0     H 8765   3.297   3.932  10.840  1.2309  1.9877  3.1811
   65MOL0     H 8766   3.170   4.020  10.937  1.5978 -1.0673  0.8766
   65MOL0     H 8767   3.142   3.848  10.702  0.9608  1.5901 -1.0055
   65MOL0     H 8768   3.024   3.985  10.728  1.4932 -0.5212 -2.8524
   65MOL0     H 8769   2.959   3.921  10.949 -1.7060 -0.2250 -0.3674
   65MOL0     H 8770   3.085   3.793  10.931  0.3019  0.6238 -0.7593
   65MOL0     H 8771   2.847   3.719  10.909 -1.0903  3.6262  0.2288
   65MOL0     H 8772   2.962   3.670  10.782  0.7621 -0.2974 -0.3274
   65MOL0     H 8773   2.686   3.901  10.562 -1.5683  1.6827  1.4759
   65MOL0     H 8774   3.410   4.088  10.959 -1.0298 -1.3266 -0.1234
   65MOL0     H 8775   3.585   4.266  10.996  0.0646  0.8602 -0.7352
   66MOL0     O 8776   9.119   7.217   3.930  0.3258  0.5143 -0.5685
   66MOL0     C 8777   9.204   7.286   3.978 -0.0173 -0.0193 -0.4343
   66MOL0     O 8778   9.211   7.330   4.117  0.1904 -0.0706  0.0973
   66MOL0     C 8779   9.121   7.283   4.211 -0.5997 -0.0739 -1.1001
   66MOL0     C 8780   9.096   7.142   4.224  0.1086  0.3243  0.1404
   66MOL0     C 8781   9.000   7.089   4.306 -0.0640  0.0831  0.5149
   66MOL0     C 8782   8.923   7.185   4.381  0.5296  0.3139  0.4803
   66MOL0     O 8783   8.814   7.156   4.458 -0.1055 -0.3772 -0.1999
   66MOL0     C 8784   8.803   7.024   4.503  0.3323  0.2237 -0.9708
   66MOL0     C 8785   8.710   7.006   4.626 -0.6214  0.8130  0.4253
   66MOL0     C 8786   8.690   6.863   4.663 -0.1660  0.2549  1.2254
   66MOL0     C 8787   8.611   6.852   4.792 -0.2901 -0.7693  0.6114
   66MOL0     C 8788   8.529   6.723   4.781 -1.2119 -0.0470  0.0612
   66MOL0     C 8789   8.602   6.583   4.801 -0.5769 -0.0556  0.9578
   66MOL0     C 8790   8.516   6.458   4.750  0.5681  0.6660  0.1801
   66MOL0     C 8791   8.373   6.471   4.779  0.0780  0.8493  0.1393
   66MOL0     N 8792   8.307   6.339   4.792 -0.4909  0.6420  0.2071
   66MOL0     C 8793   8.354   6.228   4.716  0.5163  0.4069  0.0401
   66MOL0     C 8794   8.283   6.129   4.771 -0.4548 -0.5409 -0.1448
   66MOL0     C 8795   8.297   5.983   4.729  0.3572 -0.1772  0.1010
   66MOL0     C 8796   8.159   5.939   4.670  0.1317 -0.2571  0.4214
   66MOL0     C 8797   8.174   5.789   4.671 -1.1282  0.2537  0.3377
   66MOL0     C 8798   8.041   5.725   4.609 -0.3410 -0.1812 -0.3713
   66MOL0     O 8799   8.069   5.594   4.574  0.2323  0.5538  0.1839
   66MOL0     C 8800   7.965   5.505   4.553 -0.2491  0.6634  0.6513
   66MOL0     C 8801   8.000   5.367   4.547 -0.3801  0.4725  0.1950
   66MOL0     C 8802   7.901   5.261   4.537 -1.5830 -0.2701  0.4431
   66MOL0     C 8803   7.966   5.124   4.546 -0.2807  0.2516  0.3120
   66MOL0     C 8804   7.765   5.297   4.530  0.6231 -0.1901  0.7841
   66MOL0     C 8805   7.641   5.195   4.510  0.7315 -0.8729  0.3176
   66MOL0     O 8806   7.527   5.260   4.520 -0.5767  0.4236 -0.3012
   66MOL0     C 8807   7.409   5.206   4.512 -0.1506 -0.0013  0.8708
   66MOL0     C 8808   7.297   5.268   4.580  0.0733 -0.0198  0.8502
   66MOL0     C 8809   7.165   5.239   4.547 -0.1848  0.4086  0.6470
   66MOL0     C 8810   7.136   5.125   4.476  0.0702 -0.7906  0.1272
   66MOL0     O 8811   7.016   5.082   4.477  0.7083 -0.3224  0.5900
   66MOL0     C 8812   6.938   5.115   4.355 -0.3433 -1.1532  0.2511
   66MOL0     C 8813   6.909   5.258   4.321 -0.0896 -0.3938  1.3503
   66MOL0     C 8814   6.862   5.258   4.177 -0.3676 -0.2758 -0.5528
   66MOL0     C 8815   6.810   5.392   4.140 -0.7001  0.0637 -1.3345
   66MOL0     C 8816   6.805   5.415   3.988  0.5050 -0.4862  0.4841
   66MOL0     C 8817   6.771   5.569   3.950  0.3022 -0.5356 -0.2614
   66MOL0     C 8818   6.638   5.618   3.997 -0.0427  0.2713 -0.2585
   66MOL0     C 8819   6.517   5.581   3.913  0.3407  0.0759 -0.6342
   66MOL0    Cl 8820   6.384   5.707   3.918 -0.2411  0.2454  0.2408
   66MOL0     C 8821   7.238   5.063   4.409 -0.3106  0.4999 -0.0345
   66MOL0     C 8822   7.372   5.103   4.424  0.3526 -0.1132  0.8564
   66MOL0     O 8823   7.657   5.079   4.477 -0.1202 -0.3378  1.0583
   66MOL0     C 8824   7.727   5.437   4.529 -0.3394  0.1406  0.6418
   66MOL0     C 8825   7.830   5.536   4.537  0.3832 -0.8882  0.3341
   66MOL0     N 8826   8.193   6.177   4.860 -0.7302  0.7328  0.2574
   66MOL0     N 8827   8.201   6.303   4.870  0.5727  0.0831 -0.2846
   66MOL0     C 8828   8.954   7.326   4.375 -0.0796  0.1444  0.7746
   66MOL0     C 8829   9.061   7.376   4.299  0.9634  0.0676  0.0371
   66MOL0     C 8830   9.310   7.329   3.887  0.2694 -0.6715 -0.1560
   66MOL0     C 8831   9.335   7.259   3.772 -0.6243 -0.1082 -0.6155
   66MOL0     C 8832   9.439   7.296   3.689 -0.8543  0.3725 -0.2765
   66MOL0     C 8833   9.524   7.400   3.726 -0.6389 -0.0219  0.0389
   66MOL0     O 8834   9.620   7.450   3.641 -0.2587  0.3059  0.2799
   66MOL0     C 8835   9.714   7.546   3.691 -0.4107  0.3524  0.1566
   66MOL0     C 8836   9.819   7.573   3.585  0.5597  0.6502 -0.2215
   66MOL0     C 8837   9.771   7.634   3.458 -0.6801  0.1239  0.2741
   66MOL0     C 8838   9.672   7.744   3.479 -0.5154 -0.3260  0.3623
   66MOL0     C 8839   9.732   7.847   3.564 -0.9335  0.1450 -0.0033
   66MOL0     C 8840   9.770   7.930   3.649  0.9954  0.2415  0.2042
   66MOL0     C 8841   9.512   7.465   3.853  0.6698  0.0891 -0.0426
   66MOL0     C 8842   9.392   7.435   3.930  0.0095 -0.1528  0.3124
   66MOL0     H 8843   9.135   7.065   4.157 -0.8706 -2.0630  2.1681
   66MOL0     H 8844   8.979   6.983   4.294 -0.1060  0.3047 -1.7135
   66MOL0     H 8845   8.780   6.968   4.411 -0.9744  0.6393 -0.9231
   66MOL0     H 8846   8.901   6.994   4.540 -0.8790 -2.1117  0.6319
   66MOL0     H 8847   8.741   7.063   4.714  0.3742  0.8293  0.0758
   66MOL0     H 8848   8.611   7.042   4.596 -1.5487 -0.3822  1.9105
   66MOL0     H 8849   8.642   6.815   4.578  2.4297 -0.5030  0.0859
   66MOL0     H 8850   8.783   6.809   4.682  0.1012 -0.3315 -1.4353
   66MOL0     H 8851   8.671   6.844   4.883 -1.1092  2.5169  1.5654
   66MOL0     H 8852   8.540   6.933   4.810  1.0375  1.2570 -2.4311
   66MOL0     H 8853   8.475   6.735   4.875 -0.8903 -0.8258  0.3574
   66MOL0     H 8854   8.471   6.730   4.689  0.3334 -2.7687 -1.2435
   66MOL0     H 8855   8.684   6.579   4.729 -1.9367 -1.5204 -0.5978
   66MOL0     H 8856   8.642   6.574   4.903  2.2042  0.9526  0.0378
   66MOL0     H 8857   8.526   6.460   4.641  1.7686 -3.5785  0.0369
   66MOL0     H 8858   8.578   6.374   4.783  1.4156  0.1512 -2.4920
   66MOL0     H 8859   8.328   6.535   4.702  0.9766 -1.1799 -2.2087
   66MOL0     H 8860   8.361   6.519   4.876  2.9162  0.9180  0.5275
   66MOL0     H 8861   8.417   6.217   4.628 -0.4392  0.0743 -0.6232
   66MOL0     H 8862   8.362   5.992   4.642 -3.2314  1.4303 -2.6623
   66MOL0     H 8863   8.338   5.925   4.812 -2.1031  0.1353  1.6452
   66MOL0     H 8864   8.144   5.975   4.568 -0.6449 -0.3441  0.5023
   66MOL0     H 8865   8.071   5.956   4.732 -0.2032 -0.3412 -0.0315
   66MOL0     H 8866   8.180   5.761   4.776 -3.0245 -0.4412  0.3064
   66MOL0     H 8867   8.259   5.758   4.609 -0.9753 -1.0192  1.1568
   66MOL0     H 8868   8.010   5.778   4.518  0.4865  2.9143  1.0070
   66MOL0     H 8869   7.960   5.731   4.681 -0.1454 -1.5742 -0.0177
   66MOL0     H 8870   8.104   5.339   4.555 -0.4551  0.3315  0.6728
   66MOL0     H 8871   8.068   5.122   4.586 -0.6082  3.5636  1.6168
   66MOL0     H 8872   7.900   5.065   4.610 -2.7157  2.4881  0.0271
   66MOL0     H 8873   7.957   5.090   4.443  1.4375  5.7430 -2.0311
   66MOL0     H 8874   7.309   5.344   4.656  3.1084  1.2358 -0.7299
   66MOL0     H 8875   7.078   5.294   4.582 -1.8978 -1.0250 -1.1136
   66MOL0     H 8876   6.983   5.068   4.267 -0.7667  2.6830 -2.2488
   66MOL0     H 8877   6.841   5.068   4.374  0.3550 -2.2182  1.3600
   66MOL0     H 8878   6.827   5.290   4.385 -1.0750 -2.3994  1.1655
   66MOL0     H 8879   7.002   5.315   4.323  1.3868 -2.5294 -0.5604
   66MOL0     H 8880   6.796   5.173   4.158  0.7611 -0.8027 -2.3290
   66MOL0     H 8881   6.949   5.231   4.116 -0.1017 -0.9933  0.1254
   66MOL0     H 8882   6.712   5.411   4.185 -1.7995  0.2457 -3.6851
   66MOL0     H 8883   6.870   5.467   4.193 -0.3586  0.0526 -1.7028
   66MOL0     H 8884   6.723   5.355   3.947  0.5830  1.1881 -2.4464
   66MOL0     H 8885   6.896   5.399   3.931 -1.1231  0.6603 -2.6874
   66MOL0     H 8886   6.849   5.627   4.000  0.3531  0.2120 -1.1898
   66MOL0     H 8887   6.785   5.583   3.843  1.2451 -0.9091 -0.1948
   66MOL0     H 8888   6.645   5.727   4.003  0.6593  0.2233 -0.1004
   66MOL0     H 8889   6.623   5.588   4.101  3.8349 -2.9662 -0.3994
   66MOL0     H 8890   6.472   5.489   3.952 -2.5038 -1.0294 -5.5531
   66MOL0     H 8891   6.554   5.562   3.811  1.1353 -0.4687 -0.2534
   66MOL0     H 8892   7.218   4.974   4.350  0.0609  0.5091 -0.1807
   66MOL0     H 8893   7.444   5.055   4.358  1.6998 -0.2051  2.3395
   66MOL0     H 8894   7.623   5.469   4.523 -1.3412 -2.9214 -0.3602
   66MOL0     H 8895   7.783   5.633   4.552 -2.1024 -1.7611 -1.1294
   66MOL0     H 8896   8.885   7.392   4.427  0.2488  1.8458 -0.8402
   66MOL0     H 8897   9.078   7.483   4.299  2.1890 -0.1125 -0.1288
   66MOL0     H 8898   9.280   7.172   3.739 -0.6539 -0.1295 -0.5092
   66MOL0     H 8899   9.464   7.241   3.598  1.2435 -1.8082  1.4775
   66MOL0     H 8900   9.668   7.639   3.726  0.7317  0.5678  1.1555
   66MOL0     H 8901   9.762   7.505   3.780 -1.5765  0.2804  0.7665
   66MOL0     H 8902   9.878   7.482   3.569 -0.3011  0.2774 -1.4375
   66MOL0     H 8903   9.893   7.639   3.630  0.6400 -0.8882  2.0916
   66MOL0     H 8904   9.720   7.564   3.391  0.3850  1.2288 -1.7793
   66MOL0     H 8905   9.857   7.654   3.392  0.0927  0.7231  1.4279
   66MOL0     H 8906   9.587   7.704   3.534  2.3873 -3.2941  3.1776
   66MOL0     H 8907   9.645   7.788   3.383  2.7108  0.9773 -0.0918
   66MOL0     H 8908   9.790   8.011   3.716  1.1811  3.0278 -2.9247
   66MOL0     H 8909   9.590   7.527   3.896  1.4660 -0.1447 -1.1022
   66MOL0     H 8910   9.384   7.475   4.031  0.0959  1.1015 -0.1598
   67MOL0     O 8911   7.699   4.185   5.187 -0.0904 -0.7401 -0.1253
   67MOL0     C 8912   7.803   4.225   5.134  0.6799 -0.3788 -0.2472
   67MOL0     O 8913   7.814   4.339   5.062 -0.4419 -0.3702  0.1015
   67MOL0     C 8914   7.706   4.408   5.016  0.2330  0.7584 -0.5783
   67MOL0     C 8915   7.593   4.351   4.955  1.0732 -0.3503 -0.3403
   67MOL0     C 8916   7.481   4.434   4.918 -1.0924  0.4203  0.1497
   67MOL0     C 8917   7.494   4.578   4.922 -0.5539 -0.5984 -0.4905
   67MOL0     O 8918   7.391   4.658   4.883  0.4270  0.0718 -0.1107
   67MOL0     C 8919   7.316   4.612   4.770  0.2927 -0.0692  0.3397
   67MOL0     C 8920   7.272   4.741   4.701  0.6022 -0.5505  0.6879
   67MOL0     C 8921   7.191   4.705   4.573  0.5823  0.4344  1.0820
   67MOL0     C 8922   7.042   4.702   4.618  0.3961  0.2977 -0.3894
   67MOL0     C 8923   6.944   4.654   4.510  0.1849 -0.8844  0.4036
   67MOL0     C 8924   6.889   4.766   4.429 -0.3201  0.5608 -0.3939
   67MOL0     C 8925   6.796   4.707   4.319 -0.1707 -1.1538 -0.3624
   67MOL0     C 8926   6.734   4.817   4.229 -0.2889 -0.1289 -0.6092
   67MOL0     N 8927   6.626   4.749   4.151 -0.3337  0.2667  0.4439
   67MOL0     C 8928   6.630   4.657   4.053  0.3531  0.0511  0.0020
   67MOL0     C 8929   6.507   4.601   4.037 -0.9678 -0.1601 -1.1216
   67MOL0     C 8930   6.448   4.497   3.945  0.0644  0.3689  0.3557
   67MOL0     C 8931   6.349   4.565   3.846 -0.8477  0.3964  0.2628
   67MOL0     C 8932   6.273   4.461   3.765 -0.0013 -0.2057 -0.0576
   67MOL0     C 8933   6.147   4.399   3.837 -0.5631  0.4012 -0.1738
   67MOL0     O 8934   6.098   4.284   3.759 -0.2661  0.3194 -0.5302
   67MOL0     C 8935   6.001   4.306   3.665 -0.0958  0.2685 -0.2498
   67MOL0     C 8936   5.925   4.194   3.636 -0.2615  0.3921  0.4625
   67MOL0     C 8937   5.807   4.197   3.560 -0.2655 -0.0035 -0.8856
   67MOL0     C 8938   5.732   4.068   3.558 -0.2444 -0.1459 -0.1662
   67MOL0     C 8939   5.790   4.314   3.486 -0.1772 -1.1673  0.4521
   67MOL0     C 8940   5.694   4.313   3.366  0.2628  0.0637 -0.2126
   67MOL0     O 8941   5.573   4.238   3.367  0.0269  0.4408 -0.3204
   67MOL0     C 8942   5.490   4.252   3.256 -0.1832 -0.1414  0.6706
   67MOL0     C 8943   5.456   4.370   3.191 -0.5230 -0.1009 -0.0156
   67MOL0     C 8944   5.381   4.376   3.073  0.1806  0.1684  0.0033
   67MOL0     C 8945   5.327   4.249   3.028  0.6137 -0.1858  0.1409
   67MOL0     O 8946   5.268   4.252   2.911 -0.0610  0.5409  0.0876
   67MOL0     C 8947   5.175   4.148   2.876 -0.6920 -1.3853  0.1652
   67MOL0     C 8948   5.065   4.192   2.779 -0.3008 -0.7244  0.8100
   67MOL0     C 8949   4.988   4.078   2.718 -0.4312 -0.3071  0.0108
   67MOL0     C 8950   4.858   4.125   2.671 -0.5856 -1.1676  0.1186
   67MOL0     C 8951   4.772   4.014   2.611 -0.7440  0.4057  0.0554
   67MOL0     C 8952   4.625   4.055   2.627  0.1615 -0.7949 -1.2228
   67MOL0     C 8953   4.597   4.190   2.551 -0.6381 -0.5681  0.2167
   67MOL0     C 8954   4.443   4.215   2.541 -0.3953 -0.5740  0.8542
   67MOL0    Cl 8955   4.371   4.115   2.424 -0.3228  0.0112 -0.0687
   67MOL0     C 8956   5.366   4.130   3.095  0.7431 -0.4696 -0.4350
   67MOL0     C 8957   5.449   4.130   3.204  0.9657 -0.8324 -0.5635
   67MOL0     O 8958   5.734   4.385   3.275  0.5754 -0.4409  0.1953
   67MOL0     C 8959   5.858   4.434   3.518 -0.6036 -0.7666 -0.1270
   67MOL0     C 8960   5.974   4.426   3.601  0.3801 -0.2791 -0.5346
   67MOL0     N 8961   6.427   4.664   4.138 -1.3275  0.6260 -0.3468
   67MOL0     N 8962   6.502   4.752   4.204  0.3874  0.4657 -0.3573
   67MOL0     C 8963   7.613   4.635   4.974 -0.2714  0.3364 -0.1080
   67MOL0     C 8964   7.712   4.546   5.019 -0.1479 -0.0173 -0.8363
   67MOL0     C 8965   7.921   4.138   5.144  0.8824 -0.1929  0.2410
   67MOL0     C 8966   7.909   4.012   5.210 -0.0360 -0.0477 -0.2931
   67MOL0     C 8967   8.020   3.929   5.230 -0.9276 -0.1296  0.2769
   67MOL0     C 8968   8.148   3.969   5.182  0.3277  0.5596 -0.4254
   67MOL0     O 8969   8.260   3.899   5.213 -0.1647 -0.7555  0.3030
   67MOL0     C 8970   8.267   3.794   5.310  0.1457 -0.6818  0.1391
   67MOL0     C 8971   8.295   3.831   5.459 -0.7961  0.2180 -0.0341
   67MOL0     C 8972   8.398   3.939   5.478 -0.2312 -0.0522  0.0109
   67MOL0     C 8973   8.425   3.969   5.624 -0.0230  0.5120  0.7304
   67MOL0     C 8974   8.491   4.100   5.626  0.0053 -0.5000 -0.5954
   67MOL0     C 8975   8.545   4.209   5.623 -0.2633  0.4497  0.8298
   67MOL0     C 8976   8.150   4.088   5.103  0.0340 -0.8144 -0.4730
   67MOL0     C 8977   8.043   4.168   5.084  1.1760 -0.1856 -0.3115
   67MOL0     H 8978   7.570   4.246   4.941 -3.2031 -0.1136  2.7444
   67MOL0     H 8979   7.394   4.376   4.890 -0.7733 -0.6854  1.3258
   67MOL0     H 8980   7.382   4.561   4.700  0.1334 -0.8375  0.7404
   67MOL0     H 8981   7.237   4.540   4.793 -0.3890  1.0969  1.8590
   67MOL0     H 8982   7.216   4.801   4.773  1.1912  1.1482 -0.2247
   67MOL0     H 8983   7.362   4.795   4.670  1.2660 -2.1890 -0.3633
   67MOL0     H 8984   7.201   4.785   4.500 -0.2416  0.3395  0.8489
   67MOL0     H 8985   7.220   4.616   4.516  2.1204  1.8138 -0.3752
   67MOL0     H 8986   7.036   4.636   4.705  1.4291  1.4400  0.5884
   67MOL0     H 8987   7.030   4.801   4.662  2.0147 -0.9117  3.2618
   67MOL0     H 8988   6.983   4.574   4.446 -0.6440 -4.8539  4.3152
   67MOL0     H 8989   6.863   4.601   4.563 -0.7990  0.8822  0.7326
   67MOL0     H 8990   6.839   4.840   4.492  0.9330  1.1292 -0.0343
   67MOL0     H 8991   6.971   4.824   4.387  1.8118 -1.4081  0.8316
   67MOL0     H 8992   6.865   4.652   4.254 -2.2800 -1.4612 -2.4982
   67MOL0     H 8993   6.717   4.641   4.357 -0.5356 -0.2962  0.4111
   67MOL0     H 8994   6.813   4.862   4.169  2.0870  1.2622  3.1619
   67MOL0     H 8995   6.691   4.891   4.298 -2.3986 -2.7555  1.0972
   67MOL0     H 8996   6.713   4.612   3.999 -0.4485 -0.8773 -0.4782
   67MOL0     H 8997   6.524   4.438   3.893  0.0207  1.9966 -1.6766
   67MOL0     H 8998   6.402   4.425   4.013 -0.4576 -0.4179 -0.7849
   67MOL0     H 8999   6.409   4.630   3.781  1.4712 -0.7172  1.1416
   67MOL0     H 9000   6.282   4.617   3.914 -3.1679 -0.5728 -1.1724
   67MOL0     H 9001   6.342   4.385   3.730  0.7487  0.6792 -0.5354
   67MOL0     H 9002   6.230   4.514   3.680  0.8212  0.9530  0.2207
   67MOL0     H 9003   6.076   4.475   3.868 -0.1744  0.9538 -0.6221
   67MOL0     H 9004   6.203   4.352   3.919  2.5771  1.2750 -1.6467
   67MOL0     H 9005   5.954   4.101   3.683 -0.0840  0.1759 -0.0688
   67MOL0     H 9006   5.739   4.022   3.658 -0.6396  2.4867  1.1726
   67MOL0     H 9007   5.625   4.070   3.536  0.3954  1.3181 -3.6649
   67MOL0     H 9008   5.783   4.005   3.485 -0.9597 -0.6888 -0.2166
   67MOL0     H 9009   5.497   4.461   3.233 -2.3522 -0.1633  2.0783
   67MOL0     H 9010   5.352   4.463   3.016 -0.3574  0.8738  1.3116
   67MOL0     H 9011   5.230   4.063   2.836  2.7173  0.3330  0.8223
   67MOL0     H 9012   5.126   4.110   2.966  1.2607  0.4069  2.1106
   67MOL0     H 9013   5.008   4.268   2.833  0.1409 -0.5215  0.9946
   67MOL0     H 9014   5.123   4.233   2.696  2.0167 -3.6414  0.8184
   67MOL0     H 9015   4.980   4.000   2.794 -0.8118 -2.2218 -1.8959
   67MOL0     H 9016   5.047   4.039   2.635  0.8545  2.4652 -0.5029
   67MOL0     H 9017   4.804   4.172   2.754  0.6776  1.8198 -0.6196
   67MOL0     H 9018   4.871   4.201   2.593 -0.6569  0.2800  1.4711
   67MOL0     H 9019   4.788   3.914   2.653 -5.6076 -0.0786  1.2742
   67MOL0     H 9020   4.806   4.008   2.507  0.6233  0.6343  0.4604
   67MOL0     H 9021   4.552   3.980   2.596 -2.6754  1.2657  0.0117
   67MOL0     H 9022   4.604   4.053   2.735 -1.3879  0.7578 -1.4649
   67MOL0     H 9023   4.634   4.186   2.449 -3.7500  1.2530 -1.1303
   67MOL0     H 9024   4.649   4.273   2.599  0.7748 -0.4586 -1.4102
   67MOL0     H 9025   4.418   4.317   2.512  0.3936 -0.5999  0.0473
   67MOL0     H 9026   4.406   4.202   2.643 -1.8873  2.1498  0.7359
   67MOL0     H 9027   5.314   4.037   3.073  0.8121 -0.5796 -0.1382
   67MOL0     H 9028   5.467   4.034   3.251 -0.6070 -0.4965  0.8736
   67MOL0     H 9029   5.840   4.531   3.472 -0.8528 -0.1062  1.2983
   67MOL0     H 9030   6.025   4.519   3.625 -2.0901  1.0825 -0.2542
   67MOL0     H 9031   7.619   4.743   4.981 -0.8231  0.3811 -0.2590
   67MOL0     H 9032   7.800   4.595   5.059 -1.3342 -0.5673  2.7293
   67MOL0     H 9033   7.814   3.975   5.246 -0.3394 -0.0690 -1.1054
   67MOL0     H 9034   8.008   3.828   5.267  0.7050 -0.5915 -0.3687
   67MOL0     H 9035   8.182   3.725   5.309 -1.1206  0.7490  1.5954
   67MOL0     H 9036   8.352   3.733   5.278 -0.1315 -1.5502  0.9830
   67MOL0     H 9037   8.327   3.743   5.515  0.8516  2.6151  3.1538
   67MOL0     H 9038   8.202   3.861   5.509  0.0174  1.5219  0.7872
   67MOL0     H 9039   8.359   4.026   5.424 -0.6508 -0.6832 -0.7190
   67MOL0     H 9040   8.487   3.890   5.437  1.2345  1.8321  0.7678
   67MOL0     H 9041   8.478   3.891   5.679 -4.3158 -1.5954  2.4016
   67MOL0     H 9042   8.326   3.978   5.669  0.6974  2.5706  2.0038
   67MOL0     H 9043   8.592   4.305   5.624  1.1800 -0.1019 -2.2676
   67MOL0     H 9044   8.244   4.096   5.049 -0.2768 -0.7666 -1.0034
   67MOL0     H 9045   8.036   4.257   5.022 -1.0606 -0.4357 -0.4965
   68MOL0     O 9046   7.996  11.243   9.864 -0.5896 -0.0958 -0.1625
   68MOL0     C 9047   8.061  11.278   9.962 -0.2693 -0.5178  0.4613
   68MOL0     O 9048   8.167  11.204  10.006 -0.0630  0.1804 -0.1092
   68MOL0     C 9049   8.171  11.073   9.970 -0.9812 -0.5616 -0.3292
   68MOL0     C 9050   8.182  10.986  10.077  0.7251  0.0350 -0.1387
   68MOL0     C 9051   8.210  10.845  10.061 -0.2190  0.3505 -0.3158
   68MOL0     C 9052   8.251  10.806   9.929  0.4100  0.6978  0.4531
   68MOL0     O 9053   8.283  10.677   9.893  0.2262 -0.9471 -0.1796
   68MOL0     C 9054   8.376  10.610   9.979 -0.4053 -0.2688  0.5385
   68MOL0     C 9055   8.399  10.472   9.920  0.1290 -0.6581  0.3073
   68MOL0     C 9056   8.518  10.404   9.989  0.4888  0.6169  0.0985
   68MOL0     C 9057   8.572  10.291   9.900 -0.8784 -0.6792 -0.2052
   68MOL0     C 9058   8.686  10.205   9.958  0.6511  0.2300 -0.4907
   68MOL0     C 9059   8.743  10.113   9.852  0.1121  0.2618 -0.3795
   68MOL0     C 9060   8.863  10.045   9.914 -0.1821 -0.0336 -0.2862
   68MOL0     C 9061   8.943   9.958   9.809 -0.8777 -0.2072  0.0442
   68MOL0     N 9062   9.038   9.858   9.864  0.0611 -0.8462 -0.1413
   68MOL0     C 9063   9.002   9.724   9.875 -0.7499 -0.3122 -0.0037
   68MOL0     C 9064   9.114   9.667   9.917 -0.2155  0.3020 -0.3998
   68MOL0     C 9065   9.133   9.516   9.926 -0.2089 -0.1525  0.1276
   68MOL0     C 9066   9.282   9.471   9.915 -1.7036 -0.1192  0.0228
   68MOL0     C 9067   9.284   9.318   9.941 -1.1702  0.5197  0.3487
   68MOL0     C 9068   9.435   9.266   9.959 -0.7282  0.0329 -0.0101
   68MOL0     O 9069   9.479   9.267  10.102 -0.3845 -0.1073  0.4999
   68MOL0     C 9070   9.582   9.187  10.134  0.5597  0.0970 -0.4346
   68MOL0     C 9071   9.661   9.116  10.044  1.3105  0.3857 -0.0816
   68MOL0     C 9072   9.762   9.025  10.092  0.2793 -0.7132 -0.2969
   68MOL0     C 9073   9.854   8.962   9.999 -0.6681 -0.3267 -0.1676
   68MOL0     C 9074   9.784   9.005  10.232 -0.4375  0.4003  2.4601
   68MOL0     C 9075   9.893   8.920  10.297 -1.1115 -0.1415 -0.1618
   68MOL0     O 9076   9.952   8.824  10.219 -0.5346  0.0432 -0.8305
   68MOL0     C 9077  10.066   8.775  10.275  0.1665  0.6828 -0.2464
   68MOL0     C 9078  10.061   8.656  10.357  0.6500 -0.5809 -0.1209
   68MOL0     C 9079  10.191   8.607  10.394  0.3325 -0.4735 -0.5660
   68MOL0     C 9080  10.310   8.669  10.356  0.7910 -0.3638 -0.8768
   68MOL0     O 9081  10.429   8.630  10.408 -0.0548  0.7783  0.4652
   68MOL0     C 9082  10.421   8.583  10.551  0.7270  0.6768 -0.6245
   68MOL0     C 9083  10.560   8.571  10.620  0.0629 -0.9281 -0.1022
   68MOL0     C 9084  10.606   8.428  10.638  0.2525 -0.4279  0.7280
   68MOL0     C 9085  10.526   8.339  10.725  0.3679 -0.6723 -0.4852
   68MOL0     C 9086  10.564   8.191  10.737  0.5231 -0.0737  0.5639
   68MOL0     C 9087  10.690   8.174  10.831  0.0114  0.3331 -0.3011
   68MOL0     C 9088  10.736   8.028  10.814 -0.6552 -0.3486  0.1282
   68MOL0     C 9089  10.837   7.983  10.914 -0.4942 -0.4080  0.6055
   68MOL0    Cl 9090  10.782   7.986  11.090 -0.1602 -0.0612 -0.1122
   68MOL0     C 9091  10.310   8.787  10.288 -0.3957 -0.0870 -0.4711
   68MOL0     C 9092  10.190   8.829  10.236  0.0679  0.6410  0.6620
   68MOL0     O 9093   9.907   8.938  10.420  0.5985  0.0198  0.2103
   68MOL0     C 9094   9.698   9.082  10.315 -0.0223 -0.2833 -0.5735
   68MOL0     C 9095   9.602   9.168  10.269  1.3744  1.1648 -0.0169
   68MOL0     N 9096   9.215   9.762   9.923 -0.3461 -0.2036  0.3954
   68MOL0     N 9097   9.167   9.884   9.893 -0.2897  0.2848 -0.0552
   68MOL0     C 9098   8.255  10.899   9.823  0.3681  0.6350 -0.5177
   68MOL0     C 9099   8.204  11.029   9.840 -0.4799 -0.0462  0.3306
   68MOL0     C 9100   8.020  11.402  10.038 -0.0999 -1.0522 -0.5875
   68MOL0     C 9101   7.881  11.445  10.040 -1.0286  0.0104  0.0873
   68MOL0     C 9102   7.847  11.573  10.096 -0.0450  0.4258 -0.5712
   68MOL0     C 9103   7.939  11.642  10.172 -0.5779  0.1059  0.1852
   68MOL0     O 9104   7.891  11.754  10.234 -0.0223  0.4255 -0.0110
   68MOL0     C 9105   7.981  11.871  10.242 -1.1106 -0.0324 -0.1855
   68MOL0     C 9106   7.929  11.961  10.354 -0.1082  0.7569 -0.0170
   68MOL0     C 9107   7.971  11.913  10.487  0.2594  0.1677 -0.2453
   68MOL0     C 9108   7.941  12.009  10.599 -0.3182 -0.0536 -1.1543
   68MOL0     C 9109   7.811  12.070  10.581 -0.6616  0.4783 -1.1598
   68MOL0     C 9110   7.696  12.117  10.572  0.1780  0.2124  0.3035
   68MOL0     C 9111   8.063  11.594  10.181 -1.2606  0.7672  0.3711
   68MOL0     C 9112   8.105  11.480  10.118 -0.2812 -0.4596  0.3837
   68MOL0     H 9113   8.150  11.026  10.173 -1.8712  0.1578 -0.9881
   68MOL0     H 9114   8.208  10.780  10.147 -3.2765  1.8960  0.9324
   68MOL0     H 9115   8.471  10.663   9.982 -1.2108  1.3298 -0.6275
   68MOL0     H 9116   8.325  10.596  10.074  1.8838  2.9944  2.4167
   68MOL0     H 9117   8.305  10.421   9.941  0.5022  0.1324  4.8158
   68MOL0     H 9118   8.411  10.478   9.811  0.0415  0.0715  0.3308
   68MOL0     H 9119   8.594  10.478  10.017  2.9295 -2.5691  2.5967
   68MOL0     H 9120   8.492  10.361  10.086 -3.1706 -2.3771 -1.9750
   68MOL0     H 9121   8.481  10.240   9.868 -1.2845 -0.1386  0.0631
   68MOL0     H 9122   8.613  10.343   9.813  1.4323 -0.9717  0.6204
   68MOL0     H 9123   8.762  10.270  10.001  0.9823 -0.4715 -0.0096
   68MOL0     H 9124   8.652  10.139  10.038  0.4931  2.3641  1.2991
   68MOL0     H 9125   8.671  10.040   9.814 -2.6521  0.9958  2.9047
   68MOL0     H 9126   8.789  10.169   9.771  3.5710  0.0966  1.2921
   68MOL0     H 9127   8.931  10.116   9.961 -1.4613  1.1040 -0.0909
   68MOL0     H 9128   8.829   9.976   9.992 -2.2128  0.9635 -0.2197
   68MOL0     H 9129   9.011  10.015   9.745  0.8878  1.4330  3.1306
   68MOL0     H 9130   8.857   9.915   9.756 -0.9702 -0.0327  0.0517
   68MOL0     H 9131   8.908   9.671   9.862 -2.0633  2.1902 -1.3969
   68MOL0     H 9132   9.089   9.483  10.021 -3.0211  1.0156 -0.6637
   68MOL0     H 9133   9.077   9.474   9.843 -1.3001 -2.1461  1.7687
   68MOL0     H 9134   9.340   9.524   9.991  0.5897  0.8671 -2.2496
   68MOL0     H 9135   9.334   9.504   9.825 -0.3207 -1.6091  0.2268
   68MOL0     H 9136   9.233   9.277   9.853 -3.7856  2.1620  0.9916
   68MOL0     H 9137   9.226   9.297  10.031  0.9213  0.9368  1.8855
   68MOL0     H 9138   9.499   9.324   9.892 -1.3986  0.1422 -0.5730
   68MOL0     H 9139   9.440   9.160   9.931 -1.7564 -0.3573  1.1926
   68MOL0     H 9140   9.645   9.124   9.937 -3.7051 -2.1506  0.2204
   68MOL0     H 9141   9.955   8.967  10.041 -1.2984  0.1372  1.3480
   68MOL0     H 9142   9.829   8.858   9.979 -0.3122 -0.4968  0.2630
   68MOL0     H 9143   9.871   9.015   9.904 -0.5704 -0.1722 -0.0645
   68MOL0     H 9144   9.966   8.607  10.373 -0.7101  1.0649 -2.5502
   68MOL0     H 9145  10.192   8.517  10.455 -1.2701 -1.3759 -1.8045
   68MOL0     H 9146  10.364   8.663  10.599  0.0639  1.7436 -3.0327
   68MOL0     H 9147  10.371   8.486  10.564 -1.9273  2.0637  0.2101
   68MOL0     H 9148  10.630   8.632  10.562  1.5123  0.0140  2.5031
   68MOL0     H 9149  10.549   8.619  10.717 -1.8468  3.3292 -2.1402
   68MOL0     H 9150  10.704   8.446  10.685  0.4448  0.4510  0.0296
   68MOL0     H 9151  10.627   8.371  10.547  1.6522 -2.5584  2.2917
   68MOL0     H 9152  10.541   8.384  10.824  2.3286  1.7120 -1.7462
   68MOL0     H 9153  10.419   8.334  10.704  0.2689 -0.3155 -0.0858
   68MOL0     H 9154  10.590   8.161  10.635  0.9105 -0.7116  0.8445
   68MOL0     H 9155  10.474   8.138  10.769 -2.2193  3.3883 -0.8184
   68MOL0     H 9156  10.771   8.242  10.804  0.1814 -0.1035 -0.8945
   68MOL0     H 9157  10.663   8.194  10.935 -1.0363 -0.1866 -0.4572
   68MOL0     H 9158  10.769   8.003  10.713  0.7247 -3.8541  1.3159
   68MOL0     H 9159  10.646   7.968  10.831 -2.7609  1.7823 -2.4703
   68MOL0     H 9160  10.922   8.047  10.889 -2.4327  1.2880 -2.1367
   68MOL0     H 9161  10.870   7.880  10.900  2.5545 -0.3206  5.0177
   68MOL0     H 9162  10.410   8.828  10.277  0.8751 -2.0567  2.5587
   68MOL0     H 9163  10.189   8.905  10.158 -4.0144  0.3768  0.2556
   68MOL0     H 9164   9.698   9.059  10.421  0.9936 -0.6866 -0.6495
   68MOL0     H 9165   9.536   9.219  10.338 -1.5444 -1.8072 -0.3835
   68MOL0     H 9166   8.290  10.862   9.727  0.9721  3.6193 -1.5424
   68MOL0     H 9167   8.226  11.100   9.760 -0.5786 -0.5632 -0.1588
   68MOL0     H 9168   7.801  11.402   9.980 -0.8576  0.7322 -0.6777
   68MOL0     H 9169   7.745  11.606  10.079  0.3412  0.6745 -2.7627
   68MOL0     H 9170   8.087  11.854  10.261 -1.3514 -0.5863  0.7744
   68MOL0     H 9171   7.973  11.922  10.146  1.9125 -0.5488 -0.8042
   68MOL0     H 9172   7.820  11.975  10.353 -0.1564  1.2126  2.7258
   68MOL0     H 9173   7.970  12.061  10.339  0.3590  0.7105  0.8910
   68MOL0     H 9174   8.080  11.906  10.493  0.2496  0.9552  3.0547
   68MOL0     H 9175   7.922  11.816  10.496 -2.1632  1.0627 -2.5915
   68MOL0     H 9176   8.019  12.085  10.607 -1.2832  0.7800  1.7194
   68MOL0     H 9177   7.940  11.961  10.697 -1.5269  1.5297 -0.3393
   68MOL0     H 9178   7.593  12.143  10.558  0.0804 -0.4978 -0.3723
   68MOL0     H 9179   8.122  11.657  10.247 -1.9034  0.3422  1.3664
   68MOL0     H 9180   8.204  11.439  10.134 -1.2353 -3.1332 -0.0737
   69MOL0     O 9181  10.414   0.810   4.802 -0.5996 -0.4900  0.4029
   69MOL0     C 9182  10.422   0.893   4.891 -0.2440  0.1935  0.5780
   69MOL0     O 9183  10.346   0.898   5.007 -1.6139 -0.0163  0.3726
   69MOL0     C 9184  10.270   0.798   5.047  0.7327  0.5455 -0.0473
   69MOL0     C 9185  10.303   0.666   5.031 -0.1621 -0.4305 -0.3005
   69MOL0     C 9186  10.230   0.570   5.092 -0.7615 -0.0615  0.0509
   69MOL0     C 9187  10.113   0.597   5.163  0.4073  0.0786 -0.2765
   69MOL0     O 9188  10.035   0.496   5.209 -0.2177  0.4472  0.6711
   69MOL0     C 9189   9.939   0.520   5.313  0.0008  0.1567  0.6677
   69MOL0     C 9190   9.802   0.485   5.267  0.1527  0.4178 -0.2246
   69MOL0     C 9191   9.692   0.558   5.346 -0.0201 -0.7905 -0.1011
   69MOL0     C 9192   9.549   0.508   5.327 -0.1479 -0.3517  0.5772
   69MOL0     C 9193   9.479   0.502   5.185  0.0948 -0.8094  0.2423
   69MOL0     C 9194   9.333   0.452   5.198  0.2876 -0.1015 -0.0388
   69MOL0     C 9195   9.290   0.407   5.057 -0.3963 -0.6751  0.4456
   69MOL0     C 9196   9.183   0.306   5.044  0.5521  0.3566 -1.2583
   69MOL0     N 9197   9.054   0.351   5.096  0.4812 -0.5820  0.3072
   69MOL0     C 9198   9.029   0.400   5.220 -0.9151  0.7004  0.1339
   69MOL0     C 9199   8.901   0.442   5.216 -0.2727  0.9290  0.4439
   69MOL0     C 9200   8.831   0.500   5.329 -1.3026  0.3730  0.0760
   69MOL0     C 9201   8.814   0.387   5.428  0.0928 -0.7406  0.0993
   69MOL0     C 9202   8.712   0.422   5.535 -0.2512 -0.9434  0.0246
   69MOL0     C 9203   8.701   0.321   5.652  0.3902 -0.6584  0.2873
   69MOL0     O 9204   8.613   0.347   5.760  0.1767  0.2663  0.4588
   69MOL0     C 9205   8.483   0.364   5.727 -0.2019 -0.1921 -0.2470
   69MOL0     C 9206   8.415   0.488   5.754 -1.0369  0.3104  0.0919
   69MOL0     C 9207   8.280   0.505   5.727  0.3441  0.3165 -0.2563
   69MOL0     C 9208   8.209   0.625   5.775  0.7756  0.5115  0.3131
   69MOL0     C 9209   8.214   0.398   5.663  0.5139 -0.0742  0.0366
   69MOL0     C 9210   8.075   0.403   5.626  0.5826  0.0221  0.7311
   69MOL0     O 9211   8.023   0.514   5.556  0.5334 -0.4770  0.1463
   69MOL0     C 9212   7.895   0.508   5.515  0.6396 -0.2231  1.3270
   69MOL0     C 9213   7.858   0.433   5.404 -0.0451  0.3046  0.3171
   69MOL0     C 9214   7.748   0.470   5.326 -0.6838  0.9242 -0.5028
   69MOL0     C 9215   7.661   0.583   5.352 -1.1789 -0.0353 -0.0264
   69MOL0     O 9216   7.557   0.635   5.279 -0.4671 -0.0520  0.2072
   69MOL0     C 9217   7.481   0.541   5.200 -0.4000 -0.3350  0.4828
   69MOL0     C 9218   7.406   0.445   5.286 -0.1278 -0.3645 -1.2838
   69MOL0     C 9219   7.379   0.310   5.222 -1.0423 -0.2794 -0.1142
   69MOL0     C 9220   7.251   0.293   5.163  0.7848  0.4022  0.1438
   69MOL0     C 9221   7.239   0.344   5.020 -0.8839  0.7121  0.0450
   69MOL0     C 9222   7.091   0.353   4.975 -0.2268 -0.4270 -0.2028
   69MOL0     C 9223   7.086   0.371   4.818  0.4538 -0.2032 -0.5127
   69MOL0     C 9224   7.018   0.502   4.777  0.1529  0.0854 -0.1701
   69MOL0    Cl 9225   6.854   0.516   4.843  0.0541  0.1742  0.2221
   69MOL0     C 9226   7.701   0.649   5.472  1.2228 -0.7589 -0.7079
   69MOL0     C 9227   7.809   0.614   5.546 -1.5158 -0.3530 -1.3306
   69MOL0     O 9228   8.008   0.305   5.660 -0.2867  0.2283 -0.0808
   69MOL0     C 9229   8.284   0.280   5.644 -0.0578  0.5133  0.6276
   69MOL0     C 9230   8.412   0.253   5.681 -0.5108 -0.2371  0.1639
   69MOL0     N 9231   8.851   0.414   5.089  0.1671  0.0015  0.2215
   69MOL0     N 9232   8.944   0.359   5.014 -0.7598 -0.4391 -0.0067
   69MOL0     C 9233  10.074   0.732   5.170 -0.1391 -0.6405  0.3428
   69MOL0     C 9234  10.149   0.828   5.120  0.2896 -0.5382  0.1342
   69MOL0     C 9235  10.531   0.990   4.879 -0.1058 -1.0867  0.0433
   69MOL0     C 9236  10.515   1.125   4.918 -0.2168  0.9122  0.1780
   69MOL0     C 9237  10.606   1.221   4.898 -1.0087 -1.4281 -0.5736
   69MOL0     C 9238  10.728   1.194   4.829 -0.3725  0.2498 -0.3188
   69MOL0     O 9239  10.830   1.279   4.822  0.0137  0.0590  0.0729
   69MOL0     C 9240  10.786   1.405   4.776  0.7140  0.2741 -0.4055
   69MOL0     C 9241  10.912   1.488   4.738 -0.0836  0.4546  0.1112
   69MOL0     C 9242  11.010   1.511   4.854 -0.3941  0.2895 -0.1029
   69MOL0     C 9243  11.083   1.639   4.831 -0.2788 -0.4434  0.1882
   69MOL0     C 9244  11.133   1.692   4.961  1.0885 -0.0081  0.3310
   69MOL0     C 9245  11.184   1.733   5.066 -0.1934  0.0190  0.4360
   69MOL0     C 9246  10.761   1.058   4.795  1.0164 -0.0327  0.6655
   69MOL0     C 9247  10.659   0.956   4.816  0.7095 -1.3604  0.6876
   69MOL0     H 9248  10.392   0.616   4.995  0.8563  0.8175  0.3772
   69MOL0     H 9249  10.245   0.463   5.082 -0.3599 -0.2313  2.0271
   69MOL0     H 9250   9.964   0.457   5.398 -4.6319 -0.8240  1.5624
   69MOL0     H 9251   9.940   0.623   5.351 -1.5643  0.4106  0.1167
   69MOL0     H 9252   9.788   0.513   5.162 -0.5398  1.7534  0.1912
   69MOL0     H 9253   9.783   0.377   5.268 -1.5091  0.6593 -1.4554
   69MOL0     H 9254   9.707   0.548   5.454 -0.2178  0.2937  0.0376
   69MOL0     H 9255   9.700   0.660   5.306 -0.6939  0.3893  2.5571
   69MOL0     H 9256   9.554   0.406   5.366 -1.5368 -0.3736  0.7275
   69MOL0     H 9257   9.486   0.560   5.399  0.5441 -0.1444  1.0376
   69MOL0     H 9258   9.474   0.600   5.136  1.7913 -2.3108 -3.2545
   69MOL0     H 9259   9.544   0.432   5.130  1.0522 -1.4421  2.1056
   69MOL0     H 9260   9.346   0.357   5.250 -3.4603 -1.3552 -1.0795
   69MOL0     H 9261   9.261   0.516   5.251 -1.7303 -2.8129  0.7261
   69MOL0     H 9262   9.274   0.500   5.001  2.8273 -1.0432 -1.3373
   69MOL0     H 9263   9.378   0.351   5.026  1.9443  1.2862  3.0313
   69MOL0     H 9264   9.197   0.211   5.097  0.5997  0.4876 -1.0336
   69MOL0     H 9265   9.156   0.282   4.941 -0.3154  1.8806 -1.4179
   69MOL0     H 9266   9.100   0.398   5.302  0.7834  2.4700 -1.1904
   69MOL0     H 9267   8.888   0.582   5.372 -1.9942  0.5930  0.6069
   69MOL0     H 9268   8.738   0.548   5.296 -0.7659  1.3789  0.0118
   69MOL0     H 9269   8.912   0.361   5.468 -0.8177 -1.9198  1.6757
   69MOL0     H 9270   8.777   0.297   5.377 -1.7131 -1.1094  1.9476
   69MOL0     H 9271   8.611   0.427   5.494 -0.9196 -2.7852  1.3038
   69MOL0     H 9272   8.740   0.515   5.586  0.2884 -0.5425 -0.9912
   69MOL0     H 9273   8.802   0.302   5.690  0.1687 -1.2806  0.5694
   69MOL0     H 9274   8.667   0.225   5.612 -2.9360  0.6796 -0.4475
   69MOL0     H 9275   8.481   0.563   5.797 -0.4735 -1.0187  1.6738
   69MOL0     H 9276   8.161   0.592   5.868  3.2770  0.7657  1.8074
   69MOL0     H 9277   8.278   0.707   5.799  2.8054 -0.9757 -0.1852
   69MOL0     H 9278   8.136   0.672   5.708  0.1299 -1.0577 -0.1114
   69MOL0     H 9279   7.931   0.358   5.372  0.3328  0.7622  0.0932
   69MOL0     H 9280   7.738   0.415   5.233  2.7313  2.0176 -1.6683
   69MOL0     H 9281   7.409   0.595   5.137 -1.6040 -1.8535  0.4807
   69MOL0     H 9282   7.526   0.481   5.120 -2.4994  0.1821 -1.2008
   69MOL0     H 9283   7.465   0.426   5.377  2.6379 -3.3439 -3.4772
   69MOL0     H 9284   7.319   0.504   5.316  0.6653  0.8715 -1.3045
   69MOL0     H 9285   7.366   0.238   5.303 -5.1207  2.1669  1.7312
   69MOL0     H 9286   7.467   0.287   5.162  0.3705  2.5600  0.6753
   69MOL0     H 9287   7.220   0.188   5.156  2.6556 -0.2597  1.2079
   69MOL0     H 9288   7.168   0.343   5.214  1.2921 -1.9566  3.6204
   69MOL0     H 9289   7.292   0.276   4.952 -0.6374  0.5303  0.4179
   69MOL0     H 9290   7.280   0.445   5.007  1.1264  0.1216  1.2969
   69MOL0     H 9291   7.033   0.263   4.999  2.4164 -2.4432 -0.9870
   69MOL0     H 9292   7.046   0.436   5.030 -1.2589 -0.1014 -1.4779
   69MOL0     H 9293   7.017   0.291   4.789 -2.5872  2.4954 -1.3755
   69MOL0     H 9294   7.184   0.363   4.771  0.9423  1.4150  0.1652
   69MOL0     H 9295   7.024   0.503   4.668  0.1465 -0.4365 -0.1811
   69MOL0     H 9296   7.085   0.584   4.803 -1.2206  1.2556 -0.2225
   69MOL0     H 9297   7.645   0.731   5.516  0.8372 -1.8718  0.9868
   69MOL0     H 9298   7.835   0.674   5.633  0.1300 -0.6480 -1.5735
   69MOL0     H 9299   8.243   0.199   5.584  0.3376  2.4220 -2.4854
   69MOL0     H 9300   8.463   0.161   5.655 -0.3981 -0.2627  0.4828
   69MOL0     H 9301   9.976   0.757   5.210 -0.4103  1.5380 -1.5053
   69MOL0     H 9302  10.119   0.930   5.145  0.1613 -0.6081  0.2647
   69MOL0     H 9303  10.421   1.153   4.965 -1.0899 -0.8968 -0.4362
   69MOL0     H 9304  10.586   1.314   4.952 -3.0272 -1.4427 -1.1991
   69MOL0     H 9305  10.714   1.399   4.693  1.2462 -0.5029 -0.8240
   69MOL0     H 9306  10.741   1.456   4.862  2.5555  2.0867 -0.4420
   69MOL0     H 9307  10.880   1.582   4.692 -1.4487  0.8985  1.8605
   69MOL0     H 9308  10.956   1.431   4.656 -0.9778  2.7777 -2.1257
   69MOL0     H 9309  11.084   1.433   4.875  1.0253  2.1730  2.3614
   69MOL0     H 9310  10.945   1.516   4.941 -1.2936 -1.6514 -0.6141
   69MOL0     H 9311  11.021   1.715   4.783  0.9720 -1.0067 -2.5213
   69MOL0     H 9312  11.163   1.616   4.759 -0.7500  3.6587 -1.9529
   69MOL0     H 9313  11.233   1.761   5.157  1.3048 -1.6435  0.1795
   69MOL0     H 9314  10.861   1.043   4.757  1.4548 -0.6679  2.0211
   69MOL0     H 9315  10.681   0.857   4.777 -1.9082 -1.2260 -1.4898
   70MOL0     O 9316  10.586   4.403   2.622 -0.1256  0.0095  0.2740
   70MOL0     C 9317  10.546   4.429   2.504 -0.2794 -0.3168 -0.7549
   70MOL0     O 9318  10.616   4.469   2.393 -0.8593 -0.3048  0.1233
   70MOL0     C 9319  10.752   4.469   2.393 -0.0881 -0.2929 -0.7295
   70MOL0     C 9320  10.835   4.537   2.481 -0.2566  0.4152  0.0796
   70MOL0     C 9321  10.970   4.536   2.477 -0.0381  0.5080 -0.1958
   70MOL0     C 9322  11.034   4.449   2.385 -0.6325  0.7047  0.0496
   70MOL0     O 9323  11.173   4.424   2.374 -0.8571 -0.1336  0.7565
   70MOL0     C 9324  11.260   4.516   2.436  0.4197 -0.3163  1.0780
   70MOL0     C 9325  11.373   4.548   2.336 -0.2296 -0.0885  0.4411
   70MOL0     C 9326  11.487   4.624   2.393  0.7249 -0.3432 -0.2070
   70MOL0     C 9327  11.602   4.530   2.433  0.0928 -0.8282  0.5180
   70MOL0     C 9328  11.716   4.610   2.496 -0.4019 -0.6275 -0.0308
   70MOL0     C 9329  11.825   4.664   2.392 -0.3551  0.0206  0.6960
   70MOL0     C 9330  11.911   4.780   2.441 -0.0206  0.3942  0.3067
   70MOL0     C 9331  11.842   4.919   2.413 -0.5693  0.4085 -0.1315
   70MOL0     N 9332  11.952   5.025   2.425  0.1975 -0.6942 -0.8748
   70MOL0     C 9333  12.074   5.012   2.355 -0.3589  1.9013 -0.5603
   70MOL0     C 9334  12.122   5.138   2.343  0.9762  0.1412  0.6923
   70MOL0     C 9335  12.241   5.171   2.273  0.6030  0.1800 -0.2816
   70MOL0     C 9336  12.258   5.085   2.149 -0.6754 -0.2730 -0.3017
   70MOL0     C 9337  12.376   5.136   2.061  0.7376 -0.9537 -0.4967
   70MOL0     C 9338  12.401   5.038   1.952 -0.5060 -0.4292  0.5984
   70MOL0     O 9339  12.541   5.056   1.919  0.1416  0.0014  0.0891
   70MOL0     C 9340  12.571   5.115   1.805 -0.8370  0.1617 -0.3691
   70MOL0     C 9341  12.564   5.043   1.681 -0.0173  0.1708 -0.1799
   70MOL0     C 9342  12.605   5.101   1.558 -0.2433  0.0255 -0.1738
   70MOL0     C 9343  12.606   5.012   1.429  0.4232 -0.7714 -0.3754
   70MOL0     C 9344  12.640   5.241   1.558  0.1593 -0.4529 -0.3365
   70MOL0     C 9345  12.673   5.330   1.438 -0.9719 -0.0077  0.8846
   70MOL0     O 9346  12.728   5.450   1.467  0.5076 -0.0410  0.2433
   70MOL0     C 9347  12.749   5.551   1.374 -0.1906  0.3123 -0.2378
   70MOL0     C 9348  12.763   5.677   1.432  0.0452  0.4489 -0.2482
   70MOL0     C 9349  12.827   5.785   1.359  0.0851  0.9795  0.6815
   70MOL0     C 9350  12.852   5.769   1.220 -0.6315 -0.3513  1.2378
   70MOL0     O 9351  12.912   5.864   1.141 -0.4254 -0.0244 -0.0795
   70MOL0     C 9352  12.907   5.994   1.193  0.4941  0.0490  0.2311
   70MOL0     C 9353  12.978   6.095   1.105 -0.0532  1.0827 -0.4904
   70MOL0     C 9354  12.995   6.233   1.173  1.2228  0.5890  0.0904
   70MOL0     C 9355  13.081   6.330   1.090 -0.2372  0.0107  0.7545
   70MOL0     C 9356  13.040   6.477   1.107 -0.1420  0.3185  1.0577
   70MOL0     C 9357  13.119   6.578   1.022 -0.6294 -0.1878 -0.3517
   70MOL0     C 9358  13.117   6.558   0.875 -0.3525  0.0489  0.3162
   70MOL0     C 9359  13.210   6.656   0.792  0.0842 -1.0010  0.2183
   70MOL0    Cl 9360  13.145   6.824   0.820  0.1195 -0.0383 -0.3435
   70MOL0     C 9361  12.815   5.649   1.157  0.0713  0.5339 -0.4688
   70MOL0     C 9362  12.775   5.531   1.229 -0.2436 -0.4547  0.4431
   70MOL0     O 9363  12.655   5.283   1.326  0.0313 -0.6914 -0.3874
   70MOL0     C 9364  12.639   5.308   1.680 -0.2655 -0.7374  0.7227
   70MOL0     C 9365  12.606   5.245   1.795  0.1426 -0.0985 -0.2586
   70MOL0     N 9366  12.028   5.215   2.417 -0.4718 -0.6679  0.2372
   70MOL0     N 9367  11.921   5.151   2.451 -0.9012 -0.2136  0.5244
   70MOL0     C 9368  10.947   4.374   2.296 -0.1268  0.5897  0.8376
   70MOL0     C 9369  10.812   4.383   2.300 -0.1841 -1.0564  0.7448
   70MOL0     C 9370  10.399   4.415   2.477  0.4676 -0.4082  0.5788
   70MOL0     C 9371  10.357   4.393   2.344  0.2444  0.6733  0.8399
   70MOL0     C 9372  10.214   4.387   2.312 -0.4891 -0.8478  0.6677
   70MOL0     C 9373  10.117   4.407   2.407 -0.9650  0.0236 -0.6878
   70MOL0     O 9374   9.983   4.408   2.375  0.2135  0.5280 -0.5733
   70MOL0     C 9375   9.935   4.291   2.303  0.1246 -0.8588 -0.6323
   70MOL0     C 9376   9.839   4.193   2.379  1.1344 -0.3924  0.3155
   70MOL0     C 9377   9.901   4.145   2.511 -0.2968  0.2057  0.8945
   70MOL0     C 9378   9.880   3.999   2.542  0.1173 -0.2667  0.4349
   70MOL0     C 9379   9.921   3.912   2.430  0.7215 -0.3089  0.4611
   70MOL0     C 9380   9.963   3.838   2.357  0.0701  0.1366 -0.0107
   70MOL0     C 9381  10.163   4.406   2.544 -0.0462 -0.7410 -0.0810
   70MOL0     C 9382  10.297   4.413   2.578  0.6514  0.6468 -0.6586
   70MOL0     H 9383  10.799   4.605   2.558 -0.8745  2.8090 -2.1679
   70MOL0     H 9384  11.012   4.601   2.554 -2.8429  3.0859 -0.6080
   70MOL0     H 9385  11.215   4.614   2.459  1.7521  0.6716 -0.2899
   70MOL0     H 9386  11.303   4.457   2.517  0.8094 -2.3145 -0.5236
   70MOL0     H 9387  11.415   4.455   2.295 -0.9355 -0.3718  0.3426
   70MOL0     H 9388  11.330   4.612   2.259  3.6097  3.4690  0.8860
   70MOL0     H 9389  11.524   4.688   2.312  2.0501 -0.8046  0.0130
   70MOL0     H 9390  11.456   4.691   2.473 -0.3686  1.0601 -1.7184
   70MOL0     H 9391  11.554   4.459   2.500  0.1696 -0.8060  0.5963
   70MOL0     H 9392  11.633   4.471   2.346 -0.2228 -1.1507  0.6218
   70MOL0     H 9393  11.658   4.692   2.538 -0.8790 -0.9686 -0.0064
   70MOL0     H 9394  11.760   4.553   2.579 -0.0931 -1.2546 -0.6096
   70MOL0     H 9395  11.893   4.587   2.355  0.6818  1.5790 -0.7619
   70MOL0     H 9396  11.772   4.705   2.306  0.8845 -1.1820 -0.6923
   70MOL0     H 9397  11.921   4.785   2.549 -2.5066  0.5254  0.5995
   70MOL0     H 9398  12.010   4.776   2.395 -0.9448  0.8778 -1.9043
   70MOL0     H 9399  11.753   4.933   2.475 -0.4809 -0.2106  0.1403
   70MOL0     H 9400  11.808   4.910   2.309  0.2514 -2.5453 -0.2529
   70MOL0     H 9401  12.105   4.920   2.307 -2.5790 -0.0236  1.4325
   70MOL0     H 9402  12.234   5.279   2.257 -0.6705  0.4298  1.6844
   70MOL0     H 9403  12.331   5.172   2.334  0.8395  0.0072 -0.6234
   70MOL0     H 9404  12.168   5.098   2.088  0.0008 -1.1137 -1.5235
   70MOL0     H 9405  12.271   4.983   2.185  1.9851 -0.0433 -0.4232
   70MOL0     H 9406  12.457   5.147   2.134  0.4890  2.2571 -0.5509
   70MOL0     H 9407  12.361   5.236   2.020 -0.4935 -2.2585 -3.4823
   70MOL0     H 9408  12.335   5.061   1.868  2.2646 -0.4407 -1.7472
   70MOL0     H 9409  12.372   4.937   1.981 -1.6643 -0.4844 -0.6766
   70MOL0     H 9410  12.532   4.940   1.697  6.5467 -2.2338  0.7027
   70MOL0     H 9411  12.705   5.017   1.381  1.1543 -1.4877  0.9986
   70MOL0     H 9412  12.587   4.906   1.448  3.2514 -1.9270 -2.9971
   70MOL0     H 9413  12.530   5.054   1.363 -0.2366  0.5439  1.1544
   70MOL0     H 9414  12.737   5.699   1.535 -0.1172 -2.5067  0.4356
   70MOL0     H 9415  12.857   5.872   1.417  0.2557 -0.9272  3.6909
   70MOL0     H 9416  12.801   6.022   1.191  0.4048 -0.1900 -2.6398
   70MOL0     H 9417  12.958   5.999   1.289 -0.1563 -0.8773  0.6427
   70MOL0     H 9418  13.080   6.061   1.089  0.5458  3.0460 -1.1516
   70MOL0     H 9419  12.931   6.112   1.007  0.5661  0.0063 -0.9820
   70MOL0     H 9420  13.044   6.217   1.270  1.3313  3.2205  0.5310
   70MOL0     H 9421  12.897   6.277   1.194  1.4848  2.0882 -1.5640
   70MOL0     H 9422  13.187   6.311   1.111 -0.5998 -1.9167  1.0267
   70MOL0     H 9423  13.050   6.306   0.988 -0.6600  2.4509  0.2499
   70MOL0     H 9424  13.045   6.505   1.212  0.7234 -1.5244  1.5519
   70MOL0     H 9425  12.938   6.485   1.068 -0.3957  0.5539  1.7524
   70MOL0     H 9426  13.070   6.670   1.056  1.4163  0.6248  0.5779
   70MOL0     H 9427  13.220   6.576   1.065 -1.3098 -0.3982  1.3071
   70MOL0     H 9428  13.013   6.576   0.843 -0.1554 -0.8118 -0.8900
   70MOL0     H 9429  13.143   6.453   0.857 -2.4175 -0.4495 -0.1450
   70MOL0     H 9430  13.200   6.640   0.685 -4.0320 -1.7935  0.5441
   70MOL0     H 9431  13.315   6.655   0.825  0.4275  0.8717 -0.6839
   70MOL0     H 9432  12.835   5.624   1.053  1.1897 -0.2555 -0.0807
   70MOL0     H 9433  12.785   5.439   1.173 -1.4866 -0.1236 -0.3557
   70MOL0     H 9434  12.674   5.411   1.683 -1.1560 -0.3215 -1.2635
   70MOL0     H 9435  12.585   5.306   1.882  3.1612 -0.8468  1.1182
   70MOL0     H 9436  11.006   4.316   2.227 -0.7321 -3.1267  3.1790
   70MOL0     H 9437  10.747   4.341   2.224  0.2076  0.3555 -0.4225
   70MOL0     H 9438  10.428   4.379   2.263 -3.6364  1.6549 -3.1047
   70MOL0     H 9439  10.184   4.394   2.208 -1.5890 -2.0465  0.8709
   70MOL0     H 9440   9.892   4.330   2.210  0.6221  3.3208  0.6879
   70MOL0     H 9441  10.016   4.224   2.273  1.1987  0.6245 -1.1653
   70MOL0     H 9442   9.805   4.108   2.319 -2.3090 -1.9163  3.9648
   70MOL0     H 9443   9.749   4.249   2.407  0.2485 -1.1977 -0.8332
   70MOL0     H 9444   9.875   4.210   2.595  0.2220 -1.5043  2.4312
   70MOL0     H 9445  10.009   4.163   2.514 -0.2455  0.1472 -0.1233
   70MOL0     H 9446   9.779   3.975   2.576  0.2996 -3.5364 -0.9624
   70MOL0     H 9447   9.944   3.970   2.626  1.5046  1.2073 -0.0616
   70MOL0     H 9448   9.998   3.755   2.298  2.1111 -0.0964  1.4154
   70MOL0     H 9449  10.093   4.422   2.625 -1.6006 -1.5522 -1.1944
   70MOL0     H 9450  10.326   4.453   2.674  1.3738  1.5881 -1.2471
   71MOL0     O 9451   0.508  10.616  10.871 -0.7594  0.4631  0.4195
   71MOL0     C 9452   0.459  10.513  10.896  0.2056  1.0353  0.3807
   71MOL0     O 9453   0.528  10.395  10.924 -0.3478 -0.5929  0.5589
   71MOL0     C 9454   0.660  10.371  10.905 -0.5384 -0.1022  0.1214
   71MOL0     C 9455   0.756  10.450  10.835  0.2056 -0.8668  0.0125
   71MOL0     C 9456   0.895  10.418  10.844  0.2085 -0.8298 -0.4766
   71MOL0     C 9457   0.935  10.299  10.896 -0.0666 -0.0116 -0.0024
   71MOL0     O 9458   1.071  10.266  10.884 -0.1795 -0.2076  0.2550
   71MOL0     C 9459   1.111  10.134  10.936 -0.0591  0.4009 -0.0769
   71MOL0     C 9460   1.256  10.118  10.940 -0.8990 -0.6228 -0.0167
   71MOL0     C 9461   1.301  10.103  10.788 -0.3924 -0.5585  0.3153
   71MOL0     C 9462   1.454  10.107  10.772 -0.7796  0.2053  0.3995
   71MOL0     C 9463   1.490  10.076  10.626 -0.6265 -0.4878 -0.0862
   71MOL0     C 9464   1.638  10.067  10.602  0.7444 -0.2743 -0.5656
   71MOL0     C 9465   1.687  10.023  10.461  0.2378 -0.0957  0.3178
   71MOL0     C 9466   1.648  10.114  10.340 -0.5415  0.2999 -1.0621
   71MOL0     N 9467   1.680  10.253  10.376  0.9042  0.1457 -0.6013
   71MOL0     C 9468   1.802  10.306  10.403 -0.2140 -0.8774  0.0619
   71MOL0     C 9469   1.781  10.429  10.448 -0.0814 -0.4132 -0.0567
   71MOL0     C 9470   1.873  10.543  10.490  0.4642 -0.6201 -0.1154
   71MOL0     C 9471   1.989  10.567  10.394  0.0567  0.7643 -0.3381
   71MOL0     C 9472   2.046  10.715  10.414  0.7433 -0.3572  0.4955
   71MOL0     C 9473   2.159  10.740  10.318 -0.2043 -0.0961  0.9345
   71MOL0     O 9474   2.210  10.876  10.324  0.3675  0.0628  0.1973
   71MOL0     C 9475   2.286  10.895  10.441 -0.5865 -0.0515 -0.4210
   71MOL0     C 9476   2.421  10.858  10.457  0.3517 -0.5680  0.2554
   71MOL0     C 9477   2.501  10.883  10.576 -0.2523  0.3747  0.5311
   71MOL0     C 9478   2.640  10.829  10.569  0.2197 -0.1540 -0.2150
   71MOL0     C 9479   2.433  10.939  10.682 -0.6710 -0.0306 -0.4683
   71MOL0     C 9480   2.502  10.972  10.808  0.4260  0.2593 -0.5935
   71MOL0     O 9481   2.633  11.018  10.800  1.0276 -0.6493 -0.4561
   71MOL0     C 9482   2.700  11.073  10.903  0.3048 -0.8069  0.1470
   71MOL0     C 9483   2.647  11.125  11.019  0.7149 -0.6163  0.0487
   71MOL0     C 9484   2.731  11.186  11.117 -0.7371 -0.5927  1.5616
   71MOL0     C 9485   2.864  11.179  11.113 -0.1576  1.0086  1.3292
   71MOL0     O 9486   2.957  11.221  11.211  1.0501  0.0696 -0.5102
   71MOL0     C 9487   2.921  11.184  11.347  0.2096  0.8821 -0.0866
   71MOL0     C 9488   2.928  11.028  11.366  0.5051  0.2768  0.1609
   71MOL0     C 9489   3.018  10.974  11.471  0.2184  0.5204  0.5906
   71MOL0     C 9490   3.170  11.031  11.474  0.3197  0.1004 -0.0052
   71MOL0     C 9491   3.245  11.026  11.347 -1.0752  0.5829  0.2772
   71MOL0     C 9492   3.247  10.881  11.296 -1.2649  0.6917  0.3877
   71MOL0     C 9493   3.333  10.875  11.167 -0.1082 -0.0697 -0.4026
   71MOL0     C 9494   3.349  10.725  11.118 -0.2139 -0.3221 -0.7061
   71MOL0    Cl 9495   3.444  10.712  10.955 -0.0020  0.0012 -0.4260
   71MOL0     C 9496   2.920  11.130  10.996 -0.8099  0.6111  0.7010
   71MOL0     C 9497   2.844  11.081  10.890  0.0877 -0.2001  0.4970
   71MOL0     O 9498   2.435  10.953  10.912 -0.2104 -0.2286  0.8092
   71MOL0     C 9499   2.295  10.960  10.679  0.3936  0.3189 -0.1605
   71MOL0     C 9500   2.232  10.955  10.555  0.5025  0.9191  0.7342
   71MOL0     N 9501   1.646  10.451  10.440 -0.1800  0.4728 -0.3586
   71MOL0     N 9502   1.581  10.350  10.388  0.3693  0.3131  1.1259
   71MOL0     C 9503   0.841  10.218  10.970  0.3746 -0.5255  0.7681
   71MOL0     C 9504   0.703  10.255  10.971 -0.4435  0.4445 -0.4157
   71MOL0     C 9505   0.311  10.498  10.906  0.3706 -0.2539  0.3264
   71MOL0     C 9506   0.264  10.387  10.968  0.8136  0.8464  0.0037
   71MOL0     C 9507   0.131  10.380  10.999  0.0378  0.2278  0.3881
   71MOL0     C 9508   0.042  10.477  10.964 -0.5705 -0.4483  0.2260
   71MOL0     O 9509  -0.089  10.454  10.984  0.6758  0.1232 -0.1281
   71MOL0     C 9510  -0.155  10.368  10.889  0.6629  0.2708  0.9598
   71MOL0     C 9511  -0.297  10.347  10.931 -0.2086 -0.3496 -0.7243
   71MOL0     C 9512  -0.342  10.294  11.069  0.2300  0.5190 -0.8778
   71MOL0     C 9513  -0.488  10.260  11.093  0.6318 -0.1593 -0.5993
   71MOL0     C 9514  -0.589  10.362  11.059  0.7034 -0.3773  0.1181
   71MOL0     C 9515  -0.677  10.448  11.027 -0.4279  0.1654  0.5013
   71MOL0     C 9516   0.090  10.589  10.899 -0.2487 -0.4533 -0.1229
   71MOL0     C 9517   0.224  10.606  10.869  0.1124  0.2964  0.9881
   71MOL0     H 9518   0.726  10.542  10.784  1.6936 -0.0090  0.6253
   71MOL0     H 9519   0.966  10.484  10.795  1.0937 -3.4741 -3.1029
   71MOL0     H 9520   1.074  10.123  11.038  0.6586  1.1065  0.2725
   71MOL0     H 9521   1.072  10.060  10.865 -2.2525  1.4784 -0.0875
   71MOL0     H 9522   1.293  10.211  10.985  0.2402 -1.1938  0.2632
   71MOL0     H 9523   1.286  10.039  11.009  0.2133  0.4386  0.7697
   71MOL0     H 9524   1.260  10.009  10.752 -0.2910 -0.9011  1.0723
   71MOL0     H 9525   1.266  10.182  10.721 -0.9883 -2.5014 -1.8226
   71MOL0     H 9526   1.493  10.201  10.811  1.2978 -0.8009  0.8692
   71MOL0     H 9527   1.493  10.032  10.841  0.0795  0.0350 -0.2449
   71MOL0     H 9528   1.431   9.987  10.602 -0.8706 -0.2014 -0.5699
   71MOL0     H 9529   1.447  10.161  10.573 -2.5704 -0.7233  1.0246
   71MOL0     H 9530   1.669  10.162  10.647  0.0489 -0.7054  0.8882
   71MOL0     H 9531   1.671   9.992  10.674  0.9420  0.9107  0.6184
   71MOL0     H 9532   1.796  10.018  10.472  0.2140 -2.4635 -0.1070
   71MOL0     H 9533   1.653   9.922  10.439 -0.3951  0.0177  0.7469
   71MOL0     H 9534   1.547  10.102  10.302 -0.1317  1.1899 -2.5290
   71MOL0     H 9535   1.708  10.089  10.252  2.5621  2.0330  0.3605
   71MOL0     H 9536   1.899  10.260  10.393  1.9872  3.0010  1.6363
   71MOL0     H 9537   1.814  10.634  10.473 -0.9086 -0.3296  4.6424
   71MOL0     H 9538   1.903  10.535  10.595 -2.9411  0.3666  1.0897
   71MOL0     H 9539   1.950  10.546  10.294 -0.3565 -2.0324  0.3362
   71MOL0     H 9540   2.073  10.498  10.405 -0.5616 -0.4091 -2.4476
   71MOL0     H 9541   2.090  10.708  10.514 -1.4473  0.7724  1.6010
   71MOL0     H 9542   1.969  10.791  10.422 -0.5203 -1.4315 -0.9076
   71MOL0     H 9543   2.116  10.732  10.217 -1.6958  0.2495  1.5163
   71MOL0     H 9544   2.238  10.665  10.312 -0.6677 -0.6319  1.3809
   71MOL0     H 9545   2.468  10.809  10.372  0.9180 -2.5072  1.5854
   71MOL0     H 9546   2.673  10.815  10.672 -3.5494  1.4970  1.3898
   71MOL0     H 9547   2.646  10.737  10.510 -4.4749 -0.7454 -0.1680
   71MOL0     H 9548   2.707  10.905  10.527  2.3758 -0.6783  2.0787
   71MOL0     H 9549   2.540  11.126  11.035  1.0797 -1.2747  3.1103
   71MOL0     H 9550   2.684  11.230  11.205 -2.3238 -0.9990  0.9591
   71MOL0     H 9551   2.973  11.237  11.427 -3.0223  3.5160  0.4794
   71MOL0     H 9552   2.823  11.224  11.375 -0.4483 -1.4230  1.1648
   71MOL0     H 9553   2.826  10.992  11.378 -0.9198  1.2361 -5.8023
   71MOL0     H 9554   2.949  10.984  11.268 -3.0933  1.1544 -1.1726
   71MOL0     H 9555   3.020  10.866  11.454 -2.8674  0.4109  0.4636
   71MOL0     H 9556   2.967  10.986  11.566  2.1881 -0.5911  1.8646
   71MOL0     H 9557   3.162  11.135  11.507 -0.4231 -0.5440  2.0350
   71MOL0     H 9558   3.222  10.961  11.540  0.1651 -0.6468 -0.6652
   71MOL0     H 9559   3.346  11.064  11.368 -0.4010 -0.5961 -0.6805
   71MOL0     H 9560   3.210  11.100  11.274  1.4276  3.6141  1.9150
   71MOL0     H 9561   3.294  10.806  11.360 -0.7762  0.1223 -0.6103
   71MOL0     H 9562   3.150  10.839  11.267 -0.0618 -0.4690 -2.2998
   71MOL0     H 9563   3.432  10.912  11.196 -0.7742 -0.1453  2.2496
   71MOL0     H 9564   3.298  10.949  11.095  2.2139  0.7878 -0.7472
   71MOL0     H 9565   3.248  10.690  11.096 -0.6257  1.4062 -1.7345
   71MOL0     H 9566   3.405  10.663  11.188  0.1489  1.3481  0.5437
   71MOL0     H 9567   3.028  11.120  10.982 -1.0602  0.0353 -1.1372
   71MOL0     H 9568   2.897  11.033  10.808 -0.5762 -3.1057  1.6530
   71MOL0     H 9569   2.234  10.988  10.764  1.2114  4.1647 -0.6800
   71MOL0     H 9570   2.127  10.984  10.552  0.3023  0.2104  0.6867
   71MOL0     H 9571   0.873  10.123  11.013  1.5570 -0.8451 -0.7612
   71MOL0     H 9572   0.628  10.188  11.010 -0.1531  0.2589 -0.1724
   71MOL0     H 9573   0.314  10.300  11.011 -1.9246 -1.5343 -1.2644
   71MOL0     H 9574   0.089  10.294  11.050 -1.6305 -1.4410 -3.4232
   71MOL0     H 9575  -0.170  10.414  10.791 -3.2144 -5.0430 -1.4514
   71MOL0     H 9576  -0.097  10.277  10.871  0.6898  0.5867 -0.7165
   71MOL0     H 9577  -0.346  10.278  10.861  1.2602 -0.1998 -1.9533
   71MOL0     H 9578  -0.347  10.443  10.923  2.6221  1.1404 -2.4318
   71MOL0     H 9579  -0.316  10.367  11.146  0.6235 -1.7586  1.2682
   71MOL0     H 9580  -0.282  10.206  11.092 -1.9668 -1.8014 -3.2710
   71MOL0     H 9581  -0.500  10.257  11.202 -3.5356  0.6545 -0.8608
   71MOL0     H 9582  -0.513  10.166  11.043 -0.0637  1.0998 -2.7419
   71MOL0     H 9583  -0.750  10.519  10.995  0.2567  1.5624  1.8769
   71MOL0     H 9584   0.015  10.660  10.865  1.3421 -0.1730 -3.3455
   71MOL0     H 9585   0.277  10.684  10.816  2.5255 -3.1304 -2.2187
   72MOL0     O 9586   4.507   6.938   5.220 -0.1955 -0.9653 -0.2187
   72MOL0     C 9587   4.519   6.836   5.282 -0.0920  0.5308 -0.7108
   72MOL0     O 9588   4.462   6.717   5.257 -0.1029 -0.1499  0.0667
   72MOL0     C 9589   4.345   6.675   5.206  0.5942  0.9488  0.3634
   72MOL0     C 9590   4.224   6.747   5.208  1.2714 -0.3107  0.0647
   72MOL0     C 9591   4.115   6.682   5.159  1.0260 -0.1255 -0.2423
   72MOL0     C 9592   4.102   6.547   5.121 -0.0997  0.1318 -0.2426
   72MOL0     O 9593   3.981   6.493   5.088 -0.6486 -0.8533  0.5881
   72MOL0     C 9594   3.985   6.376   5.014  0.1557  0.4151  0.6748
   72MOL0     C 9595   3.856   6.360   4.939  1.0885  0.1226 -0.8640
   72MOL0     C 9596   3.827   6.437   4.814  0.0357  0.5007 -0.7492
   72MOL0     C 9597   3.859   6.583   4.837 -0.1160  0.4212 -0.0584
   72MOL0     C 9598   3.800   6.660   4.721  0.5122  0.1485 -0.4115
   72MOL0     C 9599   3.785   6.802   4.762 -0.1791 -0.2742 -0.5108
   72MOL0     C 9600   3.741   6.905   4.655  0.9670  0.0362 -0.5852
   72MOL0     C 9601   3.613   6.870   4.559 -1.0989 -0.5320 -0.6358
   72MOL0     N 9602   3.546   6.991   4.488  1.1737 -0.4978 -0.4177
   72MOL0     C 9603   3.526   7.109   4.551  0.3359 -1.1493  0.5202
   72MOL0     C 9604   3.452   7.182   4.464  0.4978  1.1522  0.8252
   72MOL0     C 9605   3.421   7.324   4.477 -0.2089 -0.4116 -0.4678
   72MOL0     C 9606   3.270   7.348   4.484  0.1207  1.7533  0.2209
   72MOL0     C 9607   3.206   7.366   4.341  0.1142  0.2628 -0.5757
   72MOL0     C 9608   3.061   7.402   4.356  0.7535  0.2818 -0.2653
   72MOL0     O 9609   2.980   7.387   4.223 -0.4821  0.5922 -1.4435
   72MOL0     C 9610   2.876   7.478   4.199 -0.5092  0.4504  0.6838
   72MOL0     C 9611   2.801   7.537   4.304  0.4659 -0.7065 -0.5398
   72MOL0     C 9612   2.686   7.597   4.283  0.7122  0.5766  0.6071
   72MOL0     C 9613   2.622   7.655   4.403 -0.1996 -0.2243  0.5268
   72MOL0     C 9614   2.633   7.615   4.148 -0.8553 -0.9187 -1.0101
   72MOL0     C 9615   2.499   7.674   4.118  0.1505  0.5299  0.3166
   72MOL0     O 9616   2.477   7.746   4.003 -0.6224 -0.4569  0.4763
   72MOL0     C 9617   2.354   7.795   3.968 -0.0696  0.4313  0.0603
   72MOL0     C 9618   2.226   7.736   3.979  0.3293 -0.1978  0.3715
   72MOL0     C 9619   2.108   7.812   3.932  0.0323  0.1668  0.7818
   72MOL0     C 9620   2.113   7.932   3.865  0.2869  0.3338  0.5360
   72MOL0     O 9621   1.993   7.984   3.809 -0.1780  0.4350  0.5409
   72MOL0     C 9622   1.988   8.118   3.771 -0.0780 -0.1465 -0.4146
   72MOL0     C 9623   1.865   8.143   3.691  0.1700 -0.0091  0.3096
   72MOL0     C 9624   1.732   8.113   3.767  0.3755 -0.3884 -0.6683
   72MOL0     C 9625   1.686   7.975   3.732  0.3313 -0.2549 -0.7636
   72MOL0     C 9626   1.559   7.932   3.806  0.5714  0.8705  0.0523
   72MOL0     C 9627   1.570   7.909   3.950  0.1463 -0.3385 -0.4137
   72MOL0     C 9628   1.440   7.833   4.006  0.0705  0.3056  0.6288
   72MOL0     C 9629   1.342   7.932   4.069 -0.4559  0.9746 -0.0895
   72MOL0    Cl 9630   1.388   7.986   4.240  0.0569 -0.2818  0.2629
   72MOL0     C 9631   2.241   7.975   3.845 -0.3485 -0.4612 -0.9579
   72MOL0     C 9632   2.349   7.912   3.892  0.0883 -0.5091 -0.0188
   72MOL0     O 9633   2.411   7.651   4.200 -0.5435  0.2238  0.3665
   72MOL0     C 9634   2.706   7.553   4.043  0.4883 -0.2277 -0.4857
   72MOL0     C 9635   2.828   7.491   4.072 -0.0333  0.3403  0.1924
   72MOL0     N 9636   3.448   7.103   4.345 -0.3769  0.0071 -0.5932
   72MOL0     N 9637   3.488   6.986   4.363  0.1222  0.2952 -0.1212
   72MOL0     C 9638   4.227   6.483   5.119  1.0094 -0.0233  0.8157
   72MOL0     C 9639   4.346   6.540   5.155 -0.7236 -0.3135  0.3150
   72MOL0     C 9640   4.617   6.823   5.397  1.3326  0.3857 -0.0497
   72MOL0     C 9641   4.698   6.711   5.413  0.3240 -0.5844  0.3992
   72MOL0     C 9642   4.781   6.702   5.517 -0.7705 -0.7413  0.0354
   72MOL0     C 9643   4.788   6.801   5.616 -0.8710  0.3714 -0.0679
   72MOL0     O 9644   4.873   6.793   5.723  0.2658  0.2114  0.4169
   72MOL0     C 9645   4.872   6.675   5.796  0.5091 -0.3096 -0.4115
   72MOL0     C 9646   4.771   6.673   5.915  0.2678  0.9153 -0.1158
   72MOL0     C 9647   4.733   6.805   5.977  0.3083 -0.3276 -0.1335
   72MOL0     C 9648   4.842   6.836   6.076  0.4600  0.5328  0.2762
   72MOL0     C 9649   4.829   6.963   6.162 -0.1500 -0.4212 -0.9783
   72MOL0     C 9650   4.820   7.050   6.246 -0.0613 -0.6009 -0.1846
   72MOL0     C 9651   4.718   6.916   5.599  0.3204 -0.3863  1.2346
   72MOL0     C 9652   4.625   6.932   5.491  0.7838  0.5016 -0.1002
   72MOL0     H 9653   4.220   6.848   5.247 -1.4367  0.4435 -1.9040
   72MOL0     H 9654   4.022   6.738   5.155  0.8679 -0.2746  0.9434
   72MOL0     H 9655   4.073   6.380   4.949  0.7176  0.5159  1.4238
   72MOL0     H 9656   3.998   6.292   5.082 -2.8186 -1.7649 -1.1976
   72MOL0     H 9657   3.844   6.257   4.904  2.1344 -0.9084  1.5590
   72MOL0     H 9658   3.776   6.375   5.012  1.5901 -0.7871 -0.0964
   72MOL0     H 9659   3.879   6.389   4.731  2.5358 -1.4841  1.7323
   72MOL0     H 9660   3.719   6.427   4.804 -0.2058 -0.7283  2.0431
   72MOL0     H 9661   3.815   6.611   4.933 -1.8301 -0.3297 -0.5836
   72MOL0     H 9662   3.965   6.609   4.843 -0.4437  1.3725  2.8538
   72MOL0     H 9663   3.877   6.669   4.643  1.3245 -1.3698  0.1693
   72MOL0     H 9664   3.705   6.619   4.686  1.2789 -1.5190 -0.6208
   72MOL0     H 9665   3.715   6.803   4.845 -0.3696 -5.6234 -0.2994
   72MOL0     H 9666   3.880   6.835   4.806 -1.2122  0.8692  0.9392
   72MOL0     H 9667   3.716   7.000   4.704  2.0354 -0.4021  0.8828
   72MOL0     H 9668   3.834   6.928   4.602  1.8230 -1.0539  0.3835
   72MOL0     H 9669   3.532   6.819   4.611 -0.1985 -2.8749 -1.3740
   72MOL0     H 9670   3.649   6.798   4.485  2.5386 -1.8115  2.0205
   72MOL0     H 9671   3.565   7.139   4.648 -0.1768 -0.1529  0.4315
   72MOL0     H 9672   3.455   7.358   4.575 -2.0186  0.0988  0.0142
   72MOL0     H 9673   3.455   7.378   4.388 -3.2125  0.4726 -1.1926
   72MOL0     H 9674   3.273   7.447   4.531  1.5251  2.0686 -0.4791
   72MOL0     H 9675   3.215   7.274   4.543  0.0166  2.5652  1.1727
   72MOL0     H 9676   3.223   7.272   4.287  1.8080 -0.5998  1.3493
   72MOL0     H 9677   3.250   7.440   4.273  0.7023 -0.7070 -1.2728
   72MOL0     H 9678   3.056   7.503   4.398 -0.3228  0.6891 -1.3155
   72MOL0     H 9679   3.017   7.338   4.433 -0.1199  1.8859  0.6290
   72MOL0     H 9680   2.844   7.527   4.403 -1.8589  1.5001  0.8008
   72MOL0     H 9681   2.542   7.589   4.437  0.3428 -0.6316  1.0280
   72MOL0     H 9682   2.700   7.669   4.479  2.6660 -0.7214 -2.1148
   72MOL0     H 9683   2.575   7.749   4.372 -0.6375 -0.6371 -0.0825
   72MOL0     H 9684   2.217   7.640   4.029  0.6750  0.4876  1.8103
   72MOL0     H 9685   2.012   7.762   3.944  0.2083 -1.7249 -3.7159
   72MOL0     H 9686   1.983   8.190   3.853 -3.7577 -0.3226 -0.3226
   72MOL0     H 9687   2.079   8.144   3.716 -0.0354  5.1882  1.5838
   72MOL0     H 9688   1.876   8.247   3.662 -1.2446  0.3270  0.8945
   72MOL0     H 9689   1.863   8.093   3.593  1.4438  2.6667 -1.1815
   72MOL0     H 9690   1.652   8.184   3.746  1.1854  1.0762  0.9697
   72MOL0     H 9691   1.740   8.127   3.875 -1.0230 -2.0557 -0.2961
   72MOL0     H 9692   1.666   7.976   3.624  4.0151  0.5899 -1.5767
   72MOL0     H 9693   1.769   7.908   3.757  0.4211 -1.3126 -3.5071
   72MOL0     H 9694   1.513   7.844   3.762 -0.5685  0.0879  2.5986
   72MOL0     H 9695   1.489   8.014   3.790  3.0268  3.0139 -0.4695
   72MOL0     H 9696   1.662   7.852   3.965  2.3367  2.4812 -2.0734
   72MOL0     H 9697   1.594   8.007   3.992  2.4193  0.0377 -2.4152
   72MOL0     H 9698   1.469   7.765   4.086 -1.8266  0.5465  1.5749
   72MOL0     H 9699   1.393   7.778   3.924  0.0238  1.1349  0.0804
   72MOL0     H 9700   1.244   7.883   4.072 -0.7707  1.4783 -1.5765
   72MOL0     H 9701   1.321   8.014   4.000 -1.5432  1.3353  0.6533
   72MOL0     H 9702   2.265   8.063   3.786  2.4840 -1.1645 -0.9828
   72MOL0     H 9703   2.443   7.966   3.881 -0.4447  0.4090 -0.1268
   72MOL0     H 9704   2.653   7.546   3.949 -2.1806 -1.0750  0.9921
   72MOL0     H 9705   2.886   7.446   3.992 -2.1913 -3.3282  0.4472
   72MOL0     H 9706   4.233   6.378   5.095 -0.9854  0.1577 -0.7716
   72MOL0     H 9707   4.437   6.482   5.156  0.1697  1.0390  0.7017
   72MOL0     H 9708   4.704   6.631   5.340  0.3857  0.4401 -0.7488
   72MOL0     H 9709   4.867   6.637   5.516  3.0709  3.7800  0.0716
   72MOL0     H 9710   4.863   6.586   5.733 -0.8425 -0.2542 -0.3243
   72MOL0     H 9711   4.973   6.670   5.839 -0.2602 -1.2592  1.4101
   72MOL0     H 9712   4.809   6.601   5.988  0.8243  0.5218 -0.7730
   72MOL0     H 9713   4.683   6.623   5.875 -1.7041  0.9199  3.7542
   72MOL0     H 9714   4.631   6.804   6.016 -0.9161 -0.3883 -3.0138
   72MOL0     H 9715   4.742   6.882   5.899 -1.4561 -0.9511 -1.0210
   72MOL0     H 9716   4.937   6.851   6.023  0.1051  2.4981  0.1021
   72MOL0     H 9717   4.858   6.751   6.144  0.4659  0.6781  0.4597
   72MOL0     H 9718   4.826   7.121   6.325 -0.4131 -1.0189  0.2195
   72MOL0     H 9719   4.743   7.003   5.659  2.5958  0.9652 -1.4039
   72MOL0     H 9720   4.575   7.027   5.498 -1.7348 -0.7004 -0.5639
   73MOL0     O 9721   4.948   8.755   3.860  0.0368  0.2672 -0.2786
   73MOL0     C 9722   5.054   8.752   3.804 -0.5323 -0.0751  0.2440
   73MOL0     O 9723   5.077   8.680   3.690 -0.4767 -0.2225 -0.9577
   73MOL0     C 9724   4.969   8.646   3.613  0.0654  0.3333  0.6063
   73MOL0     C 9725   4.904   8.521   3.611  0.7216  0.0917  0.1972
   73MOL0     C 9726   4.785   8.490   3.533 -0.4953  0.0468  0.2026
   73MOL0     C 9727   4.734   8.589   3.457 -0.2959 -0.3127  0.2973
   73MOL0     O 9728   4.624   8.576   3.377  0.0725 -0.4097 -0.8610
   73MOL0     C 9729   4.503   8.583   3.450  1.0285  0.6630 -0.3639
   73MOL0     C 9730   4.383   8.610   3.358  0.4083 -0.0329  1.0069
   73MOL0     C 9731   4.344   8.492   3.261  0.1235  0.7549  0.4493
   73MOL0     C 9732   4.256   8.519   3.141  0.2802  0.0616  0.0612
   73MOL0     C 9733   4.111   8.494   3.176  0.8489  0.2994 -0.0283
   73MOL0     C 9734   4.011   8.551   3.083  0.5972  0.0069  0.0396
   73MOL0     C 9735   3.875   8.577   3.140 -0.0217 -0.3081  0.4875
   73MOL0     C 9736   3.779   8.668   3.054 -0.5900  0.1466  1.4586
   73MOL0     N 9737   3.817   8.809   3.053 -0.3688 -0.4291  0.9352
   73MOL0     C 9738   3.755   8.911   2.986  0.7905 -0.3750  0.3788
   73MOL0     C 9739   3.844   9.010   2.984  0.2429 -0.0074  0.4854
   73MOL0     C 9740   3.834   9.131   2.898 -0.9241 -0.2829 -0.5885
   73MOL0     C 9741   3.805   9.246   2.989  0.1261 -0.2675  0.0901
   73MOL0     C 9742   3.793   9.386   2.923  0.2240  0.1732  1.2741
   73MOL0     C 9743   3.786   9.505   3.011 -0.0047 -0.0463 -0.3624
   73MOL0     O 9744   3.719   9.606   2.946  0.1639 -0.2391  0.4134
   73MOL0     C 9745   3.716   9.733   3.000 -0.6729 -0.1482  0.9062
   73MOL0     C 9746   3.602   9.818   2.978  0.8401  1.0287 -0.9216
   73MOL0     C 9747   3.567   9.926   3.065  0.4233  0.1696  0.2162
   73MOL0     C 9748   3.435   9.996   3.049 -0.0237 -0.8238  0.2461
   73MOL0     C 9749   3.658   9.959   3.173 -0.8396 -0.3284  0.1639
   73MOL0     C 9750   3.648  10.080   3.265  0.1304  0.4439 -0.0223
   73MOL0     O 9751   3.758  10.116   3.345  0.1450 -0.0410 -0.1095
   73MOL0     C 9752   3.740  10.218   3.442 -0.3172 -0.2022 -0.7464
   73MOL0     C 9753   3.683  10.346   3.413  0.0939  0.2518  0.2998
   73MOL0     C 9754   3.669  10.441   3.510  0.3027 -0.4605  0.4158
   73MOL0     C 9755   3.697  10.414   3.642  0.4286 -0.0477  0.3228
   73MOL0     O 9756   3.694  10.507   3.736  0.0231 -1.2087 -0.0369
   73MOL0     C 9757   3.619  10.625   3.724 -0.4720  0.1008  0.4309
   73MOL0     C 9758   3.568  10.668   3.862  0.3083 -0.2878 -0.3055
   73MOL0     C 9759   3.670  10.728   3.965  0.2804  0.0405 -0.1334
   73MOL0     C 9760   3.613  10.760   4.104  0.0922  0.3358  0.0514
   73MOL0     C 9761   3.679  10.880   4.168  0.3548  0.0480 -0.1244
   73MOL0     C 9762   3.651  11.020   4.101 -0.1233 -1.0603  0.5470
   73MOL0     C 9763   3.746  11.133   4.123  0.1780 -0.5026  0.0268
   73MOL0     C 9764   3.743  11.239   4.012  0.7465  0.1434 -1.3206
   73MOL0    Cl 9765   3.875  11.355   4.028 -0.1706 -0.3519  0.2807
   73MOL0     C 9766   3.761  10.294   3.667 -0.4959 -0.7424 -0.3565
   73MOL0     C 9767   3.781  10.194   3.572 -0.3951 -0.5908 -0.8043
   73MOL0     O 9768   3.533  10.132   3.266 -0.1023  0.8462 -1.0311
   73MOL0     C 9769   3.773   9.878   3.188  0.7766  0.2298 -0.2403
   73MOL0     C 9770   3.805   9.770   3.107 -0.9793 -0.3246 -0.9220
   73MOL0     N 9771   3.961   8.973   3.053  0.6329  0.5179  0.5097
   73MOL0     N 9772   3.936   8.851   3.102 -0.7965 -0.0886  0.2529
   73MOL0     C 9773   4.812   8.708   3.445  0.3617 -0.1877  0.0936
   73MOL0     C 9774   4.926   8.739   3.521  0.6128  0.1301 -0.2789
   73MOL0     C 9775   5.171   8.816   3.866 -0.3426  0.9158  0.1807
   73MOL0     C 9776   5.283   8.861   3.784  0.4052 -0.3901 -0.4406
   73MOL0     C 9777   5.384   8.926   3.846  0.8140 -0.0014  0.6940
   73MOL0     C 9778   5.386   8.948   3.983 -0.1781 -0.5749  0.5963
   73MOL0     O 9779   5.502   9.008   4.048 -0.2164 -0.0886  0.4162
   73MOL0     C 9780   5.496   9.060   4.180 -0.5303  0.5392 -0.5233
   73MOL0     C 9781   5.624   9.124   4.240 -0.0871  0.4956 -0.3147
   73MOL0     C 9782   5.673   9.238   4.143 -0.7745 -1.0805  0.9285
   73MOL0     C 9783   5.820   9.294   4.150 -0.2612 -0.4276  0.5580
   73MOL0     C 9784   5.918   9.212   4.086 -0.0794 -0.1679  0.0574
   73MOL0     C 9785   5.996   9.145   4.028  0.3991 -0.7879 -0.7194
   73MOL0     C 9786   5.285   8.898   4.065  0.5368  0.0246  0.2462
   73MOL0     C 9787   5.172   8.839   4.000  0.1471 -0.5719  1.0146
   73MOL0     H 9788   4.941   8.448   3.682 -0.7309  0.1063  1.0010
   73MOL0     H 9789   4.733   8.395   3.543 -2.4623  1.1210  0.6301
   73MOL0     H 9790   4.484   8.488   3.501 -1.4761  2.5554  2.6296
   73MOL0     H 9791   4.502   8.664   3.523  1.2200  1.8120 -1.5894
   73MOL0     H 9792   4.290   8.634   3.410  0.5286  3.8608 -0.2812
   73MOL0     H 9793   4.403   8.702   3.303 -0.7317 -1.0214 -1.2132
   73MOL0     H 9794   4.438   8.466   3.212 -1.1851  0.6581 -2.1478
   73MOL0     H 9795   4.304   8.403   3.310  2.0133 -0.5447 -0.2378
   73MOL0     H 9796   4.267   8.625   3.116  0.3413 -0.2494 -1.3065
   73MOL0     H 9797   4.290   8.462   3.054 -0.6721 -0.9192  0.3110
   73MOL0     H 9798   4.097   8.386   3.184 -0.9896  0.6102  1.7401
   73MOL0     H 9799   4.096   8.531   3.278 -1.2657 -0.1907 -0.1145
   73MOL0     H 9800   4.048   8.645   3.042 -0.4671 -0.3250 -1.7676
   73MOL0     H 9801   4.017   8.492   2.992  3.1205 -0.0954  0.1832
   73MOL0     H 9802   3.821   8.482   3.146  1.2190 -1.1235 -0.6391
   73MOL0     H 9803   3.890   8.617   3.241 -0.4297 -0.6392  0.6842
   73MOL0     H 9804   3.675   8.666   3.087 -1.3871 -0.8900 -0.8560
   73MOL0     H 9805   3.788   8.635   2.950 -2.1038 -0.1090  1.3820
   73MOL0     H 9806   3.653   8.907   2.949  0.3074 -1.0329  1.7138
   73MOL0     H 9807   3.935   9.142   2.857 -0.4129 -2.0712  0.1261
   73MOL0     H 9808   3.757   9.121   2.822  0.1902 -4.3388 -1.3917
   73MOL0     H 9809   3.877   9.239   3.071  0.1681  0.4198  0.1189
   73MOL0     H 9810   3.714   9.235   3.049 -0.3423  0.9177 -0.3772
   73MOL0     H 9811   3.697   9.389   2.870 -0.0601 -1.3516  1.6655
   73MOL0     H 9812   3.875   9.404   2.853 -1.2002  1.9477 -0.0842
   73MOL0     H 9813   3.888   9.531   3.039  0.3712  0.4629 -2.0894
   73MOL0     H 9814   3.736   9.483   3.106  1.4574  0.1545  0.4900
   73MOL0     H 9815   3.530   9.777   2.908  1.1132  0.0404 -0.6451
   73MOL0     H 9816   3.449  10.103   3.066  1.4150 -0.8738 -0.5171
   73MOL0     H 9817   3.386   9.987   2.951 -1.7718  1.8154  0.7619
   73MOL0     H 9818   3.364   9.941   3.112 -0.8841 -1.4014 -1.1560
   73MOL0     H 9819   3.669  10.373   3.309  0.4531  0.9577  0.4318
   73MOL0     H 9820   3.640  10.539   3.475  5.0884  0.8097 -0.6906
   73MOL0     H 9821   3.682  10.698   3.674 -0.0978 -1.0252 -0.8163
   73MOL0     H 9822   3.528  10.623   3.662 -0.7209  1.9670  0.6791
   73MOL0     H 9823   3.493  10.747   3.852 -0.8576 -1.1427  1.1715
   73MOL0     H 9824   3.530  10.577   3.908 -1.2336  0.5690  0.1819
   73MOL0     H 9825   3.712  10.817   3.917 -1.5114  0.2414 -1.4190
   73MOL0     H 9826   3.764  10.675   3.982 -0.6049 -2.7327 -2.8476
   73MOL0     H 9827   3.506  10.775   4.093 -0.1020 -2.0457 -2.1202
   73MOL0     H 9828   3.637  10.676   4.170 -1.6501  0.3242  0.7056
   73MOL0     H 9829   3.787  10.861   4.167  0.4048  0.2737  0.6538
   73MOL0     H 9830   3.637  10.887   4.269 -1.3174 -3.2373 -0.4544
   73MOL0     H 9831   3.653  11.014   3.992 -1.4862  0.4824  0.3979
   73MOL0     H 9832   3.548  11.055   4.111 -0.4889 -0.5900 -3.3695
   73MOL0     H 9833   3.851  11.105   4.137 -0.6568 -4.1352 -0.0216
   73MOL0     H 9834   3.719  11.192   4.211  0.5147 -0.5899  0.1908
   73MOL0     H 9835   3.651  11.298   4.026  1.7519  1.1471  1.7014
   73MOL0     H 9836   3.743  11.193   3.913  0.4529 -0.4035 -1.0705
   73MOL0     H 9837   3.792  10.265   3.767 -2.6112  0.6548  0.8106
   73MOL0     H 9838   3.834  10.103   3.598  1.6380  1.2812  2.3372
   73MOL0     H 9839   3.833   9.905   3.274 -0.4173 -1.3426  1.1401
   73MOL0     H 9840   3.887   9.705   3.134 -0.9429 -0.9843 -2.5208
   73MOL0     H 9841   4.773   8.771   3.366 -0.8283 -1.1585 -0.1272
   73MOL0     H 9842   4.985   8.829   3.503 -0.3065  0.3650 -2.5443
   73MOL0     H 9843   5.284   8.839   3.678  1.0014 -1.2785 -0.2708
   73MOL0     H 9844   5.469   8.969   3.793  0.8347 -0.8282  0.0372
   73MOL0     H 9845   5.426   9.143   4.187 -0.8090  0.1797  3.6204
   73MOL0     H 9846   5.461   8.985   4.252  0.9709  1.6315  1.4753
   73MOL0     H 9847   5.701   9.047   4.241  1.5585  1.7607 -4.7525
   73MOL0     H 9848   5.606   9.164   4.340  1.4745  0.9039 -0.1665
   73MOL0     H 9849   5.605   9.322   4.157 -0.8341 -0.1978 -3.2623
   73MOL0     H 9850   5.644   9.208   4.041  1.0694 -1.7352  0.5649
   73MOL0     H 9851   5.821   9.318   4.257 -1.2390  3.0090 -0.0724
   73MOL0     H 9852   5.841   9.390   4.101  0.2985  0.4234  2.3649
   73MOL0     H 9853   6.060   9.078   3.974 -1.4263 -2.9540 -0.3916
   73MOL0     H 9854   5.288   8.907   4.173 -0.5078 -2.7389  0.5778
   73MOL0     H 9855   5.091   8.806   4.064  0.6023 -2.4228  0.6950
   74MOL0     O 9856   7.342   1.480   7.447 -0.2317  0.0341  0.4838
   74MOL0     C 9857   7.361   1.460   7.325 -0.7756 -0.8669 -0.7237
   74MOL0     O 9858   7.475   1.396   7.268 -0.5076  0.0136 -0.4296
   74MOL0     C 9859   7.572   1.361   7.355  0.5788  1.0457  0.2237
   74MOL0     C 9860   7.616   1.231   7.362  0.7810 -0.3278  0.1607
   74MOL0     C 9861   7.719   1.194   7.441 -0.0416 -0.2502 -0.5025
   74MOL0     C 9862   7.781   1.296   7.525  0.4016 -0.6215 -0.5584
   74MOL0     O 9863   7.885   1.280   7.610  0.5063  0.8046 -0.1774
   74MOL0     C 9864   7.980   1.196   7.563 -0.4706 -0.1553  1.7595
   74MOL0     C 9865   8.125   1.254   7.580  0.6438  0.8582  0.1733
   74MOL0     C 9866   8.152   1.279   7.727  0.3817  0.1506 -0.1102
   74MOL0     C 9867   8.302   1.294   7.746 -0.4963  0.9838 -0.2565
   74MOL0     C 9868   8.336   1.325   7.884  0.9979  0.6038  0.4398
   74MOL0     C 9869   8.482   1.368   7.908 -0.2298 -0.9861 -0.5520
   74MOL0     C 9870   8.583   1.254   7.912 -0.1869  0.1940 -0.6559
   74MOL0     C 9871   8.656   1.237   7.778  0.4545  0.1994  0.1851
   74MOL0     N 9872   8.781   1.314   7.778  0.6595  0.7715 -1.3914
   74MOL0     C 9873   8.895   1.274   7.842 -0.4358 -0.2704  0.2044
   74MOL0     C 9874   8.989   1.374   7.822 -0.4707 -0.0886 -0.6581
   74MOL0     C 9875   9.130   1.362   7.865  0.2207  0.2589  0.2129
   74MOL0     C 9876   9.227   1.399   7.753 -0.9775 -0.6016  0.4284
   74MOL0     C 9877   9.363   1.438   7.807  0.5128 -0.4118 -0.5303
   74MOL0     C 9878   9.455   1.428   7.685 -0.8515 -0.4446  0.2662
   74MOL0     O 9879   9.480   1.279   7.660  0.0936  1.1066 -0.2355
   74MOL0     C 9880   9.571   1.228   7.566  0.1551  0.1071  0.3985
   74MOL0     C 9881   9.637   1.318   7.482  0.2407  0.8574  0.6483
   74MOL0     C 9882   9.719   1.262   7.379 -0.2167 -0.1649  0.1726
   74MOL0     C 9883   9.792   1.361   7.293  0.1798 -0.0482  0.6175
   74MOL0     C 9884   9.749   1.128   7.370 -0.3114 -0.0844 -0.4290
   74MOL0     C 9885   9.837   1.087   7.272  0.0236  0.7633 -0.0604
   74MOL0     O 9886   9.957   1.036   7.316 -0.1133 -0.2005  0.0936
   74MOL0     C 9887  10.028   0.949   7.232  0.0266  0.4392  0.3639
   74MOL0     C 9888   9.972   0.837   7.168 -1.0920 -0.2132 -0.6880
   74MOL0     C 9889  10.041   0.756   7.076 -0.3181 -0.0895 -0.5064
   74MOL0     C 9890  10.180   0.781   7.059 -0.2608  0.1878  0.1072
   74MOL0     O 9891  10.243   0.685   6.983 -0.4736 -0.6885  0.2475
   74MOL0     C 9892  10.383   0.673   6.996 -0.7923  0.7876  0.2658
   74MOL0     C 9893  10.431   0.604   7.127 -0.1791 -0.0035  0.0827
   74MOL0     C 9894  10.580   0.552   7.132 -0.2244 -0.7789  0.3484
   74MOL0     C 9895  10.664   0.677   7.151 -1.1738 -0.3414  0.4912
   74MOL0     C 9896  10.817   0.664   7.132 -0.6367  0.8812 -0.3553
   74MOL0     C 9897  10.866   0.581   7.007 -0.1145 -0.3342 -0.5058
   74MOL0     C 9898  11.021   0.608   6.993  0.6756 -0.2660 -0.2134
   74MOL0     C 9899  11.073   0.510   6.889 -1.1073  0.7941 -0.0130
   74MOL0    Cl 9900  11.005   0.560   6.734  0.1337  0.0147  0.1905
   74MOL0     C 9901  10.232   0.891   7.123  0.0065 -0.1674  0.1646
   74MOL0     C 9902  10.160   0.971   7.203 -0.5131  0.1179  0.0994
   74MOL0     O 9903   9.786   1.077   7.155  1.0067  0.2373 -0.4227
   74MOL0     C 9904   9.694   1.039   7.461  0.7710 -0.3918  0.2670
   74MOL0     C 9905   9.597   1.086   7.554 -0.1623 -0.5382 -0.4341
   74MOL0     N 9906   8.928   1.463   7.749 -0.0698 -0.6525 -0.7110
   74MOL0     N 9907   8.802   1.440   7.746  0.0512 -0.0933  0.3808
   74MOL0     C 9908   7.735   1.423   7.522  0.2194 -0.1018 -0.0465
   74MOL0     C 9909   7.631   1.456   7.432 -0.1504 -0.0586 -1.1256
   74MOL0     C 9910   7.249   1.508   7.241 -0.8323  0.1187  0.5857
   74MOL0     C 9911   7.151   1.586   7.295 -0.1547 -1.2480  1.1607
   74MOL0     C 9912   7.074   1.665   7.212  0.2178 -0.2211  0.3149
   74MOL0     C 9913   7.088   1.655   7.069 -0.3389 -0.4742 -0.0999
   74MOL0     O 9914   7.020   1.741   6.979 -0.5337  0.0726  0.1244
   74MOL0     C 9915   6.928   1.844   7.038  0.4040  0.0868  0.3916
   74MOL0     C 9916   6.881   1.945   6.928  1.0682 -0.4982  1.7269
   74MOL0     C 9917   7.001   2.026   6.877  1.0304 -0.5428 -0.4355
   74MOL0     C 9918   6.963   2.160   6.810 -0.3971  0.2681 -0.5348
   74MOL0     C 9919   6.899   2.133   6.675  0.5352  0.7164  0.7695
   74MOL0     C 9920   6.853   2.103   6.566  0.2050 -0.3565 -0.3328
   74MOL0     C 9921   7.178   1.567   7.023 -0.0554  0.0319  0.0581
   74MOL0     C 9922   7.267   1.497   7.102 -0.8238  0.1567 -0.1737
   74MOL0     H 9923   7.566   1.159   7.298  2.5586  1.3697 -3.4310
   74MOL0     H 9924   7.752   1.092   7.456  0.6860  0.1817  0.9599
   74MOL0     H 9925   7.959   1.101   7.613  0.2751 -2.1374 -1.3925
   74MOL0     H 9926   7.980   1.163   7.458  3.5576  0.6521  1.3184
   74MOL0     H 9927   8.191   1.177   7.540 -1.0806  0.1214 -1.4455
   74MOL0     H 9928   8.147   1.348   7.529  1.0402  0.5167 -0.2943
   74MOL0     H 9929   8.099   1.373   7.748 -0.8549 -0.5697  0.1256
   74MOL0     H 9930   8.108   1.204   7.793  0.2737  0.9731  0.7798
   74MOL0     H 9931   8.338   1.191   7.733 -2.0608  0.2804  0.6728
   74MOL0     H 9932   8.351   1.355   7.670  0.3680 -0.9408 -1.3437
   74MOL0     H 9933   8.269   1.400   7.927 -0.3472  0.4017 -1.2331
   74MOL0     H 9934   8.309   1.234   7.939  1.3012  0.0229 -0.3421
   74MOL0     H 9935   8.509   1.441   7.831  2.4160 -2.3636 -1.0764
   74MOL0     H 9936   8.474   1.428   7.998 -0.3046  1.6626 -2.2207
   74MOL0     H 9937   8.663   1.277   7.983 -0.0628  1.0506 -1.0561
   74MOL0     H 9938   8.519   1.169   7.933 -1.8729  1.4054 -0.7051
   74MOL0     H 9939   8.592   1.259   7.692  1.6465  1.4163 -0.4310
   74MOL0     H 9940   8.691   1.134   7.766  2.2491  0.5375  1.9640
   74MOL0     H 9941   8.914   1.178   7.890 -2.4026 -0.2015  1.2385
   74MOL0     H 9942   9.137   1.424   7.955 -0.2240 -0.2865  0.6353
   74MOL0     H 9943   9.149   1.261   7.903 -1.4627 -0.6144 -1.1279
   74MOL0     H 9944   9.191   1.474   7.682  0.1157 -1.8154 -1.4994
   74MOL0     H 9945   9.229   1.307   7.693  1.5599  0.0151 -0.5743
   74MOL0     H 9946   9.397   1.362   7.878 -2.3210 -0.8219  0.5202
   74MOL0     H 9947   9.366   1.541   7.844 -0.0046 -0.3668 -0.6076
   74MOL0     H 9948   9.551   1.478   7.702 -0.8552  0.4147 -1.9639
   74MOL0     H 9949   9.400   1.478   7.605 -3.7471 -3.2033  0.3131
   74MOL0     H 9950   9.612   1.424   7.481 -1.0754  0.5853  2.1813
   74MOL0     H 9951   9.896   1.347   7.325 -0.0069 -1.7990  0.5601
   74MOL0     H 9952   9.775   1.339   7.187  0.0116 -1.3810  0.9027
   74MOL0     H 9953   9.766   1.464   7.322 -0.4504 -0.6143  2.1679
   74MOL0     H 9954   9.867   0.821   7.189 -0.9237 -1.2300 -0.5714
   74MOL0     H 9955   9.991   0.679   7.018 -2.4767  0.7611  0.1022
   74MOL0     H 9956  10.415   0.617   6.908  0.0077 -0.1999  1.1609
   74MOL0     H 9957  10.427   0.773   6.995  2.3046 -0.3282 -3.9869
   74MOL0     H 9958  10.414   0.679   7.205  0.7619  1.0971 -0.7384
   74MOL0     H 9959  10.355   0.526   7.122 -1.0656  0.8911 -1.6212
   74MOL0     H 9960  10.603   0.516   7.032 -0.5211  4.8276 -2.1262
   74MOL0     H 9961  10.603   0.485   7.215 -1.5387 -0.1655  1.2570
   74MOL0     H 9962  10.633   0.753   7.079 -0.4528  1.6345  2.1660
   74MOL0     H 9963  10.646   0.729   7.245 -2.2687 -0.7549  0.5306
   74MOL0     H 9964  10.859   0.625   7.225 -1.2258  2.6931  0.7152
   74MOL0     H 9965  10.858   0.765   7.132 -2.5239  1.9575  4.7926
   74MOL0     H 9966  10.846   0.482   7.047 -3.3108  1.4594  3.0277
   74MOL0     H 9967  10.806   0.597   6.917 -0.6601 -0.3788 -0.1525
   74MOL0     H 9968  11.072   0.590   7.088  1.1449  0.0650 -0.3994
   74MOL0     H 9969  11.048   0.712   6.971 -0.0042 -0.5139 -2.4570
   74MOL0     H 9970  11.039   0.406   6.895  3.2064 -0.9550 -1.9296
   74MOL0     H 9971  11.182   0.506   6.892 -1.1346 -2.0805  1.9044
   74MOL0     H 9972  10.336   0.921   7.128 -0.3359  0.8797  2.7542
   74MOL0     H 9973  10.200   1.061   7.247  0.7371  0.5045 -1.7219
   74MOL0     H 9974   9.731   0.937   7.463  1.9779  0.0296  1.6231
   74MOL0     H 9975   9.536   1.025   7.620 -2.7433  1.5267 -0.7575
   74MOL0     H 9976   7.792   1.499   7.574  0.7881 -0.9450  0.5949
   74MOL0     H 9977   7.593   1.556   7.412  1.0747  0.6744  0.1032
   74MOL0     H 9978   7.135   1.586   7.402  1.8986  0.8200  1.5378
   74MOL0     H 9979   7.013   1.744   7.255 -0.9283 -1.0461  0.2610
   74MOL0     H 9980   6.846   1.788   7.084 -1.7456  2.1007 -0.7681
   74MOL0     H 9981   6.972   1.909   7.113 -0.9788  1.4586  0.0706
   74MOL0     H 9982   6.807   2.002   6.985  0.0771 -0.6340  0.6346
   74MOL0     H 9983   6.837   1.892   6.842  1.5879  1.8962 -0.1267
   74MOL0     H 9984   7.061   1.963   6.811 -1.9317 -3.8458 -0.2692
   74MOL0     H 9985   7.069   2.043   6.960 -0.4567 -0.6733  0.8513
   74MOL0     H 9986   7.043   2.234   6.810  0.9388 -1.0776  0.9024
   74MOL0     H 9987   6.896   2.206   6.884  0.8801 -1.7847  2.0614
   74MOL0     H 9988   6.814   2.088   6.467 -1.4059 -0.8124  0.3431
   74MOL0     H 9989   7.192   1.554   6.916  1.6313  0.5694  0.1851
   74MOL0     H 9990   7.338   1.432   7.052 -0.8035 -1.2942  1.6378
   75MOL0     O 9991   7.908   4.857   0.026  0.5355 -0.9784  0.0609
   75MOL0     C 9992   8.000   4.892  -0.050 -0.1367 -0.2639 -0.4602
   75MOL0     O 9993   8.124   4.944  -0.005 -0.6917 -0.3537 -0.5409
   75MOL0     C 9994   8.142   4.973   0.129  0.3137 -0.3768  0.2670
   75MOL0     C 9995   8.166   4.877   0.233  0.6994 -1.2218 -0.2769
   75MOL0     C 9996   8.193   4.928   0.364  0.4246  0.4595 -0.6634
   75MOL0     C 9997   8.204   5.057   0.395 -0.8655 -0.3787 -0.2637
   75MOL0     O 9998   8.229   5.116   0.521 -0.3123  0.4793 -0.0624
   75MOL0     C 9999   8.316   5.052   0.618 -0.1556 -0.2215  1.6970
   75MOL0     C10000   8.224   5.047   0.736  1.4550  1.0049  0.1959
   75MOL0     C10001   8.283   4.941   0.832 -0.6421 -0.1898 -0.6112
   75MOL0     C10002   8.212   4.961   0.970 -0.2063 -0.8781  1.1203
   75MOL0     C10003   8.252   4.841   1.052  0.2749  0.2457  0.1298
   75MOL0     C10004   8.176   4.824   1.182 -0.1386  0.7811  0.1129
   75MOL0     C10005   8.205   4.713   1.282  0.3927  0.9434 -1.6359
   75MOL0     C10006   8.132   4.747   1.412 -0.1909  0.0559  0.2901
   75MOL0     N10007   8.137   4.645   1.509  0.1945  0.2373  0.4869
   75MOL0     C10008   8.244   4.557   1.542 -0.5928 -0.4897  0.4141
   75MOL0     C10009   8.197   4.505   1.652 -0.6181 -0.3996 -0.9182
   75MOL0     C10010   8.251   4.398   1.746 -0.7092  0.0715  0.3048
   75MOL0     C10011   8.406   4.378   1.763  0.7104 -0.2068 -0.0626
   75MOL0     C10012   8.478   4.328   1.638 -0.3358  0.2621  0.3364
   75MOL0     C10013   8.607   4.237   1.671  1.5066 -0.5964  1.0815
   75MOL0     O10014   8.665   4.193   1.548 -0.2646  0.3946 -0.8964
   75MOL0     C10015   8.764   4.092   1.542  0.4511 -0.8774  0.5300
   75MOL0     C10016   8.820   4.029   1.651  0.6159 -1.4756  0.9485
   75MOL0     C10017   8.892   3.913   1.632  0.3434 -0.0500 -0.6144
   75MOL0     C10018   8.918   3.822   1.758  0.0498 -0.4924  0.0355
   75MOL0     C10019   8.919   3.866   1.501  0.0282 -0.5794 -0.4705
   75MOL0     C10020   9.014   3.758   1.474  0.6265  0.4720 -0.0661
   75MOL0     O10021   9.117   3.737   1.570 -1.5032 -0.4728 -0.0522
   75MOL0     C10022   9.229   3.679   1.512 -0.4663  0.1776 -0.7137
   75MOL0     C10023   9.306   3.597   1.599 -0.9173 -0.7282 -0.3066
   75MOL0     C10024   9.428   3.541   1.561  0.6264 -0.1023  0.1611
   75MOL0     C10025   9.479   3.590   1.437 -0.5699  0.5822 -0.0055
   75MOL0     O10026   9.599   3.551   1.394  0.0181 -0.0985 -0.1679
   75MOL0     C10027   9.688   3.475   1.476 -0.2311 -0.6229  1.0816
   75MOL0     C10028   9.830   3.488   1.410 -0.8895 -0.7016  0.4022
   75MOL0     C10029   9.846   3.441   1.268  0.2722  0.0721  0.1503
   75MOL0     C10030   9.970   3.488   1.191 -0.3065 -0.0801  0.3183
   75MOL0     C10031   9.969   3.420   1.050  0.2350 -0.0221  0.2400
   75MOL0     C10032  10.101   3.453   0.971 -0.3471 -0.2370 -0.4084
   75MOL0     C10033  10.087   3.589   0.907  0.4914 -0.4708 -0.2262
   75MOL0     C10034  10.191   3.613   0.805 -0.1189 -0.8669 -1.2064
   75MOL0    Cl10035  10.358   3.589   0.867  0.3414 -0.0665  0.4326
   75MOL0     C10036   9.408   3.671   1.350  0.5117 -0.2442  1.0268
   75MOL0     C10037   9.284   3.726   1.387 -0.2298  0.5699 -0.3937
   75MOL0     O10038   8.991   3.683   1.374  0.5489  0.1002  0.0552
   75MOL0     C10039   8.870   3.938   1.391  0.0030  0.0504  0.0963
   75MOL0     C10040   8.794   4.047   1.412 -0.3303 -1.5210 -0.3265
   75MOL0     N10041   8.070   4.549   1.690 -0.1081  0.3844  0.9344
   75MOL0     N10042   8.034   4.634   1.600 -0.1604  0.3799  0.6789
   75MOL0     C10043   8.170   5.145   0.287 -0.6359 -0.3075 -0.5396
   75MOL0     C10044   8.148   5.110   0.157 -0.4791 -0.7567 -0.2012
   75MOL0     C10045   7.987   4.878  -0.194  1.6237  0.0764 -0.5803
   75MOL0     C10046   7.868   4.856  -0.273 -0.3924  0.3302 -0.0768
   75MOL0     C10047   7.876   4.857  -0.418 -0.5411  0.5544  0.1717
   75MOL0     C10048   7.996   4.877  -0.492 -1.2916  0.3904  0.1608
   75MOL0     O10049   8.007   4.863  -0.629  1.1154 -0.5145  0.3031
   75MOL0     C10050   8.113   4.787  -0.691  0.8436 -0.0726 -0.0866
   75MOL0     C10051   8.048   4.644  -0.717 -0.2704 -0.8026 -0.2006
   75MOL0     C10052   8.143   4.536  -0.769  0.0332  0.2817  0.5077
   75MOL0     C10053   8.255   4.506  -0.669  0.5239 -0.6987 -0.3784
   75MOL0     C10054   8.333   4.387  -0.709  0.1383  0.7312  0.5251
   75MOL0     C10055   8.397   4.294  -0.760  0.3704 -0.5308  0.3150
   75MOL0     C10056   8.112   4.912  -0.414  0.5637  1.3828  0.7558
   75MOL0     C10057   8.099   4.910  -0.277  0.0332  0.4614  0.3456
   75MOL0     H10058   8.156   4.773   0.205 -4.2636 -1.4186  1.2075
   75MOL0     H10059   8.210   4.849   0.436 -0.8987  0.2198 -0.5874
   75MOL0     H10060   8.342   4.952   0.582 -1.1664  0.9241 -2.8294
   75MOL0     H10061   8.401   5.117   0.639  1.9352 -2.9174  2.1897
   75MOL0     H10062   8.210   5.144   0.786  0.7144  1.3555 -0.6839
   75MOL0     H10063   8.126   5.009   0.708  1.7832  0.2614  0.0126
   75MOL0     H10064   8.279   4.840   0.789 -2.1784  0.1610 -1.3326
   75MOL0     H10065   8.385   4.969   0.862 -2.4592  3.5678  3.1200
   75MOL0     H10066   8.242   5.052   1.023 -2.0505  0.2919  0.2508
   75MOL0     H10067   8.103   4.966   0.958 -0.2580 -1.1076  1.4934
   75MOL0     H10068   8.235   4.747   0.999  0.4082  0.4190 -0.2199
   75MOL0     H10069   8.360   4.846   1.073  0.7078 -2.0396 -1.2330
   75MOL0     H10070   8.190   4.917   1.237 -0.5792  1.6167 -1.1208
   75MOL0     H10071   8.074   4.808   1.144  0.3819 -2.7195 -0.0986
   75MOL0     H10072   8.172   4.612   1.253 -0.4361 -0.0063  2.0527
   75MOL0     H10073   8.310   4.698   1.306  0.0755  0.4416 -0.4688
   75MOL0     H10074   8.028   4.776   1.393  0.1308  2.2510  1.5904
   75MOL0     H10075   8.177   4.843   1.439  1.4044  0.0373 -1.9730
   75MOL0     H10076   8.328   4.533   1.478 -1.4298 -0.0119 -0.8870
   75MOL0     H10077   8.207   4.417   1.845  0.9317  0.5557  0.9859
   75MOL0     H10078   8.213   4.305   1.704  0.9872 -0.6899  0.3444
   75MOL0     H10079   8.409   4.302   1.842  0.1059  0.1105  0.2698
   75MOL0     H10080   8.452   4.472   1.794 -0.9419 -0.3276  3.2043
   75MOL0     H10081   8.519   4.414   1.585  0.0719 -1.1548 -1.7562
   75MOL0     H10082   8.419   4.271   1.566  1.1891 -0.2353 -0.5648
   75MOL0     H10083   8.571   4.145   1.720 -1.5441  0.7671  1.6638
   75MOL0     H10084   8.687   4.280   1.731  2.0260 -3.4948  2.6376
   75MOL0     H10085   8.788   4.078   1.743  1.8750  3.1275 -0.7667
   75MOL0     H10086   9.016   3.843   1.803  1.1360 -0.8438 -2.0313
   75MOL0     H10087   8.841   3.849   1.831 -0.6062  0.0162 -0.8331
   75MOL0     H10088   8.921   3.715   1.733  0.9947 -0.4462 -0.0993
   75MOL0     H10089   9.260   3.586   1.697 -0.8373  2.1576  0.1439
   75MOL0     H10090   9.485   3.472   1.622  3.5317  0.9858 -1.1279
   75MOL0     H10091   9.700   3.513   1.578  0.4822 -0.3137  0.8882
   75MOL0     H10092   9.654   3.372   1.466 -0.5281 -0.6290  2.1051
   75MOL0     H10093   9.864   3.592   1.411 -0.0894 -0.9363 -0.7710
   75MOL0     H10094   9.900   3.432   1.471  0.7878  3.2119  2.4405
   75MOL0     H10095   9.773   3.486   1.199 -0.2954 -1.3781 -0.2416
   75MOL0     H10096   9.842   3.331   1.267 -1.0671  0.1048  0.2725
   75MOL0     H10097   9.966   3.595   1.171 -2.8980 -0.6320 -2.9414
   75MOL0     H10098  10.063   3.446   1.232  0.8583 -1.1732 -3.0824
   75MOL0     H10099   9.888   3.465   0.992  0.1461 -1.5222 -0.8697
   75MOL0     H10100   9.962   3.311   1.048  0.8687 -0.0586 -0.2249
   75MOL0     H10101  10.189   3.445   1.036  0.2838  3.1227 -0.6641
   75MOL0     H10102  10.121   3.381   0.891 -2.1300 -2.4192  0.9942
   75MOL0     H10103  10.098   3.673   0.976  1.1266 -0.0803 -0.7920
   75MOL0     H10104   9.989   3.598   0.860  1.7875  6.2169 -2.7678
   75MOL0     H10105  10.181   3.716   0.769  1.4850 -0.6637 -1.1434
   75MOL0     H10106  10.174   3.544   0.722  3.8268  0.1497 -3.0933
   75MOL0     H10107   9.439   3.694   1.249 -0.8525 -1.1630  0.3707
   75MOL0     H10108   9.216   3.792   1.335  1.0703  1.0347 -1.5823
   75MOL0     H10109   8.894   3.905   1.290 -0.2980 -1.0027  0.3488
   75MOL0     H10110   8.752   4.100   1.327 -0.0136  1.6528  1.3163
   75MOL0     H10111   8.166   5.247   0.324 -2.5918 -1.4902  2.9995
   75MOL0     H10112   8.135   5.178   0.074 -1.1428 -2.3243 -1.4462
   75MOL0     H10113   7.767   4.846  -0.234 -0.2870  1.2294  0.4442
   75MOL0     H10114   7.784   4.851  -0.475  1.0473  2.8777 -2.8600
   75MOL0     H10115   8.133   4.829  -0.791 -0.3890  0.6057 -0.0582
   75MOL0     H10116   8.205   4.784  -0.632  1.7197  0.3508 -1.3792
   75MOL0     H10117   7.972   4.649  -0.796  0.6069  2.3520 -0.9910
   75MOL0     H10118   8.013   4.592  -0.628  1.0767  1.0413  1.4827
   75MOL0     H10119   8.187   4.566  -0.864 -0.5184 -3.9946 -1.3160
   75MOL0     H10120   8.093   4.448  -0.810  0.7450  0.4999 -0.8927
   75MOL0     H10121   8.215   4.474  -0.572  0.4168  1.1096  0.2260
   75MOL0     H10122   8.321   4.592  -0.654  1.6953 -1.8328  1.3977
   75MOL0     H10123   8.448   4.221  -0.820 -0.5679  0.8470 -2.3231
   75MOL0     H10124   8.205   4.940  -0.461  2.4538 -2.0232  2.1465
   75MOL0     H10125   8.195   4.929  -0.229 -0.7885  2.1577  1.4059
   76MOL0     O10126   3.520   8.903   5.312 -0.4132 -0.8730 -0.0967
   76MOL0     C10127   3.564   8.962   5.208  0.3213 -0.7293 -0.2786
   76MOL0     O10128   3.659   9.046   5.214  0.4838  0.3067 -0.7089
   76MOL0     C10129   3.702   9.104   5.324  0.0195  0.0821  0.1039
   76MOL0     C10130   3.844   9.100   5.342  0.4204 -1.2972  0.4113
   76MOL0     C10131   3.898   9.169   5.452  0.1981 -1.1004 -0.3143
   76MOL0     C10132   3.817   9.233   5.547  1.1500 -0.2615  0.0542
   76MOL0     O10133   3.886   9.295   5.654  0.3022 -0.2668  1.0275
   76MOL0     C10134   3.817   9.329   5.784 -0.7986 -0.1724  0.0500
   76MOL0     C10135   3.922   9.371   5.885  0.3472 -0.9065 -0.4230
   76MOL0     C10136   4.004   9.497   5.861  0.5086 -0.0902 -0.6062
   76MOL0     C10137   4.108   9.479   5.743  0.1940  0.4181 -0.7428
   76MOL0     C10138   4.215   9.592   5.748 -0.2880  0.5097  0.1596
   76MOL0     C10139   4.308   9.590   5.614 -0.6648  0.1387 -0.3976
   76MOL0     C10140   4.421   9.692   5.643  1.0020  0.5044 -0.5790
   76MOL0     C10141   4.527   9.711   5.537  0.2859 -0.0651 -0.2258
   76MOL0     N10142   4.627   9.815   5.571  0.0891 -0.6169 -0.1093
   76MOL0     C10143   4.665   9.906   5.476  0.1629  0.3884  0.0816
   76MOL0     C10144   4.770   9.964   5.531  0.0758  0.5428  0.1074
   76MOL0     C10145   4.846  10.078   5.489  1.1593 -0.3660  0.1224
   76MOL0     C10146   4.824  10.110   5.342  0.2381  0.3447  0.5209
   76MOL0     C10147   4.918  10.218   5.297  0.1122  0.4627 -0.1732
   76MOL0     C10148   4.912  10.272   5.157  0.1970 -0.6289 -0.0079
   76MOL0     O10149   4.969  10.403   5.156  0.0876  0.4232  0.3319
   76MOL0     C10150   5.106  10.433   5.174  0.8454  0.2049  0.0065
   76MOL0     C10151   5.138  10.552   5.243  0.0341 -0.2428  0.3599
   76MOL0     C10152   5.271  10.589   5.265 -0.6551 -0.9991 -0.1318
   76MOL0     C10153   5.277  10.726   5.344  0.4297 -0.4106 -0.0744
   76MOL0     C10154   5.376  10.501   5.230  0.1852 -0.1794 -0.8430
   76MOL0     C10155   5.518  10.542   5.255  0.5032  0.3969 -0.0794
   76MOL0     O10156   5.542  10.675   5.237 -0.7101 -0.4545  0.3128
   76MOL0     C10157   5.672  10.727   5.234 -0.3230  0.5571  0.2370
   76MOL0     C10158   5.687  10.852   5.284 -0.2043  0.0274 -0.2985
   76MOL0     C10159   5.806  10.915   5.270 -0.7271  0.2856 -0.3143
   76MOL0     C10160   5.927  10.845   5.237 -0.0823  0.0842  0.0357
   76MOL0     O10161   6.048  10.913   5.223  0.8916 -0.6051 -0.0829
   76MOL0     C10162   6.161  10.848   5.285 -0.3412  1.2961 -0.0381
   76MOL0     C10163   6.288  10.919   5.244  0.4831  0.3009  0.4832
   76MOL0     C10164   6.425  10.867   5.287 -0.5496  0.1905 -0.5828
   76MOL0     C10165   6.463  10.910   5.432 -0.9764  0.7524 -0.3272
   76MOL0     C10166   6.616  10.888   5.440 -0.9817  0.3004 -0.4179
   76MOL0     C10167   6.679  10.747   5.418  0.4888  0.1137 -0.1935
   76MOL0     C10168   6.609  10.640   5.517 -0.4049 -0.8396 -0.8240
   76MOL0     C10169   6.594  10.684   5.667  0.4565  0.0183 -0.3714
   76MOL0    Cl10170   6.418  10.726   5.722  0.0984  0.2397  0.2262
   76MOL0     C10171   5.912  10.716   5.190 -0.8624  1.1060  0.1002
   76MOL0     C10172   5.787  10.655   5.198 -0.1747 -0.1569 -0.5747
   76MOL0     O10173   5.598  10.453   5.285  0.3940 -0.1104 -0.6306
   76MOL0     C10174   5.345  10.387   5.166 -0.0058 -0.4200 -0.1982
   76MOL0     C10175   5.213  10.348   5.142 -0.8535  0.1555  0.4924
   76MOL0     N10176   4.795   9.914   5.656 -0.4240  0.2196 -0.7485
   76MOL0     N10177   4.695   9.840   5.688 -0.5662  0.0178  0.3515
   76MOL0     C10178   3.676   9.216   5.533 -0.0300  0.0796  0.6150
   76MOL0     C10179   3.619   9.157   5.422 -0.8833 -0.0059 -0.4475
   76MOL0     C10180   3.506   8.930   5.078 -0.7843  0.1690  0.4870
   76MOL0     C10181   3.382   8.879   5.073  0.2083  0.6764 -0.1682
   76MOL0     C10182   3.333   8.849   4.939 -0.4638  0.2881 -0.6611
   76MOL0     C10183   3.408   8.868   4.826 -0.0822 -0.2005 -0.5625
   76MOL0     O10184   3.367   8.801   4.714 -0.4128  0.1663  0.0734
   76MOL0     C10185   3.453   8.772   4.604  0.2218  0.0884  0.1319
   76MOL0     C10186   3.352   8.745   4.484 -0.3082  0.4940  0.2547
   76MOL0     C10187   3.290   8.605   4.470 -0.4671 -0.1736 -0.7569
   76MOL0     C10188   3.160   8.601   4.386 -0.1891  0.0123 -0.5916
   76MOL0     C10189   3.039   8.632   4.459  0.4730  0.0973 -0.3841
   76MOL0     C10190   2.933   8.661   4.519 -0.3829  0.4230  0.3222
   76MOL0     C10191   3.529   8.925   4.839  0.4675  0.0246  0.1198
   76MOL0     C10192   3.578   8.960   4.962  0.5034 -0.4010 -0.3611
   76MOL0     H10193   3.905   9.053   5.266  0.3746 -3.1480  1.4618
   76MOL0     H10194   4.006   9.166   5.462  0.1540 -1.2995  0.1304
   76MOL0     H10195   3.747   9.411   5.764 -0.7079  0.3281  1.6329
   76MOL0     H10196   3.753   9.248   5.821 -0.1562 -1.4915 -1.6461
   76MOL0     H10197   3.856   9.395   5.969 -0.1182  2.2053 -1.5614
   76MOL0     H10198   3.976   9.283   5.922 -3.9377 -3.3044  0.8561
   76MOL0     H10199   3.937   9.576   5.827  1.6047  0.5623 -1.3361
   76MOL0     H10200   4.052   9.529   5.954  1.7845  0.5565 -1.4515
   76MOL0     H10201   4.161   9.384   5.751 -0.4283  0.1815  1.3105
   76MOL0     H10202   4.049   9.486   5.652  0.2215  0.0010 -0.7932
   76MOL0     H10203   4.167   9.690   5.747 -0.0876  0.6158 -1.5970
   76MOL0     H10204   4.279   9.583   5.836  0.8339  2.2026 -0.4353
   76MOL0     H10205   4.359   9.496   5.591 -1.1433 -0.4054  0.6584
   76MOL0     H10206   4.238   9.614   5.534 -0.8924 -0.6394 -0.4441
   76MOL0     H10207   4.377   9.787   5.675  3.7207  2.2825 -1.6857
   76MOL0     H10208   4.476   9.668   5.735  0.5858  3.2643  0.5057
   76MOL0     H10209   4.472   9.744   5.448  1.7148 -1.3340 -1.6261
   76MOL0     H10210   4.576   9.615   5.525 -1.7519 -1.0712 -0.9736
   76MOL0     H10211   4.630   9.923   5.375 -0.7579  3.2037  0.7947
   76MOL0     H10212   4.821  10.159   5.558 -0.9417 -0.7170 -0.1649
   76MOL0     H10213   4.954  10.059   5.491  1.5537  1.5770 -0.5159
   76MOL0     H10214   4.717  10.131   5.332  0.0781  0.1015  1.6185
   76MOL0     H10215   4.861  10.025   5.284  1.8890  0.1393  1.8036
   76MOL0     H10216   5.024  10.194   5.308  0.1334  0.9018  0.6197
   76MOL0     H10217   4.923  10.307   5.359 -0.7437  0.0140  0.5720
   76MOL0     H10218   4.808  10.289   5.129  0.3327 -2.3717 -1.8373
   76MOL0     H10219   4.972  10.214   5.087  3.0641  0.5210  1.3548
   76MOL0     H10220   5.052  10.613   5.271 -0.6653 -0.6592 -0.7971
   76MOL0     H10221   5.358  10.739   5.417  0.7352 -0.7535 -0.3539
   76MOL0     H10222   5.284  10.805   5.269  3.7008 -0.0493  0.4598
   76MOL0     H10223   5.190  10.737   5.410 -0.6619 -1.4235 -1.3002
   76MOL0     H10224   5.605  10.920   5.306 -1.7835 -1.0704 -2.3653
   76MOL0     H10225   5.817  11.017   5.306 -0.1350  0.0233  0.2620
   76MOL0     H10226   6.159  10.832   5.393  2.1857 -1.0551 -0.2168
   76MOL0     H10227   6.163  10.746   5.243 -3.5106 -0.2572  3.1047
   76MOL0     H10228   6.284  10.911   5.135 -0.0381 -1.6872  0.6120
   76MOL0     H10229   6.287  11.025   5.271 -2.1192  0.6684 -0.7269
   76MOL0     H10230   6.503  10.914   5.228 -0.0909  0.5087  0.2589
   76MOL0     H10231   6.436  10.760   5.269 -2.8544 -0.4247  1.1218
   76MOL0     H10232   6.428  11.014   5.440 -0.1313  1.1948 -1.9515
   76MOL0     H10233   6.413  10.853   5.511  3.2509 -4.0508 -0.6409
   76MOL0     H10234   6.655  10.931   5.533 -3.5664 -0.4311  1.0991
   76MOL0     H10235   6.659  10.947   5.359 -1.3092 -1.1908 -1.7258
   76MOL0     H10236   6.647  10.703   5.323 -0.3410  0.7577 -0.2267
   76MOL0     H10237   6.786  10.754   5.440  1.0278 -2.8450 -1.4217
   76MOL0     H10238   6.655  10.541   5.519 -1.2872 -1.2505 -0.8035
   76MOL0     H10239   6.509  10.625   5.476 -1.3459  0.3104  0.8940
   76MOL0     H10240   6.650  10.774   5.696 -3.3807  2.4917  0.0409
   76MOL0     H10241   6.633  10.597   5.721  1.3590  0.7615  0.2191
   76MOL0     H10242   5.992  10.653   5.151 -2.4913  0.8346 -3.1287
   76MOL0     H10243   5.775  10.550   5.172 -3.2117  0.3343 -1.5835
   76MOL0     H10244   5.430  10.331   5.127 -0.0272 -0.1991 -0.5630
   76MOL0     H10245   5.187  10.255   5.093 -0.4969 -0.2025  0.9737
   76MOL0     H10246   3.606   9.263   5.602 -0.7778  2.2344 -1.4624
   76MOL0     H10247   3.512   9.163   5.408 -0.8604  1.3468 -0.1811
   76MOL0     H10248   3.330   8.852   5.165 -0.5595  0.0434 -0.7739
   76MOL0     H10249   3.244   8.791   4.913  0.9880 -2.6764  0.4761
   76MOL0     H10250   3.520   8.856   4.584  1.8673 -0.9683  1.0209
   76MOL0     H10251   3.511   8.682   4.624 -0.1643 -0.5572 -1.4814
   76MOL0     H10252   3.395   8.768   4.386 -0.7445  0.5867  0.0862
   76MOL0     H10253   3.269   8.816   4.489 -0.7533  0.0604 -0.6858
   76MOL0     H10254   3.258   8.569   4.568  1.5180 -2.5151 -0.8980
   76MOL0     H10255   3.359   8.530   4.433  0.8417  1.0629 -0.9166
   76MOL0     H10256   3.162   8.501   4.341  1.8127 -0.0728 -0.4279
   76MOL0     H10257   3.184   8.681   4.315  1.7684  2.4482  2.5481
   76MOL0     H10258   2.856   8.702   4.582 -2.7014 -2.8349 -0.1342
   76MOL0     H10259   3.587   8.950   4.751  0.3532  0.0377  0.0489
   76MOL0     H10260   3.676   9.005   4.957  1.0214 -1.5695 -1.4060
   77MOL0     O10261   8.179   1.276   7.248  0.2053 -0.9055 -0.3553
   77MOL0     C10262   8.183   1.399   7.234 -0.2549 -0.1568  0.5113
   77MOL0     O10263   8.294   1.476   7.248  0.1342  0.0195  0.0895
   77MOL0     C10264   8.407   1.414   7.283 -0.3589  0.3103  0.3841
   77MOL0     C10265   8.470   1.331   7.182 -0.1678 -0.9476 -0.0469
   77MOL0     C10266   8.603   1.290   7.203  0.5106 -0.3060 -1.2083
   77MOL0     C10267   8.672   1.331   7.316  0.1198  0.1054 -0.5944
   77MOL0     O10268   8.804   1.289   7.322 -0.3591  0.2003  0.2493
   77MOL0     C10269   8.872   1.302   7.451 -0.7570 -0.1617 -0.1939
   77MOL0     C10270   9.027   1.281   7.439  0.1980 -0.3908  0.4476
   77MOL0     C10271   9.091   1.404   7.372 -0.1013  0.7579  0.6950
   77MOL0     C10272   9.242   1.378   7.333 -0.7094  0.1521 -0.0127
   77MOL0     C10273   9.280   1.250   7.263 -0.2678  0.9487  0.5261
   77MOL0     C10274   9.227   1.243   7.112  0.3455  0.2684  0.3071
   77MOL0     C10275   9.314   1.128   7.060 -0.2589 -0.0463 -0.5097
   77MOL0     C10276   9.285   1.110   6.914 -0.2004 -0.2650  0.3682
   77MOL0     N10277   9.363   0.997   6.864 -0.1233  0.5134 -0.4562
   77MOL0     C10278   9.484   1.012   6.805 -0.3811 -0.3836  0.5935
   77MOL0     C10279   9.526   0.880   6.799  0.3021 -0.1443  0.0159
   77MOL0     C10280   9.648   0.823   6.724  0.5883  0.4832  0.4888
   77MOL0     C10281   9.779   0.880   6.774 -0.1638  0.9758  0.3620
   77MOL0     C10282   9.886   0.792   6.708 -0.0076 -0.3927  0.0131
   77MOL0     C10283  10.030   0.859   6.718  0.6867  0.1153 -0.2380
   77MOL0     O10284  10.020   0.979   6.637 -0.7292 -0.1298 -0.3193
   77MOL0     C10285  10.090   0.990   6.518  0.2126  0.2075 -0.7651
   77MOL0     C10286  10.085   1.112   6.455 -0.2492  0.1363 -0.8960
   77MOL0     C10287  10.142   1.129   6.326 -0.4082 -0.5466  0.2374
   77MOL0     C10288  10.099   1.259   6.250  0.1369  0.4818  0.4559
   77MOL0     C10289  10.216   1.033   6.264 -0.2263  0.9719  0.4135
   77MOL0     C10290  10.274   1.047   6.122  0.1768 -0.0907  0.1455
   77MOL0     O10291  10.307   0.931   6.062  0.2611  0.0387 -0.2418
   77MOL0     C10292  10.349   0.939   5.931  0.1653 -0.3337  0.0954
   77MOL0     C10293  10.265   0.961   5.823  0.7497  0.1720  0.2929
   77MOL0     C10294  10.314   0.975   5.693 -0.3943  1.2268  0.1333
   77MOL0     C10295  10.458   0.966   5.664  0.3060  0.4189 -0.5010
   77MOL0     O10296  10.517   0.970   5.543  0.1290 -0.3838  0.1383
   77MOL0     C10297  10.441   1.033   5.438 -0.4411 -0.3804  1.3482
   77MOL0     C10298  10.521   1.014   5.304 -0.0320 -0.0045  0.0726
   77MOL0     C10299  10.672   1.067   5.312  1.3668  0.7877 -0.3069
   77MOL0     C10300  10.723   1.042   5.175 -0.1602  0.5092  0.5701
   77MOL0     C10301  10.876   1.064   5.179 -0.1385  0.5844 -0.9432
   77MOL0     C10302  10.906   1.214   5.194  0.4175  0.0019  0.9090
   77MOL0     C10303  11.052   1.244   5.196 -0.8770 -0.3656  0.2288
   77MOL0     C10304  11.076   1.400   5.212 -0.3121  0.1632  0.2187
   77MOL0    Cl10305  11.068   1.439   5.391  0.2727  0.2439  0.5208
   77MOL0     C10306  10.529   0.910   5.771 -0.5490  0.4846  1.4469
   77MOL0     C10307  10.481   0.909   5.907 -0.2443 -0.1534 -0.5331
   77MOL0     O10308  10.305   1.162   6.075  0.0032 -0.3365 -0.4301
   77MOL0     C10309  10.210   0.904   6.312 -0.1551  0.5253 -0.1981
   77MOL0     C10310  10.153   0.884   6.443 -0.6022 -0.6225 -0.5122
   77MOL0     N10311   9.428   0.796   6.853  0.2486 -0.2979 -0.2117
   77MOL0     N10312   9.324   0.870   6.882  0.5638  0.8166 -0.7138
   77MOL0     C10313   8.609   1.408   7.408  0.9583  0.4312  0.0449
   77MOL0     C10314   8.473   1.443   7.400  0.3149 -0.5843  0.5462
   77MOL0     C10315   8.061   1.466   7.172  0.0712  0.0568  0.0986
   77MOL0     C10316   7.942   1.392   7.146  0.4290 -0.9051 -0.5986
   77MOL0     C10317   7.828   1.451   7.090 -0.7232 -0.0284  0.4971
   77MOL0     C10318   7.829   1.585   7.053  0.2812 -0.4611  0.6164
   77MOL0     O10319   7.704   1.628   6.995 -0.7275 -0.0900  0.3291
   77MOL0     C10320   7.697   1.776   6.976  0.5808 -0.3624 -1.0258
   77MOL0     C10321   7.668   1.841   7.118  0.1147 -0.6995  0.4902
   77MOL0     C10322   7.547   1.785   7.191  1.2993  0.2611 -0.2822
   77MOL0     C10323   7.417   1.808   7.114  0.8393  0.0738 -0.8056
   77MOL0     C10324   7.382   1.943   7.104  0.9452 -0.5781 -0.2193
   77MOL0     C10325   7.332   2.056   7.096 -0.6570  0.1853 -0.8389
   77MOL0     C10326   7.949   1.655   7.071 -0.1935 -0.6773 -0.1163
   77MOL0     C10327   8.067   1.601   7.137  0.4072  0.4134  0.3519
   77MOL0     H10328   8.425   1.300   7.088 -0.2092 -2.4421  0.4362
   77MOL0     H10329   8.664   1.231   7.136  1.4914 -0.5207 -0.1651
   77MOL0     H10330   8.861   1.404   7.489  0.9976  0.9717 -2.4846
   77MOL0     H10331   8.828   1.235   7.526 -1.8492  1.6170  0.8512
   77MOL0     H10332   9.073   1.259   7.536 -1.1741 -0.2514  1.1611
   77MOL0     H10333   9.042   1.184   7.391  1.2026 -1.6704  3.1106
   77MOL0     H10334   9.033   1.417   7.279  0.8253  1.2808  0.1818
   77MOL0     H10335   9.069   1.489   7.437  1.5600  1.5413  0.2753
   77MOL0     H10336   9.274   1.467   7.279  0.0432  0.4299  0.8542
   77MOL0     H10337   9.302   1.377   7.425 -0.3496 -2.7774 -0.1621
   77MOL0     H10338   9.389   1.256   7.267 -0.0882 -0.9718 -0.2574
   77MOL0     H10339   9.241   1.164   7.318 -0.8121 -0.4530 -1.8874
   77MOL0     H10340   9.122   1.219   7.093  0.7360  0.1769 -2.1477
   77MOL0     H10341   9.240   1.338   7.060 -2.1462  1.4330  1.6677
   77MOL0     H10342   9.418   1.164   7.061 -1.0525  2.4271  0.0113
   77MOL0     H10343   9.302   1.036   7.118 -2.1459  0.5214  0.0604
   77MOL0     H10344   9.289   1.201   6.853 -0.4612  1.3389  2.6266
   77MOL0     H10345   9.181   1.080   6.895 -0.9568  0.3710  2.9965
   77MOL0     H10346   9.535   1.104   6.776  3.0770 -1.8812  1.4438
   77MOL0     H10347   9.657   0.715   6.743  0.4574  0.4562  0.3967
   77MOL0     H10348   9.640   0.847   6.618 -1.6306  1.2335  0.7767
   77MOL0     H10349   9.784   0.877   6.883 -2.9815 -2.8307  0.5597
   77MOL0     H10350   9.797   0.984   6.744  1.6185 -0.2685 -3.5366
   77MOL0     H10351   9.853   0.768   6.606  1.4639 -0.9693 -0.3543
   77MOL0     H10352   9.893   0.694   6.755 -1.8334 -0.8178 -0.4857
   77MOL0     H10353  10.102   0.786   6.680 -0.0241 -1.5817  1.5156
   77MOL0     H10354  10.068   0.891   6.815 -1.9492 -1.3674  1.4069
   77MOL0     H10355  10.030   1.196   6.496 -0.8315 -0.4134 -0.5142
   77MOL0     H10356  10.018   1.310   6.302 -2.8968 -1.6642 -1.8385
   77MOL0     H10357  10.184   1.328   6.241  1.0593 -0.5587  1.0075
   77MOL0     H10358  10.064   1.238   6.148  1.1183 -2.2145  0.6057
   77MOL0     H10359  10.160   0.956   5.849  0.8543 -2.2770  0.4392
   77MOL0     H10360  10.256   1.006   5.608 -2.1671 -2.1038 -0.0039
   77MOL0     H10361  10.338   1.001   5.421 -1.0677  2.2267 -0.3719
   77MOL0     H10362  10.440   1.139   5.464 -1.7153 -0.5924  2.2454
   77MOL0     H10363  10.527   0.908   5.278 -1.6260  0.2779 -1.6112
   77MOL0     H10364  10.476   1.061   5.216  4.1688  3.4496 -0.5811
   77MOL0     H10365  10.715   1.019   5.401 -3.0941 -0.0078  1.6830
   77MOL0     H10366  10.677   1.174   5.329 -2.2578  0.9718  0.4113
   77MOL0     H10367  10.714   0.938   5.141  1.3091  0.6081 -0.1982
   77MOL0     H10368  10.679   1.111   5.104  2.0702  1.3558 -0.0855
   77MOL0     H10369  10.918   1.032   5.084  0.8628  0.0467 -0.3303
   77MOL0     H10370  10.914   1.005   5.263  1.3807 -0.0520 -2.0277
   77MOL0     H10371  10.886   1.271   5.103  2.9910  0.9633  0.8518
   77MOL0     H10372  10.860   1.277   5.271  0.2521  4.7206 -2.5734
   77MOL0     H10373  11.095   1.219   5.098 -0.3042 -0.7971  0.5799
   77MOL0     H10374  11.099   1.184   5.274 -3.5613 -1.4058  1.1525
   77MOL0     H10375  11.006   1.461   5.154 -0.4051 -1.2856 -1.2869
   77MOL0     H10376  11.173   1.426   5.169 -1.6233  1.2334 -2.3526
   77MOL0     H10377  10.632   0.893   5.739 -1.8622  0.4220 -3.5136
   77MOL0     H10378  10.545   0.884   5.990 -1.5293 -0.3610  0.4212
   77MOL0     H10379  10.242   0.818   6.253 -0.5957  1.2141 -1.4754
   77MOL0     H10380  10.131   0.782   6.472 -1.2078 -0.4354 -0.2949
   77MOL0     H10381   8.666   1.427   7.498  0.8487 -0.4626  0.3204
   77MOL0     H10382   8.414   1.500   7.471 -0.9514  0.3395 -1.1708
   77MOL0     H10383   7.939   1.299   7.203 -1.9786 -0.6148 -0.1656
   77MOL0     H10384   7.737   1.392   7.081 -0.7378 -0.4384  2.8327
   77MOL0     H10385   7.789   1.810   6.928  2.6626 -4.5936 -0.5760
   77MOL0     H10386   7.618   1.810   6.910  0.4664  0.3695 -0.5137
   77MOL0     H10387   7.652   1.947   7.095  0.0355 -0.6803  0.6320
   77MOL0     H10388   7.755   1.833   7.184  0.4804  2.4347  0.5144
   77MOL0     H10389   7.529   1.823   7.292 -0.6450  1.8307 -1.1534
   77MOL0     H10390   7.552   1.676   7.193 -1.2351  0.0861 -0.5262
   77MOL0     H10391   7.333   1.749   7.151  0.1249 -0.8318 -3.6128
   77MOL0     H10392   7.418   1.767   7.012 -0.8466  0.3184 -0.9429
   77MOL0     H10393   7.300   2.158   7.097 -3.1733 -0.5289 -1.6350
   77MOL0     H10394   7.953   1.758   7.037 -2.8386  0.4011  2.4052
   77MOL0     H10395   8.149   1.667   7.165  0.3521  1.7459 -2.3106
   78MOL0     O10396   0.517   8.271   1.140 -0.8404  0.8247  0.0826
   78MOL0     C10397   0.612   8.349   1.172  0.0440  0.7120  0.7551
   78MOL0     O10398   0.608   8.487   1.164  0.2143 -0.3417 -0.3655
   78MOL0     C10399   0.514   8.538   1.071 -0.1528  0.8885 -0.2309
   78MOL0     C10400   0.545   8.535   0.937  0.1043  0.1547  0.8395
   78MOL0     C10401   0.459   8.585   0.842  0.1392 -0.8355 -0.4288
   78MOL0     C10402   0.336   8.645   0.886 -0.0268 -0.0799  0.3174
   78MOL0     O10403   0.249   8.693   0.795 -0.1119 -0.0009 -0.3862
   78MOL0     C10404   0.166   8.586   0.755 -0.1495  1.0328 -0.2812
   78MOL0     C10405   0.021   8.612   0.794  0.5784 -0.6993  0.5934
   78MOL0     C10406  -0.074   8.504   0.736  0.0431  0.0615 -0.0041
   78MOL0     C10407  -0.218   8.544   0.758  0.9154 -1.1489 -1.2273
   78MOL0     C10408  -0.311   8.451   0.684  0.6688  0.8624 -0.5147
   78MOL0     C10409  -0.279   8.302   0.704 -0.2512  0.0969 -1.0851
   78MOL0     C10410  -0.272   8.264   0.850  1.2828 -0.2432 -0.6127
   78MOL0     C10411  -0.341   8.130   0.881  0.3341  0.2374 -0.1382
   78MOL0     N10412  -0.258   8.015   0.835  0.3572 -0.7818  0.4180
   78MOL0     C10413  -0.147   7.981   0.899  1.1189  0.2853 -0.9197
   78MOL0     C10414  -0.102   7.869   0.854  1.1578 -0.0534 -0.1252
   78MOL0     C10415   0.019   7.797   0.897 -0.6265 -0.0235 -1.4671
   78MOL0     C10416   0.005   7.644   0.869  0.1977  0.3335 -0.3973
   78MOL0     C10417   0.013   7.607   0.710  0.4110 -0.2026 -0.9571
   78MOL0     C10418   0.145   7.655   0.651 -0.4979  0.2862  0.1677
   78MOL0     O10419   0.257   7.615   0.716  0.2781  0.0987 -0.3827
   78MOL0     C10420   0.359   7.707   0.753  0.4961  1.2714  0.2153
   78MOL0     C10421   0.431   7.682   0.863 -0.4421 -0.4614 -0.3634
   78MOL0     C10422   0.542   7.765   0.908  0.7301 -0.1892  1.0596
   78MOL0     C10423   0.598   7.735   1.047 -0.1834 -0.4905  0.6969
   78MOL0     C10424   0.592   7.866   0.819  0.1843  0.6092 -0.7229
   78MOL0     C10425   0.711   7.960   0.850  0.1904  0.0435  0.0069
   78MOL0     O10426   0.736   8.059   0.755 -0.5219 -0.4364 -0.6239
   78MOL0     C10427   0.831   8.159   0.765  0.4116 -0.4999 -0.9258
   78MOL0     C10428   0.863   8.225   0.647  0.2523 -0.3440 -0.2654
   78MOL0     C10429   0.930   8.352   0.639  0.4086 -0.1813  1.1180
   78MOL0     C10430   0.968   8.414   0.758 -0.2498  0.3951 -0.4951
   78MOL0     O10431   1.019   8.540   0.771  0.7935  0.1626 -0.1480
   78MOL0     C10432   1.047   8.619   0.649  0.0252  0.9691  0.7506
   78MOL0     C10433   1.116   8.750   0.682 -1.0172 -0.0721  0.1670
   78MOL0     C10434   1.132   8.859   0.566  0.2741  0.6500  0.1192
   78MOL0     C10435   1.190   8.993   0.603  0.3021  0.3776  0.2704
   78MOL0     C10436   1.247   9.081   0.486  0.0120  1.0912 -0.0679
   78MOL0     C10437   1.330   9.201   0.547  0.0493 -0.2438  0.1364
   78MOL0     C10438   1.335   9.312   0.439  0.0707 -0.2388  0.1613
   78MOL0     C10439   1.459   9.400   0.445 -0.1161 -0.4563 -0.3494
   78MOL0    Cl10440   1.462   9.535   0.338 -0.2516 -0.7007  0.7184
   78MOL0     C10441   0.927   8.349   0.876 -0.1731  0.8909  0.0664
   78MOL0     C10442   0.861   8.221   0.884  0.2309 -0.1028 -0.6623
   78MOL0     O10443   0.777   7.944   0.956  0.2174 -0.1846  0.6569
   78MOL0     C10444   0.519   7.884   0.706 -0.4772 -0.0399 -1.0346
   78MOL0     C10445   0.403   7.813   0.678  0.8264 -0.1971 -0.0426
   78MOL0     N10446  -0.195   7.834   0.754 -0.2663 -1.1164 -0.7406
   78MOL0     N10447  -0.288   7.927   0.747 -0.5355 -0.1469  0.6811
   78MOL0     C10448   0.317   8.660   1.021  0.5967 -0.2237  0.6845
   78MOL0     C10449   0.399   8.606   1.113 -0.7466 -0.7456  0.1232
   78MOL0     C10450   0.741   8.291   1.215  0.2802 -1.1724  0.5572
   78MOL0     C10451   0.771   8.157   1.196  0.2303 -0.4675 -0.0232
   78MOL0     C10452   0.898   8.115   1.231  0.2566  0.3813 -0.2050
   78MOL0     C10453   0.994   8.196   1.306  0.1607  0.2033 -0.3675
   78MOL0     O10454   1.105   8.122   1.341 -0.2407 -0.3591  0.9962
   78MOL0     C10455   1.198   8.185   1.433 -1.3072 -0.0875  0.5592
   78MOL0     C10456   1.290   8.068   1.469  0.1916 -0.3487 -0.4855
   78MOL0     C10457   1.412   8.124   1.563 -0.4225 -0.0191 -1.4555
   78MOL0     C10458   1.474   8.014   1.654  0.5641  0.4022  0.2521
   78MOL0     C10459   1.605   8.059   1.698 -1.0324  0.1759  1.3288
   78MOL0     C10460   1.711   8.109   1.726 -0.2402 -0.3645 -0.0325
   78MOL0     C10461   0.973   8.329   1.307  0.0723 -0.3461  0.0702
   78MOL0     C10462   0.847   8.385   1.260  0.3064  0.2716  0.5775
   78MOL0     H10463   0.641   8.486   0.919 -1.6253 -2.9638 -0.6733
   78MOL0     H10464   0.500   8.585   0.742 -2.8045 -2.5966 -1.7673
   78MOL0     H10465   0.170   8.589   0.646 -0.4564 -2.7409 -0.5077
   78MOL0     H10466   0.200   8.484   0.773  1.1656  1.7686  1.7943
   78MOL0     H10467   0.018   8.614   0.903 -0.3580 -1.9160  0.6187
   78MOL0     H10468  -0.006   8.703   0.740  1.7146  0.4074  1.8183
   78MOL0     H10469  -0.038   8.504   0.633  0.2809  0.7118  0.0746
   78MOL0     H10470  -0.056   8.412   0.792  0.7691 -1.2464 -2.2481
   78MOL0     H10471  -0.244   8.534   0.864  2.9152 -0.9262 -0.6877
   78MOL0     H10472  -0.238   8.649   0.736 -2.0359 -1.3180  0.0917
   78MOL0     H10473  -0.414   8.475   0.714  0.5174 -0.3387 -0.0466
   78MOL0     H10474  -0.316   8.464   0.576 -3.9623 -1.1289 -0.7823
   78MOL0     H10475  -0.359   8.241   0.660 -1.1625  1.3293 -1.1815
   78MOL0     H10476  -0.190   8.273   0.648  0.0105 -1.6042  0.1297
   78MOL0     H10477  -0.168   8.240   0.873  1.3644  1.4585  1.0802
   78MOL0     H10478  -0.298   8.345   0.920  2.2405  0.9015 -1.5375
   78MOL0     H10479  -0.440   8.124   0.835 -0.0371  0.7482  0.5687
   78MOL0     H10480  -0.359   8.109   0.987  0.6748  0.4559 -0.0376
   78MOL0     H10481  -0.106   8.048   0.974 -0.9137  2.2274 -1.4108
   78MOL0     H10482   0.093   7.847   0.833  0.1327  1.7217  0.6447
   78MOL0     H10483   0.060   7.816   0.997 -1.2398 -0.6077 -1.0968
   78MOL0     H10484  -0.087   7.603   0.912 -0.9951  0.9803 -2.2523
   78MOL0     H10485   0.092   7.593   0.913 -1.2235 -1.8413  0.0383
   78MOL0     H10486  -0.071   7.647   0.653 -0.2821  0.6354  0.5823
   78MOL0     H10487   0.010   7.498   0.703 -0.8378 -0.0845 -3.3415
   78MOL0     H10488   0.154   7.764   0.646  1.3778  0.2603  1.8408
   78MOL0     H10489   0.152   7.620   0.547  0.2052  1.9321 -0.3694
   78MOL0     H10490   0.389   7.605   0.927 -0.4658  0.0036  0.1870
   78MOL0     H10491   0.602   7.830   1.102 -0.5600 -1.1459  1.8978
   78MOL0     H10492   0.534   7.672   1.109 -4.0526  3.7017  1.4692
   78MOL0     H10493   0.699   7.693   1.048  0.8482  1.3626 -3.6079
   78MOL0     H10494   0.823   8.190   0.552  0.8826  1.0835 -1.0900
   78MOL0     H10495   0.942   8.396   0.540 -1.4193 -1.4588  0.2672
   78MOL0     H10496   1.104   8.552   0.585 -0.7879 -0.6467  1.6693
   78MOL0     H10497   0.961   8.649   0.589 -0.4060  1.6514  1.6861
   78MOL0     H10498   1.060   8.791   0.767 -2.8103 -1.2350 -0.3974
   78MOL0     H10499   1.217   8.737   0.721 -0.5159 -3.3010 -1.8758
   78MOL0     H10500   1.033   8.880   0.525  0.5564  0.8688 -0.4590
   78MOL0     H10501   1.181   8.808   0.482  0.5164  0.5858  0.2986
   78MOL0     H10502   1.120   9.053   0.662  2.0468  0.9993  1.7879
   78MOL0     H10503   1.258   8.981   0.688 -0.3129  0.1145  0.7345
   78MOL0     H10504   1.155   9.122   0.443  0.3499  2.6865  0.6723
   78MOL0     H10505   1.296   9.027   0.405 -1.0045  1.2836 -0.8424
   78MOL0     H10506   1.269   9.232   0.632 -0.4332 -0.1874 -0.2328
   78MOL0     H10507   1.433   9.174   0.573  0.2448 -1.7903 -2.0095
   78MOL0     H10508   1.243   9.371   0.444  0.6617  0.9685 -1.9496
   78MOL0     H10509   1.337   9.259   0.343  3.1917 -0.6194  0.3329
   78MOL0     H10510   1.548   9.347   0.409  0.4678  1.0285 -1.2116
   78MOL0     H10511   1.470   9.423   0.551  2.1144 -1.5557 -0.2840
   78MOL0     H10512   0.957   8.398   0.968  0.4019 -0.6020  0.7101
   78MOL0     H10513   0.823   8.175   0.974 -0.5382  2.2972  0.3398
   78MOL0     H10514   0.538   7.963   0.633 -0.6062  1.0198  0.0579
   78MOL0     H10515   0.342   7.846   0.595 -1.2093  0.1994  1.5388
   78MOL0     H10516   0.219   8.696   1.050  0.9768 -1.1158  3.4504
   78MOL0     H10517   0.374   8.605   1.219 -2.1272 -2.3420 -0.1607
   78MOL0     H10518   0.697   8.091   1.152  0.2672 -0.2095 -0.4723
   78MOL0     H10519   0.920   8.010   1.217  1.0796  0.4328  0.5781
   78MOL0     H10520   1.255   8.258   1.376 -0.2706 -0.9265  0.4975
   78MOL0     H10521   1.154   8.227   1.524 -3.4899  0.2154 -0.5618
   78MOL0     H10522   1.342   8.018   1.386  2.4382  0.7779  0.1598
   78MOL0     H10523   1.238   7.981   1.510  0.4714 -1.6676 -2.7114
   78MOL0     H10524   1.384   8.217   1.614  0.3700  0.2417 -1.4852
   78MOL0     H10525   1.491   8.154   1.493  0.1095  1.7228 -0.1706
   78MOL0     H10526   1.469   7.914   1.611  3.4258 -0.2076  1.1357
   78MOL0     H10527   1.409   8.013   1.742  1.8610  2.1522  1.3043
   78MOL0     H10528   1.802   8.160   1.746 -0.0755 -0.4526 -0.5337
   78MOL0     H10529   1.047   8.391   1.357 -1.5272  1.4328  0.3434
   78MOL0     H10530   0.834   8.489   1.287 -2.5595  0.1203  0.0964
   79MOL0     O10531   8.652  10.526   2.109 -0.0249 -0.2458  0.9471
   79MOL0     C10532   8.589  10.615   2.048  0.4793 -0.3408  0.5570
   79MOL0     O10533   8.466  10.598   1.983  0.1743 -0.0004 -0.2040
   79MOL0     C10534   8.402  10.481   2.017 -0.2130 -0.2426  0.5481
   79MOL0     C10535   8.456  10.358   1.967 -0.6731  0.4483 -0.1510
   79MOL0     C10536   8.402  10.243   2.011 -0.7745 -0.2094 -0.0843
   79MOL0     C10537   8.280  10.245   2.085 -1.1450  0.6307 -0.1180
   79MOL0     O10538   8.234  10.126   2.127 -0.0928 -0.5683  0.3432
   79MOL0     C10539   8.235  10.033   2.024  0.0031 -0.5676 -0.2530
   79MOL0     C10540   8.126   9.949   2.055 -0.1492  0.3741 -0.1183
   79MOL0     C10541   7.992  10.023   2.015  0.7263 -0.6084 -0.2811
   79MOL0     C10542   7.865   9.986   2.102 -1.1473  0.8999  0.1119
   79MOL0     C10543   7.740  10.064   2.052 -0.8168 -0.7376 -0.7930
   79MOL0     C10544   7.614  10.049   2.139  0.0463  0.7164 -0.0913
   79MOL0     C10545   7.504  10.137   2.078 -0.3543  0.4695 -0.4930
   79MOL0     C10546   7.391  10.145   2.181 -0.5297  0.8299 -0.5422
   79MOL0     N10547   7.269  10.189   2.122  0.4946 -1.0531 -0.6926
   79MOL0     C10548   7.269  10.297   2.039  0.4288  0.1247  1.4441
   79MOL0     C10549   7.132  10.302   2.006 -0.3681 -1.0483  0.9390
   79MOL0     C10550   7.081  10.389   1.893 -0.1003  0.6010 -0.6441
   79MOL0     C10551   7.059  10.531   1.939 -0.6887 -0.5952  0.5391
   79MOL0     C10552   6.916  10.552   1.995  0.0874 -0.0569  0.2366
   79MOL0     C10553   6.879  10.686   2.051  0.0582  0.1939  0.8001
   79MOL0     O10554   6.939  10.702   2.180  0.7930 -0.5034 -0.0756
   79MOL0     C10555   6.882  10.799   2.252 -0.0556 -0.1912 -0.5780
   79MOL0     C10556   6.907  10.933   2.214 -0.1866 -1.5494  0.2452
   79MOL0     C10557   6.850  11.044   2.289  0.3320 -0.4192 -0.0565
   79MOL0     C10558   6.905  11.183   2.260  0.2176 -0.1056 -0.0509
   79MOL0     C10559   6.777  11.009   2.405  0.1795  0.1061  0.7938
   79MOL0     C10560   6.748  11.109   2.513 -0.3123 -0.0177  0.2144
   79MOL0     O10561   6.762  11.069   2.654  0.3977  0.0947  0.3636
   79MOL0     C10562   6.698  11.162   2.735 -0.4160  0.3370  0.2095
   79MOL0     C10563   6.558  11.179   2.733  0.7465  0.4446  0.1784
   79MOL0     C10564   6.503  11.270   2.828  0.2262 -0.0422 -0.4389
   79MOL0     C10565   6.593  11.327   2.924  0.9219 -0.0258 -0.3870
   79MOL0     O10566   6.548  11.424   3.011 -0.3314 -0.1359  0.6973
   79MOL0     C10567   6.422  11.416   3.072 -0.1529  0.1439 -0.1548
   79MOL0     C10568   6.410  11.473   3.221  0.0091  0.5243 -0.6274
   79MOL0     C10569   6.451  11.625   3.242 -0.2527 -0.0967 -0.2882
   79MOL0     C10570   6.422  11.676   3.382  0.4174 -0.2971 -0.4183
   79MOL0     C10571   6.433  11.822   3.409 -0.3731 -0.6288  1.0125
   79MOL0     C10572   6.451  11.839   3.561 -0.0514  0.1126  0.1265
   79MOL0     C10573   6.414  11.989   3.595  0.2244  0.0810  0.4555
   79MOL0     C10574   6.285  12.011   3.667  0.1961 -0.1478  0.8322
   79MOL0    Cl10575   6.287  11.915   3.810  0.2439 -0.3069  0.0845
   79MOL0     C10576   6.724  11.303   2.929 -0.0611  0.4362  0.3828
   79MOL0     C10577   6.776  11.224   2.831 -1.5347  0.0048  1.7475
   79MOL0     O10578   6.717  11.226   2.474  0.1757 -0.1230 -0.2939
   79MOL0     C10579   6.744  10.874   2.438  0.3783 -0.3086 -0.4217
   79MOL0     C10580   6.797  10.774   2.362 -0.1277  1.3988 -0.3616
   79MOL0     N10581   7.060  10.214   2.080 -0.6642  0.2289 -0.0525
   79MOL0     N10582   7.143  10.153   2.157  0.2073 -0.0702  0.1814
   79MOL0     C10583   8.228  10.359   2.134  0.2762  0.9458 -0.3054
   79MOL0     C10584   8.283  10.480   2.102 -0.8156 -0.2356  1.1878
   79MOL0     C10585   8.643  10.752   2.044  0.1528 -0.1125  0.4412
   79MOL0     C10586   8.766  10.782   2.106 -0.5246  0.0519 -0.3233
   79MOL0     C10587   8.821  10.911   2.108 -0.1580  0.5809 -0.5452
   79MOL0     C10588   8.749  11.014   2.053 -0.3456  0.6202 -0.6516
   79MOL0     O10589   8.794  11.142   2.063 -0.2452  0.0038 -0.0776
   79MOL0     C10590   8.928  11.173   2.117 -0.3957  0.1161 -0.6396
   79MOL0     C10591   8.934  11.329   2.105  0.4949  0.6646  1.1516
   79MOL0     C10592   8.927  11.372   1.956 -0.3397 -0.0426 -0.5044
   79MOL0     C10593   8.906  11.525   1.936 -0.6133  0.2030  0.2823
   79MOL0     C10594   9.029  11.599   1.955 -0.7585  0.5286 -0.2582
   79MOL0     C10595   9.129  11.662   1.965  0.2769  0.3945 -0.5622
   79MOL0     C10596   8.614  10.987   2.006 -0.3065 -0.4270  0.2227
   79MOL0     C10597   8.568  10.859   1.995  1.4593  0.0548  1.1666
   79MOL0     H10598   8.550  10.355   1.913  0.3232  0.8667  1.4956
   79MOL0     H10599   8.453  10.156   1.971 -0.2073  0.8173 -1.6970
   79MOL0     H10600   8.220  10.071   1.922  0.8988  1.2728  0.2616
   79MOL0     H10601   8.326   9.975   2.043 -0.3437 -0.3280  2.4985
   79MOL0     H10602   8.138   9.858   1.995  0.9550  0.3350  0.1390
   79MOL0     H10603   8.125   9.921   2.160 -0.6825 -0.3536 -0.3151
   79MOL0     H10604   7.999  10.132   2.026 -0.3832 -0.6494  1.1711
   79MOL0     H10605   7.965   9.996   1.913  0.5102  0.1512 -0.4356
   79MOL0     H10606   7.846   9.879   2.086 -1.2676  0.9912 -0.3400
   79MOL0     H10607   7.904  10.008   2.202  3.6843 -0.3376 -1.2296
   79MOL0     H10608   7.772  10.168   2.054  2.4726 -1.6320 -1.7028
   79MOL0     H10609   7.716  10.045   1.947 -0.0003  2.6411 -1.7201
   79MOL0     H10610   7.590   9.944   2.126  2.4687  0.1453 -0.4051
   79MOL0     H10611   7.623  10.064   2.247 -0.7490  1.4153 -0.1054
   79MOL0     H10612   7.552  10.235   2.070  0.4996  0.3447  2.1986
   79MOL0     H10613   7.468  10.095   1.984  0.8088 -0.9663 -0.3272
   79MOL0     H10614   7.412  10.215   2.263 -0.6845  1.7620 -1.2864
   79MOL0     H10615   7.366  10.048   2.226 -1.5406  0.0954 -2.5827
   79MOL0     H10616   7.343  10.359   1.990 -1.1495  1.3046  0.4264
   79MOL0     H10617   7.154  10.394   1.811 -1.1652  0.2216 -1.6397
   79MOL0     H10618   6.984  10.344   1.868  0.0448  1.3904 -2.9361
   79MOL0     H10619   7.071  10.609   1.863  0.8972  0.0234  1.3742
   79MOL0     H10620   7.127  10.571   2.015 -1.1762  4.7564 -1.4060
   79MOL0     H10621   6.902  10.477   2.074 -0.1865 -2.1319 -1.6753
   79MOL0     H10622   6.846  10.524   1.917  2.8736 -2.6311 -1.5853
   79MOL0     H10623   6.771  10.703   2.054 -0.1057 -0.7422  0.4248
   79MOL0     H10624   6.923  10.767   1.992  0.2844  1.2149  2.2961
   79MOL0     H10625   6.956  10.952   2.119 -2.4614 -2.3486 -1.1674
   79MOL0     H10626   6.957  11.239   2.339  1.2233 -1.0586  0.0018
   79MOL0     H10627   6.992  11.168   2.195  0.6322 -0.4089  0.5585
   79MOL0     H10628   6.829  11.246   2.214 -0.7153 -1.1431  0.0362
   79MOL0     H10629   6.496  11.121   2.665  0.8198 -2.0984  2.1254
   79MOL0     H10630   6.401  11.308   2.826  1.1257  2.4697 -1.4874
   79MOL0     H10631   6.348  11.471   3.014 -1.6125 -1.5732  0.0059
   79MOL0     H10632   6.388  11.312   3.073 -1.8743  0.6750 -0.4027
   79MOL0     H10633   6.308  11.456   3.258  0.3816  2.2957  1.3773
   79MOL0     H10634   6.472  11.407   3.282  0.6195  1.2726 -0.4245
   79MOL0     H10635   6.383  11.676   3.173  0.7735  0.6017 -0.8022
   79MOL0     H10636   6.556  11.624   3.211  0.4955 -3.3159  1.8736
   79MOL0     H10637   6.325  11.638   3.416 -0.5117  0.8453 -1.6848
   79MOL0     H10638   6.506  11.634   3.437  1.3442  2.0042  0.0403
   79MOL0     H10639   6.349  11.877   3.366  1.4414  1.9454  0.5057
   79MOL0     H10640   6.524  11.856   3.359 -0.7326 -0.2633  0.6014
   79MOL0     H10641   6.372  11.773   3.597  0.3900  0.5664  2.0535
   79MOL0     H10642   6.551  11.805   3.592 -0.5417 -1.5069  0.0282
   79MOL0     H10643   6.415  12.061   3.512  0.6522  0.7506  1.0338
   79MOL0     H10644   6.500  12.024   3.653 -1.1228  1.4750  1.7009
   79MOL0     H10645   6.196  11.988   3.607  1.5732  0.0325 -1.3976
   79MOL0     H10646   6.279  12.119   3.683 -2.4703  0.4714 -2.9568
   79MOL0     H10647   6.793  11.357   2.993 -1.1264  2.0249  0.2513
   79MOL0     H10648   6.883  11.205   2.826 -1.5253  0.0230  1.8773
   79MOL0     H10649   6.684  10.860   2.527  1.3020 -2.2507 -0.0505
   79MOL0     H10650   6.786  10.669   2.385 -3.2418  1.5634 -0.5864
   79MOL0     H10651   8.130  10.352   2.181  1.2495  3.4910  2.4294
   79MOL0     H10652   8.248  10.573   2.146 -1.5415  0.5466 -0.8957
   79MOL0     H10653   8.817  10.705   2.162 -1.7559 -1.3605 -1.0780
   79MOL0     H10654   8.915  10.913   2.161 -0.5327 -0.9655  0.2603
   79MOL0     H10655   8.937  11.134   2.219  0.9177 -2.3349 -1.6062
   79MOL0     H10656   9.015  11.136   2.062  0.4015  0.9283  0.0352
   79MOL0     H10657   9.025  11.368   2.153  0.6345 -0.5524  1.9085
   79MOL0     H10658   8.847  11.374   2.154 -3.0039 -3.2438 -0.8746
   79MOL0     H10659   8.840  11.325   1.910 -1.9528  2.1108  0.1717
   79MOL0     H10660   9.019  11.344   1.904  0.1762  0.2009  0.2591
   79MOL0     H10661   8.833  11.563   2.009  0.4488  0.7983  1.0717
   79MOL0     H10662   8.863  11.540   1.837  0.4038 -3.4888 -0.8799
   79MOL0     H10663   9.209  11.733   1.958 -0.9727  2.1807  1.6895
   79MOL0     H10664   8.550  11.067   1.971 -1.2781 -1.2773  0.0089
   79MOL0     H10665   8.469  10.840   1.954  1.8670 -1.5490  0.8533
   80MOL0     O10666   1.765   5.416   6.253 -0.3076  0.2222  0.9841
   80MOL0     C10667   1.725   5.349   6.159 -0.5875  0.3821  0.7027
   80MOL0     O10668   1.674   5.218   6.163 -0.2374 -0.0742 -0.6227
   80MOL0     C10669   1.669   5.152   6.280 -0.9424  0.0146 -0.5135
   80MOL0     C10670   1.557   5.173   6.368 -0.1688 -0.6249  0.5873
   80MOL0     C10671   1.555   5.110   6.487 -0.2942 -0.2011  0.4916
   80MOL0     C10672   1.649   5.018   6.527  0.0988  0.1715 -1.1266
   80MOL0     O10673   1.648   4.951   6.643  0.1447  0.0217  0.1507
   80MOL0     C10674   1.615   5.012   6.770 -0.3834 -0.3474  0.3217
   80MOL0     C10675   1.470   4.989   6.815  0.0836  0.1805  0.5369
   80MOL0     C10676   1.456   4.866   6.900 -0.9999 -0.2354  0.1615
   80MOL0     C10677   1.322   4.859   6.974  0.2541  0.2682 -0.2525
   80MOL0     C10678   1.311   4.734   7.064  0.4840  0.0922 -1.0267
   80MOL0     C10679   1.171   4.714   7.111  0.2409 -0.0697 -0.6035
   80MOL0     C10680   1.149   4.641   7.248  0.4909  0.8311  0.2290
   80MOL0     C10681   1.188   4.494   7.231 -0.6252  0.2914 -0.1320
   80MOL0     N10682   1.142   4.397   7.340  0.1123  0.2464  0.0040
   80MOL0     C10683   1.051   4.297   7.322  0.3154 -0.2086  0.1854
   80MOL0     C10684   1.020   4.256   7.440  0.3303  0.0010 -0.1384
   80MOL0     C10685   0.922   4.149   7.493 -0.6850  0.4600 -0.0644
   80MOL0     C10686   0.975   4.052   7.605  0.5113 -0.1500 -0.4199
   80MOL0     C10687   0.975   4.108   7.742  0.4741  0.0430  0.1726
   80MOL0     C10688   0.843   4.082   7.822 -0.5715  0.1680  0.4326
   80MOL0     O10689   0.833   3.946   7.855  0.3944  0.2788  0.3240
   80MOL0     C10690   0.754   3.934   7.972 -0.5121  0.0981 -0.4931
   80MOL0     C10691   0.640   4.003   7.991 -0.3056  0.3598 -0.3018
   80MOL0     C10692   0.569   3.992   8.112 -0.5687 -0.5698  0.2465
   80MOL0     C10693   0.452   4.088   8.128 -0.5509  0.4950 -0.2255
   80MOL0     C10694   0.614   3.902   8.218 -0.4733  0.4972  0.4260
   80MOL0     C10695   0.553   3.878   8.355  0.4157 -0.1132  0.0428
   80MOL0     O10696   0.621   3.796   8.445 -0.2578  0.4267  0.0758
   80MOL0     C10697   0.576   3.765   8.569  0.6010  0.5015 -0.0440
   80MOL0     C10698   0.473   3.825   8.644  0.2919  0.1875  0.6659
   80MOL0     C10699   0.433   3.778   8.773  0.3392  0.0621  0.5112
   80MOL0     C10700   0.494   3.674   8.839  0.0603 -0.7272 -0.1087
   80MOL0     O10701   0.472   3.642   8.971  0.5581  0.7122  0.1035
   80MOL0     C10702   0.347   3.681   9.037 -0.4412 -0.3021 -0.5211
   80MOL0     C10703   0.232   3.585   9.013  0.0020  0.3956  0.0626
   80MOL0     C10704   0.239   3.472   9.106  0.5483 -0.1359  0.3718
   80MOL0     C10705   0.113   3.391   9.091  0.9444  0.0003  0.3250
   80MOL0     C10706   0.094   3.300   9.218 -0.1141 -0.0902  0.4316
   80MOL0     C10707  -0.036   3.211   9.214 -0.3091 -0.1506  0.6043
   80MOL0     C10708  -0.098   3.194   9.350  0.5472  0.5686 -0.2824
   80MOL0     C10709  -0.001   3.108   9.436 -0.8784 -0.0188  0.3486
   80MOL0    Cl10710  -0.048   3.071   9.606 -0.6175 -0.1635 -0.0180
   80MOL0     C10711   0.596   3.606   8.765 -0.9535 -0.2756 -1.2165
   80MOL0     C10712   0.629   3.650   8.639 -0.3295  0.0996 -0.9787
   80MOL0     O10713   0.435   3.908   8.365 -0.4752 -0.1831 -0.3958
   80MOL0     C10714   0.740   3.840   8.190 -0.1736 -0.2659 -0.2482
   80MOL0     C10715   0.800   3.846   8.073  0.3384 -0.5708  0.6456
   80MOL0     N10716   1.107   4.322   7.529  0.8693  0.0958 -0.3562
   80MOL0     N10717   1.176   4.417   7.468  0.5659 -0.5301 -0.4660
   80MOL0     C10718   1.756   4.988   6.440 -0.5141 -1.1540  0.7969
   80MOL0     C10719   1.760   5.050   6.313 -0.7760  0.7687 -0.1896
   80MOL0     C10720   1.744   5.409   6.021 -1.4653 -0.2987 -0.3896
   80MOL0     C10721   1.809   5.534   6.012  0.7436  0.3409  0.2760
   80MOL0     C10722   1.820   5.607   5.895  0.6004 -0.2151  0.3469
   80MOL0     C10723   1.748   5.561   5.784 -0.6811  0.0085 -0.3063
   80MOL0     O10724   1.744   5.635   5.677 -0.4639  0.1853 -0.1611
   80MOL0     C10725   1.615   5.672   5.626 -0.7671 -0.0352  0.2490
   80MOL0     C10726   1.619   5.785   5.526 -1.2247  0.2364  0.3151
   80MOL0     C10727   1.689   5.732   5.402 -0.1506  1.1745 -0.2878
   80MOL0     C10728   1.775   5.832   5.321  0.1336  0.2254 -0.2537
   80MOL0     C10729   1.850   5.783   5.198 -0.0719  0.4473 -0.7872
   80MOL0     C10730   1.911   5.742   5.098 -0.0254 -0.3279 -0.2414
   80MOL0     C10731   1.679   5.441   5.786 -0.6106  1.3666 -0.7173
   80MOL0     C10732   1.672   5.369   5.912 -0.6204  0.1833  0.2869
   80MOL0     H10733   1.479   5.242   6.340  0.0686 -0.3813  0.5157
   80MOL0     H10734   1.480   5.139   6.560 -1.8789 -0.0830 -1.1029
   80MOL0     H10735   1.692   4.976   6.839 -0.1092 -1.6600 -0.6196
   80MOL0     H10736   1.636   5.119   6.760  0.7861 -0.4721  1.2659
   80MOL0     H10737   1.444   5.085   6.860  1.8336  0.6087  0.7210
   80MOL0     H10738   1.403   4.966   6.732 -1.4825 -1.9606  2.2576
   80MOL0     H10739   1.471   4.776   6.838 -0.0610 -0.3223  0.5017
   80MOL0     H10740   1.541   4.864   6.969 -1.0910  0.8686  0.3213
   80MOL0     H10741   1.298   4.947   7.034  1.8452 -0.9616  2.3685
   80MOL0     H10742   1.247   4.848   6.895 -1.9321 -0.5160  1.8030
   80MOL0     H10743   1.342   4.643   7.012  3.1174  1.4254 -1.9541
   80MOL0     H10744   1.373   4.744   7.154  0.7471 -4.2521 -0.5123
   80MOL0     H10745   1.126   4.814   7.108  1.1496  0.3359 -1.5257
   80MOL0     H10746   1.110   4.658   7.039 -2.1890  1.6511  0.0056
   80MOL0     H10747   1.198   4.690   7.333 -0.5696  0.7931  0.8706
   80MOL0     H10748   1.042   4.643   7.271  0.3770 -3.4851  0.8551
   80MOL0     H10749   1.294   4.483   7.208 -1.0021 -1.9404 -1.1684
   80MOL0     H10750   1.130   4.456   7.145 -0.3139  0.0591 -0.2424
   80MOL0     H10751   1.016   4.268   7.223 -1.2388  0.4063  0.5329
   80MOL0     H10752   0.844   4.218   7.525  1.8574  3.5157 -0.0116
   80MOL0     H10753   0.882   4.084   7.414 -3.0512  2.8157 -0.9317
   80MOL0     H10754   1.071   4.015   7.567 -1.0476 -1.1663 -3.7987
   80MOL0     H10755   0.910   3.964   7.598  1.5740 -1.0767  0.8928
   80MOL0     H10756   0.987   4.216   7.735  0.0258  0.0600 -0.3868
   80MOL0     H10757   1.058   4.081   7.808  0.4724 -0.0229  0.1482
   80MOL0     H10758   0.760   4.135   7.775  0.2137  1.2668  0.2318
   80MOL0     H10759   0.862   4.130   7.919  2.3969  0.5253 -0.2218
   80MOL0     H10760   0.608   4.057   7.902 -0.6050  0.6492 -0.0221
   80MOL0     H10761   0.438   4.134   8.030  2.6984  0.9480 -0.5719
   80MOL0     H10762   0.359   4.035   8.153 -0.9575  0.8893 -0.8620
   80MOL0     H10763   0.468   4.166   8.202  0.7084  1.2580 -1.2588
   80MOL0     H10764   0.423   3.914   8.607  1.1586  0.7595  0.8419
   80MOL0     H10765   0.352   3.821   8.830  1.6386 -0.2224  2.6730
   80MOL0     H10766   0.375   3.692   9.142  0.7972  3.8295 -1.0929
   80MOL0     H10767   0.328   3.786   9.012  1.4201 -0.0575 -1.0903
   80MOL0     H10768   0.136   3.635   9.026 -0.8789 -0.4727 -2.5709
   80MOL0     H10769   0.221   3.551   8.910  1.5748 -2.7251  0.7966
   80MOL0     H10770   0.274   3.487   9.209 -1.4765 -1.9421  1.4044
   80MOL0     H10771   0.325   3.418   9.066  0.6313  1.4785 -1.8157
   80MOL0     H10772   0.021   3.442   9.064  0.5912 -1.4185 -1.4012
   80MOL0     H10773   0.126   3.325   9.004  4.2142  0.0890  0.6148
   80MOL0     H10774   0.101   3.377   9.295  0.7850  2.4080 -1.9804
   80MOL0     H10775   0.174   3.229   9.236  1.0766  1.3291  0.9533
   80MOL0     H10776  -0.103   3.257   9.140  0.9907 -0.5265 -0.8602
   80MOL0     H10777  -0.004   3.117   9.169  0.7555 -0.5984  2.2339
   80MOL0     H10778  -0.190   3.135   9.357  1.9791 -1.6492  0.9383
   80MOL0     H10779  -0.118   3.296   9.384 -0.7295  0.8306 -1.7085
   80MOL0     H10780   0.103   3.142   9.446 -1.0913  0.3556  1.4246
   80MOL0     H10781   0.006   3.015   9.379 -2.2372  1.9550 -3.3555
   80MOL0     H10782   0.657   3.539   8.826 -2.4381  0.8759  1.7370
   80MOL0     H10783   0.695   3.586   8.581  0.7674 -1.0540  1.4107
   80MOL0     H10784   0.784   3.762   8.251 -0.3407 -0.4384 -0.3466
   80MOL0     H10785   0.882   3.779   8.050 -0.6856 -1.4177 -0.6446
   80MOL0     H10786   1.846   4.936   6.473 -0.5599  0.6520  4.2196
   80MOL0     H10787   1.838   5.024   6.242  0.2735 -4.6625  2.4541
   80MOL0     H10788   1.870   5.565   6.095  1.6750 -0.0525 -0.2519
   80MOL0     H10789   1.860   5.708   5.898 -1.6129  0.7099  1.1512
   80MOL0     H10790   1.569   5.583   5.584  1.7651 -1.5810  0.5181
   80MOL0     H10791   1.555   5.715   5.706 -0.1377  4.7928 -1.5022
   80MOL0     H10792   1.680   5.862   5.574  1.7936 -2.4034  1.0988
   80MOL0     H10793   1.518   5.824   5.511 -1.0789  0.8177  0.8144
   80MOL0     H10794   1.600   5.699   5.348 -1.2888  0.6989  1.7631
   80MOL0     H10795   1.753   5.645   5.421 -0.9850  0.7244  0.6021
   80MOL0     H10796   1.861   5.850   5.387 -0.8747 -1.7998  1.7725
   80MOL0     H10797   1.712   5.917   5.296  0.5171  0.3260 -0.9158
   80MOL0     H10798   1.981   5.703   5.028 -1.2965 -1.9453 -0.6637
   80MOL0     H10799   1.645   5.396   5.693 -0.2195  0.7034 -0.5379
   80MOL0     H10800   1.601   5.286   5.915  2.3237 -2.5245  1.4312
   81MOL0     O10801   0.551   7.974   3.641 -0.1646 -0.7750 -0.2897
   81MOL0     C10802   0.517   7.853   3.645  0.5452 -0.2916  0.4371
   81MOL0     O10803   0.393   7.805   3.694 -0.4543  0.5995  0.4660
   81MOL0     C10804   0.299   7.892   3.747 -0.0562  0.3569  0.5813
   81MOL0     C10805   0.162   7.889   3.719  0.3541  0.1851 -0.1944
   81MOL0     C10806   0.078   7.959   3.800 -0.9228  0.1344 -1.3939
   81MOL0     C10807   0.121   8.053   3.902 -0.6840  0.0654  0.9546
   81MOL0     O10808   0.030   8.121   3.975  0.3017 -0.7951  0.0591
   81MOL0     C10809  -0.048   8.048   4.070 -0.5928 -0.0084  0.7572
   81MOL0     C10810  -0.197   8.063   4.028  0.2365 -0.2209  0.1251
   81MOL0     C10811  -0.323   8.006   4.117 -0.4983  0.2744 -0.4351
   81MOL0     C10812  -0.317   7.849   4.125 -0.1856 -0.2318 -0.2324
   81MOL0     C10813  -0.436   7.784   4.063 -0.6475  0.2818  0.4121
   81MOL0     C10814  -0.444   7.637   4.080  0.0182 -0.1881  0.3832
   81MOL0     C10815  -0.551   7.589   3.988  0.0790 -0.2027 -0.1852
   81MOL0     C10816  -0.542   7.434   3.974  0.0102 -0.2504 -0.0112
   81MOL0     N10817  -0.662   7.373   3.920 -0.9315 -0.0839 -0.1583
   81MOL0     C10818  -0.775   7.345   3.990  0.1246  0.0138 -0.3682
   81MOL0     C10819  -0.857   7.276   3.899 -0.3596 -0.4320 -0.1209
   81MOL0     C10820  -0.987   7.210   3.935 -0.5409  0.5176 -0.0258
   81MOL0     C10821  -0.961   7.090   4.024  0.0131 -1.1648 -0.4562
   81MOL0     C10822  -1.089   7.021   4.064 -0.3602 -0.1330  0.7585
   81MOL0     C10823  -1.061   6.909   4.166 -0.2141  0.1558 -0.7401
   81MOL0     O10824  -1.042   6.955   4.303 -0.3419 -0.0553 -0.2738
   81MOL0     C10825  -1.142   6.991   4.385  0.2932  0.4344  0.1370
   81MOL0     C10826  -1.129   6.993   4.520 -0.9996  1.3938 -1.0388
   81MOL0     C10827  -1.223   7.022   4.613 -0.3435 -0.5850 -1.1660
   81MOL0     C10828  -1.180   7.005   4.761  0.5749  0.6104 -0.0731
   81MOL0     C10829  -1.351   7.049   4.568  0.5003  0.3903 -0.3821
   81MOL0     C10830  -1.474   7.064   4.657  0.3769  0.0239  0.1390
   81MOL0     O10831  -1.453   7.093   4.789 -0.3942 -0.6894 -0.5750
   81MOL0     C10832  -1.534   7.047   4.885 -0.1896  0.1259  0.0654
   81MOL0     C10833  -1.495   6.945   4.971 -0.0057 -0.5257 -0.4987
   81MOL0     C10834  -1.588   6.896   5.060 -0.0925 -0.6852 -0.0969
   81MOL0     C10835  -1.718   6.955   5.072  0.8991 -0.1320 -0.3268
   81MOL0     O10836  -1.828   6.902   5.138 -0.4540  0.3227  0.2199
   81MOL0     C10837  -1.817   6.793   5.222 -0.9830  0.1147  0.2929
   81MOL0     C10838  -1.934   6.772   5.321  0.1756 -0.4437 -0.0239
   81MOL0     C10839  -2.046   6.686   5.253  0.1249 -0.6431  0.2012
   81MOL0     C10840  -2.143   6.625   5.355  0.2274 -0.0876 -0.5551
   81MOL0     C10841  -2.249   6.534   5.298  0.7929 -0.3617 -0.7867
   81MOL0     C10842  -2.356   6.514   5.402 -0.1465  0.0589  0.7243
   81MOL0     C10843  -2.464   6.407   5.368 -0.0235 -0.1472 -0.1809
   81MOL0     C10844  -2.588   6.432   5.446  0.3251  0.5864  0.3295
   81MOL0    Cl10845  -2.726   6.426   5.332 -0.4845  0.1450  0.1050
   81MOL0     C10846  -1.754   7.065   4.997 -0.6387  0.8020  0.0840
   81MOL0     C10847  -1.661   7.112   4.899 -0.7375 -1.2616 -0.7127
   81MOL0     O10848  -1.586   7.042   4.611 -0.6655  0.0790 -0.3614
   81MOL0     C10849  -1.379   7.052   4.433 -0.5750  0.1605 -0.6653
   81MOL0     C10850  -1.283   7.009   4.345  0.3163  0.1202  0.7450
   81MOL0     N10851  -0.794   7.278   3.775 -0.3014  0.3840  0.3257
   81MOL0     N10852  -0.678   7.324   3.790 -0.9666 -0.4504  0.3401
   81MOL0     C10853   0.258   8.064   3.921  0.0057 -0.4688  0.2280
   81MOL0     C10854   0.342   7.979   3.854 -0.0646  1.5510 -0.0392
   81MOL0     C10855   0.614   7.748   3.613  0.4470 -0.0452 -0.7060
   81MOL0     C10856   0.745   7.782   3.587  0.0128  0.3767 -0.4466
   81MOL0     C10857   0.834   7.684   3.545  0.9468  0.1202  0.1974
   81MOL0     C10858   0.799   7.548   3.531  0.2945  0.4534  0.0110
   81MOL0     O10859   0.886   7.442   3.501 -0.3374 -0.4562  0.0498
   81MOL0     C10860   0.955   7.393   3.614 -0.5581  0.5379 -1.5980
   81MOL0     C10861   1.110   7.427   3.624 -0.0928  0.0178  0.2166
   81MOL0     C10862   1.132   7.572   3.586  0.4718 -0.3108  0.1656
   81MOL0     C10863   1.273   7.610   3.585 -0.5136 -0.4953  0.5073
   81MOL0     C10864   1.268   7.760   3.596  0.2304  0.7668 -0.1327
   81MOL0     C10865   1.257   7.876   3.614 -0.0949 -0.5010 -0.9792
   81MOL0     C10866   0.666   7.518   3.544 -0.5986  0.2759 -0.2111
   81MOL0     C10867   0.572   7.614   3.579  0.0804 -0.0134 -0.4784
   81MOL0     H10868   0.125   7.821   3.643  0.0494  0.8528 -0.6449
   81MOL0     H10869  -0.030   7.951   3.801 -0.9822 -0.0123  1.9942
   81MOL0     H10870  -0.022   7.942   4.073  0.3230  0.2181  1.5314
   81MOL0     H10871  -0.026   8.084   4.172 -1.8723  0.5818  0.8377
   81MOL0     H10872  -0.214   8.171   4.036 -1.0206 -0.3308 -0.6713
   81MOL0     H10873  -0.204   8.027   3.924  1.7379  0.7191 -0.3298
   81MOL0     H10874  -0.308   8.058   4.212  1.6371  1.7082 -1.4800
   81MOL0     H10875  -0.419   8.037   4.074  0.2375  1.0834 -1.5531
   81MOL0     H10876  -0.218   7.809   4.100  0.8425  1.3632  0.9977
   81MOL0     H10877  -0.322   7.827   4.232  0.6660  0.2157 -0.0890
   81MOL0     H10878  -0.519   7.839   4.109  0.0147  1.6914  0.0013
   81MOL0     H10879  -0.436   7.815   3.958  1.7605  3.0200  1.0734
   81MOL0     H10880  -0.348   7.585   4.077 -0.2605 -0.6618 -1.4748
   81MOL0     H10881  -0.472   7.619   4.185  3.9962  1.9236  2.0239
   81MOL0     H10882  -0.649   7.623   4.024 -2.0759 -2.9823 -2.8317
   81MOL0     H10883  -0.532   7.625   3.886 -1.3482  0.8692 -0.1088
   81MOL0     H10884  -0.533   7.384   4.070  1.0944  1.3144  0.7388
   81MOL0     H10885  -0.454   7.406   3.914  1.0672  0.5475  1.1222
   81MOL0     H10886  -0.801   7.361   4.094 -3.2068  1.3470 -1.2825
   81MOL0     H10887  -1.063   7.272   3.984 -0.4550 -1.2356  2.5371
   81MOL0     H10888  -1.033   7.170   3.845 -0.2523  0.4566 -0.1459
   81MOL0     H10889  -0.908   7.117   4.116 -0.5025  2.3318 -1.0653
   81MOL0     H10890  -0.894   7.022   3.970  0.5279 -0.1998 -1.0648
   81MOL0     H10891  -1.122   6.961   3.979  1.1051  1.6641 -1.1793
   81MOL0     H10892  -1.175   7.083   4.092 -1.8819 -1.5797 -0.4829
   81MOL0     H10893  -0.976   6.851   4.130 -0.9317 -0.0185 -2.2083
   81MOL0     H10894  -1.140   6.833   4.163  2.4711 -2.8187 -1.8991
   81MOL0     H10895  -1.029   6.955   4.542 -1.0057  2.0066  0.1481
   81MOL0     H10896  -1.072   6.992   4.777  1.1720  2.9913 -1.5126
   81MOL0     H10897  -1.194   7.100   4.813 -1.3028  1.8101 -2.5645
   81MOL0     H10898  -1.237   6.921   4.801 -0.2427  0.7727 -0.8789
   81MOL0     H10899  -1.398   6.900   4.955 -0.0275 -1.5539  1.9671
   81MOL0     H10900  -1.556   6.808   5.114  1.0984 -0.9800 -1.2380
   81MOL0     H10901  -1.793   6.701   5.167  0.4132  2.0145 -2.5425
   81MOL0     H10902  -1.733   6.811   5.289  0.1931  0.0080 -1.1067
   81MOL0     H10903  -1.887   6.712   5.398 -0.1167 -0.4995  0.1122
   81MOL0     H10904  -1.974   6.864   5.364 -2.1765 -0.0897 -2.6620
   81MOL0     H10905  -2.004   6.609   5.188 -2.3221 -0.8985 -1.2198
   81MOL0     H10906  -2.106   6.749   5.186 -1.9634 -2.1166  0.5778
   81MOL0     H10907  -2.086   6.570   5.430 -0.3833  2.7181  2.2036
   81MOL0     H10908  -2.201   6.694   5.416 -2.1022 -2.9587  0.7033
   81MOL0     H10909  -2.208   6.437   5.268  1.3800 -0.0171 -1.1358
   81MOL0     H10910  -2.295   6.572   5.206  3.1942  3.1869 -0.7345
   81MOL0     H10911  -2.311   6.487   5.498 -0.4693 -1.7628  0.4093
   81MOL0     H10912  -2.394   6.616   5.409  1.4800  0.9094 -1.6233
   81MOL0     H10913  -2.427   6.305   5.383  3.7957  0.9162 -1.0997
   81MOL0     H10914  -2.488   6.409   5.261 -0.1855  1.3387 -0.1438
   81MOL0     H10915  -2.586   6.535   5.484 -0.0409  0.6488  0.1798
   81MOL0     H10916  -2.589   6.362   5.530 -0.8384  0.8447  0.5486
   81MOL0     H10917  -1.841   7.129   5.011  0.4615  1.9476  2.0634
   81MOL0     H10918  -1.688   7.203   4.848 -2.4230  1.2523  4.0666
   81MOL0     H10919  -1.478   7.073   4.395 -0.5669 -0.6491 -1.1615
   81MOL0     H10920  -1.307   6.993   4.241  1.9067 -2.9068  0.7423
   81MOL0     H10921   0.282   8.128   4.005  0.8132  1.1571 -1.1976
   81MOL0     H10922   0.449   7.968   3.871  0.0413  0.2509 -1.3479
   81MOL0     H10923   0.788   7.882   3.591 -3.4708  1.9947  0.7418
   81MOL0     H10924   0.929   7.723   3.508  1.6756 -0.4138  1.4425
   81MOL0     H10925   0.917   7.438   3.706  2.2467 -0.5740  0.2619
   81MOL0     H10926   0.934   7.286   3.620  0.4005  0.4286  1.0322
   81MOL0     H10927   1.159   7.375   3.541 -4.6908 -2.4139 -1.3722
   81MOL0     H10928   1.150   7.400   3.722 -3.2545 -0.8239  1.4106
   81MOL0     H10929   1.078   7.640   3.652  0.9847 -2.3970  2.9209
   81MOL0     H10930   1.097   7.586   3.483  0.9931 -0.3460 -0.0177
   81MOL0     H10931   1.311   7.599   3.483  1.3662 -0.6012  1.1813
   81MOL0     H10932   1.339   7.553   3.650  4.5989 -0.6125 -4.0901
   81MOL0     H10933   1.258   7.983   3.627  0.9308 -0.3698 -1.9120
   81MOL0     H10934   0.638   7.415   3.528 -4.0538  1.0475  0.0080
   81MOL0     H10935   0.467   7.586   3.591 -0.0300  0.0959 -1.1819
   82MOL0     O10936   7.516   2.948   9.643  0.1742 -1.0180 -0.9492
   82MOL0     C10937   7.540   3.021   9.545 -0.2182  0.2431 -0.3072
   82MOL0     O10938   7.445   3.088   9.484 -1.0846 -0.0411  0.6758
   82MOL0     C10939   7.316   3.079   9.512  1.3269 -0.0975  0.8871
   82MOL0     C10940   7.228   3.092   9.400 -0.1229  0.0580 -0.0478
   82MOL0     C10941   7.089   3.088   9.411 -0.5414 -1.1747 -0.1498
   82MOL0     C10942   7.021   3.079   9.533 -0.1147  0.3934 -0.5615
   82MOL0     O10943   6.883   3.097   9.535  0.3710  0.2859 -0.1212
   82MOL0     C10944   6.815   3.109   9.662  0.7577 -0.2274 -0.8600
   82MOL0     C10945   6.683   3.189   9.641  0.2090 -0.3895 -0.0398
   82MOL0     C10946   6.573   3.114   9.561 -0.0616 -0.9746  0.3716
   82MOL0     C10947   6.443   3.193   9.563 -0.9747  0.3579 -0.2845
   82MOL0     C10948   6.328   3.095   9.543  0.4552 -0.4111  0.6093
   82MOL0     C10949   6.186   3.151   9.519 -1.5176  0.8343  1.2495
   82MOL0     C10950   6.196   3.257   9.419 -0.0227  0.2325 -0.5977
   82MOL0     C10951   6.054   3.308   9.366 -0.4257  0.0662 -0.0666
   82MOL0     N10952   6.077   3.393   9.246  0.2398 -0.2188  0.6815
   82MOL0     C10953   6.143   3.378   9.131 -0.8509  0.3619  0.1300
   82MOL0     C10954   6.147   3.505   9.080  0.9798  0.1215 -0.1777
   82MOL0     C10955   6.229   3.544   8.946  0.5478 -0.0253 -0.6949
   82MOL0     C10956   6.318   3.670   8.966  0.0852  0.7741 -0.2856
   82MOL0     C10957   6.444   3.634   9.044 -0.3595  0.0489 -0.0397
   82MOL0     C10958   6.533   3.758   9.057  0.5366  0.2057  0.1962
   82MOL0     O10959   6.470   3.880   9.119  0.1025 -0.2998  0.1610
   82MOL0     C10960   6.480   3.914   9.248 -0.6900 -0.8032  0.2089
   82MOL0     C10961   6.380   3.986   9.302  0.1831 -0.2263 -0.3006
   82MOL0     C10962   6.382   4.033   9.436 -0.2175  0.7463  0.9600
   82MOL0     C10963   6.258   4.092   9.487  0.8349 -0.1341  0.1908
   82MOL0     C10964   6.500   4.002   9.514 -0.1470  1.0781  0.3481
   82MOL0     C10965   6.513   4.037   9.654  0.2325  0.2498 -0.0933
   82MOL0     O10966   6.626   3.999   9.712 -0.7075 -0.1813 -0.5838
   82MOL0     C10967   6.636   3.999   9.848 -0.0533 -0.9260 -0.1361
   82MOL0     C10968   6.546   3.946   9.941  0.8756 -0.3920 -0.1507
   82MOL0     C10969   6.577   3.961  10.077  0.2316 -0.2472  0.2822
   82MOL0     C10970   6.703   4.013  10.118 -0.6251 -0.2202 -0.7050
   82MOL0     O10971   6.732   4.022  10.256  1.5660 -0.3532 -0.4638
   82MOL0     C10972   6.858   4.091  10.296  0.7284  0.6415 -0.5315
   82MOL0     C10973   6.865   4.077  10.443  0.1125 -0.6200 -0.0046
   82MOL0     C10974   7.009   4.092  10.500 -0.7292  0.5545  0.5870
   82MOL0     C10975   7.005   4.098  10.655  0.1280  0.7277  1.0280
   82MOL0     C10976   6.988   3.960  10.708  1.2411  0.7735  0.3987
   82MOL0     C10977   7.107   3.865  10.691 -0.3174  0.8369  0.0603
   82MOL0     C10978   7.103   3.741  10.779 -0.7182  0.2194  0.6792
   82MOL0     C10979   7.235   3.695  10.843 -0.1091  0.9781 -0.0831
   82MOL0    Cl10980   7.275   3.816  10.975 -0.1404  0.0942 -0.0043
   82MOL0     C10981   6.788   4.060  10.014  0.5857  0.5359  0.1326
   82MOL0     C10982   6.747   4.072   9.880  0.3293 -0.1168  0.9963
   82MOL0     O10983   6.438   4.120   9.705  0.3386 -0.1899 -0.5023
   82MOL0     C10984   6.607   3.932   9.449  0.3903 -0.3532 -0.6672
   82MOL0     C10985   6.593   3.885   9.321  0.8201 -0.4044 -0.3039
   82MOL0     N10986   6.085   3.590   9.173  0.0701 -0.1688  1.6653
   82MOL0     N10987   6.049   3.525   9.278 -0.8184 -0.7642 -0.0768
   82MOL0     C10988   7.112   3.082   9.646  0.0058  0.1493 -0.7794
   82MOL0     C10989   7.253   3.068   9.633  0.8356 -0.7698 -0.4395
   82MOL0     C10990   7.674   3.057   9.506 -0.0342 -1.1450  0.0136
   82MOL0     C10991   7.795   3.003   9.557  1.3231 -0.2649 -0.2825
   82MOL0     C10992   7.922   3.037   9.506 -0.1082  0.0783 -0.1646
   82MOL0     C10993   7.932   3.140   9.406  0.8241  0.9679 -0.2840
   82MOL0     O10994   8.058   3.172   9.355 -0.6564  0.0548 -0.4431
   82MOL0     C10995   8.080   3.158   9.220  0.3967 -0.0075  0.1919
   82MOL0     C10996   8.219   3.218   9.183  0.5551  0.8657 -0.2267
   82MOL0     C10997   8.223   3.370   9.186  0.4178  0.6894  0.3216
   82MOL0     C10998   8.369   3.411   9.170 -0.6532 -0.1975  0.6999
   82MOL0     C10999   8.378   3.555   9.196  0.1135  0.1763  0.1092
   82MOL0     C11000   8.390   3.671   9.212 -0.0085  0.0288  0.2886
   82MOL0     C11001   7.809   3.194   9.357 -0.1831 -0.1729 -0.6963
   82MOL0     C11002   7.687   3.155   9.408  0.4712  0.1573  0.6818
   82MOL0     H11003   7.289   3.118   9.314 -0.2709 -1.5225 -0.6597
   82MOL0     H11004   7.030   3.103   9.321  0.8588  0.6288 -0.8112
   82MOL0     H11005   6.794   3.007   9.696  1.3389  1.1691  4.6537
   82MOL0     H11006   6.874   3.159   9.740 -1.3634 -0.6659  1.1593
   82MOL0     H11007   6.642   3.201   9.741 -0.8163 -2.9579 -0.0853
   82MOL0     H11008   6.700   3.288   9.596 -0.7420 -0.1375  0.1426
   82MOL0     H11009   6.593   3.099   9.455  0.8889 -0.4805  0.4638
   82MOL0     H11010   6.558   3.013   9.600 -0.0424 -0.6502  1.2365
   82MOL0     H11011   6.430   3.246   9.658 -1.8168  2.1979 -1.3699
   82MOL0     H11012   6.451   3.267   9.483 -0.9415 -1.7920 -2.3783
   82MOL0     H11013   6.357   3.027   9.462  1.2046  2.3331 -1.5475
   82MOL0     H11014   6.311   3.031   9.631 -1.8591  0.9587  1.2453
   82MOL0     H11015   6.117   3.071   9.489  0.1491 -0.2565  0.1859
   82MOL0     H11016   6.146   3.188   9.613 -1.9574  1.9685  0.6413
   82MOL0     H11017   6.245   3.345   9.460 -0.6016  1.2624 -2.0271
   82MOL0     H11018   6.261   3.231   9.335  0.3230  0.6988 -0.4729
   82MOL0     H11019   6.022   3.370   9.450  0.4174 -0.8640  0.9696
   82MOL0     H11020   5.972   3.238   9.348 -1.4381  1.0250  0.6539
   82MOL0     H11021   6.187   3.287   9.090  0.6906  0.6721  1.0041
   82MOL0     H11022   6.290   3.459   8.912  0.5349 -0.5762  0.5932
   82MOL0     H11023   6.161   3.567   8.864  1.2790 -1.4932 -1.7648
   82MOL0     H11024   6.257   3.744   9.019 -1.0901  0.6675 -1.4450
   82MOL0     H11025   6.339   3.708   8.865  0.2617 -1.3887 -1.1108
   82MOL0     H11026   6.503   3.550   9.006  1.4976 -0.0118  2.7325
   82MOL0     H11027   6.411   3.600   9.142 -1.0313 -2.2409 -0.9801
   82MOL0     H11028   6.544   3.789   8.952 -3.6055 -0.8285 -0.7387
   82MOL0     H11029   6.620   3.723   9.113 -1.1226 -3.8120  0.5792
   82MOL0     H11030   6.288   4.008   9.249 -1.9267 -1.0775  2.7443
   82MOL0     H11031   6.183   4.080   9.408  0.9099 -3.2620  0.4829
   82MOL0     H11032   6.225   4.055   9.584  3.0941 -1.4729  0.5094
   82MOL0     H11033   6.269   4.201   9.488 -1.2336  0.1255  1.3587
   82MOL0     H11034   6.449   3.908   9.913  1.2587 -3.0127  1.7034
   82MOL0     H11035   6.511   3.925  10.155  1.8010 -1.8558  0.9481
   82MOL0     H11036   6.948   4.042  10.256  0.5993  1.4288 -1.8335
   82MOL0     H11037   6.854   4.194  10.260  0.6284 -0.3335 -3.5997
   82MOL0     H11038   6.809   4.159  10.487  0.4481 -1.0879  1.3531
   82MOL0     H11039   6.822   3.981  10.474 -0.9282  0.7281  3.2107
   82MOL0     H11040   7.062   4.180  10.461 -2.4190  1.7394  0.8405
   82MOL0     H11041   7.067   4.008  10.460 -0.0498  2.1250 -2.0080
   82MOL0     H11042   7.099   4.142  10.689  0.6254 -0.5548  1.3550
   82MOL0     H11043   6.925   4.163  10.692 -1.7581 -1.2239  0.5838
   82MOL0     H11044   6.896   3.909  10.679  2.5767 -1.8679  0.5392
   82MOL0     H11045   6.972   3.979  10.815  0.6776  0.4154  0.3861
   82MOL0     H11046   7.119   3.827  10.590 -3.0092 -0.8392  0.2631
   82MOL0     H11047   7.195   3.921  10.722 -0.1776  1.6412 -1.6781
   82MOL0     H11048   7.072   3.664  10.709 -0.1673  0.8288 -0.2559
   82MOL0     H11049   7.033   3.753  10.863  1.2109  0.4415  2.3495
   82MOL0     H11050   7.318   3.695  10.772 -1.3499 -1.4140 -1.6703
   82MOL0     H11051   7.216   3.596  10.886 -2.6818  1.1440 -0.6703
   82MOL0     H11052   6.881   4.107  10.044 -0.0712  2.1314 -0.2223
   82MOL0     H11053   6.789   4.134   9.801 -1.2044  0.7349  0.8060
   82MOL0     H11054   6.707   3.914   9.488  0.0694 -2.8332 -0.8470
   82MOL0     H11055   6.677   3.833   9.276  0.2185  0.0372 -2.0013
   82MOL0     H11056   7.083   3.084   9.750  0.3171 -0.8178 -0.6559
   82MOL0     H11057   7.318   3.065   9.720  0.9789  1.7441 -0.3866
   82MOL0     H11058   7.779   2.947   9.648 -0.0072  1.0932  0.3519
   82MOL0     H11059   8.013   2.985   9.534 -0.4687 -0.0847  0.7444
   82MOL0     H11060   8.063   3.056   9.184 -5.2683  0.7688 -0.1843
   82MOL0     H11061   8.011   3.220   9.162 -1.0588 -0.9830  0.8499
   82MOL0     H11062   8.241   3.176   9.085 -3.3366 -0.0454 -0.9001
   82MOL0     H11063   8.277   3.163   9.257 -2.2678 -3.4383 -0.8630
   82MOL0     H11064   8.182   3.398   9.283  2.6726 -1.9509  2.1988
   82MOL0     H11065   8.168   3.412   9.101 -0.6626 -0.9348  0.1844
   82MOL0     H11066   8.403   3.383   9.070  1.5873 -1.6054  1.7799
   82MOL0     H11067   8.431   3.350   9.236  0.0289 -1.0577 -0.6766
   82MOL0     H11068   8.405   3.777   9.215 -1.0508  0.1510  1.6721
   82MOL0     H11069   7.823   3.272   9.283  0.6086  0.4472  0.0793
   82MOL0     H11070   7.608   3.206   9.355  0.1534 -0.0731  0.9276
   83MOL0     O11071   6.143   4.744   0.607 -0.2884  0.3683 -1.0273
   83MOL0     C11072   6.183   4.855   0.584  1.0311 -1.0690  0.1664
   83MOL0     O11073   6.306   4.896   0.563 -0.2686 -0.4146  0.6565
   83MOL0     C11074   6.403   4.805   0.571 -0.4668  0.0929  0.4089
   83MOL0     C11075   6.500   4.820   0.668  0.0552 -1.3963 -0.1604
   83MOL0     C11076   6.616   4.740   0.655  0.1050 -0.3171  0.0121
   83MOL0     C11077   6.628   4.633   0.554  0.0281  0.6378 -0.1404
   83MOL0     O11078   6.734   4.544   0.545 -0.3537  0.0886  0.7749
   83MOL0     C11079   6.861   4.574   0.596 -0.2580 -0.3981  0.2752
   83MOL0     C11080   6.960   4.468   0.556 -0.2941 -0.5888  0.1238
   83MOL0     C11081   7.096   4.518   0.614  0.2308  0.1296  1.0381
   83MOL0     C11082   7.141   4.669   0.584  0.2908 -0.1058 -0.0373
   83MOL0     C11083   7.278   4.703   0.636  0.9161 -0.2200 -0.0511
   83MOL0     C11084   7.387   4.625   0.576  0.1817 -0.1012  0.3760
   83MOL0     C11085   7.519   4.653   0.644  0.0358 -0.9535 -0.0064
   83MOL0     C11086   7.582   4.797   0.626  0.2686  0.5035 -0.6459
   83MOL0     N11087   7.725   4.786   0.600 -0.2667 -0.0659  0.7110
   83MOL0     C11088   7.778   4.733   0.483  0.8449  0.5936 -0.0835
   83MOL0     C11089   7.907   4.709   0.505  0.3071  0.0717  0.5013
   83MOL0     C11090   8.000   4.633   0.405  1.6242  0.4445 -0.2408
   83MOL0     C11091   7.990   4.485   0.395  1.1318  0.1831 -0.2364
   83MOL0     C11092   7.976   4.404   0.523 -0.2746 -0.4555 -0.2094
   83MOL0     C11093   7.854   4.396   0.600  1.0989  0.0604  0.0081
   83MOL0     O11094   7.746   4.336   0.520 -0.5545 -0.4159 -0.4700
   83MOL0     C11095   7.630   4.308   0.587  0.5749  1.2051  1.0706
   83MOL0     C11096   7.615   4.319   0.724  0.9807  0.2983 -0.0250
   83MOL0     C11097   7.488   4.284   0.776 -0.9075  0.4195  0.0281
   83MOL0     C11098   7.467   4.308   0.921  0.7458 -0.2646  0.2381
   83MOL0     C11099   7.386   4.226   0.691  0.1259 -0.4173  0.4291
   83MOL0     C11100   7.250   4.176   0.741  0.5663  0.1436  0.2525
   83MOL0     O11101   7.157   4.135   0.656  0.1495 -0.0518  0.3082
   83MOL0     C11102   7.035   4.088   0.693  0.0257 -0.1989 -0.1702
   83MOL0     C11103   6.964   4.041   0.577 -0.0592 -0.6961  0.0697
   83MOL0     C11104   6.846   3.971   0.585 -0.3927 -0.2090 -0.1744
   83MOL0     C11105   6.778   3.971   0.709 -1.2999 -0.1773 -0.2466
   83MOL0     O11106   6.653   3.914   0.705  0.1196  0.1266 -0.1100
   83MOL0     C11107   6.590   3.863   0.825 -0.5141 -0.6332 -0.8401
   83MOL0     C11108   6.500   3.747   0.806  0.8578 -0.6248  0.3939
   83MOL0     C11109   6.591   3.633   0.755 -0.7289  0.7196  0.1113
   83MOL0     C11110   6.509   3.500   0.723 -0.7853 -0.4161  0.3402
   83MOL0     C11111   6.596   3.371   0.683  0.3067 -0.5287  0.3989
   83MOL0     C11112   6.507   3.250   0.649  0.4228 -1.0298 -1.2574
   83MOL0     C11113   6.594   3.123   0.605 -1.1983  0.7279 -0.0648
   83MOL0     C11114   6.504   3.016   0.571  0.0532 -0.1949  0.3027
   83MOL0    Cl11115   6.582   2.878   0.482 -0.1286  0.2317  0.1684
   83MOL0     C11116   6.835   4.029   0.824 -0.2907  0.5466  0.1415
   83MOL0     C11117   6.963   4.090   0.816  1.2050  0.8465 -0.9883
   83MOL0     O11118   7.239   4.164   0.860 -0.2557 -0.0891 -0.7097
   83MOL0     C11119   7.413   4.217   0.557  0.0167 -0.7571 -0.0776
   83MOL0     C11120   7.535   4.249   0.502  0.4748 -0.5018 -0.5297
   83MOL0     N11121   7.933   4.745   0.634 -0.1399  0.2064 -0.2098
   83MOL0     N11122   7.822   4.788   0.689  0.1566  0.4141  0.2396
   83MOL0     C11123   6.531   4.625   0.461  0.3316 -0.1878  0.3525
   83MOL0     C11124   6.415   4.697   0.474 -0.1729  0.0246 -0.6420
   83MOL0     C11125   6.087   4.966   0.591  0.4711 -0.2277 -0.2414
   83MOL0     C11126   5.950   4.949   0.581 -0.1413 -0.0077  0.3099
   83MOL0     C11127   5.855   5.053   0.586  0.2453 -0.2767  0.4822
   83MOL0     C11128   5.901   5.180   0.602  0.0922  0.0540  0.2959
   83MOL0     O11129   5.797   5.272   0.590 -0.6729 -0.0453  0.2891
   83MOL0     C11130   5.823   5.413   0.581  0.0274  0.4727 -0.2169
   83MOL0     C11131   5.677   5.453   0.569 -0.1469  0.2337 -0.0391
   83MOL0     C11132   5.658   5.601   0.598  0.0484  0.4474  0.0547
   83MOL0     C11133   5.749   5.688   0.507 -0.6543 -0.5071  0.7047
   83MOL0     C11134   5.733   5.832   0.551  1.0987 -1.0836 -0.5347
   83MOL0     C11135   5.724   5.949   0.580 -0.6861  0.3776  1.0867
   83MOL0     C11136   6.036   5.204   0.616 -0.0126 -0.6669 -0.0389
   83MOL0     C11137   6.133   5.100   0.616  0.5903 -0.1307  0.6811
   83MOL0     H11138   6.489   4.906   0.734  1.7915 -2.9585  2.3337
   83MOL0     H11139   6.695   4.761   0.727 -1.6313  2.6044  1.2471
   83MOL0     H11140   6.894   4.676   0.574  1.1264 -1.3846 -2.8418
   83MOL0     H11141   6.845   4.568   0.704 -3.0204  2.1492  0.1554
   83MOL0     H11142   6.936   4.365   0.580 -0.7131 -0.2310  1.2967
   83MOL0     H11143   6.959   4.478   0.447 -2.5505 -0.9356  0.0762
   83MOL0     H11144   7.108   4.484   0.717  1.7711 -1.2981  0.4367
   83MOL0     H11145   7.169   4.456   0.561 -1.8258  0.0288 -1.9070
   83MOL0     H11146   7.138   4.697   0.478 -0.5537 -1.3794 -0.3805
   83MOL0     H11147   7.071   4.732   0.639 -0.2654 -0.9346  0.2342
   83MOL0     H11148   7.296   4.805   0.601 -0.9039 -0.0560 -0.6314
   83MOL0     H11149   7.270   4.677   0.742  1.4499 -3.1264 -0.6606
   83MOL0     H11150   7.367   4.518   0.584  0.0709 -0.2226 -1.2305
   83MOL0     H11151   7.393   4.653   0.470  0.1184  1.1620  0.6931
   83MOL0     H11152   7.497   4.623   0.746 -0.9394  0.3862  0.1947
   83MOL0     H11153   7.593   4.583   0.604  2.2551 -0.4014  2.8328
   83MOL0     H11154   7.565   4.849   0.721  1.9208  1.3397 -0.7741
   83MOL0     H11155   7.532   4.840   0.538 -2.5369  0.2273  0.7063
   83MOL0     H11156   7.720   4.689   0.403  0.9973  0.2830 -0.0228
   83MOL0     H11157   7.976   4.676   0.307 -1.2875 -0.4521 -0.0068
   83MOL0     H11158   8.101   4.642   0.447  3.0544 -5.9254 -1.2888
   83MOL0     H11159   8.082   4.452   0.346  2.3136  1.0459  1.2977
   83MOL0     H11160   7.900   4.457   0.340 -2.0887  1.2626  3.9314
   83MOL0     H11161   8.065   4.421   0.584 -1.0084  0.2752  0.6910
   83MOL0     H11162   8.002   4.300   0.501 -1.4850 -0.8539  0.1949
   83MOL0     H11163   7.817   4.494   0.633  1.4613 -0.5932  2.5333
   83MOL0     H11164   7.875   4.343   0.693  0.6654 -1.5915 -0.8092
   83MOL0     H11165   7.677   4.372   0.795  1.7470 -0.9573  0.2800
   83MOL0     H11166   7.452   4.209   0.967  3.8300 -0.7931  0.2903
   83MOL0     H11167   7.545   4.357   0.980 -2.2053  3.4381  1.4529
   83MOL0     H11168   7.371   4.360   0.930 -0.7764 -2.6555 -1.0135
   83MOL0     H11169   7.002   4.054   0.476 -3.4851 -0.0119 -1.2720
   83MOL0     H11170   6.808   3.934   0.491 -2.9006 -1.7159  1.3297
   83MOL0     H11171   6.660   3.828   0.901 -2.3071  1.8316  2.1826
   83MOL0     H11172   6.535   3.938   0.883 -1.8065 -1.2456 -1.2181
   83MOL0     H11173   6.449   3.712   0.896  0.0403 -0.8998 -0.1609
   83MOL0     H11174   6.426   3.771   0.729 -0.1083 -6.0229 -0.7665
   83MOL0     H11175   6.661   3.603   0.833 -2.7820 -1.3572  1.2782
   83MOL0     H11176   6.655   3.660   0.670  1.2378  1.9186  1.8685
   83MOL0     H11177   6.461   3.464   0.815  3.3635 -1.0767  2.5138
   83MOL0     H11178   6.446   3.522   0.637  1.2257 -1.4714 -1.5065
   83MOL0     H11179   6.677   3.355   0.754  0.4160  0.9184  0.6344
   83MOL0     H11180   6.648   3.408   0.594 -0.8397 -1.4445 -0.6899
   83MOL0     H11181   6.442   3.231   0.734  3.8782  0.8280  2.0960
   83MOL0     H11182   6.439   3.274   0.566 -2.0774  0.1705  0.9746
   83MOL0     H11183   6.658   3.087   0.685 -4.7554 -3.8557  1.1953
   83MOL0     H11184   6.651   3.146   0.515 -0.7141 -2.3865 -0.6786
   83MOL0     H11185   6.422   3.059   0.512 -0.4342  3.4644  3.2536
   83MOL0     H11186   6.455   2.982   0.662 -1.8580  2.1005  0.2295
   83MOL0     H11187   6.785   4.030   0.920  3.1049 -0.1063  2.0631
   83MOL0     H11188   7.000   4.121   0.914 -0.8260 -2.2141  0.9387
   83MOL0     H11189   7.333   4.185   0.491  0.0813 -1.3918  0.1444
   83MOL0     H11190   7.547   4.248   0.394  1.7922  1.2887 -0.4523
   83MOL0     H11191   6.546   4.551   0.384 -2.5759 -0.4373 -0.0710
   83MOL0     H11192   6.345   4.678   0.394 -2.8155 -2.9513  2.0602
   83MOL0     H11193   5.912   4.847   0.575 -3.0014  0.6826  3.3141
   83MOL0     H11194   5.747   5.042   0.577 -0.0194  1.6963  0.9259
   83MOL0     H11195   5.869   5.443   0.676  0.7170 -2.9542  0.6679
   83MOL0     H11196   5.879   5.447   0.493 -1.5786  1.5893 -0.8665
   83MOL0     H11197   5.612   5.397   0.636 -4.1483  0.1716 -3.5536
   83MOL0     H11198   5.643   5.424   0.469  2.2532 -3.3972  0.0252
   83MOL0     H11199   5.695   5.624   0.698  3.4993 -0.9110 -0.7575
   83MOL0     H11200   5.551   5.624   0.590  0.0605 -0.0283 -2.2818
   83MOL0     H11201   5.722   5.681   0.401 -3.4858 -3.4490  1.4615
   83MOL0     H11202   5.857   5.671   0.509 -0.7878 -1.3407  1.0783
   83MOL0     H11203   5.719   6.047   0.623 -3.0406  1.0120 -0.4163
   83MOL0     H11204   6.062   5.309   0.620 -1.0389 -0.3297 -1.4539
   83MOL0     H11205   6.238   5.115   0.635  1.0065 -2.4167  0.4461
   84MOL0     O11206   7.722   3.373   6.644  0.4359  0.2191  0.3987
   84MOL0     C11207   7.768   3.323   6.545  1.0432  0.0632  0.2837
   84MOL0     O11208   7.711   3.334   6.418 -0.1412  0.3843 -0.7861
   84MOL0     C11209   7.615   3.427   6.382  0.4421 -0.4310  0.4719
   84MOL0     C11210   7.644   3.564   6.402 -0.6033  0.4891  0.3428
   84MOL0     C11211   7.562   3.661   6.351  0.3643  0.4956  0.0256
   84MOL0     C11212   7.448   3.635   6.284 -0.2546 -0.2748  0.1650
   84MOL0     O11213   7.362   3.742   6.250  0.5684  0.3340 -0.9052
   84MOL0     C11214   7.220   3.713   6.245 -0.9444 -0.3059  0.0945
   84MOL0     C11215   7.155   3.847   6.280 -0.1487 -0.4221 -0.1175
   84MOL0     C11216   7.011   3.841   6.300  0.6439 -0.9308 -0.4671
   84MOL0     C11217   6.946   3.971   6.360  0.0773 -0.2614 -0.5146
   84MOL0     C11218   6.800   3.984   6.359  0.9037 -0.2413  0.1352
   84MOL0     C11219   6.723   3.872   6.433 -0.5479 -0.6576 -0.1554
   84MOL0     C11220   6.577   3.901   6.452 -0.1370  0.2525  0.6254
   84MOL0     C11221   6.516   3.793   6.541  0.6270  0.8623 -0.4627
   84MOL0     N11222   6.529   3.655   6.484  0.5337  0.0623 -0.4617
   84MOL0     C11223   6.473   3.608   6.369 -0.1797 -0.0362 -0.5239
   84MOL0     C11224   6.540   3.488   6.361 -0.0967  0.7266 -0.4943
   84MOL0     C11225   6.539   3.386   6.247  0.3201 -0.6017 -0.7291
   84MOL0     C11226   6.413   3.291   6.249  0.5587 -0.1523  0.7763
   84MOL0     C11227   6.407   3.214   6.122 -0.2431  0.3887 -0.3892
   84MOL0     C11228   6.284   3.116   6.118  0.6302 -0.8801 -0.4519
   84MOL0     O11229   6.298   3.034   6.002 -0.5650 -0.2385 -0.3036
   84MOL0     C11230   6.188   2.961   5.955  1.3928  0.2060 -0.2803
   84MOL0     C11231   6.200   2.890   5.834  0.2825  0.5809  0.2574
   84MOL0     C11232   6.105   2.802   5.781 -0.5878  0.3423 -0.5532
   84MOL0     C11233   6.153   2.725   5.662 -0.0867 -0.2209 -0.2640
   84MOL0     C11234   5.983   2.780   5.853  0.3767 -0.1588 -0.5960
   84MOL0     C11235   5.870   2.706   5.796  0.7196 -0.1391  0.7646
   84MOL0     O11236   5.772   2.657   5.881 -0.4775 -0.0690  0.2964
   84MOL0     C11237   5.653   2.600   5.842 -0.3919 -0.3637 -0.5002
   84MOL0     C11238   5.606   2.499   5.920 -0.2010  0.5065 -0.9547
   84MOL0     C11239   5.486   2.441   5.900 -0.3431 -0.0194  0.0614
   84MOL0     C11240   5.414   2.478   5.785  0.0726  0.4901  0.7191
   84MOL0     O11241   5.286   2.435   5.756  0.4070  0.4788 -0.1207
   84MOL0     C11242   5.217   2.375   5.863  0.2861 -0.1512 -0.2215
   84MOL0     C11243   5.070   2.327   5.834 -0.2547 -0.6542  0.2128
   84MOL0     C11244   4.972   2.438   5.777 -0.2441 -0.1071 -0.0108
   84MOL0     C11245   4.837   2.461   5.858  0.8838  0.1141  0.2429
   84MOL0     C11246   4.738   2.569   5.795 -0.3222  0.6047  0.1728
   84MOL0     C11247   4.638   2.629   5.906  0.0337 -1.0565  0.3278
   84MOL0     C11248   4.550   2.749   5.851 -0.9016 -0.3357  0.1899
   84MOL0     C11249   4.438   2.681   5.766 -0.7648  0.1207 -0.1794
   84MOL0    Cl11250   4.338   2.808   5.678  0.4820 -0.2233 -0.2229
   84MOL0     C11251   5.458   2.578   5.701 -0.1041 -0.3806  0.4403
   84MOL0     C11252   5.588   2.644   5.731  0.3412  0.1029  0.8527
   84MOL0     O11253   5.863   2.684   5.670 -0.6832 -0.1584 -0.4434
   84MOL0     C11254   5.976   2.846   5.979 -0.3050  0.5352 -0.2150
   84MOL0     C11255   6.070   2.936   6.029 -0.1429 -0.3072 -0.4221
   84MOL0     N11256   6.619   3.448   6.466  0.8732 -0.0958  0.1819
   84MOL0     N11257   6.616   3.564   6.529 -0.7741 -0.5183 -0.2597
   84MOL0     C11258   7.420   3.501   6.255  0.3262 -0.1954  0.2205
   84MOL0     C11259   7.504   3.396   6.290 -0.8507 -0.5869 -1.2205
   84MOL0     C11260   7.873   3.228   6.561  0.3072  0.1315 -0.4563
   84MOL0     C11261   7.923   3.213   6.692 -0.1401 -0.3806 -0.2030
   84MOL0     C11262   8.029   3.120   6.711  0.3072  0.2824 -0.0135
   84MOL0     C11263   8.073   3.031   6.610 -0.5689 -0.1499  0.5534
   84MOL0     O11264   8.158   2.932   6.631  0.6778  0.3907  0.2649
   84MOL0     C11265   8.290   2.969   6.692  0.2056  0.7849  0.9675
   84MOL0     C11266   8.282   2.938   6.840  0.2244 -0.1180  0.1563
   84MOL0     C11267   8.257   2.796   6.875  0.0258 -0.0982  0.2637
   84MOL0     C11268   8.244   2.753   7.018  0.7492 -0.5685  1.1189
   84MOL0     C11269   8.178   2.628   7.029 -0.7999  0.2813  0.4907
   84MOL0     C11270   8.115   2.524   7.017  0.0759 -0.0578  0.0898
   84MOL0     C11271   8.013   3.046   6.485  0.7323 -0.1564 -1.0140
   84MOL0     C11272   7.916   3.142   6.461 -0.3779 -0.2494  0.0994
   84MOL0     H11273   7.727   3.586   6.469 -1.4413 -0.6072  1.7873
   84MOL0     H11274   7.578   3.765   6.378  1.9663  0.0909  0.7940
   84MOL0     H11275   7.188   3.692   6.143 -3.6449 -0.8438  0.9397
   84MOL0     H11276   7.190   3.632   6.313 -2.2001  0.1651  0.1268
   84MOL0     H11277   7.193   3.890   6.373  0.5343 -2.3850  0.5572
   84MOL0     H11278   7.185   3.920   6.203 -2.9938  4.0150  2.5196
   84MOL0     H11279   6.952   3.825   6.209 -0.4214  1.9275 -0.3903
   84MOL0     H11280   6.998   3.753   6.364 -0.4678  0.6648  1.6477
   84MOL0     H11281   6.994   3.973   6.458  1.1296 -1.9101 -0.9344
   84MOL0     H11282   6.981   4.057   6.302  2.1845 -0.4475  0.3925
   84MOL0     H11283   6.776   4.081   6.404 -0.9601 -1.4632  1.9659
   84MOL0     H11284   6.754   3.986   6.260 -0.5475  3.6194  0.7454
   84MOL0     H11285   6.734   3.774   6.385 -0.1161 -0.2385 -0.9345
   84MOL0     H11286   6.766   3.870   6.534  0.9626 -2.8459 -0.7552
   84MOL0     H11287   6.577   4.001   6.497  1.9002  1.2587 -1.4336
   84MOL0     H11288   6.515   3.900   6.362 -2.0414  0.4048  1.8535
   84MOL0     H11289   6.413   3.806   6.575  0.1905 -0.9860 -0.9434
   84MOL0     H11290   6.560   3.798   6.641 -0.5251  4.1452 -0.0054
   84MOL0     H11291   6.397   3.649   6.304  0.0203 -0.8267 -1.2783
   84MOL0     H11292   6.550   3.444   6.155  3.2622 -0.5372 -0.4245
   84MOL0     H11293   6.623   3.317   6.234  2.8205  2.5094 -2.7193
   84MOL0     H11294   6.322   3.349   6.264 -1.1294 -1.6089 -2.7660
   84MOL0     H11295   6.417   3.220   6.333  0.7063  2.3717  3.0332
   84MOL0     H11296   6.500   3.158   6.115 -0.2476  0.4689 -1.1374
   84MOL0     H11297   6.411   3.283   6.037  2.0644 -0.2455 -0.8591
   84MOL0     H11298   6.188   3.169   6.110  0.1474 -1.2716  1.9848
   84MOL0     H11299   6.271   3.050   6.205 -1.1658  1.5532  1.2865
   84MOL0     H11300   6.300   2.894   5.793  0.2184 -0.1942  0.0003
   84MOL0     H11301   6.261   2.708   5.672 -0.2860 -3.1173 -2.1556
   84MOL0     H11302   6.115   2.623   5.653  2.1381 -1.1080 -0.4086
   84MOL0     H11303   6.142   2.789   5.574  2.2807 -1.0087 -1.2017
   84MOL0     H11304   5.660   2.483   6.013 -1.4915 -0.1719 -0.3022
   84MOL0     H11305   5.447   2.357   5.958 -1.6158 -0.1593 -0.9517
   84MOL0     H11306   5.265   2.282   5.893 -0.8209 -0.5002  0.5001
   84MOL0     H11307   5.209   2.446   5.946  1.8425  0.3727 -0.4812
   84MOL0     H11308   5.075   2.246   5.760  0.7141  0.5518 -1.0833
   84MOL0     H11309   5.030   2.287   5.928  0.8232  1.6323  1.7272
   84MOL0     H11310   4.954   2.411   5.673 -0.2750 -0.6595  0.1342
   84MOL0     H11311   5.028   2.531   5.781 -1.4469  0.6625 -0.4487
   84MOL0     H11312   4.785   2.365   5.859  1.5122 -0.2312  0.1720
   84MOL0     H11313   4.861   2.477   5.964  0.1017 -1.4682  0.6853
   84MOL0     H11314   4.672   2.533   5.715 -0.3441  0.3678  0.2957
   84MOL0     H11315   4.805   2.651   5.770 -0.4872  1.3294  2.0139
   84MOL0     H11316   4.568   2.549   5.932 -0.4607 -0.6029  0.4205
   84MOL0     H11317   4.692   2.667   5.993  0.6642  3.7674 -1.8551
   84MOL0     H11318   4.610   2.823   5.797  1.0393 -0.8760  1.5181
   84MOL0     H11319   4.501   2.798   5.936 -1.6863 -0.8959  0.0709
   84MOL0     H11320   4.372   2.619   5.827 -3.7657 -0.1817 -3.4363
   84MOL0     H11321   4.475   2.629   5.677  2.9859  0.6982  0.8601
   84MOL0     H11322   5.405   2.598   5.608 -0.9713  2.4985  1.4525
   84MOL0     H11323   5.623   2.716   5.658  2.8271  0.5329  2.3667
   84MOL0     H11324   5.891   2.835   6.047 -0.5268 -1.1409 -0.7288
   84MOL0     H11325   6.059   2.983   6.127  0.3902 -0.4377 -0.2973
   84MOL0     H11326   7.324   3.480   6.209  0.0156  0.2720  0.6479
   84MOL0     H11327   7.477   3.292   6.273 -0.0213 -0.9419 -0.4301
   84MOL0     H11328   7.886   3.277   6.771 -1.0934 -1.0121 -0.1163
   84MOL0     H11329   8.069   3.120   6.812 -0.6331  2.2913  0.3978
   84MOL0     H11330   8.371   2.918   6.639 -0.3964  2.5807 -1.8412
   84MOL0     H11331   8.306   3.077   6.680  1.6312  0.5464  0.4890
   84MOL0     H11332   8.211   3.000   6.897  1.6860  1.4573  0.3346
   84MOL0     H11333   8.374   2.969   6.889  0.8792 -2.8092  0.7931
   84MOL0     H11334   8.339   2.746   6.823  0.4710  0.0661  0.7999
   84MOL0     H11335   8.158   2.770   6.835 -0.5630  3.2453 -0.7886
   84MOL0     H11336   8.205   2.831   7.084  0.7099  0.5927 -0.2126
   84MOL0     H11337   8.347   2.734   7.050  0.7017  1.5937  2.7865
   84MOL0     H11338   8.059   2.433   7.019  1.6673 -1.0526  1.1893
   84MOL0     H11339   8.042   2.977   6.406  2.1651 -2.5551  1.4114
   84MOL0     H11340   7.870   3.148   6.363 -0.5852 -0.2975  0.1935
   85MOL0     O11341   9.333  10.859   4.027  0.0662 -0.5558  0.3287
   85MOL0     C11342   9.351  10.923   3.925 -0.1976  1.3977  1.0701
   85MOL0     O11343   9.476  10.948   3.863 -0.2881  0.2786 -0.0635
   85MOL0     C11344   9.589  10.935   3.946 -0.1217 -0.0294 -0.9214
   85MOL0     C11345   9.691  10.861   3.897 -0.5331  0.1529 -0.5889
   85MOL0     C11346   9.816  10.873   3.964 -0.1275  0.5697 -0.2178
   85MOL0     C11347   9.832  10.958   4.071 -0.5489  0.4578 -0.2152
   85MOL0     O11348   9.954  10.981   4.128  0.6901 -0.3356  0.5110
   85MOL0     C11349  10.067  11.022   4.042  0.0280 -0.4791  0.4556
   85MOL0     C11350  10.181  11.089   4.124 -0.4678 -0.8227  0.3951
   85MOL0     C11351  10.318  11.086   4.046  0.5932  0.1815  1.1053
   85MOL0     C11352  10.442  11.094   4.140  1.0516  0.2332  0.0996
   85MOL0     C11353  10.575  11.111   4.054  0.6038 -0.4882 -0.0491
   85MOL0     C11354  10.693  11.086   4.143 -0.0024  0.1358 -0.4777
   85MOL0     C11355  10.817  11.142   4.069  0.9112  0.6845  0.9139
   85MOL0     C11356  10.948  11.124   4.152  0.3397 -0.2587  0.5656
   85MOL0     N11357  11.036  11.239   4.141  0.2157  0.2344 -0.3347
   85MOL0     C11358  11.126  11.248   4.043 -0.0740 -0.0993 -1.1244
   85MOL0     C11359  11.197  11.362   4.072  0.1090  0.1466  0.0891
   85MOL0     C11360  11.293  11.422   3.972  1.0399 -0.3952  0.1444
   85MOL0     C11361  11.440  11.431   4.017 -0.0703  0.6916  0.4972
   85MOL0     C11362  11.520  11.476   3.894  0.4781  0.2949 -0.1984
   85MOL0     C11363  11.569  11.362   3.799  0.1110  0.4614 -0.4442
   85MOL0     O11364  11.644  11.260   3.869 -0.0114 -0.4171  0.3595
   85MOL0     C11365  11.766  11.305   3.919  0.2586 -0.1405 -0.2878
   85MOL0     C11366  11.806  11.261   4.045  0.2598  0.0375  0.4261
   85MOL0     C11367  11.933  11.291   4.097 -0.3315  1.2878  0.9160
   85MOL0     C11368  11.957  11.217   4.227 -0.0346 -0.3432  0.7934
   85MOL0     C11369  12.025  11.360   4.023  0.6201  0.0555  0.7024
   85MOL0     C11370  12.173  11.368   4.057  0.5597 -0.6949 -0.7861
   85MOL0     O11371  12.275  11.401   3.970 -0.2175  0.3801  1.0015
   85MOL0     C11372  12.385  11.478   3.999  1.1161 -0.0220  0.2401
   85MOL0     C11373  12.503  11.450   3.929 -0.0660  0.3828 -0.7088
   85MOL0     C11374  12.613  11.540   3.932  0.0089  0.1253 -1.0763
   85MOL0     C11375  12.615  11.658   4.013 -1.4777 -0.1093 -0.6344
   85MOL0     O11376  12.717  11.751   4.033  0.1127 -0.0751 -0.7420
   85MOL0     C11377  12.832  11.730   3.954 -0.9573 -0.1240 -0.2755
   85MOL0     C11378  12.956  11.813   4.009  0.3375 -0.1492  0.7742
   85MOL0     C11379  12.914  11.938   4.098 -0.1654  0.0024 -0.3068
   85MOL0     C11380  13.035  12.025   4.126  1.5985 -0.3531  0.1084
   85MOL0     C11381  12.992  12.119   4.235 -0.4780 -0.4732 -0.9496
   85MOL0     C11382  13.096  12.231   4.278 -0.2431 -0.4735 -0.3866
   85MOL0     C11383  13.197  12.181   4.381 -0.2486  0.1413 -0.4093
   85MOL0     C11384  13.210  12.274   4.498  0.1113 -0.0687 -0.4557
   85MOL0    Cl11385  13.077  12.252   4.601 -0.2118 -0.4197 -0.5930
   85MOL0     C11386  12.502  11.666   4.092 -0.6961  0.2162 -1.0526
   85MOL0     C11387  12.390  11.587   4.085  0.4889  0.8083 -0.4063
   85MOL0     O11388  12.197  11.340   4.175 -0.4463 -0.4606  0.2636
   85MOL0     C11389  11.985  11.410   3.891  0.5009  0.2343 -1.7768
   85MOL0     C11390  11.857  11.378   3.840 -0.3620  0.3958  0.3028
   85MOL0     N11391  11.141  11.433   4.179 -0.0989 -0.0562 -0.7692
   85MOL0     N11392  11.043  11.356   4.214 -0.4372 -0.2372 -0.6484
   85MOL0     C11393   9.722  11.020   4.123  0.0240 -0.4449  0.0561
   85MOL0     C11394   9.601  11.014   4.058 -0.7515  0.1458 -0.3159
   85MOL0     C11395   9.226  10.971   3.844 -0.5345  0.1741 -0.1739
   85MOL0     C11396   9.107  10.935   3.898  1.2222 -0.6308 -0.0226
   85MOL0     C11397   8.989  10.992   3.839  0.9303  0.5900  0.2246
   85MOL0     C11398   8.999  11.077   3.732  0.5852 -0.0148 -0.7270
   85MOL0     O11399   8.892  11.120   3.661 -0.0466 -0.3711 -0.8405
   85MOL0     C11400   8.758  11.081   3.679  0.2755 -0.4928  0.2466
   85MOL0     C11401   8.682  11.142   3.565  0.5742  0.1119  0.0680
   85MOL0     C11402   8.536  11.095   3.530 -0.2210  0.2703  0.8729
   85MOL0     C11403   8.492  11.135   3.386  0.1123  0.5438 -0.5501
   85MOL0     C11404   8.582  11.088   3.276  0.6102 -1.0618 -0.0675
   85MOL0     C11405   8.648  11.036   3.192 -0.5335 -0.7947 -0.1131
   85MOL0     C11406   9.121  11.111   3.678 -1.0971 -0.2144 -0.5536
   85MOL0     C11407   9.230  11.057   3.736 -0.3978 -0.9015  0.8177
   85MOL0     H11408   9.662  10.795   3.815 -3.0480 -0.0188  0.3529
   85MOL0     H11409   9.897  10.813   3.924 -1.8228 -1.6876 -0.4583
   85MOL0     H11410  10.104  10.931   3.994 -2.5016 -1.0411 -0.5737
   85MOL0     H11411  10.024  11.094   3.972  1.5479  1.7990  1.7375
   85MOL0     H11412  10.151  11.193   4.142  3.1529 -0.0449  2.8621
   85MOL0     H11413  10.196  11.037   4.218  0.3831  0.1110  0.8027
   85MOL0     H11414  10.325  10.990   3.994 -0.1915 -0.4259  2.0821
   85MOL0     H11415  10.316  11.167   3.972 -0.2362  0.7370  1.7130
   85MOL0     H11416  10.430  11.174   4.214 -1.7002 -0.3042  0.3644
   85MOL0     H11417  10.439  10.998   4.192  0.7197 -0.2282 -0.7482
   85MOL0     H11418  10.571  11.041   3.970 -1.6243  0.4651 -0.8172
   85MOL0     H11419  10.575  11.214   4.016  0.9067 -1.0632 -1.6989
   85MOL0     H11420  10.675  11.136   4.239 -3.3746 -3.4901  1.0255
   85MOL0     H11421  10.702  10.980   4.168  0.4911  0.7809  2.5077
   85MOL0     H11422  10.822  11.107   3.965  1.0029 -1.1221  1.5046
   85MOL0     H11423  10.797  11.250   4.063 -1.0448  0.4287  1.9071
   85MOL0     H11424  10.995  11.031   4.119 -3.6490 -1.6627 -1.8387
   85MOL0     H11425  10.914  11.115   4.256 -1.7326 -0.6596 -0.1116
   85MOL0     H11426  11.147  11.186   3.957  0.1656 -3.2175  1.0174
   85MOL0     H11427  11.282  11.368   3.878  2.5338  1.2406 -1.0284
   85MOL0     H11428  11.251  11.522   3.955  0.5828  0.0767  3.3055
   85MOL0     H11429  11.478  11.340   4.064 -0.5543  0.3554  0.2410
   85MOL0     H11430  11.442  11.508   4.095  1.4518 -0.1679  1.3511
   85MOL0     H11431  11.608  11.524   3.938 -0.6323  1.0086  1.2878
   85MOL0     H11432  11.460  11.540   3.829 -0.2590 -0.7031 -0.5211
   85MOL0     H11433  11.614  11.407   3.710 -0.6463  0.1251 -1.0065
   85MOL0     H11434  11.482  11.310   3.757 -0.6899  1.5348 -0.1595
   85MOL0     H11435  11.736  11.206   4.107  1.2507 -2.4618 -0.5040
   85MOL0     H11436  11.878  11.144   4.246  1.5766 -2.8651 -1.4500
   85MOL0     H11437  12.052  11.164   4.218  0.2396  0.1926  0.4885
   85MOL0     H11438  11.974  11.279   4.315  0.2990 -1.1256  1.2878
   85MOL0     H11439  12.508  11.369   3.857  4.2067 -2.1990  2.0311
   85MOL0     H11440  12.688  11.516   3.858  0.6184 -1.8101  0.0972
   85MOL0     H11441  12.867  11.627   3.971 -1.6956 -0.4646 -0.7469
   85MOL0     H11442  12.809  11.731   3.847  0.4755 -2.0126 -0.6589
   85MOL0     H11443  13.017  11.750   4.074  2.3754  3.6213  2.9053
   85MOL0     H11444  13.015  11.848   3.924  2.2725 -1.9888  1.2944
   85MOL0     H11445  12.865  11.890   4.183 -0.3873 -1.6040 -1.2827
   85MOL0     H11446  12.838  12.001   4.051  2.6520  2.7338 -1.6003
   85MOL0     H11447  13.130  11.979   4.155  2.2471  0.4832 -0.6029
   85MOL0     H11448  13.046  12.096   4.043  1.0565  0.4240  0.6921
   85MOL0     H11449  12.988  12.048   4.318  1.0146 -0.2599 -0.6668
   85MOL0     H11450  12.896  12.168   4.216  0.0511  0.5349 -1.1289
   85MOL0     H11451  13.148  12.272   4.190  0.7783 -2.6008 -0.8501
   85MOL0     H11452  13.031  12.302   4.330 -1.9541 -1.3359 -1.2483
   85MOL0     H11453  13.292  12.187   4.328 -0.4351 -5.0981 -1.8625
   85MOL0     H11454  13.173  12.078   4.412 -3.7878  0.6371 -1.0361
   85MOL0     H11455  13.208  12.377   4.463  1.1915  0.9158  2.1124
   85MOL0     H11456  13.307  12.264   4.548  1.6033  0.6036 -3.0450
   85MOL0     H11457  12.487  11.732   4.177  0.3469 -3.6479  2.4266
   85MOL0     H11458  12.306  11.599   4.152 -0.1399 -3.0280 -0.3083
   85MOL0     H11459  12.067  11.459   3.839  1.1997  2.3205  1.0450
   85MOL0     H11460  11.826  11.404   3.740  0.2365 -3.1088 -0.9469
   85MOL0     H11461   9.746  11.077   4.212 -1.6547 -0.5599  0.6146
   85MOL0     H11462   9.519  11.076   4.092  0.3169  1.4080  0.0219
   85MOL0     H11463   9.103  10.852   3.968  1.0776 -1.2504 -0.7389
   85MOL0     H11464   8.894  10.960   3.881  1.2166 -3.1523 -1.5877
   85MOL0     H11465   8.747  10.972   3.688  3.5896 -0.9427 -0.0837
   85MOL0     H11466   8.719  11.124   3.772 -1.5254 -2.6787  0.5967
   85MOL0     H11467   8.751  11.126   3.482  3.1966 -0.2562  2.2021
   85MOL0     H11468   8.676  11.247   3.598  3.0128  0.2797  0.0975
   85MOL0     H11469   8.461  11.142   3.594 -0.5722  0.4967  0.3047
   85MOL0     H11470   8.538  10.986   3.532 -0.0951  0.1756 -1.4208
   85MOL0     H11471   8.468  11.240   3.368  2.9440  1.1541 -1.3879
   85MOL0     H11472   8.398  11.084   3.367  0.2178  1.3443 -4.0130
   85MOL0     H11473   8.714  10.989   3.121 -0.6214 -1.6197  0.3394
   85MOL0     H11474   9.127  11.175   3.590  1.3593  1.8476  0.9681
   85MOL0     H11475   9.325  11.076   3.688  0.4954  0.2183  2.8775
   86MOL0     O11476  10.314   6.450   6.904 -0.0156  0.1610 -0.7047
   86MOL0     C11477  10.333   6.501   6.797 -1.1079 -0.2289 -1.0787
   86MOL0     O11478  10.320   6.630   6.768  0.3853 -0.1878 -0.4306
   86MOL0     C11479  10.250   6.709   6.862 -0.2374 -0.3273  0.1387
   86MOL0     C11480  10.328   6.785   6.945 -0.3722  0.4871  0.1408
   86MOL0     C11481  10.276   6.851   7.060 -0.0267  0.6613 -0.1932
   86MOL0     C11482  10.143   6.867   7.080 -0.6353  0.0841  0.2293
   86MOL0     O11483  10.093   6.928   7.196 -0.1967  0.2573 -0.0400
   86MOL0     C11484  10.136   7.048   7.249 -0.3228  0.2825 -0.3560
   86MOL0     C11485  10.125   7.051   7.406 -0.1839  0.3997 -0.3431
   86MOL0     C11486   9.986   7.096   7.444  0.0320 -0.5580  0.3227
   86MOL0     C11487   9.978   7.254   7.443 -0.7594 -0.7363  0.7599
   86MOL0     C11488   9.831   7.286   7.463  0.3014  0.2407 -0.1353
   86MOL0     C11489   9.826   7.441   7.453  0.1158 -0.0729 -0.9338
   86MOL0     C11490   9.687   7.489   7.492 -0.9211  0.8322 -0.0528
   86MOL0     C11491   9.658   7.481   7.646  0.3096  0.3218 -0.6514
   86MOL0     N11492   9.552   7.382   7.667 -0.2629 -0.6279 -0.1693
   86MOL0     C11493   9.415   7.407   7.704  0.0325  0.2959  1.3592
   86MOL0     C11494   9.375   7.292   7.753  0.3763  0.3522 -0.6291
   86MOL0     C11495   9.240   7.254   7.794 -0.4686  0.1927 -0.3029
   86MOL0     C11496   9.135   7.247   7.679 -0.6974  0.1368 -0.3089
   86MOL0     C11497   9.068   7.108   7.673 -0.3446 -0.2462 -1.0624
   86MOL0     C11498   8.951   7.092   7.581  0.4860 -0.0067  1.4220
   86MOL0     O11499   8.833   7.148   7.643  0.7176 -0.2298  0.1420
   86MOL0     C11500   8.715   7.158   7.582 -0.4767  0.0929 -0.3540
   86MOL0     C11501   8.595   7.173   7.657  1.0215  0.4949  0.1710
   86MOL0     C11502   8.469   7.181   7.596 -0.0641 -0.3015 -0.9613
   86MOL0     C11503   8.355   7.183   7.689  0.7375 -0.8361  0.0589
   86MOL0     C11504   8.458   7.182   7.453  0.9322 -0.4366 -0.9180
   86MOL0     C11505   8.327   7.201   7.381  0.4928  0.4158  0.0824
   86MOL0     O11506   8.237   7.272   7.443  0.2931 -0.4800  0.0330
   86MOL0     C11507   8.121   7.299   7.365  0.1904  0.4984 -1.1299
   86MOL0     C11508   8.093   7.425   7.335  0.0239  0.0773  0.0622
   86MOL0     C11509   7.983   7.456   7.256 -0.4666 -0.4077 -0.5907
   86MOL0     C11510   7.888   7.360   7.225 -0.7435  0.2657  0.6451
   86MOL0     O11511   7.787   7.373   7.131  0.3277  0.4293 -0.6049
   86MOL0     C11512   7.725   7.495   7.103  0.1972 -0.6706 -0.2536
   86MOL0     C11513   7.580   7.477   7.062 -0.4426 -0.3672 -1.1267
   86MOL0     C11514   7.553   7.368   6.960 -0.6337  0.4161 -0.1535
   86MOL0     C11515   7.445   7.403   6.858  0.1020 -0.7144  0.2320
   86MOL0     C11516   7.306   7.403   6.921  0.0971 -0.1665 -0.4195
   86MOL0     C11517   7.208   7.439   6.820  0.8218  0.0522 -1.1170
   86MOL0     C11518   7.061   7.433   6.881 -0.4578 -0.6661  0.3535
   86MOL0     C11519   6.981   7.558   6.836  0.3419 -0.4391  0.5962
   86MOL0    Cl11520   6.807   7.554   6.869 -0.0908  0.2539 -0.3966
   86MOL0     C11521   7.915   7.225   7.254  0.0853 -0.4833  0.6957
   86MOL0     C11522   8.029   7.198   7.334  0.5233 -0.8061  0.2528
   86MOL0     O11523   8.314   7.141   7.275 -0.1264  0.6802  0.0635
   86MOL0     C11524   8.577   7.145   7.386 -0.5645  0.6556 -0.4331
   86MOL0     C11525   8.699   7.130   7.449 -0.4878  0.3635  0.5617
   86MOL0     N11526   9.481   7.192   7.759  0.6252 -0.2205  0.0326
   86MOL0     N11527   9.588   7.256   7.712 -0.3575 -0.4836 -0.1173
   86MOL0     C11528  10.059   6.794   6.988 -0.1042 -0.6998  0.0908
   86MOL0     C11529  10.114   6.717   6.879  0.0878 -0.6025 -0.2717
   86MOL0     C11530  10.372   6.411   6.688 -0.1712  1.0308  0.6196
   86MOL0     C11531  10.412   6.455   6.560  0.2498 -0.1714 -0.2562
   86MOL0     C11532  10.481   6.375   6.472 -0.2412  0.6324  0.0753
   86MOL0     C11533  10.499   6.240   6.502  0.7392  0.2363  1.0791
   86MOL0     O11534  10.555   6.155   6.420 -1.0112  0.8376  0.1818
   86MOL0     C11535  10.613   6.200   6.294  0.0457 -0.6220  0.8078
   86MOL0     C11536  10.642   6.077   6.209  0.3689  0.8042 -0.3432
   86MOL0     C11537  10.738   5.967   6.265 -0.2368 -0.2198  0.1804
   86MOL0     C11538  10.870   6.021   6.326  0.2468 -0.0988 -0.9277
   86MOL0     C11539  10.928   6.122   6.236  0.2469 -0.4227 -0.0887
   86MOL0     C11540  10.969   6.213   6.163 -0.3942 -0.1381  0.2069
   86MOL0     C11541  10.450   6.193   6.617 -1.2678  0.3917 -0.4968
   86MOL0     C11542  10.388   6.270   6.717  0.2540 -0.7193  0.2242
   86MOL0     H11543  10.435   6.769   6.934 -0.4620 -0.5873  0.6696
   86MOL0     H11544  10.346   6.884   7.136  1.1810  1.0157 -1.4256
   86MOL0     H11545  10.235   7.074   7.212 -0.5648  0.5499 -0.8199
   86MOL0     H11546  10.072   7.123   7.200  0.5605  0.3699 -1.3884
   86MOL0     H11547  10.134   6.948   7.441  0.0592  0.2387 -0.8730
   86MOL0     H11548  10.205   7.119   7.436 -0.9017  1.0049  0.2598
   86MOL0     H11549   9.902   7.055   7.388 -0.6471  0.4912  0.5348
   86MOL0     H11550   9.975   7.065   7.548 -0.0804 -2.7104 -0.2952
   86MOL0     H11551  10.039   7.301   7.520 -2.7077  0.7866  1.4565
   86MOL0     H11552  10.020   7.290   7.349  1.6886 -0.8141  1.7558
   86MOL0     H11553   9.770   7.239   7.385 -2.7469  1.9227  1.0973
   86MOL0     H11554   9.803   7.247   7.561 -1.5420  2.1689  0.1626
   86MOL0     H11555   9.909   7.489   7.506 -0.5404  1.0933 -0.9398
   86MOL0     H11556   9.842   7.471   7.350  0.5862 -0.6428 -1.0305
   86MOL0     H11557   9.687   7.593   7.457  1.2863 -0.1327 -3.4615
   86MOL0     H11558   9.618   7.423   7.439 -0.6570 -2.2113  3.0691
   86MOL0     H11559   9.616   7.579   7.669 -4.7891 -1.5139 -0.7327
   86MOL0     H11560   9.748   7.452   7.700  0.8779  1.0290 -1.2104
   86MOL0     H11561   9.362   7.499   7.682 -0.1194  0.0168  0.5171
   86MOL0     H11562   9.256   7.154   7.835 -1.0613  0.7806  1.4722
   86MOL0     H11563   9.199   7.310   7.879  2.8987 -1.0286  2.3957
   86MOL0     H11564   9.179   7.262   7.580  0.2523 -1.4770 -0.1730
   86MOL0     H11565   9.057   7.323   7.691 -0.2808  1.1845 -3.3709
   86MOL0     H11566   9.028   7.072   7.769 -0.2121  0.1499 -0.8584
   86MOL0     H11567   9.147   7.037   7.646 -0.9259 -0.1386 -3.2306
   86MOL0     H11568   8.944   6.985   7.559  0.1105 -0.0860  1.8989
   86MOL0     H11569   8.975   7.138   7.485  0.6724 -0.8236  1.0708
   86MOL0     H11570   8.601   7.183   7.765  1.0525 -1.0471  0.3431
   86MOL0     H11571   8.387   7.157   7.790  1.2759 -2.2486 -0.4481
   86MOL0     H11572   8.284   7.265   7.674  1.1026 -0.7169 -1.1066
   86MOL0     H11573   8.299   7.096   7.655  0.4440 -0.8275  0.5193
   86MOL0     H11574   8.169   7.501   7.350 -0.3253  1.0974 -2.7900
   86MOL0     H11575   7.962   7.553   7.212  1.8739  0.2009 -0.4731
   86MOL0     H11576   7.741   7.566   7.185  0.9212 -1.4645  0.3135
   86MOL0     H11577   7.772   7.535   7.012  0.1977 -1.6317 -0.6836
   86MOL0     H11578   7.526   7.469   7.157 -2.7808  3.6618 -1.8860
   86MOL0     H11579   7.547   7.572   7.019  0.7591 -0.2987 -1.9538
   86MOL0     H11580   7.543   7.269   7.004  0.6706  0.7533  0.9911
   86MOL0     H11581   7.639   7.357   6.894 -0.6376 -1.4090  0.1102
   86MOL0     H11582   7.462   7.502   6.816  1.7999 -0.1591  2.0911
   86MOL0     H11583   7.443   7.324   6.783 -0.9895 -3.7560  3.1963
   86MOL0     H11584   7.311   7.474   7.005  0.6493  0.1754 -0.7374
   86MOL0     H11585   7.287   7.305   6.964  0.7294 -0.1017  0.0243
   86MOL0     H11586   7.234   7.539   6.784 -5.3149  2.2908 -0.5719
   86MOL0     H11587   7.220   7.372   6.735  0.4924 -0.3402 -0.8557
   86MOL0     H11588   7.060   7.435   6.990  0.2869  1.2307  0.3526
   86MOL0     H11589   7.016   7.337   6.852 -0.6007 -1.5290  3.1447
   86MOL0     H11590   7.000   7.562   6.728  3.0517 -0.2684  0.9993
   86MOL0     H11591   7.024   7.653   6.871  0.8608  0.3725 -2.0218
   86MOL0     H11592   7.851   7.140   7.229  3.9061 -3.5077  0.3028
   86MOL0     H11593   8.022   7.092   7.358 -1.3037 -0.5995  0.7258
   86MOL0     H11594   8.577   7.102   7.286 -1.6369 -2.4734  0.7675
   86MOL0     H11595   8.782   7.094   7.390 -0.5429  0.9878  0.0886
   86MOL0     H11596   9.954   6.788   7.014  0.1828 -0.7021  1.2956
   86MOL0     H11597  10.047   6.655   6.821 -1.9202  2.4949 -1.5209
   86MOL0     H11598  10.399   6.559   6.533 -1.0069  0.4535  2.4265
   86MOL0     H11599  10.509   6.421   6.377  0.5580 -0.3714 -0.2055
   86MOL0     H11600  10.541   6.262   6.239  0.1441 -0.8561  0.4050
   86MOL0     H11601  10.705   6.254   6.319  0.6619 -1.1360 -0.2570
   86MOL0     H11602  10.667   6.110   6.107 -1.0239  1.6059 -0.4508
   86MOL0     H11603  10.545   6.029   6.195  0.2001  0.3915  1.9656
   86MOL0     H11604  10.761   5.884   6.198 -0.5723 -0.6120  0.5391
   86MOL0     H11605  10.688   5.916   6.348 -1.7155 -0.0892 -0.5857
   86MOL0     H11606  10.945   5.943   6.348  3.1347  2.3839 -1.3102
   86MOL0     H11607  10.850   6.071   6.421 -1.4833  3.7868 -3.1306
   86MOL0     H11608  11.004   6.283   6.089 -1.2723 -0.6426 -0.7217
   86MOL0     H11609  10.450   6.085   6.624 -0.0640  0.0012 -4.4196
   86MOL0     H11610  10.349   6.213   6.801  0.2716  3.1686  3.1301
   87MOL0     O11611   1.472   9.097   2.563  0.2311  0.2081  0.0538
   87MOL0     C11612   1.352   9.131   2.554 -0.1466  0.2422  0.1932
   87MOL0     O11613   1.272   9.124   2.446  0.5184  1.3006 -0.5495
   87MOL0     C11614   1.303   9.084   2.320  0.4969 -0.3857 -0.0657
   87MOL0     C11615   1.202   9.113   2.220 -0.7256  0.3957 -0.3282
   87MOL0     C11616   1.222   9.098   2.086  0.2593 -0.2858  0.0287
   87MOL0     C11617   1.343   9.047   2.045  0.0862  0.6936  0.5617
   87MOL0     O11618   1.353   9.030   1.914 -0.0497 -0.1137 -0.4847
   87MOL0     C11619   1.356   8.904   1.861 -0.1888  0.8313  0.3519
   87MOL0     C11620   1.400   8.896   1.722  0.2062 -0.3255 -0.5293
   87MOL0     C11621   1.551   8.954   1.694  0.6152 -1.4073  0.7609
   87MOL0     C11622   1.655   8.864   1.762 -0.7670  0.2334 -0.0405
   87MOL0     C11623   1.795   8.871   1.695 -0.8885  0.0519  0.3470
   87MOL0     C11624   1.863   9.001   1.643 -0.0227  0.0931 -0.1210
   87MOL0     C11625   1.994   8.981   1.564 -0.6276 -0.4780 -0.8102
   87MOL0     C11626   2.027   9.106   1.491 -0.3245  0.6299 -0.1282
   87MOL0     N11627   2.115   9.189   1.566  0.0703  0.0335  0.3081
   87MOL0     C11628   2.243   9.158   1.598  0.0846 -0.5604 -0.0437
   87MOL0     C11629   2.299   9.271   1.653  1.0075  0.3325  0.6268
   87MOL0     C11630   2.428   9.299   1.721 -0.4984  0.3702  1.2400
   87MOL0     C11631   2.542   9.297   1.612 -0.3319  0.3526 -0.1962
   87MOL0     C11632   2.525   9.404   1.502  0.4948  0.8946  0.3329
   87MOL0     C11633   2.644   9.399   1.401  0.2125  0.6180 -0.3080
   87MOL0     O11634   2.645   9.275   1.329 -0.6490  0.3443  0.1465
   87MOL0     C11635   2.532   9.253   1.257  0.5160 -0.8525  0.5913
   87MOL0     C11636   2.494   9.328   1.143 -0.1638  0.3277 -0.1831
   87MOL0     C11637   2.384   9.288   1.067 -0.1640 -0.1977  0.2117
   87MOL0     C11638   2.362   9.376   0.936  0.7423 -0.9118  0.5138
   87MOL0     C11639   2.304   9.182   1.115  0.0250  0.1338 -0.6150
   87MOL0     C11640   2.165   9.164   1.061 -0.5025  0.0959  0.7507
   87MOL0     O11641   2.085   9.119   1.148  0.7360  0.7457 -0.0482
   87MOL0     C11642   1.959   9.091   1.123 -0.1407  0.2211  0.8418
   87MOL0     C11643   1.921   8.964   1.149  0.3663 -0.5024 -0.6513
   87MOL0     C11644   1.788   8.923   1.120 -0.2791  0.0647  0.2874
   87MOL0     C11645   1.693   9.017   1.073  0.5302  0.8062  0.9447
   87MOL0     O11646   1.569   8.987   1.041  0.8794 -0.3479  1.0158
   87MOL0     C11647   1.491   8.972   1.161  0.2565  0.5126 -0.9288
   87MOL0     C11648   1.481   9.097   1.245 -0.7515 -0.5411  0.5224
   87MOL0     C11649   1.375   9.081   1.342  0.5997 -0.4175 -0.1660
   87MOL0     C11650   1.365   9.204   1.445  0.0698 -0.0911 -0.5099
   87MOL0     C11651   1.226   9.215   1.501  0.3537  0.4386 -0.5854
   87MOL0     C11652   1.229   9.329   1.611 -0.2880 -0.4306 -0.6902
   87MOL0     C11653   1.111   9.336   1.708 -0.9751  0.6552 -0.1691
   87MOL0     C11654   1.134   9.443   1.814  0.3753 -0.8342  0.0024
   87MOL0    Cl11655   1.029   9.407   1.959 -0.1196 -0.2299  0.0792
   87MOL0     C11656   1.738   9.148   1.048 -0.5977  0.7011 -0.0104
   87MOL0     C11657   1.868   9.188   1.071  0.9923 -0.1183  0.1660
   87MOL0     O11658   2.140   9.180   0.946  0.8563  0.2942  1.3511
   87MOL0     C11659   2.351   9.096   1.217 -0.2065 -0.1072  1.3425
   87MOL0     C11660   2.470   9.134   1.282 -1.1588 -0.8496  0.2921
   87MOL0     N11661   2.196   9.366   1.650 -0.4068  0.8390 -0.2265
   87MOL0     N11662   2.090   9.317   1.604  0.0548  0.6837  0.8131
   87MOL0     C11663   1.443   9.009   2.135 -0.4921 -0.8431 -0.1941
   87MOL0     C11664   1.423   9.029   2.277 -0.3110 -0.7043  0.3796
   87MOL0     C11665   1.300   9.198   2.674  1.3547 -0.7889  1.1110
   87MOL0     C11666   1.373   9.202   2.798  0.6272  0.1893  0.1468
   87MOL0     C11667   1.302   9.242   2.911 -0.3108  0.4263 -0.4324
   87MOL0     C11668   1.189   9.318   2.909  0.9298  0.2037  0.2080
   87MOL0     O11669   1.121   9.349   3.028  0.4628  0.6405  0.6984
   87MOL0     C11670   1.054   9.232   3.082 -0.2324  0.0663  0.5953
   87MOL0     C11671   0.923   9.272   3.165  0.0278 -0.6862  0.4568
   87MOL0     C11672   0.816   9.352   3.078  0.0757  0.0419  0.5798
   87MOL0     C11673   0.705   9.269   3.023 -0.1299  0.1163  0.7327
   87MOL0     C11674   0.618   9.209   3.131  0.8881 -1.0650  0.0975
   87MOL0     C11675   0.549   9.168   3.219  0.0441  0.0543 -0.7860
   87MOL0     C11676   1.125   9.322   2.790  0.0198 -0.2926 -0.8392
   87MOL0     C11677   1.177   9.265   2.670 -0.2963  0.1908  0.6964
   87MOL0     H11678   1.107   9.151   2.257 -0.0727  0.8039  1.0148
   87MOL0     H11679   1.139   9.114   2.017 -1.2877 -0.1508  1.8514
   87MOL0     H11680   1.430   8.841   1.911 -0.4375 -0.2908 -0.6468
   87MOL0     H11681   1.256   8.859   1.864  0.1289  0.0328 -0.6975
   87MOL0     H11682   1.419   8.796   1.683  2.2988  1.3015 -4.2636
   87MOL0     H11683   1.329   8.953   1.661  2.3049  1.8478 -1.1306
   87MOL0     H11684   1.554   8.960   1.585 -2.7533 -2.2517  0.5192
   87MOL0     H11685   1.546   9.060   1.721 -1.4388 -0.8669 -1.4195
   87MOL0     H11686   1.653   8.886   1.869 -3.8008  5.6160 -0.8646
   87MOL0     H11687   1.627   8.758   1.752  0.4914 -0.2874  1.5324
   87MOL0     H11688   1.871   8.822   1.757  1.1754  1.3395 -1.0636
   87MOL0     H11689   1.782   8.809   1.606 -1.3679  2.9900 -1.7620
   87MOL0     H11690   1.786   9.049   1.582 -0.4837 -0.9029 -0.3445
   87MOL0     H11691   1.885   9.066   1.728 -1.3116  0.2270  0.1315
   87MOL0     H11692   2.071   8.962   1.640 -1.3209 -0.4536 -0.0804
   87MOL0     H11693   1.998   8.892   1.501  0.6719 -2.5855  2.0126
   87MOL0     H11694   1.930   9.154   1.476 -0.2641  0.9197  0.3994
   87MOL0     H11695   2.071   9.085   1.393  1.7261  0.2585  0.8139
   87MOL0     H11696   2.285   9.060   1.574 -0.9381 -1.1472  0.4718
   87MOL0     H11697   2.432   9.398   1.769 -0.1593  1.9440 -1.8073
   87MOL0     H11698   2.452   9.226   1.799 -0.8133  2.1425  3.0798
   87MOL0     H11699   2.532   9.199   1.566  0.1138  0.4618 -0.5408
   87MOL0     H11700   2.643   9.295   1.655 -1.3654  1.6947  2.5165
   87MOL0     H11701   2.520   9.503   1.547  3.0056  0.0812  2.6181
   87MOL0     H11702   2.433   9.385   1.446 -0.9536 -0.2127  2.9172
   87MOL0     H11703   2.739   9.408   1.454 -1.3330  1.6746  2.4956
   87MOL0     H11704   2.642   9.485   1.334  3.4592  0.8558 -0.2572
   87MOL0     H11705   2.558   9.406   1.102  1.0374 -0.8549 -0.6665
   87MOL0     H11706   2.270   9.433   0.955 -1.4040 -3.3651 -1.5926
   87MOL0     H11707   2.440   9.450   0.915  1.0811 -1.0741  1.2080
   87MOL0     H11708   2.342   9.328   0.839 -1.7242  2.2474 -0.7208
   87MOL0     H11709   2.003   8.900   1.178  0.2743 -1.1196 -1.7018
   87MOL0     H11710   1.767   8.816   1.127  2.6056 -0.7287 -1.2987
   87MOL0     H11711   1.387   8.964   1.129 -0.8263  3.7140  1.2551
   87MOL0     H11712   1.521   8.892   1.229 -2.7780  1.5221  1.8641
   87MOL0     H11713   1.572   9.121   1.300 -0.1013  1.4597 -1.2938
   87MOL0     H11714   1.453   9.172   1.170  3.0334  0.5316 -0.0000
   87MOL0     H11715   1.397   8.991   1.401  2.3747 -0.7709 -1.3064
   87MOL0     H11716   1.275   9.071   1.300  1.3027 -3.4760 -1.3096
   87MOL0     H11717   1.441   9.191   1.523 -0.8009 -1.5656  0.1403
   87MOL0     H11718   1.387   9.299   1.397  0.7262  0.0060 -0.0283
   87MOL0     H11719   1.201   9.116   1.539  0.8251  1.2846  2.1884
   87MOL0     H11720   1.151   9.244   1.426  2.5372  3.7402 -1.7435
   87MOL0     H11721   1.321   9.335   1.670  0.3922  5.1823 -1.7455
   87MOL0     H11722   1.229   9.420   1.550  0.1567  0.8584  1.1455
   87MOL0     H11723   1.105   9.236   1.753  0.0875  0.3534 -0.6755
   87MOL0     H11724   1.016   9.354   1.658 -0.8824 -0.0525 -0.6133
   87MOL0     H11725   1.096   9.538   1.773  1.6403 -0.0041  0.6687
   87MOL0     H11726   1.239   9.455   1.842  0.6585 -0.2202 -1.2419
   87MOL0     H11727   1.671   9.222   1.006  1.5696  1.5691 -2.1266
   87MOL0     H11728   1.899   9.285   1.036 -2.1102  1.0160  0.3266
   87MOL0     H11729   2.297   9.008   1.250  0.6528 -0.9829  0.4961
   87MOL0     H11730   2.511   9.085   1.369 -0.3842 -0.0276  0.4095
   87MOL0     H11731   1.535   8.958   2.109 -0.1735  0.1571 -1.0868
   87MOL0     H11732   1.501   9.010   2.350 -0.1085  2.5067  1.1408
   87MOL0     H11733   1.474   9.164   2.812  1.1645  2.2334  2.3993
   87MOL0     H11734   1.356   9.224   3.003  0.3146  2.1435 -0.4305
   87MOL0     H11735   1.019   9.173   2.997 -0.2120  0.2917  0.4311
   87MOL0     H11736   1.122   9.185   3.154  1.7833  1.3692 -0.4009
   87MOL0     H11737   0.964   9.334   3.245  2.3855  0.1576 -1.2905
   87MOL0     H11738   0.873   9.183   3.205  0.0749 -1.9722 -2.1263
   87MOL0     H11739   0.866   9.394   2.990 -0.6584  1.4169  0.7803
   87MOL0     H11740   0.783   9.445   3.126  1.0750  1.4690 -1.3164
   87MOL0     H11741   0.743   9.190   2.958  0.9497  0.7789  0.5267
   87MOL0     H11742   0.654   9.339   2.956 -0.3329 -2.0185 -1.4654
   87MOL0     H11743   0.490   9.136   3.303 -0.6595 -0.5399 -1.4860
   87MOL0     H11744   1.028   9.364   2.811  0.6731  0.9863 -0.3101
   87MOL0     H11745   1.111   9.270   2.584  1.6655  1.9713 -0.8127
   88MOL0     O11746   3.431   0.341   9.707 -0.2715 -0.0057 -0.0857
   88MOL0     C11747   3.325   0.285   9.721  1.0710  0.4543 -0.7657
   88MOL0     O11748   3.199   0.335   9.712  0.3910 -0.6084 -0.2128
   88MOL0     C11749   3.170   0.467   9.660  1.1232 -0.3448 -1.1494
   88MOL0     C11750   3.265   0.551   9.589 -0.0945  0.6332  0.6184
   88MOL0     C11751   3.225   0.674   9.556 -0.3200 -0.4058 -0.1643
   88MOL0     C11752   3.105   0.727   9.596 -1.0934  0.0144 -0.9420
   88MOL0     O11753   3.085   0.855   9.557  0.0959 -0.1027  0.0737
   88MOL0     C11754   2.964   0.914   9.593  0.2048 -0.3553 -0.0651
   88MOL0     C11755   2.984   1.062   9.577  0.4738 -0.5763  0.8890
   88MOL0     C11756   3.011   1.128   9.435  0.1555  0.1907 -0.7430
   88MOL0     C11757   3.045   1.276   9.473  0.0433  0.3010  0.1335
   88MOL0     C11758   2.927   1.365   9.410  0.3820 -0.1916 -0.3489
   88MOL0     C11759   2.919   1.374   9.249 -1.2519  0.5362 -0.1776
   88MOL0     C11760   2.791   1.450   9.203 -0.2533 -1.0126  0.1732
   88MOL0     C11761   2.660   1.385   9.257 -0.5220  0.6348 -0.1492
   88MOL0     N11762   2.645   1.240   9.245 -0.4358  0.0422 -0.7477
   88MOL0     C11763   2.660   1.163   9.135 -0.6805 -0.3306  0.7347
   88MOL0     C11764   2.660   1.037   9.182  0.6403  0.6931 -1.0812
   88MOL0     C11765   2.684   0.907   9.103  0.5657 -0.0913  0.5737
   88MOL0     C11766   2.696   0.776   9.190 -0.1378  0.4947  0.3917
   88MOL0     C11767   2.839   0.715   9.189  0.1470  0.2212 -0.1445
   88MOL0     C11768   2.847   0.603   9.296  0.0906 -1.1042  0.5585
   88MOL0     O11769   2.793   0.485   9.245  1.0020  0.4710 -0.0652
   88MOL0     C11770   2.790   0.367   9.313 -0.0395  0.5547  0.4116
   88MOL0     C11771   2.723   0.248   9.267  0.1643 -0.3560  0.1268
   88MOL0     C11772   2.734   0.119   9.327 -0.2144 -0.1554  0.5033
   88MOL0     C11773   2.679   0.005   9.242 -0.1400  0.1114 -0.2059
   88MOL0     C11774   2.807   0.102   9.450  0.2041  0.2607  1.1286
   88MOL0     C11775   2.827  -0.023   9.529  0.0857  0.1461 -0.7501
   88MOL0     O11776   2.912  -0.020   9.638  0.7250  0.2983 -0.9515
   88MOL0     C11777   2.941  -0.131   9.706  0.3456 -0.8109 -0.3574
   88MOL0     C11778   2.983  -0.248   9.649  1.1003  0.4518 -0.5435
   88MOL0     C11779   3.016  -0.360   9.721  0.4563 -0.6808  0.7504
   88MOL0     C11780   3.019  -0.356   9.858 -0.0658  0.3729  0.1610
   88MOL0     O11781   3.043  -0.475   9.915 -0.1897  0.3033 -0.4904
   88MOL0     C11782   3.030  -0.483  10.060  0.2999  0.4348  0.3603
   88MOL0     C11783   3.074  -0.622  10.119  0.3492 -0.4423  0.6355
   88MOL0     C11784   3.221  -0.597  10.166  1.3546  0.5770  1.0247
   88MOL0     C11785   3.277  -0.716  10.221 -0.6589 -0.0234 -0.5354
   88MOL0     C11786   3.366  -0.783  10.121  0.1235  0.3172  0.5572
   88MOL0     C11787   3.448  -0.908  10.174 -0.1517  0.0657 -0.9791
   88MOL0     C11788   3.555  -0.951  10.072  0.4958 -0.4606  0.5410
   88MOL0     C11789   3.649  -1.058  10.120 -0.3988  0.3039 -0.7407
   88MOL0    Cl11790   3.774  -1.009  10.247  0.3179 -0.4077  0.1729
   88MOL0     C11791   2.974  -0.239   9.923 -0.1144  0.8056  0.0045
   88MOL0     C11792   2.937  -0.129   9.848  0.0272 -0.0098 -0.3726
   88MOL0     O11793   2.768  -0.127   9.493 -0.2297  0.6367 -0.3119
   88MOL0     C11794   2.861   0.220   9.499 -0.0408  0.2468 -0.2916
   88MOL0     C11795   2.858   0.340   9.432 -0.1052 -0.6313 -0.4924
   88MOL0     N11796   2.647   1.038   9.325  1.0078  0.4300  0.0662
   88MOL0     N11797   2.653   1.162   9.359  0.7848 -0.4373  0.3045
   88MOL0     C11798   3.018   0.648   9.671 -0.5155  1.2512  0.1263
   88MOL0     C11799   3.045   0.513   9.701  0.2683 -1.0062 -0.7588
   88MOL0     C11800   3.333   0.153   9.779  0.1339  0.5063  0.1496
   88MOL0     C11801   3.419   0.056   9.723 -0.4106 -0.1484  0.7562
   88MOL0     C11802   3.419  -0.079   9.772  0.2125 -0.2299 -0.3269
   88MOL0     C11803   3.328  -0.126   9.867  0.2133  0.2250  0.5724
   88MOL0     O11804   3.315  -0.257   9.904 -0.5579 -0.0873 -0.3770
   88MOL0     C11805   3.408  -0.356   9.858  0.0395 -0.1856 -0.0860
   88MOL0     C11806   3.540  -0.365   9.927  0.0083 -0.7980  0.0313
   88MOL0     C11807   3.649  -0.438   9.857 -1.0246 -0.2523  0.3930
   88MOL0     C11808   3.601  -0.572   9.800  0.9825 -0.1566 -0.3956
   88MOL0     C11809   3.710  -0.664   9.757  0.2574 -0.6474  0.4194
   88MOL0     C11810   3.807  -0.748   9.747 -0.0570 -0.3407  1.0416
   88MOL0     C11811   3.245  -0.025   9.930 -1.0127 -0.1730  0.5538
   88MOL0     C11812   3.247   0.109   9.885 -0.4995 -0.3399 -0.0372
   88MOL0     H11813   3.362   0.513   9.557 -0.9529  0.1924 -1.6413
   88MOL0     H11814   3.291   0.739   9.499  0.6904 -1.4905 -0.2643
   88MOL0     H11815   2.893   0.868   9.524  1.2720 -3.6595  0.8538
   88MOL0     H11816   2.933   0.906   9.698  0.9692  0.5992  0.2533
   88MOL0     H11817   2.888   1.108   9.604  0.4065 -1.2556  1.8576
   88MOL0     H11818   3.072   1.087   9.638  0.6439  1.9445 -0.2518
   88MOL0     H11819   3.099   1.078   9.393  0.2223 -1.4816  1.2446
   88MOL0     H11820   2.931   1.110   9.363 -0.2555  1.6454 -0.6721
   88MOL0     H11821   3.056   1.282   9.582  2.6408 -1.6604  0.0947
   88MOL0     H11822   3.143   1.299   9.429 -1.2888  0.8184 -2.7493
   88MOL0     H11823   2.835   1.324   9.451  1.4851  0.3928  2.9607
   88MOL0     H11824   2.934   1.470   9.439  1.6084 -0.5817  0.8535
   88MOL0     H11825   3.007   1.428   9.213 -0.7896 -1.4812 -2.2655
   88MOL0     H11826   2.920   1.273   9.209  1.0626 -0.1430  1.4020
   88MOL0     H11827   2.811   1.554   9.233  0.5851 -1.1221  0.0308
   88MOL0     H11828   2.794   1.456   9.094  2.4988  4.4269  0.1944
   88MOL0     H11829   2.579   1.422   9.193 -1.6296  2.7010  2.2451
   88MOL0     H11830   2.634   1.436   9.351 -0.1853  2.3645 -0.9655
   88MOL0     H11831   2.669   1.198   9.033 -0.8933  2.6870  1.6677
   88MOL0     H11832   2.595   0.898   9.040  0.6565 -0.1980  0.4588
   88MOL0     H11833   2.768   0.924   9.035 -1.0174 -0.3907 -1.5481
   88MOL0     H11834   2.643   0.695   9.140  0.9969 -0.1736  0.2158
   88MOL0     H11835   2.668   0.786   9.295 -0.1018  1.9758  0.2787
   88MOL0     H11836   2.915   0.793   9.201  1.7698 -1.5376  1.7749
   88MOL0     H11837   2.853   0.675   9.088 -0.2403 -0.9218  0.2389
   88MOL0     H11838   2.799   0.632   9.389  1.7525 -1.3777  1.5320
   88MOL0     H11839   2.950   0.584   9.328  1.3149 -0.6632 -2.7197
   88MOL0     H11840   2.681   0.259   9.168  0.2722 -0.9701  0.0059
   88MOL0     H11841   2.768  -0.053   9.215  1.0995  3.0411 -3.1256
   88MOL0     H11842   2.613  -0.064   9.295  1.7053 -1.3869  0.2434
   88MOL0     H11843   2.634   0.051   9.154 -1.5572 -0.2131  0.3309
   88MOL0     H11844   2.992  -0.248   9.541  0.1755  0.5640 -0.6298
   88MOL0     H11845   3.051  -0.446   9.665 -2.9663 -1.8167  0.1039
   88MOL0     H11846   3.089  -0.402  10.106 -1.2210  1.2515  0.9234
   88MOL0     H11847   2.926  -0.462  10.087  0.1293  0.5493 -0.3584
   88MOL0     H11848   3.009  -0.649  10.203  0.4155 -3.0352 -0.0713
   88MOL0     H11849   3.063  -0.701  10.044 -0.5362  0.3381 -0.0855
   88MOL0     H11850   3.218  -0.518  10.242  2.5880  3.3560 -1.6309
   88MOL0     H11851   3.280  -0.558  10.083  1.9082  0.1080  1.1954
   88MOL0     H11852   3.341  -0.682  10.303 -3.0823 -0.2942  1.5837
   88MOL0     H11853   3.205  -0.781  10.272 -1.5625  3.1725  2.6411
   88MOL0     H11854   3.437  -0.710  10.080 -0.7189  0.5410 -0.5416
   88MOL0     H11855   3.307  -0.821  10.037 -0.2848 -0.8752  1.3543
   88MOL0     H11856   3.499  -0.872  10.264 -0.4008 -0.0229 -0.8019
   88MOL0     H11857   3.377  -0.991  10.185 -2.4468  1.7243 -2.4917
   88MOL0     H11858   3.625  -0.873  10.041 -0.4993  0.1997 -0.0953
   88MOL0     H11859   3.506  -0.996   9.985  2.2082  1.6434 -1.6356
   88MOL0     H11860   3.702  -1.097  10.032 -2.5787  0.6745 -2.3027
   88MOL0     H11861   3.600  -1.140  10.173  2.2793  0.5669  2.4373
   88MOL0     H11862   2.991  -0.232  10.030 -0.5043 -0.1257  0.1406
   88MOL0     H11863   2.900  -0.038   9.894  0.6938  0.3609 -0.5574
   88MOL0     H11864   2.931   0.235   9.580  0.0447  1.7990 -0.6221
   88MOL0     H11865   2.912   0.422   9.478 -1.2017  0.1528 -0.5662
   88MOL0     H11866   2.931   0.700   9.709 -0.5987  1.7483 -0.7366
   88MOL0     H11867   2.962   0.456   9.743  0.1835  1.3946  2.6567
   88MOL0     H11868   3.466   0.080   9.628 -1.6860 -0.5640  0.0012
   88MOL0     H11869   3.487  -0.140   9.714 -1.5409 -0.7869 -1.8927
   88MOL0     H11870   3.361  -0.455   9.857  0.0767 -0.2106  0.4295
   88MOL0     H11871   3.421  -0.334   9.752 -0.2470  0.1890 -0.0442
   88MOL0     H11872   3.508  -0.417  10.018 -2.4874  2.4182  1.2393
   88MOL0     H11873   3.582  -0.266   9.948  0.4481 -0.1876 -3.2755
   88MOL0     H11874   3.731  -0.460   9.926  0.8650 -1.0244 -1.9517
   88MOL0     H11875   3.685  -0.371   9.779 -3.0078  1.5608  0.9400
   88MOL0     H11876   3.548  -0.563   9.705  1.2369  0.4953 -0.4732
   88MOL0     H11877   3.537  -0.631   9.867 -0.1555 -0.5982 -1.8139
   88MOL0     H11878   3.895  -0.809   9.750  1.4979  1.4137 -2.8397
   88MOL0     H11879   3.174  -0.057  10.005 -0.1301  1.7171  2.2656
   88MOL0     H11880   3.178   0.182   9.925 -3.6290 -1.3577 -3.0891
   89MOL0     O11881   1.139   0.472   5.356  0.4849 -0.0857  0.0187
   89MOL0     C11882   1.188   0.447   5.464  0.7861 -0.2242 -1.1617
   89MOL0     O11883   1.153   0.507   5.586  0.1442  0.0468 -0.6789
   89MOL0     C11884   1.064   0.613   5.599 -0.8723 -0.3915 -0.2919
   89MOL0     C11885   0.934   0.601   5.648 -0.3447  0.4023  0.2319
   89MOL0     C11886   0.850   0.711   5.669  0.1472 -0.3423  0.0443
   89MOL0     C11887   0.886   0.838   5.642  0.3589  0.9012 -0.1157
   89MOL0     O11888   0.811   0.949   5.645 -0.5954  0.2873  0.0813
   89MOL0     C11889   0.682   0.955   5.711  0.0807 -0.5108  0.3462
   89MOL0     C11890   0.602   1.074   5.664 -0.3424 -0.3158  0.0888
   89MOL0     C11891   0.523   1.140   5.771  0.5123  0.0604  0.7942
   89MOL0     C11892   0.430   1.039   5.837 -0.0936  0.2213 -0.1934
   89MOL0     C11893   0.331   1.109   5.938  1.4147 -0.5313 -0.2707
   89MOL0     C11894   0.233   1.021   6.019 -0.4547  0.4371  0.6673
   89MOL0     C11895   0.153   1.102   6.122  0.2099 -1.4343  0.0456
   89MOL0     C11896   0.079   1.007   6.218 -0.1541  0.4323  0.0209
   89MOL0     N11897  -0.041   0.944   6.151 -0.3875  0.0618  1.2992
   89MOL0     C11898  -0.170   0.974   6.187  0.0125  1.4219 -0.1816
   89MOL0     C11899  -0.243   0.867   6.145 -0.3026  0.2873  1.1011
   89MOL0     C11900  -0.392   0.854   6.166 -0.0287 -0.6539  0.2350
   89MOL0     C11901  -0.470   0.835   6.037 -0.7893  0.4240 -0.2340
   89MOL0     C11902  -0.438   0.928   5.922 -0.5596 -0.3779 -0.2557
   89MOL0     C11903  -0.518   0.877   5.801 -0.3855  0.3635  0.0382
   89MOL0     O11904  -0.437   0.779   5.735  0.5965 -0.3790 -0.1589
   89MOL0     C11905  -0.479   0.715   5.619  0.6031 -0.4154  0.0373
   89MOL0     C11906  -0.399   0.612   5.581  0.2239  0.1929  0.6501
   89MOL0     C11907  -0.425   0.536   5.465 -0.6748  0.5474 -0.4147
   89MOL0     C11908  -0.327   0.425   5.429  0.5055 -0.7387 -0.4349
   89MOL0     C11909  -0.526   0.571   5.376 -0.2940  1.2293  0.2657
   89MOL0     C11910  -0.533   0.537   5.235  0.2637  0.2360 -0.9147
   89MOL0     O11911  -0.656   0.499   5.197  0.1486  0.0458  0.4186
   89MOL0     C11912  -0.682   0.491   5.063  0.2249 -0.3934  1.2265
   89MOL0     C11913  -0.768   0.584   5.000  1.3128  0.1193 -0.4391
   89MOL0     C11914  -0.806   0.579   4.859 -0.4778 -0.6641  1.1043
   89MOL0     C11915  -0.747   0.477   4.775  1.0945 -0.0945 -0.0087
   89MOL0     O11916  -0.779   0.464   4.643  0.1815  0.0328 -0.2784
   89MOL0     C11917  -0.894   0.530   4.595 -0.8926 -0.8539  0.5518
   89MOL0     C11918  -0.897   0.514   4.441 -0.1744  0.2396 -0.7324
   89MOL0     C11919  -0.996   0.613   4.372  0.0868 -0.3553  0.1926
   89MOL0     C11920  -1.142   0.601   4.410 -0.3175  0.4283 -0.3517
   89MOL0     C11921  -1.206   0.490   4.331 -0.4299 -0.4697  0.2552
   89MOL0     C11922  -1.360   0.491   4.364  0.2948  0.2082  0.2554
   89MOL0     C11923  -1.425   0.391   4.262  0.2493  0.0561 -0.8908
   89MOL0     C11924  -1.573   0.401   4.251  0.4164 -0.1129  1.0381
   89MOL0    Cl11925  -1.653   0.386   4.405 -0.4460 -0.2844  0.2397
   89MOL0     C11926  -0.669   0.380   4.839 -0.2246 -0.0142  0.0505
   89MOL0     C11927  -0.638   0.383   4.980  1.0792  0.2732  0.6696
   89MOL0     O11928  -0.444   0.546   5.162 -0.0609  0.2686  0.2706
   89MOL0     C11929  -0.604   0.675   5.416  0.6691 -0.6523  0.4028
   89MOL0     C11930  -0.587   0.740   5.538 -0.2493 -0.7547  0.0743
   89MOL0     N11931  -0.157   0.783   6.074 -0.3174  0.0287 -0.3640
   89MOL0     N11932  -0.037   0.835   6.074  0.1225 -0.6469  0.0543
   89MOL0     C11933   1.017   0.852   5.585 -0.0076 -1.3070 -0.2476
   89MOL0     C11934   1.102   0.744   5.560 -0.8344  1.4492  0.2333
   89MOL0     C11935   1.292   0.343   5.468 -0.5107  0.1454  0.8353
   89MOL0     C11936   1.310   0.251   5.368  0.0693 -0.5984 -0.0577
   89MOL0     C11937   1.391   0.146   5.392 -0.6595 -0.7013  0.0812
   89MOL0     C11938   1.478   0.126   5.506  0.2520  0.5481  0.1528
   89MOL0     O11939   1.568   0.033   5.528  0.0530 -0.4332  0.4387
   89MOL0     C11940   1.548  -0.107   5.507  0.7979 -1.2205 -0.4739
   89MOL0     C11941   1.598  -0.187   5.623 -0.4803 -0.5405  0.6460
   89MOL0     C11942   1.524  -0.317   5.644  0.2478 -0.0353 -0.2618
   89MOL0     C11943   1.513  -0.415   5.517 -0.3129 -0.5107  0.4542
   89MOL0     C11944   1.644  -0.476   5.485 -0.2780  0.1868 -0.6370
   89MOL0     C11945   1.747  -0.527   5.449 -0.3178  1.2170 -0.3783
   89MOL0     C11946   1.480   0.222   5.595  0.6641  0.7081 -0.2524
   89MOL0     C11947   1.391   0.332   5.572  0.8817  0.3320 -0.3707
   89MOL0     H11948   0.900   0.505   5.688 -4.3060  1.2862 -0.5493
   89MOL0     H11949   0.752   0.688   5.709  0.1361 -0.4081 -0.0196
   89MOL0     H11950   0.615   0.874   5.683 -0.5703  0.7225 -1.9879
   89MOL0     H11951   0.705   0.954   5.818 -2.8862  1.7949  1.1308
   89MOL0     H11952   0.673   1.152   5.635 -1.3807  0.2553 -1.0061
   89MOL0     H11953   0.531   1.039   5.588 -2.0050  1.3696  0.7866
   89MOL0     H11954   0.594   1.190   5.837  0.9455 -2.9862  2.8791
   89MOL0     H11955   0.470   1.213   5.709  3.1013  0.2264 -1.4296
   89MOL0     H11956   0.383   0.986   5.754  1.1924  1.6946 -1.9258
   89MOL0     H11957   0.481   0.964   5.898 -0.1629 -0.0522 -0.4689
   89MOL0     H11958   0.397   1.160   6.009  3.2155 -2.3244 -0.5916
   89MOL0     H11959   0.271   1.180   5.880  1.9134  2.4668  2.5628
   89MOL0     H11960   0.160   0.962   5.962  0.2840 -0.5691  0.7427
   89MOL0     H11961   0.305   0.958   6.071  0.8965  0.1716 -1.4177
   89MOL0     H11962   0.223   1.162   6.180 -1.4821  0.9277 -0.1769
   89MOL0     H11963   0.084   1.166   6.066  3.7818  0.5121 -2.4594
   89MOL0     H11964   0.036   1.063   6.302 -2.2117  2.2453 -2.1052
   89MOL0     H11965   0.152   0.937   6.259  2.7317  2.8419 -0.7045
   89MOL0     H11966  -0.200   1.065   6.239 -0.8741  0.8511  0.3546
   89MOL0     H11967  -0.416   0.776   6.238  0.7763  0.0534  1.2967
   89MOL0     H11968  -0.422   0.951   6.207  0.5360 -1.3175  2.3713
   89MOL0     H11969  -0.572   0.843   6.074 -0.8600 -1.2343  0.0079
   89MOL0     H11970  -0.452   0.734   6.001 -0.7385 -0.2569  1.5976
   89MOL0     H11971  -0.332   0.949   5.906 -0.7540  0.7821 -0.0854
   89MOL0     H11972  -0.465   1.033   5.933  1.8420  0.0469  2.6831
   89MOL0     H11973  -0.532   0.965   5.736  0.7108 -1.2807 -2.5844
   89MOL0     H11974  -0.615   0.841   5.836  0.0886  1.7983  3.1636
   89MOL0     H11975  -0.308   0.588   5.635  0.7441  2.5297  0.9103
   89MOL0     H11976  -0.273   0.388   5.516 -1.3670 -2.8470 -0.0519
   89MOL0     H11977  -0.385   0.337   5.399 -0.0233 -1.7028  3.0098
   89MOL0     H11978  -0.256   0.452   5.351 -0.6167  2.6263 -0.4302
   89MOL0     H11979  -0.823   0.651   5.066  2.6019  3.5675 -2.6047
   89MOL0     H11980  -0.891   0.638   4.827  0.3406 -0.3628 -0.6193
   89MOL0     H11981  -0.988   0.506   4.646 -0.9593 -0.1715  0.7594
   89MOL0     H11982  -0.874   0.637   4.607  0.9009 -1.2203  1.2541
   89MOL0     H11983  -0.798   0.528   4.397  0.8859  0.9441  1.7142
   89MOL0     H11984  -0.916   0.410   4.415  0.0204 -0.5139  1.8789
   89MOL0     H11985  -0.989   0.609   4.263 -0.6496  1.6459  0.0186
   89MOL0     H11986  -0.961   0.714   4.399  0.9322 -0.6664  0.2825
   89MOL0     H11987  -1.148   0.587   4.518  1.5876  0.1089 -0.2645
   89MOL0     H11988  -1.185   0.696   4.377  1.6585  0.7618 -2.1988
   89MOL0     H11989  -1.156   0.400   4.369 -1.7973 -0.7595  1.4590
   89MOL0     H11990  -1.182   0.504   4.225  2.0659 -2.7797  0.4210
   89MOL0     H11991  -1.382   0.473   4.469 -0.2426  2.8536  0.6736
   89MOL0     H11992  -1.394   0.593   4.341  1.1172  0.7485  1.3264
   89MOL0     H11993  -1.400   0.287   4.283 -1.1002 -0.1610 -0.2710
   89MOL0     H11994  -1.380   0.398   4.162  2.1174 -1.0470 -0.1842
   89MOL0     H11995  -1.601   0.327   4.177 -3.5047  0.0613  2.1568
   89MOL0     H11996  -1.613   0.492   4.205  1.6548 -0.9619 -1.9699
   89MOL0     H11997  -0.642   0.294   4.778 -2.2894  0.5111 -1.6810
   89MOL0     H11998  -0.580   0.302   5.023 -0.8434 -0.3922  2.1665
   89MOL0     H11999  -0.687   0.698   5.350 -0.4537  0.0018  1.9744
   89MOL0     H12000  -0.662   0.810   5.573 -0.1150 -1.9669  3.0050
   89MOL0     H12001   1.037   0.953   5.550  2.1094 -1.6797 -0.2769
   89MOL0     H12002   1.189   0.767   5.500 -0.4937  1.9028  0.8978
   89MOL0     H12003   1.242   0.245   5.284 -0.6329 -3.1780  0.6087
   89MOL0     H12004   1.408   0.066   5.321 -0.7790 -1.6335  1.0721
   89MOL0     H12005   1.444  -0.131   5.485 -0.1728  1.0445  1.2533
   89MOL0     H12006   1.610  -0.131   5.421  2.0623 -0.9993  0.3490
   89MOL0     H12007   1.576  -0.120   5.706 -0.5578  2.2988 -1.5349
   89MOL0     H12008   1.705  -0.200   5.610 -0.5612  0.8535 -2.2286
   89MOL0     H12009   1.422  -0.303   5.681 -0.9857 -1.7167 -2.7351
   89MOL0     H12010   1.575  -0.372   5.723 -1.3956  0.2073  1.0360
   89MOL0     H12011   1.479  -0.352   5.435  2.9269 -1.3891 -1.7883
   89MOL0     H12012   1.442  -0.496   5.536 -0.0649 -0.7732  0.2843
   89MOL0     H12013   1.837  -0.572   5.414 -0.0438 -1.9386  3.6209
   89MOL0     H12014   1.558   0.228   5.669  0.7731  4.6916 -0.4258
   89MOL0     H12015   1.403   0.420   5.635 -1.8848 -0.6438  1.7235
   90MOL0     O12016   3.946   8.620   2.202  0.1958  0.6686  0.1749
   90MOL0     C12017   3.869   8.714   2.223  0.5516  0.4273 -0.4664
   90MOL0     O12018   3.900   8.835   2.272  0.4795 -0.1737  0.3829
   90MOL0     C12019   4.035   8.871   2.252 -0.1136 -0.4667  0.5802
   90MOL0     C12020   4.079   8.945   2.140 -0.4057  0.7387 -0.3733
   90MOL0     C12021   4.209   8.982   2.122  0.4366  0.0432 -0.3907
   90MOL0     C12022   4.301   8.952   2.227 -0.3388  0.0672  0.5153
   90MOL0     O12023   4.429   8.995   2.200  0.4445  0.4545  0.6392
   90MOL0     C12024   4.542   8.918   2.251 -0.2260  0.2736 -0.5951
   90MOL0     C12025   4.646   8.933   2.147  0.0549  0.5354 -0.0404
   90MOL0     C12026   4.781   8.911   2.209 -0.2121  0.6329 -0.0542
   90MOL0     C12027   4.895   8.977   2.132 -0.2526  0.3191  0.7662
   90MOL0     C12028   4.904   8.933   1.988  0.3104  0.5050 -1.6505
   90MOL0     C12029   5.043   8.970   1.931 -0.0054  0.3048  0.0451
   90MOL0     C12030   5.046   8.955   1.775 -0.4066  0.6193 -0.9402
   90MOL0     C12031   5.145   9.055   1.712 -0.5765  0.3396  0.4844
   90MOL0     N12032   5.280   9.058   1.781 -0.0922  0.1441 -0.6199
   90MOL0     C12033   5.309   9.140   1.885  0.0390 -0.5125 -0.5395
   90MOL0     C12034   5.430   9.111   1.927 -0.3288 -0.3185 -0.5750
   90MOL0     C12035   5.504   9.190   2.029 -0.2844 -0.5878 -0.3224
   90MOL0     C12036   5.633   9.120   2.073 -0.6220 -0.9485 -0.4519
   90MOL0     C12037   5.711   9.186   2.189  0.1581  0.6333 -0.1656
   90MOL0     C12038   5.846   9.120   2.212  0.3767  0.9670  1.1579
   90MOL0     O12039   5.911   9.216   2.287 -0.5900  0.1468 -0.0050
   90MOL0     C12040   6.035   9.183   2.341 -0.8120 -0.4022 -1.4959
   90MOL0     C12041   6.071   9.261   2.459 -0.7030 -0.2375  0.7422
   90MOL0     C12042   6.190   9.231   2.525  0.8166 -0.0846 -0.2433
   90MOL0     C12043   6.209   9.299   2.664  0.4664  0.1641 -0.1711
   90MOL0     C12044   6.276   9.122   2.484 -0.7822 -1.5760  0.3848
   90MOL0     C12045   6.399   9.086   2.553  0.0162  0.9705  1.6298
   90MOL0     O12046   6.425   8.951   2.552  0.2306  0.6671  0.7041
   90MOL0     C12047   6.543   8.905   2.616  0.3913 -0.7850 -0.0802
   90MOL0     C12048   6.662   8.965   2.633  0.6475 -0.3154 -0.0025
   90MOL0     C12049   6.770   8.903   2.687 -0.3008 -0.0138 -0.3515
   90MOL0     C12050   6.768   8.770   2.726  0.3073 -0.9934  0.0572
   90MOL0     O12051   6.862   8.688   2.783  0.0958 -0.3962  0.0523
   90MOL0     C12052   6.985   8.726   2.856 -0.3479  0.0125  0.4798
   90MOL0     C12053   6.967   8.834   2.958  0.1594 -0.1828  0.6989
   90MOL0     C12054   7.100   8.893   3.003 -0.7344  0.0489  0.3183
   90MOL0     C12055   7.160   8.802   3.114 -0.3765  1.2053  0.1515
   90MOL0     C12056   7.100   8.849   3.247  0.9057 -0.0341 -0.0918
   90MOL0     C12057   7.134   8.758   3.366 -0.4022 -0.1561  0.6036
   90MOL0     C12058   7.076   8.606   3.366  0.0937  0.6033  0.0721
   90MOL0     C12059   7.129   8.523   3.480 -0.2943 -0.2939 -1.0669
   90MOL0    Cl12060   7.050   8.369   3.465 -0.0828  0.0829 -0.6564
   90MOL0     C12061   6.648   8.705   2.697  0.0154  0.3437 -1.5836
   90MOL0     C12062   6.533   8.768   2.653 -0.4685  0.6048  0.2700
   90MOL0     O12063   6.460   9.177   2.607  0.0182  0.3376  0.7131
   90MOL0     C12064   6.230   9.043   2.375  0.5926 -0.0907  0.4553
   90MOL0     C12065   6.113   9.072   2.303  0.2808 -0.0082 -0.2601
   90MOL0     N12066   5.481   9.015   1.840 -0.1207 -0.2261  0.2446
   90MOL0     N12067   5.387   8.978   1.762 -0.8373  0.6999 -0.0374
   90MOL0     C12068   4.263   8.890   2.339  0.0661  0.9534  0.3582
   90MOL0     C12069   4.125   8.851   2.352 -0.8722  0.5878  0.6574
   90MOL0     C12070   3.726   8.680   2.196 -0.4557  0.4253  0.2422
   90MOL0     C12071   3.648   8.784   2.152  1.0277 -0.8922  0.5397
   90MOL0     C12072   3.515   8.754   2.119 -0.8055 -0.7813 -0.1112
   90MOL0     C12073   3.462   8.621   2.128  1.2303 -1.2785  0.3512
   90MOL0     O12074   3.325   8.611   2.090 -0.2767 -0.3933 -0.3192
   90MOL0     C12075   3.276   8.488   2.036 -0.3217 -0.1878 -0.4280
   90MOL0     C12076   3.125   8.502   2.034 -0.4969 -0.1782 -0.0827
   90MOL0     C12077   3.052   8.380   2.010  0.8356  0.3696 -0.1705
   90MOL0     C12078   2.902   8.395   2.001 -0.3647  0.0955  0.6981
   90MOL0     C12079   2.866   8.459   1.881  0.7219  0.6528  0.0583
   90MOL0     C12080   2.847   8.516   1.780  0.1835 -0.0582 -0.1188
   90MOL0     C12081   3.547   8.521   2.146  1.1173  0.8752 -0.0853
   90MOL0     C12082   3.672   8.546   2.199 -0.1379  0.6127  0.1194
   90MOL0     H12083   4.006   8.977   2.067 -0.0781  0.6993 -0.7186
   90MOL0     H12084   4.232   9.039   2.032 -2.4395 -1.2739 -2.0945
   90MOL0     H12085   4.562   8.970   2.345  1.0864 -0.3536 -0.5024
   90MOL0     H12086   4.521   8.811   2.258 -0.2240  0.2189 -1.3778
   90MOL0     H12087   4.627   8.858   2.070  0.6368  2.1843 -1.8509
   90MOL0     H12088   4.652   9.037   2.116 -0.3337  0.9762  1.2680
   90MOL0     H12089   4.779   8.967   2.303 -1.8602  0.6937 -0.1034
   90MOL0     H12090   4.800   8.807   2.239 -1.7678 -0.1351 -1.5274
   90MOL0     H12091   4.873   9.084   2.131 -1.2184  0.1376  1.2284
   90MOL0     H12092   4.990   8.953   2.180  0.5167  0.5197 -0.6018
   90MOL0     H12093   4.917   8.825   1.982 -1.3496  0.3306 -2.9454
   90MOL0     H12094   4.808   8.954   1.941 -0.6884  0.5486  0.3171
   90MOL0     H12095   5.080   9.070   1.955 -0.8762  1.8724 -4.2359
   90MOL0     H12096   5.116   8.895   1.964  2.3858  1.8265 -1.4253
   90MOL0     H12097   5.075   8.853   1.748  3.3693  0.6050  2.2125
   90MOL0     H12098   4.945   8.972   1.738  0.0114 -1.8319 -3.5328
   90MOL0     H12099   5.101   9.155   1.716  0.6741  0.8985  2.0185
   90MOL0     H12100   5.162   9.031   1.607  2.0274 -0.8397  1.0714
   90MOL0     H12101   5.251   9.222   1.927 -0.6257 -0.6610 -1.1625
   90MOL0     H12102   5.526   9.284   1.977 -0.2920 -1.2227 -1.5025
   90MOL0     H12103   5.442   9.222   2.113 -0.3586  0.0932 -0.6326
   90MOL0     H12104   5.695   9.108   1.983 -0.9417 -5.5363 -0.3400
   90MOL0     H12105   5.598   9.021   2.104  0.5564 -1.6704 -1.3474
   90MOL0     H12106   5.644   9.174   2.274  1.5650 -1.2306  0.7654
   90MOL0     H12107   5.720   9.293   2.171 -1.8632  0.9338  0.4113
   90MOL0     H12108   5.897   9.106   2.117 -1.3901 -2.7373  0.5925
   90MOL0     H12109   5.842   9.021   2.257 -0.9910  0.4726  0.0175
   90MOL0     H12110   6.012   9.347   2.491 -1.5333 -0.6687  0.3943
   90MOL0     H12111   6.299   9.359   2.657 -0.8662  2.2163 -0.5708
   90MOL0     H12112   6.120   9.353   2.699 -1.2574 -2.8119  0.4165
   90MOL0     H12113   6.228   9.212   2.728 -0.2414  0.3789  0.3513
   90MOL0     H12114   6.680   9.058   2.579  2.2520 -0.4683  0.2364
   90MOL0     H12115   6.856   8.968   2.698  0.7726 -1.3402 -0.6812
   90MOL0     H12116   7.038   8.641   2.901 -0.6430 -0.1620  0.4953
   90MOL0     H12117   7.055   8.754   2.776 -2.1319 -0.9083 -1.5017
   90MOL0     H12118   6.896   8.908   2.920 -2.2023 -2.7707 -0.3113
   90MOL0     H12119   6.926   8.779   3.044  3.7590 -2.3095  1.2645
   90MOL0     H12120   7.085   8.996   3.035  0.6884  0.5944 -0.6813
   90MOL0     H12121   7.176   8.896   2.925 -0.8592  2.2416  0.2376
   90MOL0     H12122   7.138   8.696   3.106 -0.5431  1.2849 -0.4919
   90MOL0     H12123   7.269   8.805   3.130 -0.4297 -0.7244  1.1950
   90MOL0     H12124   6.994   8.872   3.235  1.2975  2.3587  0.4418
   90MOL0     H12125   7.142   8.950   3.254 -2.3372  1.4732 -0.8430
   90MOL0     H12126   7.241   8.744   3.386 -0.8261 -2.0110  1.8999
   90MOL0     H12127   7.106   8.799   3.464 -1.5296  1.1549 -0.2410
   90MOL0     H12128   7.110   8.560   3.272 -0.9547  3.1224 -1.6743
   90MOL0     H12129   6.967   8.609   3.373  0.1942  1.3839  1.8824
   90MOL0     H12130   7.102   8.574   3.573 -1.5038  0.2839 -1.7078
   90MOL0     H12131   7.238   8.515   3.469 -0.3900 -0.2271 -2.2192
   90MOL0     H12132   6.646   8.598   2.717  1.8794  0.7324  1.3639
   90MOL0     H12133   6.440   8.714   2.639 -0.5979  0.9498 -0.2429
   90MOL0     H12134   6.300   8.968   2.341 -1.5915 -2.3910  0.6825
   90MOL0     H12135   6.087   9.021   2.211 -0.1600 -5.6610  2.6069
   90MOL0     H12136   4.329   8.870   2.423 -0.1542  1.3700  0.6350
   90MOL0     H12137   4.090   8.796   2.439  1.0785 -6.3211 -2.1872
   90MOL0     H12138   3.693   8.879   2.123 -0.8820 -0.6840 -2.1796
   90MOL0     H12139   3.445   8.827   2.080 -0.0320 -0.0964 -0.2401
   90MOL0     H12140   3.296   8.467   1.931  1.0036 -1.3701  0.0332
   90MOL0     H12141   3.306   8.400   2.093 -1.5108 -2.1402 -2.6292
   90MOL0     H12142   3.103   8.585   1.966  0.9030 -0.2652 -0.6915
   90MOL0     H12143   3.089   8.542   2.129 -2.6815 -1.3614 -0.3631
   90MOL0     H12144   3.072   8.304   2.086 -1.2855 -0.5249 -0.4311
   90MOL0     H12145   3.092   8.332   1.920  1.0622  0.1196  0.0614
   90MOL0     H12146   2.861   8.450   2.086 -3.0213 -1.6844  0.7030
   90MOL0     H12147   2.860   8.294   2.005  1.0537 -0.8242 -3.0917
   90MOL0     H12148   2.829   8.566   1.687  1.3624 -2.0939 -1.5276
   90MOL0     H12149   3.501   8.422   2.142  2.0335  0.4103  0.4792
   90MOL0     H12150   3.711   8.449   2.230 -1.4079  0.3189  0.8621
   91MOL0     O12151   7.035   2.720   2.150 -0.3889  0.6764 -0.1311
   91MOL0     C12152   7.068   2.759   2.259  0.6067  0.6114 -0.8873
   91MOL0     O12153   7.015   2.712   2.383  0.6496  0.3812 -0.3116
   91MOL0     C12154   6.924   2.606   2.392  0.3314  0.4883  0.4077
   91MOL0     C12155   6.864   2.529   2.289  0.4176  0.1439  0.0401
   91MOL0     C12156   6.777   2.425   2.331  0.6728 -0.2160 -0.0594
   91MOL0     C12157   6.733   2.412   2.461 -0.3985 -0.8303  0.2773
   91MOL0     O12158   6.643   2.317   2.511  0.4385  0.7327 -0.3170
   91MOL0     C12159   6.521   2.319   2.438 -0.5650  0.0609  0.3684
   91MOL0     C12160   6.410   2.255   2.527 -0.7431 -0.1424 -0.3766
   91MOL0     C12161   6.287   2.223   2.459  0.2350  0.5665 -0.7367
   91MOL0     C12162   6.200   2.129   2.546  0.4246 -1.2947 -0.4514
   91MOL0     C12163   6.055   2.100   2.476 -0.5357 -0.6550  0.4825
   91MOL0     C12164   5.938   2.194   2.506 -0.0133  0.3612  0.3255
   91MOL0     C12165   5.800   2.175   2.434  0.4192 -0.3713 -0.3389
   91MOL0     C12166   5.712   2.290   2.459  0.4042 -0.0916 -0.0438
   91MOL0     N12167   5.598   2.259   2.375 -0.0018 -0.0544  0.1081
   91MOL0     C12168   5.467   2.227   2.415  0.6479  0.0035  0.4116
   91MOL0     C12169   5.387   2.222   2.305  0.1199  0.2707 -0.5478
   91MOL0     C12170   5.230   2.201   2.294  0.0281  0.4068 -0.3787
   91MOL0     C12171   5.152   2.317   2.349 -0.5419 -0.1937 -0.0543
   91MOL0     C12172   5.126   2.301   2.504  0.0064 -0.3820  0.4669
   91MOL0     C12173   5.030   2.415   2.553 -0.3272 -0.3926 -0.5897
   91MOL0     O12174   4.905   2.365   2.584  0.1141  0.2184 -0.1816
   91MOL0     C12175   4.828   2.439   2.674  0.4729  0.6448 -0.7066
   91MOL0     C12176   4.709   2.377   2.722  0.1518 -0.5531 -0.0440
   91MOL0     C12177   4.624   2.434   2.815 -0.1573 -0.3635 -1.9725
   91MOL0     C12178   4.508   2.351   2.860 -0.2598  0.8678  0.1782
   91MOL0     C12179   4.656   2.562   2.868  0.8494  0.5198  0.5938
   91MOL0     C12180   4.581   2.635   2.966  0.8208 -0.0577  0.0364
   91MOL0     O12181   4.441   2.630   2.960  0.4485 -0.7955  0.8108
   91MOL0     C12182   4.373   2.700   3.059  0.4381 -0.2060 -0.2866
   91MOL0     C12183   4.272   2.641   3.141 -0.0487  0.4579  1.3149
   91MOL0     C12184   4.202   2.708   3.239  0.2966 -0.4128 -0.0633
   91MOL0     C12185   4.205   2.851   3.234 -0.1008  0.2812 -0.6184
   91MOL0     O12186   4.133   2.933   3.315  0.7414  0.3321  0.1338
   91MOL0     C12187   3.996   2.942   3.278  0.1708  0.0918  0.7691
   91MOL0     C12188   3.922   3.039   3.365  0.0804 -0.1791 -0.3129
   91MOL0     C12189   3.974   3.184   3.348  0.9359  0.7791  0.7587
   91MOL0     C12190   3.881   3.288   3.426 -1.1058 -0.6474  0.3785
   91MOL0     C12191   3.951   3.404   3.476  0.1932 -0.6248 -0.2902
   91MOL0     C12192   3.999   3.509   3.374  0.4726  0.1643  0.3087
   91MOL0     C12193   4.089   3.613   3.447  0.2417  0.6575 -0.1700
   91MOL0     C12194   4.004   3.707   3.533  0.5177  0.9275  0.0159
   91MOL0    Cl12195   4.088   3.848   3.605  0.1357  0.4048  0.0617
   91MOL0     C12196   4.308   2.911   3.165 -0.9200  0.4630  0.0388
   91MOL0     C12197   4.396   2.836   3.080 -1.1410  0.2928 -0.0570
   91MOL0     O12198   4.645   2.670   3.064  0.8429  0.4329 -0.2040
   91MOL0     C12199   4.763   2.637   2.809  0.2038  0.1798 -0.6650
   91MOL0     C12200   4.841   2.579   2.711  0.3027 -0.1072  0.3171
   91MOL0     N12201   5.471   2.250   2.205 -0.2469 -0.5012  0.4840
   91MOL0     N12202   5.589   2.286   2.246  0.3072  0.0318 -0.4428
   91MOL0     C12203   6.788   2.495   2.559  0.1962  0.4779 -0.8300
   91MOL0     C12204   6.885   2.583   2.518 -0.5053  0.1793 -0.1525
   91MOL0     C12205   7.181   2.850   2.260  0.1837 -1.0541  0.3034
   91MOL0     C12206   7.267   2.864   2.369  0.2414  0.3696  0.5773
   91MOL0     C12207   7.380   2.953   2.366 -0.1002  0.2167  0.5263
   91MOL0     C12208   7.412   3.030   2.256  0.2175  0.3305 -0.6560
   91MOL0     O12209   7.517   3.122   2.258  0.1285  0.2574  0.2715
   91MOL0     C12210   7.554   3.197   2.371  0.0974 -0.0474 -0.8217
   91MOL0     C12211   7.505   3.350   2.353 -0.7251 -0.6524 -0.8212
   91MOL0     C12212   7.364   3.380   2.295  0.1194  0.6691 -0.6987
   91MOL0     C12213   7.335   3.530   2.307 -0.0015  0.4928 -1.4617
   91MOL0     C12214   7.215   3.582   2.244 -0.4450  1.1715  0.2531
   91MOL0     C12215   7.128   3.637   2.181 -0.3048  0.6240 -0.6070
   91MOL0     C12216   7.332   3.017   2.147  0.1358 -0.0741 -0.1906
   91MOL0     C12217   7.223   2.929   2.141  0.0217 -0.7086 -0.8848
   91MOL0     H12218   6.886   2.540   2.184 -2.0287 -0.5023 -0.6030
   91MOL0     H12219   6.742   2.347   2.263 -1.1636  0.0312  0.5620
   91MOL0     H12220   6.492   2.418   2.403  3.7609  0.7343 -1.9076
   91MOL0     H12221   6.538   2.248   2.356 -3.8173 -1.0646  0.4962
   91MOL0     H12222   6.458   2.161   2.558 -2.0929 -1.2648 -1.5192
   91MOL0     H12223   6.391   2.310   2.619 -0.3742  1.7959 -1.4058
   91MOL0     H12224   6.232   2.317   2.444 -1.1132  0.0290  0.5191
   91MOL0     H12225   6.308   2.171   2.365 -1.1859 -1.0921 -0.1989
   91MOL0     H12226   6.263   2.040   2.560  0.2890 -1.1308  1.3692
   91MOL0     H12227   6.188   2.175   2.644 -0.0692  2.3532 -2.0808
   91MOL0     H12228   6.074   2.093   2.368 -2.4012 -3.1445  0.2365
   91MOL0     H12229   6.019   2.007   2.521 -5.4033  1.1622  0.9396
   91MOL0     H12230   5.914   2.191   2.613  1.9365  4.0331  1.0491
   91MOL0     H12231   5.978   2.294   2.485  1.6640 -0.2473  0.5135
   91MOL0     H12232   5.820   2.171   2.326  1.2946 -2.0013 -0.1473
   91MOL0     H12233   5.763   2.077   2.466 -1.8664  1.3627  2.7720
   91MOL0     H12234   5.768   2.373   2.414 -1.8776  1.5267 -0.0275
   91MOL0     H12235   5.692   2.302   2.566 -0.6741 -3.3994  0.2090
   91MOL0     H12236   5.431   2.231   2.517 -0.4162  1.6906  0.0150
   91MOL0     H12237   5.202   2.194   2.188 -2.8905  0.4274  0.2906
   91MOL0     H12238   5.201   2.108   2.343  0.6767 -0.2256 -1.1669
   91MOL0     H12239   5.054   2.327   2.301  0.5533 -0.3578 -2.4283
   91MOL0     H12240   5.210   2.404   2.318 -2.2016  1.3407  0.9520
   91MOL0     H12241   5.221   2.305   2.558  2.0759 -0.5298 -2.8635
   91MOL0     H12242   5.077   2.205   2.521 -1.5166  0.6005  1.9351
   91MOL0     H12243   5.021   2.503   2.488 -0.8662  1.9370  2.4226
   91MOL0     H12244   5.078   2.453   2.643  0.0378 -0.0232 -0.9365
   91MOL0     H12245   4.699   2.272   2.697  1.2908 -1.2036  1.9717
   91MOL0     H12246   4.414   2.406   2.849  0.0746  1.2667 -0.8471
   91MOL0     H12247   4.500   2.257   2.806 -0.2460 -0.0800  1.7644
   91MOL0     H12248   4.527   2.326   2.965 -0.2261 -1.1933 -0.2850
   91MOL0     H12249   4.247   2.535   3.145 -1.3218  0.7844  3.3264
   91MOL0     H12250   4.130   2.655   3.300  0.0213  0.9289  0.8330
   91MOL0     H12251   3.987   2.976   3.175  0.9304  1.9212  1.2799
   91MOL0     H12252   3.955   2.841   3.295  1.5540 -0.9356 -1.5897
   91MOL0     H12253   3.813   3.034   3.356 -0.0896 -0.2390  1.4455
   91MOL0     H12254   3.943   3.016   3.470  0.6669  2.6347  0.2854
   91MOL0     H12255   3.970   3.214   3.243  0.0252 -1.5715  0.0592
   91MOL0     H12256   4.071   3.181   3.399 -0.7150 -0.9714  4.1928
   91MOL0     H12257   3.797   3.318   3.362 -1.5061  0.1929  1.2848
   91MOL0     H12258   3.846   3.226   3.509  4.4562 -5.2763 -0.0729
   91MOL0     H12259   4.037   3.363   3.531  0.4804 -2.4842 -2.0113
   91MOL0     H12260   3.887   3.445   3.554  1.8797  2.4568 -0.3585
   91MOL0     H12261   4.057   3.459   3.296  1.8674  1.2552  0.6135
   91MOL0     H12262   3.916   3.557   3.322  0.8165  0.3284 -0.0863
   91MOL0     H12263   4.144   3.666   3.368  0.7594 -0.6166 -0.6927
   91MOL0     H12264   4.157   3.564   3.518  0.6882  1.0707 -0.3040
   91MOL0     H12265   3.956   3.641   3.607  3.0473 -0.7312  0.3102
   91MOL0     H12266   3.927   3.756   3.474  0.4490  1.2165  0.3420
   91MOL0     H12267   4.331   3.017   3.176 -0.7223  0.4009  0.2438
   91MOL0     H12268   4.478   2.889   3.032 -1.2194 -2.0215 -3.1186
   91MOL0     H12269   4.764   2.744   2.828 -2.4953 -0.4091  5.2253
   91MOL0     H12270   4.921   2.641   2.672 -0.9134  0.3237 -1.6521
   91MOL0     H12271   6.764   2.475   2.663 -2.9680 -0.8463 -1.6920
   91MOL0     H12272   6.931   2.631   2.604 -0.1260 -0.3056 -0.0804
   91MOL0     H12273   7.265   2.797   2.454  0.3840 -0.4752 -0.0704
   91MOL0     H12274   7.458   2.943   2.440  0.7750 -3.6170 -0.6660
   91MOL0     H12275   7.502   3.156   2.458  1.7631  0.4168  0.4301
   91MOL0     H12276   7.660   3.189   2.394 -0.5063 -2.8821  1.5822
   91MOL0     H12277   7.583   3.390   2.287 -3.3674  0.2407 -3.6285
   91MOL0     H12278   7.519   3.402   2.448 -1.4314 -1.7866 -0.0753
   91MOL0     H12279   7.291   3.328   2.358 -3.3234  2.8969 -2.5308
   91MOL0     H12280   7.357   3.356   2.188  1.4732  0.7001 -0.8172
   91MOL0     H12281   7.414   3.585   2.255  0.3168 -0.2317 -1.7591
   91MOL0     H12282   7.332   3.555   2.413 -0.0091  2.4618 -1.8852
   91MOL0     H12283   7.038   3.669   2.133 -0.0102 -2.8389 -3.9839
   91MOL0     H12284   7.360   3.083   2.065  2.0648 -1.8802 -1.0704
   91MOL0     H12285   7.158   2.910   2.056 -0.9074 -1.0888 -0.0992
   92MOL0     O12286  10.988   1.549   7.466 -0.4815 -0.4035 -0.6110
   92MOL0     C12287  11.003   1.670   7.476 -0.6631  0.5598  1.0899
   92MOL0     O12288  10.965   1.769   7.391  0.5710  0.6643  0.4850
   92MOL0     C12289  10.893   1.712   7.287  0.2232 -0.1246  0.6417
   92MOL0     C12290  10.966   1.667   7.177 -1.1690  0.3695  0.1189
   92MOL0     C12291  10.897   1.612   7.064  0.3255  0.0216 -0.5849
   92MOL0     C12292  10.764   1.597   7.064 -0.1427  0.6648  0.4099
   92MOL0     O12293  10.701   1.538   6.956 -0.8813  0.6320  0.0993
   92MOL0     C12294  10.667   1.405   6.992  0.2832  0.1667  0.4775
   92MOL0     C12295  10.576   1.353   6.882  0.2874 -0.6668 -0.1891
   92MOL0     C12296  10.645   1.365   6.747  0.7073 -0.6376  0.4974
   92MOL0     C12297  10.556   1.283   6.652  0.0849 -0.0375  0.0983
   92MOL0     C12298  10.614   1.294   6.511  0.3429  0.3146  0.0787
   92MOL0     C12299  10.540   1.194   6.415 -0.6464  0.0949 -0.3657
   92MOL0     C12300  10.614   1.182   6.289  0.1795 -0.1692 -1.0346
   92MOL0     C12301  10.594   1.299   6.191 -0.1189 -1.3313 -0.6504
   92MOL0     N12302  10.676   1.269   6.069  0.8569 -0.2585  0.2667
   92MOL0     C12303  10.605   1.245   5.946 -0.3081 -0.3521 -0.8624
   92MOL0     C12304  10.687   1.288   5.854  0.6738  0.6283 -0.5942
   92MOL0     C12305  10.651   1.291   5.704  0.3048  0.2994  0.4728
   92MOL0     C12306  10.553   1.405   5.680 -0.6734 -0.6444  0.1512
   92MOL0     C12307  10.624   1.544   5.636 -0.5126 -0.3644 -0.7241
   92MOL0     C12308  10.516   1.650   5.634  0.7125  1.0457 -0.3548
   92MOL0     O12309  10.576   1.774   5.598  0.3783 -0.0947 -0.0679
   92MOL0     C12310  10.611   1.875   5.685 -0.1077 -0.1018  0.2070
   92MOL0     C12311  10.674   1.986   5.628 -1.1244 -0.2008 -1.0045
   92MOL0     C12312  10.705   2.106   5.702 -0.8450 -0.7252 -0.3027
   92MOL0     C12313  10.775   2.215   5.628  0.9136 -0.6337 -0.3523
   92MOL0     C12314  10.672   2.110   5.839  0.2045  1.4995 -0.3702
   92MOL0     C12315  10.678   2.233   5.923 -1.3577 -0.0744 -0.6249
   92MOL0     O12316  10.728   2.350   5.874  1.0672 -0.1409 -0.3232
   92MOL0     C12317  10.742   2.463   5.954  0.1689 -0.0243  0.5084
   92MOL0     C12318  10.817   2.469   6.073  0.2415 -0.4754  0.1624
   92MOL0     C12319  10.848   2.584   6.142  0.0157 -0.0217 -0.0474
   92MOL0     C12320  10.798   2.700   6.099  0.7751 -0.0487  1.2685
   92MOL0     O12321  10.816   2.809   6.184 -0.1153 -0.4803  0.3817
   92MOL0     C12322  10.944   2.872   6.175  0.0506  0.0313 -0.1892
   92MOL0     C12323  11.013   2.858   6.306  0.6018  0.3069  0.4596
   92MOL0     C12324  11.145   2.931   6.318 -0.5847  0.8215  0.5869
   92MOL0     C12325  11.243   2.879   6.217 -0.5369  0.8379 -1.2188
   92MOL0     C12326  11.392   2.879   6.266 -0.6398 -0.5445 -0.2197
   92MOL0     C12327  11.442   3.013   6.325 -0.1167  0.6870  0.1444
   92MOL0     C12328  11.597   3.005   6.341  1.6589 -0.5050  0.2782
   92MOL0     C12329  11.651   2.883   6.405  0.3270 -0.7961  0.1513
   92MOL0    Cl12330  11.837   2.884   6.405  0.0931 -0.1316  0.1253
   92MOL0     C12331  10.717   2.694   5.983  0.1724 -0.6069 -0.1423
   92MOL0     C12332  10.685   2.579   5.909  0.8584  0.1685  0.5847
   92MOL0     O12333  10.632   2.220   6.040  0.0134 -0.0588  0.4251
   92MOL0     C12334  10.631   1.984   5.900 -0.2137  0.8927 -0.5559
   92MOL0     C12335  10.595   1.874   5.825 -0.1869 -0.0568  0.4281
   92MOL0     N12336  10.815   1.306   5.904  0.2213  0.2086  0.4965
   92MOL0     N12337  10.800   1.301   6.035 -0.4162 -0.7170 -0.8489
   92MOL0     C12338  10.684   1.647   7.165 -0.5531  0.1987  0.2928
   92MOL0     C12339  10.749   1.708   7.278  0.1885 -0.4635  0.7673
   92MOL0     C12340  11.065   1.716   7.594  0.2483  0.1598  0.1857
   92MOL0     C12341  11.127   1.836   7.598 -0.4026  0.2466  0.3397
   92MOL0     C12342  11.192   1.884   7.715  0.7094  0.3432  0.5054
   92MOL0     C12343  11.176   1.811   7.830 -0.7430  0.2734 -0.4175
   92MOL0     O12344  11.222   1.848   7.953 -0.4042 -0.2935  0.2489
   92MOL0     C12345  11.284   1.976   7.967  0.0076  0.1357 -0.0437
   92MOL0     C12346  11.359   2.010   8.101  0.1197  0.1766  0.5477
   92MOL0     C12347  11.500   1.947   8.103  0.3197  0.1199  0.0782
   92MOL0     C12348  11.581   1.953   8.231 -0.2796 -0.4068  0.2810
   92MOL0     C12349  11.643   1.831   8.267 -0.4091  0.7229 -1.4046
   92MOL0     C12350  11.674   1.731   8.316 -0.1799  0.9410 -0.3127
   92MOL0     C12351  11.110   1.690   7.827  0.1761 -0.7282 -0.7260
   92MOL0     C12352  11.053   1.647   7.714  0.4525  0.4528  0.3516
   92MOL0     H12353  11.074   1.667   7.187 -0.7632  0.4033 -3.3029
   92MOL0     H12354  10.960   1.571   6.986  1.4915 -0.5796  0.6375
   92MOL0     H12355  10.756   1.342   6.999 -1.1116 -1.9672  0.1139
   92MOL0     H12356  10.610   1.395   7.085 -1.1300 -0.7633 -0.4517
   92MOL0     H12357  10.547   1.250   6.907 -2.3266  0.5602  2.4428
   92MOL0     H12358  10.486   1.414   6.888  1.7427  1.6264 -0.5438
   92MOL0     H12359  10.653   1.469   6.716 -0.5818 -0.6738 -0.0091
   92MOL0     H12360  10.749   1.333   6.757  0.7151 -0.9454 -0.4330
   92MOL0     H12361  10.574   1.178   6.679  0.7399 -0.4734 -1.9018
   92MOL0     H12362  10.455   1.324   6.659  0.7161  1.2619  4.0272
   92MOL0     H12363  10.615   1.399   6.482  0.8898  0.1064 -0.6937
   92MOL0     H12364  10.720   1.268   6.513  0.1005 -1.0438 -1.5780
   92MOL0     H12365  10.533   1.094   6.458  3.8671  0.5817  2.0817
   92MOL0     H12366  10.439   1.231   6.395 -0.5495  1.7977  1.8761
   92MOL0     H12367  10.718   1.150   6.304  0.5966  1.1216 -0.9951
   92MOL0     H12368  10.566   1.100   6.236  0.5769  0.3393 -2.2031
   92MOL0     H12369  10.635   1.392   6.230 -1.7136  0.4405 -2.9397
   92MOL0     H12370  10.489   1.316   6.167  0.0755  0.2289 -0.4495
   92MOL0     H12371  10.505   1.207   5.927 -0.0973 -0.9932 -0.7038
   92MOL0     H12372  10.739   1.295   5.639 -0.3047 -1.9963 -0.6001
   92MOL0     H12373  10.600   1.197   5.681 -0.8762  0.4334  2.3245
   92MOL0     H12374  10.500   1.420   5.775 -0.6016  0.8003 -0.0141
   92MOL0     H12375  10.471   1.378   5.613  0.7985 -0.0078 -2.0016
   92MOL0     H12376  10.679   1.531   5.543 -3.1928 -3.0689 -2.1050
   92MOL0     H12377  10.685   1.571   5.723 -0.3975  0.8189 -1.1575
   92MOL0     H12378  10.466   1.650   5.731  1.4572 -2.4709  0.1896
   92MOL0     H12379  10.436   1.629   5.563 -0.2670  1.8130  0.5041
   92MOL0     H12380  10.700   1.992   5.523 -0.7116  1.2385 -0.8432
   92MOL0     H12381  10.713   2.304   5.618 -2.0241 -2.6699 -1.5593
   92MOL0     H12382  10.859   2.241   5.694  0.9717 -1.1946 -0.2007
   92MOL0     H12383  10.815   2.185   5.531 -1.7311  0.7879 -1.9951
   92MOL0     H12384  10.863   2.381   6.117  0.9305  0.1800  0.7805
   92MOL0     H12385  10.914   2.582   6.228  1.3839 -1.3767 -1.0569
   92MOL0     H12386  11.000   2.831   6.091  0.3467  1.5083 -0.7498
   92MOL0     H12387  10.917   2.976   6.156  2.8273  0.7103 -0.9064
   92MOL0     H12388  10.952   2.908   6.382  0.4659  2.8128 -1.1825
   92MOL0     H12389  11.046   2.757   6.330  3.4610  1.7957  3.7971
   92MOL0     H12390  11.182   2.910   6.419  0.4342 -1.9413 -0.2600
   92MOL0     H12391  11.138   3.039   6.301 -1.7840  0.6143 -0.3104
   92MOL0     H12392  11.216   2.777   6.187  1.0703  0.1838 -0.5670
   92MOL0     H12393  11.236   2.943   6.129 -1.7619  2.8556  0.2458
   92MOL0     H12394  11.445   2.853   6.174 -0.3124 -1.8396  0.3154
   92MOL0     H12395  11.413   2.808   6.346  2.5778 -1.4291 -1.6642
   92MOL0     H12396  11.406   3.090   6.256 -1.9465 -0.3045 -0.0946
   92MOL0     H12397  11.382   3.029   6.416  0.5701  0.8762  0.5656
   92MOL0     H12398  11.637   3.096   6.388  0.1950 -0.1979  0.9808
   92MOL0     H12399  11.644   3.005   6.243 -0.7901 -2.9973 -1.0361
   92MOL0     H12400  11.619   2.792   6.355 -0.3579  0.3047 -1.4896
   92MOL0     H12401  11.612   2.872   6.507 -0.7500  1.0978  0.0037
   92MOL0     H12402  10.670   2.785   5.949  1.2982  0.7227  1.6780
   92MOL0     H12403  10.619   2.576   5.823  0.9583 -2.5465  0.5271
   92MOL0     H12404  10.623   1.974   6.008 -1.1800 -0.4592 -0.7294
   92MOL0     H12405  10.544   1.793   5.877  0.3968 -0.5750  0.2118
   92MOL0     H12406  10.578   1.625   7.177 -0.3241 -0.2677  1.5180
   92MOL0     H12407  10.682   1.737   7.357 -4.5340 -0.0711 -2.9408
   92MOL0     H12408  11.128   1.894   7.506  0.2432 -0.4002 -0.0770
   92MOL0     H12409  11.248   1.977   7.716  1.3436 -0.0100 -0.4331
   92MOL0     H12410  11.354   1.993   7.885  0.3748 -2.0556 -0.2522
   92MOL0     H12411  11.198   2.042   7.953  2.3438  3.0817 -1.9513
   92MOL0     H12412  11.301   1.972   8.186  0.2435  1.1394  1.0782
   92MOL0     H12413  11.370   2.119   8.107 -3.6286  0.7768 -0.4992
   92MOL0     H12414  11.566   1.993   8.029  0.0248 -1.8981 -1.5011
   92MOL0     H12415  11.467   1.843   8.096 -1.8404  0.9005 -3.5245
   92MOL0     H12416  11.523   1.996   8.314  0.0470  1.8163 -0.5846
   92MOL0     H12417  11.662   2.026   8.218  0.5425 -1.6037 -1.5854
   92MOL0     H12418  11.703   1.634   8.350 -2.2593  1.1058  2.2619
   92MOL0     H12419  11.089   1.624   7.910  1.9459  0.1733  0.4811
   92MOL0     H12420  10.994   1.556   7.714 -0.0323  0.7591  0.7220
   93MOL0     O12421   0.685  11.156   7.938 -0.2677  0.3502 -0.5659
   93MOL0     C12422   0.651  11.261   8.000  0.7299 -0.0061  0.5331
   93MOL0     O12423   0.727  11.333   8.091  0.0651  0.5442  0.2152
   93MOL0     C12424   0.843  11.270   8.139  1.0341 -0.2106  0.4961
   93MOL0     C12425   0.961  11.286   8.075 -0.2562 -0.5394  0.8365
   93MOL0     C12426   1.086  11.247   8.138  0.8218 -0.8818  0.6691
   93MOL0     C12427   1.088  11.172   8.251  0.3282 -1.1377  1.3457
   93MOL0     O12428   1.200  11.111   8.301  0.4394 -0.4864 -0.3036
   93MOL0     C12429   1.180  11.005   8.392  0.2267  0.6433 -0.0140
   93MOL0     C12430   1.314  10.936   8.377 -0.5740 -0.7175 -0.8614
   93MOL0     C12431   1.330  10.842   8.494 -0.4933 -0.5832  0.2309
   93MOL0     C12432   1.477  10.791   8.492  0.4770  0.3529  0.3361
   93MOL0     C12433   1.496  10.681   8.601  0.4108  1.2339 -0.6344
   93MOL0     C12434   1.417  10.550   8.557  0.8463 -0.3774 -0.9488
   93MOL0     C12435   1.383  10.455   8.680 -0.4063  0.3350  0.4366
   93MOL0     C12436   1.515  10.417   8.752 -0.2181 -0.7716  0.2632
   93MOL0     N12437   1.500  10.294   8.831  0.2510 -0.0394  0.4779
   93MOL0     C12438   1.465  10.276   8.962 -0.0975 -0.0745  0.0293
   93MOL0     C12439   1.463  10.140   8.987  1.3126 -0.4582  0.9574
   93MOL0     C12440   1.419  10.080   9.117  0.4704 -0.0394  0.5113
   93MOL0     C12441   1.342   9.943   9.094  0.1584  0.5511  0.0707
   93MOL0     C12442   1.194   9.967   9.060 -0.0167  0.2564  1.1650
   93MOL0     C12443   1.161  10.054   8.939 -0.4929  0.0640  0.1240
   93MOL0     O12444   1.028  10.068   8.913 -0.1173 -0.4074 -0.2131
   93MOL0     C12445   0.956   9.975   8.834  0.3742  0.6205 -0.7425
   93MOL0     C12446   1.007   9.870   8.764  0.0184  1.3586 -0.9273
   93MOL0     C12447   0.932   9.778   8.693  0.9909 -0.6688 -0.6770
   93MOL0     C12448   0.998   9.654   8.629  0.5252 -0.5678  0.5519
   93MOL0     C12449   0.793   9.801   8.694  0.5224  1.0049  0.4530
   93MOL0     C12450   0.702   9.714   8.609  0.2638  0.0393  0.4278
   93MOL0     O12451   0.588   9.772   8.565 -0.1555 -0.0905  0.0641
   93MOL0     C12452   0.481   9.720   8.498 -0.0805 -0.0376 -0.3084
   93MOL0     C12453   0.372   9.806   8.474 -0.0472  0.2907 -0.3978
   93MOL0     C12454   0.255   9.766   8.414  0.0697  0.1866 -0.3100
   93MOL0     C12455   0.245   9.636   8.368  0.3113  0.1606 -0.0975
   93MOL0     O12456   0.124   9.592   8.315 -0.0848  0.5952 -0.3469
   93MOL0     C12457   0.093   9.456   8.323  0.5917  0.4265 -0.8471
   93MOL0     C12458  -0.053   9.419   8.297  0.3522 -0.1432  0.1436
   93MOL0     C12459  -0.136   9.416   8.427 -0.1599  1.0105  0.5729
   93MOL0     C12460  -0.283   9.454   8.420 -0.7355  0.2171  0.3635
   93MOL0     C12461  -0.353   9.396   8.544 -0.3154 -0.2605 -0.4982
   93MOL0     C12462  -0.499   9.442   8.557  0.0184  1.1953  0.1977
   93MOL0     C12463  -0.572   9.437   8.423 -0.3289 -0.6723  0.0289
   93MOL0     C12464  -0.721   9.451   8.421  0.1367  0.5738  0.3106
   93MOL0    Cl12465  -0.786   9.608   8.481  0.3324  0.5636 -0.3433
   93MOL0     C12466   0.360   9.551   8.373  0.4714  0.0544 -0.3321
   93MOL0     C12467   0.468   9.585   8.451 -0.5396 -0.3722  0.1235
   93MOL0     O12468   0.731   9.597   8.594 -1.1148  0.7354 -0.0046
   93MOL0     C12469   0.740   9.917   8.742 -0.4448  0.2550 -0.1822
   93MOL0     C12470   0.824  10.004   8.814  0.3711  0.6358  0.1166
   93MOL0     N12471   1.489  10.076   8.867  0.5554  0.3000  0.6306
   93MOL0     N12472   1.504  10.168   8.771 -0.0344 -0.1322 -0.6087
   93MOL0     C12473   0.960  11.157   8.320 -0.4740  0.0101  0.1645
   93MOL0     C12474   0.842  11.196   8.258 -0.0027  0.5279  0.4942
   93MOL0     C12475   0.528  11.339   7.958 -0.2378  0.7617  0.4841
   93MOL0     C12476   0.473  11.445   8.036  1.1662  0.5965  0.1264
   93MOL0     C12477   0.363  11.513   7.990 -0.0113  0.2129 -0.6329
   93MOL0     C12478   0.296  11.476   7.868 -0.3429  0.4462  0.2067
   93MOL0     O12479   0.188  11.528   7.806  0.4260 -0.7489  0.3198
   93MOL0     C12480   0.142  11.649   7.879  0.1697 -0.3252 -0.1285
   93MOL0     C12481   0.048  11.732   7.793  0.7514 -0.2517  0.1428
   93MOL0     C12482  -0.094  11.669   7.808 -0.6046 -1.2208  0.5088
   93MOL0     C12483  -0.122  11.515   7.804 -0.2455  0.7852 -0.4314
   93MOL0     C12484  -0.266  11.487   7.808 -0.5039  0.1587 -0.1011
   93MOL0     C12485  -0.385  11.457   7.818  0.5272  0.7737 -0.4585
   93MOL0     C12486   0.360  11.380   7.793  0.5225  0.5412  0.2682
   93MOL0     C12487   0.475  11.312   7.835  0.0933 -0.0000 -0.7816
   93MOL0     H12488   0.962  11.346   7.985 -1.7063 -2.2214 -0.4024
   93MOL0     H12489   1.180  11.274   8.090  0.6041 -1.4914 -0.1242
   93MOL0     H12490   1.155  11.044   8.492 -2.2161 -5.8762  2.4910
   93MOL0     H12491   1.093  10.943   8.368 -0.9465  2.4273 -0.5461
   93MOL0     H12492   1.318  10.883   8.282 -2.7156 -2.6957  0.0561
   93MOL0     H12493   1.393  11.012   8.385  1.3375 -2.7202  0.6124
   93MOL0     H12494   1.308  10.893   8.588  2.2271 -0.8065  1.0594
   93MOL0     H12495   1.249  10.768   8.486 -0.5546 -0.4699 -0.2767
   93MOL0     H12496   1.486  10.744   8.393 -4.7402  1.6437 -1.0495
   93MOL0     H12497   1.551  10.869   8.511  0.5403  0.2049  0.7066
   93MOL0     H12498   1.602  10.656   8.606 -0.0634 -0.8678 -0.1410
   93MOL0     H12499   1.465  10.720   8.698  1.6613  2.8412 -0.8336
   93MOL0     H12500   1.321  10.574   8.509  0.9916  1.0709 -0.5266
   93MOL0     H12501   1.475  10.493   8.483  2.9269  0.0846  0.2721
   93MOL0     H12502   1.324  10.522   8.743 -1.0994  0.7397 -0.6153
   93MOL0     H12503   1.331  10.362   8.653  1.9869 -1.5767  2.0549
   93MOL0     H12504   1.550  10.501   8.813 -0.5638  1.1335 -1.9660
   93MOL0     H12505   1.588  10.394   8.674 -1.4632 -1.6699 -0.6733
   93MOL0     H12506   1.439  10.357   9.029 -0.5806  2.0998 -2.5697
   93MOL0     H12507   1.511  10.051   9.169 -0.8890  0.5010  3.4784
   93MOL0     H12508   1.369  10.149   9.186  1.5082 -0.2432  1.5094
   93MOL0     H12509   1.358   9.883   9.184 -1.9447 -0.3050 -0.0769
   93MOL0     H12510   1.391   9.892   9.010 -1.6539  1.2909 -1.5085
   93MOL0     H12511   1.145  10.022   9.141 -0.9368  0.9457  0.1740
   93MOL0     H12512   1.137   9.874   9.048 -0.7846  1.0922 -4.5877
   93MOL0     H12513   1.207  10.008   8.851 -2.4819  0.3882 -1.1401
   93MOL0     H12514   1.211  10.149   8.957  1.8377 -1.2358  0.9847
   93MOL0     H12515   1.111   9.843   8.783  0.4222  3.7839  0.8015
   93MOL0     H12516   1.104   9.676   8.613  0.3705  1.2000  1.7065
   93MOL0     H12517   0.982   9.564   8.689 -2.4648  0.0743  0.8440
   93MOL0     H12518   0.965   9.626   8.528 -1.6199  1.8547  0.4941
   93MOL0     H12519   0.397   9.906   8.508  1.7573 -0.7167  1.4881
   93MOL0     H12520   0.172   9.833   8.395  1.2984  1.2936 -2.1017
   93MOL0     H12521   0.144   9.397   8.245 -2.5454 -1.1226 -1.9054
   93MOL0     H12522   0.125   9.436   8.426 -0.4296  2.4816 -0.0728
   93MOL0     H12523  -0.094   9.493   8.228 -2.6000  0.6510  2.4929
   93MOL0     H12524  -0.068   9.317   8.259  0.7603 -1.1158  2.3667
   93MOL0     H12525  -0.085   9.480   8.501  0.7863  0.9908 -0.0413
   93MOL0     H12526  -0.121   9.314   8.462  2.4444  1.7497  1.8761
   93MOL0     H12527  -0.300   9.562   8.422 -2.3583 -0.0221  0.9020
   93MOL0     H12528  -0.331   9.412   8.331 -1.0215  3.3634 -1.1006
   93MOL0     H12529  -0.298   9.426   8.633  0.1934 -1.1172 -0.5088
   93MOL0     H12530  -0.351   9.287   8.539 -1.3326 -0.2500 -1.7687
   93MOL0     H12531  -0.543   9.367   8.623  2.8973 -0.4941  0.3844
   93MOL0     H12532  -0.493   9.541   8.601 -1.7849 -0.2028  4.0072
   93MOL0     H12533  -0.542   9.339   8.385  3.6736  1.2043 -2.2494
   93MOL0     H12534  -0.529   9.515   8.359  0.7563 -2.1235 -1.0722
   93MOL0     H12535  -0.764   9.365   8.473 -0.0981  0.8215  0.5329
   93MOL0     H12536  -0.757   9.437   8.319  1.7877 -0.9286 -0.1092
   93MOL0     H12537   0.348   9.449   8.337 -2.3215  0.0719  0.2608
   93MOL0     H12538   0.549   9.514   8.457  0.4847  0.7549  0.0575
   93MOL0     H12539   0.636   9.947   8.729  0.4217  2.7668 -2.0825
   93MOL0     H12540   0.776  10.090   8.860 -2.0347 -0.2148 -0.6661
   93MOL0     H12541   0.955  11.096   8.410  2.7525 -1.8494 -0.7695
   93MOL0     H12542   0.739  11.179   8.286 -0.4022  0.9349 -0.6850
   93MOL0     H12543   0.514  11.468   8.134 -0.0045  0.2466  0.7042
   93MOL0     H12544   0.327  11.597   8.049  1.7934  2.0421 -1.9570
   93MOL0     H12545   0.087  11.603   7.962  1.4921  2.1287  2.2632
   93MOL0     H12546   0.224  11.715   7.908  1.2970 -2.6436  2.3791
   93MOL0     H12547   0.069  11.714   7.688 -3.0381 -0.4067 -0.7352
   93MOL0     H12548   0.055  11.838   7.819  1.0992 -0.6214  1.6994
   93MOL0     H12549  -0.149  11.716   7.725  2.2289  1.4434 -0.0550
   93MOL0     H12550  -0.134  11.717   7.898  0.6627  1.0976 -0.0898
   93MOL0     H12551  -0.074  11.466   7.889 -1.0558 -1.2933 -1.0924
   93MOL0     H12552  -0.059  11.480   7.721 -0.6361 -3.7928  0.9229
   93MOL0     H12553  -0.491  11.444   7.813  0.4177  1.1210  0.7204
   93MOL0     H12554   0.313  11.349   7.700 -1.9591  0.8601  1.3524
   93MOL0     H12555   0.517  11.236   7.771  0.2789  0.1674 -0.8606
   94MOL0     O12556   9.120   4.818   9.006 -0.2671 -0.8018  0.7754
   94MOL0     C12557   9.195   4.723   9.022 -0.2455  0.1976  0.5513
   94MOL0     O12558   9.250   4.683   9.144 -0.3128 -0.1867  0.1159
   94MOL0     C12559   9.236   4.752   9.264 -0.1359  1.0884  0.4092
   94MOL0     C12560   9.354   4.799   9.326 -0.0308 -0.3918  1.5488
   94MOL0     C12561   9.349   4.860   9.452  0.2879  0.4942 -0.1612
   94MOL0     C12562   9.229   4.873   9.519 -0.8940 -0.1189 -0.3733
   94MOL0     O12563   9.228   4.915   9.653  0.1602  0.2321 -0.2131
   94MOL0     C12564   9.236   5.048   9.686  1.0529 -0.2308 -0.6812
   94MOL0     C12565   9.094   5.114   9.689  0.6683  0.0171 -0.9535
   94MOL0     C12566   9.016   5.062   9.811  0.6903  0.1505 -0.7577
   94MOL0     C12567   9.066   5.125   9.937  0.0049  0.1623  0.3294
   94MOL0     C12568   9.008   5.071  10.064 -0.2578 -0.0941  0.5791
   94MOL0     C12569   9.083   5.136  10.175  0.3184 -0.2876 -0.0632
   94MOL0     C12570   9.026   5.079  10.314  0.0213  0.5530 -0.1802
   94MOL0     C12571   9.107   5.130  10.435 -0.5832  0.7274  0.4930
   94MOL0     N12572   9.080   5.075  10.564  0.3405 -0.0546 -0.4380
   94MOL0     C12573   9.003   5.131  10.664 -0.3738 -0.2521 -0.2188
   94MOL0     C12574   9.004   5.033  10.760  0.0480  0.2307  0.0175
   94MOL0     C12575   8.941   5.041  10.894 -0.7261 -1.1558 -0.0333
   94MOL0     C12576   9.042   5.093  11.005 -0.3440 -0.4141  0.3208
   94MOL0     C12577   9.152   4.993  11.051 -0.2777  0.7806 -0.5808
   94MOL0     C12578   9.245   5.045  11.164  0.2816  1.0466  0.5784
   94MOL0     O12579   9.155   5.086  11.269  0.4404  0.0557  0.2672
   94MOL0     C12580   9.207   5.185  11.347 -0.2131 -0.1889 -0.3764
   94MOL0     C12581   9.311   5.178  11.437 -0.2480 -0.3234 -0.5664
   94MOL0     C12582   9.339   5.275  11.530  0.2785 -0.4644 -0.6806
   94MOL0     C12583   9.450   5.264  11.632  0.1355 -0.1559  0.2373
   94MOL0     C12584   9.274   5.405  11.519 -0.1003  0.4477  0.1409
   94MOL0     C12585   9.311   5.531  11.585  0.4229  0.1501 -1.3721
   94MOL0     O12586   9.215   5.623  11.587 -0.0942 -0.2856  0.0491
   94MOL0     C12587   9.205   5.746  11.662 -0.1600  0.5432  0.2942
   94MOL0     C12588   9.101   5.829  11.634  0.4118 -0.2744 -0.2360
   94MOL0     C12589   9.069   5.943  11.713  1.2593 -1.1082  0.4200
   94MOL0     C12590   9.156   5.972  11.826 -0.0262  0.0440  1.0413
   94MOL0     O12591   9.121   6.089  11.890  0.0802  0.1043 -0.1440
   94MOL0     C12592   9.189   6.127  12.008 -0.9466  0.3875  0.3269
   94MOL0     C12593   9.096   6.232  12.073  0.5874  0.0410  0.5216
   94MOL0     C12594   9.148   6.286  12.210  0.4067 -0.2632  0.4705
   94MOL0     C12595   9.113   6.431  12.235 -0.2090 -0.0465 -0.8383
   94MOL0     C12596   9.172   6.482  12.367  0.4597  0.8220  0.0887
   94MOL0     C12597   9.069   6.420  12.464 -0.0765 -1.1501 -1.0937
   94MOL0     C12598   9.087   6.512  12.594 -0.6065 -0.9209  0.2360
   94MOL0     C12599   8.999   6.452  12.711 -0.5131  0.5138 -0.5367
   94MOL0    Cl12600   9.067   6.298  12.777  0.1597 -0.0709 -0.0740
   94MOL0     C12601   9.256   5.877  11.859  0.7651 -0.0085  1.5437
   94MOL0     C12602   9.278   5.769  11.779  0.1108  0.4692 -0.1733
   94MOL0     O12603   9.421   5.542  11.633  0.0028 -0.9163 -0.4186
   94MOL0     C12604   9.167   5.413  11.435  0.0782  0.3840 -0.7426
   94MOL0     C12605   9.133   5.305  11.356  0.5376 -1.1666  0.2922
   94MOL0     N12606   9.068   4.922  10.715 -0.9946 -0.4795  0.1382
   94MOL0     N12607   9.123   4.954  10.604  0.3432  0.4014  0.6158
   94MOL0     C12608   9.113   4.838   9.452  0.1764  0.4194 -0.0283
   94MOL0     C12609   9.111   4.775   9.322 -0.9845  0.3022  0.7259
   94MOL0     C12610   9.229   4.632   8.912 -0.3062  0.6886  0.1244
   94MOL0     C12611   9.159   4.629   8.789 -0.4007  0.3335  0.2532
   94MOL0     C12612   9.193   4.539   8.686 -0.0362  0.4754  0.5309
   94MOL0     C12613   9.307   4.460   8.694  0.4260  0.1016 -0.8185
   94MOL0     O12614   9.356   4.388   8.585 -1.0090 -0.3816 -0.7119
   94MOL0     C12615   9.317   4.433   8.453 -0.7760  0.2039 -0.7388
   94MOL0     C12616   9.406   4.357   8.349  0.0807  0.4967  0.2332
   94MOL0     C12617   9.548   4.378   8.392 -0.5814  0.2541  0.1381
   94MOL0     C12618   9.639   4.306   8.287  0.1459  0.3840 -0.1553
   94MOL0     C12619   9.779   4.295   8.322  0.1674  0.1279  0.7071
   94MOL0     C12620   9.891   4.288   8.362  0.1667 -0.8549 -1.0888
   94MOL0     C12621   9.378   4.458   8.814  0.3027 -0.3247 -0.4662
   94MOL0     C12622   9.339   4.533   8.924  0.3314 -0.7507  0.1949
   94MOL0     H12623   9.453   4.788   9.282  0.5671  2.7742  1.8997
   94MOL0     H12624   9.437   4.878   9.513 -0.2136  2.3796  0.0517
   94MOL0     H12625   9.287   5.063   9.781  2.0504  1.0673 -1.3986
   94MOL0     H12626   9.297   5.106   9.616 -1.9645  2.6335 -1.1806
   94MOL0     H12627   9.083   5.222   9.704 -0.1247 -0.4846  3.8764
   94MOL0     H12628   9.040   5.088   9.598 -1.4874  1.1620 -0.0975
   94MOL0     H12629   8.910   5.089   9.818  0.7055 -0.2264  1.7275
   94MOL0     H12630   9.035   4.955   9.808  2.0104  0.3812 -1.4385
   94MOL0     H12631   9.175   5.120   9.947  0.0277  1.4199  0.9499
   94MOL0     H12632   9.030   5.228   9.927  0.3041  0.3277  0.9601
   94MOL0     H12633   8.901   5.092  10.057  0.0240  1.8532  1.4029
   94MOL0     H12634   9.011   4.962  10.071 -1.5859 -0.1492  0.5609
   94MOL0     H12635   9.188   5.106  10.172 -0.1046 -1.7636 -0.7695
   94MOL0     H12636   9.076   5.244  10.160  1.3118 -0.3058 -0.6808
   94MOL0     H12637   8.919   5.090  10.334 -1.2430 -3.1595 -3.4190
   94MOL0     H12638   9.041   4.971  10.301  3.9526  1.0645 -1.4278
   94MOL0     H12639   9.080   5.235  10.428  2.5947  1.5204 -2.3484
   94MOL0     H12640   9.215   5.127  10.417 -0.8717 -2.3924 -1.7816
   94MOL0     H12641   8.952   5.226  10.672  0.4859  0.0981  4.6205
   94MOL0     H12642   8.858   5.109  10.872  1.6551  1.9763 -0.0644
   94MOL0     H12643   8.907   4.945  10.933 -1.6453 -0.5158  0.7927
   94MOL0     H12644   8.986   5.134  11.090 -2.3761 -1.3587 -0.5015
   94MOL0     H12645   9.097   5.175  10.958  0.3395 -1.4368 -0.7146
   94MOL0     H12646   9.206   4.961  10.961  2.6922  0.6951  1.0891
   94MOL0     H12647   9.091   4.914  11.094  0.1593 -0.2556 -1.7919
   94MOL0     H12648   9.316   5.125  11.142  2.5965 -0.6837  1.3248
   94MOL0     H12649   9.314   4.961  11.182 -1.5911 -1.0821 -1.4342
   94MOL0     H12650   9.368   5.086  11.433 -0.1140 -0.4987  2.6311
   94MOL0     H12651   9.415   5.285  11.734 -0.4046  2.5495 -0.4317
   94MOL0     H12652   9.499   5.167  11.619 -0.9905 -0.4695 -2.2240
   94MOL0     H12653   9.531   5.330  11.603  0.8371 -0.1324  2.0921
   94MOL0     H12654   9.041   5.797  11.549  1.2090 -1.9758 -0.2150
   94MOL0     H12655   8.987   6.005  11.679  1.2493 -0.4976  1.5365
   94MOL0     H12656   9.203   6.038  12.070 -0.0423 -0.6108 -1.2525
   94MOL0     H12657   9.284   6.171  11.976 -0.2533  0.0549  1.8624
   94MOL0     H12658   9.086   6.320  12.009  1.5902  0.6108  1.1191
   94MOL0     H12659   8.996   6.192  12.090  1.4143 -1.3235  2.5371
   94MOL0     H12660   9.256   6.273  12.220  0.2210 -0.4059  2.7802
   94MOL0     H12661   9.109   6.224  12.291  0.8716  0.1231  0.9919
   94MOL0     H12662   9.172   6.498  12.172  0.8729 -0.5888 -0.4443
   94MOL0     H12663   9.009   6.459  12.218 -0.6669 -2.3441 -2.2611
   94MOL0     H12664   9.158   6.590  12.372  0.0479  0.7412  0.9502
   94MOL0     H12665   9.272   6.446  12.391 -0.3618 -0.3065  2.0782
   94MOL0     H12666   8.965   6.430  12.431 -0.3278  2.0556  0.2922
   94MOL0     H12667   9.084   6.317  12.497 -1.9113 -1.4236 -1.0082
   94MOL0     H12668   9.049   6.611  12.568 -1.0352 -1.0452  0.3815
   94MOL0     H12669   9.192   6.527  12.623 -0.9265  0.5157  0.7564
   94MOL0     H12670   8.907   6.432  12.655  0.7546 -1.1318 -2.1862
   94MOL0     H12671   8.973   6.517  12.794 -0.2048  0.2801 -0.2538
   94MOL0     H12672   9.313   5.887  11.951  2.3503  2.1393  0.4207
   94MOL0     H12673   9.358   5.702  11.808 -0.0192  0.1618 -0.5179
   94MOL0     H12674   9.108   5.502  11.420 -1.3569 -0.1364  1.3415
   94MOL0     H12675   9.041   5.308  11.298  2.4934 -0.3466 -3.0282
   94MOL0     H12676   9.019   4.860   9.501  0.9183  0.2188  1.5753
   94MOL0     H12677   9.024   4.747   9.263 -1.1139 -0.9639  1.4842
   94MOL0     H12678   9.077   4.699   8.778 -2.1573 -2.0670 -4.3599
   94MOL0     H12679   9.134   4.540   8.595  1.2220  1.9058 -0.3219
   94MOL0     H12680   9.218   4.391   8.432  0.7829 -2.3711 -3.8950
   94MOL0     H12681   9.317   4.541   8.434  2.3574  0.2580 -0.8418
   94MOL0     H12682   9.390   4.407   8.253 -0.7015 -1.7335 -0.8586
   94MOL0     H12683   9.372   4.254   8.341 -0.9860  0.9362 -1.2384
   94MOL0     H12684   9.579   4.330   8.486  3.0939  1.6670 -0.1898
   94MOL0     H12685   9.570   4.485   8.401 -1.0543  0.2821  1.2187
   94MOL0     H12686   9.632   4.351   8.187 -0.1390 -3.5254 -2.1014
   94MOL0     H12687   9.599   4.209   8.258  2.6011 -0.2118 -1.9409
   94MOL0     H12688   9.995   4.278   8.387  0.1195 -2.4555 -1.4197
   94MOL0     H12689   9.469   4.399   8.821 -0.1525 -1.2807 -1.9201
   94MOL0     H12690   9.398   4.527   9.015 -0.0241  0.9575  0.5794
   95MOL0     O12691   2.733  10.495  10.863 -0.4007  0.3900  0.5532
   95MOL0     C12692   2.853  10.523  10.868  0.7159 -0.4283 -0.1590
   95MOL0     O12693   2.903  10.638  10.939  0.0226 -0.1762  0.4561
   95MOL0     C12694   2.844  10.679  11.049  0.3095 -1.0694  0.6297
   95MOL0     C12695   2.909  10.651  11.163 -0.6190 -0.0570  0.9152
   95MOL0     C12696   2.861  10.687  11.288 -0.4361 -0.7375 -1.4325
   95MOL0     C12697   2.734  10.752  11.303 -0.0610 -0.2828 -0.1049
   95MOL0     O12698   2.669  10.764  11.425  0.1540 -0.0778 -0.0585
   95MOL0     C12699   2.548  10.840  11.433  0.3703  0.0175  0.4659
   95MOL0     C12700   2.526  10.852  11.577 -0.1347 -0.2646 -0.1145
   95MOL0     C12701   2.602  10.981  11.627 -0.3970  0.7248  0.0820
   95MOL0     C12702   2.588  11.013  11.767 -0.0448 -0.0492 -0.5398
   95MOL0     C12703   2.449  11.002  11.832  0.4856  0.6257 -0.3158
   95MOL0     C12704   2.445  11.081  11.968 -0.2008  0.2760  1.3206
   95MOL0     C12705   2.305  11.117  12.025  0.3394  0.4606  0.3682
   95MOL0     C12706   2.255  10.984  12.088  0.3989  0.4351  0.8984
   95MOL0     N12707   2.118  10.999  12.148 -0.5416  0.1934 -0.3131
   95MOL0     C12708   2.092  11.026  12.282 -0.0721  0.5514  1.3272
   95MOL0     C12709   1.958  11.050  12.278 -0.1030 -0.0625 -0.8182
   95MOL0     C12710   1.881  11.112  12.382 -0.0868 -0.4413 -0.0376
   95MOL0     C12711   1.854  11.010  12.499  0.7663 -0.2652  0.2816
   95MOL0     C12712   1.979  10.974  12.581 -0.6138 -0.2129  0.3841
   95MOL0     C12713   1.945  10.903  12.708 -0.2493 -0.4327 -0.4601
   95MOL0     O12714   2.054  10.843  12.774 -0.2210 -0.5458 -0.5197
   95MOL0     C12715   2.046  10.797  12.900  0.4885 -0.0952 -0.6060
   95MOL0     C12716   2.160  10.730  12.955 -0.4367  0.2214  0.2674
   95MOL0     C12717   2.174  10.698  13.092  0.3065 -0.7296 -0.5638
   95MOL0     C12718   2.310  10.650  13.137  0.2812 -0.8219  0.0287
   95MOL0     C12719   2.068  10.732  13.180  0.5171  1.0080 -0.2047
   95MOL0     C12720   2.072  10.682  13.328  0.1374  0.0184  0.8452
   95MOL0     O12721   2.112  10.564  13.350 -0.2455  0.3341  0.3036
   95MOL0     C12722   2.112  10.517  13.483  0.2086 -0.5467  0.3893
   95MOL0     C12723   1.993  10.469  13.538 -0.3639  0.2959  0.2105
   95MOL0     C12724   1.986  10.423  13.674 -0.0573  0.0704  0.9414
   95MOL0     C12725   2.108  10.411  13.750 -0.1699  0.4127  0.1866
   95MOL0     O12726   2.106  10.342  13.870  0.0105  1.3007 -0.1025
   95MOL0     C12727   2.216  10.366  13.965 -0.2546  0.5667 -0.5449
   95MOL0     C12728   2.156  10.330  14.110  0.0788 -0.1979 -0.4859
   95MOL0     C12729   2.103  10.450  14.191 -0.3931 -0.0111  0.0627
   95MOL0     C12730   2.003  10.546  14.122  0.7314  0.2712 -0.2678
   95MOL0     C12731   1.867  10.555  14.192  0.1239 -0.4308  0.4612
   95MOL0     C12732   1.771  10.443  14.166 -0.2995  0.0048 -0.3905
   95MOL0     C12733   1.680  10.434  14.289 -0.3117  0.2108 -0.7476
   95MOL0     C12734   1.607  10.565  14.308  0.2792  0.3129  0.1509
   95MOL0    Cl12735   1.548  10.656  14.157 -0.0310  0.5579  0.2624
   95MOL0     C12736   2.232  10.454  13.687 -0.2918  0.7949 -0.0645
   95MOL0     C12737   2.230  10.508  13.557 -0.0939 -0.3595  0.1642
   95MOL0     O12738   2.049  10.769  13.411  0.4056  0.3119 -0.1536
   95MOL0     C12739   1.963  10.799  13.134  0.2565  0.5890  1.4234
   95MOL0     C12740   1.950  10.831  12.998  0.3679 -0.0485  0.1114
   95MOL0     N12741   1.919  11.047  12.146  0.4243  0.1144  0.4353
   95MOL0     N12742   2.012  11.007  12.068  0.1967  0.3441 -0.0311
   95MOL0     C12743   2.665  10.783  11.182  0.0227  0.1246 -0.1749
   95MOL0     C12744   2.723  10.752  11.057 -0.2390  0.3582 -0.4693
   95MOL0     C12745   2.951  10.456  10.773  0.0693 -0.2325  1.3133
   95MOL0     C12746   3.061  10.527  10.725 -0.3444 -0.0146  0.3195
   95MOL0     C12747   3.155  10.462  10.640  0.0585 -0.2205  0.0663
   95MOL0     C12748   3.141  10.333  10.597  0.5013 -0.2383 -0.0834
   95MOL0     O12749   3.237  10.274  10.513  0.4972  0.6213  0.2874
   95MOL0     C12750   3.205  10.171  10.422  0.2824 -0.0712 -0.2639
   95MOL0     C12751   3.263  10.046  10.476  0.1587 -0.4098 -0.5751
   95MOL0     C12752   3.418  10.041  10.510  0.5744 -0.2669  0.6317
   95MOL0     C12753   3.517  10.098  10.402 -0.1181 -0.0620  0.3949
   95MOL0     C12754   3.480  10.044  10.272  0.0814  0.7568  0.4512
   95MOL0     C12755   3.452  10.003  10.158  0.7366  0.7099  0.6261
   95MOL0     C12756   3.044  10.260  10.665  0.3952  1.1440  0.1269
   95MOL0     C12757   2.947  10.321  10.747 -0.5525 -0.2085  0.0899
   95MOL0     H12758   2.997  10.588  11.152 -0.4391  0.3575 -0.0588
   95MOL0     H12759   2.908  10.658  11.381 -2.4407 -1.3646 -0.5604
   95MOL0     H12760   2.567  10.935  11.383 -0.5075  0.5020  1.0226
   95MOL0     H12761   2.473  10.778  11.383  2.3520 -3.2137  1.1848
   95MOL0     H12762   2.418  10.866  11.593 -0.0298  2.3735 -1.2179
   95MOL0     H12763   2.565  10.763  11.627 -1.4056 -1.5594 -1.3351
   95MOL0     H12764   2.707  10.967  11.604 -0.3367 -2.1561  1.6746
   95MOL0     H12765   2.562  11.066  11.570  1.4123  2.0749  0.7597
   95MOL0     H12766   2.655  10.952  11.826  3.3109  3.3519 -0.4346
   95MOL0     H12767   2.633  11.112  11.781  1.9129 -0.6935 -1.8320
   95MOL0     H12768   2.381  11.051  11.760 -0.9473  0.4929  0.8915
   95MOL0     H12769   2.421  10.897  11.838  0.2930  0.7522  1.4559
   95MOL0     H12770   2.516  11.052  12.045 -0.8420  0.5121  2.0117
   95MOL0     H12771   2.485  11.178  11.936  2.8826 -1.3734 -0.2190
   95MOL0     H12772   2.317  11.196  12.100  1.4350 -1.0809  1.9160
   95MOL0     H12773   2.241  11.142  11.940  0.6135 -2.9023 -0.9717
   95MOL0     H12774   2.327  10.947  12.162  0.4208  0.1382  0.7282
   95MOL0     H12775   2.259  10.905  12.012 -1.1296  1.4822 -0.3397
   95MOL0     H12776   2.163  11.021  12.364 -2.0328 -0.7828  3.0725
   95MOL0     H12777   1.926  11.208  12.410 -0.8619 -0.0301 -0.1510
   95MOL0     H12778   1.785  11.143  12.339  0.1508 -0.9196 -0.9325
   95MOL0     H12779   1.809  10.918  12.461 -0.2246  0.4213 -0.2431
   95MOL0     H12780   1.778  11.057  12.561 -0.4519 -1.4026 -0.3174
   95MOL0     H12781   2.026  11.069  12.605 -0.3417 -0.7768  2.2503
   95MOL0     H12782   2.055  10.919  12.524  0.6088  0.7608  1.0296
   95MOL0     H12783   1.858  10.839  12.691 -1.7202  1.2050  0.5108
   95MOL0     H12784   1.905  10.970  12.784  0.8306 -0.6906  0.3468
   95MOL0     H12785   2.232  10.708  12.877  0.5482  1.1501  0.8906
   95MOL0     H12786   2.322  10.552  13.091  1.3596 -0.2257 -0.9953
   95MOL0     H12787   2.386  10.721  13.105 -0.8450  0.7529  0.6828
   95MOL0     H12788   2.330  10.638  13.244  2.6831  0.1966 -0.2480
   95MOL0     H12789   1.902  10.477  13.479  0.6585  2.4160 -1.2173
   95MOL0     H12790   1.888  10.393  13.709  1.5783 -1.7788  4.5611
   95MOL0     H12791   2.288  10.283  13.961  0.1906  0.9129  0.0703
   95MOL0     H12792   2.265  10.463  13.969  1.1245 -0.1002  3.3404
   95MOL0     H12793   2.067  10.268  14.095 -0.9112  0.5026  1.9573
   95MOL0     H12794   2.225  10.276  14.176 -0.7710  0.4977  1.0444
   95MOL0     H12795   2.187  10.516  14.216 -1.2115  1.0617  0.0433
   95MOL0     H12796   2.066  10.411  14.286  2.8988  0.3259  1.6168
   95MOL0     H12797   2.049  10.645  14.120 -0.5916  1.0403  2.6514
   95MOL0     H12798   1.976  10.520  14.019 -2.4087  3.3271 -0.3901
   95MOL0     H12799   1.827  10.653  14.166  1.6889 -0.1784 -1.2014
   95MOL0     H12800   1.890  10.562  14.299  0.2166 -1.4004  0.5151
   95MOL0     H12801   1.720  10.455  14.070 -0.2520  1.3907 -0.2633
   95MOL0     H12802   1.815  10.343  14.174 -0.7968 -0.4021 -2.2143
   95MOL0     H12803   1.737  10.397  14.375 -1.8392  0.7324  0.5325
   95MOL0     H12804   1.613  10.349  14.276  1.1325 -1.0966 -0.0222
   95MOL0     H12805   1.670  10.634  14.365  1.2381 -0.7347  0.4101
   95MOL0     H12806   1.518  10.544  14.367  0.4429 -2.0784 -0.3716
   95MOL0     H12807   2.321  10.446  13.748 -0.5308 -2.7583  0.0017
   95MOL0     H12808   2.315  10.551  13.505  1.2374 -4.1600 -1.2110
   95MOL0     H12809   1.891  10.827  13.211 -3.6804  1.0226 -2.0710
   95MOL0     H12810   1.860  10.881  12.965  1.7556  2.3275 -0.3276
   95MOL0     H12811   2.569  10.833  11.184  0.4645  1.0006  0.9639
   95MOL0     H12812   2.672  10.791  10.970 -0.5444  1.7691  0.3277
   95MOL0     H12813   3.058  10.636  10.729  3.5620  0.2414  0.4544
   95MOL0     H12814   3.245  10.515  10.609 -1.4741  2.9464  0.6409
   95MOL0     H12815   3.098  10.173  10.400 -0.4550  0.9562  2.8305
   95MOL0     H12816   3.249  10.195  10.325 -2.3341  2.1599 -1.0471
   95MOL0     H12817   3.243   9.965  10.406  2.8819  0.5960 -2.6782
   95MOL0     H12818   3.216  10.015  10.570 -1.1714 -3.4011 -2.0937
   95MOL0     H12819   3.444   9.939  10.541 -1.9812 -0.6742  1.6363
   95MOL0     H12820   3.424  10.105  10.598 -1.5630 -0.5643  1.0366
   95MOL0     H12821   3.624  10.075  10.407 -0.0840 -0.0496 -0.1658
   95MOL0     H12822   3.517  10.207  10.399  0.4270 -0.0559  0.4836
   95MOL0     H12823   3.420   9.979  10.059 -1.8609 -0.6217  1.7064
   95MOL0     H12824   3.044  10.156  10.632  3.0623  1.4597 -1.1512
   95MOL0     H12825   2.866  10.269  10.797 -1.2515 -0.1538 -0.9400
   96MOL0     O12826   0.672   0.579   0.828 -0.0972  0.4640  0.6647
   96MOL0     C12827   0.633   0.652   0.918  0.7333  0.3634 -0.7663
   96MOL0     O12828   0.639   0.627   1.051 -0.3995 -1.1928  0.1076
   96MOL0     C12829   0.714   0.522   1.084 -0.5942 -0.1801 -0.5586
   96MOL0     C12830   0.845   0.547   1.124 -0.3588  0.4916  0.5554
   96MOL0     C12831   0.926   0.439   1.161  0.3171 -0.5262 -0.2174
   96MOL0     C12832   0.875   0.310   1.169 -0.7164  0.4273  0.6673
   96MOL0     O12833   0.969   0.207   1.193 -0.2855 -0.1383  0.3517
   96MOL0     C12834   0.930   0.067   1.158  0.1586 -1.1767 -0.2731
   96MOL0     C12835   1.046  -0.032   1.172 -0.4589 -0.3314 -0.4095
   96MOL0     C12836   1.097  -0.027   1.329 -0.1474  0.5355 -0.2453
   96MOL0     C12837   1.009  -0.118   1.413 -0.1031 -0.1338  0.5109
   96MOL0     C12838   1.053  -0.132   1.556  0.1284  0.1625  0.7157
   96MOL0     C12839   1.173  -0.223   1.580 -1.2665  0.1764  0.6449
   96MOL0     C12840   1.210  -0.248   1.727  0.5698 -0.4404 -0.7857
   96MOL0     C12841   1.337  -0.318   1.739 -0.1281 -0.4059  0.1213
   96MOL0     N12842   1.363  -0.376   1.867  1.3503 -0.1407 -0.3406
   96MOL0     C12843   1.351  -0.310   1.987 -0.2071  0.5010  0.3417
   96MOL0     C12844   1.355  -0.410   2.078 -0.2376  0.9880  0.1046
   96MOL0     C12845   1.357  -0.372   2.234 -0.4581 -0.0583 -0.6672
   96MOL0     C12846   1.275  -0.478   2.316 -0.7823 -0.2521 -0.4555
   96MOL0     C12847   1.122  -0.507   2.297 -0.1686  0.0107 -0.0515
   96MOL0     C12848   1.043  -0.380   2.317 -0.0471  0.4699  0.3457
   96MOL0     O12849   0.905  -0.401   2.290  0.0091  0.2952  0.2157
   96MOL0     C12850   0.820  -0.309   2.348 -0.4597  0.8017  0.3174
   96MOL0     C12851   0.855  -0.188   2.414 -0.5040  0.5040 -1.0724
   96MOL0     C12852   0.766  -0.104   2.478  0.6245 -0.4428 -0.0635
   96MOL0     C12853   0.822   0.034   2.502  0.2078  0.6496 -0.0262
   96MOL0     C12854   0.629  -0.140   2.484 -0.1370  0.1758 -0.2888
   96MOL0     C12855   0.525  -0.055   2.548 -0.2649 -1.1315 -0.1107
   96MOL0     O12856   0.396  -0.052   2.500  0.3549  0.6702  0.3120
   96MOL0     C12857   0.385  -0.042   2.360 -0.5898 -0.1564 -0.8030
   96MOL0     C12858   0.470   0.045   2.286 -0.5114  0.5831  0.3563
   96MOL0     C12859   0.460   0.054   2.142 -0.0459  0.4456  0.3548
   96MOL0     C12860   0.380  -0.041   2.079  0.0188 -0.1455 -0.1576
   96MOL0     O12861   0.405  -0.057   1.940  0.3979  0.4754 -0.2611
   96MOL0     C12862   0.310  -0.138   1.859  0.5835 -0.2527 -0.1061
   96MOL0     C12863   0.334  -0.102   1.710  0.1829  0.1010  0.0924
   96MOL0     C12864   0.251   0.015   1.662  0.6072  0.5330  0.1511
   96MOL0     C12865   0.280   0.152   1.720  0.5184 -0.6468  0.3088
   96MOL0     C12866   0.221   0.282   1.656  0.3447  0.3141 -0.3662
   96MOL0     C12867   0.096   0.345   1.710 -0.0767 -0.7853 -0.9041
   96MOL0     C12868  -0.027   0.253   1.715  0.4669 -0.2417 -0.6411
   96MOL0     C12869  -0.157   0.336   1.726 -0.2315  0.2538 -0.3978
   96MOL0    Cl12870  -0.185   0.417   1.561 -0.5414 -0.1223  0.1543
   96MOL0     C12871   0.298  -0.125   2.154  0.3302 -1.0194  0.9826
   96MOL0     C12872   0.286  -0.118   2.291  0.1245 -0.9486 -0.1204
   96MOL0     O12873   0.567   0.010   2.642  0.1961 -0.8421 -0.0729
   96MOL0     C12874   0.594  -0.256   2.418 -0.5401  0.3830  0.3291
   96MOL0     C12875   0.688  -0.344   2.367 -0.6688 -0.2259  0.6545
   96MOL0     N12876   1.366  -0.533   2.010  0.1452 -0.1913 -0.7593
   96MOL0     N12877   1.367  -0.512   1.886 -0.4740  0.3166 -0.5527
   96MOL0     C12878   0.748   0.284   1.118 -0.5841  0.2590 -0.1786
   96MOL0     C12879   0.666   0.396   1.078  0.1184  1.2131 -0.3316
   96MOL0     C12880   0.570   0.778   0.870 -0.0807  0.5045  0.5673
   96MOL0     C12881   0.498   0.781   0.751  0.0553  0.0981  0.0055
   96MOL0     C12882   0.441   0.901   0.696 -0.5080  0.3112  0.2774
   96MOL0     C12883   0.446   1.022   0.770 -0.3122 -0.3665  0.0617
   96MOL0     O12884   0.390   1.138   0.722 -0.2716 -0.6117 -0.0582
   96MOL0     C12885   0.424   1.167   0.591  0.2048 -1.1914  0.8227
   96MOL0     C12886   0.283   1.216   0.535  0.0259  0.6199 -0.0300
   96MOL0     C12887   0.296   1.232   0.386 -0.5534 -0.2287 -0.3408
   96MOL0     C12888   0.381   1.344   0.343  0.3979  0.3234  0.2875
   96MOL0     C12889   0.361   1.365   0.196  0.6107  0.8275 -0.2586
   96MOL0     C12890   0.311   1.381   0.089  0.2086  0.2873 -0.5292
   96MOL0     C12891   0.501   1.024   0.901 -0.4224 -0.3022  0.0685
   96MOL0     C12892   0.573   0.900   0.943 -0.3283 -0.2206 -0.6213
   96MOL0     H12893   0.898   0.642   1.126  1.3598 -0.4138  0.0064
   96MOL0     H12894   1.027   0.460   1.193  0.0207 -0.4090  0.6503
   96MOL0     H12895   0.848   0.034   1.223 -0.9818 -0.3908 -1.2594
   96MOL0     H12896   0.897   0.067   1.054 -3.4607  1.6303  0.6690
   96MOL0     H12897   1.010  -0.133   1.150  0.5115 -0.7192 -0.2665
   96MOL0     H12898   1.132  -0.009   1.109 -0.5818  2.2984  0.2426
   96MOL0     H12899   1.200  -0.059   1.345  0.4673  2.9854  1.1270
   96MOL0     H12900   1.096   0.075   1.367  1.8488  1.2247 -1.8891
   96MOL0     H12901   0.905  -0.083   1.408  0.2855  1.2338  1.3375
   96MOL0     H12902   1.005  -0.221   1.378 -1.3004  0.7805 -2.3582
   96MOL0     H12903   1.068  -0.027   1.584  1.3502 -0.2631  1.7501
   96MOL0     H12904   0.978  -0.173   1.624 -1.0289  2.3249  0.8595
   96MOL0     H12905   1.155  -0.319   1.530  2.8838 -0.2449 -0.3979
   96MOL0     H12906   1.253  -0.175   1.523  2.1400 -4.3408  1.1388
   96MOL0     H12907   1.211  -0.152   1.780 -0.0546  0.0374 -1.6159
   96MOL0     H12908   1.128  -0.308   1.768 -0.6821  0.4710 -1.8987
   96MOL0     H12909   1.411  -0.239   1.724 -1.0868  1.6517  4.3954
   96MOL0     H12910   1.349  -0.394   1.662 -2.8339 -2.2513  1.3634
   96MOL0     H12911   1.342  -0.205   2.014  1.1862  1.5601 -2.8700
   96MOL0     H12912   1.462  -0.386   2.263  0.0796 -1.1403 -2.9038
   96MOL0     H12913   1.330  -0.269   2.259  1.2782 -0.1992  2.2619
   96MOL0     H12914   1.314  -0.462   2.417  2.7346  0.3452 -1.7522
   96MOL0     H12915   1.319  -0.576   2.297 -1.0140 -0.7324  1.3311
   96MOL0     H12916   1.100  -0.591   2.363 -2.2315 -0.3427 -1.1051
   96MOL0     H12917   1.104  -0.542   2.195 -0.8000 -0.8915  0.3670
   96MOL0     H12918   1.082  -0.299   2.255  2.9388 -1.9916 -1.3016
   96MOL0     H12919   1.068  -0.332   2.412 -1.2023  3.4637 -0.7631
   96MOL0     H12920   0.959  -0.160   2.400 -0.6852  1.0036 -1.4696
   96MOL0     H12921   0.913   0.045   2.443  0.1267 -0.3014 -0.3522
   96MOL0     H12922   0.758   0.106   2.451  1.6624  1.1580 -1.2196
   96MOL0     H12923   0.843   0.050   2.608  3.2943 -0.4418 -0.3610
   96MOL0     H12924   0.542   0.107   2.340  0.6496 -0.0142 -0.4718
   96MOL0     H12925   0.534   0.119   2.096  0.9545 -0.9292 -0.0410
   96MOL0     H12926   0.334  -0.241   1.884  2.3719  0.1115 -0.2252
   96MOL0     H12927   0.206  -0.120   1.888  0.7047 -0.3554  0.3908
   96MOL0     H12928   0.436  -0.064   1.700 -0.2388  1.1781 -0.2951
   96MOL0     H12929   0.317  -0.189   1.647 -1.8752  0.3567  0.1970
   96MOL0     H12930   0.149  -0.017   1.686  1.2752 -2.8969 -1.0073
   96MOL0     H12931   0.257   0.022   1.553  0.4359  1.0371  0.1731
   96MOL0     H12932   0.240   0.152   1.821 -1.3391  2.3981 -0.3038
   96MOL0     H12933   0.388   0.165   1.716  1.1638 -4.6825  0.6512
   96MOL0     H12934   0.209   0.250   1.552 -1.9485  2.1102 -0.7424
   96MOL0     H12935   0.298   0.359   1.662  1.8776 -1.2420  0.6371
   96MOL0     H12936   0.105   0.383   1.812 -0.9050  0.6061 -1.3133
   96MOL0     H12937   0.075   0.440   1.658 -0.6138  1.2354  2.6807
   96MOL0     H12938  -0.001   0.199   1.807  0.9954  0.1400 -0.5617
   96MOL0     H12939  -0.043   0.192   1.626 -0.4959  0.7654 -1.1858
   96MOL0     H12940  -0.135   0.412   1.801  1.3156 -0.6795  0.1422
   96MOL0     H12941  -0.238   0.266   1.750 -1.3311  1.7827  0.5052
   96MOL0     H12942   0.256  -0.210   2.101  1.8468  0.1235 -2.3543
   96MOL0     H12943   0.229  -0.183   2.356 -3.0618  1.9303  0.2040
   96MOL0     H12944   0.491  -0.290   2.420 -0.7511  1.0686  1.6460
   96MOL0     H12945   0.654  -0.435   2.318 -0.1992  0.8338 -1.7796
   96MOL0     H12946   0.707   0.185   1.101 -0.6058  0.1095  0.7302
   96MOL0     H12947   0.567   0.388   1.034  0.0168  1.2794 -0.1166
   96MOL0     H12948   0.485   0.690   0.693  2.6657  0.4807 -1.3721
   96MOL0     H12949   0.430   0.903   0.588  3.0184 -1.7832 -0.2912
   96MOL0     H12950   0.504   1.238   0.566  0.5349 -2.7858 -3.5821
   96MOL0     H12951   0.453   1.083   0.528 -0.1774  0.7800 -2.2139
   96MOL0     H12952   0.258   1.312   0.582  0.8459  2.0853 -2.4179
   96MOL0     H12953   0.205   1.146   0.567 -0.9907  1.7497  0.0413
   96MOL0     H12954   0.198   1.249   0.342 -0.5135 -0.8968 -0.6933
   96MOL0     H12955   0.336   1.139   0.345 -0.0335 -2.3126  4.2641
   96MOL0     H12956   0.485   1.313   0.355  0.4822  1.3317  3.0428
   96MOL0     H12957   0.362   1.438   0.396 -0.1587  0.8110 -0.7437
   96MOL0     H12958   0.254   1.406   0.002 -1.6246  4.8123  1.6508
   96MOL0     H12959   0.497   1.120   0.951 -0.2377 -2.6799  5.3375
   96MOL0     H12960   0.618   0.905   1.041 -2.4029  0.0700  0.3774
   97MOL0     O12961   3.272   2.749   3.317  0.2526 -0.0368  0.2237
   97MOL0     C12962   3.387   2.780   3.283  0.1463  0.3130  0.0370
   97MOL0     O12963   3.500   2.696   3.285 -0.7534  0.2888  0.2435
   97MOL0     C12964   3.496   2.558   3.327  0.6814 -1.2073 -0.2988
   97MOL0     C12965   3.561   2.464   3.251 -0.3440  0.6523 -0.0350
   97MOL0     C12966   3.551   2.329   3.283  0.3788 -0.0157 -0.5794
   97MOL0     C12967   3.473   2.294   3.398  0.0860  0.5026 -0.6211
   97MOL0     O12968   3.440   2.168   3.439  0.1505  0.1151  0.4382
   97MOL0     C12969   3.522   2.060   3.396  0.4893  0.7620  0.6035
   97MOL0     C12970   3.657   2.075   3.464 -0.1523  0.0026  0.1571
   97MOL0     C12971   3.649   2.095   3.618  0.0318  0.6612 -1.2942
   97MOL0     C12972   3.783   2.074   3.687  0.5852 -0.0525  0.8644
   97MOL0     C12973   3.786   2.141   3.830 -0.2523  0.5173 -0.3727
   97MOL0     C12974   3.873   2.059   3.918 -0.0477  1.6636 -0.9373
   97MOL0     C12975   3.825   1.910   3.928 -0.3540 -0.4029  0.4001
   97MOL0     C12976   3.772   1.888   4.071  0.1401  0.3426 -0.0752
   97MOL0     N12977   3.741   1.743   4.076  0.0408 -0.1361  0.4577
   97MOL0     C12978   3.831   1.645   4.078  0.2103 -0.3009  0.0315
   97MOL0     C12979   3.755   1.536   4.043 -0.3604  0.0047 -0.5817
   97MOL0     C12980   3.816   1.398   4.042 -0.4734  0.6355 -0.4187
   97MOL0     C12981   3.731   1.289   3.970 -0.1977  0.1312  0.5704
   97MOL0     C12982   3.713   1.332   3.817 -0.1243 -0.9657 -1.7606
   97MOL0     C12983   3.635   1.228   3.741 -0.1487 -0.0428 -0.1358
   97MOL0     O12984   3.494   1.228   3.782 -0.1446  0.5708  0.2545
   97MOL0     C12985   3.412   1.139   3.719  0.2257  0.0961  0.3148
   97MOL0     C12986   3.275   1.153   3.744  1.0045  1.0904 -0.5481
   97MOL0     C12987   3.179   1.092   3.664 -0.0047 -0.5239 -0.3696
   97MOL0     C12988   3.030   1.094   3.704 -0.6219 -0.6801 -0.5783
   97MOL0     C12989   3.223   1.000   3.567 -0.6201 -0.9015 -1.2082
   97MOL0     C12990   3.132   0.926   3.472  0.9425 -0.3286 -0.2988
   97MOL0     O12991   3.158   0.795   3.457  0.4667 -0.3301 -0.7384
   97MOL0     C12992   3.151   0.742   3.329 -0.2672 -0.9589 -0.8450
   97MOL0     C12993   3.121   0.605   3.313 -0.4452  0.2279 -0.5786
   97MOL0     C12994   3.108   0.553   3.186 -0.3258  0.2684  0.2495
   97MOL0     C12995   3.132   0.621   3.067  0.7921 -0.3560 -0.0520
   97MOL0     O12996   3.118   0.557   2.948  0.2178 -0.0586 -0.2046
   97MOL0     C12997   3.149   0.629   2.826 -0.1189  0.5111 -0.3592
   97MOL0     C12998   3.137   0.544   2.702  0.1727  0.1003  0.1269
   97MOL0     C12999   3.229   0.418   2.717  0.3957 -0.6841 -0.5468
   97MOL0     C13000   3.210   0.335   2.588 -0.2310  0.3564 -0.3131
   97MOL0     C13001   3.064   0.279   2.585  0.1399  0.1538  0.0434
   97MOL0     C13002   3.055   0.135   2.536 -0.7598 -0.6180  0.9884
   97MOL0     C13003   3.109   0.031   2.636 -0.2423 -0.1422 -0.0514
   97MOL0     C13004   3.001  -0.016   2.736 -0.3446  0.0312 -0.1923
   97MOL0    Cl13005   3.081  -0.174   2.793 -0.2639 -0.0228 -0.0355
   97MOL0     C13006   3.184   0.746   3.080  0.9897 -0.5802 -0.5631
   97MOL0     C13007   3.187   0.806   3.206  0.2392 -0.2977 -0.8029
   97MOL0     O13008   3.043   0.990   3.417 -0.6540  0.5675 -0.2997
   97MOL0     C13009   3.362   0.973   3.552  1.1620 -0.1646 -0.3238
   97MOL0     C13010   3.452   1.056   3.609  0.1676  0.1075 -2.0738
   97MOL0     N13011   3.619   1.572   4.031  0.1916  0.2272 -0.5261
   97MOL0     N13012   3.615   1.699   4.040 -0.6385  0.1797  0.4904
   97MOL0     C13013   3.407   2.389   3.472  0.1496 -0.5005  0.3862
   97MOL0     C13014   3.415   2.520   3.435 -0.7076 -0.2803  0.2593
   97MOL0     C13015   3.411   2.917   3.252  0.2384 -0.0821 -0.8585
   97MOL0     C13016   3.307   3.009   3.274 -0.3435  0.1546  0.2247
   97MOL0     C13017   3.308   3.142   3.252  0.2663 -0.9028  0.1504
   97MOL0     C13018   3.431   3.202   3.211 -0.0692 -0.4021  0.7331
   97MOL0     O13019   3.451   3.332   3.191 -0.0340  0.4558  0.4902
   97MOL0     C13020   3.351   3.433   3.218  0.1197  0.3736 -0.9757
   97MOL0     C13021   3.408   3.571   3.251  0.1975 -0.0497  0.7300
   97MOL0     C13022   3.534   3.545   3.332  0.3054  0.1177 -0.2960
   97MOL0     C13023   3.592   3.681   3.369 -0.0953  0.5306  0.3314
   97MOL0     C13024   3.534   3.761   3.473 -0.4076  0.1461 -0.0132
   97MOL0     C13025   3.483   3.823   3.568 -0.2189  1.3271 -0.5414
   97MOL0     C13026   3.549   3.109   3.185 -0.3931  0.6210  0.5365
   97MOL0     C13027   3.528   2.970   3.206  0.2170 -0.4985 -0.1240
   97MOL0     H13028   3.627   2.487   3.168 -0.2452 -0.0779 -0.1630
   97MOL0     H13029   3.601   2.257   3.219  1.6566 -2.3057  2.6769
   97MOL0     H13030   3.472   1.967   3.424 -0.5640  0.7457 -1.1678
   97MOL0     H13031   3.547   2.060   3.289  1.7192 -1.9279  0.8056
   97MOL0     H13032   3.698   1.976   3.441 -2.7251 -0.8210 -1.3347
   97MOL0     H13033   3.708   2.164   3.427 -2.0876 -0.4044 -4.0098
   97MOL0     H13034   3.592   2.178   3.661  1.6043  0.1887  2.0523
   97MOL0     H13035   3.600   2.005   3.656 -0.6047  0.5557 -2.3490
   97MOL0     H13036   3.815   1.971   3.669 -1.9876 -0.8714  0.7058
   97MOL0     H13037   3.856   2.124   3.622 -2.0296  0.2860 -2.0533
   97MOL0     H13038   3.817   2.242   3.803  2.7906 -0.6454 -1.6954
   97MOL0     H13039   3.690   2.149   3.881  0.0192  0.7187  0.1133
   97MOL0     H13040   3.979   2.055   3.888  0.7271  1.8923  1.5541
   97MOL0     H13041   3.889   2.103   4.017  0.7677 -1.0324  0.2156
   97MOL0     H13042   3.747   1.873   3.862  0.7611 -0.3470 -0.9924
   97MOL0     H13043   3.913   1.849   3.904  0.3666  1.1059 -0.9511
   97MOL0     H13044   3.685   1.953   4.082  0.0706  0.4679 -1.1912
   97MOL0     H13045   3.847   1.908   4.148 -0.2685  1.1623  0.1232
   97MOL0     H13046   3.936   1.650   4.106  0.5362  1.8422 -1.3546
   97MOL0     H13047   3.914   1.406   3.994 -0.3140 -0.6088 -0.3524
   97MOL0     H13048   3.844   1.363   4.141  3.3146 -0.6350 -1.7517
   97MOL0     H13049   3.633   1.285   4.018 -0.8837 -0.4726 -0.8160
   97MOL0     H13050   3.785   1.195   3.978  1.6394  0.8187 -2.2509
   97MOL0     H13051   3.812   1.353   3.775  0.5715  2.0819  1.0351
   97MOL0     H13052   3.667   1.431   3.821  1.0539 -0.3642 -2.5275
   97MOL0     H13053   3.668   1.126   3.763 -2.7660 -0.8460  0.3298
   97MOL0     H13054   3.651   1.242   3.633  0.0827 -1.9766 -0.3838
   97MOL0     H13055   3.239   1.196   3.837 -1.1763 -0.0971 -0.7746
   97MOL0     H13056   3.005   1.198   3.727  1.4371 -0.1012 -0.6708
   97MOL0     H13057   2.967   1.057   3.623  2.5748 -0.7223 -3.3115
   97MOL0     H13058   3.016   1.022   3.785  1.9576 -1.3636 -0.6344
   97MOL0     H13059   3.114   0.545   3.403  1.2906 -0.1519 -0.6721
   97MOL0     H13060   3.059   0.459   3.163 -2.0655  1.0679  0.5157
   97MOL0     H13061   3.090   0.720   2.814 -1.2251 -0.1808 -0.2932
   97MOL0     H13062   3.253   0.663   2.831  0.2064 -0.6017  1.8654
   97MOL0     H13063   3.030   0.519   2.698 -0.1108  0.9737  1.5231
   97MOL0     H13064   3.161   0.600   2.611  0.8103 -0.1297  0.1467
   97MOL0     H13065   3.211   0.347   2.799  0.6692 -0.8771 -0.6511
   97MOL0     H13066   3.333   0.449   2.727 -0.3274  2.8589 -2.3958
   97MOL0     H13067   3.219   0.407   2.506  2.0227  1.6170  0.9509
   97MOL0     H13068   3.296   0.269   2.573 -1.4818 -1.5793  0.5460
   97MOL0     H13069   3.004   0.352   2.528  1.0601 -0.8256 -2.3014
   97MOL0     H13070   3.029   0.292   2.688 -1.4151  0.8156 -0.5358
   97MOL0     H13071   2.957   0.097   2.504 -0.4174  0.1334 -1.1566
   97MOL0     H13072   3.111   0.133   2.442  1.1294  2.2501  1.9435
   97MOL0     H13073   3.188   0.073   2.698  1.1708  1.3688 -2.7035
   97MOL0     H13074   3.137  -0.054   2.574 -4.5989 -2.5156  0.7738
   97MOL0     H13075   2.906  -0.050   2.695  0.2369 -0.1854 -1.4089
   97MOL0     H13076   2.992   0.070   2.803 -0.8517  1.4669 -1.9988
   97MOL0     H13077   3.200   0.812   2.995 -2.8996 -0.2895 -1.2196
   97MOL0     H13078   3.239   0.901   3.205  0.3380 -0.3007  1.0152
   97MOL0     H13079   3.391   0.891   3.486  0.8625 -0.3901 -0.1804
   97MOL0     H13080   3.559   1.043   3.591  1.4698  0.6194  3.5287
   97MOL0     H13081   3.339   2.361   3.553 -2.6430 -0.9701 -1.9548
   97MOL0     H13082   3.357   2.590   3.493  0.6056 -0.3328  1.7076
   97MOL0     H13083   3.209   2.967   3.297  0.4348 -3.2143 -2.0039
   97MOL0     H13084   3.223   3.206   3.275  1.6695  2.1152 -2.2823
   97MOL0     H13085   3.277   3.439   3.138 -0.8755  1.1265 -0.0334
   97MOL0     H13086   3.296   3.403   3.307  3.7358 -0.6544  1.1277
   97MOL0     H13087   3.333   3.618   3.316 -1.0060  1.2197 -1.4295
   97MOL0     H13088   3.420   3.629   3.158 -3.5584  0.4327  0.3913
   97MOL0     H13089   3.613   3.495   3.274 -0.2649 -1.3966  0.1885
   97MOL0     H13090   3.521   3.485   3.423  1.6699 -0.9661 -0.7774
   97MOL0     H13091   3.582   3.738   3.276 -0.4429  0.9326  0.6125
   97MOL0     H13092   3.697   3.664   3.397  0.1321  1.1740 -0.1003
   97MOL0     H13093   3.428   3.845   3.657 -2.2995 -1.8852 -0.8538
   97MOL0     H13094   3.643   3.150   3.151 -0.8880 -0.9571 -3.4018
   97MOL0     H13095   3.617   2.917   3.175 -0.6030 -2.1261  0.1748
   98MOL0     O13096  10.692   3.293   4.737 -0.9884  0.1273  0.7565
   98MOL0     C13097  10.678   3.407   4.689 -0.4206 -0.1854  0.6488
   98MOL0     O13098  10.567   3.455   4.617 -0.5962  0.2764  0.9565
   98MOL0     C13099  10.456   3.369   4.603  0.2218 -0.9878 -0.0411
   98MOL0     C13100  10.445   3.307   4.482 -0.0352 -0.4433 -1.0078
   98MOL0     C13101  10.332   3.237   4.442  0.7047 -0.0953 -0.0343
   98MOL0     C13102  10.227   3.232   4.530 -0.8194 -0.0779 -0.1084
   98MOL0     O13103  10.127   3.144   4.489 -0.4928  0.5129  0.3780
   98MOL0     C13104   9.995   3.179   4.527 -0.5089 -0.0215 -0.0971
   98MOL0     C13105   9.939   3.299   4.435  0.5167  0.2980 -0.0584
   98MOL0     C13106   9.818   3.369   4.470  0.6577  0.8073 -0.7933
   98MOL0     C13107   9.707   3.279   4.518 -1.1484  0.4928 -0.6069
   98MOL0     C13108   9.567   3.348   4.537 -0.3419 -0.7494 -0.0867
   98MOL0     C13109   9.461   3.240   4.563 -0.0428  0.4532 -0.3171
   98MOL0     C13110   9.323   3.300   4.602  0.0376 -0.3794  0.1912
   98MOL0     C13111   9.215   3.202   4.568  1.1728  0.5745 -0.2016
   98MOL0     N13112   9.078   3.237   4.612  0.2016 -0.7325 -0.2260
   98MOL0     C13113   8.982   3.322   4.552 -0.0243  0.6770  0.3282
   98MOL0     C13114   8.884   3.350   4.641  0.3994 -1.4943  0.3495
   98MOL0     C13115   8.757   3.426   4.610  0.7875 -1.3447 -1.4873
   98MOL0     C13116   8.639   3.329   4.594  0.0376  0.3264  0.3513
   98MOL0     C13117   8.525   3.387   4.513  0.0850  0.3850  0.1476
   98MOL0     C13118   8.392   3.315   4.519 -0.5080 -0.0146  0.1729
   98MOL0     O13119   8.317   3.367   4.634  0.5816  0.5373 -0.3202
   98MOL0     C13120   8.181   3.351   4.655  0.2036 -0.6030 -0.2405
   98MOL0     C13121   8.099   3.254   4.605 -0.0167 -0.2317  0.5534
   98MOL0     C13122   7.962   3.238   4.645  0.3163  1.3119  0.9688
   98MOL0     C13123   7.891   3.123   4.576  0.5989  0.0744 -0.4384
   98MOL0     C13124   7.898   3.339   4.726  0.0609 -0.1225  0.4126
   98MOL0     C13125   7.750   3.345   4.747 -0.2893 -1.0526  1.5400
   98MOL0     O13126   7.671   3.250   4.694 -0.7194  0.1543  0.0148
   98MOL0     C13127   7.540   3.240   4.717 -1.0619  1.3564 -0.2285
   98MOL0     C13128   7.446   3.300   4.631 -0.6127 -0.2678  0.1145
   98MOL0     C13129   7.313   3.268   4.632  0.4771 -0.7178  0.0135
   98MOL0     C13130   7.266   3.179   4.725  0.5912  0.5493 -0.3011
   98MOL0     O13131   7.140   3.111   4.735 -0.1089 -0.6868  0.0847
   98MOL0     C13132   7.067   3.114   4.606  0.2026 -0.2227  1.2847
   98MOL0     C13133   6.917   3.074   4.619 -0.4314 -1.1736 -0.2362
   98MOL0     C13134   6.825   3.193   4.657 -0.2961 -0.1010 -0.1946
   98MOL0     C13135   6.680   3.141   4.643  0.5384 -0.2696 -0.7088
   98MOL0     C13136   6.581   3.244   4.695  0.3853 -0.3704 -0.0734
   98MOL0     C13137   6.435   3.193   4.687  0.2821  0.3819  0.2344
   98MOL0     C13138   6.333   3.310   4.744 -0.3264  0.7324  0.3430
   98MOL0     C13139   6.277   3.379   4.618 -1.3547  0.3283  0.2518
   98MOL0    Cl13140   6.388   3.458   4.504  0.1498 -0.0290 -0.1201
   98MOL0     C13141   7.359   3.126   4.824  0.9790  0.0938  0.6148
   98MOL0     C13142   7.497   3.160   4.821  0.2605 -0.2600 -0.0550
   98MOL0     O13143   7.702   3.428   4.826 -0.8350  0.1735  0.5430
   98MOL0     C13144   7.978   3.443   4.779  0.6261 -0.6639  0.0856
   98MOL0     C13145   8.120   3.445   4.748 -0.2066 -0.7276  0.1991
   98MOL0     N13146   8.920   3.283   4.759  0.1000  0.0555  0.4570
   98MOL0     N13147   9.037   3.230   4.738  0.4166  0.5774  0.2245
   98MOL0     C13148  10.238   3.291   4.653  0.5318  0.2493 -0.2238
   98MOL0     C13149  10.344   3.365   4.688 -0.3003 -0.6256 -0.5289
   98MOL0     C13150  10.774   3.520   4.725 -0.1342 -0.5469  0.1269
   98MOL0     C13151  10.752   3.654   4.672  0.7188 -0.7112  0.2550
   98MOL0     C13152  10.820   3.755   4.737 -0.1625  0.0126  0.5232
   98MOL0     C13153  10.922   3.734   4.835 -0.4781  0.2085 -0.9633
   98MOL0     O13154  10.994   3.827   4.899 -0.5910 -0.4523 -0.4891
   98MOL0     C13155  11.010   3.964   4.843  0.1973 -0.3298  0.4445
   98MOL0     C13156  11.131   4.012   4.906  0.7650 -0.0442 -0.1155
   98MOL0     C13157  11.263   3.954   4.849 -0.2869 -0.5383 -1.4068
   98MOL0     C13158  11.389   4.035   4.900  0.6792  0.3835  0.5810
   98MOL0     C13159  11.435   4.003   5.031 -0.1491 -0.4003  0.3896
   98MOL0     C13160  11.473   3.975   5.146  0.6848  0.6156 -0.6963
   98MOL0     C13161  10.943   3.603   4.871  0.3696 -0.8705  0.0223
   98MOL0     C13162  10.874   3.495   4.813 -0.7045 -0.1013 -0.2201
   98MOL0     H13163  10.526   3.321   4.411 -1.1155  0.2733 -2.1517
   98MOL0     H13164  10.309   3.183   4.350 -0.6553 -1.2763  0.9485
   98MOL0     H13165   9.942   3.085   4.510  1.4795 -0.9623 -1.4567
   98MOL0     H13166   9.987   3.201   4.634 -0.7344  3.1120 -0.6522
   98MOL0     H13167  10.016   3.373   4.413  1.1935 -1.1771 -3.2678
   98MOL0     H13168   9.922   3.255   4.336 -0.6548  1.4353 -0.3874
   98MOL0     H13169   9.832   3.447   4.545  0.6760 -0.3344  0.4328
   98MOL0     H13170   9.790   3.416   4.375 -2.6740  2.2665  0.7605
   98MOL0     H13171   9.711   3.196   4.446 -2.6517  1.5035 -1.9299
   98MOL0     H13172   9.731   3.239   4.617  1.0002  1.6096 -0.6191
   98MOL0     H13173   9.566   3.428   4.611 -1.6511  1.1737 -2.0615
   98MOL0     H13174   9.551   3.400   4.442  0.9074  1.5688  0.9037
   98MOL0     H13175   9.445   3.168   4.483 -0.3433 -0.6288  0.6892
   98MOL0     H13176   9.500   3.174   4.641  0.5038 -0.6332 -1.4662
   98MOL0     H13177   9.310   3.314   4.709 -2.9238 -0.1318 -0.1098
   98MOL0     H13178   9.298   3.395   4.553 -4.0205  0.7104  3.6914
   98MOL0     H13179   9.234   3.104   4.611 -1.8618 -0.2037 -0.3863
   98MOL0     H13180   9.203   3.183   4.461 -1.2758  0.2299  0.0592
   98MOL0     H13181   8.968   3.348   4.447 -0.1404  1.0524  0.4359
   98MOL0     H13182   8.738   3.499   4.689  1.0447 -1.5092 -1.2724
   98MOL0     H13183   8.778   3.481   4.519  0.6029  2.0950  0.3845
   98MOL0     H13184   8.603   3.296   4.692  1.1599 -0.1059  0.6400
   98MOL0     H13185   8.685   3.242   4.546 -0.6027  1.6032 -2.8038
   98MOL0     H13186   8.557   3.349   4.416 -0.3769  0.5218 -0.0581
   98MOL0     H13187   8.515   3.495   4.505 -2.8045  0.0377 -4.0413
   98MOL0     H13188   8.397   3.207   4.532 -4.4066 -0.4259 -0.5587
   98MOL0     H13189   8.323   3.327   4.435  0.5009 -1.2500 -0.8756
   98MOL0     H13190   8.156   3.183   4.545 -0.5454 -0.4916  0.3540
   98MOL0     H13191   7.963   3.042   4.569 -0.7500 -1.1198 -1.0030
   98MOL0     H13192   7.817   3.076   4.642  2.2780 -1.8588  0.1663
   98MOL0     H13193   7.840   3.159   4.486 -0.4658  2.2113  0.9194
   98MOL0     H13194   7.504   3.361   4.563  0.0564  0.0970  0.9817
   98MOL0     H13195   7.243   3.313   4.562  2.1177 -0.6672 -1.7071
   98MOL0     H13196   7.071   3.211   4.556  1.7678 -0.7586  0.2962
   98MOL0     H13197   7.105   3.054   4.523 -0.6636 -0.0495  0.7485
   98MOL0     H13198   6.882   3.039   4.522 -1.0297 -0.3829 -0.3112
   98MOL0     H13199   6.912   2.997   4.697  1.5958 -0.0184  1.1397
   98MOL0     H13200   6.851   3.269   4.583 -0.2782  0.5541  0.4694
   98MOL0     H13201   6.831   3.227   4.761 -0.1485  1.4048 -0.6624
   98MOL0     H13202   6.657   3.121   4.538  3.3002  1.8778 -1.8685
   98MOL0     H13203   6.668   3.046   4.696 -0.9875  0.0236 -0.4844
   98MOL0     H13204   6.598   3.336   4.639 -2.7056  2.8045  3.6163
   98MOL0     H13205   6.593   3.269   4.801  1.0624  0.5447 -0.3568
   98MOL0     H13206   6.406   3.173   4.584 -2.7660  0.9812  0.8635
   98MOL0     H13207   6.417   3.091   4.720 -1.8832  1.6410  3.5615
   98MOL0     H13208   6.390   3.370   4.815  0.7331 -0.2028  0.3189
   98MOL0     H13209   6.258   3.247   4.793  0.6672  0.6580  1.8154
   98MOL0     H13210   6.198   3.448   4.648 -0.8032  0.5496  1.2529
   98MOL0     H13211   6.224   3.313   4.548  0.6033 -1.8453  0.6916
   98MOL0     H13212   7.319   3.056   4.897  2.2234 -0.4335  0.8172
   98MOL0     H13213   7.573   3.121   4.889 -0.2737  0.1328  0.7893
   98MOL0     H13214   7.933   3.518   4.844  1.3461 -2.2055  2.5237
   98MOL0     H13215   8.181   3.528   4.780 -1.3603  0.2621 -0.0860
   98MOL0     H13216  10.169   3.263   4.733  2.8479  1.1121  2.2248
   98MOL0     H13217  10.349   3.415   4.784  0.8052 -1.2709 -0.2442
   98MOL0     H13218  10.658   3.679   4.622 -1.2483 -1.0902  3.4792
   98MOL0     H13219  10.788   3.856   4.710 -0.1795 -0.4830 -1.4474
   98MOL0     H13220  11.017   3.949   4.735 -1.0844 -0.4593  0.3576
   98MOL0     H13221  10.920   4.021   4.871  0.6369 -0.2820  1.8255
   98MOL0     H13222  11.114   3.984   5.011 -2.5682 -4.0733 -1.4624
   98MOL0     H13223  11.139   4.121   4.901  1.8789 -0.0660  0.8512
   98MOL0     H13224  11.252   3.955   4.740  0.7551 -0.9775 -1.5304
   98MOL0     H13225  11.273   3.848   4.876  1.1418 -0.9336 -3.2728
   98MOL0     H13226  11.359   4.140   4.896 -0.3635  0.0954  0.3270
   98MOL0     H13227  11.466   4.019   4.825 -0.3131 -0.4167 -0.3059
   98MOL0     H13228  11.493   3.959   5.250 -4.1449 -4.4057 -0.1133
   98MOL0     H13229  11.021   3.599   4.947  0.1123  1.0207  0.4262
   98MOL0     H13230  10.892   3.395   4.853 -2.4361 -0.5311 -0.4289
   99MOL0     O13231   1.595   2.813  10.566  0.4555 -0.1763 -0.6476
   99MOL0     C13232   1.682   2.750  10.507 -0.8743  0.9251  0.3717
   99MOL0     O13233   1.780   2.803  10.422  0.1746  0.3520 -0.7052
   99MOL0     C13234   1.750   2.938  10.386 -0.8056  0.7738 -0.4272
   99MOL0     C13235   1.859   3.025  10.372  0.3099  0.2089 -0.0564
   99MOL0     C13236   1.851   3.154  10.320 -0.3299 -0.1166 -0.1707
   99MOL0     C13237   1.723   3.201  10.280  0.4199  0.2006 -0.0571
   99MOL0     O13238   1.696   3.329  10.239 -0.1885 -0.4375 -0.2727
   99MOL0     C13239   1.767   3.376  10.132  0.2517  0.0605  0.6817
   99MOL0     C13240   1.711   3.516  10.112 -0.2521  0.6518 -0.2348
   99MOL0     C13241   1.618   3.516   9.994  0.3735  0.1937 -0.5174
   99MOL0     C13242   1.528   3.642   9.995  0.3329 -1.0966 -0.1030
   99MOL0     C13243   1.434   3.655   9.863 -0.9022 -0.0098 -0.2811
   99MOL0     C13244   1.389   3.806   9.833 -0.3262  0.4646 -0.1726
   99MOL0     C13245   1.318   3.885   9.944  0.6783  0.0685 -0.4444
   99MOL0     C13246   1.197   3.828  10.014 -0.2956  0.0345 -0.5453
   99MOL0     N13247   1.091   3.768   9.941  0.7390 -0.5908  0.0970
   99MOL0     C13248   1.076   3.629   9.938  0.4020  0.0992 -0.8417
   99MOL0     C13249   0.948   3.613   9.882  0.2728 -0.2600  0.6619
   99MOL0     C13250   0.859   3.492   9.871 -0.1290  1.2458 -0.5541
   99MOL0     C13251   0.825   3.429  10.007  0.1001 -0.2616 -0.2736
   99MOL0     C13252   0.731   3.307   9.993 -0.1433 -0.4408 -0.4058
   99MOL0     C13253   0.637   3.301  10.112 -0.8442 -0.7833 -0.4621
   99MOL0     O13254   0.561   3.183  10.096  0.0428  0.1139  0.1161
   99MOL0     C13255   0.475   3.154  10.202  0.5448  0.7173  0.3804
   99MOL0     C13256   0.410   3.027  10.214  0.1132 -1.6023  1.2999
   99MOL0     C13257   0.320   2.994  10.318  0.0736 -0.4149 -0.5460
   99MOL0     C13258   0.281   2.850  10.338  0.4105 -1.3394 -0.0440
   99MOL0     C13259   0.288   3.088  10.413 -0.9924 -0.3152 -0.6948
   99MOL0     C13260   0.211   3.055  10.534 -0.3476 -0.0589  0.8015
   99MOL0     O13261   0.264   3.100  10.648  0.3093  0.5724  0.0677
   99MOL0     C13262   0.190   3.073  10.767  0.2167  0.1933  0.0593
   99MOL0     C13263   0.100   3.163  10.836 -0.2504 -0.0425 -0.5380
   99MOL0     C13264   0.038   3.130  10.958  0.2718  0.2997  0.8458
   99MOL0     C13265   0.063   3.001  11.009  0.6262 -0.3524 -0.3613
   99MOL0     O13266  -0.000   2.952  11.123 -0.4935 -0.4736 -0.7049
   99MOL0     C13267  -0.114   3.024  11.173  0.3212 -0.4506 -0.3663
   99MOL0     C13268  -0.175   2.954  11.291  0.2903 -0.0928  0.5533
   99MOL0     C13269  -0.311   3.025  11.340  1.5346 -0.0461  0.7048
   99MOL0     C13270  -0.296   3.084  11.481 -0.1221  0.2060  0.4640
   99MOL0     C13271  -0.419   3.165  11.526  0.6755 -0.2199 -0.3851
   99MOL0     C13272  -0.541   3.088  11.539  0.2291  0.0368 -0.1150
   99MOL0     C13273  -0.616   3.127  11.661  0.6670  0.2040 -0.2059
   99MOL0     C13274  -0.758   3.074  11.685  0.3921 -0.3831  1.2109
   99MOL0    Cl13275  -0.753   2.919  11.788  0.3964 -0.0841 -0.0907
   99MOL0     C13276   0.144   2.912  10.945 -0.6262  0.1628  1.0687
   99MOL0     C13277   0.215   2.950  10.831  0.1827  0.4701  0.7185
   99MOL0     O13278   0.103   3.004  10.522 -0.6224  0.7560  0.0183
   99MOL0     C13279   0.353   3.212  10.409  0.4187 -0.2333  0.4016
   99MOL0     C13280   0.438   3.241  10.308 -0.1894  0.7776  0.9058
   99MOL0     N13281   0.902   3.750   9.850  0.3980 -0.5472  0.5009
   99MOL0     N13282   0.985   3.834   9.880 -0.3582  0.2290  0.4961
   99MOL0     C13283   1.617   3.114  10.283  0.4741  1.0496  1.1644
   99MOL0     C13284   1.620   2.980  10.343 -0.0756  0.6694 -0.3588
   99MOL0     C13285   1.657   2.609  10.487  0.8796 -0.2767  0.0755
   99MOL0     C13286   1.733   2.533  10.402 -0.8390 -0.0171  0.0763
   99MOL0     C13287   1.709   2.400  10.376  0.3647  0.4361 -1.0663
   99MOL0     C13288   1.596   2.336  10.419  0.1754  0.5564 -0.7673
   99MOL0     O13289   1.548   2.218  10.395  0.1819  1.0561 -0.3338
   99MOL0     C13290   1.647   2.109  10.419  1.2507  0.4601  0.7852
   99MOL0     C13291   1.589   1.968  10.390 -0.3493  0.1478  0.6960
   99MOL0     C13292   1.698   1.866  10.429  0.0948  0.3121  0.9368
   99MOL0     C13293   1.772   1.815  10.296 -0.6918 -0.3587 -0.0425
   99MOL0     C13294   1.828   1.912  10.208 -0.0004 -0.4886  0.0746
   99MOL0     C13295   1.899   1.979  10.138 -0.0016  1.1890  0.6770
   99MOL0     C13296   1.501   2.415  10.501 -0.1745 -0.3163  0.3898
   99MOL0     C13297   1.538   2.545  10.540  0.0903  0.0565  0.8759
   99MOL0     H13298   1.959   2.989  10.393 -0.0586 -2.4574 -2.2663
   99MOL0     H13299   1.939   3.215  10.307  0.4141 -1.1238  0.0203
   99MOL0     H13300   1.873   3.379  10.159  1.8436  2.8511 -4.4191
   99MOL0     H13301   1.753   3.310  10.046 -1.6159  1.4676 -0.1833
   99MOL0     H13302   1.644   3.544  10.195 -1.6901 -1.7799 -0.4752
   99MOL0     H13303   1.796   3.585  10.110  1.3295 -1.0150  2.6544
   99MOL0     H13304   1.687   3.516   9.909  0.4930  0.0187 -0.4209
   99MOL0     H13305   1.560   3.423  10.004  2.8059 -1.7973 -3.2341
   99MOL0     H13306   1.473   3.653  10.089  0.7050 -1.1699  0.1294
   99MOL0     H13307   1.590   3.731   9.982  0.5715 -1.5663 -2.6963
   99MOL0     H13308   1.497   3.616   9.784  3.0921 -2.0290  3.4859
   99MOL0     H13309   1.348   3.588   9.872 -2.6704  1.8756 -2.0979
   99MOL0     H13310   1.476   3.860   9.797  1.0486 -0.5890  1.4402
   99MOL0     H13311   1.313   3.803   9.755 -1.3918  1.6905  0.7632
   99MOL0     H13312   1.394   3.900  10.020 -0.0085 -2.2964  0.8257
   99MOL0     H13313   1.303   3.980   9.892  0.3829  1.2055  1.6267
   99MOL0     H13314   1.161   3.905  10.083 -3.4021 -0.7851 -1.0859
   99MOL0     H13315   1.238   3.742  10.069  2.4481  0.9571 -1.0408
   99MOL0     H13316   1.131   3.548   9.984 -3.0738 -1.6456  0.6132
   99MOL0     H13317   0.764   3.513   9.821 -0.1575 -1.0656 -1.6087
   99MOL0     H13318   0.906   3.416   9.808  0.2057  0.6882  0.3513
   99MOL0     H13319   0.762   3.504  10.057 -2.0801 -2.3035  0.2062
   99MOL0     H13320   0.904   3.396  10.075  1.5345 -0.9204 -2.2049
   99MOL0     H13321   0.785   3.213   9.990  0.7644  0.0950 -1.1653
   99MOL0     H13322   0.672   3.314   9.901 -2.4948  0.3360  1.0650
   99MOL0     H13323   0.570   3.387  10.100  0.2295 -0.0478 -1.4530
   99MOL0     H13324   0.703   3.297  10.198  0.7397 -3.3841 -1.6653
   99MOL0     H13325   0.422   2.968  10.123 -3.5114 -1.5334  0.6221
   99MOL0     H13326   0.313   2.810  10.434  0.4523  1.2365  1.0929
   99MOL0     H13327   0.172   2.858  10.336  0.4710 -0.5060 -1.0259
   99MOL0     H13328   0.313   2.793  10.250 -0.2464  0.2124 -1.3540
   99MOL0     H13329   0.074   3.259  10.794  1.3394  0.1919 -1.0569
   99MOL0     H13330  -0.026   3.205  11.003 -0.1909 -1.0784  2.5873
   99MOL0     H13331  -0.095   3.128  11.199  0.9744 -0.1948 -1.7584
   99MOL0     H13332  -0.172   3.029  11.080 -1.0409  2.0406  0.5383
   99MOL0     H13333  -0.196   2.854  11.252 -2.3598  1.7675 -3.4364
   99MOL0     H13334  -0.104   2.961  11.374  1.4960 -0.4656 -0.4150
   99MOL0     H13335  -0.388   2.947  11.334 -0.5193  1.9827 -1.8213
   99MOL0     H13336  -0.351   3.104  11.276 -2.4006 -0.3750  2.4572
   99MOL0     H13337  -0.277   3.002  11.551  0.9264  3.0110  3.6923
   99MOL0     H13338  -0.205   3.145  11.473  1.9589 -2.8295 -1.7608
   99MOL0     H13339  -0.424   3.261  11.476  3.3838 -0.0221 -0.4234
   99MOL0     H13340  -0.392   3.209  11.623  2.6396 -2.2731  0.1123
   99MOL0     H13341  -0.598   3.091  11.445  0.1782 -2.2395 -0.2301
   99MOL0     H13342  -0.513   2.984  11.562 -0.4619  0.3973  2.6914
   99MOL0     H13343  -0.627   3.236  11.656  1.2697  0.3505  1.1459
   99MOL0     H13344  -0.563   3.099  11.753  1.0577  0.0617 -0.4707
   99MOL0     H13345  -0.809   3.047  11.592  3.8532  1.0304 -1.3208
   99MOL0     H13346  -0.805   3.154  11.743  0.9709  0.8551  0.0340
   99MOL0     H13347   0.163   2.814  10.987 -2.8977 -0.5479  0.5534
   99MOL0     H13348   0.272   2.871  10.785 -0.0901  0.3449  0.5904
   99MOL0     H13349   0.326   3.279  10.491 -0.3334 -3.4251  2.9848
   99MOL0     H13350   0.490   3.336  10.302  0.1601  0.5258 -0.3069
   99MOL0     H13351   1.524   3.161  10.253  0.8739  0.6651 -0.7634
   99MOL0     H13352   1.527   2.926  10.356 -0.9868  2.7138  2.5505
   99MOL0     H13353   1.821   2.581  10.361  0.1371  1.8194  3.8251
   99MOL0     H13354   1.783   2.346  10.318  0.0847 -0.7753 -0.3339
   99MOL0     H13355   1.748   2.130  10.382  1.5697 -1.6784  0.3024
   99MOL0     H13356   1.660   2.117  10.527 -0.3305  4.5689  0.8455
   99MOL0     H13357   1.559   1.949  10.287  1.5223 -3.0998  0.6242
   99MOL0     H13358   1.498   1.951  10.449 -1.8449  1.4270 -1.1256
   99MOL0     H13359   1.656   1.775  10.471  5.0870 -2.1336  1.4528
   99MOL0     H13360   1.768   1.904  10.504  0.8565  1.5120 -0.3065
   99MOL0     H13361   1.700   1.761  10.234 -0.2819  1.1363 -1.8999
   99MOL0     H13362   1.859   1.755  10.325  0.2757  1.0951  0.1451
   99MOL0     H13363   1.966   2.036  10.077  0.9594  1.5301  1.9820
   99MOL0     H13364   1.403   2.377  10.526  0.1341 -1.9842 -0.7599
   99MOL0     H13365   1.483   2.601  10.615  1.6604  1.9972  0.6491
  100MOL0     O13366   5.837   5.604   8.940 -0.9624 -0.3792 -0.2523
  100MOL0     C13367   5.962   5.599   8.937 -0.2823  0.3549 -0.5958
  100MOL0     O13368   6.049   5.683   8.997 -0.3997 -0.3936 -0.4367
  100MOL0     C13369   6.001   5.746   9.113 -0.7985 -0.9819  0.0368
  100MOL0     C13370   5.874   5.810   9.129 -0.3016  0.2890  0.4708
  100MOL0     C13371   5.837   5.857   9.256  0.5634 -0.1474 -0.2418
  100MOL0     C13372   5.922   5.839   9.365  0.2742  0.4378  0.1392
  100MOL0     O13373   5.882   5.904   9.482 -0.3730  0.1036 -0.6468
  100MOL0     C13374   5.982   5.995   9.537  0.6243 -0.1647 -0.2689
  100MOL0     C13375   5.909   6.078   9.645 -0.8712 -0.1872  0.0743
  100MOL0     C13376   5.781   6.163   9.619  0.6037 -0.2794  0.1523
  100MOL0     C13377   5.793   6.252   9.494  0.4254 -0.3582 -0.5128
  100MOL0     C13378   5.670   6.326   9.436 -0.5818  0.5103 -1.0701
  100MOL0     C13379   5.560   6.231   9.379  0.8969  0.0771 -0.7456
  100MOL0     C13380   5.439   6.318   9.340  0.7452  0.5537 -0.3729
  100MOL0     C13381   5.324   6.220   9.306 -0.8042 -0.0775  0.7486
  100MOL0     N13382   5.206   6.246   9.378 -0.0998 -0.6170  0.6875
  100MOL0     C13383   5.152   6.161   9.470  0.3583 -0.2633 -0.2166
  100MOL0     C13384   5.036   6.218   9.499  0.3690  1.1633  0.8304
  100MOL0     C13385   4.937   6.172   9.596  0.2425  0.7162 -0.0846
  100MOL0     C13386   4.803   6.133   9.520  0.7711 -0.0880 -0.1041
  100MOL0     C13387   4.713   6.060   9.622 -0.1038  0.1338  0.1736
  100MOL0     C13388   4.587   6.007   9.554 -0.2161 -0.6007  0.4357
  100MOL0     O13389   4.544   6.100   9.456  0.2511  0.8701 -0.1565
  100MOL0     C13390   4.444   6.188   9.486 -0.5315  0.4761 -1.1045
  100MOL0     C13391   4.410   6.239   9.615  0.3946  0.0112  0.7952
  100MOL0     C13392   4.303   6.332   9.635 -0.3717 -0.0910 -0.2565
  100MOL0     C13393   4.292   6.378   9.775  0.5160 -0.4198  0.6396
  100MOL0     C13394   4.240   6.385   9.527  0.2378 -0.6657  0.6699
  100MOL0     C13395   4.127   6.471   9.544  0.1344  0.0031 -0.3914
  100MOL0     O13396   4.133   6.579   9.462 -1.2170  0.6458 -0.3876
  100MOL0     C13397   4.022   6.595   9.393  0.6819  0.1044  0.3031
  100MOL0     C13398   3.911   6.640   9.462  0.2771 -1.1409  0.0049
  100MOL0     C13399   3.805   6.687   9.391  0.1571  0.0681  0.0267
  100MOL0     C13400   3.801   6.675   9.251  0.1734  0.6753  0.4315
  100MOL0     O13401   3.681   6.712   9.200  0.2525  0.5453 -0.3801
  100MOL0     C13402   3.656   6.669   9.064  0.0353 -0.2779 -0.8925
  100MOL0     C13403   3.520   6.748   9.040  0.3016 -0.5922 -0.0093
  100MOL0     C13404   3.429   6.775   9.154 -0.6570 -1.4901 -0.6958
  100MOL0     C13405   3.303   6.853   9.101  0.0649  0.5820  0.6144
  100MOL0     C13406   3.208   6.777   9.005  0.2851  0.0281 -0.4554
  100MOL0     C13407   3.188   6.628   9.046 -0.4734  0.6656  0.0216
  100MOL0     C13408   3.106   6.623   9.180 -0.4994 -0.5114  0.5366
  100MOL0     C13409   3.083   6.470   9.206 -0.0975  0.3584 -0.6881
  100MOL0    Cl13410   2.978   6.401   9.084  0.4389 -0.1441  0.0338
  100MOL0     C13411   3.909   6.623   9.179  0.1637  0.0821  0.0501
  100MOL0     C13412   4.017   6.577   9.249  0.1230  1.0160  0.8773
  100MOL0     O13413   4.036   6.445   9.628  0.1669 -0.0829 -0.0784
  100MOL0     C13414   4.263   6.330   9.399 -0.2167 -0.0857 -0.2631
  100MOL0     C13415   4.356   6.229   9.380  1.1543 -0.4139 -0.8857
  100MOL0     N13416   5.021   6.334   9.422 -0.2578  0.4051 -0.4122
  100MOL0     N13417   5.127   6.353   9.354  0.9105 -0.8224 -0.6331
  100MOL0     C13418   6.040   5.766   9.347 -1.1135  0.3813 -0.6790
  100MOL0     C13419   6.085   5.730   9.220 -0.6856  0.2119 -0.6468
  100MOL0     C13420   6.031   5.487   8.863  0.4810  0.3974  0.3980
  100MOL0     C13421   6.168   5.487   8.837 -0.4246 -0.2260  0.3420
  100MOL0     C13422   6.236   5.368   8.787 -0.0015  0.6556 -0.1244
  100MOL0     C13423   6.146   5.259   8.744 -0.3482 -0.4070 -0.7817
  100MOL0     O13424   6.188   5.144   8.673  0.3863 -0.2819 -0.2712
  100MOL0     C13425   6.326   5.124   8.638 -0.3073 -1.2055  0.1367
  100MOL0     C13426   6.341   4.982   8.611 -0.5468  0.2210  0.7161
  100MOL0     C13427   6.490   4.955   8.573 -0.2389 -1.2077 -0.7760
  100MOL0     C13428   6.581   4.965   8.698 -0.0929 -0.1881 -1.4113
  100MOL0     C13429   6.569   4.854   8.795 -0.2922 -0.1688 -0.7720
  100MOL0     C13430   6.568   4.767   8.878 -0.9196  0.2960  0.3607
  100MOL0     C13431   6.007   5.268   8.775  0.2049 -0.1364 -0.7887
  100MOL0     C13432   5.946   5.383   8.826 -1.1837  0.5884 -0.5378
  100MOL0     H13433   5.798   5.826   9.053 -0.4547 -1.1307  0.2952
  100MOL0     H13434   5.739   5.901   9.275  0.9888  1.1996 -1.0430
  100MOL0     H13435   6.057   5.933   9.587 -3.6756 -2.9055  3.5597
  100MOL0     H13436   6.031   6.059   9.464  0.0085 -0.2564 -0.7735
  100MOL0     H13437   5.889   6.002   9.721  0.6334 -1.7159 -0.9807
  100MOL0     H13438   5.990   6.144   9.678  1.2755 -3.0839  1.0411
  100MOL0     H13439   5.702   6.088   9.605 -0.4984  0.8208  0.2607
  100MOL0     H13440   5.765   6.223   9.710  1.9990  0.5280 -0.1129
  100MOL0     H13441   5.865   6.327   9.529 -2.5601  1.9946  1.1103
  100MOL0     H13442   5.830   6.188   9.414 -0.2376 -1.4058 -0.0052
  100MOL0     H13443   5.619   6.372   9.521 -0.4752  0.7548 -1.1393
  100MOL0     H13444   5.706   6.402   9.366  1.0150  0.1730 -0.6422
  100MOL0     H13445   5.606   6.184   9.292  1.0862 -0.8436 -0.1621
  100MOL0     H13446   5.531   6.155   9.452  0.7768  2.5111  1.9035
  100MOL0     H13447   5.402   6.376   9.424  0.6478 -0.0770  0.0222
  100MOL0     H13448   5.461   6.380   9.252 -0.1823 -1.9319 -2.4665
  100MOL0     H13449   5.356   6.117   9.325 -0.0041  0.2990  1.5474
  100MOL0     H13450   5.317   6.233   9.198  0.6801 -0.7599  0.5384
  100MOL0     H13451   5.199   6.078   9.521  1.7028  1.6077  1.7484
  100MOL0     H13452   4.973   6.082   9.647 -0.4061 -0.6761 -1.9734
  100MOL0     H13453   4.919   6.250   9.671 -0.9891  1.4678 -1.1135
  100MOL0     H13454   4.818   6.068   9.433 -0.8011 -0.8650  0.1621
  100MOL0     H13455   4.762   6.229   9.488  3.7467  1.4494  0.4041
  100MOL0     H13456   4.694   6.122   9.710  3.5217  0.2854  1.0044
  100MOL0     H13457   4.764   5.972   9.664  1.0648 -1.0208 -3.3446
  100MOL0     H13458   4.510   5.968   9.622 -2.3150  0.9158 -0.9203
  100MOL0     H13459   4.613   5.921   9.492  1.5448  0.9437 -1.1181
  100MOL0     H13460   4.470   6.214   9.701 -0.3200 -4.0324  0.3356
  100MOL0     H13461   4.375   6.358   9.844  1.0165  0.0031  0.1674
  100MOL0     H13462   4.273   6.486   9.780 -0.8229 -0.6913  3.0493
  100MOL0     H13463   4.214   6.316   9.820  0.5402 -0.9832 -0.0712
  100MOL0     H13464   3.910   6.650   9.570 -0.9240 -0.2546 -0.0644
  100MOL0     H13465   3.734   6.736   9.456  1.0685  2.7648 -0.8692
  100MOL0     H13466   3.729   6.710   8.994 -0.8460 -2.5686 -3.3222
  100MOL0     H13467   3.645   6.561   9.056 -0.8641 -0.2954  0.3798
  100MOL0     H13468   3.540   6.848   9.001 -1.1333  0.4085  1.6774
  100MOL0     H13469   3.471   6.693   8.959  0.6968  1.7166 -1.9225
  100MOL0     H13470   3.480   6.842   9.224 -1.3458  1.0573 -2.5190
  100MOL0     H13471   3.403   6.691   9.219 -4.1465 -1.8946 -2.4144
  100MOL0     H13472   3.241   6.888   9.184 -1.1051 -1.0253  0.4717
  100MOL0     H13473   3.325   6.950   9.056 -3.8564  1.4049  0.0968
  100MOL0     H13474   3.247   6.772   8.902 -0.2328  2.9041 -0.8510
  100MOL0     H13475   3.109   6.821   9.013 -1.7812 -3.8953 -1.8084
  100MOL0     H13476   3.144   6.575   8.961 -1.3798  0.1499  0.7950
  100MOL0     H13477   3.284   6.581   9.068 -2.0483 -1.8361  2.1073
  100MOL0     H13478   3.007   6.666   9.160 -0.0729 -1.1662 -3.9381
  100MOL0     H13479   3.166   6.675   9.256 -1.8515  2.8495 -0.4774
  100MOL0     H13480   3.033   6.449   9.301  0.6159  1.0491 -0.1565
  100MOL0     H13481   3.179   6.418   9.196 -0.1948  0.3699 -1.7880
  100MOL0     H13482   3.910   6.603   9.072  0.3720 -0.1372  0.0931
  100MOL0     H13483   4.101   6.544   9.188 -0.8669 -1.0696  0.5377
  100MOL0     H13484   4.196   6.348   9.315 -1.9560 -0.6840  0.9411
  100MOL0     H13485   4.357   6.179   9.284  2.5204 -3.4495  0.5426
  100MOL0     H13486   6.092   5.744   9.439  0.9429  2.3993 -1.2690
  100MOL0     H13487   6.175   5.669   9.216 -0.9718 -0.5239  1.9296
  100MOL0     H13488   6.220   5.579   8.860 -0.9858  0.5935 -1.4516
  100MOL0     H13489   6.341   5.365   8.763  0.1927  0.2775  0.7496
  100MOL0     H13490   6.346   5.195   8.557  0.9964 -0.6041  0.9509
  100MOL0     H13491   6.394   5.163   8.714  1.2098 -2.1872 -0.6719
  100MOL0     H13492   6.264   4.952   8.539 -0.4177  2.0909 -0.2947
  100MOL0     H13493   6.319   4.931   8.705  3.6068  0.6638  2.1415
  100MOL0     H13494   6.517   5.031   8.500 -0.7798 -0.2773 -0.0194
  100MOL0     H13495   6.515   4.858   8.527 -1.4432 -0.5678 -2.8895
  100MOL0     H13496   6.565   5.059   8.751 -0.3313 -0.2861 -1.3099
  100MOL0     H13497   6.687   4.965   8.673  0.6413 -0.0283  1.3824
  100MOL0     H13498   6.566   4.688   8.949 -2.0851  1.2871  1.4852
  100MOL0     H13499   5.944   5.180   8.767 -0.7226  0.0762  2.4520
  100MOL0     H13500   5.838   5.383   8.835 -1.2915 -1.3948 -1.3767
  101MOL0     O13501   4.828   1.661   1.358  0.5996 -0.1610  0.3602
  101MOL0     C13502   4.890   1.736   1.275 -0.3393 -0.1427  0.3001
  101MOL0     O13503   4.864   1.864   1.243  0.4272 -0.9329  0.5343
  101MOL0     C13504   4.757   1.911   1.313 -0.7692 -0.5930  0.8119
  101MOL0     C13505   4.628   1.923   1.265  0.4278 -1.0114  0.6641
  101MOL0     C13506   4.528   1.987   1.332  0.2760 -0.2177  0.5439
  101MOL0     C13507   4.552   2.044   1.460 -0.3398  0.8134 -0.4953
  101MOL0     O13508   4.456   2.090   1.539 -0.1836 -0.7568 -0.0238
  101MOL0     C13509   4.441   2.236   1.540 -0.6543 -0.3219  0.4591
  101MOL0     C13510   4.286   2.269   1.535  0.0598  0.2976 -0.1018
  101MOL0     C13511   4.255   2.413   1.566 -0.3833 -0.8457  0.0152
  101MOL0     C13512   4.109   2.417   1.611 -0.3577  0.0778 -0.2507
  101MOL0     C13513   4.061   2.564   1.628  0.4790  0.1279 -0.0521
  101MOL0     C13514   3.913   2.576   1.678 -0.6365 -0.8154  0.1911
  101MOL0     C13515   3.877   2.722   1.707 -0.1728 -0.2265  0.3079
  101MOL0     C13516   3.885   2.805   1.576  0.1922 -0.3472  0.0969
  101MOL0     N13517   3.850   2.948   1.589 -0.0831  0.8607  0.4215
  101MOL0     C13518   3.864   3.036   1.489 -0.4985 -1.1667  0.5442
  101MOL0     C13519   3.798   3.149   1.535  0.4417 -0.1339 -0.6932
  101MOL0     C13520   3.776   3.276   1.455 -0.1549  0.2918  0.0565
  101MOL0     C13521   3.699   3.237   1.325 -0.9256  0.0505  0.4342
  101MOL0     C13522   3.551   3.185   1.363 -0.0617  0.8393 -0.0612
  101MOL0     C13523   3.465   3.160   1.241  0.1698 -0.7658  0.7316
  101MOL0     O13524   3.443   3.279   1.164  0.3698 -0.4279 -0.8240
  101MOL0     C13525   3.358   3.382   1.224  0.0563  0.0511  0.5038
  101MOL0     C13526   3.244   3.369   1.300  1.1359 -0.2997  0.1559
  101MOL0     C13527   3.181   3.486   1.355  0.8220 -1.1264  1.3005
  101MOL0     C13528   3.043   3.466   1.419 -0.1167  0.1643 -0.6090
  101MOL0     C13529   3.241   3.609   1.340  0.6639  0.2100  0.0397
  101MOL0     C13530   3.188   3.727   1.397 -0.2272  0.3098  0.4581
  101MOL0     O13531   3.158   3.717   1.524 -0.1657  0.5901 -0.1469
  101MOL0     C13532   3.087   3.814   1.589  0.1073  0.1592 -0.3236
  101MOL0     C13533   2.963   3.788   1.652  0.9364  0.6326 -0.2797
  101MOL0     C13534   2.880   3.884   1.699 -0.1357  0.2905 -0.3503
  101MOL0     C13535   2.921   4.019   1.708  0.7311 -0.5419  0.4807
  101MOL0     O13536   2.846   4.121   1.771  0.7766 -0.3087 -0.1272
  101MOL0     C13537   2.724   4.089   1.833  0.6178 -0.4435  0.3107
  101MOL0     C13538   2.645   4.222   1.832 -0.3697 -0.1487  0.1022
  101MOL0     C13539   2.529   4.242   1.932 -1.1672 -0.7048  0.1525
  101MOL0     C13540   2.414   4.323   1.868 -0.1397  0.6441  0.1771
  101MOL0     C13541   2.458   4.460   1.831 -0.0136 -0.0527  0.0005
  101MOL0     C13542   2.348   4.541   1.784 -0.7471 -0.0872  0.1536
  101MOL0     C13543   2.383   4.696   1.795  1.4020  0.2749  0.6240
  101MOL0     C13544   2.262   4.787   1.784 -0.1814 -0.9758  0.7861
  101MOL0    Cl13545   2.174   4.787   1.625  0.1027  0.2684  0.1210
  101MOL0     C13546   3.049   4.050   1.653  0.1758  0.1176  0.1865
  101MOL0     C13547   3.132   3.944   1.596  0.1817  0.2009 -0.0367
  101MOL0     O13548   3.156   3.812   1.313  1.2854 -0.4905  0.4918
  101MOL0     C13549   3.354   3.623   1.266  0.0530  1.4166  0.3651
  101MOL0     C13550   3.409   3.514   1.210 -0.8080 -0.6653  0.7303
  101MOL0     N13551   3.746   3.127   1.664 -0.9627 -0.3708  0.3353
  101MOL0     N13552   3.771   2.999   1.688  0.7995  0.5338  0.1979
  101MOL0     C13553   4.678   2.039   1.515  0.0029  0.5813  0.0078
  101MOL0     C13554   4.782   1.972   1.437  0.8497 -0.4926  0.9073
  101MOL0     C13555   5.001   1.678   1.195  0.8351  0.3589  0.0800
  101MOL0     C13556   5.044   1.545   1.208 -0.3553  0.3554 -0.0716
  101MOL0     C13557   5.149   1.491   1.139  0.1635 -0.1967 -0.0659
  101MOL0     C13558   5.232   1.572   1.062 -0.6394  0.4409 -0.3168
  101MOL0     O13559   5.339   1.513   0.997 -0.0836  0.2559 -0.1767
  101MOL0     C13560   5.403   1.571   0.881  0.2075  0.4015  0.0080
  101MOL0     C13561   5.336   1.548   0.742  0.3889 -0.4493 -0.2595
  101MOL0     C13562   5.185   1.582   0.747  0.1052  0.1327 -0.2844
  101MOL0     C13563   5.138   1.579   0.599 -0.1160  1.9802 -0.3635
  101MOL0     C13564   5.000   1.617   0.580 -0.2037 -0.8478  0.8481
  101MOL0     C13565   4.887   1.647   0.570  0.8591  1.3852  0.1148
  101MOL0     C13566   5.196   1.702   1.061  0.2955 -0.9880  0.1308
  101MOL0     C13567   5.086   1.761   1.122 -0.3239 -0.4441  0.5795
  101MOL0     H13568   4.610   1.893   1.162  0.7650  2.2022 -0.4252
  101MOL0     H13569   4.430   2.011   1.292 -0.3725 -2.1252  0.9016
  101MOL0     H13570   4.478   2.265   1.639 -0.2914 -2.0244  0.8685
  101MOL0     H13571   4.503   2.279   1.461 -3.7536  2.7310 -0.5226
  101MOL0     H13572   4.238   2.234   1.443  0.0187  3.0126 -1.2141
  101MOL0     H13573   4.243   2.206   1.613 -1.5768 -0.6093 -1.6452
  101MOL0     H13574   4.315   2.453   1.647  0.4407 -0.5252 -0.7407
  101MOL0     H13575   4.266   2.468   1.472 -2.1750  1.8855  1.2808
  101MOL0     H13576   4.034   2.383   1.538 -1.3580  2.1832 -0.2901
  101MOL0     H13577   4.108   2.357   1.702  1.2825 -2.7422 -1.9457
  101MOL0     H13578   4.135   2.611   1.695 -0.9822  2.1656  0.2028
  101MOL0     H13579   4.082   2.603   1.528 -1.4270 -0.4115 -0.6984
  101MOL0     H13580   3.852   2.539   1.595 -1.4896 -0.0972  0.4920
  101MOL0     H13581   3.912   2.516   1.769  1.8189 -2.4101 -0.7405
  101MOL0     H13582   3.779   2.732   1.756 -0.7343  0.5934 -0.9102
  101MOL0     H13583   3.939   2.777   1.778 -0.9409  1.7083 -0.4334
  101MOL0     H13584   3.828   2.759   1.495 -0.3850 -1.3430  1.0553
  101MOL0     H13585   3.987   2.809   1.537  0.2963  1.7885  0.4635
  101MOL0     H13586   3.919   3.023   1.397  3.5422  1.1447  2.3685
  101MOL0     H13587   3.730   3.355   1.515 -2.7939 -0.6096 -0.6583
  101MOL0     H13588   3.871   3.323   1.425  0.2687  0.8859  2.1672
  101MOL0     H13589   3.758   3.157   1.279 -2.0266 -0.7006  0.2937
  101MOL0     H13590   3.683   3.311   1.246 -3.5539 -1.4627 -0.5866
  101MOL0     H13591   3.480   3.247   1.419  0.0759  1.2062 -0.2907
  101MOL0     H13592   3.557   3.092   1.419  0.9578  1.0736  0.2330
  101MOL0     H13593   3.370   3.114   1.270 -0.8454  0.3095 -0.7062
  101MOL0     H13594   3.518   3.092   1.173  0.0400 -1.0392  0.8997
  101MOL0     H13595   3.217   3.265   1.320  2.8791 -0.3969  2.4622
  101MOL0     H13596   2.977   3.551   1.403 -0.3857  0.8279  3.2117
  101MOL0     H13597   2.992   3.382   1.370 -1.1427  1.1220 -1.2237
  101MOL0     H13598   3.041   3.457   1.528  1.3737  2.1074 -0.3756
  101MOL0     H13599   2.932   3.685   1.664  2.4196  0.1554 -0.4490
  101MOL0     H13600   2.788   3.842   1.737 -0.0276  2.9085  3.2499
  101MOL0     H13601   2.667   4.015   1.775  0.9551 -0.4663  0.0038
  101MOL0     H13602   2.744   4.063   1.937  0.5573  2.5950  1.1812
  101MOL0     H13603   2.706   4.311   1.847 -1.5745  0.1836  4.0728
  101MOL0     H13604   2.607   4.224   1.729  1.1862 -2.2568 -0.5867
  101MOL0     H13605   2.569   4.287   2.023 -1.7130 -1.3341  0.7206
  101MOL0     H13606   2.490   4.143   1.958 -1.4925 -1.1293 -1.8177
  101MOL0     H13607   2.382   4.274   1.776 -1.4135 -2.2613  1.9988
  101MOL0     H13608   2.327   4.336   1.934 -0.3582 -0.2140  0.0726
  101MOL0     H13609   2.541   4.462   1.760 -0.2632  1.2299 -0.2871
  101MOL0     H13610   2.500   4.506   1.921  0.9670  0.3071 -0.6301
  101MOL0     H13611   2.325   4.519   1.679 -2.0414  0.6310  0.2585
  101MOL0     H13612   2.258   4.533   1.845 -0.5138  0.0326  0.5151
  101MOL0     H13613   2.462   4.723   1.724  2.2321 -1.2188  0.9264
  101MOL0     H13614   2.426   4.717   1.893 -1.2455 -0.2628  1.9924
  101MOL0     H13615   2.299   4.888   1.803  1.8118 -1.7214  1.1285
  101MOL0     H13616   2.199   4.767   1.871  1.3724 -0.2732  2.1242
  101MOL0     H13617   3.075   4.155   1.654  0.4278  0.0698 -0.5786
  101MOL0     H13618   3.236   3.955   1.566 -0.2018 -2.8910 -3.0786
  101MOL0     H13619   3.411   3.714   1.272  2.4464 -0.0087  0.4410
  101MOL0     H13620   3.508   3.521   1.167 -0.8680 -0.4623  0.6267
  101MOL0     H13621   4.690   2.067   1.619  1.4587 -0.6188  0.1977
  101MOL0     H13622   4.872   1.955   1.494 -0.2988 -0.1921  2.9177
  101MOL0     H13623   4.987   1.480   1.273  0.3513 -1.7389 -1.4410
  101MOL0     H13624   5.178   1.389   1.159 -4.6064 -1.4458  1.8940
  101MOL0     H13625   5.407   1.680   0.892  1.8934  0.6182 -2.0472
  101MOL0     H13626   5.501   1.522   0.872 -0.9283 -2.2571  1.1770
  101MOL0     H13627   5.360   1.449   0.702 -0.4413 -0.7428 -0.0646
  101MOL0     H13628   5.379   1.629   0.683  2.4703  0.8573  2.7767
  101MOL0     H13629   5.167   1.679   0.793  2.4290  2.3355 -3.6029
  101MOL0     H13630   5.129   1.510   0.808  2.9583  1.0591  3.8605
  101MOL0     H13631   5.159   1.474   0.576 -1.6015  0.8877  2.7904
  101MOL0     H13632   5.200   1.641   0.534  0.5069  2.4744  0.6744
  101MOL0     H13633   4.792   1.694   0.550  0.7887  1.3497  0.3698
  101MOL0     H13634   5.266   1.774   1.019 -0.6009 -0.6409 -0.7928
  101MOL0     H13635   5.071   1.868   1.116 -1.9560 -0.4665  2.9351
  102MOL0     O13636   5.306   2.619   6.128  0.2732  0.0079 -0.8884
  102MOL0     C13637   5.394   2.674   6.196 -0.3224  0.5006 -0.2460
  102MOL0     O13638   5.433   2.810   6.200  0.3374 -0.1270  0.4084
  102MOL0     C13639   5.371   2.898   6.111 -1.2081  0.8765  0.2475
  102MOL0     C13640   5.350   3.034   6.149 -1.0247 -0.0961  0.6762
  102MOL0     C13641   5.290   3.120   6.055 -0.2971 -0.4216  0.0178
  102MOL0     C13642   5.255   3.077   5.934 -0.1300  0.3899 -0.1848
  102MOL0     O13643   5.194   3.180   5.868 -0.1224 -0.3664  0.0864
  102MOL0     C13644   5.086   3.130   5.788 -0.2226 -0.7261  0.4029
  102MOL0     C13645   4.987   3.250   5.784 -0.0743  0.0256 -0.4873
  102MOL0     C13646   4.862   3.213   5.699 -0.0430  0.0735  0.3085
  102MOL0     C13647   4.795   3.338   5.644  0.6220  1.1253  0.4358
  102MOL0     C13648   4.657   3.308   5.579  0.5811 -1.0791  0.2071
  102MOL0     C13649   4.562   3.241   5.683  0.3116 -0.5037  0.2594
  102MOL0     C13650   4.417   3.261   5.638  0.0139  0.4169  0.1644
  102MOL0     C13651   4.379   3.164   5.529 -0.2256 -0.2599 -1.3756
  102MOL0     N13652   4.228   3.173   5.505 -1.2355  0.6656 -0.5032
  102MOL0     C13653   4.150   3.060   5.534 -0.0326 -0.8491  0.4320
  102MOL0     C13654   4.026   3.096   5.485  0.6344 -0.3051 -0.6803
  102MOL0     C13655   3.904   2.999   5.466  0.3468 -0.2096 -0.4703
  102MOL0     C13656   3.789   3.062   5.402 -0.6644  0.1461  0.3661
  102MOL0     C13657   3.723   3.180   5.472  0.0036  0.7490 -0.1134
  102MOL0     C13658   3.620   3.251   5.380  0.0051  0.6806  0.5053
  102MOL0     O13659   3.511   3.157   5.353 -0.2626 -0.4780 -0.1226
  102MOL0     C13660   3.407   3.209   5.270  0.0435 -0.8153 -0.7918
  102MOL0     C13661   3.394   3.349   5.230  0.2175  0.3305 -0.7381
  102MOL0     C13662   3.276   3.390   5.157  0.3484  0.4729 -0.4394
  102MOL0     C13663   3.281   3.532   5.090  0.0698  0.3430 -0.6901
  102MOL0     C13664   3.174   3.295   5.125  0.4637 -0.8306  0.5390
  102MOL0     C13665   3.054   3.318   5.044  0.5893 -1.0898  0.6551
  102MOL0     O13666   2.959   3.222   5.040  1.0588  0.8083  0.2941
  102MOL0     C13667   2.829   3.238   5.021 -0.3704 -0.2680 -0.0357
  102MOL0     C13668   2.752   3.134   4.960  0.1892  0.3996  0.1024
  102MOL0     C13669   2.619   3.148   4.934  0.9113  0.4656 -0.8583
  102MOL0     C13670   2.547   3.265   4.971  0.1847  0.5864 -0.0001
  102MOL0     O13671   2.414   3.279   4.948 -0.5104 -0.6409 -0.0109
  102MOL0     C13672   2.356   3.411   4.957 -0.4582  0.7972 -0.3419
  102MOL0     C13673   2.204   3.405   4.948 -0.2293 -0.7985  0.2376
  102MOL0     C13674   2.161   3.362   4.804 -0.4789  0.5424 -0.2507
  102MOL0     C13675   2.005   3.389   4.790  0.5521 -0.5949 -0.8720
  102MOL0     C13676   1.943   3.398   4.648 -1.1708 -0.4498 -0.6441
  102MOL0     C13677   1.972   3.267   4.556 -0.7785 -0.4857  1.0138
  102MOL0     C13678   1.924   3.293   4.427  0.0403 -0.2497  1.0691
  102MOL0     C13679   1.888   3.163   4.364  0.6209  0.3993  0.1427
  102MOL0    Cl13680   1.816   3.206   4.209 -0.2669 -0.0109  0.0617
  102MOL0     C13681   2.631   3.364   5.033  0.4076  0.4804 -0.4133
  102MOL0     C13682   2.767   3.357   5.051 -0.0911 -0.0932  0.2413
  102MOL0     O13683   3.049   3.420   4.984 -0.2607 -1.0155 -0.2802
  102MOL0     C13684   3.199   3.166   5.170  0.4564 -0.7297  1.1226
  102MOL0     C13685   3.305   3.123   5.239 -0.2799  0.1708 -0.7263
  102MOL0     N13686   4.029   3.232   5.447 -0.2624  0.0383  0.1502
  102MOL0     N13687   4.149   3.272   5.450 -0.1472  0.6435  0.3549
  102MOL0     C13688   5.279   2.946   5.886 -0.3096  0.1899 -0.3398
  102MOL0     C13689   5.338   2.862   5.983  0.9352  0.3787 -0.8099
  102MOL0     C13690   5.484   2.570   6.254 -0.0136 -0.1449  0.2488
  102MOL0     C13691   5.450   2.436   6.278 -0.4454 -0.4856  0.5601
  102MOL0     C13692   5.537   2.349   6.336 -0.0371  0.8021 -1.4281
  102MOL0     C13693   5.658   2.399   6.388 -1.6064 -0.2144 -0.1867
  102MOL0     O13694   5.736   2.303   6.454 -0.0513  0.3175 -0.6279
  102MOL0     C13695   5.858   2.355   6.505 -0.1542 -0.4073 -0.0008
  102MOL0     C13696   5.940   2.256   6.578  0.6475  0.6935 -0.0377
  102MOL0     C13697   5.872   2.176   6.685  0.9982 -0.3274 -0.4475
  102MOL0     C13698   5.962   2.075   6.741  0.5462 -0.0792 -0.2224
  102MOL0     C13699   5.883   2.010   6.842  0.0166 -0.1476 -0.2108
  102MOL0     C13700   5.831   1.944   6.927 -0.1854  0.5053  0.0741
  102MOL0     C13701   5.692   2.534   6.364  0.0427 -0.1033 -0.4333
  102MOL0     C13702   5.607   2.618   6.295 -0.3840  0.1719 -0.0770
  102MOL0     H13703   5.393   3.066   6.243 -3.3259 -2.7721  2.8130
  102MOL0     H13704   5.278   3.226   6.072  1.3657  0.1254 -1.7977
  102MOL0     H13705   5.124   3.110   5.688 -0.4239  0.3533  0.0984
  102MOL0     H13706   5.024   3.049   5.827 -3.0879  1.7933  1.5779
  102MOL0     H13707   4.957   3.266   5.888 -0.6889  2.4134 -0.9803
  102MOL0     H13708   5.035   3.344   5.756  0.4476  0.5232  1.8650
  102MOL0     H13709   4.890   3.164   5.606  0.3094  1.7732 -0.5153
  102MOL0     H13710   4.796   3.146   5.756 -0.2341 -1.1301 -1.2550
  102MOL0     H13711   4.782   3.403   5.732 -3.0571 -2.2287  2.6935
  102MOL0     H13712   4.861   3.385   5.570 -0.3714 -0.1701 -1.3552
  102MOL0     H13713   4.609   3.401   5.548  0.9424 -0.2358  2.0615
  102MOL0     H13714   4.671   3.247   5.490 -1.3285 -1.0090 -0.1793
  102MOL0     H13715   4.578   3.133   5.684 -1.3114 -0.8496 -2.1094
  102MOL0     H13716   4.577   3.282   5.783  0.8788 -2.5273  1.0516
  102MOL0     H13717   4.348   3.259   5.723  0.3163  2.4645  0.5103
  102MOL0     H13718   4.407   3.362   5.596 -0.8833  0.3474  0.1779
  102MOL0     H13719   4.408   3.062   5.556 -0.3324  0.7820  3.4185
  102MOL0     H13720   4.424   3.191   5.433  0.8860 -1.4656 -1.2139
  102MOL0     H13721   4.182   2.962   5.570 -0.2567 -0.9052  0.4859
  102MOL0     H13722   3.948   2.927   5.396 -1.2537 -0.1163 -1.6313
  102MOL0     H13723   3.879   2.936   5.552  0.2223 -2.1389 -1.8463
  102MOL0     H13724   3.715   2.986   5.374  0.3807 -1.0030  0.6375
  102MOL0     H13725   3.816   3.093   5.301 -1.1954  1.6827  0.6696
  102MOL0     H13726   3.796   3.251   5.511 -0.5291 -0.5387  3.6339
  102MOL0     H13727   3.671   3.145   5.561  0.7877  1.8188  0.7836
  102MOL0     H13728   3.658   3.278   5.281 -2.1245  2.0211 -0.0187
  102MOL0     H13729   3.588   3.346   5.424 -1.2421  1.1648 -1.3088
  102MOL0     H13730   3.482   3.413   5.225  0.8585 -0.6007 -1.8497
  102MOL0     H13731   3.294   3.527   4.982 -0.7286 -1.3809 -0.7441
  102MOL0     H13732   3.194   3.580   5.134 -0.1076 -1.3247  0.9114
  102MOL0     H13733   3.365   3.597   5.116 -0.7465  0.6378  1.3870
  102MOL0     H13734   2.793   3.041   4.923 -1.1559 -1.2329  2.3890
  102MOL0     H13735   2.559   3.068   4.891 -0.8094  1.2437  0.0138
  102MOL0     H13736   2.379   3.455   5.055 -1.7764 -1.2221  0.9538
  102MOL0     H13737   2.384   3.487   4.884 -3.4895  0.6393 -1.7937
  102MOL0     H13738   2.174   3.330   5.022 -0.9409 -0.4750  0.2864
  102MOL0     H13739   2.156   3.502   4.965  0.2682 -0.5689  0.3421
  102MOL0     H13740   2.185   3.259   4.779  1.1741  1.0695 -1.0078
  102MOL0     H13741   2.214   3.423   4.729  4.4665  1.0707  3.1991
  102MOL0     H13742   1.960   3.301   4.838  0.9418 -0.8074 -0.8951
  102MOL0     H13743   1.970   3.477   4.845 -0.6197 -1.0420 -0.8658
  102MOL0     H13744   1.980   3.485   4.594 -1.1869 -0.5811 -0.8686
  102MOL0     H13745   1.836   3.414   4.659 -1.0852 -0.5112  0.3639
  102MOL0     H13746   2.078   3.239   4.548 -0.4056  0.8635  0.9448
  102MOL0     H13747   1.931   3.181   4.609  2.2144 -2.8927 -0.2251
  102MOL0     H13748   2.001   3.336   4.362  1.4071  3.8069  4.8239
  102MOL0     H13749   1.840   3.363   4.430  0.0513  0.3458 -3.6869
  102MOL0     H13750   1.805   3.109   4.409  1.3429 -2.3255 -1.5598
  102MOL0     H13751   1.973   3.100   4.338 -0.0071  0.1395 -1.3702
  102MOL0     H13752   2.608   3.469   5.045  0.6395  0.7066 -1.7558
  102MOL0     H13753   2.818   3.449   5.080 -3.4045  1.7963  0.5414
  102MOL0     H13754   3.120   3.095   5.149  0.7635 -0.7580 -0.0142
  102MOL0     H13755   3.315   3.020   5.270  0.1186  1.0525  2.4777
  102MOL0     H13756   5.245   2.925   5.785 -2.7027  1.5926  0.0908
  102MOL0     H13757   5.347   2.757   5.957 -2.8883 -0.2330 -0.2252
  102MOL0     H13758   5.351   2.413   6.238 -1.3596  2.3120  0.9947
  102MOL0     H13759   5.508   2.245   6.342  1.1825  0.4734 -0.8346
  102MOL0     H13760   5.920   2.376   6.417 -1.2572  0.6738 -0.5684
  102MOL0     H13761   5.845   2.445   6.565  0.4683 -0.5445  0.3429
  102MOL0     H13762   6.023   2.317   6.615 -0.4124  3.8904 -2.5242
  102MOL0     H13763   5.989   2.188   6.508  0.2009  2.2684 -1.9550
  102MOL0     H13764   5.786   2.122   6.643  0.6305  0.2427 -0.4290
  102MOL0     H13765   5.838   2.237   6.769 -0.7648 -2.4799  0.5016
  102MOL0     H13766   6.046   2.123   6.792  1.1171 -0.1006 -1.1191
  102MOL0     H13767   5.983   2.010   6.656 -2.0222 -0.3573 -0.7173
  102MOL0     H13768   5.788   1.872   6.993  1.8695 -2.3864 -1.5451
  102MOL0     H13769   5.792   2.571   6.383  0.4415 -1.9566  1.5127
  102MOL0     H13770   5.651   2.712   6.264 -0.6927 -0.0190 -1.1197
  103MOL0     O13771  10.417   8.525   4.445  0.7092 -0.1192  0.3448
  103MOL0     C13772  10.417   8.641   4.479 -0.1186  0.1529 -0.8778
  103MOL0     O13773  10.334   8.691   4.584  0.2098 -0.4049  0.3948
  103MOL0     C13774  10.246   8.602   4.645 -0.2243  0.7579 -0.0050
  103MOL0     C13775  10.286   8.474   4.703  1.0980  0.7817  0.2739
  103MOL0     C13776  10.204   8.395   4.781  0.6643  0.0936  0.4401
  103MOL0     C13777  10.070   8.442   4.804 -0.6919  0.2250 -0.8241
  103MOL0     O13778   9.987   8.374   4.892 -0.0202 -0.2377 -0.4026
  103MOL0     C13779   9.984   8.230   4.873 -0.2746 -0.4369 -0.2428
  103MOL0     C13780   9.872   8.167   4.959 -0.0065  0.6539 -0.7348
  103MOL0     C13781   9.743   8.239   4.948  0.1283 -0.1465  0.3483
  103MOL0     C13782   9.633   8.173   5.021  0.4183  0.3870 -1.2789
  103MOL0     C13783   9.490   8.235   5.003  0.2654  0.1813  0.4047
  103MOL0     C13784   9.382   8.151   5.079  0.0136  0.0872  0.0961
  103MOL0     C13785   9.245   8.221   5.057  0.1814  0.3270  0.2186
  103MOL0     C13786   9.232   8.375   5.115  0.0473  0.4491 -0.4890
  103MOL0     N13787   9.257   8.372   5.261 -0.2945  0.0268 -0.1404
  103MOL0     C13788   9.303   8.478   5.334  1.2006 -0.3009  0.0688
  103MOL0     C13789   9.283   8.449   5.465  0.1235 -1.6100  1.0909
  103MOL0     C13790   9.332   8.543   5.573 -0.8566 -0.0596 -1.1840
  103MOL0     C13791   9.321   8.688   5.561 -0.5532 -0.6572  0.5218
  103MOL0     C13792   9.172   8.733   5.535 -0.1201  1.1246 -0.6229
  103MOL0     C13793   9.145   8.880   5.556  0.9256 -0.7593 -0.3359
  103MOL0     O13794   9.227   8.966   5.480 -0.2048  0.3538  0.1771
  103MOL0     C13795   9.336   9.026   5.545 -0.2854  0.0816 -0.9914
  103MOL0     C13796   9.357   9.030   5.690  0.4233  0.0359  0.2225
  103MOL0     C13797   9.474   9.094   5.741 -0.3171  0.1168 -1.0689
  103MOL0     C13798   9.491   9.106   5.897 -0.2135  0.0634  0.1350
  103MOL0     C13799   9.563   9.150   5.657 -0.8371 -0.0474  0.7846
  103MOL0     C13800   9.688   9.224   5.703  0.4332 -0.6535  0.2065
  103MOL0     O13801   9.722   9.326   5.620  0.1825 -0.1113  0.0148
  103MOL0     C13802   9.808   9.420   5.677  0.0429 -0.2282  0.5513
  103MOL0     C13803   9.760   9.541   5.737 -0.9314  0.1009  0.7714
  103MOL0     C13804   9.849   9.628   5.793  0.5611  0.4290 -0.4228
  103MOL0     C13805   9.989   9.614   5.789 -0.1250 -0.7456 -0.5329
  103MOL0     O13806  10.084   9.703   5.838 -0.3325  0.4094 -0.2357
  103MOL0     C13807  10.038   9.818   5.919 -0.3987  0.1406 -0.2382
  103MOL0     C13808  10.143   9.926   5.910 -0.0665 -0.2609 -0.1548
  103MOL0     C13809  10.287   9.899   5.961 -1.0792  0.2903 -0.1935
  103MOL0     C13810  10.377  10.005   5.894 -0.1876  0.4938 -0.1497
  103MOL0     C13811  10.515  10.024   5.958  0.0795 -0.2445 -0.2261
  103MOL0     C13812  10.564   9.878   5.955  0.8815 -0.4382 -0.4826
  103MOL0     C13813  10.715   9.873   6.001 -0.3664  0.1954 -0.5035
  103MOL0     C13814  10.740   9.722   6.028 -0.3370 -0.8478 -0.1788
  103MOL0    Cl13815  10.890   9.703   6.105  0.2658  0.5515 -0.2645
  103MOL0     C13816  10.036   9.497   5.738 -0.2749 -0.1017 -0.2278
  103MOL0     C13817   9.943   9.401   5.688  0.1682  0.1657  0.5122
  103MOL0     O13818   9.751   9.184   5.799  0.0283 -0.3229  0.5962
  103MOL0     C13819   9.537   9.156   5.523  0.1866 -0.6303 -0.5682
  103MOL0     C13820   9.435   9.094   5.464 -0.1848 -0.4471 -0.7887
  103MOL0     N13821   9.210   8.331   5.471  0.0612  0.2829 -0.4700
  103MOL0     N13822   9.211   8.277   5.351  0.6256 -0.1113 -0.6831
  103MOL0     C13823  10.033   8.570   4.765  0.1506 -1.1415  0.3142
  103MOL0     C13824  10.114   8.650   4.684 -0.1739 -0.0451 -0.0457
  103MOL0     C13825  10.489   8.723   4.392 -0.5899 -0.8644  0.0150
  103MOL0     C13826  10.443   8.859   4.375 -0.4021  0.2459  1.6469
  103MOL0     C13827  10.513   8.931   4.276  0.0942  0.0544  0.5437
  103MOL0     C13828  10.623   8.880   4.206 -0.4875 -0.4523 -0.3214
  103MOL0     O13829  10.704   8.956   4.133  0.4934  0.1211 -0.0046
  103MOL0     C13830  10.815   8.995   4.215  0.2116  0.4392 -0.2282
  103MOL0     C13831  10.819   9.143   4.258  0.0359  0.9395  0.1345
  103MOL0     C13832  10.880   9.239   4.154  0.4398  0.0829  0.5084
  103MOL0     C13833  10.864   9.392   4.190  0.6884 -0.9662  0.9177
  103MOL0     C13834  10.933   9.482   4.106  0.1657 -0.0714  0.1621
  103MOL0     C13835  11.005   9.557   4.042 -0.7710 -0.6883 -0.2135
  103MOL0     C13836  10.670   8.758   4.232 -0.0382 -0.5395  0.0873
  103MOL0     C13837  10.594   8.674   4.316  0.3385  1.1095  0.1468
  103MOL0     H13838  10.385   8.438   4.681 -0.3703 -1.9208 -2.7727
  103MOL0     H13839  10.245   8.305   4.827  1.6916  1.5318  2.5002
  103MOL0     H13840   9.967   8.219   4.766  0.5446 -2.6221 -0.2007
  103MOL0     H13841  10.073   8.172   4.901  1.1612  1.3384 -0.9206
  103MOL0     H13842   9.866   8.060   4.933  0.8491  0.1428  1.0016
  103MOL0     H13843   9.904   8.175   5.063 -0.2873  3.7488 -0.8036
  103MOL0     H13844   9.755   8.344   4.977 -1.0386 -0.1234  0.8216
  103MOL0     H13845   9.709   8.241   4.844  1.6710 -1.3333 -0.2116
  103MOL0     H13846   9.626   8.067   4.992 -2.1051 -0.0007  0.3335
  103MOL0     H13847   9.664   8.177   5.126  1.8313 -1.2176 -1.5945
  103MOL0     H13848   9.486   8.334   5.050 -0.7817 -0.0928  0.9122
  103MOL0     H13849   9.469   8.242   4.896  1.0624 -1.9340  0.0729
  103MOL0     H13850   9.381   8.053   5.031  1.1925  1.6064 -3.3847
  103MOL0     H13851   9.389   8.132   5.186 -2.2530  0.0213  0.2824
  103MOL0     H13852   9.219   8.223   4.951  0.6677  5.1247 -0.0154
  103MOL0     H13853   9.167   8.161   5.106 -0.0866  0.5769  0.1018
  103MOL0     H13854   9.131   8.411   5.095 -0.0761 -0.7417 -2.2397
  103MOL0     H13855   9.307   8.439   5.068  1.0167 -0.2279  0.0744
  103MOL0     H13856   9.340   8.575   5.302 -0.0708  0.1733 -0.0500
  103MOL0     H13857   9.269   8.508   5.656 -0.1209  1.2056 -0.0569
  103MOL0     H13858   9.434   8.513   5.597 -1.0722 -1.0591 -1.4665
  103MOL0     H13859   9.382   8.709   5.473 -2.8390 -1.2291 -1.3112
  103MOL0     H13860   9.361   8.719   5.658 -0.4848 -0.8772  0.5659
  103MOL0     H13861   9.116   8.676   5.610  2.9511  0.1758  1.1265
  103MOL0     H13862   9.123   8.707   5.441  0.1723  1.8725 -0.9968
  103MOL0     H13863   9.152   8.885   5.665  0.0021 -3.5230 -0.0662
  103MOL0     H13864   9.042   8.911   5.540  1.7695  2.6336  0.1189
  103MOL0     H13865   9.300   8.981   5.767 -0.8023 -0.3833 -0.9297
  103MOL0     H13866   9.582   9.050   5.919 -0.1917 -1.0887 -2.5446
  103MOL0     H13867   9.497   9.210   5.932 -3.5553  0.5815 -0.4557
  103MOL0     H13868   9.408   9.058   5.949 -0.6237  1.7489  1.1227
  103MOL0     H13869   9.657   9.575   5.733  0.2042  3.9008  0.0467
  103MOL0     H13870   9.820   9.717   5.848  1.7913 -0.9792  2.7922
  103MOL0     H13871   9.945   9.858   5.879  0.3099  1.0140 -1.0334
  103MOL0     H13872  10.018   9.793   6.024  2.2618 -1.1397  0.0735
  103MOL0     H13873  10.152   9.937   5.801 -2.3429 -1.3139 -0.4884
  103MOL0     H13874  10.098  10.010   5.964 -0.7674 -3.5811  5.0934
  103MOL0     H13875  10.330   9.806   5.923  1.2040  1.9924 -2.1111
  103MOL0     H13876  10.280   9.907   6.070 -0.8530 -1.4828 -0.0133
  103MOL0     H13877  10.381   9.989   5.786  0.6716  2.3938 -0.4249
  103MOL0     H13878  10.323  10.099   5.897  0.9652  1.1773 -0.2397
  103MOL0     H13879  10.517  10.063   6.060  0.4032  1.7169 -0.9554
  103MOL0     H13880  10.569  10.089   5.889 -2.3274  0.6716 -1.3948
  103MOL0     H13881  10.507   9.820   6.028  0.4204 -1.8405 -1.9040
  103MOL0     H13882  10.548   9.815   5.867 -0.0386 -3.2859  1.5743
  103MOL0     H13883  10.719   9.932   6.093  0.9427  1.2730 -1.2066
  103MOL0     H13884  10.781   9.914   5.924 -1.0813  0.7023 -0.8663
  103MOL0     H13885  10.742   9.677   5.928 -2.1220 -1.9628  0.2462
  103MOL0     H13886  10.671   9.663   6.088 -1.8250 -0.6196 -1.5994
  103MOL0     H13887  10.141   9.470   5.729 -0.5142 -1.0581 -0.2464
  103MOL0     H13888   9.975   9.312   5.634  1.7101  1.2904 -0.5094
  103MOL0     H13889   9.598   9.215   5.455  1.2915  0.9051  1.6349
  103MOL0     H13890   9.420   9.108   5.358  1.3854  1.3204 -0.8132
  103MOL0     H13891   9.938   8.608   4.801  1.2280 -0.2401  2.3963
  103MOL0     H13892  10.069   8.744   4.653 -0.7228 -0.6530 -1.1439
  103MOL0     H13893  10.353   8.899   4.420 -3.4101 -5.1806  1.2820
  103MOL0     H13894  10.476   9.031   4.255 -2.3941 -1.3380 -2.6074
  103MOL0     H13895  10.836   8.931   4.301  1.9819 -0.5846 -1.3596
  103MOL0     H13896  10.904   8.983   4.153  0.3098  0.0178 -0.0101
  103MOL0     H13897  10.886   9.140   4.344  1.2758 -5.9727 -0.5234
  103MOL0     H13898  10.724   9.178   4.301  1.4129  1.7649  2.6702
  103MOL0     H13899  10.838   9.217   4.056  2.5005 -1.5957 -0.0669
  103MOL0     H13900  10.988   9.222   4.147  0.8033  1.2941  2.3748
  103MOL0     H13901  10.891   9.415   4.293 -1.5761 -0.4684  1.4456
  103MOL0     H13902  10.758   9.419   4.185  0.3655 -2.2957 -1.9230
  103MOL0     H13903  11.073   9.619   3.988 -0.2689  0.3657  1.5933
  103MOL0     H13904  10.753   8.707   4.183  2.0150  2.4006  0.1967
  103MOL0     H13905  10.633   8.575   4.338 -1.9625  0.2168  0.3742
  104MOL0     O13906   3.156   2.194   6.817  0.0353 -0.2109 -0.2313
  104MOL0     C13907   3.182   2.183   6.938  0.1438 -0.5936 -0.5455
  104MOL0     O13908   3.269   2.259   7.009 -0.1081  0.9835 -0.1299
  104MOL0     C13909   3.313   2.386   6.988  0.4850 -0.4149 -0.5250
  104MOL0     C13910   3.255   2.472   6.898 -0.8056 -1.1611  0.0837
  104MOL0     C13911   3.303   2.604   6.882  0.2692 -0.3750 -0.1530
  104MOL0     C13912   3.403   2.657   6.972  0.5149 -0.9566  0.8066
  104MOL0     O13913   3.436   2.789   6.958  0.5196 -0.3738 -0.9445
  104MOL0     C13914   3.549   2.846   7.020  0.6087  0.3135 -0.0874
  104MOL0     C13915   3.559   2.994   7.007  0.4495  0.2941  0.3703
  104MOL0     C13916   3.457   3.064   7.093  0.0753 -0.2800  0.6936
  104MOL0     C13917   3.497   3.218   7.098 -0.6441  0.4090 -0.2943
  104MOL0     C13918   3.471   3.282   6.963  0.3967  0.2773 -1.0571
  104MOL0     C13919   3.506   3.433   6.950  0.2251 -0.6324  0.2880
  104MOL0     C13920   3.445   3.490   6.814  0.3441  0.1357  0.4370
  104MOL0     C13921   3.508   3.457   6.673 -0.7591  0.1775 -0.9070
  104MOL0     N13922   3.659   3.480   6.671 -0.0950 -0.2333  0.0001
  104MOL0     C13923   3.752   3.394   6.723 -0.3065  0.3812 -0.2113
  104MOL0     C13924   3.868   3.445   6.688 -0.1668 -0.0202  0.6174
  104MOL0     C13925   3.989   3.364   6.714 -1.3605 -0.5072  0.2749
  104MOL0     C13926   4.093   3.462   6.786 -0.6598  1.0178 -0.0378
  104MOL0     C13927   4.239   3.407   6.779 -0.1398 -0.8394 -0.4615
  104MOL0     C13928   4.263   3.259   6.814  0.5642  0.9684 -0.1515
  104MOL0     O13929   4.181   3.213   6.918 -0.1215  0.4534 -0.7293
  104MOL0     C13930   4.242   3.134   7.016  0.9807 -0.3389 -0.3276
  104MOL0     C13931   4.216   3.155   7.157  0.1369  0.2689  0.0250
  104MOL0     C13932   4.269   3.071   7.258 -0.0319 -0.3605 -0.0964
  104MOL0     C13933   4.224   3.081   7.403 -0.5456 -0.2028 -0.3897
  104MOL0     C13934   4.380   2.983   7.221 -0.1547  0.2378 -0.3692
  104MOL0     C13935   4.476   2.932   7.317 -0.1621 -0.1712 -0.5540
  104MOL0     O13936   4.442   2.917   7.451  0.1332  0.6509 -0.7849
  104MOL0     C13937   4.538   2.882   7.547  0.4901 -0.6263  0.1650
  104MOL0     C13938   4.499   2.800   7.649  0.3459 -0.6509  0.0332
  104MOL0     C13939   4.592   2.770   7.753 -0.4180  0.3562  0.6414
  104MOL0     C13940   4.725   2.826   7.748 -1.1375  0.1155  0.0839
  104MOL0     O13941   4.808   2.778   7.846  0.5927  0.1567 -0.2607
  104MOL0     C13942   4.945   2.822   7.847  0.6640  0.0773 -0.1582
  104MOL0     C13943   5.019   2.737   7.956 -0.6465  0.7763  0.2764
  104MOL0     C13944   5.048   2.589   7.904 -0.1770 -0.5763  0.6168
  104MOL0     C13945   5.069   2.496   8.020 -0.0793  0.1124 -0.1453
  104MOL0     C13946   5.104   2.355   7.982  0.6726  0.1744 -0.4532
  104MOL0     C13947   5.137   2.269   8.116  0.4809  0.3689  0.7362
  104MOL0     C13948   5.191   2.128   8.080 -0.6913  0.0005 -0.8415
  104MOL0     C13949   5.274   2.065   8.192 -0.5629 -0.7435  0.3458
  104MOL0    Cl13950   5.353   1.912   8.140  0.2546  0.2283  0.7516
  104MOL0     C13951   4.758   2.922   7.645  0.5314  0.1712 -0.5435
  104MOL0     C13952   4.659   2.952   7.555  0.3516  0.2181  0.0297
  104MOL0     O13953   4.592   2.908   7.266  0.4294 -0.2207 -0.4029
  104MOL0     C13954   4.414   2.971   7.079  0.2088 -0.0788 -0.1815
  104MOL0     C13955   4.335   3.036   6.983  0.5707  0.2412  0.5458
  104MOL0     N13956   3.847   3.570   6.638 -0.2972  0.3101  0.1337
  104MOL0     N13957   3.722   3.586   6.615 -0.5728  0.9082 -0.3509
  104MOL0     C13958   3.460   2.572   7.056  0.8482  0.7395 -0.1625
  104MOL0     C13959   3.408   2.439   7.066 -0.6635  0.0595 -0.3551
  104MOL0     C13960   3.102   2.085   7.012 -0.4217  0.7037  0.4030
  104MOL0     C13961   3.172   1.979   7.076 -0.1864  0.1015 -0.3390
  104MOL0     C13962   3.102   1.863   7.118  0.6143 -0.7690 -0.3568
  104MOL0     C13963   2.960   1.854   7.105 -0.8667 -0.1346 -0.5679
  104MOL0     O13964   2.898   1.747   7.165  0.0378  0.9252 -0.1486
  104MOL0     C13965   2.825   1.789   7.280  0.3261  0.0208 -0.6259
  104MOL0     C13966   2.854   1.711   7.407  0.1218 -0.1964  1.5432
  104MOL0     C13967   2.818   1.566   7.384  0.1300  0.9760 -0.3575
  104MOL0     C13968   2.833   1.493   7.518  0.3131 -0.4177 -0.5960
  104MOL0     C13969   2.835   1.353   7.505 -0.5583  0.4229 -0.1334
  104MOL0     C13970   2.839   1.233   7.489 -0.0844  0.2556  1.0499
  104MOL0     C13971   2.891   1.956   7.033  0.0950  0.4463  0.1186
  104MOL0     C13972   2.965   2.073   6.985  0.9421  0.8435 -0.7572
  104MOL0     H13973   3.172   2.449   6.832 -0.9307 -2.8690  0.7716
  104MOL0     H13974   3.244   2.667   6.815  0.1998 -0.9009 -0.5910
  104MOL0     H13975   3.553   2.826   7.128 -3.8454  0.0305  0.1833
  104MOL0     H13976   3.639   2.798   6.979  1.6135  1.2413  0.9403
  104MOL0     H13977   3.659   3.024   7.040  0.8368 -2.5970  2.2246
  104MOL0     H13978   3.545   3.012   6.900  4.5872 -2.3810 -0.8590
  104MOL0     H13979   3.357   3.044   7.055  0.1942 -2.5883  1.4427
  104MOL0     H13980   3.462   3.018   7.192  1.4183 -3.0651 -0.5307
  104MOL0     H13981   3.437   3.263   7.178 -1.7918 -4.2596  1.8047
  104MOL0     H13982   3.603   3.221   7.124 -0.3311 -3.1582 -0.6587
  104MOL0     H13983   3.540   3.233   6.894  1.4628  1.5287 -0.9129
  104MOL0     H13984   3.366   3.257   6.944 -0.0883 -1.0393  2.5892
  104MOL0     H13985   3.465   3.486   7.036  1.2827 -1.3376  1.2507
  104MOL0     H13986   3.612   3.457   6.958 -0.3231  1.7374  1.2863
  104MOL0     H13987   3.338   3.467   6.802  0.6747 -1.1900 -0.1650
  104MOL0     H13988   3.441   3.598   6.830 -0.1080 -0.1654  2.6630
  104MOL0     H13989   3.468   3.520   6.593 -0.7266 -0.7221 -1.6539
  104MOL0     H13990   3.494   3.353   6.643 -0.1244 -0.1077 -0.2512
  104MOL0     H13991   3.737   3.296   6.767  0.5092  0.2460 -0.2348
  104MOL0     H13992   3.969   3.276   6.775 -3.3941 -0.9431 -0.9391
  104MOL0     H13993   4.017   3.339   6.611  0.8843  0.7905  0.4959
  104MOL0     H13994   4.073   3.466   6.893 -0.9758 -5.0840  0.5168
  104MOL0     H13995   4.088   3.560   6.738 -0.6214 -0.0410 -2.3787
  104MOL0     H13996   4.295   3.468   6.850  1.7991 -3.0430  0.0235
  104MOL0     H13997   4.281   3.435   6.682  0.2240  0.8927  0.1496
  104MOL0     H13998   4.370   3.248   6.833  1.0646 -1.8317 -3.4023
  104MOL0     H13999   4.238   3.204   6.722 -0.1471 -0.6931  0.9848
  104MOL0     H14000   4.167   3.249   7.181  0.3732  0.0946  1.2830
  104MOL0     H14001   4.202   2.980   7.440  3.2996 -1.1015 -0.1617
  104MOL0     H14002   4.311   3.111   7.462 -0.9137 -1.3649  0.7683
  104MOL0     H14003   4.149   3.154   7.435  1.5366  1.9797 -0.1855
  104MOL0     H14004   4.398   2.765   7.664  0.1486  1.0965  3.9271
  104MOL0     H14005   4.561   2.707   7.835  0.6273 -0.1467  0.6712
  104MOL0     H14006   4.995   2.819   7.751 -1.3080  0.6730 -1.2634
  104MOL0     H14007   4.933   2.924   7.883 -0.4325 -0.4339  1.0339
  104MOL0     H14008   5.112   2.788   7.986 -0.9386  2.2037 -1.0727
  104MOL0     H14009   4.972   2.732   8.054 -1.2262  0.4044 -0.0178
  104MOL0     H14010   5.135   2.591   7.838 -0.2806  0.0358  0.4949
  104MOL0     H14011   4.956   2.558   7.853 -1.0944  1.4479  0.9565
  104MOL0     H14012   5.136   2.534   8.097 -1.3356  2.3514 -0.0941
  104MOL0     H14013   4.976   2.485   8.076 -1.0184 -1.2952 -1.8696
  104MOL0     H14014   5.181   2.368   7.905 -0.3928  2.0483 -1.2560
  104MOL0     H14015   5.023   2.306   7.927  0.6803 -1.8887  1.2348
  104MOL0     H14016   5.212   2.328   8.168  2.3913 -0.5659 -0.8037
  104MOL0     H14017   5.051   2.257   8.182  0.9308  0.4803  1.3510
  104MOL0     H14018   5.237   2.118   7.981 -1.4933 -3.5925 -1.0033
  104MOL0     H14019   5.103   2.065   8.060 -1.9317  0.6886  1.9847
  104MOL0     H14020   5.212   2.050   8.281 -0.0445  1.9502  1.2609
  104MOL0     H14021   5.346   2.135   8.236 -0.4885 -0.4177 -0.2819
  104MOL0     H14022   4.856   2.964   7.625  1.3953 -0.9444  1.1536
  104MOL0     H14023   4.677   3.035   7.487 -1.8269  0.7697  0.0573
  104MOL0     H14024   4.487   2.904   7.035  1.3959  1.0421  0.0218
  104MOL0     H14025   4.347   3.019   6.876  2.8300  1.2104  0.5882
  104MOL0     H14026   3.539   2.596   7.126  1.5085 -1.5162 -0.0522
  104MOL0     H14027   3.445   2.368   7.140 -3.2300 -3.0831 -1.8369
  104MOL0     H14028   3.279   1.979   7.093  0.1469 -0.2836 -2.3044
  104MOL0     H14029   3.164   1.784   7.157 -0.4653 -0.9220  1.1427
  104MOL0     H14030   2.847   1.896   7.293 -1.8620  0.2972  1.4731
  104MOL0     H14031   2.717   1.793   7.265  0.4206 -2.9729 -2.8795
  104MOL0     H14032   2.794   1.757   7.485 -2.3742  2.1205 -1.5236
  104MOL0     H14033   2.959   1.727   7.435  0.0308  3.6340  0.2033
  104MOL0     H14034   2.882   1.519   7.309 -2.5161 -2.7221 -0.5688
  104MOL0     H14035   2.713   1.558   7.355  0.2569 -2.2263 -0.3772
  104MOL0     H14036   2.744   1.514   7.577  0.1431 -0.7167 -0.7481
  104MOL0     H14037   2.920   1.533   7.572 -0.6618  2.0166 -0.7030
  104MOL0     H14038   2.830   1.127   7.474  0.6531  0.3747 -0.5235
  104MOL0     H14039   2.784   1.953   7.016  0.3633 -2.2870 -1.8891
  104MOL0     H14040   2.904   2.145   6.931 -1.4866  0.0264  0.7377
  105MOL0     O14041   0.961   3.324   0.258 -0.5689  0.2821 -0.1016
  105MOL0     C14042   1.073   3.284   0.221  0.4447 -0.3535 -0.0373
  105MOL0     O14043   1.133   3.166   0.250 -0.0298 -1.1424  0.2359
  105MOL0     C14044   1.071   3.049   0.287  0.2936 -0.5728  0.0994
  105MOL0     C14045   1.143   2.955   0.359 -0.3548  0.3399  0.0369
  105MOL0     C14046   1.090   2.840   0.419 -0.0412 -0.2293 -0.0970
  105MOL0     C14047   0.952   2.810   0.392 -0.1489  0.5482 -0.2759
  105MOL0     O14048   0.880   2.706   0.450 -0.2315  0.2956  0.1933
  105MOL0     C14049   0.940   2.645   0.565 -0.2495  0.7416  0.1075
  105MOL0     C14050   0.821   2.570   0.623 -0.1656 -0.4652  0.1858
  105MOL0     C14051   0.872   2.503   0.745 -0.1001 -0.1657 -0.0952
  105MOL0     C14052   0.849   2.585   0.881  0.2247 -0.0359 -0.5475
  105MOL0     C14053   0.696   2.625   0.904  0.3712 -0.1644 -0.7283
  105MOL0     C14054   0.597   2.513   0.895 -0.5682  0.6286  0.0864
  105MOL0     C14055   0.454   2.563   0.937  0.1763 -0.8102  0.4840
  105MOL0     C14056   0.432   2.551   1.082  0.4158  0.0218 -0.3722
  105MOL0     N14057   0.378   2.413   1.115 -0.1134  0.3208  1.0388
  105MOL0     C14058   0.248   2.392   1.127 -0.1620  0.1355 -0.5736
  105MOL0     C14059   0.232   2.264   1.168  0.5113  0.9007 -0.5990
  105MOL0     C14060   0.093   2.202   1.190 -0.5066  0.0842  1.0838
  105MOL0     C14061   0.082   2.171   1.348 -0.6090 -0.5919  0.8886
  105MOL0     C14062  -0.069   2.165   1.370 -0.4979 -0.1293  0.3293
  105MOL0     C14063  -0.104   2.146   1.512 -0.3790  0.3148 -0.4157
  105MOL0     O14064  -0.041   2.036   1.575 -0.1008  0.4388  0.1166
  105MOL0     C14065  -0.096   2.006   1.697  0.2729  0.7058 -0.0822
  105MOL0     C14066  -0.135   2.089   1.798 -0.5494  0.9006 -0.6404
  105MOL0     C14067  -0.191   2.042   1.920 -0.5274  0.1521  0.5689
  105MOL0     C14068  -0.236   2.163   2.009 -0.3027  0.0310  0.5873
  105MOL0     C14069  -0.203   1.903   1.939 -0.0217 -0.0368 -0.0640
  105MOL0     C14070  -0.250   1.840   2.063  0.6043  0.1708 -1.4009
  105MOL0     O14071  -0.291   1.712   2.064 -0.3642 -0.1012  0.0221
  105MOL0     C14072  -0.333   1.659   2.182  0.0035 -0.6788  1.6304
  105MOL0     C14073  -0.445   1.582   2.166  0.4700  0.0476  0.4576
  105MOL0     C14074  -0.492   1.505   2.273 -0.0761 -0.2476  0.0780
  105MOL0     C14075  -0.437   1.516   2.405  0.1704 -0.4143  0.2526
  105MOL0     O14076  -0.474   1.441   2.513  0.8118  0.3429  0.5487
  105MOL0     C14077  -0.563   1.330   2.474 -0.4316  0.1088 -0.6090
  105MOL0     C14078  -0.565   1.234   2.590 -0.3261  0.5494 -0.4054
  105MOL0     C14079  -0.641   1.283   2.712  0.2860 -0.3900  0.1882
  105MOL0     C14080  -0.788   1.315   2.681 -0.1533 -0.1309  0.9124
  105MOL0     C14081  -0.862   1.346   2.813  0.4557  0.3619 -0.1708
  105MOL0     C14082  -1.006   1.396   2.779  0.5134 -0.0981 -0.1306
  105MOL0     C14083  -1.098   1.293   2.694 -0.2242  0.3468 -0.0959
  105MOL0     C14084  -1.233   1.349   2.646 -0.3975 -1.1667  0.5299
  105MOL0    Cl14085  -1.314   1.240   2.528 -0.7108  0.0650 -0.1281
  105MOL0     C14086  -0.332   1.609   2.426 -0.4874  0.3461  0.6694
  105MOL0     C14087  -0.283   1.680   2.309 -0.4950 -0.7625 -1.0622
  105MOL0     O14088  -0.262   1.918   2.160 -0.7248 -0.3899 -0.9571
  105MOL0     C14089  -0.157   1.817   1.840 -0.6604 -0.5332 -0.3283
  105MOL0     C14090  -0.102   1.867   1.727  0.4393  0.0920 -0.0954
  105MOL0     N14091   0.362   2.200   1.172  0.9505 -0.1758 -0.7545
  105MOL0     N14092   0.445   2.294   1.132 -0.4647 -0.2516 -0.0864
  105MOL0     C14093   0.876   2.902   0.326  0.0373 -0.4736  0.2556
  105MOL0     C14094   0.937   3.016   0.266 -0.4964 -0.0457 -0.5837
  105MOL0     C14095   1.141   3.379   0.125  0.5059  0.2943 -0.6856
  105MOL0     C14096   1.274   3.344   0.098 -0.3397 -0.3602 -0.6845
  105MOL0     C14097   1.337   3.418  -0.001 -0.3620  0.0095 -1.2418
  105MOL0     C14098   1.281   3.519  -0.068  0.3687  0.1978 -0.3789
  105MOL0     O14099   1.353   3.589  -0.154  0.2928  0.8140  0.8610
  105MOL0     C14100   1.420   3.715  -0.107  0.2342  0.7082  0.1122
  105MOL0     C14101   1.546   3.743  -0.187 -0.3966 -0.1865  1.0243
  105MOL0     C14102   1.650   3.623  -0.183 -0.0665  0.4973 -0.1041
  105MOL0     C14103   1.785   3.666  -0.231  0.1627 -0.1655  0.9917
  105MOL0     C14104   1.877   3.723  -0.129 -0.1872  0.4352 -0.2511
  105MOL0     C14105   1.975   3.760  -0.063 -0.8381  0.3022  0.9881
  105MOL0     C14106   1.147   3.548  -0.047 -0.0868  0.5138 -0.4763
  105MOL0     C14107   1.078   3.479   0.045  0.1790 -0.2958  0.2159
  105MOL0     H14108   1.243   2.985   0.390  1.5799 -3.2401 -2.0527
  105MOL0     H14109   1.152   2.764   0.467  0.0857 -1.6666 -2.4041
  105MOL0     H14110   1.018   2.572   0.547 -2.3294 -2.3776  2.6056
  105MOL0     H14111   0.965   2.722   0.639 -1.9545  1.9769 -0.5244
  105MOL0     H14112   0.749   2.652   0.631  1.6213  1.1869  0.0369
  105MOL0     H14113   0.781   2.492   0.557 -0.5074 -0.1109 -0.0273
  105MOL0     H14114   0.816   2.410   0.755 -2.7887  1.1438 -1.7301
  105MOL0     H14115   0.980   2.490   0.735 -0.2152  0.1337 -2.1453
  105MOL0     H14116   0.879   2.529   0.969 -0.6963  1.7231  0.9662
  105MOL0     H14117   0.919   2.669   0.871  0.9589 -0.7464 -1.5991
  105MOL0     H14118   0.689   2.677   1.000 -2.1153 -0.1834 -0.8418
  105MOL0     H14119   0.667   2.697   0.827 -1.0039 -1.5048 -1.5147
  105MOL0     H14120   0.577   2.478   0.793  1.1044  0.2601 -0.1539
  105MOL0     H14121   0.617   2.427   0.959 -0.4383  2.0472  2.0616
  105MOL0     H14122   0.453   2.669   0.908 -2.1636 -1.1692 -0.9194
  105MOL0     H14123   0.379   2.504   0.884 -0.4575 -1.7237  2.3120
  105MOL0     H14124   0.370   2.628   1.127  2.2520  0.7850  1.0057
  105MOL0     H14125   0.525   2.572   1.135 -0.2110 -1.8808  1.6495
  105MOL0     H14126   0.171   2.468   1.111 -1.9815 -1.3013  0.9403
  105MOL0     H14127   0.013   2.266   1.154  1.7008  1.4841 -1.6914
  105MOL0     H14128   0.078   2.112   1.129  0.9921  1.0414 -0.7935
  105MOL0     H14129   0.136   2.251   1.400  0.8563 -1.7934  1.2598
  105MOL0     H14130   0.141   2.083   1.374  0.8236 -1.4589 -4.2419
  105MOL0     H14131  -0.107   2.085   1.306  1.3125 -0.5577 -0.2857
  105MOL0     H14132  -0.114   2.259   1.335 -1.0165 -0.0840  1.0980
  105MOL0     H14133  -0.212   2.150   1.529 -0.4345 -0.8930 -0.3613
  105MOL0     H14134  -0.045   2.228   1.554 -0.6699 -0.6692  2.1161
  105MOL0     H14135  -0.133   2.197   1.792  1.6769  0.8361 -2.0700
  105MOL0     H14136  -0.249   2.137   2.115  0.8530 -4.2509 -0.1109
  105MOL0     H14137  -0.178   2.255   2.003  1.8289 -1.3437 -1.6869
  105MOL0     H14138  -0.338   2.188   1.978  0.6787  2.9307 -0.6088
  105MOL0     H14139  -0.488   1.577   2.067  0.9616  2.1790  0.0846
  105MOL0     H14140  -0.572   1.435   2.252  0.7172 -0.9456 -0.7109
  105MOL0     H14141  -0.669   1.348   2.452 -1.0441 -1.3010  0.9761
  105MOL0     H14142  -0.530   1.282   2.382 -2.1454  0.6548 -1.5513
  105MOL0     H14143  -0.610   1.139   2.560  0.1222  0.1368  0.1894
  105MOL0     H14144  -0.457   1.222   2.602 -0.1417  1.7948 -0.6693
  105MOL0     H14145  -0.589   1.370   2.753  1.3286 -1.5088  1.3479
  105MOL0     H14146  -0.650   1.200   2.783 -1.6477  1.0902  1.8130
  105MOL0     H14147  -0.802   1.394   2.607  0.2933 -2.7372 -2.1858
  105MOL0     H14148  -0.828   1.220   2.646  1.8479 -1.0254  0.8706
  105MOL0     H14149  -0.812   1.429   2.864  0.5713  0.2585 -0.1176
  105MOL0     H14150  -0.859   1.256   2.874  1.1908  1.0254  0.8033
  105MOL0     H14151  -1.052   1.418   2.876 -0.5876 -2.2168 -0.0937
  105MOL0     H14152  -0.998   1.483   2.713 -0.6574 -2.1302 -3.2010
  105MOL0     H14153  -1.119   1.199   2.746 -1.4983 -0.2931 -1.6677
  105MOL0     H14154  -1.038   1.265   2.607  1.3026  0.3189  0.9290
  105MOL0     H14155  -1.213   1.443   2.595 -1.1387 -0.3239  1.7253
  105MOL0     H14156  -1.303   1.369   2.728 -0.4268 -0.8349  0.4262
  105MOL0     H14157  -0.283   1.619   2.523  1.3113  0.8236 -0.2375
  105MOL0     H14158  -0.196   1.745   2.316 -3.4522  3.4219  1.2390
  105MOL0     H14159  -0.170   1.711   1.857 -3.6447  0.0283  1.8362
  105MOL0     H14160  -0.063   1.806   1.646  2.6511  1.0875  0.1547
  105MOL0     H14161   0.772   2.878   0.304 -0.4057  1.0524  0.5988
  105MOL0     H14162   0.881   3.072   0.192 -2.4759 -1.8456 -0.5410
  105MOL0     H14163   1.324   3.255   0.134  2.6160  2.1266  1.9624
  105MOL0     H14164   1.436   3.380  -0.025  0.3618 -0.1263  1.6112
  105MOL0     H14165   1.349   3.796  -0.125 -2.1037 -1.5625 -1.5555
  105MOL0     H14166   1.451   3.700  -0.003 -1.4420  0.3977  0.5852
  105MOL0     H14167   1.602   3.827  -0.146 -1.6336  0.5235  1.3013
  105MOL0     H14168   1.529   3.767  -0.292 -3.3510  2.2277  1.9091
  105MOL0     H14169   1.609   3.552  -0.255 -1.0369  0.0204  0.9040
  105MOL0     H14170   1.651   3.576  -0.085  1.2293  2.0559  0.6857
  105MOL0     H14171   1.767   3.736  -0.314  1.3750 -1.5786 -0.5238
  105MOL0     H14172   1.838   3.579  -0.271  1.6732  0.9266  0.4832
  105MOL0     H14173   2.062   3.798  -0.013  0.8366  3.3606 -3.5360
  105MOL0     H14174   1.102   3.636  -0.092 -0.3501 -0.3784 -2.0386
  105MOL0     H14175   0.977   3.517   0.058  0.9171  1.9526 -0.2999
  106MOL0     O14176   0.484   0.575   8.307 -0.4335 -0.5913  0.3445
  106MOL0     C14177   0.437   0.624   8.206 -0.0779  1.2108 -0.1153
  106MOL0     O14178   0.371   0.745   8.204  0.4341  0.3399  0.1147
  106MOL0     C14179   0.328   0.797   8.321  0.5057 -0.0441 -0.3718
  106MOL0     C14180   0.383   0.910   8.375  0.2021 -0.4798  0.0781
  106MOL0     C14181   0.326   0.968   8.484  0.3078 -0.5623 -0.2761
  106MOL0     C14182   0.216   0.915   8.558  0.7021  0.0352 -0.9151
  106MOL0     O14183   0.174   0.990   8.672  0.0902 -0.0552  0.0821
  106MOL0     C14184   0.063   0.942   8.751  0.5753  0.3023 -0.9043
  106MOL0     C14185   0.021   1.057   8.844  1.1455 -0.1309 -0.4634
  106MOL0     C14186   0.092   1.061   8.975 -0.6096 -0.6958  0.0862
  106MOL0     C14187   0.120   1.196   9.056 -0.1356 -0.3038 -0.8343
  106MOL0     C14188   0.247   1.184   9.132  0.3158 -0.3710  0.0240
  106MOL0     C14189   0.223   1.156   9.282 -0.8756  0.6885  0.4483
  106MOL0     C14190   0.213   1.007   9.300 -0.8837 -0.6543  0.7473
  106MOL0     C14191   0.228   0.970   9.447  0.6694  0.8805 -0.5221
  106MOL0     N14192   0.289   0.840   9.472 -0.5983  0.1547  0.3541
  106MOL0     C14193   0.354   0.807   9.593 -0.2939  0.5154 -0.5526
  106MOL0     C14194   0.388   0.678   9.573  0.3513  0.8692  0.5144
  106MOL0     C14195   0.476   0.602   9.660 -0.0381 -0.0229 -0.1983
  106MOL0     C14196   0.393   0.550   9.787  0.1090  0.3827  0.1715
  106MOL0     C14197   0.487   0.464   9.875 -0.1945  1.3412 -0.1849
  106MOL0     C14198   0.539   0.345   9.792 -0.1737  0.8867 -0.3297
  106MOL0     O14199   0.560   0.242   9.893 -0.6886 -0.6681  0.5081
  106MOL0     C14200   0.557   0.120   9.840 -0.6899  1.7021  0.2570
  106MOL0     C14201   0.526   0.007   9.925 -0.3895 -0.7952  0.5928
  106MOL0     C14202   0.539  -0.123   9.871  0.1930 -0.8356  1.1972
  106MOL0     C14203   0.522  -0.228   9.977  0.0520  1.0114  0.0021
  106MOL0     C14204   0.561  -0.138   9.727  0.2729  0.5388 -0.4529
  106MOL0     C14205   0.544  -0.264   9.657  0.6752 -0.2443  0.3669
  106MOL0     O14206   0.526  -0.385   9.734 -0.5534  0.1962 -0.3676
  106MOL0     C14207   0.473  -0.504   9.699 -0.6419  0.8896  0.0654
  106MOL0     C14208   0.391  -0.524   9.585 -0.3475 -0.7772 -0.6826
  106MOL0     C14209   0.366  -0.652   9.537 -0.2378  0.6522 -0.7701
  106MOL0     C14210   0.385  -0.759   9.630 -0.4253 -0.2405 -0.3858
  106MOL0     O14211   0.369  -0.884   9.585  0.2968  0.3232 -0.0150
  106MOL0     C14212   0.271  -0.961   9.657 -0.1738 -0.9905 -0.0328
  106MOL0     C14213   0.354  -1.085   9.692 -0.4411 -0.4504  0.6654
  106MOL0     C14214   0.389  -1.179   9.572  0.8749 -0.4685 -0.5443
  106MOL0     C14215   0.378  -1.322   9.617 -0.8541 -0.1343  0.6295
  106MOL0     C14216   0.488  -1.364   9.715  0.5154  1.0374  0.7351
  106MOL0     C14217   0.513  -1.506   9.740  0.4191  0.2602  0.1232
  106MOL0     C14218   0.394  -1.573   9.807  0.5710  0.6387 -0.1523
  106MOL0     C14219   0.433  -1.711   9.840 -1.1977 -0.1659  0.0471
  106MOL0    Cl14220   0.302  -1.804   9.917  0.4365  0.1148 -0.1614
  106MOL0     C14221   0.454  -0.739   9.747 -0.7614 -0.3980 -0.2784
  106MOL0     C14222   0.487  -0.611   9.787 -0.0207  0.1549 -0.7630
  106MOL0     O14223   0.521  -0.256   9.533  0.4023 -0.6420  0.7403
  106MOL0     C14224   0.585  -0.025   9.650  0.1220 -1.1465  0.0937
  106MOL0     C14225   0.593   0.096   9.712 -0.6199  0.0371  0.0988
  106MOL0     N14226   0.318   0.626   9.463  0.0377 -0.6662  0.4877
  106MOL0     N14227   0.271   0.731   9.398 -1.1398  0.4260 -0.2367
  106MOL0     C14228   0.162   0.801   8.502 -0.1966 -1.2390 -1.0716
  106MOL0     C14229   0.218   0.741   8.388  1.3680 -0.6983  0.2285
  106MOL0     C14230   0.469   0.576   8.073  0.4463  1.8499  0.7635
  106MOL0     C14231   0.519   0.443   8.059 -1.0145 -1.1240  0.1526
  106MOL0     C14232   0.510   0.379   7.936 -0.3000 -0.0966  0.0880
  106MOL0     C14233   0.466   0.435   7.812  1.0116 -0.4109 -0.4417
  106MOL0     O14234   0.456   0.366   7.690  0.4808 -0.8493  0.6535
  106MOL0     C14235   0.509   0.238   7.671  0.3248  0.5872 -0.1740
  106MOL0     C14236   0.600   0.238   7.545 -0.1713  0.5071 -0.6979
  106MOL0     C14237   0.528   0.277   7.413 -0.3892 -0.2669 -0.2163
  106MOL0     C14238   0.379   0.226   7.397  0.3858  0.1844 -0.1984
  106MOL0     C14239   0.372   0.077   7.410  1.4771 -0.1257 -0.2859
  106MOL0     C14240   0.361  -0.039   7.414 -0.2399  0.3493  0.3311
  106MOL0     C14241   0.423   0.567   7.823 -0.4090  0.0230  0.2047
  106MOL0     C14242   0.438   0.641   7.947 -0.3241  0.4820  0.4266
  106MOL0     H14243   0.469   0.958   8.328 -1.1514  0.6002 -1.3713
  106MOL0     H14244   0.372   1.059   8.522 -1.8720  1.0840 -1.3641
  106MOL0     H14245  -0.026   0.902   8.702  1.1521  0.2454 -1.9554
  106MOL0     H14246   0.116   0.863   8.804 -2.3517 -0.8971  0.4563
  106MOL0     H14247   0.038   1.155   8.799 -0.6559  1.9656  3.0320
  106MOL0     H14248  -0.087   1.052   8.861  0.5991 -3.3230 -3.5700
  106MOL0     H14249   0.058   0.982   9.043  1.6157 -0.1808  1.9586
  106MOL0     H14250   0.194   1.037   8.944 -0.8606  0.4036 -1.7195
  106MOL0     H14251   0.141   1.288   8.999  0.6234  1.1000  1.5698
  106MOL0     H14252   0.034   1.226   9.117 -1.0728 -0.8801 -1.8215
  106MOL0     H14253   0.321   1.117   9.088  1.0633 -0.5364  1.4780
  106MOL0     H14254   0.296   1.282   9.128 -0.9149  0.2347 -0.7723
  106MOL0     H14255   0.313   1.196   9.328  1.9594  1.1280 -4.6607
  106MOL0     H14256   0.130   1.208   9.308 -2.6154  0.1242 -3.6979
  106MOL0     H14257   0.116   0.974   9.261 -0.2297 -0.0729 -1.4942
  106MOL0     H14258   0.289   0.948   9.249 -1.6937 -2.7015  1.7824
  106MOL0     H14259   0.126   0.983   9.485  0.7648 -0.9018  0.4317
  106MOL0     H14260   0.296   1.039   9.497  3.4201 -2.6308  0.9902
  106MOL0     H14261   0.386   0.870   9.676 -0.3117  0.8009 -0.7644
  106MOL0     H14262   0.504   0.514   9.601 -1.6793 -1.1655  0.6691
  106MOL0     H14263   0.569   0.655   9.685  0.0065  0.0488 -0.5155
  106MOL0     H14264   0.303   0.499   9.754  1.2493 -0.6153 -1.5084
  106MOL0     H14265   0.349   0.628   9.850 -1.4573 -1.5174  1.5493
  106MOL0     H14266   0.437   0.437   9.969 -2.1642 -1.4864 -1.8949
  106MOL0     H14267   0.574   0.525   9.903 -0.6523  0.5383  3.4799
  106MOL0     H14268   0.640   0.363   9.753  1.4163 -1.1469  2.4543
  106MOL0     H14269   0.460   0.319   9.722 -1.8150  1.3811  1.2522
  106MOL0     H14270   0.497   0.020  10.029 -3.6644  0.1668 -0.3086
  106MOL0     H14271   0.571  -0.202  10.072 -0.0663  0.8918  0.0965
  106MOL0     H14272   0.413  -0.235   9.990 -0.8753  4.3461 -3.9395
  106MOL0     H14273   0.565  -0.327   9.962 -1.8284  0.1577 -0.1403
  106MOL0     H14274   0.364  -0.442   9.519  0.7861 -0.2665 -0.5419
  106MOL0     H14275   0.323  -0.681   9.442 -0.9910 -2.4946  0.4093
  106MOL0     H14276   0.224  -0.906   9.740 -1.2747  0.0741 -1.3279
  106MOL0     H14277   0.191  -0.993   9.590 -1.7956 -0.7608  1.7111
  106MOL0     H14278   0.443  -1.066   9.754  0.5991 -2.6195 -0.0495
  106MOL0     H14279   0.287  -1.139   9.760  0.5681 -0.5490  1.6273
  106MOL0     H14280   0.489  -1.165   9.530  1.3948  0.6662  1.0152
  106MOL0     H14281   0.316  -1.150   9.495 -1.3670  0.3235  1.7239
  106MOL0     H14282   0.280  -1.357   9.651 -1.2190 -1.5869 -1.7050
  106MOL0     H14283   0.404  -1.373   9.524  0.9236 -1.0172  1.5736
  106MOL0     H14284   0.474  -1.298   9.801 -0.7950  1.9083 -0.1198
  106MOL0     H14285   0.582  -1.327   9.671  2.6955 -1.1071  3.2290
  106MOL0     H14286   0.555  -1.553   9.651  1.9367  0.7600  0.5359
  106MOL0     H14287   0.595  -1.517   9.811  0.3942 -2.5281 -0.1914
  106MOL0     H14288   0.301  -1.579   9.749  0.5571 -0.2586 -0.0484
  106MOL0     H14289   0.363  -1.522   9.899 -2.9039  1.4583 -1.5980
  106MOL0     H14290   0.530  -1.700   9.890 -1.1588 -3.2908  0.9245
  106MOL0     H14291   0.460  -1.763   9.747  2.0859  2.6233 -0.7803
  106MOL0     H14292   0.483  -0.810   9.824  1.1442  0.6092  0.0036
  106MOL0     H14293   0.522  -0.595   9.888 -0.6415  0.9841 -0.6631
  106MOL0     H14294   0.595  -0.031   9.542  1.0116 -1.4275  0.1843
  106MOL0     H14295   0.630   0.167   9.639  1.4614 -0.3062  0.7519
  106MOL0     H14296   0.079   0.753   8.554  0.8602  1.8029  4.1128
  106MOL0     H14297   0.171   0.653   8.344 -2.8179  0.4791  1.8464
  106MOL0     H14298   0.558   0.381   8.139  1.2148 -0.0349 -0.0036
  106MOL0     H14299   0.555   0.280   7.936  1.2424  0.5375  2.0204
  106MOL0     H14300   0.560   0.184   7.752  1.5986  1.6214 -0.2468
  106MOL0     H14301   0.434   0.161   7.653  2.4107 -1.3054 -1.2207
  106MOL0     H14302   0.641   0.137   7.539  0.3178  0.7938 -4.3737
  106MOL0     H14303   0.686   0.306   7.548  2.6227 -2.7513 -0.6983
  106MOL0     H14304   0.591   0.232   7.336  0.1111  0.5110 -0.2785
  106MOL0     H14305   0.525   0.384   7.391 -0.0235 -0.5657 -1.8252
  106MOL0     H14306   0.331   0.266   7.307  0.0958 -0.9557 -0.5687
  106MOL0     H14307   0.321   0.275   7.476  2.4611 -0.0419  1.5716
  106MOL0     H14308   0.371  -0.146   7.411  1.6270  0.5360 -1.2252
  106MOL0     H14309   0.396   0.623   7.734 -1.0730  1.4093  1.2326
  106MOL0     H14310   0.415   0.747   7.950 -1.7955  0.1677  2.0861
  107MOL0     O14311   1.417  10.736   7.586 -0.7792 -0.6664  0.3576
  107MOL0     C14312   1.426  10.854   7.607 -0.4405 -0.0753 -0.1788
  107MOL0     O14313   1.344  10.931   7.687 -0.4936  0.3663  0.2491
  107MOL0     C14314   1.236  10.882   7.751  0.0388 -0.4265 -0.4512
  107MOL0     C14315   1.117  10.947   7.736 -0.3251  0.3107 -0.9257
  107MOL0     C14316   0.996  10.875   7.778 -0.1217 -0.3573 -0.5284
  107MOL0     C14317   1.006  10.742   7.829 -0.4571  0.6939  0.1783
  107MOL0     O14318   0.896  10.665   7.859 -0.4911 -0.9364  0.0383
  107MOL0     C14319   0.776  10.665   7.782  0.7276 -0.6917 -0.3667
  107MOL0     C14320   0.646  10.657   7.868  0.2342 -0.1605 -0.8530
  107MOL0     C14321   0.609  10.782   7.943  0.9099 -1.1944  0.3754
  107MOL0     C14322   0.705  10.820   8.058  0.4671  0.6401 -0.1463
  107MOL0     C14323   0.721  10.721   8.167  0.4712  0.5479 -0.2292
  107MOL0     C14324   0.822  10.775   8.281 -0.0188  0.0702 -0.6389
  107MOL0     C14325   0.842  10.666   8.390 -0.9063  0.7561 -0.3856
  107MOL0     C14326   0.944  10.688   8.498  0.4730 -0.4603 -0.1625
  107MOL0     N14327   0.914  10.805   8.578  0.3359  0.2547 -0.4221
  107MOL0     C14328   0.797  10.825   8.648  0.3257 -0.0503 -0.1604
  107MOL0     C14329   0.818  10.921   8.737 -0.5277 -0.1279  0.0263
  107MOL0     C14330   0.723  10.964   8.845  0.1630  1.0626  0.2031
  107MOL0     C14331   0.730  10.868   8.962 -0.7798 -0.4944 -0.2072
  107MOL0     C14332   0.609  10.880   9.062 -0.3793  1.0238  0.0654
  107MOL0     C14333   0.627  10.797   9.187  0.4210 -0.7869 -0.6078
  107MOL0     O14334   0.729  10.859   9.278  0.1328  0.3510  0.3984
  107MOL0     C14335   0.744  10.809   9.400  0.8885 -0.3121 -0.3788
  107MOL0     C14336   0.808  10.893   9.494  0.3117 -0.6052 -0.5228
  107MOL0     C14337   0.841  10.846   9.622 -0.6923  0.0316 -0.1843
  107MOL0     C14338   0.914  10.948   9.714 -0.0915  0.4237 -0.3610
  107MOL0     C14339   0.823  10.714   9.658 -0.3048  0.5769 -0.6106
  107MOL0     C14340   0.876  10.653   9.785  0.4459 -0.5041 -0.7175
  107MOL0     O14341   1.002  10.695   9.824 -0.5910 -0.1500  0.0118
  107MOL0     C14342   1.050  10.659   9.953  0.5975  0.0315  0.4684
  107MOL0     C14343   1.191  10.660   9.979  0.0139 -0.1456  0.4352
  107MOL0     C14344   1.239  10.647  10.107 -0.1139  0.5528 -0.4587
  107MOL0     C14345   1.157  10.630  10.222 -1.6033 -0.5586  0.7789
  107MOL0     O14346   1.195  10.615  10.348  0.0148  0.4492 -0.3638
  107MOL0     C14347   1.315  10.541  10.376  1.1720 -0.4678 -0.3771
  107MOL0     C14348   1.309  10.498  10.520  0.1618 -0.1629 -0.2834
  107MOL0     C14349   1.329  10.600  10.633  0.2071  0.9928 -0.6254
  107MOL0     C14350   1.480  10.626  10.656  0.3453  0.8930 -0.0932
  107MOL0     C14351   1.517  10.720  10.765  0.1016 -0.1173 -0.4558
  107MOL0     C14352   1.669  10.741  10.792 -0.2726 -0.1385  0.4004
  107MOL0     C14353   1.706  10.815  10.924  0.1524 -0.4632  0.4201
  107MOL0     C14354   1.856  10.847  10.931  0.0382  0.0959  0.2018
  107MOL0    Cl14355   1.925  10.935  10.786  0.1152  0.3996  0.1593
  107MOL0     C14356   1.021  10.630  10.201  0.0162  0.4345  0.7075
  107MOL0     C14357   0.965  10.636  10.068 -0.6165  0.0047 -0.1128
  107MOL0     O14358   0.811  10.558   9.831  1.0177  0.2293  0.0386
  107MOL0     C14359   0.735  10.643   9.568 -0.4225 -0.8481 -0.3407
  107MOL0     C14360   0.701  10.686   9.442 -0.6872  0.3831  0.2631
  107MOL0     N14361   0.947  10.961   8.725  0.4687  0.6678  0.8522
  107MOL0     N14362   1.003  10.894   8.628  0.7763 -0.6150  0.0287
  107MOL0     C14363   1.129  10.684   7.840 -0.4501 -0.4548 -0.2060
  107MOL0     C14364   1.241  10.765   7.808  0.7561  0.4304  0.0820
  107MOL0     C14365   1.549  10.926   7.556  0.7521 -0.7241 -1.1535
  107MOL0     C14366   1.549  11.065   7.553  0.1910 -0.4718  0.5875
  107MOL0     C14367   1.660  11.130   7.511 -0.5234  1.0613  0.4874
  107MOL0     C14368   1.781  11.061   7.466 -0.3217 -0.1974  0.2671
  107MOL0     O14369   1.894  11.126   7.426 -0.3744 -0.1777 -0.4894
  107MOL0     C14370   1.879  11.267   7.396 -0.6144 -0.1941  0.1035
  107MOL0     C14371   2.001  11.323   7.307 -0.3260  0.6144 -0.8103
  107MOL0     C14372   2.133  11.305   7.383 -0.4516  0.2746 -1.5687
  107MOL0     C14373   2.245  11.330   7.279 -0.6052 -0.6572 -0.4598
  107MOL0     C14374   2.364  11.291   7.350 -0.0496 -0.5153 -0.1819
  107MOL0     C14375   2.451  11.248   7.424  0.8614  0.4587  0.4897
  107MOL0     C14376   1.777  10.926   7.458  0.3577  0.8104  0.0134
  107MOL0     C14377   1.667  10.864   7.509  0.6260  0.3351  0.0961
  107MOL0     H14378   1.109  11.041   7.682  0.6367  0.6136 -0.5572
  107MOL0     H14379   0.903  10.929   7.776 -0.3990 -0.6533  1.6335
  107MOL0     H14380   0.759  10.748   7.713  0.0697  0.7453  1.4242
  107MOL0     H14381   0.785  10.578   7.716  1.4156 -0.0786 -1.1088
  107MOL0     H14382   0.568  10.633   7.795 -1.0777 -0.5050  0.6179
  107MOL0     H14383   0.651  10.569   7.933 -0.9738 -0.2697 -0.8957
  107MOL0     H14384   0.609  10.865   7.873 -2.3318  1.2762  2.9468
  107MOL0     H14385   0.511  10.782   7.993 -0.4142  0.3731 -2.0349
  107MOL0     H14386   0.807  10.833   8.020  2.0064  4.1869  4.2772
  107MOL0     H14387   0.677  10.919   8.096 -1.1090  0.0286  0.3850
  107MOL0     H14388   0.624  10.704   8.214  0.9420  0.8636  0.8972
  107MOL0     H14389   0.756  10.627   8.123 -1.2663 -0.3044  0.1513
  107MOL0     H14390   0.919  10.799   8.239  0.8415 -2.4372 -0.2497
  107MOL0     H14391   0.787  10.863   8.337 -1.2042 -0.5482 -0.3776
  107MOL0     H14392   0.751  10.658   8.449  0.9634  0.6698  2.7058
  107MOL0     H14393   0.864  10.570   8.341  0.5326  0.2679  1.1349
  107MOL0     H14394   1.038  10.707   8.444 -0.6260  2.2892 -1.3048
  107MOL0     H14395   0.961  10.598   8.558  0.1584  1.1542  2.5133
  107MOL0     H14396   0.707  10.765   8.638  0.1975  0.4238 -2.3776
  107MOL0     H14397   0.742  11.063   8.887 -4.1065  2.4373 -0.5446
  107MOL0     H14398   0.625  10.964   8.796  0.6619 -2.1360 -1.0507
  107MOL0     H14399   0.828  10.881   9.009 -0.7248  0.7505 -0.6222
  107MOL0     H14400   0.725  10.766   8.922 -0.8736 -1.0753  1.2208
  107MOL0     H14401   0.521  10.854   9.002  0.3194  1.7401 -1.3124
  107MOL0     H14402   0.595  10.978   9.108 -0.8287  0.3245  1.4797
  107MOL0     H14403   0.659  10.696   9.159 -3.7196 -2.2552 -0.7542
  107MOL0     H14404   0.527  10.794   9.232 -0.1788 -1.4612 -1.9293
  107MOL0     H14405   0.827  10.995   9.462 -0.3556 -0.6006 -0.9214
  107MOL0     H14406   0.885  11.048   9.682  2.0103  1.0810 -0.3844
  107MOL0     H14407   0.868  10.946   9.813 -2.1030  3.3071 -1.1252
  107MOL0     H14408   1.023  10.948   9.719 -0.0882  2.3263  0.3743
  107MOL0     H14409   1.274  10.685   9.914 -0.0268 -0.0943  0.4016
  107MOL0     H14410   1.346  10.659  10.120 -0.3333 -0.1105  2.8306
  107MOL0     H14411   1.330  10.458  10.307  1.6149 -1.3287  0.7249
  107MOL0     H14412   1.399  10.610  10.362  0.8431 -0.0844 -0.5155
  107MOL0     H14413   1.214  10.445  10.527  2.2133 -3.9876  1.3665
  107MOL0     H14414   1.382  10.421  10.544 -1.9774 -1.2869  3.4997
  107MOL0     H14415   1.294  10.561  10.729  2.3951  1.5197  0.4557
  107MOL0     H14416   1.292  10.702  10.614  1.5202  2.3359  3.0343
  107MOL0     H14417   1.530  10.532  10.680  2.8996  1.9040 -1.1121
  107MOL0     H14418   1.514  10.662  10.558 -1.3120  0.3363 -0.9260
  107MOL0     H14419   1.469  10.681  10.855 -0.1972 -0.2723 -0.6807
  107MOL0     H14420   1.470  10.818  10.751  1.1124  0.2910 -1.1709
  107MOL0     H14421   1.730  10.651  10.781 -0.4440 -0.1738 -0.2935
  107MOL0     H14422   1.699  10.801  10.706 -2.0321  0.9496  0.4841
  107MOL0     H14423   1.683  10.757  11.013 -1.6772 -2.4250 -1.2240
  107MOL0     H14424   1.635  10.898  10.930 -1.2559 -1.6761  0.7779
  107MOL0     H14425   1.912  10.753  10.931 -1.5436 -0.9058  1.8536
  107MOL0     H14426   1.882  10.902  11.021  1.2276  0.9834 -0.6438
  107MOL0     H14427   0.965  10.627  10.293  1.1513  0.1032  1.4108
  107MOL0     H14428   0.856  10.635  10.073 -0.5958  0.3541  0.5152
  107MOL0     H14429   0.706  10.543   9.598  2.5612 -1.4036  1.0444
  107MOL0     H14430   0.661  10.609   9.378  1.6431 -0.5315 -0.2007
  107MOL0     H14431   1.141  10.586   7.884 -1.2457 -0.1167  0.7921
  107MOL0     H14432   1.330  10.704   7.822 -1.8208 -3.5535  0.6911
  107MOL0     H14433   1.459  11.122   7.575 -2.0549 -2.2235 -3.1962
  107MOL0     H14434   1.646  11.238   7.507 -0.6821  1.0122 -0.5672
  107MOL0     H14435   1.784  11.290   7.346 -2.3072 -0.0984  3.1046
  107MOL0     H14436   1.863  11.323   7.488 -1.9815 -0.6261  0.1594
  107MOL0     H14437   1.975  11.424   7.274  0.1524 -0.2886 -4.3225
  107MOL0     H14438   2.009  11.262   7.217  1.8400 -3.5702  1.8782
  107MOL0     H14439   2.133  11.204   7.423  3.4254  1.2413  1.4573
  107MOL0     H14440   2.144  11.370   7.470  0.2330 -2.1277  0.2500
  107MOL0     H14441   2.247  11.439   7.276 -0.3254  0.0393  6.8783
  107MOL0     H14442   2.230  11.264   7.192 -1.1410 -2.4674  0.9488
  107MOL0     H14443   2.537  11.212   7.476  1.8228 -0.3393 -1.5115
  107MOL0     H14444   1.860  10.865   7.422 -0.4911  1.2937 -2.9884
  107MOL0     H14445   1.657  10.756   7.505 -0.9510  0.4949 -3.0630
  108MOL0     O14446   9.898  10.814  10.133 -0.3724  0.4259  0.4536
  108MOL0     C14447   9.809  10.797  10.215  0.3375 -0.3764 -0.0678
  108MOL0     O14448   9.796  10.696  10.308 -0.1011 -0.5574 -0.4602
  108MOL0     C14449   9.880  10.594  10.284 -0.1555 -0.0870 -0.1290
  108MOL0     C14450   9.817  10.476  10.239 -0.4106  0.4516 -0.1741
  108MOL0     C14451   9.896  10.378  10.186 -1.1172 -0.4841  0.7722
  108MOL0     C14452  10.041  10.383  10.201 -0.1332 -0.5195  0.1266
  108MOL0     O14453  10.122  10.292  10.147 -0.0362  0.6223 -0.1592
  108MOL0     C14454  10.057  10.180  10.094 -0.1183  0.0276 -0.0632
  108MOL0     C14455  10.166  10.093  10.020 -0.6953  0.2223 -0.5412
  108MOL0     C14456  10.119   9.966   9.968  0.8848  0.1003 -0.2487
  108MOL0     C14457  10.080   9.859  10.077 -0.7043 -0.0394  0.0502
  108MOL0     C14458  10.042   9.720  10.020  0.3411  0.0045  0.2014
  108MOL0     C14459   9.894   9.699   9.980  0.6041 -0.2410  0.3780
  108MOL0     C14460   9.856   9.547   9.996 -0.0718  1.1696  0.3575
  108MOL0     C14461   9.716   9.523   9.943 -0.1996 -0.5609  0.2401
  108MOL0     N14462   9.748   9.444   9.819  0.3674 -0.3243  0.0086
  108MOL0     C14463   9.685   9.466   9.699  0.3361 -0.4357 -0.2445
  108MOL0     C14464   9.692   9.347   9.634 -0.0396 -0.5563 -0.7924
  108MOL0     C14465   9.626   9.316   9.503  0.7398 -0.3051  0.5632
  108MOL0     C14466   9.483   9.262   9.538  0.3595 -0.1901 -0.3692
  108MOL0     C14467   9.411   9.245   9.408 -0.0846  0.7143 -0.2724
  108MOL0     C14468   9.275   9.188   9.412  0.1390 -0.0602  0.5785
  108MOL0     O14469   9.208   9.225   9.290 -0.0946  0.4065 -0.1297
  108MOL0     C14470   9.069   9.194   9.287  0.0071  0.6622  0.4842
  108MOL0     C14471   8.984   9.156   9.392 -0.2149  0.6719  0.2401
  108MOL0     C14472   8.847   9.133   9.368 -0.8014  0.8556  0.7969
  108MOL0     C14473   8.772   9.107   9.488  0.8700 -0.3836 -0.4081
  108MOL0     C14474   8.794   9.143   9.236 -0.6221 -0.1848 -0.4529
  108MOL0     C14475   8.654   9.125   9.216  0.5618 -0.5603 -0.1038
  108MOL0     O14476   8.615   9.017   9.130 -0.2135  0.3957 -0.4918
  108MOL0     C14477   8.487   9.025   9.080 -0.3541  0.3602  0.3435
  108MOL0     C14478   8.455   9.112   8.980  0.1287 -0.2257 -0.4094
  108MOL0     C14479   8.319   9.131   8.949 -0.7434  0.6868 -0.3652
  108MOL0     C14480   8.217   9.060   9.013  0.2393 -0.2224  0.3060
  108MOL0     O14481   8.093   9.091   8.961  0.7457  0.9543 -0.4052
  108MOL0     C14482   7.980   9.102   9.054 -0.2711  0.1618 -0.5162
  108MOL0     C14483   7.846   9.133   8.981 -0.1726  1.1886  0.0171
  108MOL0     C14484   7.805   9.009   8.907 -0.8239 -0.2475  0.6862
  108MOL0     C14485   7.675   9.031   8.833  0.3955  0.5876  0.3575
  108MOL0     C14486   7.659   8.938   8.709 -1.1756 -0.4696  0.2497
  108MOL0     C14487   7.628   8.793   8.743  0.5819  0.4973  0.3795
  108MOL0     C14488   7.617   8.707   8.619 -0.1556  0.1482  0.4605
  108MOL0     C14489   7.755   8.666   8.560 -0.1506 -0.4270 -0.6379
  108MOL0    Cl14490   7.736   8.501   8.497 -0.4342  0.5068 -0.2022
  108MOL0     C14491   8.249   8.963   9.110 -0.8938 -0.3608 -0.6587
  108MOL0     C14492   8.391   8.954   9.150 -0.2802 -0.0335 -0.0221
  108MOL0     O14493   8.587   9.225   9.243  0.0807 -0.4979  0.4963
  108MOL0     C14494   8.883   9.168   9.126 -1.2508 -0.0731 -0.5956
  108MOL0     C14495   9.014   9.195   9.159 -0.8684  0.2321  0.2426
  108MOL0     N14496   9.761   9.260   9.704 -0.4929  0.9078  0.4443
  108MOL0     N14497   9.794   9.316   9.817  1.0467 -0.1219 -0.2208
  108MOL0     C14498  10.098  10.497  10.256 -0.3617 -0.1535  0.6243
  108MOL0     C14499  10.018  10.607  10.294 -0.4248  0.3114 -0.5714
  108MOL0     C14500   9.704  10.912  10.211 -0.3623 -0.6207 -1.2004
  108MOL0     C14501   9.733  11.033  10.144 -0.5936 -0.4552  0.2342
  108MOL0     C14502   9.633  11.135  10.148  0.8872 -0.6963  0.0083
  108MOL0     C14503   9.509  11.128  10.208  0.0267  1.0195 -0.0120
  108MOL0     O14504   9.401  11.213  10.199 -0.3105 -0.0581 -0.6662
  108MOL0     C14505   9.405  11.340  10.125  0.3111  0.9428 -0.0694
  108MOL0     C14506   9.271  11.419  10.159 -0.0908  0.4630 -0.9904
  108MOL0     C14507   9.150  11.362  10.099 -0.0968 -0.0419  0.5346
  108MOL0     C14508   9.034  11.461  10.084 -0.6436  0.3654 -0.7357
  108MOL0     C14509   8.988  11.512  10.220 -0.4075 -0.5517  0.1738
  108MOL0     C14510   8.970  11.540  10.340 -0.6815 -0.8087 -0.3190
  108MOL0     C14511   9.494  11.014  10.285 -0.7047  0.9553  0.2369
  108MOL0     C14512   9.584  10.910  10.287 -0.4332  0.0405  0.2783
  108MOL0     H14513   9.710  10.461  10.231 -0.0072 -1.6415 -3.3234
  108MOL0     H14514   9.852  10.288  10.146  3.6887 -2.6535 -0.3746
  108MOL0     H14515  10.006  10.113  10.164  0.4506 -0.1484  0.1973
  108MOL0     H14516   9.982  10.207  10.020 -0.6326 -1.0144  0.0553
  108MOL0     H14517  10.211  10.144   9.934 -1.8045 -1.1640 -1.9961
  108MOL0     H14518  10.251  10.072  10.086 -0.1829  0.6264 -1.0634
  108MOL0     H14519  10.029   9.987   9.909  0.2079  0.9113  1.0157
  108MOL0     H14520  10.180   9.921   9.889 -0.5148 -3.7939  0.6571
  108MOL0     H14521  10.165   9.843  10.144 -1.1063  0.3479  0.6727
  108MOL0     H14522   9.998   9.893  10.142  0.8773  1.3514  1.4091
  108MOL0     H14523  10.106   9.688   9.937 -2.2745  0.0025 -1.9549
  108MOL0     H14524  10.061   9.651  10.104 -2.3243  0.1308  0.9906
  108MOL0     H14525   9.823   9.765  10.032 -1.7743 -0.9744 -1.7075
  108MOL0     H14526   9.878   9.732   9.877  2.9958  1.5373  0.4920
  108MOL0     H14527   9.929   9.481   9.949 -0.2618  0.2067  1.3691
  108MOL0     H14528   9.846   9.520  10.102 -0.0258 -0.2465  0.0163
  108MOL0     H14529   9.659   9.614   9.924  1.0527  0.3871  0.8611
  108MOL0     H14530   9.661   9.474  10.024 -0.2401  0.8881  1.1335
  108MOL0     H14531   9.625   9.552   9.672 -0.4306 -1.6817 -2.7894
  108MOL0     H14532   9.628   9.412   9.449  0.3660  0.5713  2.0562
  108MOL0     H14533   9.674   9.240   9.440  4.0065  2.0774 -0.0940
  108MOL0     H14534   9.426   9.329   9.603  0.0956 -2.8753  2.3353
  108MOL0     H14535   9.493   9.161   9.578 -0.5273  0.1851  0.8686
  108MOL0     H14536   9.470   9.190   9.335 -0.2729 -3.2714  2.2751
  108MOL0     H14537   9.398   9.346   9.368  2.8610  1.4764  0.4402
  108MOL0     H14538   9.225   9.239   9.495  2.8329  1.4124  1.4296
  108MOL0     H14539   9.273   9.081   9.435  0.4230 -0.4043 -0.8780
  108MOL0     H14540   9.021   9.149   9.493 -1.6007  1.5175  0.8354
  108MOL0     H14541   8.698   9.032   9.459 -1.4423  2.0021 -1.1213
  108MOL0     H14542   8.821   9.071   9.579 -0.2871 -0.2359  0.2905
  108MOL0     H14543   8.720   9.199   9.515  0.3676 -0.6273 -0.5449
  108MOL0     H14544   8.528   9.159   8.915 -0.3286 -1.4178 -1.8441
  108MOL0     H14545   8.294   9.198   8.867 -2.4256  0.3083 -0.2097
  108MOL0     H14546   7.986   9.012   9.116 -2.2778  0.2741 -0.0988
  108MOL0     H14547   8.003   9.184   9.123 -1.7252 -0.1538  0.4010
  108MOL0     H14548   7.769   9.152   9.056  0.7998  2.5941  0.7074
  108MOL0     H14549   7.853   9.217   8.912 -1.1770  0.2329 -1.2888
  108MOL0     H14550   7.803   8.922   8.973  1.2639 -0.7986  0.1211
  108MOL0     H14551   7.884   8.981   8.836  0.1250  0.9080  1.2562
  108MOL0     H14552   7.590   9.008   8.898 -0.6272  0.3737 -1.0095
  108MOL0     H14553   7.674   9.134   8.797 -1.2234 -0.0887 -1.7521
  108MOL0     H14554   7.757   8.943   8.661 -0.1086 -0.5117  2.3189
  108MOL0     H14555   7.582   8.978   8.643  1.1388 -0.7742 -2.8724
  108MOL0     H14556   7.696   8.742   8.811 -0.8186  0.6639  2.0009
  108MOL0     H14557   7.525   8.802   8.779 -0.0266  1.3690 -1.4405
  108MOL0     H14558   7.547   8.754   8.549 -1.8779 -1.9741  0.6549
  108MOL0     H14559   7.555   8.619   8.636 -0.1488  0.2694  1.1322
  108MOL0     H14560   7.828   8.662   8.641 -1.3984 -0.7447  0.5120
  108MOL0     H14561   7.764   8.757   8.499  0.1960  1.4489  2.0374
  108MOL0     H14562   8.182   8.914   9.179  0.9956 -2.0442  0.0832
  108MOL0     H14563   8.436   8.890   9.225 -0.0407  0.1596 -0.0011
  108MOL0     H14564   8.853   9.161   9.022 -2.8369  0.2360 -0.1859
  108MOL0     H14565   9.093   9.210   9.085 -0.6091  2.9244  0.9341
  108MOL0     H14566  10.206  10.499  10.254 -0.2580  1.2037  3.2742
  108MOL0     H14567  10.066  10.694  10.336  0.6211 -0.9352  0.9697
  108MOL0     H14568   9.822  11.041  10.084 -0.9922 -2.6834 -0.7495
  108MOL0     H14569   9.673  11.227  10.107  1.1618 -0.8096  0.0223
  108MOL0     H14570   9.493  11.396  10.159 -1.1219  1.7551  2.5356
  108MOL0     H14571   9.403  11.312  10.019 -2.8104 -1.5837  0.5076
  108MOL0     H14572   9.292  11.518  10.119 -1.6423  1.2205 -0.0213
  108MOL0     H14573   9.261  11.422  10.268  0.5088  0.7832 -0.9386
  108MOL0     H14574   9.122  11.282  10.168 -2.0319 -1.2302 -1.4769
  108MOL0     H14575   9.175  11.308  10.007  1.0817 -0.8925  1.3243
  108MOL0     H14576   8.940  11.411  10.057 -2.0176  1.2386  1.9803
  108MOL0     H14577   9.056  11.542  10.014 -0.5639  2.1196  1.2062
  108MOL0     H14578   8.944  11.564  10.441 -0.1760  0.1304 -0.4042
  108MOL0     H14579   9.394  10.988  10.320 -0.8021 -0.7023 -1.0859
  108MOL0     H14580   9.557  10.815  10.333 -1.1030 -0.1338 -0.4326
  109MOL0     O14581   4.663   8.077   9.172 -0.0570  0.3725  0.5175
  109MOL0     C14582   4.663   8.059   9.044 -0.7554 -1.1919 -1.3782
  109MOL0     O14583   4.601   7.964   8.980  0.3890 -0.8749 -0.5122
  109MOL0     C14584   4.482   7.912   9.026 -0.1727  0.3671 -0.1228
  109MOL0     C14585   4.364   7.932   8.961  1.1823 -1.0586  0.5844
  109MOL0     C14586   4.246   7.865   9.004  0.2441  1.0880 -0.6546
  109MOL0     C14587   4.248   7.775   9.112 -0.3302 -0.1549 -0.6214
  109MOL0     O14588   4.139   7.702   9.159 -0.3246 -0.4070  0.2794
  109MOL0     C14589   4.026   7.715   9.071  0.6979  0.7001 -0.1345
  109MOL0     C14590   3.929   7.600   9.115  0.2323 -0.4192 -0.2227
  109MOL0     C14591   3.819   7.593   9.010 -1.7977  0.7101 -1.1485
  109MOL0     C14592   3.708   7.678   9.067  0.2578 -0.4481  0.3009
  109MOL0     C14593   3.598   7.718   8.965 -0.3767 -0.2545  0.2555
  109MOL0     C14594   3.626   7.852   8.884  0.0264 -0.1831  0.6330
  109MOL0     C14595   3.510   7.883   8.797  1.2772  0.1447 -0.9004
  109MOL0     C14596   3.551   7.977   8.670  0.4599  0.9445  0.1274
  109MOL0     N14597   3.593   7.892   8.558  0.7113  0.1640  0.8828
  109MOL0     C14598   3.704   7.902   8.476  0.1410  1.1818  0.1735
  109MOL0     C14599   3.683   7.800   8.392 -0.3064  0.1419  0.2248
  109MOL0     C14600   3.780   7.776   8.276  0.6105 -0.7211 -1.3624
  109MOL0     C14601   3.905   7.706   8.335  0.1827 -0.2285 -0.6932
  109MOL0     C14602   3.992   7.663   8.220 -0.1020 -0.0741 -0.0872
  109MOL0     C14603   4.125   7.598   8.273  1.0968  0.1509  0.4305
  109MOL0     O14604   4.216   7.600   8.160  0.2436  1.0963  0.0755
  109MOL0     C14605   4.355   7.571   8.186  0.2414 -1.0747 -0.3655
  109MOL0     C14606   4.409   7.522   8.310 -0.2406 -0.5087  0.5350
  109MOL0     C14607   4.549   7.499   8.326  0.4392  1.0473  0.3611
  109MOL0     C14608   4.589   7.431   8.450 -0.4867  0.1816 -0.1122
  109MOL0     C14609   4.640   7.534   8.225 -0.1928  0.0436  0.8470
  109MOL0     C14610   4.788   7.513   8.243 -0.4115  0.0311 -0.3010
  109MOL0     O14611   4.845   7.516   8.367  0.4359  0.0239  0.0624
  109MOL0     C14612   4.981   7.500   8.390 -0.0024 -0.8631  0.0484
  109MOL0     C14613   5.016   7.393   8.463  0.1466  1.1514  0.8031
  109MOL0     C14614   5.152   7.368   8.483 -1.2813 -1.1115 -0.4432
  109MOL0     C14615   5.249   7.469   8.456 -0.0175  0.5761  0.7240
  109MOL0     O14616   5.383   7.469   8.493 -0.3179 -0.0790 -0.0230
  109MOL0     C14617   5.431   7.360   8.586  0.1242  0.3240  0.7132
  109MOL0     C14618   5.568   7.400   8.648 -0.4901 -0.5930 -0.7495
  109MOL0     C14619   5.644   7.294   8.733  0.0647 -0.1386  0.6257
  109MOL0     C14620   5.783   7.293   8.687 -0.5661 -0.1750  0.4504
  109MOL0     C14621   5.882   7.207   8.779  0.2619  0.0030 -0.0277
  109MOL0     C14622   5.925   7.277   8.905 -0.3738 -0.4908 -0.4430
  109MOL0     C14623   6.033   7.203   8.991  0.7571 -0.5674 -0.2681
  109MOL0     C14624   6.007   7.062   9.051  0.2595 -0.2168 -0.9225
  109MOL0    Cl14625   5.850   7.061   9.159 -0.0984 -0.2817  0.2422
  109MOL0     C14626   5.201   7.576   8.394  0.1724  0.0020 -0.6147
  109MOL0     C14627   5.068   7.594   8.359  0.2015 -1.3842  0.0111
  109MOL0     O14628   4.847   7.482   8.139 -0.1666 -0.3082 -0.4184
  109MOL0     C14629   4.590   7.580   8.094  0.0595 -0.5059  0.1151
  109MOL0     C14630   4.447   7.599   8.081  0.4086  1.1192 -0.2962
  109MOL0     N14631   3.567   7.735   8.418 -0.0101  0.1458  0.1160
  109MOL0     N14632   3.502   7.801   8.506 -0.1246  0.6684 -0.2850
  109MOL0     C14633   4.374   7.764   9.185 -1.0578 -1.0150 -0.4805
  109MOL0     C14634   4.482   7.843   9.144 -0.0466 -0.1686  0.1872
  109MOL0     C14635   4.770   8.138   8.971  0.3847  0.2116 -0.4477
  109MOL0     C14636   4.843   8.247   9.026 -0.1299  0.7545 -0.8635
  109MOL0     C14637   4.947   8.306   8.959 -0.2469 -0.4454  0.2533
  109MOL0     C14638   4.995   8.254   8.840 -0.3336 -0.0888  1.0852
  109MOL0     O14639   5.100   8.331   8.789 -0.0507  0.9069 -0.3852
  109MOL0     C14640   5.164   8.289   8.670 -0.0848  0.5622 -0.4566
  109MOL0     C14641   5.291   8.362   8.704  0.2114  0.0225 -0.1690
  109MOL0     C14642   5.392   8.348   8.592  0.2606 -1.1199  1.0194
  109MOL0     C14643   5.498   8.460   8.600 -0.0300  0.4689 -0.0648
  109MOL0     C14644   5.484   8.561   8.498 -0.5008 -0.2517  0.1645
  109MOL0     C14645   5.467   8.634   8.400 -0.3947 -0.3912 -0.0731
  109MOL0     C14646   4.932   8.142   8.783 -0.0082  0.4968  0.2831
  109MOL0     C14647   4.802   8.101   8.842 -0.6845  0.8681  0.4442
  109MOL0     H14648   4.367   7.996   8.873  0.3102  2.1356  2.6739
  109MOL0     H14649   4.159   7.883   8.942  2.7861  0.7235 -4.7096
  109MOL0     H14650   3.970   7.809   9.078  0.7467  0.8890 -1.8823
  109MOL0     H14651   4.049   7.687   8.968 -2.0878 -3.1956  0.0840
  109MOL0     H14652   3.979   7.503   9.128 -0.9817 -0.8229  1.9583
  109MOL0     H14653   3.886   7.631   9.210  3.2449  2.3043  0.4300
  109MOL0     H14654   3.846   7.618   8.907 -2.0130  0.1429 -1.3458
  109MOL0     H14655   3.777   7.492   9.006 -2.3750  0.8154  0.9538
  109MOL0     H14656   3.658   7.625   9.149 -0.1740  1.2017  1.1665
  109MOL0     H14657   3.738   7.771   9.117 -0.2897  0.6991 -1.4263
  109MOL0     H14658   3.581   7.638   8.892 -2.4405 -0.4936  0.9307
  109MOL0     H14659   3.501   7.740   9.010 -2.1311  1.0894 -3.7452
  109MOL0     H14660   3.658   7.932   8.951  0.4792 -0.0549  0.2692
  109MOL0     H14661   3.713   7.841   8.818 -0.4268  3.8436 -0.9578
  109MOL0     H14662   3.465   7.795   8.750 -0.4830  2.1886 -3.3461
  109MOL0     H14663   3.436   7.947   8.847 -0.1094  0.3234 -3.0567
  109MOL0     H14664   3.626   8.048   8.708 -0.8975  2.9751 -0.8599
  109MOL0     H14665   3.466   8.032   8.631  3.0676  4.0764 -1.6465
  109MOL0     H14666   3.781   7.979   8.484  0.7803  1.3861 -4.5741
  109MOL0     H14667   3.730   7.705   8.210 -2.9171 -0.6234  0.9446
  109MOL0     H14668   3.798   7.871   8.225 -0.9060 -0.8487 -2.2145
  109MOL0     H14669   3.870   7.618   8.390 -3.1588  1.4203  0.0903
  109MOL0     H14670   3.953   7.771   8.408 -1.2125 -0.1162  0.1672
  109MOL0     H14671   4.012   7.751   8.159 -2.2322  0.5516  0.0398
  109MOL0     H14672   3.942   7.593   8.152  0.3235  0.6153 -1.1322
  109MOL0     H14673   4.108   7.497   8.310  1.6532  0.1114  0.5925
  109MOL0     H14674   4.159   7.660   8.357  0.4478  0.7116  0.2922
  109MOL0     H14675   4.344   7.504   8.396  1.3840  1.6294  2.3275
  109MOL0     H14676   4.654   7.495   8.511  0.8993  0.7635 -2.0887
  109MOL0     H14677   4.499   7.425   8.511 -1.7301  3.9587 -1.2546
  109MOL0     H14678   4.620   7.327   8.438 -1.5886 -0.2078  0.3374
  109MOL0     H14679   4.950   7.315   8.500  2.3571 -0.8106  0.8811
  109MOL0     H14680   5.168   7.287   8.553 -0.1713  0.2051  0.9375
  109MOL0     H14681   5.355   7.337   8.661 -0.9291 -0.1055 -0.4347
  109MOL0     H14682   5.446   7.267   8.530  1.3779 -0.7971  2.7933
  109MOL0     H14683   5.634   7.444   8.573  1.9722 -0.2922  1.4742
  109MOL0     H14684   5.545   7.481   8.718  2.0048 -0.4011 -0.0754
  109MOL0     H14685   5.602   7.193   8.739  0.8686 -0.6227 -1.1734
  109MOL0     H14686   5.658   7.316   8.839  1.3930  0.8225  0.2782
  109MOL0     H14687   5.792   7.253   8.586  0.1549 -1.9653  1.1954
  109MOL0     H14688   5.827   7.393   8.684 -1.3873  0.1764 -2.0581
  109MOL0     H14689   5.975   7.195   8.722  1.0492  1.4581  0.8722
  109MOL0     H14690   5.831   7.112   8.795 -0.2288  0.0313 -1.3009
  109MOL0     H14691   5.970   7.373   8.876  2.8122 -1.2266  1.5587
  109MOL0     H14692   5.839   7.301   8.969  2.6382  2.8553  2.8317
  109MOL0     H14693   6.044   7.278   9.069 -2.0331  2.5653 -2.5417
  109MOL0     H14694   6.120   7.208   8.926  0.4985  0.6816 -0.5413
  109MOL0     H14695   6.095   7.033   9.109 -1.4764  2.2019  3.4022
  109MOL0     H14696   6.002   7.000   8.961  0.0975  0.7246 -1.5791
  109MOL0     H14697   5.272   7.656   8.379 -1.4863  1.4968 -0.9418
  109MOL0     H14698   5.037   7.681   8.301 -3.4829 -1.1293  2.0439
  109MOL0     H14699   4.663   7.586   8.014  0.2897 -1.5672  0.2256
  109MOL0     H14700   4.405   7.636   7.988 -0.4181  2.5662  0.6303
  109MOL0     H14701   4.397   7.683   9.253 -0.2156 -2.4457 -2.3456
  109MOL0     H14702   4.577   7.827   9.193  1.6342  3.2423 -1.6038
  109MOL0     H14703   4.801   8.284   9.119 -2.0056 -1.2324 -0.8498
  109MOL0     H14704   4.977   8.397   9.009 -0.7229 -1.4767  2.5242
  109MOL0     H14705   5.179   8.181   8.662 -0.7593  0.4566 -0.4251
  109MOL0     H14706   5.122   8.333   8.579 -1.9371  1.4165  0.7391
  109MOL0     H14707   5.324   8.337   8.805  3.3541  1.4486 -0.7238
  109MOL0     H14708   5.269   8.469   8.706  1.0928  0.3187 -2.7209
  109MOL0     H14709   5.337   8.361   8.499  1.0250  3.5088  0.9571
  109MOL0     H14710   5.433   8.249   8.610 -0.2605 -1.2696  1.4112
  109MOL0     H14711   5.601   8.425   8.594  1.1583  3.7524 -0.9342
  109MOL0     H14712   5.483   8.515   8.693 -1.8374  1.9573 -1.1601
  109MOL0     H14713   5.460   8.687   8.307 -1.7399 -0.1273  0.1471
  109MOL0     H14714   4.984   8.084   8.708 -0.2959 -0.9373  1.1508
  109MOL0     H14715   4.760   8.011   8.800 -0.3846  2.7983 -4.6588
  110MOL0     O14716   5.972   1.657   9.259  0.0449  0.5089  0.1735
  110MOL0     C14717   6.002   1.560   9.183  0.0050  0.2519  0.2494
  110MOL0     O14718   5.915   1.473   9.126  0.3299  0.1568 -0.2097
  110MOL0     C14719   5.782   1.481   9.164 -0.0012 -0.0251  0.9228
  110MOL0     C14720   5.681   1.488   9.069 -0.3152  0.3401 -0.1472
  110MOL0     C14721   5.549   1.468   9.112 -0.0735 -0.9499 -0.0551
  110MOL0     C14722   5.514   1.447   9.244 -0.1773  0.0597 -0.6733
  110MOL0     O14723   5.375   1.435   9.273 -0.8017 -0.1466  0.0434
  110MOL0     C14724   5.337   1.463   9.414  0.4624  0.3987  0.3317
  110MOL0     C14725   5.187   1.480   9.430  0.2932 -0.2368 -0.3176
  110MOL0     C14726   5.112   1.355   9.390  0.4894  0.9124 -0.1521
  110MOL0     C14727   5.080   1.266   9.511 -0.9875 -0.0203 -0.0731
  110MOL0     C14728   5.034   1.114   9.484  0.1642  0.3419  0.8531
  110MOL0     C14729   5.105   1.028   9.597  1.4788  0.1178  0.2897
  110MOL0     C14730   5.062   0.879   9.597  0.4232  0.1330 -0.6402
  110MOL0     C14731   4.922   0.859   9.653 -0.6618 -0.7915  0.0432
  110MOL0     N14732   4.883   0.723   9.600 -0.0305 -0.6658  0.0660
  110MOL0     C14733   4.916   0.606   9.664  0.6563  0.3692  0.0677
  110MOL0     C14734   4.861   0.506   9.593 -0.1969  0.1596  0.0204
  110MOL0     C14735   4.893   0.357   9.613  0.3150 -1.2992 -0.1831
  110MOL0     C14736   4.798   0.269   9.694 -0.0126  0.1338 -0.4232
  110MOL0     C14737   4.808   0.289   9.849  0.1243  0.4557  0.7403
  110MOL0     C14738   4.672   0.279   9.914  0.4650 -0.0467  0.4947
  110MOL0     O14739   4.610   0.148   9.881 -0.5969  0.4800  0.7195
  110MOL0     C14740   4.533   0.093   9.978 -0.2296  0.2329  0.6467
  110MOL0     C14741   4.502  -0.037   9.972  0.4439  0.2287  0.2041
  110MOL0     C14742   4.400  -0.089  10.054 -0.1769  0.4910  0.8512
  110MOL0     C14743   4.384  -0.238  10.040 -0.0595  0.4571  0.0949
  110MOL0     C14744   4.326  -0.000  10.138  0.0959  0.6322 -0.1957
  110MOL0     C14745   4.208  -0.036  10.219  0.7243  0.6617 -0.7139
  110MOL0     O14746   4.181   0.043  10.333  0.4351 -0.8049  0.3630
  110MOL0     C14747   4.049   0.050  10.376  0.0160  0.1710 -0.3357
  110MOL0     C14748   3.999  -0.051  10.456 -0.2300  0.0532 -0.0457
  110MOL0     C14749   3.864  -0.045  10.488 -0.8769  0.7381  0.2656
  110MOL0     C14750   3.777   0.060  10.442 -0.0240  0.4014 -0.4731
  110MOL0     O14751   3.643   0.038  10.459 -0.6683  1.2614 -0.0844
  110MOL0     C14752   3.555   0.112  10.376 -0.0477  0.0153  1.5864
  110MOL0     C14753   3.564   0.058  10.225 -0.5194  0.9071  0.5883
  110MOL0     C14754   3.477  -0.058  10.188 -0.5723 -0.0040 -0.3366
  110MOL0     C14755   3.499  -0.193  10.264  0.9391 -0.0374 -0.8364
  110MOL0     C14756   3.373  -0.267  10.253  0.0745 -0.0357  0.1994
  110MOL0     C14757   3.262  -0.226  10.341 -0.2974  0.1802  0.0048
  110MOL0     C14758   3.287  -0.247  10.492 -0.0233 -0.1334 -0.0910
  110MOL0     C14759   3.166  -0.249  10.582 -0.1958 -0.0439  0.0867
  110MOL0    Cl14760   3.049  -0.378  10.539 -0.1655  0.0606 -0.1974
  110MOL0     C14761   3.833   0.154  10.360  0.3666 -0.3019  0.2623
  110MOL0     C14762   3.971   0.158  10.328  1.0366  0.4356 -0.5762
  110MOL0     O14763   4.151  -0.142  10.205  0.0722 -0.2082 -0.7030
  110MOL0     C14764   4.362   0.132  10.145 -0.4215  0.3200 -1.0429
  110MOL0     C14765   4.456   0.180  10.061  0.3510 -0.5479  0.6887
  110MOL0     N14766   4.795   0.559   9.478 -0.2804  0.5035  0.2927
  110MOL0     N14767   4.800   0.688   9.491 -0.4694 -0.9584  0.1871
  110MOL0     C14768   5.620   1.444   9.339 -0.4769 -0.5778 -0.7927
  110MOL0     C14769   5.756   1.449   9.298 -0.0430  0.2332  1.2540
  110MOL0     C14770   6.144   1.514   9.153 -0.1710  0.0398 -0.3915
  110MOL0     C14771   6.172   1.416   9.063 -0.1020  0.1813  0.9874
  110MOL0     C14772   6.309   1.391   9.024  0.2593  0.2984 -0.2225
  110MOL0     C14773   6.412   1.474   9.072  0.0079  0.0367  1.6722
  110MOL0     O14774   6.539   1.452   9.024  0.4491  0.2959  1.1083
  110MOL0     C14775   6.649   1.454   9.117  0.5349  0.5916  0.2157
  110MOL0     C14776   6.723   1.583   9.089  0.7218 -0.0383 -0.0459
  110MOL0     C14777   6.786   1.588   8.950 -0.1678 -0.4986 -0.0840
  110MOL0     C14778   6.910   1.495   8.929  0.1245  0.1667  0.2198
  110MOL0     C14779   7.032   1.561   8.974  0.2010 -0.5846 -0.1385
  110MOL0     C14780   7.123   1.619   9.027 -0.6543 -0.6307  0.1808
  110MOL0     C14781   6.378   1.581   9.156 -0.7112  0.3595 -0.6726
  110MOL0     C14782   6.247   1.601   9.197  0.0286 -1.1383  0.5668
  110MOL0     H14783   5.704   1.497   8.963 -2.5689  2.5335 -0.5569
  110MOL0     H14784   5.465   1.465   9.044  1.7469  1.9531 -2.6893
  110MOL0     H14785   5.370   1.389   9.488 -0.7609  1.1583  1.6937
  110MOL0     H14786   5.393   1.551   9.447  0.0498  0.4139  1.0106
  110MOL0     H14787   5.166   1.522   9.528  2.9701  2.5906 -0.8173
  110MOL0     H14788   5.153   1.566   9.371  0.7874  0.9882  1.1222
  110MOL0     H14789   5.018   1.396   9.353 -2.5815 -3.4451  1.9037
  110MOL0     H14790   5.162   1.293   9.315 -0.3355 -1.7712  1.3842
  110MOL0     H14791   5.172   1.274   9.571 -1.9902 -0.9511  1.6764
  110MOL0     H14792   5.001   1.314   9.568 -0.1612 -0.0885  1.1833
  110MOL0     H14793   4.926   1.105   9.476  0.4030 -1.2147 -1.9947
  110MOL0     H14794   5.062   1.081   9.383 -2.7295 -0.7500  0.3319
  110MOL0     H14795   5.210   1.034   9.570  1.5190 -1.9342 -0.1683
  110MOL0     H14796   5.079   1.066   9.696 -1.7826 -1.2206  0.0981
  110MOL0     H14797   5.058   0.835   9.496 -2.5506 -0.0337 -0.5530
  110MOL0     H14798   5.126   0.815   9.658  0.7791  0.3368 -0.7957
  110MOL0     H14799   4.863   0.943   9.614  1.9117  1.1138 -0.0185
  110MOL0     H14800   4.913   0.858   9.762  1.1390  0.6953  0.2469
  110MOL0     H14801   4.973   0.601   9.756 -1.8425  2.4357  1.8690
  110MOL0     H14802   4.902   0.325   9.509 -1.7862  3.5128 -2.1477
  110MOL0     H14803   4.993   0.348   9.656  0.3991  1.8472  0.5453
  110MOL0     H14804   4.831   0.170   9.660  2.4250  1.0637 -0.9384
  110MOL0     H14805   4.697   0.286   9.654 -0.3641 -1.0987 -0.1338
  110MOL0     H14806   4.851   0.388   9.862  0.9751 -0.0230  1.7187
  110MOL0     H14807   4.870   0.213   9.898 -2.1985 -2.2799 -0.2279
  110MOL0     H14808   4.605   0.357   9.877 -0.2660 -0.7330  0.3522
  110MOL0     H14809   4.686   0.295  10.021  1.5464 -3.4726  0.9885
  110MOL0     H14810   4.554  -0.101   9.901 -0.7493  0.3541 -0.8254
  110MOL0     H14811   4.380  -0.290  10.136  1.7885 -0.1395 -0.0982
  110MOL0     H14812   4.291  -0.261   9.987  1.2093  0.1975 -2.1615
  110MOL0     H14813   4.470  -0.278   9.986  0.6337  1.8663  0.0948
  110MOL0     H14814   4.065  -0.127  10.498  0.4791  1.8633  2.3458
  110MOL0     H14815   3.819  -0.126  10.544  0.9639 -1.3864 -1.1623
  110MOL0     H14816   3.452   0.112  10.412  0.0269 -0.8915  1.8153
  110MOL0     H14817   3.566   0.221  10.376 -0.5737  0.2169 -2.7098
  110MOL0     H14818   3.537   0.134  10.151  2.7524 -0.6203 -2.5226
  110MOL0     H14819   3.666   0.032  10.193 -0.2813  2.3860  0.0310
  110MOL0     H14820   3.490  -0.068  10.080  1.2848  2.3608 -0.4266
  110MOL0     H14821   3.375  -0.022  10.200 -0.2303  0.5963  0.9896
  110MOL0     H14822   3.576  -0.249  10.209  1.0460 -0.3598 -0.3625
  110MOL0     H14823   3.541  -0.187  10.365  1.1784 -1.8457 -0.7926
  110MOL0     H14824   3.398  -0.372  10.273  0.7372  0.2221  0.7403
  110MOL0     H14825   3.345  -0.281  10.148  2.7525 -2.4969 -0.3265
  110MOL0     H14826   3.248  -0.119  10.320  0.7787  0.4660  0.6695
  110MOL0     H14827   3.172  -0.284  10.316 -2.0593  2.3090  1.0117
  110MOL0     H14828   3.353  -0.176  10.543 -0.3626 -0.1897  0.4346
  110MOL0     H14829   3.332  -0.347  10.499  1.2209  0.4738  0.9885
  110MOL0     H14830   3.123  -0.148  10.584  0.3469  0.2563  3.3888
  110MOL0     H14831   3.201  -0.271  10.684 -1.8493 -1.4203  0.4012
  110MOL0     H14832   3.778   0.234  10.312  5.2281  2.4226 -1.4597
  110MOL0     H14833   4.002   0.239  10.263 -0.5106  2.1809  0.7248
  110MOL0     H14834   4.307   0.194  10.215 -0.1340 -1.7617  1.1520
  110MOL0     H14835   4.482   0.286  10.060 -0.2687 -0.3803 -0.4956
  110MOL0     H14836   5.603   1.433   9.446  0.7721  0.2196 -0.4855
  110MOL0     H14837   5.833   1.423   9.369  1.4438  0.6894 -0.1452
  110MOL0     H14838   6.102   1.336   9.045 -1.2315  1.3633 -0.0383
  110MOL0     H14839   6.325   1.300   8.966  1.1690 -1.6837  2.8816
  110MOL0     H14840   6.626   1.440   9.223  1.6470 -2.4910  0.1580
  110MOL0     H14841   6.713   1.370   9.087  2.4375  2.4106 -1.1030
  110MOL0     H14842   6.801   1.593   9.165 -0.2698 -3.3655  1.5928
  110MOL0     H14843   6.642   1.655   9.098  0.0250 -0.9585  1.2515
  110MOL0     H14844   6.826   1.687   8.926 -1.5316 -0.5956 -3.2965
  110MOL0     H14845   6.715   1.565   8.871  1.0465 -1.1013 -1.0418
  110MOL0     H14846   6.924   1.475   8.822  2.0483 -2.1800  0.8335
  110MOL0     H14847   6.896   1.398   8.978  1.1327  0.6268  1.4545
  110MOL0     H14848   7.202   1.672   9.077 -2.2203  1.2323  0.8336
  110MOL0     H14849   6.452   1.646   9.202 -2.7514  2.5675 -0.3039
  110MOL0     H14850   6.225   1.687   9.260  0.2939  0.5854 -1.5383
  111MOL0     O14851   8.850   2.525   1.019  0.5295  0.0925 -0.0558
  111MOL0     C14852   8.928   2.438   1.054  0.2860  0.1106 -1.2030
  111MOL0     O14853   8.889   2.327   1.113 -0.6162  0.1136  0.3169
  111MOL0     C14854   8.760   2.324   1.148  0.5620  0.0690  0.0999
  111MOL0     C14855   8.662   2.271   1.069 -0.3509 -0.6684  0.2615
  111MOL0     C14856   8.527   2.267   1.111 -0.1774  0.9548 -0.5321
  111MOL0     C14857   8.482   2.321   1.241 -0.1153 -0.1923  0.6498
  111MOL0     O14858   8.351   2.344   1.272 -0.0781  0.2329  0.8229
  111MOL0     C14859   8.275   2.221   1.271  0.1220  0.6901  1.4442
  111MOL0     C14860   8.132   2.259   1.324  0.2630 -0.1799 -0.2704
  111MOL0     C14861   8.117   2.255   1.481  0.5238 -0.5007  0.6571
  111MOL0     C14862   8.083   2.107   1.512 -0.6482  0.8742 -0.3070
  111MOL0     C14863   8.095   2.056   1.662  0.4922 -0.5835 -0.9147
  111MOL0     C14864   8.147   1.914   1.677  1.1292  0.1216  0.3177
  111MOL0     C14865   8.303   1.922   1.658 -0.6535  0.0163  0.7125
  111MOL0     C14866   8.361   1.772   1.669  0.2439 -0.3272 -0.2554
  111MOL0     N14867   8.343   1.706   1.800  0.2489 -0.5494 -0.2363
  111MOL0     C14868   8.333   1.571   1.829 -0.4527 -0.3395  0.0871
  111MOL0     C14869   8.350   1.559   1.956 -1.3204 -0.4114 -0.5447
  111MOL0     C14870   8.349   1.420   2.023 -0.0126 -0.5362 -0.1024
  111MOL0     C14871   8.457   1.407   2.121  0.0660 -0.0333  0.6683
  111MOL0     C14872   8.585   1.351   2.058 -0.1422  0.5581 -0.1387
  111MOL0     C14873   8.695   1.387   2.155  0.2617  0.8150  0.6068
  111MOL0     O14874   8.680   1.310   2.278  0.3292  0.6204  0.3841
  111MOL0     C14875   8.759   1.356   2.381  0.1587 -0.3193 -0.1662
  111MOL0     C14876   8.703   1.406   2.504  0.7778 -0.3889 -0.1023
  111MOL0     C14877   8.790   1.473   2.596  0.1081 -0.2171 -0.0501
  111MOL0     C14878   8.718   1.527   2.723 -0.4078 -0.3126 -0.1508
  111MOL0     C14879   8.930   1.468   2.585 -0.1714 -1.0673  0.5293
  111MOL0     C14880   9.026   1.530   2.685  0.1441 -0.2210  0.5167
  111MOL0     O14881   9.148   1.558   2.645  0.2557 -0.3913 -0.0303
  111MOL0     C14882   9.220   1.636   2.732  0.9460 -0.3385 -0.2720
  111MOL0     C14883   9.197   1.774   2.746  0.0782 -0.7327  0.6242
  111MOL0     C14884   9.277   1.853   2.835  0.0991 -0.0876  0.2017
  111MOL0     C14885   9.391   1.799   2.900 -0.0070  1.0411  0.8038
  111MOL0     O14886   9.488   1.858   2.974  0.0416  0.3254  0.2367
  111MOL0     C14887   9.475   1.994   3.005  0.5013  0.2920 -0.0033
  111MOL0     C14888   9.599   2.040   3.081  0.1845 -0.3902  0.2547
  111MOL0     C14889   9.713   2.055   2.984 -0.4823  0.0165 -0.1886
  111MOL0     C14890   9.732   2.191   2.930  0.4387 -0.3292 -1.6500
  111MOL0     C14891   9.837   2.198   2.830  1.1115  0.1126 -0.5048
  111MOL0     C14892   9.988   2.182   2.880 -0.2878  1.0687 -0.3588
  111MOL0     C14893  10.094   2.148   2.770 -0.0786  0.0208 -0.1621
  111MOL0     C14894  10.127   2.265   2.680  0.2834  0.8520  0.5558
  111MOL0    Cl14895  10.200   2.399   2.765 -0.2076 -0.1082 -0.0942
  111MOL0     C14896   9.411   1.658   2.884  0.0192  0.1974 -0.4323
  111MOL0     C14897   9.322   1.582   2.808  0.2587  0.1762  0.1535
  111MOL0     O14898   8.986   1.539   2.797  0.8079 -0.1724  0.2147
  111MOL0     C14899   8.985   1.411   2.467  0.8451  0.0593  0.3477
  111MOL0     C14900   8.898   1.366   2.369 -0.7097  0.1561  0.0200
  111MOL0     N14901   8.352   1.691   2.014  0.4871  0.9771  0.2419
  111MOL0     N14902   8.351   1.772   1.920  0.2576  0.1623 -0.3762
  111MOL0     C14903   8.581   2.375   1.319 -0.3282  0.0900 -0.4053
  111MOL0     C14904   8.712   2.385   1.269 -0.7293  0.6711 -0.6137
  111MOL0     C14905   9.077   2.466   1.043 -0.1174  0.5375  0.9075
  111MOL0     C14906   9.120   2.598   1.051 -0.6711 -0.4416 -0.0297
  111MOL0     C14907   9.257   2.631   1.032 -0.4853  0.0159  0.3488
  111MOL0     C14908   9.349   2.527   1.015  1.7224  0.3294 -0.0837
  111MOL0     O14909   9.479   2.560   1.015  0.3906  0.5334  0.2345
  111MOL0     C14910   9.564   2.460   0.957 -0.2836  0.7612 -0.2373
  111MOL0     C14911   9.690   2.523   0.905 -0.6533  0.4651  0.0708
  111MOL0     C14912   9.788   2.418   0.861  0.3451 -0.3287  0.2158
  111MOL0     C14913   9.797   2.413   0.704  0.4004 -0.1063  0.6087
  111MOL0     C14914   9.881   2.517   0.643 -0.0096 -0.1222  0.4619
  111MOL0     C14915   9.950   2.606   0.599 -0.5803  0.7888  1.3791
  111MOL0     C14916   9.304   2.390   1.020  0.6221 -0.1359 -0.5313
  111MOL0     C14917   9.167   2.360   1.036 -0.2563 -0.6143  0.8643
  111MOL0     H14918   8.689   2.225   0.974  2.0525 -4.3136  2.4915
  111MOL0     H14919   8.460   2.213   1.045  1.9340 -3.5071  0.5283
  111MOL0     H14920   8.274   2.185   1.168 -1.0072 -0.7180  1.9183
  111MOL0     H14921   8.324   2.144   1.332 -0.5466 -1.0471 -0.1382
  111MOL0     H14922   8.107   2.360   1.289  1.5937  0.6128  0.9528
  111MOL0     H14923   8.053   2.196   1.282  0.4019 -2.0061  2.0279
  111MOL0     H14924   8.206   2.287   1.535  0.3050  0.4265  0.4857
  111MOL0     H14925   8.030   2.315   1.512  0.7965  1.8828 -2.6443
  111MOL0     H14926   7.980   2.084   1.482 -0.0762 -1.3282 -0.7626
  111MOL0     H14927   8.155   2.051   1.453  0.5905  0.3571  1.5970
  111MOL0     H14928   8.154   2.126   1.723  1.1665 -0.7619 -1.3489
  111MOL0     H14929   8.000   2.067   1.715  0.3703  0.7368 -1.3571
  111MOL0     H14930   8.126   1.877   1.778 -0.3175  1.8068  0.6875
  111MOL0     H14931   8.096   1.844   1.611 -0.3543  1.4171  0.0360
  111MOL0     H14932   8.320   1.960   1.557 -1.8594 -1.7532 -0.1960
  111MOL0     H14933   8.345   1.992   1.730 -2.4155  1.3303  0.5407
  111MOL0     H14934   8.466   1.772   1.637 -0.1239  0.7155 -1.5722
  111MOL0     H14935   8.301   1.718   1.595 -1.0891  1.9703 -0.9548
  111MOL0     H14936   8.314   1.492   1.757 -0.1436 -1.8587  1.6058
  111MOL0     H14937   8.256   1.419   2.081  1.0193 -1.1816  1.6304
  111MOL0     H14938   8.352   1.332   1.958  2.8977 -0.7855  0.2602
  111MOL0     H14939   8.425   1.345   2.205 -0.9002  3.1414  2.8286
  111MOL0     H14940   8.482   1.495   2.181  2.7519  0.2692 -0.7244
  111MOL0     H14941   8.612   1.401   1.964  0.3692  0.9186  0.1915
  111MOL0     H14942   8.588   1.243   2.042  0.8437  0.6953 -0.9834
  111MOL0     H14943   8.697   1.494   2.177  0.4529  0.3833  2.9170
  111MOL0     H14944   8.789   1.361   2.106 -2.8077 -3.1402 -4.2341
  111MOL0     H14945   8.597   1.401   2.525  1.3305 -3.3152  2.7607
  111MOL0     H14946   8.761   1.622   2.755 -1.0120 -1.1059  3.4532
  111MOL0     H14947   8.618   1.556   2.692 -0.6304 -1.6869 -0.8392
  111MOL0     H14948   8.720   1.449   2.800  0.1324  0.0929  0.2513
  111MOL0     H14949   9.123   1.824   2.683  0.2691 -3.5932 -2.1341
  111MOL0     H14950   9.262   1.960   2.849 -1.7559 -0.4234  1.1560
  111MOL0     H14951   9.469   2.053   2.914 -2.8290 -0.8551 -0.6570
  111MOL0     H14952   9.384   2.001   3.066  0.7462 -3.2294  0.9653
  111MOL0     H14953   9.588   2.140   3.125  0.3099 -0.4323  0.3826
  111MOL0     H14954   9.610   1.972   3.166 -0.4591 -0.0102  0.6549
  111MOL0     H14955   9.718   1.989   2.897 -0.1845  1.5938 -1.4265
  111MOL0     H14956   9.801   2.046   3.047 -0.3163  0.9957 -0.2736
  111MOL0     H14957   9.636   2.225   2.890 -1.1715 -0.3030  1.8510
  111MOL0     H14958   9.758   2.256   3.014 -1.3198 -2.0745  0.3502
  111MOL0     H14959   9.829   2.297   2.785 -1.0333 -0.5345 -1.6856
  111MOL0     H14960   9.814   2.126   2.751 -1.3998  0.2931 -0.0183
  111MOL0     H14961  10.024   2.273   2.929  1.3065  0.7398 -0.8612
  111MOL0     H14962   9.996   2.110   2.962  2.0273  2.1647  0.4884
  111MOL0     H14963  10.046   2.069   2.712  0.0315  0.3742 -0.7456
  111MOL0     H14964  10.186   2.117   2.819  0.2044  2.1025  0.7209
  111MOL0     H14965  10.034   2.291   2.628 -0.3859  1.4797  2.0157
  111MOL0     H14966  10.194   2.230   2.600  0.1535 -0.7677  1.1122
  111MOL0     H14967   9.491   1.605   2.935  2.0532  1.3431 -2.2313
  111MOL0     H14968   9.327   1.474   2.813 -2.7218 -0.0964 -0.5932
  111MOL0     H14969   9.092   1.399   2.451  0.8122  0.3350 -0.0732
  111MOL0     H14970   8.942   1.321   2.281  1.8149  0.1358  1.1935
  111MOL0     H14971   8.543   2.425   1.407 -2.5483  0.1848 -1.3476
  111MOL0     H14972   8.789   2.436   1.326 -0.2074 -1.3366  0.5953
  111MOL0     H14973   9.047   2.679   1.053  0.2683  0.4213 -0.3301
  111MOL0     H14974   9.273   2.737   1.047 -1.8945  0.1723  0.9350
  111MOL0     H14975   9.582   2.387   1.036  1.5706  0.2721 -1.0587
  111MOL0     H14976   9.516   2.404   0.877  1.7024 -0.4080 -0.6852
  111MOL0     H14977   9.714   2.586   0.992  1.1565  1.3518 -1.0224
  111MOL0     H14978   9.663   2.599   0.831  1.1263 -1.5621 -2.8645
  111MOL0     H14979   9.766   2.315   0.889  1.7894 -0.7993 -0.2422
  111MOL0     H14980   9.884   2.447   0.905  1.2419  0.7838 -2.2744
  111MOL0     H14981   9.692   2.422   0.675 -0.7047 -0.2550  4.0832
  111MOL0     H14982   9.833   2.320   0.657 -0.3097  0.6964 -1.6495
  111MOL0     H14983  10.004   2.693   0.571  0.4671 -0.3357 -0.2746
  111MOL0     H14984   9.379   2.311   1.023 -0.1139 -0.8460 -0.3625
  111MOL0     H14985   9.145   2.255   1.052  3.7409 -2.1741 -2.2990
  112MOL0     O14986   8.836   2.898   3.026  0.7643 -0.7276 -0.1389
  112MOL0     C14987   8.916   2.846   2.953 -0.8768  0.3277  0.2494
  112MOL0     O14988   8.894   2.729   2.878  0.1048  0.0676 -0.1377
  112MOL0     C14989   8.768   2.679   2.863 -0.2631 -0.0066 -0.0236
  112MOL0     C14990   8.744   2.605   2.750 -1.3288  0.7026  0.3762
  112MOL0     C14991   8.620   2.536   2.743  0.1300 -0.5874  0.8823
  112MOL0     C14992   8.515   2.557   2.832 -0.0373  0.0501 -0.1219
  112MOL0     O14993   8.391   2.499   2.806  0.3158  1.2501 -0.5945
  112MOL0     C14994   8.279   2.526   2.890  0.3189  0.0183 -0.3800
  112MOL0     C14995   8.171   2.434   2.837  0.4741  0.9932 -0.1975
  112MOL0     C14996   8.068   2.369   2.934  0.2222  0.1255 -0.8646
  112MOL0     C14997   7.948   2.477   2.946 -0.1830 -0.0270  0.0305
  112MOL0     C14998   7.836   2.450   3.046  0.5295  0.0459 -0.2852
  112MOL0     C14999   7.745   2.334   2.999 -0.9616  0.1427  0.0343
  112MOL0     C15000   7.692   2.254   3.123 -0.0851  0.3781 -0.0776
  112MOL0     C15001   7.573   2.288   3.191 -0.2043 -0.7343 -0.4130
  112MOL0     N15002   7.589   2.421   3.263  0.8805 -0.1170 -0.3967
  112MOL0     C15003   7.536   2.539   3.219 -0.1751 -0.5399 -0.9453
  112MOL0     C15004   7.555   2.624   3.320  0.2393 -0.2310  0.2282
  112MOL0     C15005   7.488   2.747   3.342 -0.2749  0.0884 -0.0205
  112MOL0     C15006   7.354   2.698   3.412  0.1139  0.3076 -0.3195
  112MOL0     C15007   7.285   2.811   3.493  0.1296 -0.2465 -0.4601
  112MOL0     C15008   7.248   2.932   3.409  0.2180  0.4780 -0.9405
  112MOL0     O15009   7.143   3.003   3.474  0.5098  0.4030  0.6703
  112MOL0     C15010   7.077   3.095   3.394 -0.1112 -0.8077 -0.1631
  112MOL0     C15011   7.114   3.229   3.402  0.3404 -0.4328  0.8553
  112MOL0     C15012   7.057   3.328   3.323  0.2258 -0.5453  0.3827
  112MOL0     C15013   7.098   3.472   3.349  1.2310  0.0509 -0.6185
  112MOL0     C15014   6.955   3.296   3.223 -0.0150 -0.1665 -0.5596
  112MOL0     C15015   6.910   3.386   3.122  0.1597  0.4873  0.3732
  112MOL0     O15016   6.809   3.328   3.037 -0.7676 -0.3920 -0.0419
  112MOL0     C15017   6.738   3.403   2.942  0.2694  0.4520  0.3452
  112MOL0     C15018   6.662   3.335   2.841  0.5255  0.2663  0.1400
  112MOL0     C15019   6.583   3.402   2.749  0.9006  0.0600  0.3477
  112MOL0     C15020   6.584   3.548   2.765 -0.0436 -0.3469  0.6049
  112MOL0     O15021   6.503   3.625   2.687  0.3197  0.1740  0.5822
  112MOL0     C15022   6.429   3.564   2.584  0.3343  0.7706 -0.2707
  112MOL0     C15023   6.342   3.678   2.524  0.4527 -0.2564  0.1366
  112MOL0     C15024   6.286   3.631   2.385  0.5823 -0.2031 -0.1265
  112MOL0     C15025   6.192   3.745   2.326  0.5381  0.5820 -0.8973
  112MOL0     C15026   6.137   3.720   2.189  1.2159 -0.2174  0.4676
  112MOL0     C15027   6.049   3.585   2.184  0.3449 -1.3766 -1.2552
  112MOL0     C15028   6.014   3.551   2.038 -0.0035 -0.5364 -0.1341
  112MOL0     C15029   5.898   3.443   2.038 -0.6669 -0.7983 -0.6278
  112MOL0    Cl15030   5.953   3.280   2.093  0.0620  0.3631 -0.1138
  112MOL0     C15031   6.668   3.613   2.860 -0.2073  0.3336 -1.0381
  112MOL0     C15032   6.734   3.541   2.955 -0.4191 -0.1364 -0.3659
  112MOL0     O15033   6.969   3.495   3.107 -0.3095  0.2809  0.0798
  112MOL0     C15034   6.920   3.161   3.219  0.2809 -0.3975  0.6763
  112MOL0     C15035   6.969   3.064   3.302 -0.0587  1.6245 -0.1649
  112MOL0     N15036   7.627   2.562   3.415 -0.3848  0.1398 -0.5436
  112MOL0     N15037   7.630   2.437   3.390  0.7937  0.1410 -0.4235
  112MOL0     C15038   8.543   2.635   2.945 -0.0128  0.2142  1.0900
  112MOL0     C15039   8.664   2.687   2.957 -1.0723  0.4684  0.2641
  112MOL0     C15040   9.053   2.899   2.951 -0.7403  0.1594 -0.1714
  112MOL0     C15041   9.099   2.977   3.059 -0.2746  0.1775 -0.2362
  112MOL0     C15042   9.226   3.043   3.041 -0.7475 -0.3852  0.8722
  112MOL0     C15043   9.307   3.015   2.930 -0.4884  0.3173  0.1441
  112MOL0     O15044   9.433   3.077   2.940  0.0602  0.2937  0.0452
  112MOL0     C15045   9.536   3.039   2.843 -0.0837 -0.1564  0.8838
  112MOL0     C15046   9.541   3.148   2.739 -0.1200 -0.2210  0.8114
  112MOL0     C15047   9.596   3.093   2.601 -0.7471  0.2091 -0.9719
  112MOL0     C15048   9.566   3.183   2.482  0.0351  0.8236 -0.2072
  112MOL0     C15049   9.608   3.098   2.365  0.0016 -0.1227 -0.7899
  112MOL0     C15050   9.653   3.043   2.269 -1.1455  0.1612  0.0074
  112MOL0     C15051   9.258   2.926   2.826 -0.3011 -0.3359  0.1453
  112MOL0     C15052   9.132   2.870   2.834  0.0578 -0.2086  0.5979
  112MOL0     H15053   8.821   2.585   2.676 -2.1898 -2.4259  0.1628
  112MOL0     H15054   8.611   2.472   2.655  2.1496 -0.9213  0.8533
  112MOL0     H15055   8.293   2.512   2.997  0.9656  0.9626 -0.3258
  112MOL0     H15056   8.248   2.631   2.879  2.4162  0.8462  1.0029
  112MOL0     H15057   8.115   2.480   2.755 -1.1289 -1.4995 -0.6434
  112MOL0     H15058   8.219   2.349   2.787  0.4547 -1.7596  3.9371
  112MOL0     H15059   8.011   2.279   2.910 -4.0186  2.1054  0.7133
  112MOL0     H15060   8.120   2.350   3.029 -0.4033 -0.4559 -0.6303
  112MOL0     H15061   7.997   2.572   2.965 -0.4961  0.2870 -0.6841
  112MOL0     H15062   7.901   2.488   2.847  3.0183 -2.0701 -1.9177
  112MOL0     H15063   7.878   2.432   3.145 -0.4083  2.8502  0.7004
  112MOL0     H15064   7.781   2.544   3.054 -1.2933 -0.7996 -2.0042
  112MOL0     H15065   7.670   2.359   2.922 -0.9015  0.7025  0.1507
  112MOL0     H15066   7.815   2.263   2.954  1.2715  0.1773  3.1657
  112MOL0     H15067   7.676   2.152   3.088 -0.3964 -0.0541  1.2548
  112MOL0     H15068   7.776   2.242   3.192 -1.6010  0.0271  1.8220
  112MOL0     H15069   7.573   2.210   3.267 -0.6016 -0.2969  0.0520
  112MOL0     H15070   7.483   2.286   3.129  0.3149  0.0889 -1.2240
  112MOL0     H15071   7.476   2.567   3.133  0.3365  0.6618 -0.9178
  112MOL0     H15072   7.550   2.802   3.414 -1.6855 -0.3974  1.6323
  112MOL0     H15073   7.473   2.808   3.253  1.2854  4.7933  2.5509
  112MOL0     H15074   7.373   2.616   3.482  0.9289  0.5600 -0.2307
  112MOL0     H15075   7.280   2.668   3.338  0.6039  2.9345 -2.0163
  112MOL0     H15076   7.346   2.841   3.579  2.0069 -0.2232 -1.7362
  112MOL0     H15077   7.193   2.761   3.526 -0.3857 -0.3045 -1.8931
  112MOL0     H15078   7.208   2.894   3.315 -0.8126 -1.7307  0.3025
  112MOL0     H15079   7.332   3.000   3.392  1.3018 -0.4146  0.5965
  112MOL0     H15080   7.189   3.256   3.475  0.3546  0.0020  0.6837
  112MOL0     H15081   7.008   3.530   3.373 -0.5798 -3.5466  2.2830
  112MOL0     H15082   7.157   3.478   3.441  2.3428 -0.8737 -1.2462
  112MOL0     H15083   7.148   3.519   3.264  0.1127 -0.1562 -1.3969
  112MOL0     H15084   6.684   3.230   2.822  2.4201  1.0408 -2.6337
  112MOL0     H15085   6.510   3.343   2.695  1.7434 -0.5073 -0.2016
  112MOL0     H15086   6.500   3.530   2.508 -1.0533  1.4814 -1.9407
  112MOL0     H15087   6.366   3.483   2.623 -0.3741  1.7541  0.6952
  112MOL0     H15088   6.250   3.684   2.583  0.3387  0.3170 -0.0895
  112MOL0     H15089   6.398   3.771   2.510 -0.3893  0.9822  3.8421
  112MOL0     H15090   6.232   3.536   2.384  2.8893 -1.6287 -2.7289
  112MOL0     H15091   6.373   3.618   2.320 -0.4155  0.2115 -1.5828
  112MOL0     H15092   6.108   3.776   2.388  2.0889  4.1135 -0.2904
  112MOL0     H15093   6.267   3.825   2.319 -0.1849  1.2037 -1.7309
  112MOL0     H15094   6.220   3.693   2.123  0.2780  0.6122 -1.1247
  112MOL0     H15095   6.078   3.801   2.146  0.3994 -1.1383 -0.1853
  112MOL0     H15096   6.099   3.493   2.218 -0.0776 -1.1470  0.0542
  112MOL0     H15097   5.969   3.606   2.255 -1.0446 -0.2737 -3.0761
  112MOL0     H15098   6.094   3.501   1.982 -1.4245 -1.3040 -1.5630
  112MOL0     H15099   5.962   3.629   1.982 -0.5593 -2.7387 -2.8907
  112MOL0     H15100   5.861   3.438   1.935 -3.9314 -1.0839  0.4240
  112MOL0     H15101   5.810   3.473   2.096 -3.0471 -3.4342 -2.5817
  112MOL0     H15102   6.671   3.722   2.860 -1.4170  0.3902  0.0117
  112MOL0     H15103   6.782   3.598   3.033  0.3245 -1.4136  0.1413
  112MOL0     H15104   6.849   3.131   3.144 -0.5383  0.3916  1.1221
  112MOL0     H15105   6.936   2.961   3.289  2.2148  1.1183 -3.1700
  112MOL0     H15106   8.455   2.657   3.005  0.0373 -0.9526  1.6285
  112MOL0     H15107   8.677   2.723   3.059  1.5504 -2.8572  1.2849
  112MOL0     H15108   9.035   2.999   3.143 -1.3642  1.2874 -1.3139
  112MOL0     H15109   9.262   3.098   3.127 -2.3098 -0.5510  1.6654
  112MOL0     H15110   9.632   3.037   2.894 -0.2689 -1.3780  1.2237
  112MOL0     H15111   9.515   2.947   2.787 -2.6072  0.3703  0.8337
  112MOL0     H15112   9.604   3.228   2.781  2.6072 -2.9329  2.3121
  112MOL0     H15113   9.442   3.185   2.711  0.6336  1.0605 -0.3417
  112MOL0     H15114   9.562   2.989   2.587  3.8879 -1.6461 -0.0602
  112MOL0     H15115   9.701   3.070   2.618 -0.8044  0.6172 -0.0007
  112MOL0     H15116   9.635   3.264   2.507  0.9647 -0.3262  1.0584
  112MOL0     H15117   9.464   3.218   2.463 -0.3832 -0.5421 -0.5881
  112MOL0     H15118   9.697   2.980   2.193  0.2614  1.3732 -0.2401
  112MOL0     H15119   9.321   2.899   2.742  0.1862 -1.0590  0.7274
  112MOL0     H15120   9.084   2.819   2.752  0.7337  0.0560  0.0270
  113MOL0     O15121   4.598   0.552   3.712  0.5482 -0.0135  0.6512
  113MOL0     C15122   4.639   0.632   3.796 -0.9203  0.1847  0.0240
  113MOL0     O15123   4.633   0.766   3.783  0.2848 -0.1889  0.4771
  113MOL0     C15124   4.593   0.810   3.658 -0.4269 -0.4218 -0.1403
  113MOL0     C15125   4.681   0.786   3.552  0.1524  0.5780  0.8145
  113MOL0     C15126   4.641   0.818   3.420 -0.3093  0.2112 -0.3258
  113MOL0     C15127   4.518   0.872   3.400 -0.0715 -0.3929  0.3429
  113MOL0     O15128   4.474   0.908   3.273 -0.5989 -0.2633 -0.8858
  113MOL0     C15129   4.568   0.942   3.176  0.1812 -0.4101  0.1442
  113MOL0     C15130   4.609   1.091   3.194  0.6484  0.6185  0.4621
  113MOL0     C15131   4.488   1.184   3.198 -0.4574  0.6582  0.0909
  113MOL0     C15132   4.435   1.209   3.059 -0.3696  0.8971  0.0654
  113MOL0     C15133   4.457   1.358   3.021  0.0211 -0.3813 -1.1714
  113MOL0     C15134   4.379   1.410   2.904  0.0636 -0.2021  0.0106
  113MOL0     C15135   4.445   1.542   2.873  0.1075  0.9145  0.1648
  113MOL0     C15136   4.397   1.594   2.743 -0.1747  1.0274 -0.1865
  113MOL0     N15137   4.482   1.714   2.707  0.2693 -0.2182 -0.4388
  113MOL0     C15138   4.600   1.707   2.635 -0.0950 -0.8724  0.2848
  113MOL0     C15139   4.621   1.835   2.592  1.0605 -0.1556  0.6764
  113MOL0     C15140   4.744   1.875   2.513 -0.5264 -0.4597 -0.0853
  113MOL0     C15141   4.868   1.896   2.602 -0.5115 -0.0320  0.5893
  113MOL0     C15142   4.862   2.026   2.685  0.2649 -0.3659 -0.5116
  113MOL0     C15143   4.986   2.041   2.781  0.0458 -0.3369  0.5542
  113MOL0     O15144   5.101   2.059   2.703 -0.0305 -0.5144  0.3113
  113MOL0     C15145   5.219   2.041   2.767 -0.0046 -0.3086 -0.4288
  113MOL0     C15146   5.325   1.982   2.691  0.6490  0.3559  0.2174
  113MOL0     C15147   5.456   1.975   2.744  0.1286 -0.7378 -0.5687
  113MOL0     C15148   5.567   1.899   2.668  0.9172 -0.4385  0.0338
  113MOL0     C15149   5.484   2.030   2.863  0.2315  0.4173 -0.9834
  113MOL0     C15150   5.617   2.037   2.918 -0.2580 -0.3798  0.5920
  113MOL0     O15151   5.717   2.081   2.830  0.3852  0.2155 -0.2149
  113MOL0     C15152   5.834   2.126   2.878 -0.1572  0.5323 -0.4801
  113MOL0     C15153   5.946   2.058   2.839 -0.1461 -1.2412 -1.7767
  113MOL0     C15154   6.071   2.101   2.886 -0.2607  0.4730 -0.0336
  113MOL0     C15155   6.082   2.215   2.960 -0.5014  0.2255  0.5419
  113MOL0     O15156   6.204   2.264   2.995 -1.1248 -1.0586 -0.6490
  113MOL0     C15157   6.245   2.380   2.926 -0.3610  0.0711  0.0892
  113MOL0     C15158   6.387   2.429   2.981  0.0500 -0.2588  0.8073
  113MOL0     C15159   6.493   2.320   2.958  0.2310 -0.3281  0.1977
  113MOL0     C15160   6.637   2.376   2.945 -0.6294 -0.0181 -0.6314
  113MOL0     C15161   6.724   2.250   2.962 -0.6990 -1.3456 -0.0606
  113MOL0     C15162   6.877   2.273   2.917  0.0777 -0.9148 -0.2746
  113MOL0     C15163   6.961   2.149   2.965 -0.8286 -0.4143 -0.5517
  113MOL0     C15164   7.115   2.183   2.954 -0.3243 -0.6025 -0.7761
  113MOL0    Cl15165   7.182   2.312   3.057 -0.2054  0.0286  0.0896
  113MOL0     C15166   5.970   2.282   2.997 -0.2686  0.1186  0.1769
  113MOL0     C15167   5.846   2.238   2.956  0.2588 -0.2689 -0.5090
  113MOL0     O15168   5.629   2.025   3.038 -0.0760  0.0873 -0.2011
  113MOL0     C15169   5.382   2.087   2.940  0.1401  0.3159  0.5101
  113MOL0     C15170   5.253   2.095   2.894  0.2245 -0.4008 -1.5661
  113MOL0     N15171   4.513   1.908   2.635 -0.4944 -0.3384  0.3230
  113MOL0     N15172   4.428   1.837   2.693  0.6932  0.4974 -0.2656
  113MOL0     C15173   4.433   0.900   3.511  0.6180  0.2510 -0.2846
  113MOL0     C15174   4.480   0.876   3.642  0.1592  1.3965 -0.1200
  113MOL0     C15175   4.666   0.562   3.921  0.6495  0.2912  0.4682
  113MOL0     C15176   4.661   0.638   4.034  0.6239  0.6684 -1.1256
  113MOL0     C15177   4.688   0.585   4.161 -0.4605 -0.5333  1.6155
  113MOL0     C15178   4.729   0.456   4.170  0.6557  0.2736  0.1833
  113MOL0     O15179   4.750   0.397   4.294 -1.0775  0.5461  0.3172
  113MOL0     C15180   4.733   0.468   4.421 -0.6829 -0.0436 -0.2462
  113MOL0     C15181   4.835   0.418   4.524  0.7112 -0.2965 -0.7694
  113MOL0     C15182   4.976   0.455   4.484  0.7576  0.2472  0.1098
  113MOL0     C15183   5.076   0.396   4.588 -0.2425  0.1329 -0.3252
  113MOL0     C15184   5.101   0.249   4.579 -0.9033 -0.4613 -0.0725
  113MOL0     C15185   5.141   0.135   4.596 -0.6690 -0.0922 -1.0430
  113MOL0     C15186   4.739   0.376   4.055 -0.0250  0.2287  0.3917
  113MOL0     C15187   4.719   0.432   3.933  0.6755 -0.1641  0.3956
  113MOL0     H15188   4.777   0.736   3.557 -2.1121 -4.5330 -0.6090
  113MOL0     H15189   4.717   0.791   3.347 -2.3061 -0.8912 -2.1314
  113MOL0     H15190   4.661   0.885   3.181  1.0995  1.1472  3.3659
  113MOL0     H15191   4.516   0.921   3.082 -5.0680  1.7027  2.1830
  113MOL0     H15192   4.667   1.097   3.287 -1.2348  1.5937  1.6256
  113MOL0     H15193   4.665   1.123   3.106  1.1840 -4.8985 -1.6037
  113MOL0     H15194   4.407   1.134   3.252 -0.4407 -1.8207 -2.0174
  113MOL0     H15195   4.524   1.269   3.257  1.7785 -0.7556  0.8898
  113MOL0     H15196   4.483   1.144   2.985  0.7201  2.2034 -0.4273
  113MOL0     H15197   4.328   1.185   3.060 -0.1608 -0.2368 -1.3036
  113MOL0     H15198   4.434   1.426   3.104  0.9246 -2.8589  1.2506
  113MOL0     H15199   4.563   1.376   2.998 -0.4941  1.0130 -2.6432
  113MOL0     H15200   4.394   1.340   2.822 -2.0909  1.8026 -2.2476
  113MOL0     H15201   4.274   1.418   2.934 -0.3305 -0.4970 -1.2456
  113MOL0     H15202   4.423   1.613   2.954  1.2456  1.0835  0.3471
  113MOL0     H15203   4.554   1.542   2.862 -0.0223  1.8329 -1.2721
  113MOL0     H15204   4.292   1.623   2.743 -0.4160  0.2226 -1.4943
  113MOL0     H15205   4.412   1.515   2.669  1.6427  1.2530 -0.1252
  113MOL0     H15206   4.646   1.609   2.628 -0.8112 -1.0925 -2.0529
  113MOL0     H15207   4.763   1.795   2.441  3.5092 -1.5384  1.8885
  113MOL0     H15208   4.725   1.974   2.471  1.3632  0.6417  1.5031
  113MOL0     H15209   4.949   1.918   2.531 -1.2575  0.7435 -0.0350
  113MOL0     H15210   4.893   1.806   2.659  1.6009 -0.5124 -0.9648
  113MOL0     H15211   4.773   2.040   2.746  1.4340  2.4945  0.7166
  113MOL0     H15212   4.862   2.120   2.629  3.9491  0.8565  1.2383
  113MOL0     H15213   5.003   1.952   2.843  0.8918  0.9096  2.1815
  113MOL0     H15214   4.977   2.124   2.852 -1.7134 -0.7513  0.8668
  113MOL0     H15215   5.308   1.926   2.599 -2.0467 -0.8123  1.3052
  113MOL0     H15216   5.616   1.827   2.734 -0.1960  0.3808  1.8183
  113MOL0     H15217   5.514   1.850   2.585 -1.2565 -0.4974  1.3723
  113MOL0     H15218   5.641   1.971   2.632 -1.1000  2.5882  1.5811
  113MOL0     H15219   5.939   1.971   2.774 -0.3592  0.0321 -3.5058
  113MOL0     H15220   6.162   2.053   2.852 -0.4888 -0.3338  0.4732
  113MOL0     H15221   6.253   2.372   2.817  0.4254  1.1449  0.0587
  113MOL0     H15222   6.171   2.458   2.942  1.2589  1.8765 -0.8368
  113MOL0     H15223   6.418   2.508   2.911 -1.9735  2.7374  3.0305
  113MOL0     H15224   6.373   2.466   3.083 -3.3496  2.0545 -0.3260
  113MOL0     H15225   6.472   2.277   2.859 -0.1151  1.3813 -0.5072
  113MOL0     H15226   6.497   2.256   3.046  3.9295 -0.3935  0.1154
  113MOL0     H15227   6.652   2.423   2.847 -0.6002  0.8986 -0.2021
  113MOL0     H15228   6.655   2.453   3.021  0.0659 -0.0199 -0.7867
  113MOL0     H15229   6.680   2.171   2.899  3.0443 -3.8332  0.1405
  113MOL0     H15230   6.730   2.220   3.067  0.3960 -5.6858 -1.1294
  113MOL0     H15231   6.888   2.292   2.810  2.2737 -0.7854 -0.0645
  113MOL0     H15232   6.918   2.365   2.958  0.6917  0.0427 -2.8553
  113MOL0     H15233   6.945   2.059   2.904  0.1594 -0.3251 -0.9604
  113MOL0     H15234   6.935   2.125   3.069  1.7489  0.1822  0.3137
  113MOL0     H15235   7.140   2.210   2.851  1.8127 -1.7329 -0.6203
  113MOL0     H15236   7.173   2.093   2.977  0.2842 -0.4421 -1.6338
  113MOL0     H15237   5.967   2.377   3.049  2.3746 -0.9642  2.5452
  113MOL0     H15238   5.756   2.295   2.976 -0.4403 -1.5145  0.0427
  113MOL0     H15239   5.400   2.129   3.039 -0.2819  2.2563 -0.1940
  113MOL0     H15240   5.190   2.155   2.959  2.5280  1.1302 -0.6084
  113MOL0     H15241   4.332   0.938   3.501  0.6360  0.0835 -1.1616
  113MOL0     H15242   4.416   0.881   3.730 -0.1672  0.7537 -0.3136
  113MOL0     H15243   4.636   0.744   4.031  1.5155  0.9483  0.3110
  113MOL0     H15244   4.670   0.653   4.244 -0.7895  3.4691 -1.4368
  113MOL0     H15245   4.734   0.578   4.418 -0.1653 -0.0588 -0.6326
  113MOL0     H15246   4.637   0.433   4.459  0.1481 -1.6655  0.4529
  113MOL0     H15247   4.830   0.309   4.527 -3.0262 -0.2234  1.9641
  113MOL0     H15248   4.811   0.457   4.623  0.0630  1.5614 -1.6165
  113MOL0     H15249   4.972   0.564   4.477  0.3670  0.2114 -0.3117
  113MOL0     H15250   4.987   0.414   4.383 -3.2082 -3.0150  0.7281
  113MOL0     H15251   5.020   0.415   4.680 -0.4111  1.3177 -0.6554
  113MOL0     H15252   5.172   0.449   4.594  1.5842 -2.7973 -1.6042
  113MOL0     H15253   5.175   0.036   4.619  0.4777  0.2994 -0.9873
  113MOL0     H15254   4.768   0.272   4.062  3.2777  1.0066 -0.0154
  113MOL0     H15255   4.753   0.387   3.840 -1.0371 -1.0385  0.1627
  114MOL0     O15256  10.363   6.010   4.666 -0.1181  0.7318  0.1622
  114MOL0     C15257  10.458   5.972   4.737 -0.2459 -0.1875 -0.2800
  114MOL0     O15258  10.467   5.961   4.868 -0.3985 -0.1666  0.2983
  114MOL0     C15259  10.347   5.983   4.928 -0.7867 -0.3791  0.9477
  114MOL0     C15260  10.285   5.882   5.007 -0.0337  0.2063  0.0697
  114MOL0     C15261  10.162   5.916   5.067 -0.8029  0.6322  0.3648
  114MOL0     C15262  10.107   6.044   5.062  0.1780  0.0217 -0.0609
  114MOL0     O15263   9.988   6.066   5.127 -0.2723  0.3114 -0.1845
  114MOL0     C15264   9.954   6.194   5.171 -0.3021 -0.6340 -0.1245
  114MOL0     C15265   9.862   6.250   5.056  0.3271 -0.3830 -0.2361
  114MOL0     C15266   9.788   6.386   5.085  0.3872 -0.1870 -0.4724
  114MOL0     C15267   9.689   6.396   5.203  0.9976  0.7110 -0.0150
  114MOL0     C15268   9.590   6.289   5.213 -0.3167  0.2530 -0.1295
  114MOL0     C15269   9.513   6.250   5.093  0.7043  0.2953  0.0896
  114MOL0     C15270   9.406   6.143   5.130  0.0761  0.7849  0.3773
  114MOL0     C15271   9.446   5.998   5.176 -0.5234 -1.7847 -0.0503
  114MOL0     N15272   9.514   5.938   5.060  0.0887  0.1438  0.4276
  114MOL0     C15273   9.654   5.910   5.054 -0.0440  0.4209  0.2854
  114MOL0     C15274   9.656   5.824   4.944  0.0730  0.2039  1.1735
  114MOL0     C15275   9.772   5.740   4.891 -0.4028 -0.7952  0.4765
  114MOL0     C15276   9.885   5.836   4.851 -1.4466 -0.7095 -0.3361
  114MOL0     C15277   9.848   5.946   4.748  0.5821  0.1765 -0.1225
  114MOL0     C15278   9.947   6.041   4.696 -0.0131 -0.2294  0.7196
  114MOL0     O15279   9.891   6.102   4.578 -0.1507 -0.1661  0.5316
  114MOL0     C15280   9.971   6.157   4.481  0.0253 -0.8720 -0.6560
  114MOL0     C15281   9.915   6.166   4.353  0.5314 -0.3222  0.7676
  114MOL0     C15282  10.005   6.197   4.246 -1.4097  0.0032  0.0388
  114MOL0     C15283   9.960   6.226   4.103 -0.0465 -0.6058  0.1805
  114MOL0     C15284  10.147   6.211   4.273 -0.1279 -0.3979 -0.5764
  114MOL0     C15285  10.257   6.230   4.170  0.1673 -0.5022 -0.7857
  114MOL0     O15286  10.384   6.270   4.213  0.5433  0.0571  0.1234
  114MOL0     C15287  10.504   6.241   4.149  0.5256  0.3431  0.4264
  114MOL0     C15288  10.622   6.318   4.151 -0.2096 -0.0970 -0.9670
  114MOL0     C15289  10.745   6.280   4.095  0.2316  0.4464  0.1937
  114MOL0     C15290  10.748   6.163   4.022  0.1574 -0.2662 -0.1693
  114MOL0     O15291  10.853   6.102   3.962 -0.3072  0.7770  0.4323
  114MOL0     C15292  10.947   6.204   3.934 -0.5823 -0.1232 -0.4047
  114MOL0     C15293  11.052   6.169   3.826  0.1934  1.2182  0.2379
  114MOL0     C15294  11.142   6.298   3.807  0.4770  0.6605  0.4170
  114MOL0     C15295  11.211   6.309   3.664 -0.4837 -0.6380  1.1088
  114MOL0     C15296  11.326   6.410   3.654 -1.0048  0.5457 -0.5425
  114MOL0     C15297  11.288   6.559   3.628  0.2741  0.3182 -0.1287
  114MOL0     C15298  11.381   6.658   3.694  0.3072 -0.7510  0.5146
  114MOL0     C15299  11.505   6.673   3.606 -0.4011  0.1282  0.6381
  114MOL0    Cl15300  11.451   6.750   3.455  0.0108 -0.1220 -0.1568
  114MOL0     C15301  10.625   6.082   4.012  0.1080 -0.6617 -0.6403
  114MOL0     C15302  10.511   6.117   4.078 -0.2022 -0.3998  0.4418
  114MOL0     O15303  10.233   6.212   4.055 -0.8786  0.3349 -0.1186
  114MOL0     C15304  10.197   6.207   4.407 -0.3872  0.3390 -0.2901
  114MOL0     C15305  10.105   6.188   4.508 -0.7520  0.1041 -0.0592
  114MOL0     N15306   9.524   5.816   4.888  0.2332  0.2469  0.4345
  114MOL0     N15307   9.442   5.875   4.960  0.4996 -1.4756  0.2432
  114MOL0     C15308  10.182   6.146   5.004 -0.2296  0.3961 -0.2273
  114MOL0     C15309  10.297   6.109   4.936 -0.2635  0.2031  0.9342
  114MOL0     C15310  10.573   5.928   4.652  0.0240  0.3543  0.1746
  114MOL0     C15311  10.582   5.959   4.516 -0.0227  0.1487 -0.8915
  114MOL0     C15312  10.689   5.916   4.436  0.2517  0.1148  0.4124
  114MOL0     C15313  10.792   5.839   4.494  0.1706  0.1292  0.2656
  114MOL0     O15314  10.896   5.825   4.411  0.4823  0.3843 -0.2750
  114MOL0     C15315  10.969   5.708   4.424  0.0144  0.4095 -0.6474
  114MOL0     C15316  11.071   5.737   4.321 -0.4150 -0.7345  0.3813
  114MOL0     C15317  11.146   5.614   4.288  0.4111 -0.3841  0.5333
  114MOL0     C15318  11.237   5.562   4.402  0.3447 -0.2615 -0.5776
  114MOL0     C15319  11.179   5.442   4.481  0.3145  0.0101  0.2894
  114MOL0     C15320  11.142   5.347   4.554  0.2818 -0.3138 -0.4568
  114MOL0     C15321  10.780   5.803   4.629 -0.6990  0.8739  0.5571
  114MOL0     C15322  10.673   5.848   4.703  0.5919  0.1958 -0.0333
  114MOL0     H15323  10.327   5.782   5.002 -0.5092  0.0327 -0.5149
  114MOL0     H15324  10.108   5.856   5.141 -0.0980  0.6002  0.8599
  114MOL0     H15325   9.888   6.187   5.258 -1.8600  3.1753 -0.7801
  114MOL0     H15326  10.030   6.262   5.208 -1.9730 -1.0138  4.6555
  114MOL0     H15327   9.920   6.265   4.965  0.9505 -0.8146  0.0846
  114MOL0     H15328   9.796   6.169   5.023  0.4707  0.0396 -1.6062
  114MOL0     H15329   9.860   6.467   5.099  1.4275 -1.4485  2.2814
  114MOL0     H15330   9.723   6.410   5.000  1.9102  0.5145 -1.4738
  114MOL0     H15331   9.759   6.386   5.286 -0.0003 -1.9301  0.6273
  114MOL0     H15332   9.633   6.490   5.197 -0.2850 -0.0373 -0.2935
  114MOL0     H15333   9.637   6.196   5.245 -0.4161 -0.1705 -1.1765
  114MOL0     H15334   9.523   6.327   5.290  0.3780  0.6594  0.2816
  114MOL0     H15335   9.468   6.335   5.041  2.3963  0.8188 -0.5754
  114MOL0     H15336   9.573   6.206   5.013  0.9452 -1.5050  1.1886
  114MOL0     H15337   9.334   6.184   5.201 -2.5291 -2.6348 -0.0176
  114MOL0     H15338   9.344   6.125   5.042  1.3012 -1.7325 -0.0703
  114MOL0     H15339   9.359   5.936   5.197 -3.1178  1.4605 -0.3490
  114MOL0     H15340   9.508   5.993   5.266 -1.8733 -1.5683  0.9069
  114MOL0     H15341   9.743   5.929   5.114 -0.7344  1.4489  1.0180
  114MOL0     H15342   9.806   5.673   4.971 -3.0938 -1.1882  1.4147
  114MOL0     H15343   9.749   5.675   4.806  4.1721 -2.3434  0.1304
  114MOL0     H15344   9.969   5.772   4.824 -2.0198 -2.0853  0.9553
  114MOL0     H15345   9.913   5.891   4.941  2.9761 -5.9873  2.1388
  114MOL0     H15346   9.776   6.011   4.798 -0.2329  0.8313 -2.0515
  114MOL0     H15347   9.794   5.899   4.665  1.9706 -2.0096  0.1171
  114MOL0     H15348  10.024   5.972   4.659 -1.4073 -0.7367 -1.4487
  114MOL0     H15349   9.996   6.100   4.774  3.1825 -2.5926  0.7193
  114MOL0     H15350   9.809   6.163   4.335  0.1769  4.4134  0.9234
  114MOL0     H15351  10.003   6.320   4.067 -4.3502  1.1138 -1.1509
  114MOL0     H15352   9.999   6.158   4.026  0.4402 -0.8780  0.6640
  114MOL0     H15353   9.851   6.238   4.100  0.1844  4.0353  2.6348
  114MOL0     H15354  10.620   6.412   4.204 -2.4583 -0.1572 -0.8380
  114MOL0     H15355  10.828   6.350   4.106 -0.0236  0.5118  2.0410
  114MOL0     H15356  10.898   6.290   3.888 -0.0743 -0.0817 -0.8881
  114MOL0     H15357  10.993   6.235   4.028  0.0911  0.2770 -0.8529
  114MOL0     H15358  11.114   6.086   3.862  0.4911  1.6894  0.8140
  114MOL0     H15359  10.992   6.152   3.736  1.2684  1.5221 -0.5593
  114MOL0     H15360  11.219   6.304   3.884 -1.7270 -2.3701  3.1091
  114MOL0     H15361  11.076   6.383   3.827 -0.9454 -0.8711  2.6559
  114MOL0     H15362  11.254   6.211   3.643 -0.0407 -0.0841 -0.7228
  114MOL0     H15363  11.137   6.326   3.585  0.8390  3.1297  0.4865
  114MOL0     H15364  11.386   6.366   3.574 -1.0794 -2.5337  0.9418
  114MOL0     H15365  11.382   6.404   3.747 -1.7344 -2.0634 -0.2051
  114MOL0     H15366  11.281   6.574   3.520  0.0462 -4.4589 -0.9788
  114MOL0     H15367  11.186   6.567   3.666 -0.3234 -0.7523 -1.4471
  114MOL0     H15368  11.406   6.618   3.793 -1.6659 -1.6353  0.7223
  114MOL0     H15369  11.324   6.750   3.712 -0.4953 -1.3461  1.1074
  114MOL0     H15370  11.549   6.574   3.589 -4.2152 -1.8433  1.1911
  114MOL0     H15371  11.570   6.744   3.657 -1.5647  1.9049 -0.2471
  114MOL0     H15372  10.632   5.984   3.965  2.5689 -1.1884  0.6281
  114MOL0     H15373  10.428   6.051   4.053  1.1921 -1.7398 -0.9052
  114MOL0     H15374  10.302   6.226   4.428 -0.8249  2.4584  0.2397
  114MOL0     H15375  10.137   6.208   4.610 -2.1592  2.0809  0.0419
  114MOL0     H15376  10.171   6.253   5.019  3.1482  1.0748 -1.6769
  114MOL0     H15377  10.366   6.179   4.889 -0.4801 -0.1467  0.0797
  114MOL0     H15378  10.507   6.015   4.462  1.1885  1.7839 -0.9326
  114MOL0     H15379  10.705   5.963   4.340  1.5829  1.9435  1.4573
  114MOL0     H15380  11.018   5.700   4.521 -1.2049  1.7575  0.1102
  114MOL0     H15381  10.912   5.615   4.413 -0.0485  0.4055 -0.2889
  114MOL0     H15382  11.134   5.821   4.353 -0.6568  0.2263 -1.5034
  114MOL0     H15383  11.042   5.770   4.220  1.5025 -0.3584 -0.0752
  114MOL0     H15384  11.218   5.641   4.211 -0.3403 -1.0466 -0.4322
  114MOL0     H15385  11.084   5.539   4.238  2.1260 -1.0995 -0.6198
  114MOL0     H15386  11.248   5.644   4.474 -1.1835 -0.2388 -0.3422
  114MOL0     H15387  11.334   5.537   4.359 -0.1822  0.2801 -2.1269
  114MOL0     H15388  11.104   5.256   4.595 -1.6305  0.1583 -1.0831
  114MOL0     H15389  10.856   5.742   4.676  0.7362 -0.8841 -3.5288
  114MOL0     H15390  10.678   5.826   4.809  2.4990 -1.3015 -0.3695
  115MOL0     O15391   0.474   4.483   2.817 -0.0218 -0.3268  0.6028
  115MOL0     C15392   0.439   4.582   2.880 -0.5220  0.5856 -0.0276
  115MOL0     O15393   0.312   4.617   2.916  0.1799 -0.0190  0.7497
  115MOL0     C15394   0.206   4.553   2.861  0.1813  0.8984  0.4527
  115MOL0     C15395   0.106   4.637   2.804 -0.3995 -0.8845  0.2818
  115MOL0     C15396  -0.005   4.571   2.759  1.2078 -0.5669  0.5704
  115MOL0     C15397  -0.025   4.437   2.775 -0.8291  0.0933 -0.0898
  115MOL0     O15398  -0.137   4.381   2.740 -0.2032 -0.0447 -0.8667
  115MOL0     C15399  -0.190   4.288   2.846  0.4718  0.0385  0.0303
  115MOL0     C15400  -0.339   4.295   2.832  0.0082  0.6146 -1.1217
  115MOL0     C15401  -0.421   4.222   2.724  0.6504 -0.2623  0.5226
  115MOL0     C15402  -0.560   4.195   2.769  0.7506  0.6177 -0.2068
  115MOL0     C15403  -0.664   4.161   2.665  0.6597  0.3045  0.2186
  115MOL0     C15404  -0.650   4.028   2.589 -0.3858  0.2854 -0.9545
  115MOL0     C15405  -0.746   4.023   2.471 -0.1018 -0.2657  0.3940
  115MOL0     C15406  -0.707   3.917   2.368  0.6471  0.1218  0.5885
  115MOL0     N15407  -0.748   3.960   2.235 -0.2049  0.7480  0.1474
  115MOL0     C15408  -0.682   4.050   2.156 -0.0315 -0.3666 -0.1539
  115MOL0     C15409  -0.757   4.053   2.046  0.3795 -0.1878  0.3810
  115MOL0     C15410  -0.734   4.146   1.933 -0.6722  0.0197  0.4732
  115MOL0     C15411  -0.861   4.210   1.899  0.5826  0.3240 -0.3771
  115MOL0     C15412  -0.855   4.326   1.803  0.5314  0.8003 -0.4521
  115MOL0     C15413  -0.809   4.455   1.871 -0.9859  0.3185 -0.1041
  115MOL0     O15414  -0.690   4.434   1.945  0.1565 -0.4976 -0.7317
  115MOL0     C15415  -0.567   4.475   1.900  0.3205  0.6561 -0.2108
  115MOL0     C15416  -0.518   4.412   1.783 -0.1227  0.9610 -0.1723
  115MOL0     C15417  -0.387   4.431   1.749 -1.1425 -0.5748  0.1868
  115MOL0     C15418  -0.346   4.357   1.625 -1.0727 -0.4292  0.5827
  115MOL0     C15419  -0.290   4.502   1.838 -0.4130 -0.8920 -0.8088
  115MOL0     C15420  -0.143   4.502   1.819  0.0682  0.7395 -0.7169
  115MOL0     O15421  -0.072   4.502   1.926 -0.5401  0.2251 -0.4208
  115MOL0     C15422   0.058   4.517   1.911  0.6020  0.3120 -0.1709
  115MOL0     C15423   0.123   4.439   2.005 -0.6055  0.5249  0.3078
  115MOL0     C15424   0.261   4.450   2.025  0.0852  0.3943  1.0670
  115MOL0     C15425   0.338   4.542   1.948  0.2164 -0.0520 -0.3815
  115MOL0     O15426   0.475   4.558   1.985  0.4923 -0.1276 -0.1714
  115MOL0     C15427   0.530   4.689   1.970  0.2167 -0.0890 -1.1937
  115MOL0     C15428   0.649   4.699   2.059  0.9608 -0.0833  0.1663
  115MOL0     C15429   0.744   4.580   2.056  0.4305 -0.2157  0.1416
  115MOL0     C15430   0.891   4.626   2.097 -0.6952  0.6584 -0.4529
  115MOL0     C15431   0.900   4.660   2.249  0.7092 -0.1487 -0.2342
  115MOL0     C15432   1.046   4.675   2.281 -0.1528  0.5710 -0.2365
  115MOL0     C15433   1.097   4.814   2.242  0.2287 -0.8767 -0.2578
  115MOL0     C15434   1.235   4.854   2.297 -0.1621  0.2690 -0.2145
  115MOL0    Cl15435   1.261   5.025   2.261 -0.0374 -0.1446 -0.5174
  115MOL0     C15436   0.272   4.613   1.847 -0.4116 -0.0309 -0.2615
  115MOL0     C15437   0.138   4.599   1.823  0.1475  0.3283  0.6136
  115MOL0     O15438  -0.106   4.508   1.701  0.0155 -0.2277  0.1029
  115MOL0     C15439  -0.349   4.564   1.953 -0.4429 -0.7659  1.0292
  115MOL0     C15440  -0.483   4.548   1.981  0.2694 -0.7156 -0.5055
  115MOL0     N15441  -0.871   3.976   2.071  0.2206 -0.2007  0.5253
  115MOL0     N15442  -0.861   3.914   2.176  0.4039 -0.1867  0.9060
  115MOL0     C15443   0.079   4.359   2.834  0.1386  0.4351 -0.4896
  115MOL0     C15444   0.197   4.413   2.874  0.3919  0.0648 -0.3602
  115MOL0     C15445   0.549   4.672   2.917 -0.2597 -0.1932 -0.6025
  115MOL0     C15446   0.599   4.778   2.840 -0.1489  0.5158  0.0546
  115MOL0     C15447   0.692   4.865   2.892 -0.0922 -0.0405 -0.0499
  115MOL0     C15448   0.750   4.843   3.023 -0.5671 -0.7528 -0.8272
  115MOL0     O15449   0.859   4.930   3.058 -0.3957 -0.4742 -0.0807
  115MOL0     C15450   0.920   4.902   3.185  0.6809  0.2126 -0.1618
  115MOL0     C15451   1.027   4.998   3.214 -0.0233  0.0509 -0.1562
  115MOL0     C15452   0.987   5.141   3.207  0.2029 -0.0066 -0.6923
  115MOL0     C15453   1.096   5.230   3.260  0.1070  0.2745 -0.4629
  115MOL0     C15454   1.203   5.264   3.177  0.2935 -0.2944  0.0447
  115MOL0     C15455   1.280   5.277   3.084 -0.0094  0.0517 -0.0209
  115MOL0     C15456   0.697   4.733   3.103 -0.8597 -0.7178  0.1811
  115MOL0     C15457   0.605   4.649   3.042  0.4623  0.2666 -0.5926
  115MOL0     H15458   0.119   4.744   2.793  0.3749 -1.0264 -0.2557
  115MOL0     H15459  -0.081   4.634   2.714  3.6094 -0.1161 -3.3573
  115MOL0     H15460  -0.164   4.182   2.838  0.2489  0.0307 -0.6712
  115MOL0     H15461  -0.177   4.321   2.949 -3.7311 -0.8418  1.0522
  115MOL0     H15462  -0.377   4.242   2.919 -1.2515 -0.6341 -2.3687
  115MOL0     H15463  -0.370   4.400   2.835 -2.0157  0.2002 -3.7050
  115MOL0     H15464  -0.430   4.277   2.630 -4.5449  0.4902  1.2173
  115MOL0     H15465  -0.381   4.123   2.696 -1.9395 -0.1506 -4.8788
  115MOL0     H15466  -0.554   4.113   2.841 -0.8604 -0.8597 -1.6532
  115MOL0     H15467  -0.595   4.280   2.828  0.1619 -0.9199  1.7565
  115MOL0     H15468  -0.762   4.159   2.713  1.9739 -0.9946  3.1050
  115MOL0     H15469  -0.664   4.245   2.595  0.2726  0.3294  0.2483
  115MOL0     H15470  -0.548   3.998   2.563 -1.1312 -0.5917 -3.1742
  115MOL0     H15471  -0.678   3.951   2.662  3.5087  0.2345  0.7210
  115MOL0     H15472  -0.845   4.011   2.516 -0.0868 -1.8328  0.0351
  115MOL0     H15473  -0.741   4.113   2.408  1.8745 -1.3035 -1.0509
  115MOL0     H15474  -0.757   3.824   2.397  0.8278 -0.8676 -2.0021
  115MOL0     H15475  -0.599   3.899   2.376  0.2663 -2.3253  0.9932
  115MOL0     H15476  -0.590   4.104   2.175  0.2946 -1.1383  0.5381
  115MOL0     H15477  -0.653   4.218   1.947 -1.3329  0.9361 -0.2283
  115MOL0     H15478  -0.725   4.088   1.840 -2.0938  2.4892 -1.3288
  115MOL0     H15479  -0.917   4.230   1.990  2.9909 -1.1487  1.5422
  115MOL0     H15480  -0.910   4.128   1.846  2.2097 -1.9335  1.4529
  115MOL0     H15481  -0.956   4.340   1.763 -0.4824  1.6089  2.1584
  115MOL0     H15482  -0.779   4.300   1.729  3.8612 -2.5118  3.6181
  115MOL0     H15483  -0.889   4.485   1.939 -0.2521 -0.3061  1.0698
  115MOL0     H15484  -0.797   4.532   1.795  0.6908 -1.0366 -1.2907
  115MOL0     H15485  -0.574   4.332   1.734  2.6624  1.2094 -4.2445
  115MOL0     H15486  -0.417   4.280   1.595 -1.5479  0.2569 -0.1026
  115MOL0     H15487  -0.318   4.412   1.534 -0.6702 -0.6774  0.5528
  115MOL0     H15488  -0.257   4.298   1.649 -0.1262 -0.9099 -3.2986
  115MOL0     H15489   0.068   4.361   2.058 -0.3735 -1.4838 -2.2329
  115MOL0     H15490   0.300   4.383   2.101  1.2788  1.1261  1.1263
  115MOL0     H15491   0.564   4.723   1.872  1.3607 -0.2504 -0.8635
  115MOL0     H15492   0.455   4.756   2.013  1.1562 -0.7222  1.7144
  115MOL0     H15493   0.699   4.788   2.020 -0.7656  0.8742  0.0303
  115MOL0     H15494   0.606   4.718   2.157 -2.1929 -1.3113 -0.8663
  115MOL0     H15495   0.742   4.542   1.953  1.9675 -1.3661  0.5013
  115MOL0     H15496   0.708   4.504   2.126  2.2080 -0.1900  1.1226
  115MOL0     H15497   0.966   4.551   2.073 -0.3724 -0.3581  3.1544
  115MOL0     H15498   0.918   4.710   2.032 -0.3522  1.2410  0.4294
  115MOL0     H15499   0.864   4.576   2.309  0.2273  2.3199  3.2902
  115MOL0     H15500   0.840   4.740   2.295  0.2352 -1.6478  1.9185
  115MOL0     H15501   1.055   4.683   2.389  1.0540 -0.0942 -0.2710
  115MOL0     H15502   1.121   4.604   2.244 -0.0339  1.0734 -0.9755
  115MOL0     H15503   1.019   4.888   2.263  1.3703  0.1769  0.3838
  115MOL0     H15504   1.116   4.810   2.134  0.2493 -0.2854 -0.2782
  115MOL0     H15505   1.308   4.794   2.242 -0.3377 -1.0009  0.8847
  115MOL0     H15506   1.250   4.846   2.405  1.8614 -0.8486 -0.5292
  115MOL0     H15507   0.333   4.687   1.798 -0.3004  0.9538  1.2919
  115MOL0     H15508   0.082   4.663   1.756  2.1957  1.6511  0.0946
  115MOL0     H15509  -0.294   4.627   2.021  0.5563 -1.0507  0.5076
  115MOL0     H15510  -0.525   4.578   2.077  1.2980 -3.2503  0.8295
  115MOL0     H15511   0.070   4.251   2.840  3.2538  0.1461  0.8684
  115MOL0     H15512   0.278   4.353   2.915  1.8463  1.8788 -0.4600
  115MOL0     H15513   0.553   4.788   2.742  2.3959  0.4029 -1.2136
  115MOL0     H15514   0.724   4.956   2.841 -1.4347 -0.1403 -1.1148
  115MOL0     H15515   0.848   4.911   3.266  0.0645  3.0222 -0.8984
  115MOL0     H15516   0.951   4.798   3.181 -0.1379 -0.0500  0.1656
  115MOL0     H15517   1.111   4.981   3.146  2.0636 -0.4467  2.3854
  115MOL0     H15518   1.071   4.961   3.307  0.8954  1.8652  0.1905
  115MOL0     H15519   0.897   5.152   3.269 -0.9857  2.5006 -2.6818
  115MOL0     H15520   0.960   5.167   3.104 -0.9632  0.0615 -0.3808
  115MOL0     H15521   1.134   5.187   3.353 -2.6317  0.3053  0.7651
  115MOL0     H15522   1.049   5.326   3.283  0.3446  0.3256 -0.1857
  115MOL0     H15523   1.358   5.296   3.013 -0.3936  2.7965  0.1929
  115MOL0     H15524   0.727   4.707   3.204  0.6426 -1.1959 -0.3655
  115MOL0     H15525   0.572   4.564   3.101  3.7676 -1.0253 -0.3901
  116MOL0     O15526   3.453   4.042   0.158  0.6559  0.2547 -0.3974
  116MOL0     C15527   3.385   4.142   0.123 -0.9776  0.1691 -0.9735
  116MOL0     O15528   3.438   4.258   0.072 -0.2616 -0.0052  0.6374
  116MOL0     C15529   3.576   4.280   0.085 -0.2682  0.9393 -0.5674
  116MOL0     C15530   3.637   4.325  -0.026  0.4392 -0.3744  0.6732
  116MOL0     C15531   3.762   4.374  -0.017  0.5551 -0.0208  1.0001
  116MOL0     C15532   3.841   4.374   0.090  0.3112 -0.3303 -0.3419
  116MOL0     O15533   3.964   4.438   0.086  0.0279 -0.5494  0.2259
  116MOL0     C15534   4.048   4.455   0.196 -0.4977  0.3404 -0.5890
  116MOL0     C15535   3.981   4.565   0.294 -0.8833 -0.3649 -0.6674
  116MOL0     C15536   4.075   4.627   0.394 -1.3529 -0.1417 -0.1154
  116MOL0     C15537   4.008   4.706   0.499 -0.3729  0.5779 -0.3333
  116MOL0     C15538   4.114   4.792   0.574  1.5050  0.6315  0.7160
  116MOL0     C15539   4.245   4.726   0.614 -0.7081  0.0656  0.2644
  116MOL0     C15540   4.325   4.807   0.714 -0.1716 -0.0230  0.5819
  116MOL0     C15541   4.360   4.938   0.651 -0.0186 -0.6841 -0.2740
  116MOL0     N15542   4.446   5.005   0.740 -0.2588 -1.0493 -1.0489
  116MOL0     C15543   4.576   4.975   0.774  0.1258  0.2597  0.6917
  116MOL0     C15544   4.599   5.021   0.900 -0.9474 -0.5800 -0.1467
  116MOL0     C15545   4.726   5.010   0.994 -0.4644 -0.1733  0.2178
  116MOL0     C15546   4.830   5.114   0.966 -0.2383 -0.2921 -0.8434
  116MOL0     C15547   4.875   5.194   1.090  0.6093  0.3923 -0.6554
  116MOL0     C15548   4.933   5.333   1.049 -0.1865 -0.4462  0.1377
  116MOL0     O15549   5.056   5.314   0.980 -0.0454  0.5924  0.3432
  116MOL0     C15550   5.158   5.298   1.069  0.4202  0.2798  0.7802
  116MOL0     C15551   5.226   5.414   1.118  0.0090  0.2215 -0.1114
  116MOL0     C15552   5.340   5.402   1.195 -0.1333  0.6262 -0.6153
  116MOL0     C15553   5.398   5.538   1.244  0.2050  0.7557 -0.3623
  116MOL0     C15554   5.390   5.272   1.239 -0.5159  0.2348 -0.0465
  116MOL0     C15555   5.514   5.250   1.326  0.2997  0.8916 -0.0696
  116MOL0     O15556   5.530   5.117   1.372 -0.0545  0.3073 -0.2624
  116MOL0     C15557   5.652   5.082   1.416 -1.1691 -0.1981 -0.8391
  116MOL0     C15558   5.725   4.983   1.346  0.3295  0.2768 -0.8999
  116MOL0     C15559   5.859   4.954   1.383  0.0143 -0.1908  0.2327
  116MOL0     C15560   5.913   5.027   1.488 -0.2306  0.6243 -0.4844
  116MOL0     O15561   6.044   4.996   1.521  0.1506  0.2091 -0.1435
  116MOL0     C15562   6.122   5.076   1.600  0.6909  0.3887 -0.0804
  116MOL0     C15563   6.266   5.024   1.579  0.3772 -0.1412 -0.0883
  116MOL0     C15564   6.358   5.108   1.663  0.5634  0.9841 -1.0543
  116MOL0     C15565   6.502   5.086   1.631  0.4046 -0.6955 -0.0461
  116MOL0     C15566   6.575   5.185   1.710  0.3495  0.4175  0.5908
  116MOL0     C15567   6.722   5.157   1.680 -0.4266 -0.7744 -0.5353
  116MOL0     C15568   6.816   5.256   1.751  0.3623 -0.5019 -0.3445
  116MOL0     C15569   6.940   5.189   1.797  0.2835 -1.5630  0.6517
  116MOL0    Cl15570   7.029   5.300   1.917  0.4561  0.2047  0.3828
  116MOL0     C15571   5.840   5.129   1.555 -0.3304  0.2385 -0.1906
  116MOL0     C15572   5.709   5.147   1.524 -0.4186  0.3223  0.0094
  116MOL0     O15573   5.582   5.348   1.358  0.0519  1.1323 -0.8224
  116MOL0     C15574   5.318   5.161   1.193 -0.3926 -0.1569 -0.6308
  116MOL0     C15575   5.203   5.177   1.112  0.8371 -1.0181 -0.1071
  116MOL0     N15576   4.489   5.093   0.934  0.3412 -0.1911  0.0088
  116MOL0     N15577   4.400   5.078   0.844 -0.6152 -1.0141 -0.2101
  116MOL0     C15578   3.795   4.301   0.205  0.3206  0.0037  0.5499
  116MOL0     C15579   3.660   4.262   0.198  0.9480 -0.0762 -0.3101
  116MOL0     C15580   3.235   4.147   0.142  0.3639  0.7072 -0.1027
  116MOL0     C15581   3.172   4.021   0.158 -0.4462  0.3586 -0.4122
  116MOL0     C15582   3.028   4.017   0.179 -0.1032  0.1896  1.2810
  116MOL0     C15583   2.966   4.141   0.206 -0.0049  0.9476 -0.3695
  116MOL0     O15584   2.828   4.151   0.239  0.4875 -0.2453 -0.0753
  116MOL0     C15585   2.737   4.051   0.201  0.0180  0.8041  0.7280
  116MOL0     C15586   2.598   4.100   0.203  0.7048 -0.2994  1.0569
  116MOL0     C15587   2.560   4.151   0.342 -0.4730 -0.2749 -0.7054
  116MOL0     C15588   2.421   4.227   0.331  0.4135  1.1144  0.0219
  116MOL0     C15589   2.314   4.130   0.285  0.1732 -0.0090 -0.1040
  116MOL0     C15590   2.246   4.039   0.244 -0.4976  0.2947 -0.4494
  116MOL0     C15591   3.037   4.264   0.199  0.7555 -0.2625 -0.5863
  116MOL0     C15592   3.164   4.266   0.151 -0.6242 -0.2934 -0.2232
  116MOL0     H15593   3.593   4.330  -0.125  0.9451 -0.0874  0.4609
  116MOL0     H15594   3.800   4.431  -0.101  0.9649 -2.2518 -0.4220
  116MOL0     H15595   4.066   4.362   0.251 -2.8164  0.8996  1.2755
  116MOL0     H15596   4.143   4.492   0.156 -1.9408  2.3538 -2.4018
  116MOL0     H15597   3.940   4.643   0.231  0.9697 -1.2139 -3.0777
  116MOL0     H15598   3.899   4.513   0.344  1.3041 -1.3827  2.1483
  116MOL0     H15599   4.131   4.552   0.450 -1.6440  0.6705  1.2892
  116MOL0     H15600   4.145   4.686   0.335 -1.2204  1.7544  1.8187
  116MOL0     H15601   3.941   4.780   0.453  0.3135  2.2406  1.2376
  116MOL0     H15602   3.959   4.637   0.568 -0.5404 -0.1403 -1.1507
  116MOL0     H15603   4.125   4.882   0.513  0.1501  1.2673  1.3561
  116MOL0     H15604   4.067   4.817   0.670 -0.7401  0.3568 -0.2459
  116MOL0     H15605   4.220   4.630   0.662  1.6149 -2.1001 -2.5253
  116MOL0     H15606   4.307   4.691   0.531 -0.6069 -0.9185  0.7357
  116MOL0     H15607   4.281   4.812   0.814 -0.5298 -0.6473  0.4629
  116MOL0     H15608   4.419   4.756   0.738  0.3065  0.4007 -0.3414
  116MOL0     H15609   4.275   5.006   0.636  0.8595  0.9642  1.7444
  116MOL0     H15610   4.412   4.911   0.559 -1.3609  0.1000 -1.3112
  116MOL0     H15611   4.652   4.910   0.731  2.4858  2.6379  0.9775
  116MOL0     H15612   4.672   5.029   1.088 -0.7588 -4.0862  1.0185
  116MOL0     H15613   4.748   4.903   1.001  0.3449 -0.0138  0.2835
  116MOL0     H15614   4.778   5.187   0.903 -1.5300  0.5639  1.1352
  116MOL0     H15615   4.913   5.060   0.920 -2.4608 -3.1037 -1.8571
  116MOL0     H15616   4.939   5.130   1.152 -2.4360 -0.1203  2.2577
  116MOL0     H15617   4.791   5.211   1.158  1.6179 -2.6054  1.5314
  116MOL0     H15618   4.939   5.392   1.141 -2.0246  1.9229 -1.1617
  116MOL0     H15619   4.872   5.391   0.979  0.6059 -1.2862 -1.3108
  116MOL0     H15620   5.188   5.511   1.086  0.6526  1.3019  2.2135
  116MOL0     H15621   5.312   5.604   1.256 -2.8456 -2.6256 -1.6297
  116MOL0     H15622   5.456   5.543   1.336  0.0965  0.1573 -0.2530
  116MOL0     H15623   5.455   5.577   1.159 -2.7263  3.2262 -1.3546
  116MOL0     H15624   5.676   4.944   1.257 -0.7269  1.8088 -1.0412
  116MOL0     H15625   5.927   4.890   1.327  0.4075  2.7277 -2.9394
  116MOL0     H15626   6.112   5.178   1.562  2.0115  0.7244  0.4133
  116MOL0     H15627   6.089   5.076   1.704  2.0426 -0.0278  0.3736
  116MOL0     H15628   6.266   4.915   1.581  0.5778 -0.1371  1.2031
  116MOL0     H15629   6.290   5.040   1.474 -1.8163 -2.9139 -1.1187
  116MOL0     H15630   6.350   5.080   1.768  1.1207  0.0853 -1.2396
  116MOL0     H15631   6.328   5.212   1.647  1.9744  1.6980  0.6050
  116MOL0     H15632   6.531   4.992   1.678  0.0884  1.1908  4.4672
  116MOL0     H15633   6.510   5.090   1.522  1.3489  1.1444  0.0521
  116MOL0     H15634   6.549   5.169   1.816 -4.1352 -1.8441 -0.6000
  116MOL0     H15635   6.552   5.289   1.686  3.2059  0.9862 -0.0790
  116MOL0     H15636   6.756   5.055   1.699  6.2972  0.6103 -2.3608
  116MOL0     H15637   6.734   5.171   1.572 -4.1749  1.6805 -0.8152
  116MOL0     H15638   6.766   5.306   1.834  0.1126 -0.3793 -0.5673
  116MOL0     H15639   6.847   5.333   1.680  0.1977  0.6853  0.8329
  116MOL0     H15640   7.005   5.164   1.712  1.8023 -1.2870  1.6955
  116MOL0     H15641   6.911   5.095   1.844 -3.0448  0.1021  2.2900
  116MOL0     H15642   5.902   5.186   1.623 -0.4289 -0.8130  0.8168
  116MOL0     H15643   5.655   5.228   1.572 -1.2654  0.3652 -0.9881
  116MOL0     H15644   5.344   5.060   1.224 -1.0581  0.2462  1.3711
  116MOL0     H15645   5.145   5.094   1.075 -0.0357 -1.4973  2.1803
  116MOL0     H15646   3.843   4.283   0.301 -2.8057 -2.2225  1.8546
  116MOL0     H15647   3.603   4.225   0.283 -0.2721  0.9272 -0.6530
  116MOL0     H15648   3.223   3.925   0.153 -1.1702 -0.0293 -0.4393
  116MOL0     H15649   2.986   3.917   0.186  2.0944 -0.8423  0.6470
  116MOL0     H15650   2.748   4.015   0.099 -0.0039 -0.4846  1.1694
  116MOL0     H15651   2.750   3.981   0.284 -1.7556  2.4244  2.4774
  116MOL0     H15652   2.527   4.025   0.166 -1.9719  1.3918  2.4201
  116MOL0     H15653   2.592   4.184   0.133 -1.1722 -1.3355 -0.1271
  116MOL0     H15654   2.637   4.223   0.371  0.8275 -1.9147  0.0540
  116MOL0     H15655   2.564   4.070   0.416 -1.2450  2.2447  2.3415
  116MOL0     H15656   2.424   4.311   0.261  0.5525  0.6113 -0.5809
  116MOL0     H15657   2.382   4.271   0.424  0.5105 -0.7441  0.9997
  116MOL0     H15658   2.184   3.966   0.195  2.6957 -4.0381  1.2771
  116MOL0     H15659   2.989   4.356   0.231  1.5568  0.5505 -1.6788
  116MOL0     H15660   3.211   4.361   0.125 -0.6382  0.0734  1.0160
  117MOL0     O15661   9.409   9.589   2.165  0.1989 -0.5080  1.2316
  117MOL0     C15662   9.518   9.553   2.124  0.9147 -0.5470  0.6632
  117MOL0     O15663   9.545   9.430   2.087  0.2428 -0.2935  0.2229
  117MOL0     C15664   9.444   9.335   2.093 -0.2085  0.4023  0.4475
  117MOL0     C15665   9.369   9.292   1.983 -0.1281 -0.8631  0.5600
  117MOL0     C15666   9.258   9.198   1.993 -0.4531  0.1295 -0.5746
  117MOL0     C15667   9.239   9.138   2.114 -0.2000  0.4071 -0.5023
  117MOL0     O15668   9.129   9.042   2.127 -0.0139  0.2254 -0.2599
  117MOL0     C15669   9.137   8.917   2.204  0.4127 -0.5592 -0.5982
  117MOL0     C15670   9.205   8.800   2.140  0.1676 -0.6122  0.2887
  117MOL0     C15671   9.226   8.683   2.233  1.2654 -0.0139  0.1311
  117MOL0     C15672   9.092   8.603   2.261 -0.3470  0.3331 -0.1381
  117MOL0     C15673   9.116   8.482   2.356 -0.4346 -0.8266 -0.1751
  117MOL0     C15674   9.202   8.379   2.285 -0.0078  0.3374 -0.7314
  117MOL0     C15675   9.241   8.264   2.382  0.1166 -0.3361 -0.3355
  117MOL0     C15676   9.365   8.197   2.328 -0.7060  0.7127  0.6471
  117MOL0     N15677   9.390   8.064   2.380 -0.7851  0.3959  0.0389
  117MOL0     C15678   9.434   7.950   2.306  0.2652 -0.5175 -0.2542
  117MOL0     C15679   9.450   7.854   2.405 -0.9366 -0.0593 -0.5209
  117MOL0     C15680   9.498   7.716   2.387 -0.9207  0.0274 -0.6877
  117MOL0     C15681   9.388   7.613   2.385 -0.0453  0.1697 -0.3203
  117MOL0     C15682   9.428   7.475   2.347 -0.0200  0.4230 -0.0341
  117MOL0     C15683   9.488   7.400   2.467  0.2293  0.6692 -0.3676
  117MOL0     O15684   9.553   7.282   2.424 -0.0919  0.3950  0.0944
  117MOL0     C15685   9.612   7.188   2.507  0.8366  0.2175 -0.5100
  117MOL0     C15686   9.662   7.066   2.454  0.6077 -0.4586 -0.2926
  117MOL0     C15687   9.717   6.973   2.533 -0.4448 -0.4751  0.1180
  117MOL0     C15688   9.805   6.868   2.457 -0.7930 -0.4773  0.0801
  117MOL0     C15689   9.696   6.976   2.673 -0.1715  0.0827 -0.0180
  117MOL0     C15690   9.724   6.865   2.771  0.0082  0.0359 -0.1613
  117MOL0     O15691   9.664   6.869   2.899  0.3451 -0.0913  0.1895
  117MOL0     C15692   9.683   6.773   2.992  0.6848 -0.5191 -0.3983
  117MOL0     C15693   9.573   6.754   3.081 -0.2866  0.9413 -1.5737
  117MOL0     C15694   9.595   6.668   3.193  0.1465  0.0111  0.4534
  117MOL0     C15695   9.722   6.602   3.210 -0.3578  0.3810  0.4279
  117MOL0     O15696   9.743   6.510   3.307  0.1855  0.5908  0.7362
  117MOL0     C15697   9.793   6.379   3.263 -0.1881  0.1007  0.5327
  117MOL0     C15698   9.834   6.300   3.393 -0.0684 -0.1859 -0.2836
  117MOL0     C15699   9.957   6.374   3.466 -0.0863 -0.7391  0.5864
  117MOL0     C15700  10.020   6.279   3.568  0.3410  0.3022 -1.0673
  117MOL0     C15701  10.123   6.180   3.515 -0.4225  0.0168 -0.2372
  117MOL0     C15702  10.152   6.070   3.612 -0.9342 -0.9052  0.2124
  117MOL0     C15703  10.193   6.105   3.754  0.4145  0.1310  0.2540
  117MOL0     C15704  10.264   5.990   3.838 -0.6433 -0.9503  0.0691
  117MOL0    Cl15705  10.176   5.838   3.816 -0.1385  0.0351 -0.5507
  117MOL0     C15706   9.825   6.622   3.117  0.3071  0.5496  0.3186
  117MOL0     C15707   9.809   6.711   3.007  0.0186 -0.3423 -0.5104
  117MOL0     O15708   9.794   6.771   2.733 -0.0756 -0.4228 -0.0116
  117MOL0     C15709   9.646   7.100   2.730  0.4107 -0.9137  0.0302
  117MOL0     C15710   9.607   7.201   2.640  0.2457  0.5610 -0.3517
  117MOL0     N15711   9.414   7.910   2.529 -0.2273 -0.0911  0.1397
  117MOL0     N15712   9.383   8.032   2.515 -0.5966 -0.2782  0.0659
  117MOL0     C15713   9.328   9.157   2.216 -0.3501 -0.5231 -0.5476
  117MOL0     C15714   9.426   9.259   2.204 -0.5183 -0.1957  0.0371
  117MOL0     C15715   9.628   9.651   2.115  0.7858  0.0116 -0.1414
  117MOL0     C15716   9.747   9.617   2.048 -0.2524 -0.1868 -0.7291
  117MOL0     C15717   9.850   9.711   2.037  0.0784 -0.3038 -0.7830
  117MOL0     C15718   9.841   9.849   2.086 -0.0074  1.5356  0.4000
  117MOL0     O15719   9.929   9.939   2.050 -0.1383 -0.4854  0.2411
  117MOL0     C15720   9.930  10.078   2.095 -0.5971  0.0148  0.8179
  117MOL0     C15721   9.970  10.085   2.242  0.2871  0.4261  0.2128
  117MOL0     C15722   9.952  10.213   2.309  0.8240 -0.6652 -0.0583
  117MOL0     C15723   9.979  10.206   2.461 -0.1539 -0.8230 -0.1229
  117MOL0     C15724   9.964  10.345   2.506  0.0491  0.6931  1.4882
  117MOL0     C15725   9.963  10.464   2.529 -0.8022  0.4779  0.3513
  117MOL0     C15726   9.731   9.875   2.166 -0.3072 -0.3891 -0.4583
  117MOL0     C15727   9.633   9.776   2.182  0.6701 -0.2774  0.7399
  117MOL0     H15728   9.398   9.342   1.891  2.6353 -2.0057  0.7278
  117MOL0     H15729   9.198   9.181   1.904  1.0057  0.6808 -1.7153
  117MOL0     H15730   9.183   8.937   2.301  0.9237 -1.3652 -0.6640
  117MOL0     H15731   9.037   8.883   2.231  1.0054 -0.1077  2.6243
  117MOL0     H15732   9.148   8.767   2.053 -1.8252  1.5036  0.6980
  117MOL0     H15733   9.302   8.836   2.104  0.3564 -1.3032  0.0896
  117MOL0     H15734   9.292   8.617   2.176  1.6782 -0.9170  1.6050
  117MOL0     H15735   9.269   8.714   2.329 -2.3951 -1.5632  2.4789
  117MOL0     H15736   9.026   8.669   2.318  0.0625 -0.3961  1.2221
  117MOL0     H15737   9.041   8.563   2.172 -3.5165  1.5938  0.9630
  117MOL0     H15738   9.169   8.522   2.443 -2.7005  3.5816 -0.4978
  117MOL0     H15739   9.021   8.439   2.386 -1.0249 -0.2913 -1.2161
  117MOL0     H15740   9.149   8.336   2.200  0.5715 -2.8046  0.3695
  117MOL0     H15741   9.288   8.433   2.244  0.9342 -0.0454  0.6738
  117MOL0     H15742   9.263   8.310   2.478 -0.7880 -0.0479 -0.2538
  117MOL0     H15743   9.149   8.205   2.392 -0.8508  1.3580  1.2356
  117MOL0     H15744   9.449   8.264   2.346 -0.0210  0.8243 -2.3420
  117MOL0     H15745   9.351   8.191   2.219 -0.2077 -0.9977  0.6432
  117MOL0     H15746   9.460   7.942   2.200 -1.4469 -0.1294 -0.7279
  117MOL0     H15747   9.555   7.709   2.293 -1.5669  1.2426 -1.1966
  117MOL0     H15748   9.561   7.683   2.470 -1.0873 -0.1016 -0.6137
  117MOL0     H15749   9.324   7.659   2.310  1.1024  0.4076 -1.1884
  117MOL0     H15750   9.334   7.610   2.481 -0.2809 -0.2859 -0.4634
  117MOL0     H15751   9.505   7.479   2.269  1.0872  0.1163  1.0088
  117MOL0     H15752   9.343   7.418   2.308 -1.6873  0.6587  2.9696
  117MOL0     H15753   9.414   7.362   2.537  1.1703  1.9017  1.3997
  117MOL0     H15754   9.548   7.468   2.529  1.0938  1.1618 -1.7084
  117MOL0     H15755   9.672   7.057   2.346  2.3302  1.9672 -0.4174
  117MOL0     H15756   9.909   6.869   2.492  0.8130  0.9184 -4.0374
  117MOL0     H15757   9.758   6.772   2.478 -2.6766 -0.2590 -2.5535
  117MOL0     H15758   9.816   6.885   2.349 -1.3280 -0.0380  0.0916
  117MOL0     H15759   9.483   6.808   3.053 -3.9486 -4.5372 -1.9343
  117MOL0     H15760   9.523   6.653   3.273  1.8681  2.1224  2.5787
  117MOL0     H15761   9.717   6.326   3.204 -4.5241  1.4512  4.3336
  117MOL0     H15762   9.886   6.393   3.207  0.9352  1.0379  2.5199
  117MOL0     H15763   9.742   6.294   3.452 -0.0879 -2.2857 -0.4546
  117MOL0     H15764   9.877   6.201   3.379  1.5323  0.4562 -0.1625
  117MOL0     H15765   9.921   6.458   3.525  1.2034  0.1517  0.1351
  117MOL0     H15766  10.025   6.417   3.393 -1.4406  0.6874  0.1187
  117MOL0     H15767  10.062   6.328   3.656 -2.2820 -0.8572  0.9642
  117MOL0     H15768   9.937   6.219   3.605  0.6681 -1.9411 -3.6509
  117MOL0     H15769  10.209   6.236   3.476 -0.3438 -1.3327 -2.1217
  117MOL0     H15770  10.074   6.127   3.434  0.3014 -2.8275  1.0510
  117MOL0     H15771  10.066   6.002   3.607 -1.9526  0.4250 -1.4122
  117MOL0     H15772  10.237   6.025   3.560 -0.5869  1.6962 -1.6720
  117MOL0     H15773  10.110   6.141   3.816 -0.4174 -0.3086 -0.5788
  117MOL0     H15774  10.256   6.194   3.753  1.0129 -0.2444 -2.5388
  117MOL0     H15775  10.262   6.022   3.943  1.3701  2.4325 -0.7906
  117MOL0     H15776  10.367   5.961   3.815  0.6921  1.7241  2.0638
  117MOL0     H15777   9.924   6.577   3.119 -0.1386 -0.5581 -1.1155
  117MOL0     H15778   9.898   6.727   2.946  0.7473  0.4267  0.7120
  117MOL0     H15779   9.646   7.109   2.838  0.9721  0.3219 -0.0495
  117MOL0     H15780   9.560   7.287   2.687  0.6144  1.4528 -1.5572
  117MOL0     H15781   9.324   9.109   2.313  1.0619  1.3665  0.5323
  117MOL0     H15782   9.494   9.292   2.282 -0.4660  2.6967 -1.1001
  117MOL0     H15783   9.762   9.514   2.015  0.6885 -0.1379 -0.4666
  117MOL0     H15784   9.931   9.672   1.975 -0.2325  0.5475 -1.7501
  117MOL0     H15785  10.008  10.122   2.032  0.6413 -5.7562 -2.3781
  117MOL0     H15786   9.834  10.121   2.066 -0.1242  0.2817 -0.4422
  117MOL0     H15787  10.075  10.061   2.256 -0.1052  0.3999  4.8228
  117MOL0     H15788   9.922  10.017   2.314  0.0098  1.8132  1.3852
  117MOL0     H15789   9.853  10.259   2.298  0.3871 -1.3339  0.9147
  117MOL0     H15790  10.017  10.284   2.258 -1.1916  1.3745  0.0359
  117MOL0     H15791  10.077  10.173   2.497 -0.7499 -0.5726  1.8311
  117MOL0     H15792   9.901  10.140   2.499  0.3936 -3.0805 -2.6236
  117MOL0     H15793   9.958  10.571   2.533 -0.9057  0.4497  1.4733
  117MOL0     H15794   9.740   9.971   2.215  4.5277  0.2379 -2.0189
  117MOL0     H15795   9.548   9.789   2.248  1.8478 -0.1904  2.2830
  118MOL0     O15796   5.528   1.421   6.921  0.1882 -0.6029 -0.2093
  118MOL0     C15797   5.587   1.317   6.902  0.6547 -0.3397  0.7009
  118MOL0     O15798   5.713   1.286   6.946 -0.4571 -0.3191 -0.0044
  118MOL0     C15799   5.775   1.398   6.993  0.5262 -0.5020 -0.6724
  118MOL0     C15800   5.857   1.471   6.912  0.4309  0.8570 -0.4481
  118MOL0     C15801   5.934   1.576   6.958  0.5693  0.5389 -0.7929
  118MOL0     C15802   5.934   1.597   7.095 -0.0972 -0.1341  0.8917
  118MOL0     O15803   6.008   1.705   7.117  0.6723 -0.3945 -0.1656
  118MOL0     C15804   6.033   1.736   7.253  0.1553 -0.4984  0.0023
  118MOL0     C15805   6.136   1.853   7.256  0.6292  0.4434  0.1297
  118MOL0     C15806   6.079   1.973   7.168  1.0506 -0.0203  0.2160
  118MOL0     C15807   6.161   2.102   7.180  0.1811 -0.1186 -0.5145
  118MOL0     C15808   6.109   2.216   7.101  0.5648 -1.1461 -0.4650
  118MOL0     C15809   5.967   2.263   7.150  1.1715 -0.6071  0.5943
  118MOL0     C15810   5.945   2.414   7.131  0.4993 -0.5595 -0.8778
  118MOL0     C15811   5.906   2.439   6.987 -0.6994  0.0736 -0.5028
  118MOL0     N15812   5.954   2.566   6.929  0.1782  0.2654 -0.0871
  118MOL0     C15813   5.893   2.682   6.966 -0.7181  0.0608 -0.2079
  118MOL0     C15814   5.918   2.764   6.869 -0.4836  0.6717 -0.0721
  118MOL0     C15815   5.879   2.908   6.876 -0.1270  0.1644 -0.0657
  118MOL0     C15816   5.974   2.990   6.960 -0.0658 -0.0585  0.5604
  118MOL0     C15817   6.119   2.990   6.910 -0.3519  0.0078  0.1817
  118MOL0     C15818   6.194   3.087   6.996  0.5149  0.6239 -0.0963
  118MOL0     O15819   6.219   3.042   7.132 -0.5892 -0.0618 -0.2832
  118MOL0     C15820   6.174   3.126   7.231 -1.1582 -0.1282 -0.4246
  118MOL0     C15821   6.188   3.266   7.228  0.2354 -0.4077 -0.8657
  118MOL0     C15822   6.119   3.349   7.321  0.2424 -0.2816  0.2115
  118MOL0     C15823   6.119   3.490   7.290  0.0757 -0.9314  1.9032
  118MOL0     C15824   6.072   3.302   7.440  0.1509  0.0204 -0.3196
  118MOL0     C15825   6.018   3.373   7.560  0.3630 -0.0642 -0.8243
  118MOL0     O15826   5.972   3.500   7.533 -0.2173  0.4719  0.2781
  118MOL0     C15827   5.908   3.567   7.632  0.2797 -0.1871 -0.1702
  118MOL0     C15828   5.791   3.520   7.705 -0.5449  0.5043  0.0352
  118MOL0     C15829   5.708   3.602   7.780 -0.5745 -0.8552  0.4189
  118MOL0     C15830   5.742   3.739   7.797  0.2859 -0.4066  0.4811
  118MOL0     O15831   5.658   3.808   7.882 -0.1389 -0.5408 -0.0235
  118MOL0     C15832   5.673   3.954   7.891  0.8476  0.2284 -0.0145
  118MOL0     C15833   5.615   4.034   7.771  0.2386  0.7781  0.6790
  118MOL0     C15834   5.469   4.005   7.751  0.9709 -0.5240  0.3628
  118MOL0     C15835   5.394   4.101   7.657 -0.3493  1.1309 -0.1615
  118MOL0     C15836   5.242   4.051   7.653 -0.3023 -0.5478 -0.1853
  118MOL0     C15837   5.161   4.173   7.602 -0.4072 -0.5672  0.2564
  118MOL0     C15838   5.205   4.230   7.473  0.2289 -0.4707 -0.2314
  118MOL0     C15839   5.088   4.309   7.404  0.6910  0.3700 -0.4404
  118MOL0    Cl15840   5.122   4.292   7.235  0.5913 -0.4295 -0.2851
  118MOL0     C15841   5.853   3.788   7.730 -0.2891  0.2063  0.4434
  118MOL0     C15842   5.932   3.702   7.645 -1.0815 -0.6794 -0.5669
  118MOL0     O15843   6.007   3.314   7.667 -0.3732  0.0855 -0.6478
  118MOL0     C15844   6.084   3.160   7.455  1.2516 -0.4841 -0.2369
  118MOL0     C15845   6.127   3.071   7.347 -0.1540 -0.8059 -0.9300
  118MOL0     N15846   5.986   2.703   6.763  0.2781  0.4314  0.0647
  118MOL0     N15847   5.998   2.582   6.796  0.0684  0.5529 -0.5764
  118MOL0     C15848   5.847   1.535   7.185  0.8362 -0.7813  0.2858
  118MOL0     C15849   5.758   1.441   7.130  0.5010  0.1375 -0.5070
  118MOL0     C15850   5.510   1.198   6.840 -0.5346 -0.7860 -0.8682
  118MOL0     C15851   5.384   1.235   6.777 -0.2577 -0.0365  0.4944
  118MOL0     C15852   5.311   1.132   6.723  0.6498  0.2324  0.7765
  118MOL0     C15853   5.353   0.997   6.731 -0.5584  0.5588  0.5380
  118MOL0     O15854   5.266   0.893   6.692  0.3205 -0.0840  0.0846
  118MOL0     C15855   5.320   0.766   6.651 -0.4575  0.2641  0.1667
  118MOL0     C15856   5.222   0.678   6.564  0.5294 -0.3597  0.2849
  118MOL0     C15857   5.103   0.632   6.663 -0.3479  0.2639  0.5101
  118MOL0     C15858   4.981   0.591   6.573  0.0133  0.5308 -0.0056
  118MOL0     C15859   4.996   0.453   6.509 -0.4700 -0.4220 -0.3666
  118MOL0     C15860   5.014   0.336   6.469  0.5027 -0.3997  0.8070
  118MOL0     C15861   5.484   0.969   6.783  0.0028  0.6246  0.2018
  118MOL0     C15862   5.564   1.068   6.841  0.3266 -0.5520 -0.5920
  118MOL0     H15863   5.852   1.447   6.806  2.7670 -0.4638 -0.3322
  118MOL0     H15864   6.005   1.627   6.894  3.5401 -1.0638  1.0175
  118MOL0     H15865   5.943   1.779   7.299 -0.2297 -1.9515  0.6712
  118MOL0     H15866   6.069   1.651   7.313 -0.8521 -1.1693 -0.3188
  118MOL0     H15867   6.167   1.901   7.350 -1.2440 -0.4527  1.2510
  118MOL0     H15868   6.225   1.807   7.211  0.8425  1.0743 -0.1120
  118MOL0     H15869   6.084   1.942   7.063  0.2074 -2.3508  0.7913
  118MOL0     H15870   5.975   1.981   7.199  0.4369  0.0541 -1.7086
  118MOL0     H15871   6.161   2.139   7.283  2.0771  1.3527 -0.9993
  118MOL0     H15872   6.265   2.082   7.154  0.6317 -1.4240  1.9929
  118MOL0     H15873   6.180   2.299   7.105  1.4738 -1.8795 -0.9198
  118MOL0     H15874   6.105   2.199   6.993 -4.6874  3.9955 -1.5952
  118MOL0     H15875   5.901   2.196   7.094 -2.2615 -0.3989  3.9639
  118MOL0     H15876   5.944   2.231   7.252  1.4200  0.0021  0.8511
  118MOL0     H15877   5.877   2.470   7.196  0.7789  0.1370 -1.1786
  118MOL0     H15878   6.039   2.467   7.153 -1.4407  2.6807  0.2445
  118MOL0     H15879   5.797   2.439   6.979 -0.8299  2.6084  0.1525
  118MOL0     H15880   5.938   2.360   6.918 -1.8635 -1.2304  0.4172
  118MOL0     H15881   5.862   2.721   7.063  2.2167  1.8094  0.1535
  118MOL0     H15882   5.868   2.953   6.777  0.2277  0.7886  0.1722
  118MOL0     H15883   5.786   2.917   6.932  1.8304  1.1299  3.2884
  118MOL0     H15884   5.971   2.969   7.067 -1.2875  6.3381  2.1924
  118MOL0     H15885   5.926   3.089   6.959  0.4102  0.2305  2.5082
  118MOL0     H15886   6.125   3.010   6.803  1.7377 -2.0564 -0.1788
  118MOL0     H15887   6.151   2.886   6.924 -1.8959 -0.9276 -2.5139
  118MOL0     H15888   6.138   3.181   6.994 -0.9886 -0.2520 -0.8329
  118MOL0     H15889   6.293   3.111   6.957  1.1956 -1.1527  0.4407
  118MOL0     H15890   6.242   3.322   7.152  0.8691  0.8478  0.4758
  118MOL0     H15891   6.165   3.541   7.374  1.2150 -0.1387  0.8325
  118MOL0     H15892   6.192   3.512   7.212 -0.0909  0.1986  2.0609
  118MOL0     H15893   6.018   3.528   7.270 -0.0630 -2.5913 -1.3501
  118MOL0     H15894   5.751   3.420   7.690  1.2894  0.0343 -2.2488
  118MOL0     H15895   5.611   3.558   7.804 -0.6732 -2.0527 -1.9147
  118MOL0     H15896   5.626   3.987   7.984  4.8710  1.4771  1.8004
  118MOL0     H15897   5.778   3.985   7.898  0.5673  1.0011  0.9283
  118MOL0     H15898   5.648   4.136   7.791 -0.2412  0.6040  2.6034
  118MOL0     H15899   5.664   4.000   7.679 -1.3288 -0.5791  0.2996
  118MOL0     H15900   5.419   4.013   7.848  0.7267  2.0964  0.0874
  118MOL0     H15901   5.448   3.908   7.706 -2.7181  0.5121 -0.5356
  118MOL0     H15902   5.408   4.196   7.709  1.6721  0.3303  0.8826
  118MOL0     H15903   5.435   4.101   7.555  0.5256 -1.9389  0.0876
  118MOL0     H15904   5.205   4.012   7.748 -2.3395  0.7692 -0.3804
  118MOL0     H15905   5.239   3.974   7.576  0.2961  0.1986 -0.9803
  118MOL0     H15906   5.053   4.157   7.606 -0.0069 -3.4975  2.0652
  118MOL0     H15907   5.176   4.251   7.678  2.5302 -0.6651 -0.1172
  118MOL0     H15908   5.225   4.147   7.406 -2.0471 -1.7001  0.4952
  118MOL0     H15909   5.290   4.298   7.480 -0.5957  0.8236 -1.9933
  118MOL0     H15910   5.077   4.411   7.441  1.5003  0.8835 -1.5327
  118MOL0     H15911   4.989   4.263   7.411 -0.2744  2.2428 -1.1590
  118MOL0     H15912   5.861   3.896   7.737 -3.5789  0.6447 -0.8169
  118MOL0     H15913   6.020   3.731   7.587 -0.4150 -2.1450 -0.3345
  118MOL0     H15914   6.043   3.111   7.543 -1.6336 -0.0869 -1.2335
  118MOL0     H15915   6.124   2.963   7.346  0.9388 -0.8907 -3.7002
  118MOL0     H15916   5.859   1.551   7.291  0.9137 -0.3437  0.2103
  118MOL0     H15917   5.698   1.394   7.207  3.2231 -2.4292  0.2348
  118MOL0     H15918   5.348   1.338   6.775 -0.2583 -0.0336  0.6226
  118MOL0     H15919   5.210   1.152   6.689  1.0717 -0.5082 -1.0011
  118MOL0     H15920   5.417   0.773   6.601 -0.1776  0.2015  0.6941
  118MOL0     H15921   5.349   0.702   6.735  0.8137 -2.0286 -1.8463
  118MOL0     H15922   5.276   0.589   6.531  1.5464  0.4756 -0.3445
  118MOL0     H15923   5.194   0.734   6.474  0.3217  0.9434  1.1481
  118MOL0     H15924   5.081   0.712   6.734  0.8204 -3.4080  5.5457
  118MOL0     H15925   5.127   0.547   6.727 -0.8386 -1.0962 -1.0406
  118MOL0     H15926   4.963   0.656   6.486  2.7319 -1.2776 -2.0915
  118MOL0     H15927   4.897   0.585   6.643  0.1574  1.2167  0.2346
  118MOL0     H15928   5.031   0.251   6.406 -1.1744  1.2197 -2.0090
  118MOL0     H15929   5.523   0.869   6.797  0.4675  0.7404 -0.2320
  118MOL0     H15930   5.651   1.043   6.902 -0.7138 -1.5958  0.5178
  119MOL0     O15931   6.719   4.228  10.754  0.8907 -0.4807 -0.5014
  119MOL0     C15932   6.612   4.277  10.794  0.0916  0.5092  0.3734
  119MOL0     O15933   6.566   4.267  10.924 -0.1284 -0.6674  0.1619
  119MOL0     C15934   6.632   4.176  11.003 -0.5334 -0.0881  0.2408
  119MOL0     C15935   6.720   4.206  11.110  1.0633 -0.4305  0.5346
  119MOL0     C15936   6.790   4.109  11.182  0.0174  0.2129  0.4471
  119MOL0     C15937   6.778   3.972  11.142  0.0883 -0.8878 -0.8584
  119MOL0     O15938   6.864   3.880  11.202 -0.0067 -0.5670 -0.2718
  119MOL0     C15939   6.831   3.735  11.179 -0.1074  0.3388  0.5391
  119MOL0     C15940   6.931   3.660  11.272 -0.1704 -0.3446  0.2741
  119MOL0     C15941   7.075   3.674  11.225 -0.6051 -0.3106 -0.2748
  119MOL0     C15942   7.167   3.582  11.310 -0.4176 -0.5567 -0.7546
  119MOL0     C15943   7.309   3.587  11.263  0.5774  1.6410 -0.8033
  119MOL0     C15944   7.394   3.495  11.357 -0.5273 -0.3569 -0.1553
  119MOL0     C15945   7.539   3.513  11.322  0.1206  0.1864 -0.5080
  119MOL0     C15946   7.590   3.422  11.214 -0.1789  0.6635 -0.0684
  119MOL0     N15947   7.532   3.437  11.079  0.5719 -0.1694 -0.5600
  119MOL0     C15948   7.549   3.334  10.993 -0.9659 -0.2957  0.2463
  119MOL0     C15949   7.539   3.385  10.867  0.5610  1.1493 -0.1449
  119MOL0     C15950   7.571   3.302  10.754 -0.2293  0.2557 -0.1932
  119MOL0     C15951   7.456   3.213  10.710  0.1823 -0.2101  0.7995
  119MOL0     C15952   7.345   3.299  10.649  0.4140 -1.6280 -0.0857
  119MOL0     C15953   7.370   3.294  10.490 -0.3858  0.2792 -0.5635
  119MOL0     O15954   7.242   3.315  10.435  0.9725  0.5323  0.1874
  119MOL0     C15955   7.213   3.431  10.356  0.1652  0.6772  0.7510
  119MOL0     C15956   7.097   3.511  10.374  0.6186 -0.3026 -0.2695
  119MOL0     C15957   7.060   3.609  10.285 -0.4951 -0.8616 -0.2401
  119MOL0     C15958   6.945   3.693  10.320 -0.2043  0.4789 -0.0719
  119MOL0     C15959   7.137   3.624  10.169  0.2988  0.2139 -0.2309
  119MOL0     C15960   7.121   3.718  10.055  0.6066  1.0382  0.6231
  119MOL0     O15961   7.187   3.692   9.942 -0.1697  0.3689  0.2749
  119MOL0     C15962   7.189   3.770   9.827 -0.0263 -0.0876  0.4535
  119MOL0     C15963   7.315   3.786   9.768  0.6087  0.0523 -0.3496
  119MOL0     C15964   7.319   3.848   9.641 -0.6290  0.3633  0.1680
  119MOL0     C15965   7.214   3.917   9.579  0.8365  0.1209 -0.5865
  119MOL0     O15966   7.244   3.968   9.458  0.1553  0.1389  0.3165
  119MOL0     C15967   7.133   4.037   9.395 -0.5800 -0.4992 -0.3210
  119MOL0     C15968   7.167   4.094   9.258 -0.6033 -0.2398  0.4007
  119MOL0     C15969   7.053   4.177   9.191 -0.2930  0.0979 -0.1132
  119MOL0     C15970   6.922   4.102   9.205 -0.1850  0.0067 -0.0767
  119MOL0     C15971   6.822   4.126   9.101 -0.6594  0.7349 -0.4736
  119MOL0     C15972   6.736   4.254   9.134  0.5638  0.7938  0.1164
  119MOL0     C15973   6.820   4.380   9.156  0.2489  0.2748 -0.3645
  119MOL0     C15974   6.732   4.506   9.172 -0.3683 -0.1673 -0.1130
  119MOL0    Cl15975   6.827   4.652   9.226  0.4617  0.0613 -0.0356
  119MOL0     C15976   7.089   3.891   9.639  0.1204  0.5035  0.3774
  119MOL0     C15977   7.079   3.808   9.761 -0.1692  0.0320 -0.1140
  119MOL0     O15978   7.029   3.804  10.065 -0.8061  0.4246  0.1076
  119MOL0     C15979   7.256   3.551  10.157  0.0558  0.5130  0.2335
  119MOL0     C15980   7.291   3.442  10.243  0.8972 -0.6375  0.5260
  119MOL0     N15981   7.526   3.516  10.872  0.4768 -0.2675  0.7828
  119MOL0     N15982   7.543   3.544  10.995  0.1969  0.2107  0.2946
  119MOL0     C15983   6.677   3.942  11.052 -0.5799 -0.6394  0.1511
  119MOL0     C15984   6.600   4.043  10.990 -0.1228 -0.0151  0.7645
  119MOL0     C15985   6.527   4.349  10.699 -0.5157  0.4771 -0.4917
  119MOL0     C15986   6.398   4.395  10.733  0.6077 -1.0234  0.1838
  119MOL0     C15987   6.327   4.475  10.637  0.5200  0.0848 -0.2286
  119MOL0     C15988   6.389   4.514  10.519 -0.2105 -0.7550  0.2070
  119MOL0     O15989   6.320   4.587  10.418  0.2578  0.4846 -0.3746
  119MOL0     C15990   6.322   4.722  10.448 -0.7687  0.1432  1.2220
  119MOL0     C15991   6.193   4.797  10.420 -0.3907 -1.1080  0.1843
  119MOL0     C15992   6.188   4.889  10.299 -0.3050  0.0485  0.0482
  119MOL0     C15993   6.057   4.959  10.279 -0.1124  0.6174  0.1516
  119MOL0     C15994   6.044   5.041  10.155  0.8044  0.2635 -0.1533
  119MOL0     C15995   6.045   5.112  10.054 -0.2660 -0.3060 -0.1024
  119MOL0     C15996   6.505   4.459  10.484 -0.7149  0.1979 -0.0562
  119MOL0     C15997   6.584   4.381  10.574  0.3844 -0.1618 -0.7392
  119MOL0     H15998   6.741   4.309  11.137  0.7101 -0.6260  1.5886
  119MOL0     H15999   6.880   4.131  11.239  1.6524 -0.0800 -1.8824
  119MOL0     H16000   6.735   3.700  11.218  0.6061 -0.7469  1.4214
  119MOL0     H16001   6.847   3.708  11.074 -0.2166  1.0102  0.3497
  119MOL0     H16002   6.925   3.705  11.371 -2.7677  2.4532 -0.9732
  119MOL0     H16003   6.916   3.552  11.265  0.2460 -0.3042 -2.4687
  119MOL0     H16004   7.077   3.659  11.117  0.8851  2.7391 -0.7693
  119MOL0     H16005   7.107   3.778  11.238  1.2824 -0.8623 -0.1874
  119MOL0     H16006   7.162   3.621  11.412 -2.4985  0.7689 -1.2956
  119MOL0     H16007   7.137   3.477  11.319  0.2797 -0.6950  0.0608
  119MOL0     H16008   7.309   3.556  11.158  1.4184 -2.7863  0.2734
  119MOL0     H16009   7.347   3.688  11.278  0.1106  1.4669  2.3807
  119MOL0     H16010   7.376   3.526  11.460  4.1272  0.6002  0.5846
  119MOL0     H16011   7.368   3.389  11.345  0.2221 -0.7753  1.5831
  119MOL0     H16012   7.562   3.616  11.292 -1.9630  1.0617  0.7205
  119MOL0     H16013   7.606   3.493  11.406  3.5938  0.8088 -2.9004
  119MOL0     H16014   7.582   3.319  11.250 -2.0381  0.2663 -1.4635
  119MOL0     H16015   7.699   3.438  11.211 -0.1222  0.1062 -1.1181
  119MOL0     H16016   7.572   3.234  11.029  1.1346  0.8165  2.2622
  119MOL0     H16017   7.608   3.374  10.681  1.8721  2.6133  2.9111
  119MOL0     H16018   7.653   3.240  10.789 -0.7991 -0.8761 -0.8102
  119MOL0     H16019   7.419   3.153  10.793 -3.6696  2.3202  1.2046
  119MOL0     H16020   7.491   3.150  10.628 -1.5417  1.2332 -1.1893
  119MOL0     H16021   7.337   3.400  10.690 -0.1600 -1.0547 -1.5365
  119MOL0     H16022   7.249   3.251  10.672 -0.1930  0.3563  1.8808
  119MOL0     H16023   7.412   3.199  10.459 -0.7758 -0.4159  0.9466
  119MOL0     H16024   7.440   3.368  10.450 -1.9300  2.2592  0.1855
  119MOL0     H16025   7.045   3.492  10.467  2.2737  3.4596  1.6442
  119MOL0     H16026   6.878   3.657  10.399  0.1650  2.4643  1.2196
  119MOL0     H16027   6.979   3.785  10.368  2.4429 -1.1386  1.4264
  119MOL0     H16028   6.875   3.705  10.237 -1.8650 -1.3458  0.9761
  119MOL0     H16029   7.400   3.741   9.820  2.2189  0.6747 -2.3254
  119MOL0     H16030   7.415   3.833   9.592 -1.6817 -3.1465 -1.1356
  119MOL0     H16031   7.047   3.969   9.392 -0.5973 -0.6271  1.5354
  119MOL0     H16032   7.104   4.123   9.456  3.1530  1.6849 -1.2658
  119MOL0     H16033   7.263   4.147   9.261  0.3690 -1.9607  2.3210
  119MOL0     H16034   7.192   4.005   9.201 -0.3680 -0.0917  0.2748
  119MOL0     H16035   7.076   4.195   9.086 -1.4777  0.5305 -0.3121
  119MOL0     H16036   7.041   4.270   9.247  2.0815  1.0782 -1.0720
  119MOL0     H16037   6.936   3.993   9.200  0.0908  0.0479 -0.1911
  119MOL0     H16038   6.870   4.119   9.300 -1.9434 -0.2604 -0.9551
  119MOL0     H16039   6.757   4.038   9.099 -0.1891  0.3943 -1.2647
  119MOL0     H16040   6.866   4.136   9.001  0.9510  0.7567  0.1990
  119MOL0     H16041   6.662   4.274   9.057  2.0038 -2.9021 -2.4847
  119MOL0     H16042   6.678   4.235   9.225  0.3608 -1.1359 -0.3781
  119MOL0     H16043   6.889   4.400   9.073  2.2246  1.1717  1.4068
  119MOL0     H16044   6.877   4.384   9.249 -1.4516  4.2377  0.7388
  119MOL0     H16045   6.661   4.495   9.253 -1.3533  2.2221 -0.5552
  119MOL0     H16046   6.678   4.541   9.083 -1.5880  2.7278  1.6271
  119MOL0     H16047   6.989   3.916   9.606 -1.4185 -0.4159  3.8624
  119MOL0     H16048   6.982   3.766   9.784 -0.5411 -1.5332 -3.7529
  119MOL0     H16049   7.323   3.577  10.076 -1.0447  0.4773 -0.7214
  119MOL0     H16050   7.378   3.378  10.229  1.9776  0.9859 -0.4065
  119MOL0     H16051   6.648   3.837  11.051 -1.1115 -0.6100  3.1888
  119MOL0     H16052   6.532   4.011  10.912  2.3680 -2.0129 -0.7646
  119MOL0     H16053   6.344   4.353  10.818  1.8406 -1.2054  0.8938
  119MOL0     H16054   6.225   4.507  10.653 -0.4206 -2.8997  0.3275
  119MOL0     H16055   6.337   4.742  10.554 -2.0538  1.0245  1.2578
  119MOL0     H16056   6.414   4.757  10.399 -0.5045  0.4671  1.9358
  119MOL0     H16057   6.175   4.866  10.504 -0.1882  0.9976 -1.4166
  119MOL0     H16058   6.109   4.726  10.424 -0.4932 -0.9624  3.5639
  119MOL0     H16059   6.192   4.815  10.218  1.8830  1.0849 -0.8704
  119MOL0     H16060   6.269   4.962  10.294  0.8047 -1.1179  0.4675
  119MOL0     H16061   6.053   5.022  10.368 -1.5321 -1.7459  1.8957
  119MOL0     H16062   5.975   4.886  10.284 -2.5094  3.2249  2.8329
  119MOL0     H16063   6.040   5.166   9.962  2.1617 -0.3655 -0.3319
  119MOL0     H16064   6.550   4.468  10.386 -1.0415 -0.5908 -0.2871
  119MOL0     H16065   6.681   4.351  10.536 -0.1057 -0.0238 -2.1738
  120MOL0     O16066   9.293   1.545   0.080  0.8010  0.2835 -0.0106
  120MOL0     C16067   9.307   1.513   0.200 -0.3632  0.4193 -0.3620
  120MOL0     O16068   9.384   1.568   0.294  0.6771 -0.5267 -0.4907
  120MOL0     C16069   9.439   1.690   0.266  0.3435  0.4296 -0.1132
  120MOL0     C16070   9.581   1.684   0.250 -0.4466 -0.0654  0.9282
  120MOL0     C16071   9.657   1.799   0.248  0.5226 -0.2949 -1.1991
  120MOL0     C16072   9.588   1.925   0.256  0.1348  0.7756 -0.2642
  120MOL0     O16073   9.659   2.038   0.257 -0.0241 -1.0453  0.8318
  120MOL0     C16074   9.619   2.163   0.306  0.8723 -0.3551 -0.3921
  120MOL0     C16075   9.637   2.187   0.459 -0.3387  0.2411 -0.5771
  120MOL0     C16076   9.546   2.117   0.558 -0.3689  0.2978  0.9623
  120MOL0     C16077   9.548   2.178   0.700 -0.1976 -0.5744  0.3125
  120MOL0     C16078   9.440   2.141   0.790  0.0381  1.0199 -0.9860
  120MOL0     C16079   9.416   1.989   0.801  0.6304 -0.9829  0.1997
  120MOL0     C16080   9.330   1.941   0.921 -0.5662  0.6282 -0.3473
  120MOL0     C16081   9.407   1.915   1.045  0.0636 -0.6410  0.2137
  120MOL0     N16082   9.349   1.980   1.168  0.6116 -0.1433 -0.0405
  120MOL0     C16083   9.251   1.929   1.250 -0.2637 -0.3566  0.6997
  120MOL0     C16084   9.237   2.012   1.353  0.3922 -1.5617 -0.3878
  120MOL0     C16085   9.138   2.002   1.461 -0.7330 -0.1444  0.7546
  120MOL0     C16086   9.003   1.953   1.414  0.7437  0.6876  0.1696
  120MOL0     C16087   8.931   2.048   1.312  1.2461  0.4856  0.7597
  120MOL0     C16088   8.807   1.972   1.258  0.3021 -0.3453 -0.3814
  120MOL0     O16089   8.835   1.855   1.172  0.2671  0.9348 -0.7088
  120MOL0     C16090   8.889   1.872   1.048 -0.1898  0.9766  0.3225
  120MOL0     C16091   8.907   1.993   0.974  0.7901  0.5632  0.4988
  120MOL0     C16092   8.958   1.993   0.850  0.4541 -0.4701 -0.9036
  120MOL0     C16093   8.999   2.124   0.797  0.7871 -0.6685 -0.6543
  120MOL0     C16094   8.994   1.873   0.793  0.1972  0.6792 -0.1640
  120MOL0     C16095   9.045   1.870   0.662 -0.1714  0.1914 -0.8101
  120MOL0     O16096   8.970   1.934   0.568  0.0504 -0.4161 -0.2862
  120MOL0     C16097   8.985   1.928   0.433  0.3810 -0.4367 -0.6224
  120MOL0     C16098   8.984   1.812   0.360  0.7769 -0.2923  0.3781
  120MOL0     C16099   8.994   1.816   0.224 -0.4031 -0.3826  0.3185
  120MOL0     C16100   8.998   1.938   0.150  0.1899  0.4520 -1.0543
  120MOL0     O16101   9.001   1.956   0.011  0.0925 -0.1760 -1.2075
  120MOL0     C16102   9.063   1.850  -0.059 -0.1942  0.6845  0.6559
  120MOL0     C16103   9.094   1.878  -0.204 -0.1789  0.9769 -0.6243
  120MOL0     C16104   9.134   1.748  -0.272  1.0351  0.2158  0.8764
  120MOL0     C16105   9.277   1.712  -0.256 -0.6657  0.5754  0.2014
  120MOL0     C16106   9.323   1.589  -0.346 -0.2878 -0.6516  0.2370
  120MOL0     C16107   9.230   1.467  -0.356 -0.0140  0.0270 -0.2261
  120MOL0     C16108   9.305   1.345  -0.410  0.2312 -0.1333  0.6871
  120MOL0     C16109   9.387   1.273  -0.304  0.3419  0.5419  0.0725
  120MOL0    Cl16110   9.279   1.169  -0.194  0.0428  0.0131 -0.4098
  120MOL0     C16111   9.000   2.048   0.219  0.1884  0.0038 -0.0810
  120MOL0     C16112   8.980   2.050   0.354 -0.0783 -0.7067  0.3902
  120MOL0     O16113   9.140   1.799   0.649  0.5215  0.4456  0.4176
  120MOL0     C16114   8.972   1.743   0.859  0.8388 -1.0420  0.3194
  120MOL0     C16115   8.908   1.751   0.978  1.0472  0.4599  0.7059
  120MOL0     N16116   9.338   2.114   1.338 -0.7121 -0.4884 -0.5029
  120MOL0     N16117   9.406   2.085   1.226  0.1447 -0.6341 -0.6472
  120MOL0     C16118   9.450   1.927   0.264  0.2077 -0.5529 -0.2673
  120MOL0     C16119   9.374   1.810   0.268 -0.1943 -0.5578 -0.0378
  120MOL0     C16120   9.218   1.415   0.247 -0.2508 -0.2876  0.2611
  120MOL0     C16121   9.181   1.309   0.162  0.1074 -0.3708 -0.5101
  120MOL0     C16122   9.091   1.215   0.211  0.3496  0.4216 -0.0136
  120MOL0     C16123   9.041   1.231   0.341  0.0941 -0.2861  0.2389
  120MOL0     O16124   8.937   1.153   0.393  0.2046  0.2356 -0.4554
  120MOL0     C16125   8.912   1.026   0.328 -0.5524 -0.1698 -0.0867
  120MOL0     C16126   8.824   0.950   0.431  0.2811 -0.1825 -0.1375
  120MOL0     C16127   8.883   0.947   0.570 -0.4653  0.0802 -0.7408
  120MOL0     C16128   8.867   0.830   0.662  0.4659  0.3138 -0.1966
  120MOL0     C16129   8.934   0.858   0.787  0.4814 -0.6666  1.1655
  120MOL0     C16130   8.997   0.876   0.890  0.1076  0.2954 -0.3059
  120MOL0     C16131   9.075   1.341   0.417  0.5229  0.5580  0.6836
  120MOL0     C16132   9.162   1.429   0.372 -0.4044  0.0705  0.9030
  120MOL0     H16133   9.638   1.592   0.259 -1.6544 -0.8828  0.4575
  120MOL0     H16134   9.764   1.793   0.233  0.4828 -2.0404 -1.0633
  120MOL0     H16135   9.673   2.247   0.260 -2.3713  3.8021  2.5507
  120MOL0     H16136   9.517   2.186   0.275  1.0795  0.7335 -0.3028
  120MOL0     H16137   9.744   2.173   0.477 -0.9428 -0.9963  2.9388
  120MOL0     H16138   9.611   2.289   0.487  0.1513 -0.5862  3.5250
  120MOL0     H16139   9.443   2.131   0.522 -0.8559 -1.8588  1.3733
  120MOL0     H16140   9.563   2.009   0.551 -0.3198  0.0591  3.6494
  120MOL0     H16141   9.646   2.150   0.741  1.3171 -1.6234 -3.5312
  120MOL0     H16142   9.526   2.285   0.690 -1.2206 -0.8464 -0.5306
  120MOL0     H16143   9.476   2.172   0.888  0.8982  1.3105 -1.3780
  120MOL0     H16144   9.345   2.194   0.777 -1.3532 -0.3141  2.6262
  120MOL0     H16145   9.357   1.961   0.713  1.8974 -0.9916 -0.6706
  120MOL0     H16146   9.508   1.931   0.788  0.7240 -0.4818 -1.6018
  120MOL0     H16147   9.248   2.009   0.948 -1.3240 -0.3743 -0.0713
  120MOL0     H16148   9.285   1.845   0.893  1.3033 -0.9983  1.8264
  120MOL0     H16149   9.505   1.964   1.050  0.6187 -1.7121  0.1192
  120MOL0     H16150   9.414   1.808   1.066 -1.6179 -0.7646  0.2730
  120MOL0     H16151   9.193   1.838   1.239  1.4443 -1.3203 -0.7171
  120MOL0     H16152   9.173   1.931   1.537 -0.8294  0.4677  1.3858
  120MOL0     H16153   9.118   2.097   1.511 -0.5082  0.4935 -0.3529
  120MOL0     H16154   8.936   1.948   1.499  2.7369 -2.5911  1.7261
  120MOL0     H16155   9.010   1.853   1.370 -3.4474  0.8024 -1.1696
  120MOL0     H16156   8.993   2.064   1.223  1.8787 -2.9343  0.4641
  120MOL0     H16157   8.900   2.143   1.357 -2.1728 -0.4914  0.6850
  120MOL0     H16158   8.760   2.044   1.189  1.4034 -1.4456 -2.3818
  120MOL0     H16159   8.742   1.948   1.342  2.1098  1.2227  1.5993
  120MOL0     H16160   8.878   2.088   1.016 -0.5710  0.1297  0.5999
  120MOL0     H16161   9.107   2.140   0.807  0.6192  0.5508 -0.6109
  120MOL0     H16162   8.949   2.135   0.700 -0.6823 -1.0080  0.0532
  120MOL0     H16163   8.957   2.204   0.859 -0.3003 -1.7061 -0.0149
  120MOL0     H16164   8.977   1.711   0.399  2.1214 -0.3064  0.6341
  120MOL0     H16165   9.001   1.722   0.171 -1.8328  0.2071 -0.9945
  120MOL0     H16166   9.150   1.810  -0.007 -1.0408 -1.5905  0.4150
  120MOL0     H16167   8.999   1.762  -0.053  0.3702  0.0263 -1.9558
  120MOL0     H16168   9.011   1.926  -0.257  2.2382  0.5955 -5.2411
  120MOL0     H16169   9.179   1.946  -0.195 -1.4765  2.4153  1.8765
  120MOL0     H16170   9.111   1.753  -0.379 -0.7455  2.6559  1.3138
  120MOL0     H16171   9.084   1.662  -0.225 -1.5437  0.0351 -1.8593
  120MOL0     H16172   9.345   1.790  -0.291 -0.2387 -0.0735 -0.4466
  120MOL0     H16173   9.305   1.700  -0.151  0.4478  2.8816  0.2180
  120MOL0     H16174   9.417   1.557  -0.301 -0.4097 -0.0146  0.9643
  120MOL0     H16175   9.337   1.627  -0.448 -1.1202 -3.7639 -1.1502
  120MOL0     H16176   9.193   1.451  -0.255  2.1269 -1.1406  0.4432
  120MOL0     H16177   9.149   1.496  -0.424 -0.5391  0.3954  0.5446
  120MOL0     H16178   9.367   1.381  -0.492  0.5211  3.0814  2.1392
  120MOL0     H16179   9.229   1.283  -0.458  1.9188 -1.5465 -0.2485
  120MOL0     H16180   9.454   1.340  -0.249  1.0891  0.0234 -0.1896
  120MOL0     H16181   9.454   1.206  -0.358  1.0395 -0.9523  2.6445
  120MOL0     H16182   9.014   2.145   0.172  2.0175  0.0311  0.4156
  120MOL0     H16183   8.953   2.141   0.406  2.3080 -0.2134  0.8678
  120MOL0     H16184   8.994   1.651   0.807 -2.9462 -0.9370 -1.8192
  120MOL0     H16185   8.882   1.657   1.026  0.0595  2.0189  3.4636
  120MOL0     H16186   9.401   2.023   0.259  0.8036 -0.2546 -0.4105
  120MOL0     H16187   9.267   1.819   0.285  0.0817  1.4391  0.9671
  120MOL0     H16188   9.215   1.302   0.059  0.5825  0.8521 -0.4494
  120MOL0     H16189   9.069   1.132   0.146  1.4177 -0.3271  0.5597
  120MOL0     H16190   8.858   1.047   0.235  2.3859  1.9711 -1.4991
  120MOL0     H16191   8.999   0.963   0.307  0.3701  0.8899  0.4430
  120MOL0     H16192   8.813   0.847   0.397 -0.4250 -1.0094  2.4115
  120MOL0     H16193   8.726   1.000   0.432  0.1768 -0.3792  0.9733
  120MOL0     H16194   8.861   1.041   0.621 -2.8316 -0.1818 -1.1787
  120MOL0     H16195   8.990   0.954   0.544 -0.1030 -0.1534  0.6318
  120MOL0     H16196   8.898   0.731   0.625 -2.1581 -1.0328  0.9631
  120MOL0     H16197   8.761   0.822   0.690 -0.2896  3.0827 -1.8920
  120MOL0     H16198   9.057   0.889   0.978  2.4424  0.2839 -1.8428
  120MOL0     H16199   9.043   1.337   0.521 -0.2928  1.6697  0.4838
  120MOL0     H16200   9.184   1.515   0.434  2.3815 -0.6154  0.9813
  121MOL0     O16201   4.489   0.774  10.361 -0.3317 -0.3485 -0.1093
  121MOL0     C16202   4.490   0.685  10.443 -0.2483 -1.4784 -0.2406
  121MOL0     O16203   4.582   0.584  10.446 -0.2713  0.1419 -0.4691
  121MOL0     C16204   4.672   0.570  10.343 -0.2987  0.6553  0.2001
  121MOL0     C16205   4.811   0.568  10.375  0.5130 -0.2003  0.5790
  121MOL0     C16206   4.903   0.567  10.280 -0.3110 -0.8813 -0.0846
  121MOL0     C16207   4.870   0.556  10.145  0.4051 -0.1081  0.0703
  121MOL0     O16208   4.968   0.550  10.045  0.2027  0.3237 -0.2661
  121MOL0     C16209   5.102   0.588  10.083 -0.1624 -0.1618  0.1151
  121MOL0     C16210   5.168   0.454  10.103  0.2553 -0.7279 -0.9984
  121MOL0     C16211   5.165   0.354   9.987 -0.3694 -1.4139 -0.3527
  121MOL0     C16212   5.286   0.263  10.003 -0.8395 -0.5621  0.5312
  121MOL0     C16213   5.299   0.151   9.900 -0.2964 -0.8739 -0.2128
  121MOL0     C16214   5.418   0.063   9.914 -0.3922 -0.0216  0.1867
  121MOL0     C16215   5.418  -0.049   9.812  0.0449 -0.2612 -0.2142
  121MOL0     C16216   5.549  -0.121   9.830  0.3019  0.1863  0.0431
  121MOL0     N16217   5.561  -0.228   9.728 -0.8475 -0.1391  0.0656
  121MOL0     C16218   5.554  -0.366   9.746 -0.6942  0.4646 -0.1703
  121MOL0     C16219   5.608  -0.416   9.640 -0.5616  0.9195 -0.2092
  121MOL0     C16220   5.618  -0.559   9.616 -0.2163  0.6832  0.3561
  121MOL0     C16221   5.710  -0.618   9.731 -0.0134 -0.7887 -0.5763
  121MOL0     C16222   5.703  -0.764   9.790 -0.5516 -0.3174  0.0976
  121MOL0     C16223   5.565  -0.821   9.796  0.3759  0.0398  1.2219
  121MOL0     O16224   5.479  -0.718   9.851  0.1133 -0.3130  0.0475
  121MOL0     C16225   5.343  -0.747   9.877 -0.1279  0.2609 -0.3178
  121MOL0     C16226   5.291  -0.875   9.866  0.2452 -0.6428  0.1546
  121MOL0     C16227   5.154  -0.905   9.908 -0.1943 -0.7778  1.2034
  121MOL0     C16228   5.111  -1.050   9.900 -0.3653 -0.2585 -0.2736
  121MOL0     C16229   5.076  -0.795   9.955  0.2800  0.6633 -0.7389
  121MOL0     C16230   4.940  -0.816  10.014  0.5721  0.7997  0.1895
  121MOL0     O16231   4.879  -0.936  10.015  0.4214 -0.0294  0.9145
  121MOL0     C16232   4.768  -0.946  10.097  0.8096 -0.3879  0.1243
  121MOL0     C16233   4.779  -0.916  10.237 -0.1590 -0.0666 -0.2588
  121MOL0     C16234   4.663  -0.890  10.315  0.1086  1.2623 -0.2283
  121MOL0     C16235   4.538  -0.903  10.252 -0.2853 -0.2822  0.0231
  121MOL0     O16236   4.433  -0.884  10.332  0.4384 -0.1758 -0.2077
  121MOL0     C16237   4.299  -0.853  10.272 -0.3123  0.3129 -0.6080
  121MOL0     C16238   4.220  -0.792  10.383 -0.0002 -0.0429  0.0072
  121MOL0     C16239   4.187  -0.896  10.485  0.0740 -0.2428 -0.4674
  121MOL0     C16240   4.073  -0.994  10.436  0.6186 -0.1500  0.2218
  121MOL0     C16241   4.029  -1.080  10.556 -0.6659  0.2834  0.0786
  121MOL0     C16242   3.881  -1.057  10.597  0.0655 -0.0891  0.2643
  121MOL0     C16243   3.864  -0.933  10.673 -0.0650  0.8663 -0.1341
  121MOL0     C16244   3.719  -0.920  10.715  0.0714  0.2552  0.1345
  121MOL0    Cl16245   3.604  -0.874  10.578  0.0320  0.2185 -0.2740
  121MOL0     C16246   4.527  -0.936  10.110  0.2736 -0.4352  0.0955
  121MOL0     C16247   4.640  -0.956  10.030  0.2067  0.4340  0.6226
  121MOL0     O16248   4.883  -0.710  10.042  0.2828  0.1579  0.2573
  121MOL0     C16249   5.136  -0.667   9.973 -0.2717  0.7721  0.2452
  121MOL0     C16250   5.266  -0.653   9.940 -0.2462 -0.4942  0.0727
  121MOL0     N16251   5.649  -0.309   9.560  0.2539  1.1673 -0.5908
  121MOL0     N16252   5.616  -0.194   9.602  0.3455  0.2663 -0.9712
  121MOL0     C16253   4.733   0.563  10.106  0.9137  0.1586  0.3960
  121MOL0     C16254   4.639   0.568  10.209 -0.2930 -1.0748  0.8525
  121MOL0     C16255   4.396   0.691  10.548  0.3381  0.3795  0.4707
  121MOL0     C16256   4.371   0.570  10.618  0.3657 -0.2055 -0.1436
  121MOL0     C16257   4.272   0.574  10.722 -0.1947 -0.5623  1.3386
  121MOL0     C16258   4.210   0.685  10.759 -0.2923 -0.4344 -0.5650
  121MOL0     O16259   4.108   0.673  10.854 -0.0023 -0.5383 -0.6913
  121MOL0     C16260   4.018   0.781  10.876  0.4242 -0.1836  0.6710
  121MOL0     C16261   4.063   0.859  11.001 -0.4487  0.5120 -0.7028
  121MOL0     C16262   3.969   0.821  11.123  0.7278 -0.4089  0.7518
  121MOL0     C16263   4.001   0.902  11.240  0.1499  0.0349 -0.8598
  121MOL0     C16264   3.884   0.919  11.330  1.2188 -0.1909  0.4348
  121MOL0     C16265   3.781   0.907  11.398  0.4377 -0.2804  0.5589
  121MOL0     C16266   4.242   0.800  10.688  0.0390 -0.8042  0.4263
  121MOL0     C16267   4.328   0.802  10.578 -0.1728  0.2064 -0.9581
  121MOL0     H16268   4.840   0.574  10.480  2.8741 -0.7436 -0.0107
  121MOL0     H16269   5.005   0.566  10.315 -1.1625 -1.5893  2.6688
  121MOL0     H16270   5.159   0.642  10.006  0.1420 -1.2028 -0.4214
  121MOL0     H16271   5.099   0.659  10.166  0.7026  0.3094 -0.2482
  121MOL0     H16272   5.269   0.476  10.140  0.2123  2.2974 -2.4094
  121MOL0     H16273   5.107   0.412  10.183 -3.3156 -2.2275 -4.1941
  121MOL0     H16274   5.071   0.299   9.987 -1.8267  0.6152  3.9477
  121MOL0     H16275   5.174   0.409   9.893  0.3527  1.5453  1.3097
  121MOL0     H16276   5.376   0.325   9.998  0.0277 -1.4999  2.9988
  121MOL0     H16277   5.279   0.215  10.101  0.1467 -3.1660 -0.5967
  121MOL0     H16278   5.204   0.096   9.892 -0.1493 -1.2706  0.6599
  121MOL0     H16279   5.309   0.203   9.804 -1.1909  0.7391  0.5151
  121MOL0     H16280   5.507   0.126   9.907 -0.7543  0.7544  2.0885
  121MOL0     H16281   5.415   0.017  10.013 -3.1939  1.3718  0.8363
  121MOL0     H16282   5.339  -0.123   9.827  1.2255 -1.5450 -0.1267
  121MOL0     H16283   5.403  -0.005   9.712 -1.9466 -2.3305 -0.9065
  121MOL0     H16284   5.534  -0.168   9.928  0.6693 -2.0572 -0.9230
  121MOL0     H16285   5.639  -0.059   9.825  3.0531 -3.5424 -1.8594
  121MOL0     H16286   5.513  -0.418   9.831 -0.5425  0.3367 -0.1766
  121MOL0     H16287   5.519  -0.604   9.626  1.1100 -2.4213  0.6069
  121MOL0     H16288   5.653  -0.584   9.516 -0.8023 -1.5409  0.6580
  121MOL0     H16289   5.680  -0.568   9.823  0.7257 -1.5308  0.0886
  121MOL0     H16290   5.811  -0.576   9.721 -0.6948  0.8520 -0.8846
  121MOL0     H16291   5.734  -0.755   9.895 -1.0991  1.7832  0.1317
  121MOL0     H16292   5.776  -0.826   9.737 -0.6964 -1.4205  1.1670
  121MOL0     H16293   5.565  -0.904   9.867 -1.8617  0.0383  1.2959
  121MOL0     H16294   5.536  -0.848   9.695  2.5546 -3.0460  1.2802
  121MOL0     H16295   5.345  -0.952   9.811 -3.1996 -2.4837 -0.9400
  121MOL0     H16296   5.206  -1.103   9.899  0.0677  0.2154  3.2688
  121MOL0     H16297   5.051  -1.082   9.986  2.6486 -0.7311  1.8124
  121MOL0     H16298   5.058  -1.068   9.806  2.3350 -2.4559 -1.5082
  121MOL0     H16299   4.876  -0.910  10.287 -0.5313 -0.5683  0.5404
  121MOL0     H16300   4.672  -0.872  10.421 -0.8202 -2.2596  0.5679
  121MOL0     H16301   4.305  -0.790  10.184  0.6534 -0.2593 -0.9698
  121MOL0     H16302   4.259  -0.953  10.253 -2.1044  0.4757  1.8377
  121MOL0     H16303   4.288  -0.715  10.422  1.7940 -0.6575 -1.7255
  121MOL0     H16304   4.124  -0.749  10.352 -1.3183 -2.7240  0.1387
  121MOL0     H16305   4.144  -0.850  10.575  1.5167 -1.6864  1.0356
  121MOL0     H16306   4.277  -0.949  10.519  1.5259  2.3498 -0.0074
  121MOL0     H16307   4.003  -0.915  10.407  1.8775  1.3814  1.2301
  121MOL0     H16308   4.104  -1.070  10.363 -3.0254 -0.7414 -0.9631
  121MOL0     H16309   4.108  -1.069  10.631  0.4293 -1.8939 -0.6555
  121MOL0     H16310   4.034  -1.187  10.533  0.0609  0.1824  0.6567
  121MOL0     H16311   3.819  -1.059  10.507  0.8143  1.2536 -0.3214
  121MOL0     H16312   3.848  -1.140  10.660 -0.2803 -1.3993 -1.5740
  121MOL0     H16313   3.869  -0.840  10.616 -4.8366  0.6033 -1.3904
  121MOL0     H16314   3.925  -0.919  10.763  1.4961  1.9579 -1.3077
  121MOL0     H16315   3.707  -0.857  10.804 -2.1041  0.8003 -0.4994
  121MOL0     H16316   3.700  -1.022  10.750  0.5562  0.6431  1.5984
  121MOL0     H16317   4.429  -0.957  10.069 -0.6778  1.3958  1.3006
  121MOL0     H16318   4.640  -0.973   9.923  3.5495  2.5412  0.1558
  121MOL0     H16319   5.080  -0.588  10.021 -1.9780 -1.8153  2.8615
  121MOL0     H16320   5.308  -0.553   9.953  1.4087 -0.9902 -1.0214
  121MOL0     H16321   4.705   0.574  10.002 -1.4430  0.8536  1.0503
  121MOL0     H16322   4.531   0.557  10.200 -0.1924 -2.6971  1.3762
  121MOL0     H16323   4.406   0.478  10.571 -2.8027 -1.2952 -0.5931
  121MOL0     H16324   4.241   0.483  10.772  1.7124 -1.7323  0.5091
  121MOL0     H16325   4.019   0.859  10.800  1.3516  0.3864  1.2476
  121MOL0     H16326   3.915   0.743  10.883 -0.0369  1.0622  0.8748
  121MOL0     H16327   4.062   0.962  10.963  2.1347 -0.1529 -2.8560
  121MOL0     H16328   4.168   0.835  11.020 -0.8797  0.3493  1.7398
  121MOL0     H16329   3.992   0.719  11.154 -0.3355 -0.0235  3.0784
  121MOL0     H16330   3.862   0.811  11.101  0.7924  0.6913 -0.2240
  121MOL0     H16331   4.058   0.994  11.225 -0.1078  0.7658  1.9549
  121MOL0     H16332   4.071   0.844  11.301 -1.5495 -0.5755  0.5952
  121MOL0     H16333   3.702   0.910  11.471  1.5158  0.3418  1.7483
  121MOL0     H16334   4.170   0.882  10.691 -0.9975 -1.6620 -0.2208
  121MOL0     H16335   4.349   0.903  10.542 -1.0716  1.3487  1.5246
  122MOL0     O16336  10.323   0.072   0.807  0.5148  0.6057  0.6664
  122MOL0     C16337  10.400   0.057   0.900  0.2531 -0.8477  0.0011
  122MOL0     O16338  10.360   0.052   1.034 -0.2592  0.3454  0.6588
  122MOL0     C16339  10.229   0.040   1.053  0.7287  0.2384 -0.1514
  122MOL0     C16340  10.139   0.149   1.030 -0.3908 -0.1782  0.9215
  122MOL0     C16341  10.004   0.138   1.061  0.1239  0.1589 -0.1915
  122MOL0     C16342   9.950   0.029   1.121  0.3135 -1.0381 -0.0748
  122MOL0     O16343   9.815   0.014   1.142 -0.5389 -0.0983 -0.1134
  122MOL0     C16344   9.755   0.064   1.261  0.7588  0.0640  0.6696
  122MOL0     C16345   9.710   0.204   1.241  0.4146 -0.3752  0.1344
  122MOL0     C16346   9.654   0.273   1.365 -0.7467 -0.1721 -0.3005
  122MOL0     C16347   9.678   0.422   1.356 -0.1150  0.5592 -0.1343
  122MOL0     C16348   9.643   0.473   1.496 -0.5013 -0.3183  1.1196
  122MOL0     C16349   9.514   0.544   1.487  0.1134  0.4373 -0.3491
  122MOL0     C16350   9.450   0.538   1.630  0.2887  0.4450 -0.3364
  122MOL0     C16351   9.319   0.606   1.623 -0.5382 -0.7135  0.0849
  122MOL0     N16352   9.335   0.755   1.614 -1.1526  0.2738 -1.3476
  122MOL0     C16353   9.308   0.831   1.500 -0.5522  0.5007  0.2606
  122MOL0     C16354   9.326   0.961   1.538 -0.0670  0.0630 -0.5810
  122MOL0     C16355   9.334   1.088   1.455 -0.3940 -0.5513  0.0286
  122MOL0     C16356   9.196   1.111   1.395 -0.3411  0.1928  0.1477
  122MOL0     C16357   9.099   1.166   1.497 -0.0727 -0.2417 -0.6758
  122MOL0     C16358   8.953   1.162   1.455  0.0609  1.1190  0.5027
  122MOL0     O16359   8.925   1.055   1.364 -0.4218  0.4082  0.6524
  122MOL0     C16360   8.803   1.062   1.288  0.1186  0.8674 -0.0250
  122MOL0     C16361   8.686   1.113   1.339 -0.2137 -0.2795 -0.4026
  122MOL0     C16362   8.566   1.116   1.259  1.4470 -0.6050 -0.1219
  122MOL0     C16363   8.450   1.203   1.316 -0.8355  0.4595  0.9163
  122MOL0     C16364   8.575   1.057   1.135  0.4224 -0.5080 -0.4291
  122MOL0     C16365   8.463   1.051   1.029  0.7627  0.4453 -0.4406
  122MOL0     O16366   8.478   0.930   0.959  0.6660 -0.5496 -0.2269
  122MOL0     C16367   8.386   0.864   0.881  0.7004  0.1397 -0.4597
  122MOL0     C16368   8.416   0.752   0.802  0.5583 -1.4118  0.9613
  122MOL0     C16369   8.310   0.693   0.730 -0.2324 -0.9392 -0.7514
  122MOL0     C16370   8.181   0.740   0.734 -0.8685 -0.3779 -0.2508
  122MOL0     O16371   8.093   0.678   0.659 -0.2971  0.0045  0.1227
  122MOL0     C16372   8.100   0.719   0.523  0.2159 -1.0123  0.0996
  122MOL0     C16373   7.991   0.660   0.431 -0.8619  0.5283  0.7848
  122MOL0     C16374   7.850   0.727   0.456  0.6204 -0.4183  0.1315
  122MOL0     C16375   7.735   0.635   0.497  0.2681 -0.4675 -0.6200
  122MOL0     C16376   7.616   0.717   0.549  0.6710  0.4868  0.1352
  122MOL0     C16377   7.515   0.625   0.628 -0.2057 -0.4032 -0.2437
  122MOL0     C16378   7.431   0.537   0.529 -0.7882  0.2695  0.2670
  122MOL0     C16379   7.330   0.450   0.603  0.7550 -0.8317 -0.4782
  122MOL0    Cl16380   7.416   0.303   0.676  0.0895  0.4048 -0.1162
  122MOL0     C16381   8.155   0.858   0.804  0.2055 -0.6693  0.2458
  122MOL0     C16382   8.255   0.913   0.877  0.6238  0.4889  0.5608
  122MOL0     O16383   8.373   1.139   1.012  0.1219 -0.1010 -0.4379
  122MOL0     C16384   8.695   1.002   1.089 -0.1565 -0.0296 -0.5223
  122MOL0     C16385   8.810   1.009   1.169 -0.3306  0.8515 -0.4025
  122MOL0     N16386   9.340   0.967   1.680 -0.0692  0.2688  0.6009
  122MOL0     N16387   9.335   0.843   1.716 -0.5583 -0.3391 -0.3769
  122MOL0     C16388  10.033  -0.081   1.149 -0.3305 -0.3941 -0.0776
  122MOL0     C16389  10.171  -0.067   1.124 -0.1372 -0.2852 -0.2235
  122MOL0     C16390  10.547   0.032   0.874  0.6893  0.3379 -0.8527
  122MOL0     C16391  10.595   0.029   0.745  0.2563 -0.0792 -0.4801
  122MOL0     C16392  10.719  -0.015   0.723 -1.1348 -0.9013  0.0744
  122MOL0     C16393  10.801  -0.053   0.829  0.7772  0.4810  0.4497
  122MOL0     O16394  10.931  -0.095   0.798  0.2977  0.4985  0.3165
  122MOL0     C16395  11.028  -0.104   0.907  0.5481  0.6244  0.2870
  122MOL0     C16396  11.018  -0.232   0.984 -0.0756 -0.1083  0.4543
  122MOL0     C16397  11.048  -0.361   0.905  0.4091  0.7687 -0.4190
  122MOL0     C16398  11.010  -0.484   0.989  0.4534 -0.4322 -0.3300
  122MOL0     C16399  11.093  -0.503   1.114  0.4447  1.0536  0.6894
  122MOL0     C16400  11.161  -0.512   1.209 -0.3959 -0.4908  0.6518
  122MOL0     C16401  10.757  -0.036   0.965 -0.5585 -0.1945 -0.8884
  122MOL0     C16402  10.625  -0.001   0.987 -0.1466 -0.1573 -0.5028
  122MOL0     H16403  10.174   0.246   0.998 -4.9350  1.5025  0.1779
  122MOL0     H16404   9.935   0.217   1.031 -2.2609 -1.9961 -0.7169
  122MOL0     H16405   9.674  -0.002   1.292 -0.2254  1.9431  2.3257
  122MOL0     H16406   9.829   0.063   1.342  2.3255 -0.6596 -0.7186
  122MOL0     H16407   9.793   0.269   1.211 -0.3646  1.9140  2.5031
  122MOL0     H16408   9.633   0.211   1.164  0.1029  3.2096  0.5753
  122MOL0     H16409   9.545   0.259   1.371 -0.6297 -0.6099  1.0431
  122MOL0     H16410   9.716   0.235   1.447  2.2645  3.2389 -0.7628
  122MOL0     H16411   9.779   0.448   1.321 -0.2818 -2.0564 -2.9848
  122MOL0     H16412   9.609   0.451   1.276  0.6283 -0.1675 -1.0584
  122MOL0     H16413   9.640   0.402   1.579 -0.8734  1.2065  2.4608
  122MOL0     H16414   9.715   0.550   1.526 -0.4282  1.7803 -3.5926
  122MOL0     H16415   9.519   0.638   1.431 -0.0631  1.2857  1.0002
  122MOL0     H16416   9.449   0.477   1.431 -1.7646  0.1328  2.0236
  122MOL0     H16417   9.422   0.438   1.664 -1.2814  0.9158 -0.1650
  122MOL0     H16418   9.509   0.593   1.704 -0.8872  2.0621 -0.5504
  122MOL0     H16419   9.262   0.586   1.714  1.6811  0.9096  1.9374
  122MOL0     H16420   9.262   0.571   1.536 -0.9699  0.1411  0.0081
  122MOL0     H16421   9.285   0.790   1.402 -2.0346 -1.3233  1.2914
  122MOL0     H16422   9.361   1.174   1.518 -0.7063  1.7683 -2.7885
  122MOL0     H16423   9.411   1.076   1.378  0.0679 -0.6464  0.5021
  122MOL0     H16424   9.166   1.010   1.367  0.4708 -1.4488  4.4785
  122MOL0     H16425   9.214   1.178   1.310  3.7531  0.0132  0.7035
  122MOL0     H16426   9.125   1.270   1.518 -0.3606 -0.4020  0.5839
  122MOL0     H16427   9.117   1.114   1.592 -0.5414  1.1258  0.1810
  122MOL0     H16428   8.926   1.259   1.412  0.2132 -0.1678 -2.7823
  122MOL0     H16429   8.890   1.171   1.544  0.1407 -0.2562  0.7212
  122MOL0     H16430   8.695   1.169   1.432  3.6203  0.1446 -0.8706
  122MOL0     H16431   8.462   1.296   1.259  1.2044 -0.4594 -0.2306
  122MOL0     H16432   8.353   1.167   1.282 -0.0337 -2.6682  1.6219
  122MOL0     H16433   8.460   1.227   1.423  1.2833 -0.6230  0.9991
  122MOL0     H16434   8.519   0.727   0.782  0.5557 -0.1505 -0.8882
  122MOL0     H16435   8.338   0.622   0.654  0.1916 -2.2930  0.6219
  122MOL0     H16436   8.117   0.827   0.523 -1.8683 -0.6241  1.2099
  122MOL0     H16437   8.193   0.682   0.478  1.6728  2.0231  0.3448
  122MOL0     H16438   8.031   0.675   0.330  1.2320  0.0645  1.4908
  122MOL0     H16439   7.992   0.551   0.436 -0.4445  0.5419  1.0205
  122MOL0     H16440   7.816   0.774   0.363 -0.1123  0.0615  0.6264
  122MOL0     H16441   7.855   0.799   0.538  4.0035  0.3733 -0.5955
  122MOL0     H16442   7.695   0.571   0.417 -0.2847 -3.1971  1.6713
  122MOL0     H16443   7.762   0.569   0.580  1.8008  1.9380  0.9249
  122MOL0     H16444   7.572   0.752   0.455  1.5789  0.6785 -0.2276
  122MOL0     H16445   7.643   0.804   0.610  0.6836  0.6936 -0.1640
  122MOL0     H16446   7.568   0.562   0.700  1.2903  1.4675  0.3809
  122MOL0     H16447   7.445   0.687   0.685  0.8719  0.2443  0.4085
  122MOL0     H16448   7.499   0.474   0.471  1.4542  0.4480  2.5098
  122MOL0     H16449   7.381   0.605   0.460 -2.5654 -1.0152  0.2341
  122MOL0     H16450   7.258   0.422   0.526 -1.2117  2.7376 -0.1390
  122MOL0     H16451   7.268   0.508   0.673  1.6430 -1.3808  0.8135
  122MOL0     H16452   8.056   0.902   0.801  1.0669  1.3024 -0.7099
  122MOL0     H16453   8.206   1.000   0.919 -2.1393 -1.0083  0.7081
  122MOL0     H16454   8.705   0.961   0.989 -0.4789 -0.0652 -0.5400
  122MOL0     H16455   8.905   0.967   1.136 -1.8232 -1.1260 -2.4591
  122MOL0     H16456   9.986  -0.171   1.188  1.2824 -1.9659 -1.5248
  122MOL0     H16457  10.233  -0.152   1.151  1.1280  0.8848  0.7338
  122MOL0     H16458  10.529   0.041   0.660 -0.4123  1.5932  0.2191
  122MOL0     H16459  10.766  -0.020   0.625  0.5655  0.4318  0.7461
  122MOL0     H16460  11.127  -0.099   0.861  1.5178  0.4173  2.2497
  122MOL0     H16461  11.012  -0.017   0.972 -0.3492  0.4552  0.3085
  122MOL0     H16462  10.914  -0.247   1.015 -0.8291 -0.3359 -1.9932
  122MOL0     H16463  11.080  -0.223   1.074 -1.1030 -2.0028  1.4088
  122MOL0     H16464  11.156  -0.363   0.886  0.7937  1.9937  1.2946
  122MOL0     H16465  10.998  -0.364   0.808  3.4522 -0.7505 -2.0876
  122MOL0     H16466  11.024  -0.578   0.934  2.3057 -0.0153 -0.6496
  122MOL0     H16467  10.906  -0.477   1.022  0.6250 -1.0741  0.3794
  122MOL0     H16468  11.235  -0.514   1.286  1.7747 -0.0428 -1.3062
  122MOL0     H16469  10.821  -0.076   1.043  2.3620  1.4137 -2.3120
  122MOL0     H16470  10.591   0.009   1.089  1.7434 -2.5631  0.4716
  123MOL0     O16471   3.659   0.864   7.352  0.1816  0.0528 -0.4646
  123MOL0     C16472   3.581   0.777   7.389 -0.0982 -1.0993 -0.3616
  123MOL0     O16473   3.585   0.720   7.511  0.2202  0.2775  0.6019
  123MOL0     C16474   3.688   0.758   7.596 -0.4298 -0.1961 -0.9108
  123MOL0     C16475   3.828   0.773   7.566  0.5829  0.2831  0.3490
  123MOL0     C16476   3.924   0.803   7.662  0.0581  0.1725 -1.0050
  123MOL0     C16477   3.884   0.810   7.794  1.1873  0.1605 -0.3388
  123MOL0     O16478   3.968   0.847   7.894  0.3515  0.6020 -1.1308
  123MOL0     C16479   4.080   0.766   7.911  1.0557 -0.4501  1.1638
  123MOL0     C16480   4.212   0.849   7.929  0.4617 -0.6722 -0.3638
  123MOL0     C16481   4.208   0.936   8.058  0.7202  0.0137  0.0565
  123MOL0     C16482   4.337   1.030   8.063 -0.4209  0.0167 -0.2850
  123MOL0     C16483   4.391   1.050   8.197 -0.4279  1.0312  0.0116
  123MOL0     C16484   4.449   0.915   8.258 -0.4216 -0.3233  0.3089
  123MOL0     C16485   4.595   0.881   8.214 -0.2548  0.1179  0.2933
  123MOL0     C16486   4.639   0.749   8.284  0.7337 -0.0041  0.2850
  123MOL0     N16487   4.665   0.781   8.425 -0.2324  1.0133  0.3244
  123MOL0     C16488   4.724   0.893   8.482 -0.7463  0.2614 -0.3886
  123MOL0     C16489   4.748   0.855   8.611 -0.6089 -0.3003 -0.8265
  123MOL0     C16490   4.826   0.940   8.714 -0.4829  0.3390 -0.2714
  123MOL0     C16491   4.723   1.032   8.782  0.4190  0.4492  0.7298
  123MOL0     C16492   4.794   1.148   8.851  0.8342 -0.2447 -0.7852
  123MOL0     C16493   4.688   1.259   8.894 -0.5708  0.2638  0.1724
  123MOL0     O16494   4.753   1.375   8.938  0.4776  0.1794 -0.1712
  123MOL0     C16495   4.688   1.493   8.964  0.4273  0.8184 -0.5293
  123MOL0     C16496   4.759   1.560   9.063 -1.4104 -0.7972  0.0016
  123MOL0     C16497   4.708   1.677   9.118 -0.4470 -1.1542 -0.0863
  123MOL0     C16498   4.802   1.774   9.202  0.0873 -0.0617  0.9304
  123MOL0     C16499   4.577   1.720   9.087 -0.1419 -0.6553 -0.5445
  123MOL0     C16500   4.518   1.839   9.152 -0.6363  0.5480  0.7501
  123MOL0     O16501   4.434   1.912   9.070  0.7516  0.0835  0.1578
  123MOL0     C16502   4.336   1.987   9.131 -0.0201 -0.3609 -0.4524
  123MOL0     C16503   4.210   1.935   9.134  0.5126 -0.1218 -0.9074
  123MOL0     C16504   4.113   1.976   9.221  0.4893 -0.8383  1.0927
  123MOL0     C16505   4.137   2.091   9.308  0.1858  0.4172  0.5323
  123MOL0     O16506   4.037   2.151   9.385  0.3558  0.0108  0.0669
  123MOL0     C16507   3.925   2.068   9.422  0.1014 -0.3249 -0.0355
  123MOL0     C16508   3.811   2.147   9.490  0.2265  0.3203  0.4462
  123MOL0     C16509   3.751   2.252   9.387  0.4381 -0.8954 -0.0479
  123MOL0     C16510   3.617   2.302   9.441  0.0314  0.2188  0.6136
  123MOL0     C16511   3.576   2.439   9.382  0.0565  0.9672  0.3301
  123MOL0     C16512   3.458   2.495   9.451  0.6810  0.0296  0.1828
  123MOL0     C16513   3.403   2.628   9.390 -0.3470 -0.1077  0.7389
  123MOL0     C16514   3.263   2.647   9.437  0.7517  0.5265  0.4756
  123MOL0    Cl16515   3.220   2.815   9.387 -0.1017  0.4405  0.0703
  123MOL0     C16516   4.271   2.151   9.308  0.2086  0.7166  0.6030
  123MOL0     C16517   4.364   2.097   9.221 -0.0835  0.9215  0.0538
  123MOL0     O16518   4.535   1.851   9.269 -0.3476  0.7141 -0.5495
  123MOL0     C16519   4.496   1.639   8.996 -0.1872 -0.5231  0.0110
  123MOL0     C16520   4.555   1.525   8.936 -0.1217  0.2312 -0.0373
  123MOL0     N16521   4.695   0.731   8.638 -0.2129 -0.2931 -0.2588
  123MOL0     N16522   4.637   0.688   8.526  0.1992 -0.5401 -0.4596
  123MOL0     C16523   3.748   0.784   7.827  0.7125 -0.6183 -0.6385
  123MOL0     C16524   3.656   0.755   7.731  0.4826  1.0234  0.6001
  123MOL0     C16525   3.458   0.763   7.317  0.1014  0.6175  0.0579
  123MOL0     C16526   3.384   0.639   7.339  1.3771  0.5793  0.2807
  123MOL0     C16527   3.260   0.619   7.283 -0.1175 -0.7903 -0.6819
  123MOL0     C16528   3.218   0.708   7.179 -0.1404 -0.6472  0.1533
  123MOL0     O16529   3.107   0.677   7.100  0.5488  0.5308 -0.9350
  123MOL0     C16530   3.014   0.576   7.139  0.3388  0.3141  0.4990
  123MOL0     C16531   2.916   0.536   7.027 -0.5840 -0.0448 -1.1952
  123MOL0     C16532   2.984   0.463   6.909  0.8419 -0.5822  0.8260
  123MOL0     C16533   2.923   0.490   6.767 -0.2303 -0.8889 -1.0605
  123MOL0     C16534   2.775   0.460   6.749  0.0900  0.6052 -0.5418
  123MOL0     C16535   2.660   0.425   6.725 -0.3105 -0.0132 -0.2460
  123MOL0     C16536   3.287   0.833   7.153  0.5551  0.4252  0.3865
  123MOL0     C16537   3.399   0.863   7.224 -0.5374  0.2465 -0.2544
  123MOL0     H16538   3.857   0.754   7.463 -0.5463  0.8322 -0.0789
  123MOL0     H16539   4.023   0.830   7.626  0.7139 -1.6943 -0.6564
  123MOL0     H16540   4.053   0.708   8.000  0.9798 -1.8308  0.2804
  123MOL0     H16541   4.105   0.696   7.831  1.9281  1.6273 -0.4550
  123MOL0     H16542   4.290   0.773   7.940 -0.7037 -1.4894  4.6191
  123MOL0     H16543   4.226   0.923   7.849  2.4022  2.1863  2.3418
  123MOL0     H16544   4.124   1.003   8.079  1.3605 -0.2235  4.3123
  123MOL0     H16545   4.211   0.866   8.143  0.1975  1.0844  0.9875
  123MOL0     H16546   4.416   0.984   8.003 -0.9131  0.7050 -1.4957
  123MOL0     H16547   4.320   1.130   8.021  0.4027 -0.6877 -2.4000
  123MOL0     H16548   4.471   1.124   8.187  3.0455 -2.3872 -0.0937
  123MOL0     H16549   4.310   1.074   8.266 -2.4813 -0.9493 -1.5656
  123MOL0     H16550   4.439   0.920   8.366 -0.2944  2.2139  0.2830
  123MOL0     H16551   4.381   0.834   8.232 -0.4187 -0.9485  2.1559
  123MOL0     H16552   4.604   0.862   8.106 -0.7460  0.1664  0.2380
  123MOL0     H16553   4.649   0.974   8.234 -0.6210  0.2112  0.8565
  123MOL0     H16554   4.725   0.705   8.232 -2.0845 -1.3922 -3.7018
  123MOL0     H16555   4.558   0.676   8.280  0.2317  0.5183  0.8259
  123MOL0     H16556   4.737   0.985   8.426 -3.1230  0.2751 -0.9889
  123MOL0     H16557   4.867   0.876   8.793 -1.9024  1.2696  1.2816
  123MOL0     H16558   4.899   0.994   8.653  1.4589 -1.2744  0.5196
  123MOL0     H16559   4.661   0.983   8.858  0.7316 -1.5044 -0.2066
  123MOL0     H16560   4.661   1.062   8.697 -0.9207  0.7630  1.7841
  123MOL0     H16561   4.877   1.199   8.800  2.5121 -3.2757 -1.3136
  123MOL0     H16562   4.834   1.098   8.939  0.8423 -0.2918 -0.8158
  123MOL0     H16563   4.625   1.226   8.977 -0.0741  0.9264  0.8227
  123MOL0     H16564   4.642   1.283   8.797  2.8638 -0.8873 -1.8890
  123MOL0     H16565   4.856   1.518   9.091 -0.5271 -0.3146 -2.1741
  123MOL0     H16566   4.790   1.880   9.178  0.7457 -0.0971  0.4251
  123MOL0     H16567   4.765   1.762   9.305 -0.1470  1.8010  1.0868
  123MOL0     H16568   4.906   1.741   9.190 -0.1734 -0.8519  0.7797
  123MOL0     H16569   4.186   1.856   9.064  1.5022 -3.2451  1.9971
  123MOL0     H16570   4.008   1.952   9.206  0.7773 -0.4712 -2.2514
  123MOL0     H16571   3.882   2.022   9.333  0.8484 -2.6418  0.7408
  123MOL0     H16572   3.965   1.990   9.487  2.2660  0.5302 -0.2460
  123MOL0     H16573   3.736   2.076   9.527 -0.4819  1.8471  2.0443
  123MOL0     H16574   3.846   2.199   9.579 -0.3765 -0.6104  1.2493
  123MOL0     H16575   3.745   2.210   9.287 -1.2939  0.7643 -0.7053
  123MOL0     H16576   3.806   2.347   9.383 -0.5976 -0.3248 -1.9072
  123MOL0     H16577   3.544   2.224   9.419  2.2260 -1.7036 -0.2121
  123MOL0     H16578   3.627   2.316   9.549 -0.7501 -0.4654  0.7833
  123MOL0     H16579   3.544   2.442   9.277  4.6683  2.2272 -1.2685
  123MOL0     H16580   3.656   2.510   9.400 -1.0055  1.8793  1.6479
  123MOL0     H16581   3.373   2.427   9.462 -1.8407  3.0105  0.4474
  123MOL0     H16582   3.489   2.504   9.556  1.9734 -1.8284  0.0159
  123MOL0     H16583   3.395   2.599   9.285  2.7130  2.3756 -0.3261
  123MOL0     H16584   3.464   2.716   9.409 -2.0410  1.1909  0.4195
  123MOL0     H16585   3.259   2.647   9.546  2.7637  0.0605  0.5757
  123MOL0     H16586   3.196   2.570   9.395  0.7430 -0.0900  1.5918
  123MOL0     H16587   4.294   2.231   9.378 -2.1177  1.5514  0.4832
  123MOL0     H16588   4.468   2.127   9.226  0.1413  0.2600 -0.3910
  123MOL0     H16589   4.393   1.665   8.975  0.7828  1.8159 -2.3358
  123MOL0     H16590   4.514   1.463   8.857  0.6675 -0.1897 -0.1211
  123MOL0     H16591   3.711   0.791   7.928 -0.0167 -1.2181 -0.8625
  123MOL0     H16592   3.557   0.726   7.764  0.8332 -1.1517 -0.1067
  123MOL0     H16593   3.417   0.566   7.413 -0.9335 -1.4177 -0.5198
  123MOL0     H16594   3.205   0.535   7.324 -2.3194 -0.2372 -2.3275
  123MOL0     H16595   3.064   0.485   7.173  1.4378  0.9245  0.5561
  123MOL0     H16596   2.961   0.611   7.228 -1.2707 -0.3148 -0.1660
  123MOL0     H16597   2.885   0.635   6.994 -1.5566  0.6324  1.4864
  123MOL0     H16598   2.831   0.481   7.066  0.0342  0.5047  1.1074
  123MOL0     H16599   2.993   0.355   6.924  0.3221 -1.3206 -3.0483
  123MOL0     H16600   3.083   0.506   6.895  0.2879 -0.1338 -2.3567
  123MOL0     H16601   2.967   0.412   6.705 -0.6284 -2.2503  0.2855
  123MOL0     H16602   2.944   0.591   6.730  1.3403 -1.5783 -2.1722
  123MOL0     H16603   2.563   0.396   6.690  0.7754  0.4108 -4.1092
  123MOL0     H16604   3.244   0.892   7.073 -1.6195 -0.8123  0.5784
  123MOL0     H16605   3.440   0.963   7.211  0.8339 -0.6457 -4.2168
  124MOL0     O16606   6.488   6.541   8.808 -0.1461  0.2657 -0.9697
  124MOL0     C16607   6.471   6.589   8.920  0.1238  0.3810 -0.2111
  124MOL0     O16608   6.417   6.720   8.948 -0.1423 -0.3652 -0.5076
  124MOL0     C16609   6.407   6.805   8.840  0.0896  0.0889 -0.0885
  124MOL0     C16610   6.283   6.845   8.803 -0.3024  0.0975 -0.1914
  124MOL0     C16611   6.259   6.926   8.688  0.4973 -0.6881 -0.4492
  124MOL0     C16612   6.364   6.962   8.608 -0.3652  1.2835  1.1153
  124MOL0     O16613   6.346   7.038   8.491 -0.8094  0.4618 -0.3816
  124MOL0     C16614   6.266   7.144   8.501 -0.5289 -1.1349  0.5741
  124MOL0     C16615   6.295   7.252   8.390  0.0142  0.4342  0.2273
  124MOL0     C16616   6.174   7.347   8.355  0.7895 -0.1184 -0.1752
  124MOL0     C16617   6.172   7.469   8.441 -0.1306 -1.2897 -0.0026
  124MOL0     C16618   6.016   7.521   8.459 -0.1969  0.3842 -0.4300
  124MOL0     C16619   6.013   7.645   8.555 -1.0443  0.1024  0.5335
  124MOL0     C16620   6.056   7.772   8.483 -0.2132  1.0311  0.1662
  124MOL0     C16621   6.017   7.897   8.564 -0.5121  0.1002 -0.8981
  124MOL0     N16622   6.068   8.026   8.507  0.3914 -0.3026  0.0019
  124MOL0     C16623   6.190   8.076   8.522  0.2194 -0.8140 -0.0629
  124MOL0     C16624   6.180   8.183   8.445 -0.2868 -1.0989  0.2409
  124MOL0     C16625   6.283   8.292   8.427  0.9748 -0.3588  0.5022
  124MOL0     C16626   6.304   8.384   8.548 -0.6325 -0.3812 -0.3640
  124MOL0     C16627   6.189   8.477   8.581  0.0091 -0.1228  0.8064
  124MOL0     C16628   6.072   8.412   8.652  0.0536  0.5018 -0.4475
  124MOL0     O16629   6.107   8.336   8.768  0.4590  0.7481 -0.0744
  124MOL0     C16630   6.010   8.257   8.824 -0.4138  0.9762  0.0030
  124MOL0     C16631   5.872   8.263   8.795  0.5827 -0.3380 -0.0411
  124MOL0     C16632   5.786   8.165   8.846  0.2237 -0.8066  0.4901
  124MOL0     C16633   5.642   8.161   8.803 -0.4124 -0.6145  0.3410
  124MOL0     C16634   5.838   8.068   8.932 -0.0432  0.1450  0.3471
  124MOL0     C16635   5.755   7.962   9.004  0.6435 -0.4018 -1.0332
  124MOL0     O16636   5.818   7.873   9.082  0.2377 -0.6249 -0.1323
  124MOL0     C16637   5.731   7.787   9.146 -0.5851  0.8339 -0.6511
  124MOL0     C16638   5.717   7.653   9.101 -0.5517 -0.3160 -1.0281
  124MOL0     C16639   5.623   7.574   9.166 -0.3295  0.4837 -0.5667
  124MOL0     C16640   5.557   7.611   9.282  0.7479 -1.0280  0.1250
  124MOL0     O16641   5.458   7.526   9.330  0.8734 -0.1325  0.3259
  124MOL0     C16642   5.438   7.520   9.470 -0.1442 -0.2917  0.3804
  124MOL0     C16643   5.398   7.380   9.514 -0.2529 -0.5187  0.3636
  124MOL0     C16644   5.253   7.360   9.495 -1.2614  1.0006 -0.3247
  124MOL0     C16645   5.209   7.212   9.494 -0.8100  0.1896 -0.0048
  124MOL0     C16646   5.194   7.156   9.344 -0.1832  0.2646  0.1265
  124MOL0     C16647   5.326   7.159   9.272  0.1389  0.3259 -1.2124
  124MOL0     C16648   5.322   7.088   9.132  0.6365  0.3438  0.1533
  124MOL0     C16649   5.441   7.102   9.045  0.1605  0.1171 -0.1209
  124MOL0    Cl16650   5.404   7.219   8.918 -0.2226  0.1560 -0.0734
  124MOL0     C16651   5.581   7.734   9.336 -0.7580 -0.0048 -0.2420
  124MOL0     C16652   5.666   7.821   9.266 -0.1668 -0.1220  0.9440
  124MOL0     O16653   5.631   7.967   8.998  0.2330 -0.2546  0.4974
  124MOL0     C16654   5.971   8.071   8.964  0.2174  1.0888  0.1710
  124MOL0     C16655   6.060   8.154   8.908 -0.0180  0.2043  0.4565
  124MOL0     N16656   6.053   8.201   8.381 -0.6914  0.0769  0.5480
  124MOL0     N16657   5.988   8.095   8.420  0.5255 -0.0214  0.9759
  124MOL0     C16658   6.491   6.926   8.646  0.0165 -0.5971  0.0228
  124MOL0     C16659   6.511   6.841   8.761  0.1457 -0.0776 -0.0419
  124MOL0     C16660   6.507   6.517   9.039  0.2437  0.1410  0.3160
  124MOL0     C16661   6.543   6.580   9.158  0.1626 -0.6078 -0.2598
  124MOL0     C16662   6.596   6.520   9.275 -1.0533  1.3634 -0.1013
  124MOL0     C16663   6.640   6.390   9.265  0.1040 -0.0028  0.7050
  124MOL0     O16664   6.710   6.331   9.367 -0.9991 -0.0804  0.3500
  124MOL0     C16665   6.802   6.223   9.350  0.4757 -0.1960 -0.6848
  124MOL0     C16666   6.815   6.168   9.490  0.3265 -0.0527 -0.4020
  124MOL0     C16667   6.858   6.027   9.504 -0.8315 -0.0552  0.7484
  124MOL0     C16668   6.759   5.920   9.462  0.2401 -0.7662 -0.6430
  124MOL0     C16669   6.825   5.785   9.477 -1.0401 -0.8614 -0.3025
  124MOL0     C16670   6.872   5.679   9.491  1.1190 -0.1951  0.6866
  124MOL0     C16671   6.614   6.315   9.144  0.7920 -0.4669  0.1416
  124MOL0     C16672   6.550   6.382   9.031  0.4958  0.0824  0.1722
  124MOL0     H16673   6.196   6.810   8.859 -0.4177  2.0911  0.9788
  124MOL0     H16674   6.157   6.947   8.658  0.5293  0.8670  0.4525
  124MOL0     H16675   6.163   7.108   8.489 -0.6495 -0.7302  0.3743
  124MOL0     H16676   6.277   7.201   8.594  0.6014  0.3349 -0.4187
  124MOL0     H16677   6.373   7.321   8.423 -1.1790  1.6789  0.5253
  124MOL0     H16678   6.310   7.198   8.296 -6.2024  1.3380 -1.7675
  124MOL0     H16679   6.191   7.395   8.259 -1.1845 -0.7663 -0.8749
  124MOL0     H16680   6.079   7.294   8.348  0.7033  0.1200 -0.9096
  124MOL0     H16681   6.215   7.443   8.538 -3.4157 -0.1551  1.9125
  124MOL0     H16682   6.216   7.557   8.392 -1.5057  0.7381  2.1902
  124MOL0     H16683   5.969   7.544   8.363 -3.1388 -0.0555  0.8117
  124MOL0     H16684   5.955   7.444   8.507  0.2070  1.3960  1.8235
  124MOL0     H16685   5.909   7.659   8.587 -2.0738 -2.1100 -1.4836
  124MOL0     H16686   6.076   7.620   8.641 -1.7924 -0.2986  0.9806
  124MOL0     H16687   6.164   7.762   8.470 -0.3607 -2.6772  0.4931
  124MOL0     H16688   6.008   7.779   8.385 -1.9321  0.9273  0.9524
  124MOL0     H16689   6.065   7.879   8.661 -2.9803 -0.3185  0.3227
  124MOL0     H16690   5.908   7.891   8.567 -0.6493  1.9819  1.5428
  124MOL0     H16691   6.279   8.045   8.575  0.5066  0.7003  0.4037
  124MOL0     H16692   6.373   8.238   8.393  1.9665  2.1461 -1.1848
  124MOL0     H16693   6.258   8.358   8.343  2.5237 -1.9532 -1.3342
  124MOL0     H16694   6.394   8.446   8.536 -1.5463  0.6531 -2.4862
  124MOL0     H16695   6.321   8.316   8.631  2.9643  0.2016 -0.4527
  124MOL0     H16696   6.145   8.523   8.492 -1.5203 -0.0938  1.5486
  124MOL0     H16697   6.220   8.561   8.645  2.8449  0.0695 -0.6484
  124MOL0     H16698   6.019   8.349   8.580 -1.1799  0.4503  0.4856
  124MOL0     H16699   5.998   8.491   8.666  2.2869  2.6340  0.1094
  124MOL0     H16700   5.837   8.348   8.737  1.3307 -0.6605 -0.9833
  124MOL0     H16701   5.576   8.179   8.888 -0.7597 -0.4260  0.0302
  124MOL0     H16702   5.623   8.233   8.724 -2.0532  0.5166  1.7093
  124MOL0     H16703   5.603   8.068   8.761 -0.7708  0.2332 -1.2833
  124MOL0     H16704   5.766   7.608   9.016 -0.6276 -0.7542 -0.8415
  124MOL0     H16705   5.603   7.477   9.123  1.6795 -0.3906  0.3930
  124MOL0     H16706   5.533   7.546   9.518  1.5550  0.6289 -3.1292
  124MOL0     H16707   5.364   7.598   9.489  3.6443  3.6664  0.4465
  124MOL0     H16708   5.460   7.312   9.455 -4.6399 -0.4029 -5.1646
  124MOL0     H16709   5.416   7.354   9.619 -1.6806 -1.2787  0.4342
  124MOL0     H16710   5.231   7.396   9.394  0.8086  2.4511 -0.3110
  124MOL0     H16711   5.196   7.414   9.571 -0.3819  0.7317  0.5352
  124MOL0     H16712   5.293   7.161   9.544 -1.2100  1.0391  1.6290
  124MOL0     H16713   5.121   7.195   9.556 -1.3741 -0.5652 -0.9935
  124MOL0     H16714   5.117   7.210   9.289 -1.6198 -0.0955  1.6979
  124MOL0     H16715   5.165   7.051   9.357  1.9475 -0.4443 -0.3123
  124MOL0     H16716   5.352   7.265   9.260  2.0497 -0.2267 -2.6718
  124MOL0     H16717   5.397   7.104   9.334 -3.0640 -1.4711  1.1116
  124MOL0     H16718   5.233   7.116   9.075 -0.2703  0.2143  1.4714
  124MOL0     H16719   5.318   6.979   9.146  2.5151 -0.2791 -3.0049
  124MOL0     H16720   5.475   7.005   9.008 -0.8798 -1.0173  1.7615
  124MOL0     H16721   5.520   7.136   9.112 -1.7176 -0.1741  2.3655
  124MOL0     H16722   5.517   7.778   9.412 -2.3011 -1.9756 -0.3173
  124MOL0     H16723   5.684   7.917   9.314  1.2278 -0.0654  0.3465
  124MOL0     H16724   6.014   7.981   9.008  0.5762  0.8140 -0.7115
  124MOL0     H16725   6.165   8.139   8.930  1.0516  2.0279 -2.7920
  124MOL0     H16726   6.574   6.962   8.585 -2.8124 -1.9703 -5.2946
  124MOL0     H16727   6.609   6.812   8.799  2.0624  3.1140 -2.1239
  124MOL0     H16728   6.513   6.683   9.168  2.1642  0.0701 -0.7745
  124MOL0     H16729   6.598   6.576   9.368 -3.0613  0.9547  0.2409
  124MOL0     H16730   6.754   6.143   9.294 -1.7827  0.4447  0.2464
  124MOL0     H16731   6.904   6.248   9.318  1.0650  2.6692  2.7822
  124MOL0     H16732   6.719   6.179   9.543  1.6750  0.4735  2.0925
  124MOL0     H16733   6.886   6.227   9.548 -1.4911  0.0186  1.9245
  124MOL0     H16734   6.903   6.017   9.603  2.7558  5.2297  0.0703
  124MOL0     H16735   6.944   6.012   9.437 -0.0525 -0.0407  1.7210
  124MOL0     H16736   6.727   5.951   9.363 -0.0646  0.3812 -0.2034
  124MOL0     H16737   6.678   5.926   9.535  1.0557  2.6121  0.1881
  124MOL0     H16738   6.919   5.582   9.488  3.0822  0.6904  1.4043
  124MOL0     H16739   6.646   6.214   9.124 -2.2994 -1.5295 -0.0058
  124MOL0     H16740   6.528   6.324   8.942  0.4455  1.6097 -0.8619
  125MOL0     O16741   4.161   3.318   2.837  0.3139  0.1047 -0.4899
  125MOL0     C16742   4.045   3.306   2.883  0.0943  0.6521 -0.6028
  125MOL0     O16743   3.970   3.191   2.880  0.0067  0.2326  0.3016
  125MOL0     C16744   4.024   3.082   2.824  0.1382  1.4735  0.4908
  125MOL0     C16745   4.087   2.977   2.892  0.0553 -0.4660  0.5371
  125MOL0     C16746   4.145   2.871   2.826 -1.0251 -0.0850 -0.2877
  125MOL0     C16747   4.134   2.866   2.690  0.1614 -0.0758  0.2401
  125MOL0     O16748   4.172   2.766   2.611 -0.0181  0.2671 -0.3644
  125MOL0     C16749   4.295   2.695   2.647  0.5070  0.0350  0.6236
  125MOL0     C16750   4.335   2.603   2.538 -0.3131  0.4031 -0.2935
  125MOL0     C16751   4.224   2.509   2.486 -0.3496  0.4808 -0.8623
  125MOL0     C16752   4.228   2.376   2.571  0.0787 -0.1283  0.3040
  125MOL0     C16753   4.169   2.256   2.502 -0.0435 -0.2475 -0.1329
  125MOL0     C16754   4.284   2.164   2.452 -0.3842  0.3097 -0.5006
  125MOL0     C16755   4.240   2.032   2.388  0.2159 -0.4858 -0.5265
  125MOL0     C16756   4.164   1.937   2.488  0.3364 -0.3925 -0.2552
  125MOL0     N16757   4.153   1.800   2.437 -0.2381  0.5026 -0.1163
  125MOL0     C16758   4.244   1.727   2.353  0.0343  0.1872 -0.4073
  125MOL0     C16759   4.186   1.606   2.340 -0.8253 -0.4955  1.1678
  125MOL0     C16760   4.259   1.485   2.269 -0.2071  0.1687  0.5451
  125MOL0     C16761   4.331   1.404   2.381  0.6301 -0.0748 -0.9489
  125MOL0     C16762   4.418   1.282   2.335  0.8219  0.5543 -0.9650
  125MOL0     C16763   4.440   1.198   2.460  1.1148 -0.5495  0.8957
  125MOL0     O16764   4.500   1.272   2.564  0.1124  0.2757 -0.2013
  125MOL0     C16765   4.591   1.195   2.636 -0.6695  0.9223 -0.0043
  125MOL0     C16766   4.684   1.269   2.703  0.0880 -0.5332  0.2434
  125MOL0     C16767   4.773   1.218   2.799  0.6886  0.3975  0.9604
  125MOL0     C16768   4.859   1.315   2.865 -0.0614 -0.2846  0.3919
  125MOL0     C16769   4.764   1.080   2.823 -0.0366  0.5788  0.2111
  125MOL0     C16770   4.851   1.002   2.912 -0.2566  0.2958  0.8613
  125MOL0     O16771   4.832   0.864   2.910  0.3860 -0.4161  0.1382
  125MOL0     C16772   4.909   0.796   2.997 -0.5713 -0.2503 -0.5725
  125MOL0     C16773   4.830   0.714   3.073 -0.7216 -0.4337  0.3423
  125MOL0     C16774   4.890   0.645   3.174  0.6906  0.2215 -0.2795
  125MOL0     C16775   5.025   0.642   3.197 -0.0366 -0.7154  0.0595
  125MOL0     O16776   5.075   0.552   3.282 -1.0231 -0.3760  0.9878
  125MOL0     C16777   5.203   0.578   3.346 -0.9759  0.3710 -1.3634
  125MOL0     C16778   5.186   0.663   3.477  0.0602 -0.0648  1.0099
  125MOL0     C16779   5.074   0.608   3.574 -1.4208 -0.2926  0.0830
  125MOL0     C16780   5.068   0.713   3.684 -0.8347 -0.4457  0.3020
  125MOL0     C16781   5.019   0.647   3.817 -0.2500  0.1108  0.5381
  125MOL0     C16782   4.973   0.764   3.909  0.3120 -0.2872  0.1645
  125MOL0     C16783   5.092   0.833   3.985  0.4988 -0.1324  1.0291
  125MOL0     C16784   5.141   0.748   4.101  0.6749 -0.0949 -0.3432
  125MOL0    Cl16785   5.025   0.795   4.240 -0.0102  0.3623 -0.1722
  125MOL0     C16786   5.109   0.712   3.108 -0.3064  0.2286 -0.2601
  125MOL0     C16787   5.049   0.789   3.013  0.1024  0.4630 -0.2823
  125MOL0     O16788   4.908   1.068   2.995  0.1373 -0.1998 -0.6524
  125MOL0     C16789   4.668   1.007   2.755 -0.4878 -0.2370 -0.2929
  125MOL0     C16790   4.595   1.055   2.659 -0.3664 -1.3488 -0.7720
  125MOL0     N16791   4.067   1.603   2.406  0.4259 -0.5993 -0.7008
  125MOL0     N16792   4.056   1.708   2.472  0.8245 -0.4276  0.6091
  125MOL0     C16793   4.072   2.973   2.614 -0.1583 -0.8779 -0.7595
  125MOL0     C16794   4.022   3.077   2.682  0.4313  0.0004  0.5540
  125MOL0     C16795   3.996   3.431   2.949 -0.5966 -0.0254  0.4107
  125MOL0     C16796   4.080   3.524   3.000 -0.2195  0.4178 -0.6088
  125MOL0     C16797   4.034   3.637   3.071  0.1504  0.9095  0.2719
  125MOL0     C16798   3.897   3.661   3.077  0.1982  0.3646 -0.5801
  125MOL0     O16799   3.837   3.769   3.132  0.0780 -0.5322  0.5495
  125MOL0     C16800   3.908   3.888   3.168 -0.6521 -0.3321  0.0356
  125MOL0     C16801   3.872   3.994   3.063 -0.0692  0.6840 -0.1163
  125MOL0     C16802   3.934   3.949   2.929  0.0693  0.5858  0.9826
  125MOL0     C16803   3.987   4.066   2.839  0.8198 -0.9383 -0.1660
  125MOL0     C16804   4.132   4.117   2.862  0.9398  0.7344  0.4729
  125MOL0     C16805   4.242   4.164   2.872  0.3982  1.0394  0.5582
  125MOL0     C16806   3.812   3.570   3.025  0.0722  0.5140 -0.2449
  125MOL0     C16807   3.856   3.448   2.973  0.4281  0.2657  0.1531
  125MOL0     H16808   4.087   2.980   3.001  0.5811 -0.7915  0.5467
  125MOL0     H16809   4.203   2.797   2.879 -3.8906 -0.3864  2.7606
  125MOL0     H16810   4.381   2.763   2.656  1.1391 -0.1684 -2.7389
  125MOL0     H16811   4.271   2.631   2.732 -2.3426 -0.6645 -0.5976
  125MOL0     H16812   4.369   2.656   2.449 -1.5270 -0.0331 -1.0399
  125MOL0     H16813   4.427   2.557   2.576 -2.8920 -3.7350  1.7201
  125MOL0     H16814   4.129   2.562   2.480 -0.1647  0.7377 -1.5430
  125MOL0     H16815   4.246   2.477   2.384  0.3236 -3.1821  0.2781
  125MOL0     H16816   4.330   2.364   2.610  0.3841 -1.3625 -0.8264
  125MOL0     H16817   4.174   2.395   2.664  0.9875 -0.5826  0.9456
  125MOL0     H16818   4.103   2.203   2.570  1.9263 -3.1131 -0.2889
  125MOL0     H16819   4.114   2.280   2.410  1.3046  0.2180 -0.8461
  125MOL0     H16820   4.340   2.222   2.377  1.6726 -1.2421 -0.2571
  125MOL0     H16821   4.348   2.130   2.533 -0.4362 -0.9692 -0.9713
  125MOL0     H16822   4.184   2.053   2.297 -2.9449  0.8516  1.5335
  125MOL0     H16823   4.340   1.991   2.371  0.3230 -0.5523  0.2354
  125MOL0     H16824   4.063   1.972   2.512 -0.1530 -1.5531 -0.5569
  125MOL0     H16825   4.226   1.937   2.578  2.2161 -1.8819 -1.4880
  125MOL0     H16826   4.335   1.762   2.304 -0.8103  3.3818  0.0819
  125MOL0     H16827   4.193   1.415   2.217  3.6142 -3.0825 -0.3817
  125MOL0     H16828   4.334   1.519   2.197 -1.6793  0.3351 -0.9613
  125MOL0     H16829   4.262   1.383   2.464  0.7757  2.2626 -0.1835
  125MOL0     H16830   4.399   1.475   2.429 -1.5760  2.3274 -1.1994
  125MOL0     H16831   4.520   1.320   2.318  1.4314  0.5974  2.1752
  125MOL0     H16832   4.374   1.234   2.247 -0.7907  1.8360 -0.8928
  125MOL0     H16833   4.489   1.103   2.439 -0.8520 -1.8230  1.7467
  125MOL0     H16834   4.341   1.157   2.484 -0.2640  0.0260 -2.9913
  125MOL0     H16835   4.657   1.374   2.691  0.1226 -0.3673  1.4577
  125MOL0     H16836   4.832   1.418   2.841 -1.8687 -0.4726  1.4155
  125MOL0     H16837   4.857   1.307   2.974  1.9831  2.3594  0.7296
  125MOL0     H16838   4.964   1.304   2.837  0.6471 -0.5888  2.9499
  125MOL0     H16839   4.726   0.705   3.043 -0.8043 -0.6982  0.6958
  125MOL0     H16840   4.832   0.579   3.237  0.8326  1.7085  1.5115
  125MOL0     H16841   5.252   0.485   3.374 -1.3262  1.1892  2.6186
  125MOL0     H16842   5.280   0.622   3.282  1.2722 -0.9915  0.2760
  125MOL0     H16843   5.277   0.678   3.537  1.2720 -4.7638  0.7270
  125MOL0     H16844   5.175   0.764   3.438  0.5714 -0.9052 -1.4582
  125MOL0     H16845   5.101   0.506   3.602 -0.5070  0.4195  1.9925
  125MOL0     H16846   4.978   0.603   3.522 -0.9218 -1.2681 -0.7698
  125MOL0     H16847   5.171   0.744   3.703 -1.3649 -0.0126  2.7916
  125MOL0     H16848   5.003   0.793   3.645 -2.0309 -2.1749 -1.4694
  125MOL0     H16849   5.073   0.563   3.860 -4.3246 -3.1113  0.0489
  125MOL0     H16850   4.929   0.595   3.783 -0.4484  1.0763 -0.4886
  125MOL0     H16851   4.914   0.836   3.853 -0.3653 -1.3219 -0.4782
  125MOL0     H16852   4.897   0.721   3.975 -1.9280  0.9627 -1.4730
  125MOL0     H16853   5.046   0.925   4.024 -1.0366  0.7202 -2.3402
  125MOL0     H16854   5.175   0.855   3.916  0.9671  0.7202  1.8471
  125MOL0     H16855   5.241   0.758   4.144  0.2389 -2.8472  1.5975
  125MOL0     H16856   5.135   0.644   4.067  0.0859 -0.6545  1.3751
  125MOL0     H16857   5.217   0.701   3.105 -0.0708  1.6066  1.4160
  125MOL0     H16858   5.119   0.850   2.956  2.5466 -1.2341  0.7114
  125MOL0     H16859   4.661   0.899   2.748  0.4726 -0.4041  1.0301
  125MOL0     H16860   4.526   0.991   2.604 -2.1705  0.8501 -1.1997
  125MOL0     H16861   4.075   2.979   2.506  0.6724  2.4550 -0.6749
  125MOL0     H16862   3.987   3.160   2.622 -1.3159 -2.2687 -1.7528
  125MOL0     H16863   4.185   3.499   2.999 -0.2629  0.0765  0.6907
  125MOL0     H16864   4.112   3.700   3.114  2.2262 -2.0377  1.1924
  125MOL0     H16865   3.880   3.935   3.263  2.0420  2.3710 -0.3516
  125MOL0     H16866   4.016   3.871   3.164 -0.7325 -0.7941 -0.2351
  125MOL0     H16867   3.911   4.091   3.092 -2.0753  1.2709  0.8172
  125MOL0     H16868   3.763   4.007   3.062 -0.0445  2.8176  4.0082
  125MOL0     H16869   3.870   3.887   2.866  2.5327 -0.5900 -0.5699
  125MOL0     H16870   4.023   3.886   2.942  1.3251  2.0654  0.0220
  125MOL0     H16871   3.931   4.159   2.856 -0.5437 -1.2726 -2.3782
  125MOL0     H16872   3.983   4.033   2.734 -0.1550 -2.6564  0.3756
  125MOL0     H16873   4.329   4.225   2.885  1.4487 -0.3831  0.4291
  125MOL0     H16874   3.706   3.587   3.040 -0.0312  0.8276 -1.2490
  125MOL0     H16875   3.784   3.370   2.955 -1.5539  1.3598  2.6592
  126MOL0     O16876   3.309   2.326   2.122 -0.9992  0.8487 -0.5868
  126MOL0     C16877   3.249   2.381   2.207  0.4187  0.1107  0.0147
  126MOL0     O16878   3.233   2.330   2.331 -0.0681  0.0397  0.4985
  126MOL0     C16879   3.288   2.209   2.359 -0.0481 -0.6231  0.1126
  126MOL0     C16880   3.409   2.209   2.429  0.2894 -0.5521  0.0349
  126MOL0     C16881   3.463   2.086   2.474  0.4764 -0.4599  0.5033
  126MOL0     C16882   3.411   1.956   2.443  0.7635 -0.7474  0.0833
  126MOL0     O16883   3.471   1.846   2.500  0.3819  0.2056  0.0484
  126MOL0     C16884   3.428   1.721   2.448  0.8508  0.2408 -0.2575
  126MOL0     C16885   3.491   1.607   2.531  0.1439  0.1077 -0.4405
  126MOL0     C16886   3.642   1.617   2.502  0.5684  0.2052 -0.8552
  126MOL0     C16887   3.712   1.513   2.596  0.1565 -0.3586  0.0107
  126MOL0     C16888   3.711   1.546   2.740  0.2819 -0.1515  0.7713
  126MOL0     C16889   3.773   1.459   2.846 -0.1880 -0.3470 -0.4566
  126MOL0     C16890   3.924   1.430   2.824  0.3353 -0.3502 -0.4679
  126MOL0     C16891   4.008   1.552   2.840  0.3129 -0.2936  0.0773
  126MOL0     N16892   4.053   1.596   2.974  0.3719  0.5703  0.6753
  126MOL0     C16893   4.021   1.557   3.104 -0.3548 -0.3719 -0.7904
  126MOL0     C16894   4.099   1.644   3.184 -0.2567  0.7011  0.2281
  126MOL0     C16895   4.093   1.668   3.331 -0.3861  0.0009  0.3447
  126MOL0     C16896   4.102   1.539   3.414 -1.1516 -0.7787 -0.3000
  126MOL0     C16897   4.228   1.453   3.370 -1.0197  0.2768  0.9691
  126MOL0     C16898   4.280   1.363   3.483 -0.4955  0.6186  0.7245
  126MOL0     O16899   4.180   1.283   3.546 -0.6236 -1.1296 -0.4095
  126MOL0     C16900   4.218   1.227   3.672  0.3595  0.5425 -0.3443
  126MOL0     C16901   4.350   1.187   3.710 -0.3849  0.0048  0.3566
  126MOL0     C16902   4.372   1.162   3.843 -0.7601 -0.2270 -0.1998
  126MOL0     C16903   4.525   1.157   3.888  0.3338  0.0493 -1.1391
  126MOL0     C16904   4.260   1.131   3.930 -0.1434 -0.2770 -0.5568
  126MOL0     C16905   4.282   1.060   4.061 -0.3994 -0.2984 -1.2220
  126MOL0     O16906   4.393   0.981   4.070 -0.1895  0.1642 -0.7075
  126MOL0     C16907   4.423   0.943   4.196  0.2474 -0.5948 -0.7668
  126MOL0     C16908   4.381   0.824   4.247 -1.1750  0.6865  0.5138
  126MOL0     C16909   4.443   0.774   4.363 -0.6984  0.7399  0.5824
  126MOL0     C16910   4.548   0.850   4.432  0.7812  0.3805  0.1974
  126MOL0     O16911   4.599   0.795   4.541 -0.1031  0.0876 -0.8158
  126MOL0     C16912   4.685   0.880   4.622 -0.8582  0.2099 -0.0240
  126MOL0     C16913   4.722   0.800   4.745  0.0482  0.6311 -0.1251
  126MOL0     C16914   4.817   0.876   4.833 -0.1144  0.7605 -1.0620
  126MOL0     C16915   4.886   0.784   4.939 -0.1284 -0.0029  0.5155
  126MOL0     C16916   4.999   0.695   4.901 -0.7242  0.1228 -0.4926
  126MOL0     C16917   5.079   0.638   5.015  0.8414 -1.3116 -0.6054
  126MOL0     C16918   5.174   0.532   4.969 -0.4696  0.1532 -0.0713
  126MOL0     C16919   5.273   0.574   4.853 -0.3438  0.3029  0.5897
  126MOL0    Cl16920   5.396   0.691   4.907  0.2195  0.2928 -0.3992
  126MOL0     C16921   4.586   0.972   4.367  0.3630  1.3484 -0.8224
  126MOL0     C16922   4.516   1.020   4.260  0.3923 -0.7426 -1.0941
  126MOL0     O16923   4.188   1.073   4.148  0.0170 -0.0841  0.2246
  126MOL0     C16924   4.133   1.171   3.893 -0.0972  0.1550 -0.3277
  126MOL0     C16925   4.116   1.223   3.766  0.5264 -0.0647 -0.4176
  126MOL0     N16926   4.184   1.716   3.098  0.8588 -0.7923  0.3301
  126MOL0     N16927   4.157   1.687   2.975  0.5304  0.7343  0.6680
  126MOL0     C16928   3.284   1.961   2.379  0.0038  0.4388  1.0749
  126MOL0     C16929   3.231   2.085   2.330 -0.6271  0.0837 -0.2886
  126MOL0     C16930   3.157   2.487   2.158 -0.7011 -0.7983  0.9638
  126MOL0     C16931   3.048   2.541   2.236 -0.4618  0.8142 -0.1579
  126MOL0     C16932   2.988   2.655   2.182  0.1942  0.4510 -0.2323
  126MOL0     C16933   3.023   2.710   2.058 -0.7483  0.1785  0.7118
  126MOL0     O16934   2.958   2.820   2.013 -0.9113 -0.0549  0.1754
  126MOL0     C16935   3.019   2.944   2.054 -0.0756 -0.3856 -0.5907
  126MOL0     C16936   2.924   3.047   2.118  0.0496  0.0411  0.2574
  126MOL0     C16937   2.979   3.191   2.075  0.9051  0.5939 -0.5664
  126MOL0     C16938   2.891   3.299   2.148 -0.0520 -0.3033 -0.6556
  126MOL0     C16939   2.908   3.288   2.296  0.6014 -0.7612  0.3475
  126MOL0     C16940   2.932   3.283   2.414 -0.1671  0.3671 -0.2700
  126MOL0     C16941   3.124   2.655   1.977  1.1224  0.9938  0.3971
  126MOL0     C16942   3.185   2.542   2.017 -0.1406 -0.9398 -0.2368
  126MOL0     H16943   3.458   2.301   2.459  1.4568  0.0129 -3.1535
  126MOL0     H16944   3.548   2.095   2.540  1.0461  1.3591 -0.4057
  126MOL0     H16945   3.319   1.713   2.444  0.8783  0.1913 -1.4306
  126MOL0     H16946   3.450   1.711   2.341 -0.3450 -1.0415 -0.4258
  126MOL0     H16947   3.449   1.629   2.629 -0.6823 -3.2001  0.0893
  126MOL0     H16948   3.457   1.511   2.491  1.2051 -0.1527 -0.7655
  126MOL0     H16949   3.652   1.592   2.396 -2.0153  2.1533 -1.6474
  126MOL0     H16950   3.681   1.716   2.525  2.8699 -0.4748 -1.5327
  126MOL0     H16951   3.676   1.411   2.580  1.4464 -0.5335 -2.0546
  126MOL0     H16952   3.818   1.508   2.568  0.8768 -0.0211  2.4420
  126MOL0     H16953   3.763   1.642   2.737 -0.0305  0.0121 -2.0195
  126MOL0     H16954   3.613   1.580   2.774  1.1006  3.7248 -0.2925
  126MOL0     H16955   3.770   1.517   2.939  1.2359  2.8521 -2.2431
  126MOL0     H16956   3.720   1.367   2.875  1.4884 -0.3974  3.0351
  126MOL0     H16957   3.957   1.358   2.901 -1.4658  0.4154  1.1067
  126MOL0     H16958   3.929   1.380   2.727 -1.3943  2.3072 -2.0361
  126MOL0     H16959   3.954   1.637   2.797 -1.4027 -0.3481  1.9961
  126MOL0     H16960   4.092   1.536   2.772  2.1445  2.2360  1.5748
  126MOL0     H16961   3.942   1.489   3.133  1.4692 -2.7551 -1.1164
  126MOL0     H16962   4.185   1.727   3.339  0.4153 -1.3038  0.9397
  126MOL0     H16963   4.015   1.736   3.367  0.0552 -0.1910  1.7080
  126MOL0     H16964   4.006   1.488   3.406 -2.5702  1.1742  2.3325
  126MOL0     H16965   4.114   1.560   3.521  2.6111  0.2092 -0.7396
  126MOL0     H16966   4.303   1.521   3.328 -3.0371  1.9664 -0.0661
  126MOL0     H16967   4.212   1.393   3.280  1.1424 -0.5373  1.0619
  126MOL0     H16968   4.334   1.414   3.563 -0.3428  0.4418  0.7335
  126MOL0     H16969   4.356   1.303   3.432 -3.0337 -0.8993 -1.5328
  126MOL0     H16970   4.436   1.204   3.647  0.2544 -1.2289  0.8692
  126MOL0     H16971   4.550   1.204   3.984  0.5640 -1.1203 -0.6062
  126MOL0     H16972   4.564   1.055   3.890  2.2548  0.7325  1.2459
  126MOL0     H16973   4.579   1.221   3.818  1.6226 -0.0384 -0.2529
  126MOL0     H16974   4.298   0.768   4.203  1.1682 -0.3900 -2.9591
  126MOL0     H16975   4.409   0.678   4.399 -1.9489  1.6774  2.0437
  126MOL0     H16976   4.780   0.895   4.571 -1.2176 -2.7035 -1.7944
  126MOL0     H16977   4.632   0.971   4.651 -0.1705  0.5209  0.2697
  126MOL0     H16978   4.625   0.780   4.791 -0.9667  0.5997 -2.1337
  126MOL0     H16979   4.778   0.714   4.707  1.4944  1.0997  0.9028
  126MOL0     H16980   4.759   0.950   4.890  0.4690  0.7057 -0.3915
  126MOL0     H16981   4.891   0.923   4.767 -1.2849  2.2685 -1.3658
  126MOL0     H16982   4.929   0.858   5.007  2.2667  0.3065 -1.1881
  126MOL0     H16983   4.813   0.724   4.994  1.6040 -2.3968  0.3387
  126MOL0     H16984   5.067   0.749   4.833 -1.9904 -0.0085 -1.9175
  126MOL0     H16985   4.951   0.613   4.846 -0.0374 -1.4264  1.1332
  126MOL0     H16986   5.125   0.720   5.072 -2.6966 -0.3531  1.2368
  126MOL0     H16987   5.002   0.608   5.087  0.0298  4.4824  1.4925
  126MOL0     H16988   5.119   0.440   4.949 -0.0025 -0.4605  1.3310
  126MOL0     H16989   5.232   0.506   5.058 -1.1660 -4.0199 -0.6478
  126MOL0     H16990   5.224   0.625   4.770  0.8236  1.7192  0.7290
  126MOL0     H16991   5.327   0.488   4.813 -1.3815  0.8578 -2.1987
  126MOL0     H16992   4.668   1.033   4.405  0.4535  1.2792 -0.9046
  126MOL0     H16993   4.537   1.114   4.209  1.9641 -2.4178 -3.7548
  126MOL0     H16994   4.040   1.158   3.948  1.0325 -0.6106  1.4783
  126MOL0     H16995   4.013   1.238   3.737  0.0604  0.6474  1.4678
  126MOL0     H16996   3.218   1.875   2.366 -0.1147  0.4422  1.6360
  126MOL0     H16997   3.126   2.086   2.303 -0.7329 -1.8269 -0.1366
  126MOL0     H16998   3.010   2.491   2.324  1.0355 -0.3257 -0.1258
  126MOL0     H16999   2.906   2.695   2.241 -0.1716  1.4593 -1.3695
  126MOL0     H17000   3.100   2.928   2.126 -0.7897 -1.7527 -0.0625
  126MOL0     H17001   3.046   2.993   1.960 -2.9633 -1.3282 -2.0341
  126MOL0     H17002   2.915   3.034   2.226 -1.7061 -2.3700 -0.1042
  126MOL0     H17003   2.828   3.036   2.067  2.1089 -0.5966 -3.9798
  126MOL0     H17004   2.971   3.191   1.966 -0.1173 -0.8276 -0.5305
  126MOL0     H17005   3.080   3.216   2.109  1.5887 -2.5999  0.0588
  126MOL0     H17006   2.785   3.285   2.124 -0.9423  0.9170  2.1085
  126MOL0     H17007   2.916   3.403   2.123 -2.0053  1.3752  3.4226
  126MOL0     H17008   2.939   3.277   2.521  0.4808 -2.0655 -0.3866
  126MOL0     H17009   3.142   2.714   1.888 -1.9476  1.4744 -0.0169
  126MOL0     H17010   3.262   2.500   1.953 -0.7505 -1.7020 -0.4850
  127MOL0     O17011   5.613   1.785   7.372 -0.7798  0.1593  0.1266
  127MOL0     C17012   5.595   1.672   7.421 -0.2087  0.4942  0.8603
  127MOL0     O17013   5.488   1.592   7.402  0.1892  0.4822  0.0467
  127MOL0     C17014   5.402   1.634   7.306  0.2408 -0.0736  0.4707
  127MOL0     C17015   5.418   1.601   7.171 -0.4840  0.9204 -0.0311
  127MOL0     C17016   5.304   1.616   7.084 -0.3519  0.9345  0.2466
  127MOL0     C17017   5.178   1.677   7.128  0.1305 -0.5909 -0.4597
  127MOL0     O17018   5.074   1.687   7.042 -0.3319  0.6957 -0.4813
  127MOL0     C17019   5.012   1.813   7.010  0.0932  0.2795  0.2261
  127MOL0     C17020   4.867   1.814   7.065 -0.4488  0.2402  0.4043
  127MOL0     C17021   4.787   1.946   7.064 -0.5828  0.2548  0.1956
  127MOL0     C17022   4.636   1.913   7.089 -0.2527  0.5911 -0.2724
  127MOL0     C17023   4.561   2.043   7.115  0.5776  0.2065 -0.1878
  127MOL0     C17024   4.426   2.037   7.180 -0.6279  0.2275  0.4380
  127MOL0     C17025   4.309   1.991   7.090 -0.6090  0.3612 -0.1243
  127MOL0     C17026   4.169   1.961   7.155 -0.4324  0.4483 -0.3352
  127MOL0     N17027   4.064   2.069   7.165 -0.1844  0.8228  0.4120
  127MOL0     C17028   3.938   2.043   7.111 -0.3146 -0.1441  0.1372
  127MOL0     C17029   3.867   2.156   7.151 -1.0977  0.5822 -0.1258
  127MOL0     C17030   3.727   2.184   7.113 -0.5714  0.4711  0.1778
  127MOL0     C17031   3.615   2.100   7.195 -0.3983 -0.5827 -0.5903
  127MOL0     C17032   3.624   2.122   7.347  0.5943 -0.9479 -0.9312
  127MOL0     C17033   3.571   2.264   7.393  0.0015  0.9730  0.2380
  127MOL0     O17034   3.530   2.255   7.530  0.0453  0.2936 -0.1651
  127MOL0     C17035   3.401   2.204   7.551 -0.5679  0.0037 -0.1928
  127MOL0     C17036   3.288   2.228   7.470 -0.1653  0.5909  0.3438
  127MOL0     C17037   3.160   2.169   7.498  0.3236  0.5824 -0.3154
  127MOL0     C17038   3.039   2.208   7.418 -0.2587  1.0093  0.7005
  127MOL0     C17039   3.156   2.073   7.607  0.1548  0.2039 -0.4189
  127MOL0     C17040   3.035   1.988   7.651 -0.0640 -0.5034 -0.4882
  127MOL0     O17041   3.037   1.911   7.766  0.0109 -0.1853 -0.7784
  127MOL0     C17042   2.923   1.854   7.811  0.3191 -1.1515 -0.1726
  127MOL0     C17043   2.810   1.929   7.852  0.1220  0.6863  0.9433
  127MOL0     C17044   2.696   1.859   7.904 -0.6761  0.2813 -0.0243
  127MOL0     C17045   2.699   1.725   7.928  0.6555 -0.4940  0.2663
  127MOL0     O17046   2.592   1.669   7.992  0.6401 -0.2342  0.1130
  127MOL0     C17047   2.572   1.529   7.971  0.0307 -0.4928  1.1423
  127MOL0     C17048   2.423   1.493   7.968  0.2376 -0.1545  0.5252
  127MOL0     C17049   2.421   1.346   7.921  0.1698  0.0182 -0.6884
  127MOL0     C17050   2.391   1.318   7.774 -0.0296 -0.5223 -0.1092
  127MOL0     C17051   2.388   1.168   7.744  0.5688 -0.0731  0.2149
  127MOL0     C17052   2.259   1.104   7.802 -0.4378  1.2167  0.7880
  127MOL0     C17053   2.226   0.975   7.732  0.1297  0.5328 -0.3542
  127MOL0     C17054   2.130   0.899   7.814  0.4861  0.1004 -0.8488
  127MOL0    Cl17055   1.994   0.998   7.871  0.3840  0.3908 -0.1189
  127MOL0     C17056   2.811   1.655   7.886 -0.4610 -0.4459 -0.8011
  127MOL0     C17057   2.918   1.718   7.830  0.4480  0.0903 -0.3330
  127MOL0     O17058   2.937   1.993   7.581  0.6567 -0.3415  0.5289
  127MOL0     C17059   3.272   2.065   7.688  0.5629  0.1256 -1.1343
  127MOL0     C17060   3.397   2.110   7.649 -0.3734 -0.1610  0.4263
  127MOL0     N17061   3.961   2.238   7.215 -0.3472 -1.2200 -0.6659
  127MOL0     N17062   4.085   2.191   7.230  0.3887  0.3759  0.6975
  127MOL0     C17063   5.177   1.722   7.257 -0.2726  0.4537  0.0702
  127MOL0     C17064   5.276   1.699   7.346 -1.3104  0.1016  0.1653
  127MOL0     C17065   5.710   1.616   7.501 -0.0533 -0.3443 -0.4910
  127MOL0     C17066   5.802   1.700   7.567  1.0324 -0.3783  0.1080
  127MOL0     C17067   5.894   1.643   7.654 -0.0522 -1.1418 -0.3020
  127MOL0     C17068   5.895   1.511   7.679  0.2679 -0.4390  0.1849
  127MOL0     O17069   5.990   1.452   7.758  0.6705 -0.4740 -0.2893
  127MOL0     C17070   6.120   1.433   7.711  1.1381  0.0681  0.4497
  127MOL0     C17071   6.193   1.336   7.809 -0.6489 -0.1323 -0.4034
  127MOL0     C17072   6.166   1.186   7.792  0.1213  0.2671 -0.1252
  127MOL0     C17073   6.225   1.112   7.656 -0.5051 -0.4628 -0.0130
  127MOL0     C17074   6.370   1.099   7.678 -0.2582 -0.5803 -0.8194
  127MOL0     C17075   6.493   1.092   7.688 -0.6122 -0.4910 -0.0319
  127MOL0     C17076   5.806   1.427   7.607 -0.1330  0.7204 -0.2519
  127MOL0     C17077   5.719   1.480   7.517  0.2318 -0.2407 -0.0295
  127MOL0     H17078   5.511   1.557   7.135 -1.5507  0.4245 -2.3755
  127MOL0     H17079   5.312   1.585   6.981  1.4234  2.5034 -0.1443
  127MOL0     H17080   5.074   1.899   7.040  1.2424 -0.1997 -0.6903
  127MOL0     H17081   4.999   1.824   6.902  1.7855 -1.1828 -0.1881
  127MOL0     H17082   4.814   1.741   7.004  0.9637 -2.3636  2.0900
  127MOL0     H17083   4.872   1.768   7.165 -0.5404  0.7738  0.6582
  127MOL0     H17084   4.827   2.008   7.145 -0.2795  1.3723 -0.7916
  127MOL0     H17085   4.793   1.996   6.967  0.6868 -0.2197  0.0095
  127MOL0     H17086   4.582   1.854   7.014 -0.7218  1.4183 -0.6081
  127MOL0     H17087   4.629   1.848   7.177 -0.7698 -2.7182 -2.5747
  127MOL0     H17088   4.628   2.102   7.179  1.8476  0.1565 -1.4259
  127MOL0     H17089   4.551   2.104   7.025 -0.6930  0.7853  0.3215
  127MOL0     H17090   4.424   1.983   7.275  0.0839  2.2747  1.6894
  127MOL0     H17091   4.399   2.138   7.212 -1.3444 -0.0177  0.6287
  127MOL0     H17092   4.300   2.057   7.003  2.1811  1.2203  0.1455
  127MOL0     H17093   4.329   1.891   7.052  0.4766  0.7367 -0.5846
  127MOL0     H17094   4.189   1.925   7.256  0.4673  2.4849  0.2555
  127MOL0     H17095   4.114   1.873   7.119  0.3178 -0.2937  0.3103
  127MOL0     H17096   3.904   1.964   7.044  1.5293 -2.8831  2.2058
  127MOL0     H17097   3.709   2.291   7.125  1.9233  0.8380  1.1038
  127MOL0     H17098   3.700   2.176   7.007  2.9953 -2.1473 -0.7165
  127MOL0     H17099   3.624   1.992   7.181  0.3083 -0.8596  1.5947
  127MOL0     H17100   3.513   2.129   7.167 -2.0103 -1.9171  3.2056
  127MOL0     H17101   3.725   2.104   7.385 -0.8029  0.0983  3.8811
  127MOL0     H17102   3.553   2.051   7.389  1.3680  0.0647  2.3554
  127MOL0     H17103   3.490   2.296   7.327  1.5924 -0.7786 -2.7269
  127MOL0     H17104   3.656   2.333   7.398 -0.4547  1.4840  1.4343
  127MOL0     H17105   3.293   2.289   7.380  0.4445 -1.5527 -1.1484
  127MOL0     H17106   2.987   2.127   7.367 -0.6373  1.2222  0.7465
  127MOL0     H17107   2.958   2.254   7.474 -1.6681  2.3022 -2.1678
  127MOL0     H17108   3.062   2.292   7.352 -1.3736  0.2316 -0.7293
  127MOL0     H17109   2.802   2.036   7.842 -3.0098  0.3627 -2.1077
  127MOL0     H17110   2.609   1.912   7.942 -0.6691 -0.4140  1.0093
  127MOL0     H17111   2.589   1.512   7.864 -0.3261 -2.6345  1.3787
  127MOL0     H17112   2.633   1.458   8.028  3.0809  1.1505  0.1651
  127MOL0     H17113   2.365   1.511   8.059 -2.7389 -2.0363 -0.8382
  127MOL0     H17114   2.375   1.554   7.891 -0.9765 -0.7231  0.8020
  127MOL0     H17115   2.338   1.306   7.980 -1.1939  2.7361 -0.6152
  127MOL0     H17116   2.511   1.287   7.944 -0.3683 -0.4067  0.4032
  127MOL0     H17117   2.303   1.370   7.735  1.6284  1.3439 -1.5723
  127MOL0     H17118   2.471   1.363   7.715  1.2926  1.1405  2.6952
  127MOL0     H17119   2.478   1.114   7.775 -0.4632 -2.4035 -0.5724
  127MOL0     H17120   2.380   1.156   7.635  0.0029  0.7277  0.1598
  127MOL0     H17121   2.252   1.087   7.910 -4.6667 -0.4456  0.4418
  127MOL0     H17122   2.182   1.177   7.778 -1.2169 -0.4264 -2.3186
  127MOL0     H17123   2.307   0.911   7.696 -0.2254  0.7037 -1.5012
  127MOL0     H17124   2.173   0.998   7.639 -1.5073 -1.0758  0.0997
  127MOL0     H17125   2.188   0.857   7.897  1.0795  0.7779 -0.9090
  127MOL0     H17126   2.084   0.815   7.762 -0.7550 -1.7684  2.8933
  127MOL0     H17127   2.826   1.548   7.900  0.6433 -0.3727 -1.3185
  127MOL0     H17128   3.008   1.667   7.799  0.6964  0.2263  0.1599
  127MOL0     H17129   3.263   2.001   7.775 -0.7399  0.9038 -0.6732
  127MOL0     H17130   3.495   2.086   7.690 -1.0904  0.8184  2.8697
  127MOL0     H17131   5.093   1.772   7.305  0.9805  1.6411  1.0966
  127MOL0     H17132   5.263   1.729   7.450 -1.7153  2.7408 -0.5783
  127MOL0     H17133   5.775   1.804   7.558  0.1858 -0.6841 -1.2130
  127MOL0     H17134   5.962   1.708   7.709 -3.5416  2.9132 -0.3097
  127MOL0     H17135   6.129   1.405   7.606 -0.3607 -0.5435  0.4517
  127MOL0     H17136   6.184   1.521   7.724  1.5100 -0.4475  2.5905
  127MOL0     H17137   6.165   1.368   7.910 -1.0292  1.2355 -0.9134
  127MOL0     H17138   6.300   1.350   7.793 -0.3973 -1.8714 -0.3857
  127MOL0     H17139   6.058   1.168   7.784  0.4295 -1.0797 -2.2037
  127MOL0     H17140   6.214   1.133   7.875  0.5559 -2.0685 -1.7677
  127MOL0     H17141   6.197   1.173   7.571 -0.3501 -1.0043 -0.4593
  127MOL0     H17142   6.178   1.013   7.647  0.3725 -0.9828  0.8676
  127MOL0     H17143   6.599   1.084   7.676 -0.8325 -1.9186 -1.3359
  127MOL0     H17144   5.803   1.321   7.630 -0.5780  1.0659  1.4608
  127MOL0     H17145   5.657   1.416   7.455  0.2931 -2.6187  2.1759
  128MOL0     O17146   5.829  11.124   4.701  0.7524 -0.3985 -0.3914
  128MOL0     C17147   5.807  11.042   4.789  0.0182 -0.6261 -0.1982
  128MOL0     O17148   5.901  10.955   4.840 -0.0642 -0.8227 -0.1686
  128MOL0     C17149   6.030  10.987   4.813  0.9936  0.7872 -0.8164
  128MOL0     C17150   6.092  10.956   4.693  0.3851 -0.1285  0.1175
  128MOL0     C17151   6.236  10.973   4.675  0.6989 -0.0192  0.1949
  128MOL0     C17152   6.306  11.026   4.775  0.2757 -0.6077 -0.1033
  128MOL0     O17153   6.443  11.049   4.772  0.1821  0.0934  0.1518
  128MOL0     C17154   6.477  11.142   4.663  0.2995 -1.3131  0.1286
  128MOL0     C17155   6.631  11.145   4.650 -0.0856  0.0480  0.4949
  128MOL0     C17156   6.688  11.031   4.579  0.2243 -0.1938  0.7808
  128MOL0     C17157   6.840  11.043   4.584 -0.1307  0.6000  0.3920
  128MOL0     C17158   6.913  10.961   4.479 -0.0665  0.0693  0.9887
  128MOL0     C17159   7.061  10.969   4.506  1.0484  0.7648  0.3948
  128MOL0     C17160   7.156  10.890   4.421  0.5583  0.2267 -0.1502
  128MOL0     C17161   7.288  10.957   4.452 -0.1146 -0.9940 -0.0889
  128MOL0     N17162   7.388  10.931   4.353 -0.3732  0.5488  0.7571
  128MOL0     C17163   7.470  10.811   4.347  0.5537 -0.4827  0.1102
  128MOL0     C17164   7.545  10.823   4.236  0.3743  0.1683  0.3056
  128MOL0     C17165   7.633  10.718   4.171 -0.7000  0.3027  0.0069
  128MOL0     C17166   7.769  10.772   4.123  0.1030 -1.0674  0.4474
  128MOL0     C17167   7.855  10.662   4.059  0.6984  0.4385 -0.4270
  128MOL0     C17168   7.994  10.705   4.020 -1.6210 -0.7905  1.4036
  128MOL0     O17169   8.050  10.785   4.126 -1.0181 -0.2976 -0.7072
  128MOL0     C17170   8.183  10.830   4.118 -0.5053  0.9749 -0.3458
  128MOL0     C17171   8.241  10.851   3.990  0.0683 -0.0905  0.3630
  128MOL0     C17172   8.366  10.914   3.971 -0.0082  0.4326  0.1319
  128MOL0     C17173   8.414  10.940   3.829 -0.6936  0.4845  0.1898
  128MOL0     C17174   8.439  10.951   4.087  0.8730 -0.1957  0.4268
  128MOL0     C17175   8.588  11.000   4.092  0.6814  0.2401 -0.0778
  128MOL0     O17176   8.630  11.009   4.219 -0.1132 -0.7571  0.3035
  128MOL0     C17177   8.761  11.039   4.256  0.4049  1.1964  0.3638
  128MOL0     C17178   8.783  11.026   4.387 -0.6927 -0.0023 -1.3202
  128MOL0     C17179   8.908  11.039   4.450 -0.4347  0.2332 -0.6330
  128MOL0     C17180   9.018  11.067   4.371 -0.6231  0.0635 -0.4031
  128MOL0     O17181   9.139  11.076   4.429 -0.4295 -0.3478 -0.3509
  128MOL0     C17182   9.221  11.176   4.379 -0.8042 -0.4897 -0.1538
  128MOL0     C17183   9.345  11.183   4.460 -0.7833 -0.8231  0.5005
  128MOL0     C17184   9.460  11.127   4.370  0.7428 -0.7424 -0.2529
  128MOL0     C17185   9.583  11.110   4.449  0.5063 -0.0831 -0.3679
  128MOL0     C17186   9.658  11.238   4.459 -0.3101 -0.1911 -0.1494
  128MOL0     C17187   9.760  11.227   4.577 -0.3815 -0.2011  0.1713
  128MOL0     C17188   9.859  11.115   4.560 -0.2031  0.4468  0.2253
  128MOL0     C17189   9.964  11.119   4.670 -0.5299  0.7622  0.7992
  128MOL0    Cl17190  10.116  11.194   4.612 -0.5297  0.2877 -0.3453
  128MOL0     C17191   8.998  11.069   4.232 -0.4076 -0.6767  0.4683
  128MOL0     C17192   8.872  11.056   4.183  0.0897 -0.5957 -0.4174
  128MOL0     O17193   8.655  11.003   3.989 -0.2840 -0.4925 -0.2766
  128MOL0     C17194   8.379  10.933   4.209  1.0434 -0.2426 -0.4178
  128MOL0     C17195   8.258  10.873   4.235 -0.9623 -0.5618  0.0370
  128MOL0     N17196   7.511  10.942   4.179 -0.1204 -0.2125 -0.2333
  128MOL0     N17197   7.421  11.005   4.243  0.2657 -0.3688  0.1506
  128MOL0     C17198   6.246  11.055   4.899 -0.3980 -0.2608  0.2947
  128MOL0     C17199   6.106  11.040   4.912  0.6422 -0.9450 -1.5512
  128MOL0     C17200   5.671  11.051   4.841 -0.2364 -0.4544 -0.3292
  128MOL0     C17201   5.580  11.151   4.811  0.0332  0.6080  0.0200
  128MOL0     C17202   5.450  11.150   4.865 -0.5830 -0.3829 -0.5589
  128MOL0     C17203   5.399  11.046   4.953  0.0629  0.0035  0.4161
  128MOL0     O17204   5.286  11.048   5.032 -0.6290 -0.1824 -0.0707
  128MOL0     C17205   5.211  11.166   5.025  0.5647  0.9997  0.7140
  128MOL0     C17206   5.098  11.147   4.917  0.7290  0.2005 -0.4756
  128MOL0     C17207   5.023  11.013   4.935 -0.0538 -0.4868  0.1289
  128MOL0     C17208   4.940  11.022   5.074 -0.6423  0.4936  0.0935
  128MOL0     C17209   4.878  10.887   5.105 -0.2828  0.3128  0.4794
  128MOL0     C17210   4.842  10.772   5.120  0.5827 -1.1830 -0.3726
  128MOL0     C17211   5.489  10.944   4.974  0.0035  0.9136 -0.0729
  128MOL0     C17212   5.618  10.941   4.922 -0.3106 -0.6241  0.3771
  128MOL0     H17213   6.046  10.914   4.604  0.6156  0.4553 -0.2858
  128MOL0     H17214   6.263  10.953   4.571 -2.2429  2.7265 -1.2894
  128MOL0     H17215   6.419  11.131   4.570  0.3863  1.0314 -0.2824
  128MOL0     H17216   6.437  11.237   4.700  0.7871 -0.0909 -2.2694
  128MOL0     H17217   6.667  11.237   4.603  1.0051 -1.3145 -1.4869
  128MOL0     H17218   6.677  11.131   4.748 -0.1348  1.0740  0.6731
  128MOL0     H17219   6.649  10.937   4.620 -2.3893  0.9737  1.1532
  128MOL0     H17220   6.660  11.045   4.475  0.5860 -2.5985  0.3081
  128MOL0     H17221   6.866  11.148   4.567 -0.7565  0.5295 -1.1559
  128MOL0     H17222   6.887  11.018   4.680  3.6116  0.6106 -1.2425
  128MOL0     H17223   6.885  10.855   4.488  1.3738 -0.3250  1.1023
  128MOL0     H17224   6.887  10.996   4.379  3.1087 -0.1417 -0.0270
  128MOL0     H17225   7.075  11.078   4.504  3.0594  0.5714  1.1761
  128MOL0     H17226   7.086  10.936   4.608  3.8258  0.4444 -0.3106
  128MOL0     H17227   7.158  10.784   4.448  2.5808  0.4448  0.7715
  128MOL0     H17228   7.129  10.901   4.315 -2.0993 -1.2173  0.2975
  128MOL0     H17229   7.319  10.950   4.556  0.1750  2.0419  0.1108
  128MOL0     H17230   7.271  11.064   4.436 -1.1707 -1.1876 -0.3247
  128MOL0     H17231   7.464  10.732   4.422  0.4500 -0.3714  0.2221
  128MOL0     H17232   7.653  10.631   4.234  0.2183 -0.4719 -1.3005
  128MOL0     H17233   7.583  10.672   4.086 -0.0858  1.3809 -0.9662
  128MOL0     H17234   7.806  10.820   4.214 -0.8909  1.1780 -0.2611
  128MOL0     H17235   7.752  10.847   4.046  2.9454  1.1539  1.7976
  128MOL0     H17236   7.816  10.618   3.967  1.4781 -0.8817 -0.1595
  128MOL0     H17237   7.855  10.585   4.137  2.2606  1.4343  0.5995
  128MOL0     H17238   7.970  10.763   3.930  1.2096 -0.7323  0.5880
  128MOL0     H17239   8.053  10.619   3.985 -0.9089 -0.2414  1.2286
  128MOL0     H17240   8.186  10.822   3.901  0.6718 -3.7262  1.0199
  128MOL0     H17241   8.345  10.911   3.749  1.3270  0.1644 -1.5284
  128MOL0     H17242   8.455  11.040   3.811  1.8932 -0.5471 -0.0273
  128MOL0     H17243   8.502  10.877   3.812 -1.3799 -1.0857  2.1021
  128MOL0     H17244   8.704  10.977   4.443 -0.4598  0.8812 -0.1846
  128MOL0     H17245   8.933  11.012   4.552 -1.2004  0.0267 -0.4928
  128MOL0     H17246   9.241  11.148   4.275 -0.8250 -1.7448  0.1608
  128MOL0     H17247   9.179  11.277   4.378  0.4671  0.0642  0.5293
  128MOL0     H17248   9.360  11.287   4.489 -1.3922  0.0080 -1.9046
  128MOL0     H17249   9.339  11.122   4.550  1.5098  0.6514  1.7468
  128MOL0     H17250   9.467  11.199   4.287 -0.9511 -1.5130 -1.1216
  128MOL0     H17251   9.429  11.034   4.321 -1.7172  0.2096 -0.6577
  128MOL0     H17252   9.557  11.074   4.548 -1.1633 -0.0514 -0.7701
  128MOL0     H17253   9.649  11.036   4.402 -1.3954 -0.4400 -2.6372
  128MOL0     H17254   9.591  11.324   4.461 -3.0491 -2.1994  1.3309
  128MOL0     H17255   9.712  11.258   4.366 -0.7449  3.3576  0.2405
  128MOL0     H17256   9.812  11.322   4.570  0.7416 -0.5506  2.7184
  128MOL0     H17257   9.713  11.233   4.676 -1.7554  0.7126 -0.5092
  128MOL0     H17258   9.909  11.115   4.462  4.3476 -0.0677  2.2611
  128MOL0     H17259   9.813  11.018   4.581  1.4323 -1.1326 -2.7776
  128MOL0     H17260   9.975  11.014   4.699  1.9887  0.7524  0.1079
  128MOL0     H17261   9.919  11.176   4.752  0.0632  1.6812  0.5105
  128MOL0     H17262   9.071  11.081   4.153 -0.1945  0.7766  0.8701
  128MOL0     H17263   8.863  11.072   4.076 -3.7657  3.8174  0.2826
  128MOL0     H17264   8.416  10.978   4.301  0.3132 -0.8449  0.1866
  128MOL0     H17265   8.213  10.866   4.333  0.9153  0.1810  1.0095
  128MOL0     H17266   6.309  11.095   4.977  0.1730  1.9625 -1.2327
  128MOL0     H17267   6.059  11.053   5.009  0.6868  1.0621 -1.7582
  128MOL0     H17268   5.600  11.227   4.737  0.5042  1.5031  1.0263
  128MOL0     H17269   5.387  11.235   4.842 -0.4424  0.2312  1.1808
  128MOL0     H17270   5.165  11.164   5.124  0.4727 -0.9242  0.6750
  128MOL0     H17271   5.281  11.249   5.012  1.5201  0.1009 -0.1476
  128MOL0     H17272   5.149  11.137   4.821 -0.2569 -0.5407 -0.9454
  128MOL0     H17273   5.039  11.239   4.915  1.5582  0.7482 -0.0916
  128MOL0     H17274   5.100  10.939   4.914  1.4795  1.4958 -1.7540
  128MOL0     H17275   4.956  10.998   4.850 -1.9983  2.0253  1.0808
  128MOL0     H17276   4.854  11.088   5.062  0.4687  1.4373 -3.8680
  128MOL0     H17277   5.000  11.062   5.157  0.7488  0.2071 -0.7392
  128MOL0     H17278   4.785  10.683   5.137 -1.9454  0.7131  2.3541
  128MOL0     H17279   5.454  10.862   5.035 -3.6695  4.0930  2.6474
  128MOL0     H17280   5.688  10.865   4.955  1.3992  0.0362 -1.5013
  129MOL0     O17281  10.976   1.649   0.731 -0.4479  0.4109 -0.5043
  129MOL0     C17282  10.982   1.555   0.657 -0.2546 -0.9911 -0.0918
  129MOL0     O17283  11.068   1.544   0.550  0.4839 -0.6798  0.0159
  129MOL0     C17284  11.142   1.655   0.521  0.1074 -0.9458  0.4512
  129MOL0     C17285  11.229   1.721   0.609  0.5885 -0.5026 -0.5868
  129MOL0     C17286  11.310   1.826   0.558  0.3124  0.5122 -0.1587
  129MOL0     C17287  11.314   1.850   0.417 -0.1925 -0.0978 -0.1907
  129MOL0     O17288  11.376   1.960   0.361 -0.3478 -0.0404  0.4911
  129MOL0     C17289  11.457   2.046   0.444 -1.3090 -0.8269  0.3445
  129MOL0     C17290  11.538   2.126   0.332  0.1719  0.6816 -0.1491
  129MOL0     C17291  11.661   2.200   0.385 -0.4334 -0.5765 -0.4008
  129MOL0     C17292  11.743   2.260   0.270 -0.7043 -0.0971 -0.0611
  129MOL0     C17293  11.792   2.400   0.308  0.4257  0.5912 -0.4236
  129MOL0     C17294  11.882   2.457   0.190  0.5780 -0.1025 -0.1280
  129MOL0     C17295  11.975   2.566   0.230 -0.1858  0.3830 -0.1736
  129MOL0     C17296  11.910   2.700   0.260  0.2594  0.3381  0.6561
  129MOL0     N17297  11.856   2.718   0.396  0.2043  0.5528 -0.5744
  129MOL0     C17298  11.729   2.729   0.444  0.3266 -0.6816  0.4687
  129MOL0     C17299  11.735   2.708   0.575 -0.3254 -0.4878  0.2649
  129MOL0     C17300  11.616   2.702   0.669 -0.2088 -0.5349  0.0268
  129MOL0     C17301  11.550   2.568   0.671  0.2932  0.7028 -1.0556
  129MOL0     C17302  11.487   2.542   0.813 -0.0020  0.5716  0.5686
  129MOL0     C17303  11.404   2.417   0.804  0.2069  0.2402  0.3834
  129MOL0     O17304  11.379   2.371   0.939  0.1130 -0.3324 -0.2387
  129MOL0     C17305  11.256   2.402   1.001  0.4801 -0.7777  0.4281
  129MOL0     C17306  11.191   2.303   1.085 -1.4066 -0.3804  0.0568
  129MOL0     C17307  11.078   2.320   1.154  0.5103 -0.0689 -0.8867
  129MOL0     C17308  11.025   2.206   1.238 -0.3639  0.3057 -0.2717
  129MOL0     C17309  11.005   2.448   1.138 -0.8013  0.0265  0.1921
  129MOL0     C17310  10.872   2.480   1.201 -0.1993  0.6737  0.3674
  129MOL0     O17311  10.769   2.523   1.118  0.4543  0.2110  0.4919
  129MOL0     C17312  10.657   2.563   1.176  0.2210  0.5048  0.1365
  129MOL0     C17313  10.585   2.500   1.278 -0.0005  0.1569  0.7116
  129MOL0     C17314  10.459   2.547   1.317 -0.3119 -0.5414  0.1962
  129MOL0     C17315  10.406   2.664   1.262 -0.4260 -0.5832  0.2025
  129MOL0     O17316  10.280   2.715   1.295 -0.5321 -0.6085 -0.1526
  129MOL0     C17317  10.196   2.660   1.406  0.1266 -0.3732 -0.4022
  129MOL0     C17318  10.052   2.724   1.415 -0.5393  0.3300 -0.0701
  129MOL0     C17319   9.984   2.680   1.548 -0.7326 -0.2448  0.0266
  129MOL0     C17320   9.835   2.703   1.550  0.0788  0.6247 -0.0895
  129MOL0     C17321   9.777   2.647   1.678  0.1009 -0.0588  0.1881
  129MOL0     C17322   9.633   2.689   1.689  0.3216  0.1163  0.1369
  129MOL0     C17323   9.571   2.619   1.809 -0.0014  0.2680  0.1782
  129MOL0     C17324   9.424   2.657   1.816  2.1952 -0.6181 -0.2991
  129MOL0    Cl17325   9.350   2.573   1.956  0.6212  0.2643  0.5492
  129MOL0     C17326  10.481   2.727   1.157  0.4908 -0.0163 -0.9091
  129MOL0     C17327  10.600   2.669   1.112  0.5381 -0.7699  0.0658
  129MOL0     O17328  10.881   2.491   1.318  0.8675  0.3075 -0.3997
  129MOL0     C17329  11.068   2.542   1.056  0.3585  0.1837  0.5116
  129MOL0     C17330  11.193   2.525   0.991 -0.0876 -0.4303  0.1044
  129MOL0     N17331  11.871   2.713   0.613  0.6350  0.2302  0.2441
  129MOL0     N17332  11.941   2.723   0.504  0.4221  0.5136  0.3033
  129MOL0     C17333  11.230   1.774   0.335  0.2738  0.2585  0.0836
  129MOL0     C17334  11.141   1.689   0.387 -0.9277  0.4113  0.3463
  129MOL0     C17335  10.889   1.447   0.678  0.1166  0.3504 -0.4601
  129MOL0     C17336  10.822   1.434   0.801 -0.4334 -0.0987  0.1433
  129MOL0     C17337  10.757   1.330   0.828 -0.3668  0.7139 -0.0817
  129MOL0     C17338  10.743   1.228   0.741  0.6256  0.0099 -1.1098
  129MOL0     O17339  10.698   1.104   0.770  0.0584  0.7520  0.6139
  129MOL0     C17340  10.565   1.104   0.819 -0.5126  1.2577  0.3017
  129MOL0     C17341  10.517   0.958   0.795  0.1889  0.4918 -0.0065
  129MOL0     C17342  10.390   0.941   0.877  0.4902 -0.1726 -0.1249
  129MOL0     C17343  10.286   0.832   0.826 -0.0250 -0.1369 -0.6286
  129MOL0     C17344  10.325   0.700   0.870  0.0667  0.2491 -0.2538
  129MOL0     C17345  10.378   0.590   0.891 -0.3980  0.0827 -0.3080
  129MOL0     C17346  10.800   1.238   0.615 -0.4094 -1.0820 -0.3146
  129MOL0     C17347  10.873   1.348   0.575  0.1789 -0.2379  0.2564
  129MOL0     H17348  11.228   1.697   0.715 -1.5409 -5.4273 -1.4511
  129MOL0     H17349  11.371   1.892   0.618  0.4420  0.5727 -0.3560
  129MOL0     H17350  11.394   2.101   0.515 -0.8016  1.5567 -0.9231
  129MOL0     H17351  11.531   1.992   0.503  0.8780  1.6016 -0.0233
  129MOL0     H17352  11.570   2.064   0.248 -1.6114 -0.2860 -0.1552
  129MOL0     H17353  11.468   2.204   0.300 -0.8504 -0.1525  0.0107
  129MOL0     H17354  11.635   2.273   0.462 -0.0035 -0.9045  0.0573
  129MOL0     H17355  11.728   2.126   0.430 -1.8122 -1.4229  0.3275
  129MOL0     H17356  11.830   2.196   0.250 -0.6065  0.2934 -0.9504
  129MOL0     H17357  11.682   2.263   0.179 -0.4853  1.6291 -0.1874
  129MOL0     H17358  11.712   2.471   0.327  0.8943  1.0162 -0.0184
  129MOL0     H17359  11.848   2.378   0.400 -2.1988 -2.6470  0.6272
  129MOL0     H17360  11.931   2.366   0.154 -2.7081 -1.8341 -0.5551
  129MOL0     H17361  11.826   2.487   0.102  0.1387  0.5853  0.3807
  129MOL0     H17362  12.026   2.524   0.317 -2.1321 -3.5561 -0.6781
  129MOL0     H17363  12.040   2.580   0.144 -2.4087 -1.2310 -2.2714
  129MOL0     H17364  11.825   2.711   0.191 -2.2100 -1.4452  3.1611
  129MOL0     H17365  11.985   2.778   0.244 -1.7780  2.1824 -0.3887
  129MOL0     H17366  11.643   2.744   0.381  0.3316  0.5343  0.7360
  129MOL0     H17367  11.651   2.738   0.767  2.3904  3.2513 -2.0482
  129MOL0     H17368  11.558   2.790   0.640  2.5110  1.8953  1.4853
  129MOL0     H17369  11.629   2.494   0.657 -1.0307 -0.4476 -2.8401
  129MOL0     H17370  11.489   2.562   0.580 -0.7884 -2.4510 -0.2841
  129MOL0     H17371  11.418   2.626   0.826 -1.9624 -1.0403  1.0812
  129MOL0     H17372  11.565   2.542   0.890 -1.0052  0.6106  1.6177
  129MOL0     H17373  11.459   2.340   0.750  1.6112  1.4610  0.0190
  129MOL0     H17374  11.304   2.430   0.761  0.0341 -1.9087  0.0380
  129MOL0     H17375  11.252   2.213   1.085  1.3019  1.2420 -2.5124
  129MOL0     H17376  10.945   2.148   1.190 -1.2312  2.9038 -2.2179
  129MOL0     H17377  11.101   2.128   1.250 -0.4336 -0.1667 -2.4595
  129MOL0     H17378  10.985   2.228   1.337 -0.0302  1.0811 -0.3003
  129MOL0     H17379  10.631   2.410   1.320 -0.9235  0.6237  2.8870
  129MOL0     H17380  10.400   2.489   1.386  2.2470 -2.5442  0.8274
  129MOL0     H17381  10.182   2.553   1.388 -5.3932 -0.2862  1.6695
  129MOL0     H17382  10.250   2.670   1.501 -0.2642 -1.9459  0.0069
  129MOL0     H17383  10.056   2.833   1.421 -1.3341  0.3228  0.9813
  129MOL0     H17384   9.991   2.677   1.337  1.2109  0.2623 -1.4543
  129MOL0     H17385  10.031   2.730   1.633  0.1217 -1.7786  0.5031
  129MOL0     H17386   9.993   2.572   1.558 -0.2611 -0.0273  2.3171
  129MOL0     H17387   9.803   2.808   1.541 -1.4865  0.0397 -2.0335
  129MOL0     H17388   9.785   2.644   1.472 -2.4325  0.9987  1.1370
  129MOL0     H17389   9.828   2.695   1.763  2.2409  1.6786 -1.9245
  129MOL0     H17390   9.780   2.538   1.684  1.6825 -0.2065 -2.1460
  129MOL0     H17391   9.620   2.795   1.712 -0.6491  0.1946 -0.6990
  129MOL0     H17392   9.580   2.679   1.594  2.1147  2.4818 -1.2228
  129MOL0     H17393   9.630   2.642   1.898  2.7016 -3.1980 -0.4628
  129MOL0     H17394   9.564   2.510   1.800 -0.4416  0.3491 -0.5021
  129MOL0     H17395   9.375   2.615   1.728 -0.4616  0.3340  0.6111
  129MOL0     H17396   9.415   2.765   1.802  5.7694 -0.4183 -2.3997
  129MOL0     H17397  10.435   2.811   1.105  1.0769  0.2131 -1.0582
  129MOL0     H17398  10.648   2.704   1.021  0.2577  0.1363  0.2620
  129MOL0     H17399  11.031   2.644   1.049  1.5077  0.5214 -1.6225
  129MOL0     H17400  11.221   2.607   0.927 -4.3373 -0.9173 -2.7765
  129MOL0     H17401  11.229   1.804   0.231 -1.9585  0.9501  0.2512
  129MOL0     H17402  11.069   1.643   0.320 -0.3920 -0.8700  0.6200
  129MOL0     H17403  10.823   1.514   0.874 -0.7932 -0.4171  0.5028
  129MOL0     H17404  10.720   1.323   0.930 -1.1421 -0.9549 -0.4433
  129MOL0     H17405  10.566   1.137   0.923 -3.2228  2.3566  0.0475
  129MOL0     H17406  10.498   1.176   0.773 -1.9301  1.8540  3.0933
  129MOL0     H17407  10.597   0.901   0.844  0.8897  1.7269  0.3324
  129MOL0     H17408  10.503   0.926   0.692  0.5225 -0.0025  0.1039
  129MOL0     H17409  10.338   1.038   0.873  0.5895 -0.1618 -1.3764
  129MOL0     H17410  10.413   0.917   0.981  0.3046  0.1454 -0.0079
  129MOL0     H17411  10.286   0.838   0.717  3.5878 -0.7140 -0.7904
  129MOL0     H17412  10.188   0.860   0.866  0.3378  0.2974 -0.0081
  129MOL0     H17413  10.434   0.499   0.903 -0.3154 -0.0194 -1.4099
  129MOL0     H17414  10.800   1.147   0.556 -1.6075  0.7108 -3.3449
  129MOL0     H17415  10.898   1.368   0.472  0.8030  1.3141  0.6810
  130MOL0     O17416   1.548  11.262   8.220  0.4772 -0.1158  0.0662
  130MOL0     C17417   1.507  11.282   8.332 -0.3593  0.3703 -0.7095
  130MOL0     O17418   1.413  11.381   8.370  0.2120  0.2257  0.2952
  130MOL0     C17419   1.392  11.476   8.272  0.6742 -0.5873 -0.4519
  130MOL0     C17420   1.498  11.554   8.212 -0.0052 -0.0377  0.3109
  130MOL0     C17421   1.476  11.653   8.117 -0.1450 -0.9441  0.1799
  130MOL0     C17422   1.346  11.686   8.081  0.9094  0.2626 -0.0426
  130MOL0     O17423   1.312  11.784   7.992 -0.0540  0.3350  1.3341
  130MOL0     C17424   1.413  11.807   7.890 -0.3724  0.4275  0.3635
  130MOL0     C17425   1.363  11.932   7.804 -0.4673 -0.0436  0.0012
  130MOL0     C17426   1.440  11.959   7.681 -0.8978  0.1354  0.6989
  130MOL0     C17427   1.458  11.836   7.594 -0.4098 -0.1635 -0.2037
  130MOL0     C17428   1.501  11.874   7.457  0.0419  0.3266 -0.5107
  130MOL0     C17429   1.566  11.743   7.404 -0.2205 -1.1016  0.3755
  130MOL0     C17430   1.646  11.769   7.281  0.2462  0.6457  0.5447
  130MOL0     C17431   1.734  11.645   7.236  0.8910 -0.1174  0.4263
  130MOL0     N17432   1.652  11.540   7.178  0.4895 -0.0803 -1.3383
  130MOL0     C17433   1.613  11.528   7.048 -0.3274 -0.9300 -0.2308
  130MOL0     C17434   1.532  11.420   7.053 -0.3262 -0.6280  0.1093
  130MOL0     C17435   1.479  11.343   6.934  0.2545  1.0910 -0.0758
  130MOL0     C17436   1.597  11.276   6.867  0.3106 -0.1875 -0.5527
  130MOL0     C17437   1.635  11.337   6.733 -0.4565 -0.4871 -0.7249
  130MOL0     C17438   1.755  11.257   6.684  0.0852 -0.0758 -0.4887
  130MOL0     O17439   1.872  11.238   6.772 -0.3601 -0.0051  0.1313
  130MOL0     C17440   1.947  11.350   6.806  0.0334  0.4119 -0.5787
  130MOL0     C17441   1.940  11.471   6.728 -0.9602  0.0644 -0.5090
  130MOL0     C17442   2.027  11.578   6.754 -0.3514 -0.7824 -0.0598
  130MOL0     C17443   2.012  11.696   6.662 -0.2063 -0.5762  0.3297
  130MOL0     C17444   2.107  11.580   6.871  0.8576  0.2258  0.2600
  130MOL0     C17445   2.199  11.687   6.917 -0.4268  0.5161  0.2171
  130MOL0     O17446   2.246  11.672   7.042  0.1428  0.1224 -0.8556
  130MOL0     C17447   2.314  11.784   7.091 -0.3210  0.2444 -0.2869
  130MOL0     C17448   2.250  11.901   7.147  0.2248 -0.8729  0.5673
  130MOL0     C17449   2.329  12.015   7.176 -0.1181  0.2076 -0.7440
  130MOL0     C17450   2.468  12.012   7.157  0.2863 -1.5204 -0.4283
  130MOL0     O17451   2.550  12.110   7.196 -0.1421 -0.5944 -0.1586
  130MOL0     C17452   2.488  12.235   7.219 -0.1750 -1.2017 -0.0149
  130MOL0     C17453   2.592  12.349   7.249  0.7806  0.5412 -0.1955
  130MOL0     C17454   2.675  12.383   7.136  0.2212 -0.3992  0.4625
  130MOL0     C17455   2.795  12.467   7.175 -0.1220  0.8882 -0.4151
  130MOL0     C17456   2.907  12.473   7.072 -0.1743  0.7120  0.3449
  130MOL0     C17457   2.994  12.597   7.094 -0.4256 -0.4381 -0.3986
  130MOL0     C17458   3.109  12.602   6.976  0.6283 -0.8248 -0.6124
  130MOL0     C17459   3.180  12.742   6.971  0.3757 -0.6705 -0.1685
  130MOL0    Cl17460   3.265  12.766   7.121 -0.2338  0.0667 -0.3535
  130MOL0     C17461   2.526  11.902   7.096 -1.1598  0.4889  0.2275
  130MOL0     C17462   2.453  11.783   7.066  0.7738  0.0153 -0.3563
  130MOL0     O17463   2.258  11.746   6.830 -0.2029 -0.6075 -0.6792
  130MOL0     C17464   2.095  11.463   6.952 -0.7594  0.2934 -0.3800
  130MOL0     C17465   2.029  11.345   6.915  0.0923 -0.1722  0.4170
  130MOL0     N17466   1.526  11.372   7.185  0.0463 -0.8690  1.0123
  130MOL0     N17467   1.597  11.446   7.264  0.4700  0.9706  0.7708
  130MOL0     C17468   1.244  11.616   8.149 -0.1455  0.6853  0.5222
  130MOL0     C17469   1.264  11.519   8.240  0.8302 -0.1068 -0.7096
  130MOL0     C17470   1.587  11.220   8.438 -0.0367 -0.2179  0.7793
  130MOL0     C17471   1.726  11.180   8.415  1.0138  0.8835 -0.1033
  130MOL0     C17472   1.800  11.119   8.517  1.1975  0.0302  0.5494
  130MOL0     C17473   1.740  11.092   8.645  0.4649 -1.3047 -0.2375
  130MOL0     O17474   1.802  11.031   8.756 -0.1291  0.0537 -0.3861
  130MOL0     C17475   1.931  10.964   8.749 -0.3690 -1.0549  0.9921
  130MOL0     C17476   1.905  10.816   8.702  0.3168  0.0058  0.6802
  130MOL0     C17477   2.026  10.749   8.659 -0.1228 -0.0415 -0.0525
  130MOL0     C17478   2.005  10.604   8.636  0.9355  0.3566 -0.3738
  130MOL0     C17479   1.876  10.580   8.555  0.6249 -0.5467  0.0143
  130MOL0     C17480   1.793  10.555   8.468 -0.2304 -0.0496 -0.0809
  130MOL0     C17481   1.611  11.149   8.678 -1.6042  0.3032  0.7851
  130MOL0     C17482   1.540  11.205   8.570  0.4092 -0.2269 -0.3733
  130MOL0     H17483   1.605  11.543   8.223 -0.3013 -2.3022  1.4743
  130MOL0     H17484   1.562  11.703   8.072 -1.8429 -0.0735 -2.3145
  130MOL0     H17485   1.516  11.819   7.927 -0.2789 -1.8676  1.0210
  130MOL0     H17486   1.418  11.726   7.818 -2.4158  1.2660 -0.8039
  130MOL0     H17487   1.261  11.907   7.774 -0.8874  0.6265  0.8357
  130MOL0     H17488   1.358  12.016   7.873 -1.4509 -1.4234  1.7084
  130MOL0     H17489   1.393  12.034   7.617 -1.5903 -0.2125  0.7894
  130MOL0     H17490   1.541  11.994   7.706 -0.6667 -0.3187  0.4264
  130MOL0     H17491   1.524  11.767   7.646 -1.4866  0.6806  2.4903
  130MOL0     H17492   1.359  11.791   7.580 -1.2235  0.9595  1.6012
  130MOL0     H17493   1.409  11.902   7.405  0.4815  1.3726 -0.7414
  130MOL0     H17494   1.561  11.965   7.465 -0.4451  0.7869 -1.8071
  130MOL0     H17495   1.636  11.711   7.481  2.0870  2.3920 -0.0733
  130MOL0     H17496   1.489  11.667   7.386 -0.3559 -0.4411 -2.3347
  130MOL0     H17497   1.577  11.790   7.198 -3.9083 -0.3858  3.4048
  130MOL0     H17498   1.714  11.854   7.285  0.0017  0.8440  0.5828
  130MOL0     H17499   1.777  11.604   7.328  3.2131 -1.0055 -0.9708
  130MOL0     H17500   1.803  11.698   7.170 -3.6963  0.9586 -4.2099
  130MOL0     H17501   1.644  11.588   6.962  1.2209  0.2074  1.0350
  130MOL0     H17502   1.411  11.266   6.971  1.5783  1.0310  2.4350
  130MOL0     H17503   1.418  11.408   6.871 -2.6624 -0.8272  0.5858
  130MOL0     H17504   1.572  11.173   6.839  2.4177 -0.6144 -1.0135
  130MOL0     H17505   1.674  11.270   6.944 -0.7915 -2.3020  0.4752
  130MOL0     H17506   1.653  11.445   6.735  0.9931 -0.7190 -0.6417
  130MOL0     H17507   1.559  11.312   6.658 -0.5159 -2.3821 -0.0880
  130MOL0     H17508   1.781  11.284   6.581 -0.1369 -1.5979 -0.9835
  130MOL0     H17509   1.711  11.158   6.665 -0.2973 -0.5819  2.5718
  130MOL0     H17510   1.889  11.489   6.634  0.5538 -0.6966 -1.5229
  130MOL0     H17511   1.944  11.685   6.577 -0.4082  1.5215  0.1636
  130MOL0     H17512   1.976  11.778   6.725  1.8275  0.2717  0.4423
  130MOL0     H17513   2.101  11.725   6.606 -2.0049  2.8282 -1.1109
  130MOL0     H17514   2.142  11.893   7.162  0.4076 -0.0035  2.7154
  130MOL0     H17515   2.269  12.095   7.217  2.0444 -0.1389  3.8256
  130MOL0     H17516   2.426  12.271   7.136 -1.0558  0.7171  1.3852
  130MOL0     H17517   2.421  12.229   7.306  0.4773 -0.1419  0.5964
  130MOL0     H17518   2.527  12.436   7.264  0.4418 -0.2103  3.8915
  130MOL0     H17519   2.654  12.321   7.334  0.3296 -2.1698 -0.6668
  130MOL0     H17520   2.625  12.443   7.059  0.6593  1.2860  1.4378
  130MOL0     H17521   2.716  12.292   7.091  0.9713  0.1845 -0.0699
  130MOL0     H17522   2.751  12.566   7.192 -0.8357  0.3290  1.2138
  130MOL0     H17523   2.847  12.434   7.265 -2.3560  0.5019  0.8168
  130MOL0     H17524   2.862  12.484   6.973  2.4799 -0.8708 -1.1321
  130MOL0     H17525   2.964  12.380   7.070  0.2580  0.9725  0.3368
  130MOL0     H17526   2.941  12.693   7.089  3.0048  1.7429  1.6368
  130MOL0     H17527   3.042  12.587   7.191 -1.2803 -2.2250 -0.1217
  130MOL0     H17528   3.060  12.583   6.881  2.0227  1.0454 -1.7832
  130MOL0     H17529   3.186  12.527   6.993  1.7930  0.2168 -1.0883
  130MOL0     H17530   3.109  12.825   6.963 -1.6533 -1.8999  3.2232
  130MOL0     H17531   3.247  12.748   6.885  0.4468  1.8601  0.0036
  130MOL0     H17532   2.631  11.913   7.070 -0.9678 -0.4916  0.5087
  130MOL0     H17533   2.483  11.698   7.006 -1.9336  0.2146 -2.1992
  130MOL0     H17534   2.164  11.447   7.034 -0.8182  0.3607 -0.3183
  130MOL0     H17535   2.031  11.250   6.967 -0.8202 -0.6583 -0.3997
  130MOL0     H17536   1.147  11.633   8.103 -1.6434 -2.1825  2.3610
  130MOL0     H17537   1.185  11.464   8.290  0.0763  2.9315  1.8344
  130MOL0     H17538   1.777  11.198   8.322 -2.3996  1.2359 -2.0808
  130MOL0     H17539   1.899  11.084   8.490  0.6131 -1.3527  0.0607
  130MOL0     H17540   1.990  11.018   8.675 -0.9476 -0.4302  0.9770
  130MOL0     H17541   1.987  10.959   8.843 -1.1634 -1.6355  1.4568
  130MOL0     H17542   1.842  10.823   8.613 -0.5862 -1.9466  1.1158
  130MOL0     H17543   1.848  10.766   8.780  0.2891  2.0902  2.0878
  130MOL0     H17544   2.096  10.752   8.743  0.8069 -3.7279 -0.4849
  130MOL0     H17545   2.069  10.809   8.579 -1.1963  1.1845  0.2646
  130MOL0     H17546   2.011  10.557   8.734  1.1513  0.8271 -0.1599
  130MOL0     H17547   2.095  10.574   8.581  0.3941  0.2639 -1.2157
  130MOL0     H17548   1.738  10.534   8.379  0.6819  2.4976 -1.3368
  130MOL0     H17549   1.567  11.146   8.777  1.6265  0.7754  2.3801
  130MOL0     H17550   1.437  11.237   8.579  0.3383 -1.0408  4.5924
  131MOL0     O17551   5.041   4.376   0.681 -0.0198 -0.6349  0.2987
  131MOL0     C17552   5.167   4.364   0.672 -0.2510  0.0628 -0.0530
  131MOL0     O17553   5.242   4.323   0.568 -0.6200 -0.0274 -0.4461
  131MOL0     C17554   5.175   4.321   0.441 -0.9105 -0.5377 -0.5307
  131MOL0     C17555   5.080   4.411   0.392 -0.4814  0.8199 -0.2230
  131MOL0     C17556   5.019   4.402   0.269 -0.1184 -0.1795 -0.9318
  131MOL0     C17557   5.059   4.306   0.175 -0.6601  0.4133 -0.4951
  131MOL0     O17558   4.987   4.309   0.060 -0.4277 -0.4819  0.5348
  131MOL0     C17559   4.922   4.193   0.022  0.0489 -0.1953  0.0554
  131MOL0     C17560   4.884   4.198  -0.122 -0.0628  0.2352  0.7903
  131MOL0     C17561   4.823   4.065  -0.172 -0.0598 -1.6208  0.0196
  131MOL0     C17562   4.922   3.991  -0.256 -0.4725  0.0251  0.0412
  131MOL0     C17563   4.912   4.035  -0.405  0.2484  0.3390  0.2830
  131MOL0     C17564   5.015   3.971  -0.491 -0.7838  0.5306  0.2166
  131MOL0     C17565   5.033   4.034  -0.638 -0.3304 -0.0722  0.6635
  131MOL0     C17566   5.112   3.939  -0.729 -0.0572 -0.0778  0.3017
  131MOL0     N17567   5.181   4.013  -0.833 -0.0324 -0.0207 -0.5495
  131MOL0     C17568   5.274   4.111  -0.811  0.1709  0.3296  0.7324
  131MOL0     C17569   5.284   4.167  -0.937  0.2359 -1.2756  0.1215
  131MOL0     C17570   5.376   4.285  -0.969  0.3443  0.2209  0.8554
  131MOL0     C17571   5.302   4.413  -0.973 -1.0086  0.0781  0.5940
  131MOL0     C17572   5.390   4.527  -1.023  0.6175  0.8867 -0.4947
  131MOL0     C17573   5.300   4.656  -1.036  0.1230 -0.2171  0.0401
  131MOL0     O17574   5.247   4.706  -0.910 -0.3709 -0.2913 -0.2204
  131MOL0     C17575   5.122   4.744  -0.911 -0.2743 -0.3543  0.3172
  131MOL0     C17576   5.052   4.721  -0.796  0.2138 -0.9782 -0.1988
  131MOL0     C17577   4.932   4.790  -0.771 -0.2485 -0.4298 -0.2336
  131MOL0     C17578   4.857   4.755  -0.644 -0.1413 -0.1089 -0.4307
  131MOL0     C17579   4.875   4.878  -0.870  0.1813 -0.1922 -0.8527
  131MOL0     C17580   4.730   4.930  -0.867  0.0295  0.1480 -0.2743
  131MOL0     O17581   4.651   4.829  -0.859  0.2334 -0.1763  0.1442
  131MOL0     C17582   4.517   4.858  -0.844  0.2492  0.0526 -0.2894
  131MOL0     C17583   4.436   4.847  -0.957  0.4766  0.0952  0.2676
  131MOL0     C17584   4.295   4.847  -0.952 -0.7319 -0.2786 -0.7927
  131MOL0     C17585   4.235   4.901  -0.834  0.5130 -0.9680  0.0883
  131MOL0     O17586   4.098   4.916  -0.815  0.3962  0.5497  0.5472
  131MOL0     C17587   4.015   4.896  -0.932 -0.6209 -0.4644  0.0466
  131MOL0     C17588   3.872   4.901  -0.877  0.8169  0.5185  0.6629
  131MOL0     C17589   3.769   4.899  -0.994  0.3642  0.0927 -0.3000
  131MOL0     C17590   3.641   4.834  -0.953 -0.5700  0.2744 -0.6636
  131MOL0     C17591   3.526   4.857  -1.048  0.3335  0.3196  0.2696
  131MOL0     C17592   3.554   4.809  -1.195  0.1816 -0.0946 -0.7346
  131MOL0     C17593   3.419   4.776  -1.263  0.5657  0.3117  0.1171
  131MOL0     C17594   3.340   4.901  -1.300 -0.2051  0.7537 -0.8278
  131MOL0    Cl17595   3.413   4.977  -1.449  0.3834  0.1021 -0.1457
  131MOL0     C17596   4.317   4.927  -0.724 -0.3851  0.6853  0.8842
  131MOL0     C17597   4.458   4.902  -0.729  0.6823  0.3358 -0.6339
  131MOL0     O17598   4.698   5.040  -0.894  0.3432 -0.9779 -0.7267
  131MOL0     C17599   4.949   4.901  -0.987 -0.5453 -0.4176  0.2566
  131MOL0     C17600   5.070   4.842  -1.010 -0.8874 -0.3732 -0.2132
  131MOL0     N17601   5.199   4.103  -1.027 -0.1490 -0.7396 -0.4976
  131MOL0     N17602   5.128   4.023  -0.955 -0.3822  0.1637 -0.1667
  131MOL0     C17603   5.146   4.206   0.222  0.1344  1.1245 -0.5192
  131MOL0     C17604   5.202   4.216   0.348 -0.9594  0.1880  0.0345
  131MOL0     C17605   5.242   4.393   0.792  0.2042 -0.7048 -0.9001
  131MOL0     C17606   5.380   4.383   0.802 -0.7668  0.2376 -0.2029
  131MOL0     C17607   5.459   4.414   0.910 -0.0324  0.0554 -0.8167
  131MOL0     C17608   5.389   4.447   1.018  0.4414  0.3207 -0.4412
  131MOL0     O17609   5.468   4.462   1.128  0.2719 -0.3135  0.3725
  131MOL0     C17610   5.432   4.524   1.251 -0.5247 -0.2187 -0.5707
  131MOL0     C17611   5.426   4.680   1.249  0.2092 -0.1769 -0.8368
  131MOL0     C17612   5.359   4.726   1.383  0.3673  0.7738 -0.3208
  131MOL0     C17613   5.208   4.713   1.397  0.0018 -0.4615  0.2293
  131MOL0     C17614   5.151   4.784   1.279  0.6576 -0.0374  0.2010
  131MOL0     C17615   5.096   4.833   1.184 -0.0634  0.5152  0.3547
  131MOL0     C17616   5.251   4.471   1.019  0.3145 -0.0683  0.5210
  131MOL0     C17617   5.177   4.458   0.899  0.0473 -0.3600  0.1981
  131MOL0     H17618   5.043   4.495   0.451  3.1887  2.3844  0.1144
  131MOL0     H17619   4.939   4.474   0.251 -0.1376  0.9914  2.9309
  131MOL0     H17620   4.976   4.102   0.053 -0.1121 -0.2529  0.1666
  131MOL0     H17621   4.831   4.188   0.082  1.1459 -0.3806  1.7632
  131MOL0     H17622   4.813   4.281  -0.134  1.1303  1.1979  0.2386
  131MOL0     H17623   4.967   4.233  -0.183 -0.4542 -1.6825 -0.9731
  131MOL0     H17624   4.790   4.001  -0.090 -2.5181  0.3403  0.6842
  131MOL0     H17625   4.737   4.087  -0.235  1.2707  2.1950 -0.7362
  131MOL0     H17626   5.026   4.008  -0.229 -0.2840 -1.5419  0.4069
  131MOL0     H17627   4.918   3.883  -0.239  1.4231 -0.0167  0.3715
  131MOL0     H17628   4.818   3.997  -0.446  0.5693 -2.6598  2.0149
  131MOL0     H17629   4.907   4.143  -0.418  2.1431  0.3078 -1.1639
  131MOL0     H17630   5.109   3.999  -0.443  0.5269  0.4105 -2.1295
  131MOL0     H17631   5.017   3.861  -0.495  2.4755  0.4653 -3.5967
  131MOL0     H17632   4.944   4.051  -0.700  0.6988 -0.3511 -0.9560
  131MOL0     H17633   5.076   4.133  -0.622  3.1496 -1.4049  0.3972
  131MOL0     H17634   5.039   3.866  -0.764 -1.2309  0.9464  0.5796
  131MOL0     H17635   5.186   3.877  -0.677  1.0220  1.0824  0.2146
  131MOL0     H17636   5.319   4.127  -0.714  3.1065 -2.4790 -0.0057
  131MOL0     H17637   5.468   4.279  -0.910  3.6457 -3.7561 -3.7731
  131MOL0     H17638   5.422   4.251  -1.063 -0.1160 -0.7020  0.9477
  131MOL0     H17639   5.284   4.419  -0.865  5.0923 -2.3365  2.1833
  131MOL0     H17640   5.218   4.404  -1.042  0.8662 -0.9635 -1.7009
  131MOL0     H17641   5.436   4.506  -1.120  1.4796  1.5566 -0.2413
  131MOL0     H17642   5.467   4.546  -0.948  0.5577  0.1549 -0.2414
  131MOL0     H17643   5.221   4.634  -1.109 -1.7128 -4.0258  2.8403
  131MOL0     H17644   5.364   4.732  -1.082  0.5462  0.2564  1.3672
  131MOL0     H17645   5.105   4.650  -0.734  2.2453 -0.1102 -0.8608
  131MOL0     H17646   4.927   4.729  -0.565  0.9999 -0.9946 -1.6818
  131MOL0     H17647   4.791   4.836  -0.610 -1.3116 -1.1475 -0.1539
  131MOL0     H17648   4.800   4.663  -0.657  1.9160 -1.6798  1.0069
  131MOL0     H17649   4.481   4.820  -1.052  0.3592 -1.2844  0.5706
  131MOL0     H17650   4.250   4.819  -1.047  0.6995  1.0301 -1.9070
  131MOL0     H17651   4.042   4.978  -1.000  0.7238 -0.7878  0.1665
  131MOL0     H17652   4.035   4.804  -0.988 -0.8491  0.1590 -1.1123
  131MOL0     H17653   3.848   4.824  -0.804 -3.1317  1.3717  0.4921
  131MOL0     H17654   3.871   4.994  -0.818  0.1331 -1.5061  4.1128
  131MOL0     H17655   3.813   4.840  -1.075  3.2115  0.0033  1.2032
  131MOL0     H17656   3.747   5.000  -1.031 -1.3227  0.6126  1.9461
  131MOL0     H17657   3.653   4.728  -0.925 -2.1566  0.3649  0.4926
  131MOL0     H17658   3.609   4.881  -0.860 -1.2119  2.7447 -2.0629
  131MOL0     H17659   3.495   4.962  -1.043 -0.8135 -0.0542  1.6160
  131MOL0     H17660   3.444   4.797  -1.008  2.8435 -1.6627  2.8804
  131MOL0     H17661   3.603   4.882  -1.259  0.0867  0.7819  0.1734
  131MOL0     H17662   3.617   4.720  -1.193 -1.1232 -1.0516 -0.2093
  131MOL0     H17663   3.359   4.710  -1.200  1.3755  1.5560  2.3114
  131MOL0     H17664   3.425   4.733  -1.363 -1.0473  0.9747 -0.2992
  131MOL0     H17665   3.332   4.975  -1.220 -1.2469 -0.0094 -0.1871
  131MOL0     H17666   3.236   4.878  -1.324  0.6930 -0.2487 -4.3179
  131MOL0     H17667   4.277   4.965  -0.630  1.0893  1.0845  1.3864
  131MOL0     H17668   4.508   4.926  -0.636  1.4725  1.3637 -1.2983
  131MOL0     H17669   4.907   4.970  -1.059 -0.2160 -0.9518 -0.4642
  131MOL0     H17670   5.116   4.871  -1.104 -1.7636  0.6016 -0.3557
  131MOL0     H17671   5.174   4.122   0.159 -1.2672  0.8454 -0.7838
  131MOL0     H17672   5.277   4.147   0.384  0.1435  1.3990  0.1267
  131MOL0     H17673   5.440   4.334   0.726  1.2683  0.4987  1.1541
  131MOL0     H17674   5.566   4.399   0.909 -0.1713 -1.0132 -0.4828
  131MOL0     H17675   5.335   4.490   1.288 -1.0900  0.2274 -1.5915
  131MOL0     H17676   5.505   4.489   1.325  0.3319  0.3519 -1.1314
  131MOL0     H17677   5.358   4.706   1.168 -0.3183 -0.4701 -0.4952
  131MOL0     H17678   5.527   4.721   1.243  1.1791 -2.0559  1.0766
  131MOL0     H17679   5.389   4.831   1.395  0.3697  0.5949  1.4800
  131MOL0     H17680   5.407   4.683   1.471 -0.0031 -1.1204 -1.0003
  131MOL0     H17681   5.173   4.751   1.494  0.3221 -0.5478  0.3806
  131MOL0     H17682   5.180   4.608   1.392 -4.6707  0.5801 -0.9793
  131MOL0     H17683   5.041   4.867   1.099 -1.0789 -1.8554  0.0114
  131MOL0     H17684   5.196   4.509   1.104  0.8868 -0.7338  1.2017
  131MOL0     H17685   5.076   4.498   0.907 -0.1208 -1.1193  3.1133
  132MOL0     O17686   1.150   1.128   3.244  0.5854 -0.1329 -0.0213
  132MOL0     C17687   1.157   1.010   3.227  0.1762 -0.1761  0.3296
  132MOL0     O17688   1.267   0.945   3.203 -0.2028 -0.2186 -0.0973
  132MOL0     C17689   1.372   1.022   3.176 -0.9148 -0.1832 -0.3025
  132MOL0     C17690   1.404   1.083   3.050 -0.0223  0.5404  0.2502
  132MOL0     C17691   1.526   1.160   3.035  0.0906  0.4404 -0.3404
  132MOL0     C17692   1.612   1.169   3.150  0.2114 -0.3617  1.0361
  132MOL0     O17693   1.721   1.245   3.147  0.2095  0.1945 -0.2284
  132MOL0     C17694   1.786   1.290   3.264  0.3977  0.3535  0.0856
  132MOL0     C17695   1.890   1.391   3.226 -0.3307 -0.3512 -0.3496
  132MOL0     C17696   1.962   1.426   3.350 -0.5349  0.4793 -0.6115
  132MOL0     C17697   2.047   1.555   3.320  0.6997  0.6250  0.6175
  132MOL0     C17698   2.166   1.572   3.410  0.5763  0.0509 -0.1994
  132MOL0     C17699   2.239   1.695   3.377 -0.1209 -1.0228  0.3290
  132MOL0     C17700   2.172   1.824   3.420 -0.9284 -0.3164  0.1319
  132MOL0     C17701   2.266   1.938   3.366  0.2928  0.7831 -0.3214
  132MOL0     N17702   2.212   2.073   3.392  0.4124 -0.0298 -0.1178
  132MOL0     C17703   2.263   2.156   3.493  0.9538 -0.2880  0.7776
  132MOL0     C17704   2.170   2.254   3.507  0.7142  0.0309 -0.0779
  132MOL0     C17705   2.181   2.373   3.593  0.6878  0.2933 -0.6531
  132MOL0     C17706   2.143   2.339   3.743  0.0223 -0.1675  0.8780
  132MOL0     C17707   2.183   2.464   3.830 -0.4031  0.1757  0.2860
  132MOL0     C17708   2.167   2.445   3.980 -0.1513 -1.2039 -0.1795
  132MOL0     O17709   2.219   2.319   4.010  0.5089 -0.5168  0.5108
  132MOL0     C17710   2.146   2.240   4.076  0.1067  0.2620 -0.7055
  132MOL0     C17711   2.064   2.275   4.185  0.0160  0.6955  0.1461
  132MOL0     C17712   1.958   2.196   4.230  0.1557  0.4050 -1.0790
  132MOL0     C17713   1.881   2.242   4.347 -0.0138 -0.4415 -1.0015
  132MOL0     C17714   1.953   2.062   4.176  0.1771 -0.1981 -0.1788
  132MOL0     C17715   1.844   1.970   4.212  0.8064  0.0951  0.4207
  132MOL0     O17716   1.771   1.911   4.110  0.4384  0.4719  0.4882
  132MOL0     C17717   1.662   1.824   4.132  0.4809  0.3994  0.8332
  132MOL0     C17718   1.549   1.844   4.049  0.4950 -0.7126 -0.1275
  132MOL0     C17719   1.438   1.752   4.048 -0.5734  0.5730  0.0384
  132MOL0     C17720   1.445   1.650   4.147  0.7223 -0.4911 -0.5698
  132MOL0     O17721   1.345   1.561   4.137  0.0224 -0.0598  0.5541
  132MOL0     C17722   1.341   1.455   4.221 -0.5022  0.8498  0.6932
  132MOL0     C17723   1.446   1.344   4.191  0.3717 -0.2778 -0.1092
  132MOL0     C17724   1.380   1.213   4.148  0.1075  0.2028  0.4177
  132MOL0     C17725   1.490   1.116   4.100 -0.4628  0.6895 -0.2665
  132MOL0     C17726   1.443   0.976   4.054  0.6660  0.7897  0.4431
  132MOL0     C17727   1.378   0.994   3.918 -0.0555  0.2169 -0.3239
  132MOL0     C17728   1.364   0.858   3.845  0.1781 -0.3686 -0.5650
  132MOL0     C17729   1.254   0.767   3.901  0.6657  1.0372 -0.3093
  132MOL0    Cl17730   1.101   0.846   3.868  0.1529 -0.4017 -0.6627
  132MOL0     C17731   1.546   1.640   4.242 -0.1249  0.0318  0.4667
  132MOL0     C17732   1.650   1.727   4.234  0.8114 -0.0765  0.1310
  132MOL0     O17733   1.819   1.956   4.331  0.2036 -0.1139 -0.2898
  132MOL0     C17734   2.048   2.021   4.080 -0.0528  0.2175  0.4454
  132MOL0     C17735   2.147   2.109   4.039  0.1460 -0.2805 -1.0724
  132MOL0     N17736   2.060   2.221   3.422  0.5290  0.6877 -0.1851
  132MOL0     N17737   2.095   2.125   3.347 -0.0441  0.7630 -0.0633
  132MOL0     C17738   1.571   1.108   3.275  0.5873 -0.8615  0.4416
  132MOL0     C17739   1.461   1.032   3.281 -0.3021  0.2781 -0.4026
  132MOL0     C17740   1.036   0.933   3.251  0.6641 -0.1961 -1.4751
  132MOL0     C17741   0.911   0.995   3.278  0.3437  0.5841  0.4754
  132MOL0     C17742   0.796   0.927   3.329  0.1864 -0.0633  0.4674
  132MOL0     C17743   0.804   0.787   3.332  0.1574 -0.1355 -0.5029
  132MOL0     O17744   0.713   0.690   3.366  0.5481 -0.1418 -0.9537
  132MOL0     C17745   0.599   0.736   3.430 -0.2896 -0.3650 -0.6473
  132MOL0     C17746   0.473   0.676   3.366 -0.2455  0.5585 -0.5699
  132MOL0     C17747   0.437   0.730   3.227  0.1129 -0.8987  0.3424
  132MOL0     C17748   0.411   0.886   3.203  0.6699  1.3259 -0.4794
  132MOL0     C17749   0.311   0.933   3.301  0.5058 -0.5144 -0.0930
  132MOL0     C17750   0.222   0.954   3.383  0.3777 -0.0049  0.1907
  132MOL0     C17751   0.923   0.728   3.305  0.7309 -0.3503  1.0966
  132MOL0     C17752   1.037   0.795   3.256 -0.0651  0.2991  0.1193
  132MOL0     H17753   1.325   1.080   2.975 -0.9907 -0.1615  1.2722
  132MOL0     H17754   1.551   1.200   2.938 -0.1725 -1.3814 -1.1938
  132MOL0     H17755   1.719   1.340   3.334  0.8053  0.5388  0.3504
  132MOL0     H17756   1.822   1.196   3.308 -4.0533 -1.0828  1.2320
  132MOL0     H17757   1.961   1.369   3.146 -2.0131 -1.9481 -1.5026
  132MOL0     H17758   1.843   1.476   3.177  2.7740  0.0617 -2.9442
  132MOL0     H17759   1.903   1.454   3.438 -1.1013  0.9970 -1.1498
  132MOL0     H17760   2.022   1.340   3.382 -1.0961  0.3611  0.1501
  132MOL0     H17761   2.090   1.551   3.220  0.2232  2.8836  0.2605
  132MOL0     H17762   1.983   1.644   3.313 -0.9753 -0.5809 -0.1785
  132MOL0     H17763   2.129   1.581   3.512 -0.4781  1.3422 -0.6597
  132MOL0     H17764   2.234   1.487   3.399  0.2770 -0.4129  1.3585
  132MOL0     H17765   2.341   1.685   3.416  0.1312  0.6986  0.1885
  132MOL0     H17766   2.245   1.695   3.268 -0.4785  5.4400 -0.0877
  132MOL0     H17767   2.068   1.832   3.387 -1.0265  1.5057  0.7700
  132MOL0     H17768   2.171   1.833   3.529  1.2470  0.5452  0.1229
  132MOL0     H17769   2.278   1.923   3.259 -0.7895 -1.8410 -0.1322
  132MOL0     H17770   2.369   1.921   3.399  1.2519 -1.5201 -3.9282
  132MOL0     H17771   2.361   2.165   3.538  0.6499 -0.6221  1.5228
  132MOL0     H17772   2.286   2.404   3.587  0.6368  1.0001  1.3587
  132MOL0     H17773   2.120   2.449   3.544 -0.5106 -1.6222 -2.3274
  132MOL0     H17774   2.198   2.250   3.774 -1.9657 -1.0413  2.0922
  132MOL0     H17775   2.037   2.326   3.767 -0.3641 -1.6411 -1.3785
  132MOL0     H17776   2.125   2.554   3.810  1.6943  1.5178 -0.1344
  132MOL0     H17777   2.291   2.479   3.823 -0.5337  1.0697  0.0742
  132MOL0     H17778   2.060   2.450   3.999 -0.2701 -0.6210 -0.9600
  132MOL0     H17779   2.219   2.523   4.037  1.0220 -0.9730 -1.5023
  132MOL0     H17780   2.087   2.379   4.204  2.2558  0.3780 -0.4314
  132MOL0     H17781   1.887   2.170   4.429 -1.8294 -0.2122 -0.6130
  132MOL0     H17782   1.924   2.335   4.385 -0.5319  0.2868 -2.1546
  132MOL0     H17783   1.778   2.272   4.324 -0.4913 -1.1331  0.1512
  132MOL0     H17784   1.551   1.930   3.983 -0.5294 -0.6623 -0.1081
  132MOL0     H17785   1.347   1.769   3.992 -0.7074 -1.4352 -0.4301
  132MOL0     H17786   1.353   1.481   4.327  2.0840  0.3425  0.5852
  132MOL0     H17787   1.247   1.404   4.201  0.9501 -1.4275 -0.7707
  132MOL0     H17788   1.526   1.383   4.129 -1.6925  1.4865 -1.8407
  132MOL0     H17789   1.492   1.311   4.285  0.3713  0.3283  0.1103
  132MOL0     H17790   1.315   1.231   4.061  1.5640 -0.2425 -0.8184
  132MOL0     H17791   1.324   1.162   4.226 -1.5139 -0.0678 -0.8703
  132MOL0     H17792   1.563   1.156   4.029  0.4268  0.6427  0.6093
  132MOL0     H17793   1.547   1.092   4.190  0.5729 -2.9885 -1.6926
  132MOL0     H17794   1.378   0.928   4.127  1.5882 -2.3479 -0.6676
  132MOL0     H17795   1.523   0.902   4.056  0.5783  0.4543  5.6124
  132MOL0     H17796   1.279   1.035   3.940  0.0762  1.1305 -1.3467
  132MOL0     H17797   1.435   1.056   3.849  2.3311 -0.8877  0.5447
  132MOL0     H17798   1.457   0.800   3.845 -0.6640 -1.9235  2.0790
  132MOL0     H17799   1.344   0.891   3.743  0.6018  1.5541 -0.0545
  132MOL0     H17800   1.267   0.750   4.008  0.4782 -1.7789 -0.6661
  132MOL0     H17801   1.255   0.669   3.853  0.5290  0.0728  1.5537
  132MOL0     H17802   1.552   1.569   4.324 -0.0337  1.4451  1.7256
  132MOL0     H17803   1.735   1.719   4.301  0.1271 -1.8311  0.8209
  132MOL0     H17804   2.039   1.919   4.045 -0.3880  0.5029 -0.3271
  132MOL0     H17805   2.210   2.087   3.954  0.0522 -0.7045 -1.0326
  132MOL0     H17806   1.634   1.109   3.363 -0.8884 -0.5536  1.5244
  132MOL0     H17807   1.446   0.983   3.377  3.8538 -0.7253 -0.0585
  132MOL0     H17808   0.921   1.104   3.278  1.3945  0.5311 -1.4734
  132MOL0     H17809   0.715   0.993   3.359  0.7802 -0.0554  2.1571
  132MOL0     H17810   0.600   0.702   3.534 -0.2441  1.3939 -0.0488
  132MOL0     H17811   0.580   0.844   3.428 -0.0083 -0.3114 -0.4704
  132MOL0     H17812   0.385   0.686   3.430  0.2364  1.6057 -0.0327
  132MOL0     H17813   0.501   0.571   3.357 -1.9565 -0.1117  1.3297
  132MOL0     H17814   0.349   0.681   3.186 -1.2517  0.1029  1.9007
  132MOL0     H17815   0.522   0.706   3.163 -0.3066  0.0498 -0.5963
  132MOL0     H17816   0.370   0.900   3.102 -2.9703  0.3792  0.7109
  132MOL0     H17817   0.502   0.947   3.210  0.8094  1.1659 -0.8477
  132MOL0     H17818   0.146   0.955   3.458  0.0504 -1.7017 -0.0813
  132MOL0     H17819   0.920   0.620   3.316  1.4082 -0.2662  2.3168
  132MOL0     H17820   1.124   0.737   3.227 -0.2239 -1.1543  2.3225
  133MOL0     O17821   9.312   1.119   0.928 -0.0414  0.5331 -0.4902
  133MOL0     C17822   9.259   1.155   0.823 -0.1755  0.8161 -1.6158
  133MOL0     O17823   9.173   1.259   0.815 -0.1503  0.5527 -0.2892
  133MOL0     C17824   9.117   1.309   0.936 -0.0266  0.2988 -0.5312
  133MOL0     C17825   9.189   1.339   1.053 -0.3149  0.1305  0.0879
  133MOL0     C17826   9.121   1.391   1.167 -0.7139  0.8070 -0.3532
  133MOL0     C17827   8.983   1.390   1.174 -1.2024  0.1057 -0.1437
  133MOL0     O17828   8.934   1.454   1.284 -1.0016  0.1260 -0.5055
  133MOL0     C17829   8.796   1.486   1.275 -0.3303 -0.2691 -0.5889
  133MOL0     C17830   8.733   1.517   1.406  0.2039 -0.0780 -0.8329
  133MOL0     C17831   8.810   1.628   1.486 -0.5447 -0.4840  0.4635
  133MOL0     C17832   8.766   1.631   1.627 -0.0954 -0.3331 -0.8617
  133MOL0     C17833   8.794   1.769   1.686 -0.1324 -0.0813  0.3819
  133MOL0     C17834   8.713   1.786   1.817 -0.1386  0.3450  0.4033
  133MOL0     C17835   8.767   1.695   1.924 -0.2987 -0.2373  0.0993
  133MOL0     C17836   8.719   1.751   2.065 -0.2659 -0.1037  0.4516
  133MOL0     N17837   8.746   1.893   2.097 -0.0406 -0.8216 -0.6735
  133MOL0     C17838   8.867   1.947   2.096  0.0451  0.4689 -0.5930
  133MOL0     C17839   8.855   2.063   2.165  0.4982 -0.7396  0.3407
  133MOL0     C17840   8.959   2.174   2.218 -0.7081 -0.0263 -0.6016
  133MOL0     C17841   9.101   2.161   2.167  0.4321  0.1137  0.1910
  133MOL0     C17842   9.185   2.294   2.173  0.2240 -0.0635 -0.3192
  133MOL0     C17843   9.330   2.262   2.118  0.7345 -0.0502 -0.3533
  133MOL0     O17844   9.426   2.360   2.159 -0.3396 -0.1110 -0.9217
  133MOL0     C17845   9.562   2.351   2.112  1.0686  0.3273  0.5962
  133MOL0     C17846   9.650   2.468   2.103 -0.1602 -0.6295  0.8760
  133MOL0     C17847   9.779   2.461   2.067 -0.3328 -1.1165  0.3874
  133MOL0     C17848   9.865   2.587   2.077  1.0343  0.5418 -0.1464
  133MOL0     C17849   9.828   2.341   2.013  0.4805  0.2588  0.0467
  133MOL0     C17850   9.967   2.327   1.971  0.4702 -0.0962  0.6411
  133MOL0     O17851   9.998   2.419   1.867  0.1514 -0.0161 -0.0710
  133MOL0     C17852  10.133   2.424   1.835  0.6937 -0.7951  0.2157
  133MOL0     C17853  10.169   2.354   1.721 -0.2844 -0.1397  0.1811
  133MOL0     C17854  10.308   2.334   1.689 -0.5350  0.7817 -0.3408
  133MOL0     C17855  10.411   2.380   1.778  0.2284  0.7017 -0.2661
  133MOL0     O17856  10.535   2.330   1.751  0.3404  0.5649 -0.8221
  133MOL0     C17857  10.630   2.434   1.727  0.9054 -0.3622 -0.4701
  133MOL0     C17858  10.763   2.373   1.710 -1.4636  0.0692  0.0756
  133MOL0     C17859  10.863   2.483   1.670 -0.1371 -0.3032 -0.0295
  133MOL0     C17860  11.007   2.418   1.651  1.1373  0.2143  0.1676
  133MOL0     C17861  11.108   2.523   1.617  0.0750 -0.3765 -0.1181
  133MOL0     C17862  11.252   2.461   1.643 -0.2323  0.3944  0.1141
  133MOL0     C17863  11.360   2.574   1.627 -0.2889  0.5011  0.2506
  133MOL0     C17864  11.503   2.520   1.663 -0.5126  0.7138 -0.9870
  133MOL0    Cl17865  11.612   2.659   1.653 -0.0073 -0.4590 -0.3673
  133MOL0     C17866  10.373   2.447   1.897  0.1310  0.5255 -0.2630
  133MOL0     C17867  10.238   2.470   1.923  0.2044  0.0266  0.1324
  133MOL0     O17868  10.042   2.249   2.015 -0.4024  0.4508 -0.4542
  133MOL0     C17869   9.737   2.235   2.013 -0.5309  0.5406 -0.2794
  133MOL0     C17870   9.617   2.235   2.060 -0.0794 -0.1839 -0.6232
  133MOL0     N17871   8.721   2.089   2.181  0.2130 -0.0651  0.2237
  133MOL0     N17872   8.651   1.986   2.134 -0.2546  0.4100  0.1037
  133MOL0     C17873   8.919   1.368   1.057  0.9296  0.1950  0.7433
  133MOL0     C17874   8.982   1.331   0.935  1.0902  0.0367  0.0863
  133MOL0     C17875   9.290   1.083   0.702 -0.4203 -0.2194  0.0631
  133MOL0     C17876   9.334   1.166   0.597  0.7407 -0.2747 -0.2442
  133MOL0     C17877   9.350   1.108   0.469  0.3499 -0.5138  1.2591
  133MOL0     C17878   9.345   0.969   0.445  0.4922 -0.6271 -0.5421
  133MOL0     O17879   9.374   0.906   0.328  0.5656 -0.2375 -0.2437
  133MOL0     C17880   9.481   0.957   0.250  0.1872  0.6868 -0.1891
  133MOL0     C17881   9.426   1.045   0.150 -0.1865 -0.2857  0.2716
  133MOL0     C17882   9.529   1.104   0.056 -0.5018  0.3873 -0.7308
  133MOL0     C17883   9.564   1.247   0.079 -0.3471 -0.4169  0.7301
  133MOL0     C17884   9.638   1.250   0.209 -0.3625 -0.6398 -0.0074
  133MOL0     C17885   9.689   1.246   0.320 -0.2079  0.7945 -0.2728
  133MOL0     C17886   9.304   0.892   0.553  0.1888 -0.2460 -0.3696
  133MOL0     C17887   9.281   0.947   0.686 -0.4113 -0.1961 -0.1888
  133MOL0     H17888   9.297   1.341   1.043 -0.3105 -0.7293 -0.1021
  133MOL0     H17889   9.179   1.404   1.258  3.3777 -3.9539 -1.8390
  133MOL0     H17890   8.778   1.575   1.213  1.2481  0.7884  0.3649
  133MOL0     H17891   8.749   1.396   1.236  1.3557 -1.1491 -0.6808
  133MOL0     H17892   8.628   1.543   1.388  0.4777  2.0636  0.4011
  133MOL0     H17893   8.738   1.426   1.466 -3.1739 -0.2614 -0.6798
  133MOL0     H17894   8.919   1.616   1.490 -0.2847  1.7268  1.8333
  133MOL0     H17895   8.784   1.718   1.429  1.0680  0.7192  1.5423
  133MOL0     H17896   8.657   1.632   1.620 -0.1420 -0.8639 -0.2860
  133MOL0     H17897   8.807   1.550   1.688  0.2864 -0.3592 -1.1494
  133MOL0     H17898   8.900   1.778   1.711  0.1581  2.8303 -1.4173
  133MOL0     H17899   8.759   1.839   1.609 -1.2858  3.6946  3.9054
  133MOL0     H17900   8.730   1.888   1.851  3.3650  0.0112 -0.0138
  133MOL0     H17901   8.606   1.763   1.813  0.1528 -1.5052  1.8413
  133MOL0     H17902   8.725   1.596   1.905 -2.1944  0.7618 -1.2715
  133MOL0     H17903   8.877   1.696   1.923 -0.1772 -2.4517 -3.2386
  133MOL0     H17904   8.772   1.699   2.145  0.0800 -1.9812 -0.9228
  133MOL0     H17905   8.615   1.723   2.081 -0.7399  0.2630 -1.6494
  133MOL0     H17906   8.960   1.899   2.070  2.0960  3.3118  0.9702
  133MOL0     H17907   8.923   2.276   2.202 -0.5359  0.4727  1.8130
  133MOL0     H17908   8.974   2.160   2.325 -1.0037 -1.3106 -0.7124
  133MOL0     H17909   9.087   2.146   2.060  1.2531  0.1957  0.0645
  133MOL0     H17910   9.148   2.078   2.222  0.9521  0.5888  0.4790
  133MOL0     H17911   9.198   2.333   2.274  0.0565 -1.0993  0.1174
  133MOL0     H17912   9.148   2.376   2.110  2.7297  1.2734 -0.1869
  133MOL0     H17913   9.333   2.259   2.009  0.2072 -2.5723 -0.3624
  133MOL0     H17914   9.360   2.167   2.163  1.2623 -0.8172 -2.2344
  133MOL0     H17915   9.616   2.568   2.125  1.0245  1.1991 -4.1983
  133MOL0     H17916   9.962   2.575   2.125  2.5196  2.3092 -2.5075
  133MOL0     H17917   9.877   2.633   1.979 -0.1245  1.2046  0.0056
  133MOL0     H17918   9.813   2.670   2.125  0.8119  1.0031 -1.1686
  133MOL0     H17919  10.083   2.321   1.664 -2.6661 -0.2970  3.5551
  133MOL0     H17920  10.332   2.284   1.596  1.0137  1.5261 -0.3645
  133MOL0     H17921  10.599   2.491   1.640 -3.6828 -1.6421  0.0875
  133MOL0     H17922  10.638   2.511   1.804  0.6065  0.5014 -1.2931
  133MOL0     H17923  10.802   2.312   1.792  1.4939  2.6736  0.8118
  133MOL0     H17924  10.753   2.310   1.621  1.8393  0.7609 -0.9133
  133MOL0     H17925  10.871   2.559   1.748  1.0251 -0.3853 -0.0441
  133MOL0     H17926  10.837   2.516   1.569 -0.0737 -0.2577 -0.0308
  133MOL0     H17927  11.034   2.372   1.746 -0.3770  0.4234  0.7349
  133MOL0     H17928  11.004   2.352   1.564 -0.1472  0.2823  0.1463
  133MOL0     H17929  11.099   2.612   1.679  0.3054 -0.0186 -0.6003
  133MOL0     H17930  11.093   2.555   1.514  0.8218 -0.0613 -0.1347
  133MOL0     H17931  11.267   2.430   1.746  3.5330  3.6249  0.8056
  133MOL0     H17932  11.267   2.370   1.584  2.4656  0.7770  0.0438
  133MOL0     H17933  11.330   2.654   1.696  1.1180  0.7363  0.6376
  133MOL0     H17934  11.355   2.618   1.527 -0.7409  2.7516  1.1952
  133MOL0     H17935  11.526   2.428   1.609 -1.4026 -0.7906  1.0739
  133MOL0     H17936  11.514   2.504   1.770  4.4383  3.7115 -0.7330
  133MOL0     H17937  10.453   2.483   1.961  0.6832  1.0316 -1.2086
  133MOL0     H17938  10.216   2.528   2.012 -3.1381  0.8560 -1.1090
  133MOL0     H17939   9.775   2.140   1.978  0.7353  0.1664  1.9178
  133MOL0     H17940   9.557   2.145   2.056 -1.9136  0.9492  0.4130
  133MOL0     H17941   8.813   1.392   1.055  0.5620 -1.2136  1.5522
  133MOL0     H17942   8.933   1.313   0.840 -0.3966  0.7941  0.6807
  133MOL0     H17943   9.362   1.270   0.612  0.3856 -0.3178  0.7921
  133MOL0     H17944   9.375   1.181   0.393 -0.2861 -1.2388  0.3132
  133MOL0     H17945   9.552   1.006   0.317 -1.7274  0.4239  2.1786
  133MOL0     H17946   9.531   0.874   0.199  0.4160  3.2062 -4.5776
  133MOL0     H17947   9.369   1.124   0.201 -1.0772 -1.9641  1.9963
  133MOL0     H17948   9.351   0.997   0.086  0.8188  0.4275 -1.5162
  133MOL0     H17949   9.476   1.110  -0.039 -4.0038  3.7616  1.1106
  133MOL0     H17950   9.617   1.040   0.046 -0.0475  0.7780  0.5463
  133MOL0     H17951   9.470   1.300   0.062 -1.0064 -1.4461  1.0946
  133MOL0     H17952   9.632   1.273  -0.003 -1.2268  3.8474  1.1308
  133MOL0     H17953   9.738   1.240   0.415  5.1978  1.1796 -2.7019
  133MOL0     H17954   9.295   0.784   0.545 -1.8267 -0.1259 -0.2924
  133MOL0     H17955   9.244   0.882   0.765 -3.0943  0.1459 -1.0686
  134MOL0     O17956  11.371   5.952   2.603 -0.3151 -0.2086  0.4271
  134MOL0     C17957  11.304   6.054   2.609  0.5955 -0.0278  0.1006
  134MOL0     O17958  11.330   6.170   2.547 -0.0599 -0.4334 -0.9267
  134MOL0     C17959  11.419   6.173   2.443 -0.2379 -0.7137 -0.4299
  134MOL0     C17960  11.360   6.158   2.318 -1.0097 -0.8943 -0.1353
  134MOL0     C17961  11.442   6.168   2.204  0.2136 -0.3365 -0.0951
  134MOL0     C17962  11.583   6.182   2.213  0.1991  0.0939  0.0810
  134MOL0     O17963  11.666   6.203   2.107  0.7084  0.7400 -0.6234
  134MOL0     C17964  11.606   6.233   1.978  0.7063 -0.3361 -0.3524
  134MOL0     C17965  11.533   6.372   1.984  0.8086  0.9136 -0.9721
  134MOL0     C17966  11.641   6.480   1.979 -0.0520 -0.3454 -0.9172
  134MOL0     C17967  11.584   6.620   2.033  1.1667  1.2706 -0.2204
  134MOL0     C17968  11.693   6.720   2.038  0.7758  0.8072 -0.4881
  134MOL0     C17969  11.643   6.831   2.134  1.0297 -1.2601 -0.4723
  134MOL0     C17970  11.770   6.915   2.184 -0.1658  0.5173  0.5556
  134MOL0     C17971  11.722   7.022   2.283 -0.7314 -0.4147  0.1766
  134MOL0     N17972  11.677   7.136   2.209 -0.1092 -0.0175 -0.3126
  134MOL0     C17973  11.542   7.174   2.196  0.8617  0.0850 -1.0191
  134MOL0     C17974  11.555   7.279   2.106  1.1219 -0.4120 -0.1167
  134MOL0     C17975  11.454   7.359   2.026  0.4305 -0.0538 -0.8885
  134MOL0     C17976  11.458   7.297   1.888  0.0216  0.4777  0.2638
  134MOL0     C17977  11.370   7.373   1.783 -0.1956  0.0271  0.2493
  134MOL0     C17978  11.432   7.497   1.714 -0.3258 -0.1255 -0.4106
  134MOL0     O17979  11.560   7.451   1.676 -0.4710  0.2333 -0.0338
  134MOL0     C17980  11.577   7.429   1.540 -0.4192  0.4180  0.2584
  134MOL0     C17981  11.630   7.301   1.496  0.0182 -0.3084  0.1796
  134MOL0     C17982  11.667   7.287   1.362  0.7023  0.1838  0.0431
  134MOL0     C17983  11.714   7.148   1.322  0.0175  0.4164  0.7393
  134MOL0     C17984  11.664   7.394   1.273  0.5327  0.6623  0.3500
  134MOL0     C17985  11.705   7.395   1.135  0.4132  0.4550  0.4741
  134MOL0     O17986  11.639   7.306   1.056 -0.3070 -0.5395  0.0782
  134MOL0     C17987  11.677   7.279   0.925  0.0682 -0.7558  0.7098
  134MOL0     C17988  11.790   7.318   0.850  0.5820  0.8575  0.6009
  134MOL0     C17989  11.815   7.281   0.719 -0.1275  0.4443 -0.1367
  134MOL0     C17990  11.714   7.221   0.648  0.4308 -1.0332  0.0282
  134MOL0     O17991  11.724   7.201   0.518 -0.5247 -0.1758  0.5927
  134MOL0     C17992  11.857   7.159   0.470 -0.2179  0.1305 -0.2928
  134MOL0     C17993  11.855   7.102   0.342 -0.0581  0.9779 -0.1811
  134MOL0     C17994  11.813   7.205   0.232 -0.1949 -0.2726  0.7585
  134MOL0     C17995  11.813   7.144   0.089  0.9495  0.4181  0.2065
  134MOL0     C17996  11.747   7.241  -0.014  0.0679 -0.3991  0.4192
  134MOL0     C17997  11.779   7.211  -0.164  0.7756  0.7434  0.1419
  134MOL0     C17998  11.676   7.101  -0.220 -0.1094  0.6907 -0.2306
  134MOL0     C17999  11.693   7.107  -0.373 -0.1957  0.5268 -0.2984
  134MOL0    Cl18000  11.587   7.229  -0.451  0.8383  0.3160  0.1405
  134MOL0     C18001  11.597   7.179   0.718  0.2468 -0.0086 -0.1861
  134MOL0     C18002  11.575   7.214   0.855 -0.2644 -0.8574  0.5250
  134MOL0     O18003  11.798   7.466   1.106 -0.0651 -0.3847 -0.5000
  134MOL0     C18004  11.611   7.520   1.315  0.0915  0.2976 -0.2198
  134MOL0     C18005  11.573   7.538   1.448  0.1157 -0.3485  1.2253
  134MOL0     N18006  11.690   7.318   2.093 -0.1995  0.4435 -0.3713
  134MOL0     N18007  11.760   7.223   2.154 -0.7045  0.3038  0.1422
  134MOL0     C18008  11.641   6.192   2.338  0.1274  0.8383 -0.1325
  134MOL0     C18009  11.564   6.181   2.454  0.7601  0.5263  0.9614
  134MOL0     C18010  11.185   6.053   2.703 -0.0718 -0.1058 -0.7732
  134MOL0     C18011  11.097   6.165   2.724 -0.5597  0.2388  1.1989
  134MOL0     C18012  10.993   6.153   2.810  0.5014 -0.1689 -0.3178
  134MOL0     C18013  10.958   6.028   2.878  0.3089 -0.4547  0.7191
  134MOL0     O18014  10.842   6.002   2.952  0.1447  0.7696  0.6594
  134MOL0     C18015  10.719   6.081   2.920 -0.3231  0.2786 -0.1141
  134MOL0     C18016  10.597   6.019   2.994 -0.3230  0.6872 -0.6333
  134MOL0     C18017  10.622   6.018   3.146  0.0121 -0.1401 -0.5512
  134MOL0     C18018  10.514   5.933   3.223 -0.0783  0.2962 -0.1277
  134MOL0     C18019  10.544   5.902   3.364  0.6812 -0.1752 -0.4228
  134MOL0     C18020  10.568   5.870   3.483  0.2591  1.0107  0.6187
  134MOL0     C18021  11.043   5.925   2.858 -0.2793  0.2499 -0.6335
  134MOL0     C18022  11.153   5.934   2.773  0.4318  0.3991  0.3127
  134MOL0     H18023  11.254   6.169   2.299 -0.5626  2.0349 -1.5860
  134MOL0     H18024  11.393   6.163   2.108 -2.1174  1.7936  0.8636
  134MOL0     H18025  11.681   6.234   1.898 -0.0046  1.8729 -1.0646
  134MOL0     H18026  11.530   6.157   1.957 -2.3585  2.3809  0.1515
  134MOL0     H18027  11.448   6.384   1.915  1.5085  3.5226 -1.4756
  134MOL0     H18028  11.487   6.376   2.083  0.1716 -1.2498 -1.1283
  134MOL0     H18029  11.732   6.438   2.023 -0.2166  0.4999  0.2819
  134MOL0     H18030  11.682   6.495   1.879  0.2680 -1.0412 -0.8973
  134MOL0     H18031  11.500   6.646   1.966  1.1454 -1.9409 -1.6554
  134MOL0     H18032  11.540   6.603   2.131 -1.3325  0.1371 -1.4260
  134MOL0     H18033  11.788   6.678   2.073  1.1295  0.5015 -1.7512
  134MOL0     H18034  11.716   6.754   1.936 -1.0128 -2.6395 -2.2068
  134MOL0     H18035  11.576   6.903   2.085  1.6401  0.8508  1.6384
  134MOL0     H18036  11.589   6.783   2.216 -1.6880 -3.0557 -3.0766
  134MOL0     H18037  11.842   6.853   2.238 -0.6251 -0.4418  0.0957
  134MOL0     H18038  11.828   6.966   2.106 -0.6012 -0.9703 -0.8083
  134MOL0     H18039  11.804   7.051   2.349  0.3170  0.8315 -1.5910
  134MOL0     H18040  11.639   6.970   2.332  0.9387 -3.6909 -0.1434
  134MOL0     H18041  11.450   7.129   2.232  1.5107 -1.0410 -0.7440
  134MOL0     H18042  11.358   7.351   2.078  0.6396 -0.2793 -0.5296
  134MOL0     H18043  11.481   7.465   2.018 -0.3025  0.1128 -1.2513
  134MOL0     H18044  11.422   7.195   1.902 -0.0869  0.4108 -0.4586
  134MOL0     H18045  11.558   7.288   1.843 -1.7595  0.3914 -4.1179
  134MOL0     H18046  11.269   7.390   1.820  0.5755  0.5157  2.2411
  134MOL0     H18047  11.365   7.299   1.703 -0.2827  0.3875 -0.0837
  134MOL0     H18048  11.443   7.584   1.780  0.7320 -0.9966  0.6005
  134MOL0     H18049  11.364   7.528   1.635 -0.7533  1.3772  0.4967
  134MOL0     H18050  11.639   7.215   1.562  0.6179 -0.2345  0.1971
  134MOL0     H18051  11.630   7.079   1.334  2.1894 -2.3221  1.1733
  134MOL0     H18052  11.749   7.147   1.218  2.7424 -1.2068  1.5672
  134MOL0     H18053  11.790   7.116   1.394 -0.9583 -3.0646  0.3965
  134MOL0     H18054  11.863   7.378   0.904  0.0918  1.8371  0.2126
  134MOL0     H18055  11.911   7.316   0.682  0.7583 -0.7645  0.9261
  134MOL0     H18056  11.924   7.246   0.473 -0.2698  0.1468  2.2049
  134MOL0     H18057  11.903   7.082   0.531 -1.8194 -0.0814  0.7065
  134MOL0     H18058  11.951   7.053   0.326  0.9188  1.2120  3.8465
  134MOL0     H18059  11.774   7.029   0.330  1.1043 -0.9524  2.6084
  134MOL0     H18060  11.878   7.291   0.248 -0.6302  0.5493 -1.5219
  134MOL0     H18061  11.712   7.242   0.254  1.1487  2.5171  2.8667
  134MOL0     H18062  11.918   7.124   0.066  1.0522 -1.5124  2.0224
  134MOL0     H18063  11.756   7.051   0.091  2.2321 -0.4036  2.9001
  134MOL0     H18064  11.791   7.339   0.008 -3.1229  1.0374  0.9352
  134MOL0     H18065  11.640   7.252   0.004  0.1444 -0.9097  1.2475
  134MOL0     H18066  11.776   7.309  -0.213 -0.8858  1.1377  0.9361
  134MOL0     H18067  11.881   7.174  -0.180  0.0414 -1.6347  0.6115
  134MOL0     H18068  11.574   7.128  -0.190 -0.4286  0.1082 -0.7577
  134MOL0     H18069  11.707   7.001  -0.189 -0.2205  0.7999  0.2316
  134MOL0     H18070  11.665   7.008  -0.411 -2.1181  0.8352  0.1996
  134MOL0     H18071  11.796   7.123  -0.404 -0.2480  1.3506 -0.0837
  134MOL0     H18072  11.525   7.113   0.671  1.9858 -0.0349 -3.0764
  134MOL0     H18073  11.477   7.205   0.900  0.8013  2.9775  4.1877
  134MOL0     H18074  11.622   7.610   1.255 -1.7016  1.5145  1.1680
  134MOL0     H18075  11.552   7.637   1.487  2.2290  0.3422  0.7194
  134MOL0     H18076  11.749   6.201   2.346  0.2737 -0.7122 -0.0359
  134MOL0     H18077  11.608   6.185   2.553  1.6129  1.9769  0.5592
  134MOL0     H18078  11.118   6.262   2.680 -0.5682  0.5007  1.7587
  134MOL0     H18079  10.929   6.240   2.803  2.5870  1.5730  0.8529
  134MOL0     H18080  10.728   6.184   2.956 -1.0961 -0.0009  0.9179
  134MOL0     H18081  10.701   6.088   2.812 -2.4185 -0.9011  0.1060
  134MOL0     H18082  10.580   5.914   2.967  0.3321  1.1882 -3.2484
  134MOL0     H18083  10.501   6.067   2.975 -0.4649  0.3326 -0.8248
  134MOL0     H18084  10.630   6.123   3.178  1.4826 -0.4058  0.0351
  134MOL0     H18085  10.722   5.973   3.157 -0.7714 -1.6262  1.1340
  134MOL0     H18086  10.501   5.840   3.167 -3.1698 -1.2857  2.8478
  134MOL0     H18087  10.419   5.986   3.226 -0.5891 -0.6269  0.7249
  134MOL0     H18088  10.593   5.833   3.580 -0.8269  0.5833  0.7396
  134MOL0     H18089  11.020   5.834   2.913  1.1583  0.5445  0.5434
  134MOL0     H18090  11.197   5.836   2.756 -1.6222 -0.7782  1.2535
  135MOL0     O18091   8.443   5.878   2.275 -0.7357 -0.3080 -0.6521
  135MOL0     C18092   8.375   5.783   2.316 -0.3798 -0.2335  0.5778
  135MOL0     O18093   8.398   5.715   2.424 -0.0945 -0.0566  0.8354
  135MOL0     C18094   8.508   5.726   2.497 -1.6784 -0.3209 -0.5770
  135MOL0     C18095   8.511   5.791   2.630 -0.3263  0.4382  0.2923
  135MOL0     C18096   8.632   5.803   2.697 -0.2714  0.2286  0.2197
  135MOL0     C18097   8.755   5.766   2.642 -0.4557  0.6451  0.2359
  135MOL0     O18098   8.873   5.790   2.710 -0.2049  0.4331  0.0646
  135MOL0     C18099   8.917   5.924   2.713  0.4527  0.5833  0.7857
  135MOL0     C18100   8.961   5.953   2.853 -0.1083  0.2670 -0.0912
  135MOL0     C18101   9.071   5.852   2.906 -0.5375 -0.3286  0.2289
  135MOL0     C18102   9.022   5.722   2.975 -0.3241  0.0537  0.9333
  135MOL0     C18103   9.136   5.629   3.024  0.3036 -0.1118 -0.9608
  135MOL0     C18104   9.223   5.710   3.118  0.8170 -0.6854  0.0436
  135MOL0     C18105   9.314   5.623   3.207 -0.1708 -0.1892  0.5258
  135MOL0     C18106   9.424   5.697   3.270 -0.3595  0.5692 -0.3371
  135MOL0     N18107   9.515   5.746   3.166 -0.4233  0.8929  0.0410
  135MOL0     C18108   9.512   5.867   3.109  0.1952  0.4733  1.1842
  135MOL0     C18109   9.624   5.872   3.033  0.0902  0.1870  0.2627
  135MOL0     C18110   9.666   5.989   2.949 -0.5448  0.1526 -0.5994
  135MOL0     C18111   9.552   6.072   2.886 -0.0011  1.0131  0.5089
  135MOL0     C18112   9.611   6.166   2.773  1.0056 -0.6804 -0.7295
  135MOL0     C18113   9.655   6.299   2.830 -0.0938  0.6057  0.3184
  135MOL0     O18114   9.773   6.268   2.899  0.8754 -0.1501 -0.2203
  135MOL0     C18115   9.895   6.292   2.834  0.1608  0.1265  0.9286
  135MOL0     C18116   9.926   6.409   2.775  0.9273  0.0653 -0.5220
  135MOL0     C18117  10.053   6.436   2.711 -0.0997  0.6576 -0.4472
  135MOL0     C18118  10.070   6.572   2.647  0.4540  0.6626  0.1693
  135MOL0     C18119  10.151   6.344   2.716 -0.1021 -0.2630  0.4173
  135MOL0     C18120  10.284   6.364   2.651 -0.1475  0.1351 -0.8983
  135MOL0     O18121  10.390   6.313   2.721  0.5664  0.5051 -0.6217
  135MOL0     C18122  10.502   6.338   2.647 -0.1995  0.1769 -0.8135
  135MOL0     C18123  10.563   6.235   2.565 -0.2028  0.1678  1.2135
  135MOL0     C18124  10.683   6.253   2.482  0.9019 -0.1864  0.1693
  135MOL0     C18125  10.746   6.383   2.494  0.0049 -0.3298  0.4689
  135MOL0     O18126  10.857   6.401   2.408  0.0491 -0.3052  0.2843
  135MOL0     C18127  10.960   6.491   2.446  0.0627 -0.0949 -0.1790
  135MOL0     C18128  11.074   6.454   2.356 -0.4129  0.0381 -0.7458
  135MOL0     C18129  11.075   6.504   2.212  0.2688  0.1468 -0.1417
  135MOL0     C18130  11.095   6.657   2.210  0.2250  0.1540 -0.7120
  135MOL0     C18131  11.231   6.687   2.140  1.0527 -0.3154 -0.5261
  135MOL0     C18132  11.243   6.831   2.066 -0.4720 -0.2513  0.5019
  135MOL0     C18133  11.198   6.819   1.920 -0.2642  0.1154 -1.0871
  135MOL0     C18134  11.163   6.953   1.851  0.7768 -0.9138 -0.2759
  135MOL0    Cl18135  11.002   7.004   1.928  0.0699 -0.3582 -0.1537
  135MOL0     C18136  10.693   6.479   2.591  0.4628  0.4995  0.4623
  135MOL0     C18137  10.573   6.455   2.656 -0.4622  1.8789  1.1341
  135MOL0     O18138  10.285   6.404   2.535  0.0525  0.4018 -0.2720
  135MOL0     C18139  10.124   6.225   2.788 -0.9562 -0.1251  0.7522
  135MOL0     C18140  10.000   6.197   2.839 -0.1563  0.0573  0.2805
  135MOL0     N18141   9.683   5.750   3.032 -0.8013  0.2509  0.0400
  135MOL0     N18142   9.619   5.681   3.115  0.4622 -0.3007 -0.5991
  135MOL0     C18143   8.756   5.708   2.515  0.1311 -0.2496 -0.5168
  135MOL0     C18144   8.631   5.686   2.447 -0.4644  0.8536 -0.1475
  135MOL0     C18145   8.263   5.738   2.228  1.3135  0.4533  0.6373
  135MOL0     C18146   8.214   5.816   2.120  0.4004 -0.1395 -1.5345
  135MOL0     C18147   8.126   5.765   2.032 -0.2283  0.1335  0.6179
  135MOL0     C18148   8.063   5.647   2.048 -0.1102  0.1436  0.3899
  135MOL0     O18149   7.981   5.600   1.947 -0.0822 -0.5829 -0.7136
  135MOL0     C18150   7.915   5.471   1.958  0.0802 -0.5571 -0.5514
  135MOL0     C18151   7.850   5.433   1.822 -0.2898 -0.4912 -0.5716
  135MOL0     C18152   7.748   5.312   1.854 -0.6251 -0.6276  0.0864
  135MOL0     C18153   7.809   5.187   1.918  0.2212  0.3524 -0.5891
  135MOL0     C18154   7.709   5.082   1.962  0.4279 -0.7387  0.0873
  135MOL0     C18155   7.615   5.002   1.965  0.1373 -0.9556 -0.0705
  135MOL0     C18156   8.102   5.569   2.157 -0.3049  0.1157  0.7153
  135MOL0     C18157   8.194   5.607   2.255  0.0808 -0.1934 -0.1669
  135MOL0     H18158   8.413   5.802   2.675  0.1359 -0.3177  1.5298
  135MOL0     H18159   8.644   5.833   2.801  4.2909 -0.9927  0.2599
  135MOL0     H18160   8.999   5.930   2.641 -0.2715 -0.8469 -0.2011
  135MOL0     H18161   8.839   5.988   2.672  1.3727 -1.1251 -4.3470
  135MOL0     H18162   9.013   6.049   2.843 -1.2919  0.9816  0.3368
  135MOL0     H18163   8.892   5.967   2.937  2.1212  2.5145  1.5270
  135MOL0     H18164   9.142   5.823   2.828 -0.7837 -0.9443  0.2286
  135MOL0     H18165   9.121   5.908   2.985 -2.7616  3.2910 -0.6463
  135MOL0     H18166   8.961   5.743   3.064 -1.7027  2.3678 -0.4615
  135MOL0     H18167   8.960   5.669   2.903  1.2549 -1.6799  0.7804
  135MOL0     H18168   9.094   5.552   3.090  0.7637 -0.5565 -1.1724
  135MOL0     H18169   9.198   5.591   2.942 -0.3731 -4.6856  0.3402
  135MOL0     H18170   9.273   5.786   3.058 -2.2231 -0.4917 -2.5160
  135MOL0     H18171   9.160   5.775   3.180  0.9197  0.0757 -0.6305
  135MOL0     H18172   9.260   5.576   3.290  2.0436 -1.2742  1.4130
  135MOL0     H18173   9.359   5.543   3.148  0.5235  1.9198 -2.0145
  135MOL0     H18174   9.472   5.619   3.328  0.6484  0.6973 -0.9728
  135MOL0     H18175   9.385   5.772   3.339  1.3592 -1.1464  2.7292
  135MOL0     H18176   9.434   5.942   3.122  0.4189  1.2752 -1.4188
  135MOL0     H18177   9.729   6.065   2.996  0.5180 -1.7765  1.3076
  135MOL0     H18178   9.736   5.949   2.874  1.0811  3.3854 -0.9626
  135MOL0     H18179   9.500   6.132   2.961 -0.3145  3.8925 -1.8219
  135MOL0     H18180   9.480   6.011   2.832  1.5085 -0.0564 -0.3845
  135MOL0     H18181   9.528   6.179   2.704 -0.8488 -0.9699  1.3509
  135MOL0     H18182   9.689   6.120   2.711 -1.1810 -4.4431 -0.9930
  135MOL0     H18183   9.572   6.341   2.887 -0.9521  0.5328 -0.8349
  135MOL0     H18184   9.666   6.372   2.749  0.6544  0.5681  0.3804
  135MOL0     H18185   9.853   6.489   2.778  1.0067  0.8148 -6.4996
  135MOL0     H18186   9.979   6.629   2.669  0.2888  0.1763  0.7922
  135MOL0     H18187  10.158   6.620   2.689  1.1376  1.5591 -2.1519
  135MOL0     H18188  10.067   6.559   2.538  0.8903  1.9902 -0.0182
  135MOL0     H18189  10.520   6.137   2.552  1.4012 -0.2999 -1.2539
  135MOL0     H18190  10.734   6.185   2.414  2.2460  0.2154  0.7388
  135MOL0     H18191  10.934   6.596   2.434 -1.8191 -0.3226  1.3420
  135MOL0     H18192  10.993   6.476   2.549  0.2459 -0.7948 -0.3342
  135MOL0     H18193  11.157   6.498   2.411 -1.5045  1.6729 -0.3226
  135MOL0     H18194  11.086   6.346   2.348  1.2453 -0.1570  2.6867
  135MOL0     H18195  10.976   6.477   2.172 -0.4918 -0.2638  1.8900
  135MOL0     H18196  11.154   6.453   2.156  0.1864  0.9928 -1.0716
  135MOL0     H18197  11.009   6.703   2.160 -0.0824 -0.7353 -1.0347
  135MOL0     H18198  11.095   6.690   2.314  0.6673 -1.0159 -0.3177
  135MOL0     H18199  11.264   6.623   2.057  0.0036  2.2514 -3.0939
  135MOL0     H18200  11.309   6.695   2.215  1.9161  2.2855 -1.6050
  135MOL0     H18201  11.184   6.899   2.127 -1.3433 -0.3700 -0.1867
  135MOL0     H18202  11.347   6.865   2.067  0.4161 -1.7509 -5.1162
  135MOL0     H18203  11.107   6.757   1.920 -0.3235  0.1080  1.0457
  135MOL0     H18204  11.275   6.763   1.866  0.2528  0.9633 -1.2403
  135MOL0     H18205  11.141   6.931   1.747 -1.8518  0.4782 -0.0980
  135MOL0     H18206  11.241   7.029   1.865  1.4759 -2.1371  4.0526
  135MOL0     H18207  10.758   6.562   2.617  1.9934 -1.1540  2.2981
  135MOL0     H18208  10.531   6.534   2.717  0.1990  1.1031  2.6510
  135MOL0     H18209  10.207   6.154   2.783  0.8336  1.6222  3.0100
  135MOL0     H18210   9.979   6.098   2.879  0.1377  0.2580  0.9337
  135MOL0     H18211   8.851   5.672   2.478 -0.1005 -1.3580 -0.0868
  135MOL0     H18212   8.624   5.635   2.352 -2.9325  1.4102 -0.3101
  135MOL0     H18213   8.254   5.914   2.097  1.3137  0.1984  1.1373
  135MOL0     H18214   8.104   5.829   1.947  0.1982  0.2848  0.6198
  135MOL0     H18215   7.999   5.405   1.983  1.6934  1.6132  0.0801
  135MOL0     H18216   7.841   5.461   2.037  0.6681 -2.0308 -0.1604
  135MOL0     H18217   7.927   5.395   1.754  0.6333 -0.1318  0.2478
  135MOL0     H18218   7.792   5.510   1.768 -1.4842  0.9906  2.5613
  135MOL0     H18219   7.699   5.285   1.760  1.0718 -4.2091  0.0448
  135MOL0     H18220   7.670   5.355   1.918  2.2571  1.3126  2.5424
  135MOL0     H18221   7.867   5.221   2.004 -1.2204  0.8184  0.2463
  135MOL0     H18222   7.878   5.140   1.848  0.6787 -2.4431  1.5692
  135MOL0     H18223   7.530   4.937   1.971 -0.7448  0.1744 -0.0087
  135MOL0     H18224   8.062   5.470   2.178  1.4452 -0.7562  0.1162
  135MOL0     H18225   8.228   5.549   2.340  0.6395 -0.8099 -0.7943
  136MOL0     O18226   3.869   9.625   1.916 -0.2113 -0.6108 -1.3599
  136MOL0     C18227   3.911   9.655   2.034  0.0444  0.3309  0.9199
  136MOL0     O18228   3.842   9.637   2.153 -0.3633  0.2837 -0.3750
  136MOL0     C18229   3.706   9.620   2.145 -0.2851  0.2377 -0.5546
  136MOL0     C18230   3.621   9.692   2.057 -0.3456  0.7277 -0.4868
  136MOL0     C18231   3.488   9.642   2.040  0.3631  0.4376 -0.5400
  136MOL0     C18232   3.432   9.538   2.121  1.3213  0.1555  0.1899
  136MOL0     O18233   3.303   9.480   2.101 -0.7281  1.3438 -0.4721
  136MOL0     C18234   3.211   9.520   2.008 -0.2062  0.6166 -0.2669
  136MOL0     C18235   3.149   9.660   2.035 -0.9331 -0.1715 -0.1686
  136MOL0     C18236   3.112   9.677   2.189 -0.7874 -0.0255  0.0532
  136MOL0     C18237   3.071   9.820   2.242 -0.1520  0.0455  0.0296
  136MOL0     C18238   2.938   9.877   2.193  0.1769 -0.7150  0.0375
  136MOL0     C18239   2.824   9.786   2.231  0.0816 -0.0552 -0.0487
  136MOL0     C18240   2.690   9.854   2.236 -0.2856 -0.4710 -0.6426
  136MOL0     C18241   2.637   9.925   2.107  0.0343  0.1251  0.3639
  136MOL0     N18242   2.518  10.008   2.137 -1.2010  0.3112 -0.0475
  136MOL0     C18243   2.399   9.956   2.117 -0.3233 -0.2474  0.5728
  136MOL0     C18244   2.320  10.063   2.156 -0.2133  0.1519 -0.4709
  136MOL0     C18245   2.174  10.075   2.148  0.2653  0.7377 -0.4003
  136MOL0     C18246   2.131  10.151   2.023 -0.5461  0.2701 -0.3973
  136MOL0     C18247   2.125  10.056   1.903  0.3156  0.6811 -0.2762
  136MOL0     C18248   2.091  10.116   1.764 -1.1108 -0.9133 -0.3862
  136MOL0     O18249   1.983  10.210   1.789  0.7155  0.3690  0.3582
  136MOL0     C18250   1.928  10.290   1.688  0.2607  0.0356  0.2904
  136MOL0     C18251   1.834  10.398   1.711 -0.5649  0.7967  0.5425
  136MOL0     C18252   1.793  10.496   1.609  0.6996  0.8013 -0.7518
  136MOL0     C18253   1.694  10.601   1.659 -0.2898  0.2771  0.8900
  136MOL0     C18254   1.833  10.467   1.476 -0.4218 -0.6261 -0.4749
  136MOL0     C18255   1.796  10.561   1.359  0.7152 -0.8231  0.3660
  136MOL0     O18256   1.860  10.525   1.242 -0.0759  0.0898  0.1523
  136MOL0     C18257   1.837  10.578   1.119 -0.2214  0.9313 -0.0663
  136MOL0     C18258   1.945  10.580   1.028 -0.2580 -0.1937 -0.0882
  136MOL0     C18259   1.924  10.620   0.896  0.4122  0.4581  0.4778
  136MOL0     C18260   1.794  10.652   0.851 -0.3232  0.3552 -0.1637
  136MOL0     O18261   1.760  10.657   0.717  0.2764 -0.1132 -0.2033
  136MOL0     C18262   1.865  10.684   0.626  0.0836 -0.3544  0.5331
  136MOL0     C18263   1.815  10.714   0.481 -0.2292 -0.6022 -0.0762
  136MOL0     C18264   1.679  10.647   0.441  0.6654 -0.4862 -0.5482
  136MOL0     C18265   1.628  10.706   0.308  0.2561  0.0113  0.1845
  136MOL0     C18266   1.481  10.678   0.288  1.2349  0.7586  0.6744
  136MOL0     C18267   1.443  10.721   0.148 -0.5524  0.1915  0.3515
  136MOL0     C18268   1.297  10.704   0.109  0.5439 -0.0810  0.1215
  136MOL0     C18269   1.193  10.785   0.185 -0.1950 -0.1643 -0.5988
  136MOL0    Cl18270   1.203  10.957   0.148 -0.0365  0.2286  0.2655
  136MOL0     C18271   1.692  10.650   0.939 -0.6334 -0.7439 -1.0854
  136MOL0     C18272   1.707  10.612   1.076  0.2057 -1.1580 -0.0797
  136MOL0     O18273   1.721  10.662   1.370  0.2644 -0.2429 -0.4064
  136MOL0     C18274   1.926  10.367   1.456  0.2244 -1.0984 -0.5621
  136MOL0     C18275   1.968  10.275   1.559  0.3003 -0.8510 -1.1257
  136MOL0     N18276   2.400  10.169   2.200 -0.2660  0.7048 -0.0888
  136MOL0     N18277   2.522  10.134   2.191  0.5184 -0.4466 -0.1361
  136MOL0     C18278   3.510   9.485   2.222  0.4273 -0.1964  0.2108
  136MOL0     C18279   3.642   9.515   2.222  0.8608 -1.0863 -0.6858
  136MOL0     C18280   4.053   9.695   2.048  0.2781 -0.3159 -0.6169
  136MOL0     C18281   4.109   9.716   2.179 -0.8887 -0.3019 -0.7856
  136MOL0     C18282   4.231   9.768   2.196 -0.5920 -0.4577 -0.0595
  136MOL0     C18283   4.313   9.794   2.079 -1.5077 -0.4248 -0.8177
  136MOL0     O18284   4.453   9.830   2.086 -0.4430  0.8279  0.6409
  136MOL0     C18285   4.504   9.909   2.196  0.5561  0.1685 -0.4937
  136MOL0     C18286   4.624   9.985   2.152 -0.5646  0.7937 -0.9726
  136MOL0     C18287   4.664  10.086   2.260 -0.6158  0.6656  1.0711
  136MOL0     C18288   4.796  10.162   2.210 -0.0852 -0.3904 -1.1901
  136MOL0     C18289   4.799  10.231   2.076 -0.5569  0.0380  0.1086
  136MOL0     C18290   4.794  10.300   1.973  0.1031  0.5836 -0.7851
  136MOL0     C18291   4.272   9.740   1.958 -0.0269 -0.0015  0.3803
  136MOL0     C18292   4.149   9.691   1.936  1.0268  0.3549 -0.5779
  136MOL0     H18293   3.669   9.767   1.995  2.8137 -1.1731 -0.5411
  136MOL0     H18294   3.428   9.694   1.966  2.1607  2.5224 -0.6389
  136MOL0     H18295   3.249   9.504   1.907  1.6039  0.5716  0.3696
  136MOL0     H18296   3.132   9.445   2.019  0.9848 -0.5042  1.3211
  136MOL0     H18297   3.217   9.737   1.996 -2.4907  2.3310  1.7553
  136MOL0     H18298   3.056   9.670   1.980 -2.1827 -2.0190  1.4617
  136MOL0     H18299   3.036   9.601   2.210 -0.4013 -0.4913 -0.2100
  136MOL0     H18300   3.202   9.644   2.241 -1.3130 -1.2292  0.2601
  136MOL0     H18301   3.061   9.824   2.351 -0.0035 -1.0902  0.1033
  136MOL0     H18302   3.154   9.883   2.210 -0.2715  1.2738  1.9481
  136MOL0     H18303   2.923   9.976   2.237 -4.2056 -1.6018  1.0142
  136MOL0     H18304   2.955   9.874   2.085 -0.5341 -0.8790 -0.0712
  136MOL0     H18305   2.822   9.702   2.161 -1.3287 -2.0398  2.2051
  136MOL0     H18306   2.849   9.758   2.334  0.4402 -0.0609 -0.1353
  136MOL0     H18307   2.619   9.776   2.264  0.0355 -0.9033 -1.0248
  136MOL0     H18308   2.678   9.916   2.326  1.6946  1.1290 -1.4100
  136MOL0     H18309   2.624   9.846   2.033 -0.3231 -1.0684  1.6547
  136MOL0     H18310   2.721   9.987   2.076  0.0892  0.3482  0.9441
  136MOL0     H18311   2.361   9.863   2.076 -5.1762  0.8262  1.9758
  136MOL0     H18312   2.131   9.975   2.149 -0.9663  1.2310 -1.3634
  136MOL0     H18313   2.143  10.130   2.237  0.1162  0.6320 -0.3864
  136MOL0     H18314   2.196  10.238   2.014  1.2708 -1.1938 -2.9743
  136MOL0     H18315   2.030  10.189   2.041 -0.8645 -1.7564  2.9568
  136MOL0     H18316   2.047   9.983   1.926  1.9049 -0.5840  1.4025
  136MOL0     H18317   2.217  10.002   1.881  0.2223  0.6775 -0.6806
  136MOL0     H18318   2.063  10.034   1.697  0.5160 -1.3923 -0.5261
  136MOL0     H18319   2.176  10.171   1.721  0.3900 -2.0367  1.0019
  136MOL0     H18320   1.772  10.417   1.798 -3.4011  2.0727 -1.5762
  136MOL0     H18321   1.613  10.591   1.586 -1.7089  1.4371  2.2312
  136MOL0     H18322   1.651  10.561   1.752 -0.6596 -2.3128 -0.3048
  136MOL0     H18323   1.733  10.703   1.657 -0.0206  0.1723  0.8721
  136MOL0     H18324   2.042  10.544   1.060  0.0402  1.4401  0.9695
  136MOL0     H18325   2.015  10.619   0.838 -0.0261 -0.2904 -0.2164
  136MOL0     H18326   1.923  10.764   0.672  0.1879 -0.3381  0.3719
  136MOL0     H18327   1.927  10.595   0.613  1.0086  0.5091 -1.1542
  136MOL0     H18328   1.799  10.822   0.475 -1.6025 -0.7061  1.0749
  136MOL0     H18329   1.890  10.684   0.408 -0.5770  0.0578 -0.7091
  136MOL0     H18330   1.604  10.645   0.521  1.2178 -0.8900 -0.0305
  136MOL0     H18331   1.703  10.543   0.421  0.5736 -0.4513 -0.8421
  136MOL0     H18332   1.638  10.815   0.317 -1.0105  0.2288 -0.6831
  136MOL0     H18333   1.683  10.671   0.220 -0.2345 -2.8210  0.9292
  136MOL0     H18334   1.420  10.734   0.361 -2.6967 -1.8514 -0.2908
  136MOL0     H18335   1.447  10.574   0.282 -0.2146  1.3013 -2.1572
  136MOL0     H18336   1.461  10.829   0.137  2.6377 -0.4245 -2.0044
  136MOL0     H18337   1.510  10.669   0.079 -2.5110 -0.9526 -0.8107
  136MOL0     H18338   1.257  10.605   0.132 -2.8478  1.5945  2.2503
  136MOL0     H18339   1.276  10.719   0.003  1.4655 -1.7513 -0.3194
  136MOL0     H18340   1.207  10.768   0.292 -0.8684 -1.9996 -0.7633
  136MOL0     H18341   1.089  10.760   0.161 -0.3656 -0.9798  0.8526
  136MOL0     H18342   1.595  10.684   0.904 -0.1739  4.5008  1.7149
  136MOL0     H18343   1.612  10.616   1.128 -1.8307 -0.8762 -3.5571
  136MOL0     H18344   1.962  10.346   1.356 -1.0339  0.3266 -1.3402
  136MOL0     H18345   2.040  10.199   1.530  2.2046 -0.4185  1.9735
  136MOL0     H18346   3.475   9.408   2.290  0.9405  0.0212  0.7288
  136MOL0     H18347   3.713   9.482   2.297  0.0949 -1.1907  0.0022
  136MOL0     H18348   4.048   9.715   2.269 -2.4802 -0.2310 -1.8228
  136MOL0     H18349   4.263   9.784   2.298  1.6843  0.2869 -0.8395
  136MOL0     H18350   4.431   9.982   2.233 -0.6357 -0.3648 -1.6983
  136MOL0     H18351   4.527   9.839   2.277  0.6699  1.2569  0.4316
  136MOL0     H18352   4.596  10.043   2.064 -1.3104  0.7890 -0.7391
  136MOL0     H18353   4.709   9.919   2.131 -1.4262 -0.1165 -1.6436
  136MOL0     H18354   4.685  10.039   2.357  2.2261  0.9526  0.6619
  136MOL0     H18355   4.580  10.155   2.278 -0.5823  0.6903  1.1360
  136MOL0     H18356   4.886  10.100   2.218  2.0838  2.4592 -1.9903
  136MOL0     H18357   4.807  10.245   2.280  1.7818 -1.3556 -0.2701
  136MOL0     H18358   4.778  10.338   1.875  0.8861  0.8703 -0.8138
  136MOL0     H18359   4.343   9.754   1.877  2.3041  0.4556  2.3861
  136MOL0     H18360   4.115   9.649   1.842 -0.2471  0.4270 -0.1752
  137MOL0     O18361   5.366   3.478   9.875  0.4855  0.2076 -0.7756
  137MOL0     C18362   5.370   3.514   9.994  0.3550  0.1983 -0.5677
  137MOL0     O18363   5.263   3.524  10.079  0.3449 -0.4512 -0.8546
  137MOL0     C18364   5.143   3.496  10.019  0.4254 -1.4735  0.1977
  137MOL0     C18365   5.085   3.578   9.920  1.1927 -0.0347  0.0106
  137MOL0     C18366   4.952   3.552   9.874  0.3957 -0.7442  0.6842
  137MOL0     C18367   4.877   3.447   9.933  0.2128 -0.2886 -0.2965
  137MOL0     O18368   4.748   3.401   9.904  0.1688 -0.4100  0.8634
  137MOL0     C18369   4.666   3.477   9.814 -1.0130  0.1065 -0.4978
  137MOL0     C18370   4.518   3.443   9.834 -0.4299 -0.1295  0.6099
  137MOL0     C18371   4.418   3.501   9.733 -0.5596 -0.0754  0.3879
  137MOL0     C18372   4.315   3.386   9.701  0.2222  0.2716 -0.3365
  137MOL0     C18373   4.208   3.432   9.609 -0.6045  0.1805  0.3124
  137MOL0     C18374   4.116   3.528   9.688 -0.6442 -0.1503  1.0812
  137MOL0     C18375   3.980   3.534   9.611 -0.1289 -0.5264 -0.7768
  137MOL0     C18376   3.893   3.626   9.694 -0.0389 -0.6591 -0.5927
  137MOL0     N18377   3.771   3.670   9.626 -0.3776  1.2420  0.4940
  137MOL0     C18378   3.649   3.629   9.664  0.5545 -0.3070 -0.6814
  137MOL0     C18379   3.558   3.715   9.612  0.0799 -0.1211  0.9519
  137MOL0     C18380   3.408   3.689   9.618 -0.7267  0.7311 -0.0569
  137MOL0     C18381   3.362   3.598   9.505  0.7239  0.5243  0.2109
  137MOL0     C18382   3.397   3.452   9.535 -0.6650 -0.0084  0.4784
  137MOL0     C18383   3.338   3.403   9.663  0.7441  0.2360 -0.0590
  137MOL0     O18384   3.339   3.255   9.666 -0.1018 -0.0559  0.2215
  137MOL0     C18385   3.465   3.190   9.655  0.9452 -0.1477 -0.0464
  137MOL0     C18386   3.583   3.234   9.715  0.1743 -0.3606  0.4448
  137MOL0     C18387   3.709   3.162   9.720 -0.2095  0.6380  0.1817
  137MOL0     C18388   3.819   3.230   9.801  0.3018 -0.4152 -0.2406
  137MOL0     C18389   3.708   3.032   9.651  0.6822  0.2501  0.8125
  137MOL0     C18390   3.820   2.935   9.664 -0.1240  0.1465 -0.9535
  137MOL0     O18391   3.816   2.823   9.585 -0.2902  0.0923  0.7015
  137MOL0     C18392   3.918   2.736   9.591 -0.0836  1.2622 -0.6689
  137MOL0     C18393   3.923   2.640   9.487 -0.2006  0.7567  0.7373
  137MOL0     C18394   4.016   2.530   9.471 -0.7768  0.1951 -0.0690
  137MOL0     C18395   4.096   2.514   9.586 -0.7105  0.2205 -0.5380
  137MOL0     O18396   4.178   2.400   9.577 -0.2884  0.1601  0.3443
  137MOL0     C18397   4.280   2.379   9.675  0.8011  0.4643  0.1309
  137MOL0     C18398   4.354   2.245   9.668  0.5888 -0.4270  0.2967
  137MOL0     C18399   4.478   2.255   9.584 -0.4145 -0.2741 -0.4411
  137MOL0     C18400   4.550   2.126   9.538  0.0255 -0.0374  0.3638
  137MOL0     C18401   4.613   2.039   9.649 -0.2249 -0.4234  0.8733
  137MOL0     C18402   4.688   1.925   9.578 -0.0086  0.5917  0.1187
  137MOL0     C18403   4.766   1.832   9.679 -0.9680 -0.3289  0.8043
  137MOL0     C18404   4.832   1.709   9.610  0.4397  0.0092 -0.5008
  137MOL0    Cl18405   4.964   1.758   9.502 -0.1529  0.3059 -0.3414
  137MOL0     C18406   4.090   2.612   9.692  0.2577  0.2233 -0.3698
  137MOL0     C18407   3.999   2.712   9.697 -0.0878  0.1288 -0.7548
  137MOL0     O18408   3.912   2.975   9.733  0.0213  0.2684 -0.0152
  137MOL0     C18409   3.593   2.998   9.568 -0.3726 -0.0885 -0.0605
  137MOL0     C18410   3.469   3.079   9.580 -0.1549 -0.7452 -0.8144
  137MOL0     N18411   3.632   3.821   9.548  0.1497  0.4326 -0.8644
  137MOL0     N18412   3.756   3.790   9.568 -0.3204 -0.5638 -0.9159
  137MOL0     C18413   4.929   3.382  10.041 -0.1219  0.1443  0.2173
  137MOL0     C18414   5.056   3.405  10.085 -0.0206  0.3601  0.0888
  137MOL0     C18415   5.490   3.556  10.061 -0.1499 -0.9099  0.2871
  137MOL0     C18416   5.497   3.577  10.197 -0.1743  0.7185 -0.3477
  137MOL0     C18417   5.613   3.623  10.259 -0.3733 -1.1089  0.2186
  137MOL0     C18418   5.719   3.674  10.180  0.0538  0.5955  0.8588
  137MOL0     O18419   5.829   3.746  10.230  0.1724  0.5109  0.7535
  137MOL0     C18420   5.849   3.770  10.373 -0.4659 -0.9056  0.1615
  137MOL0     C18421   6.002   3.775  10.393  0.4157 -0.0648  0.7829
  137MOL0     C18422   6.049   3.923  10.371  0.2174 -0.5076 -1.0830
  137MOL0     C18423   6.206   3.918  10.376 -0.2496 -0.0307 -0.3882
  137MOL0     C18424   6.257   4.062  10.374  0.0803  0.5660 -0.0120
  137MOL0     C18425   6.315   4.173  10.377 -0.3674 -0.2374 -0.6881
  137MOL0     C18426   5.704   3.655  10.038 -0.3355 -0.1953 -1.1119
  137MOL0     C18427   5.590   3.599   9.983  0.8584  0.2227 -0.7990
  137MOL0     H18428   5.148   3.656   9.878 -0.5492  2.0134  0.9507
  137MOL0     H18429   4.917   3.600   9.784  1.6341 -1.6278 -0.3043
  137MOL0     H18430   4.687   3.584   9.820  2.7688 -0.4246 -1.5419
  137MOL0     H18431   4.702   3.445   9.716 -0.3050 -3.6533  0.8089
  137MOL0     H18432   4.512   3.336   9.814  1.2500  0.5160 -5.0027
  137MOL0     H18433   4.478   3.463   9.934 -1.2866 -2.5556  0.8172
  137MOL0     H18434   4.383   3.591   9.784  1.2973 -0.1902  1.9878
  137MOL0     H18435   4.483   3.529   9.649  1.4269 -0.2332  1.8221
  137MOL0     H18436   4.375   3.304   9.661 -1.0815 -0.5056 -0.7331
  137MOL0     H18437   4.274   3.347   9.794  2.2655 -0.4070  0.3358
  137MOL0     H18438   4.251   3.479   9.520 -1.1249 -3.0782 -1.8452
  137MOL0     H18439   4.140   3.348   9.589  0.3219 -0.4478 -0.2883
  137MOL0     H18440   4.103   3.483   9.787 -2.9885  0.1987  0.9881
  137MOL0     H18441   4.159   3.627   9.703 -2.5268  0.9509 -0.3560
  137MOL0     H18442   4.001   3.581   9.515  1.5463 -1.5808 -0.9557
  137MOL0     H18443   3.927   3.439   9.595 -0.5079 -0.8996  2.1742
  137MOL0     H18444   3.950   3.717   9.712 -0.2799 -0.4300 -0.9905
  137MOL0     H18445   3.876   3.578   9.791 -1.5900 -0.4823 -0.7496
  137MOL0     H18446   3.627   3.553   9.738  0.2579  1.9485  1.6763
  137MOL0     H18447   3.390   3.644   9.717 -0.5739  1.1849  0.1798
  137MOL0     H18448   3.356   3.784   9.608 -2.2096 -0.0442 -0.0464
  137MOL0     H18449   3.401   3.629   9.408 -1.0342  1.7151 -0.1763
  137MOL0     H18450   3.252   3.598   9.500  0.6135 -2.3448  1.1271
  137MOL0     H18451   3.505   3.440   9.542 -0.3844  1.2094 -1.1979
  137MOL0     H18452   3.371   3.388   9.450 -1.3396  1.5372 -0.5279
  137MOL0     H18453   3.229   3.415   9.669  0.5311 -1.7330  0.5707
  137MOL0     H18454   3.400   3.443   9.744 -0.2646  0.1936  0.7500
  137MOL0     H18455   3.588   3.329   9.767  2.4331 -1.2991  2.0993
  137MOL0     H18456   3.780   3.317   9.855  2.5037  0.2352  0.3685
  137MOL0     H18457   3.865   3.156   9.867  0.8760 -0.8671 -1.1281
  137MOL0     H18458   3.899   3.269   9.738  0.8433  1.5891  1.5787
  137MOL0     H18459   3.859   2.644   9.400 -0.4635 -2.8274  0.6142
  137MOL0     H18460   4.025   2.471   9.380  0.6642  1.9783 -1.1496
  137MOL0     H18461   4.355   2.458   9.663  0.4388  0.6751 -0.8427
  137MOL0     H18462   4.243   2.384   9.777 -1.9652  0.0023 -0.7685
  137MOL0     H18463   4.374   2.210   9.770 -0.1371 -2.5723 -0.2404
  137MOL0     H18464   4.282   2.176   9.624 -1.5719  2.1779 -0.5578
  137MOL0     H18465   4.540   2.319   9.647 -0.1362 -1.0733  0.1046
  137MOL0     H18466   4.466   2.330   9.505  3.2594  1.6931  0.6090
  137MOL0     H18467   4.479   2.060   9.488 -1.2650  2.8553 -1.8927
  137MOL0     H18468   4.623   2.160   9.464 -1.1254  0.3476 -0.6280
  137MOL0     H18469   4.540   1.991   9.714 -0.3526 -0.1465  0.9349
  137MOL0     H18470   4.671   2.097   9.722 -1.2945  0.7088  0.8493
  137MOL0     H18471   4.606   1.880   9.521  1.0741 -0.3170 -0.7613
  137MOL0     H18472   4.762   1.966   9.509 -0.2296  1.1673  0.2180
  137MOL0     H18473   4.706   1.801   9.765  0.6754 -0.3008  2.0164
  137MOL0     H18474   4.844   1.890   9.730  0.1393  0.7023 -1.8822
  137MOL0     H18475   4.756   1.653   9.555  0.9802  0.6317 -1.9233
  137MOL0     H18476   4.869   1.642   9.688 -2.5387 -1.3347 -0.1120
  137MOL0     H18477   4.153   2.589   9.777 -0.7778  1.5400  0.7939
  137MOL0     H18478   3.998   2.772   9.788  1.4385 -3.0170  1.5480
  137MOL0     H18479   3.595   2.904   9.514  0.2688  0.2220 -0.5772
  137MOL0     H18480   3.373   3.039   9.550 -1.4527  2.0762 -0.7652
  137MOL0     H18481   4.880   3.302  10.096 -1.7914  1.4109  0.6230
  137MOL0     H18482   5.092   3.350  10.172 -0.8181  0.5252  0.5272
  137MOL0     H18483   5.415   3.552  10.262 -0.3137 -0.2029 -0.8610
  137MOL0     H18484   5.626   3.630  10.366 -1.3143  4.0895  0.2109
  137MOL0     H18485   5.809   3.868  10.402 -2.3197 -1.8974  1.0663
  137MOL0     H18486   5.813   3.692  10.440  0.9647 -1.8420 -0.1247
  137MOL0     H18487   6.051   3.710  10.319  0.4547  0.0617  0.6980
  137MOL0     H18488   6.020   3.742  10.496 -1.7506  0.3607  1.3556
  137MOL0     H18489   6.008   3.991  10.446 -0.9154  0.3260 -2.3930
  137MOL0     H18490   6.011   3.947  10.271 -3.0853  0.1347  0.1815
  137MOL0     H18491   6.244   3.856  10.294  0.1230 -0.1482 -0.1299
  137MOL0     H18492   6.247   3.872  10.467  1.4479  1.3627 -0.3911
  137MOL0     H18493   6.345   4.274  10.397 -4.5310  0.7001  1.8765
  137MOL0     H18494   5.784   3.694   9.975  0.4231 -0.6805 -0.4618
  137MOL0     H18495   5.573   3.613   9.876 -1.2572  0.7892 -0.4331
  138MOL0     O18496   0.538   1.263   9.288  0.0440  0.6062  0.5735
  138MOL0     C18497   0.632   1.325   9.314 -1.6234 -0.0311  0.4823
  138MOL0     O18498   0.729   1.298   9.409 -0.5758 -1.2510  0.5484
  138MOL0     C18499   0.700   1.207   9.504 -0.1709 -0.5207  0.2884
  138MOL0     C18500   0.717   1.257   9.634 -0.7061  0.1377  0.9136
  138MOL0     C18501   0.682   1.170   9.743 -0.1133 -0.4316 -0.5420
  138MOL0     C18502   0.645   1.037   9.721  0.2269  0.5104 -0.1715
  138MOL0     O18503   0.634   0.934   9.810 -0.3376 -0.5998 -0.7834
  138MOL0     C18504   0.638   0.952   9.951  0.0244 -0.3414  0.2669
  138MOL0     C18505   0.585   0.814  10.011 -0.9794  0.2061  0.8041
  138MOL0     C18506   0.553   0.836  10.163 -0.5363  0.2040 -0.0866
  138MOL0     C18507   0.539   0.710  10.254  0.0121 -0.6887  0.4967
  138MOL0     C18508   0.400   0.642  10.234 -0.3697  0.5873  0.2784
  138MOL0     C18509   0.405   0.489  10.266  0.2412  0.3864  0.1079
  138MOL0     C18510   0.407   0.476  10.425  0.1903 -0.2451  0.1389
  138MOL0     C18511   0.467   0.344  10.475  0.4437 -0.1790 -0.8461
  138MOL0     N18512   0.385   0.227  10.424  0.2615 -0.7357 -0.8437
  138MOL0     C18513   0.400   0.178  10.305 -0.6172  1.3014  0.6638
  138MOL0     C18514   0.288   0.097  10.306 -0.3845  0.7618 -0.3412
  138MOL0     C18515   0.233   0.028  10.188  0.0126  0.0789 -0.3189
  138MOL0     C18516   0.196   0.128  10.066 -0.2420 -0.4065 -0.6430
  138MOL0     C18517   0.123   0.064   9.952  1.0242 -0.4985  0.1742
  138MOL0     C18518   0.103   0.154   9.839 -0.7147  0.3025 -0.2040
  138MOL0     O18519   0.055   0.087   9.727 -0.7058 -0.2501  0.2263
  138MOL0     C18520  -0.020   0.158   9.633 -1.2500 -0.0933  0.6419
  138MOL0     C18521   0.005   0.295   9.595 -0.6176 -0.2304  0.1322
  138MOL0     C18522  -0.073   0.366   9.501  0.4250  0.2763 -0.2771
  138MOL0     C18523  -0.043   0.516   9.475  0.0003  0.4759  0.0101
  138MOL0     C18524  -0.170   0.291   9.428 -0.2548 -0.0686 -0.8193
  138MOL0     C18525  -0.261   0.356   9.338 -0.3684  1.0730 -0.3164
  138MOL0     O18526  -0.270   0.316   9.214  0.1606  0.5985 -0.0573
  138MOL0     C18527  -0.383   0.321   9.146  0.9885 -0.5685  1.1656
  138MOL0     C18528  -0.376   0.370   9.012 -0.0677 -0.2676  0.1182
  138MOL0     C18529  -0.491   0.382   8.932  1.2464  0.0138  0.4772
  138MOL0     C18530  -0.617   0.342   8.988  0.4832  0.3563 -0.7750
  138MOL0     O18531  -0.723   0.377   8.913  0.1427  0.4924  0.1669
  138MOL0     C18532  -0.723   0.300   8.788  0.7662 -0.2895  0.1738
  138MOL0     C18533  -0.859   0.300   8.709  0.4895 -0.3131 -0.7201
  138MOL0     C18534  -0.959   0.411   8.744 -0.0060 -0.2563  0.3266
  138MOL0     C18535  -0.897   0.542   8.685 -0.2776 -0.2638  0.0926
  138MOL0     C18536  -0.910   0.667   8.781 -1.1275  0.8800  0.4833
  138MOL0     C18537  -1.062   0.695   8.800  0.4063  0.5304  0.0899
  138MOL0     C18538  -1.086   0.831   8.879  0.1014 -0.6767  0.8530
  138MOL0     C18539  -1.009   0.834   9.012  0.7879  0.4526  0.4127
  138MOL0    Cl18540  -1.020   0.982   9.101  0.2198 -0.1340 -0.3493
  138MOL0     C18541  -0.625   0.289   9.114  0.5697  0.8996 -0.3801
  138MOL0     C18542  -0.511   0.275   9.194  0.1077 -0.6389 -0.4389
  138MOL0     O18543  -0.319   0.455   9.387  0.1671  0.2715  0.6179
  138MOL0     C18544  -0.189   0.150   9.458 -0.4660  0.2964  0.4030
  138MOL0     C18545  -0.115   0.084   9.555 -0.3922 -0.5737 -0.4315
  138MOL0     N18546   0.218   0.104  10.420  0.3513 -0.5079 -0.1802
  138MOL0     N18547   0.280   0.189  10.485  0.2922 -0.2952 -0.5684
  138MOL0     C18548   0.641   0.988   9.591 -1.2488 -0.6694 -0.0247
  138MOL0     C18549   0.663   1.075   9.483 -0.2824 -0.4270  0.0123
  138MOL0     C18550   0.664   1.440   9.223 -0.8866 -0.7337  0.2926
  138MOL0     C18551   0.785   1.506   9.236  0.1754 -1.3489 -0.2145
  138MOL0     C18552   0.817   1.609   9.148 -0.0893  0.1149  0.2872
  138MOL0     C18553   0.738   1.642   9.039  0.2662 -0.5081 -0.4689
  138MOL0     O18554   0.782   1.743   8.957  1.0409 -0.4084  0.1441
  138MOL0     C18555   0.686   1.828   8.894 -0.7374  0.1594 -0.1360
  138MOL0     C18556   0.740   1.971   8.862 -0.3808  0.7170 -0.7995
  138MOL0     C18557   0.857   1.966   8.758 -0.3604 -1.1355  0.5045
  138MOL0     C18558   0.828   2.071   8.641  1.1893 -0.2677 -0.1046
  138MOL0     C18559   0.875   2.203   8.683  0.1187 -0.0326  0.8052
  138MOL0     C18560   0.929   2.306   8.693  0.0198  0.9096 -0.1863
  138MOL0     C18561   0.605   1.595   9.034 -0.8454  0.8339 -0.6015
  138MOL0     C18562   0.569   1.496   9.125 -0.2167  0.4359 -0.9865
  138MOL0     H18563   0.753   1.358   9.649 -2.6349  1.6091 -2.8242
  138MOL0     H18564   0.690   1.213   9.842  0.8866  0.7210 -1.0968
  138MOL0     H18565   0.738   0.979   9.988  0.5437 -2.1018  0.2301
  138MOL0     H18566   0.571   1.036   9.973  1.2474  0.2151  2.1806
  138MOL0     H18567   0.501   0.786   9.947  0.8790  1.4535 -2.4436
  138MOL0     H18568   0.658   0.735   9.990 -2.8783 -1.2088 -0.8505
  138MOL0     H18569   0.624   0.913  10.196  1.8885 -0.1306 -3.8234
  138MOL0     H18570   0.454   0.881  10.166 -0.7258 -0.1664 -0.5648
  138MOL0     H18571   0.621   0.640  10.239 -1.8104 -2.8254  0.0214
  138MOL0     H18572   0.545   0.754  10.354 -1.2816 -2.2975  1.3149
  138MOL0     H18573   0.321   0.694  10.289 -0.0537 -1.5845  3.0099
  138MOL0     H18574   0.367   0.651  10.130  1.4003 -0.6457 -0.4459
  138MOL0     H18575   0.313   0.452  10.219  0.4880 -0.2220  0.1046
  138MOL0     H18576   0.489   0.441  10.216 -0.5016  0.7494 -1.5683
  138MOL0     H18577   0.481   0.551  10.452  0.8274 -1.0773  0.7689
  138MOL0     H18578   0.314   0.514  10.468 -1.8350 -2.5178 -1.9101
  138MOL0     H18579   0.437   0.341  10.581 -1.5986 -0.3136 -1.3808
  138MOL0     H18580   0.572   0.330  10.449 -0.1785 -1.9934 -2.6823
  138MOL0     H18581   0.468   0.189  10.222 -2.2963  1.9066 -0.6951
  138MOL0     H18582   0.304  -0.044  10.147  1.6180  1.2548  0.2716
  138MOL0     H18583   0.152  -0.029  10.233 -0.2431  1.2109  0.6973
  138MOL0     H18584   0.294   0.152  10.024 -0.7998 -1.3830 -2.6346
  138MOL0     H18585   0.143   0.215  10.106  0.1801 -0.4118 -0.0544
  138MOL0     H18586   0.020   0.048   9.986 -0.6325 -0.0678 -4.0274
  138MOL0     H18587   0.176  -0.023   9.913  0.9003 -0.2290 -0.6272
  138MOL0     H18588   0.193   0.209   9.810 -1.6989  1.0215 -2.1297
  138MOL0     H18589   0.032   0.229   9.874 -0.9707 -0.1925  0.3530
  138MOL0     H18590   0.080   0.358   9.644 -3.0932  1.5190  1.9213
  138MOL0     H18591  -0.010   0.524   9.371 -2.8607 -1.2207 -1.1418
  138MOL0     H18592  -0.131   0.580   9.480  0.8938  2.1481 -3.1209
  138MOL0     H18593   0.023   0.568   9.546 -1.6430  2.7057  0.0211
  138MOL0     H18594  -0.274   0.394   8.985  0.1708  0.5485  1.6155
  138MOL0     H18595  -0.481   0.432   8.837  0.3691  1.5646  1.1542
  138MOL0     H18596  -0.646   0.338   8.720  1.0652 -0.7855  0.2241
  138MOL0     H18597  -0.693   0.197   8.813 -3.8818 -2.5245 -2.2217
  138MOL0     H18598  -0.830   0.303   8.604 -0.9332 -2.4696 -1.2390
  138MOL0     H18599  -0.897   0.198   8.723 -0.1652  0.2642  3.0498
  138MOL0     H18600  -0.970   0.422   8.852  1.5177 -0.8871  0.5688
  138MOL0     H18601  -1.058   0.381   8.707 -0.3548 -1.7228  2.3165
  138MOL0     H18602  -0.790   0.523   8.669  0.3102  2.8216 -0.1165
  138MOL0     H18603  -0.941   0.561   8.587  1.0639 -3.0067 -1.1537
  138MOL0     H18604  -0.862   0.755   8.736  1.3126 -0.5302  0.1825
  138MOL0     H18605  -0.853   0.651   8.872 -1.0963  0.1189  0.3370
  138MOL0     H18606  -1.110   0.709   8.703 -2.1310 -0.2651  1.1639
  138MOL0     H18607  -1.099   0.615   8.864  0.8780 -0.5472 -0.9538
  138MOL0     H18608  -1.193   0.846   8.895  0.4466  5.0835  0.1047
  138MOL0     H18609  -1.048   0.909   8.812  0.7112 -0.6666  1.2007
  138MOL0     H18610  -0.908   0.795   8.999  1.2891  0.0086  4.3791
  138MOL0     H18611  -1.058   0.766   9.082 -1.6423  2.6237  0.9821
  138MOL0     H18612  -0.717   0.257   9.162  2.7587  0.1238  3.8044
  138MOL0     H18613  -0.531   0.231   9.292  0.5213 -0.8481 -0.4440
  138MOL0     H18614  -0.264   0.099   9.398  0.7379  0.2541 -1.1206
  138MOL0     H18615  -0.140  -0.014   9.595 -1.7077 -0.8330 -1.7592
  138MOL0     H18616   0.613   0.886   9.570  0.2692 -1.1312  0.0410
  138MOL0     H18617   0.659   1.052   9.376  0.2085 -1.0034  0.1147
  138MOL0     H18618   0.862   1.495   9.312  0.8088  0.1399 -0.6037
  138MOL0     H18619   0.914   1.656   9.159  0.2035  0.0256 -1.5269
  138MOL0     H18620   0.656   1.769   8.807 -2.9677  1.4635 -0.3032
  138MOL0     H18621   0.601   1.846   8.960 -0.8323 -1.3524  0.1871
  138MOL0     H18622   0.785   2.006   8.955  0.8649 -2.7452  0.0798
  138MOL0     H18623   0.648   2.025   8.838 -2.1703 -0.7781  2.0770
  138MOL0     H18624   0.866   1.868   8.710  1.6859  0.1625 -2.0423
  138MOL0     H18625   0.952   1.991   8.804 -0.2394 -1.6135  0.5223
  138MOL0     H18626   0.722   2.075   8.617 -0.4724 -2.6287  5.1890
  138MOL0     H18627   0.881   2.040   8.550  1.6031  1.0417 -0.3205
  138MOL0     H18628   0.969   2.404   8.709 -1.2894  1.1294  1.9408
  138MOL0     H18629   0.547   1.624   8.947 -0.9941 -1.3786 -1.3209
  138MOL0     H18630   0.473   1.448   9.115  1.4949 -4.3438  2.0043
  139MOL0     O18631   7.716   4.990   3.758  0.4576  0.1950 -0.5568
  139MOL0     C18632   7.697   5.005   3.879  0.5577  0.9997 -0.6588
  139MOL0     O18633   7.704   4.906   3.975  0.2475  0.2113  0.0777
  139MOL0     C18634   7.765   4.783   3.953  1.2946  0.1973  0.3271
  139MOL0     C18635   7.881   4.761   3.876 -0.2970  0.3628  0.3049
  139MOL0     C18636   7.938   4.636   3.853 -0.6888  0.7201 -0.3115
  139MOL0     C18637   7.886   4.526   3.918  0.0760 -0.3622 -0.1226
  139MOL0     O18638   7.950   4.406   3.908  0.4796 -0.2326  0.5227
  139MOL0     C18639   8.094   4.405   3.926  0.4600 -0.9278 -0.9791
  139MOL0     C18640   8.121   4.453   4.068 -0.2379  0.2844 -0.7420
  139MOL0     C18641   8.098   4.354   4.180 -0.2167 -0.3398 -0.1058
  139MOL0     C18642   8.190   4.377   4.301 -0.5241  0.7331 -0.3857
  139MOL0     C18643   8.159   4.260   4.397  0.4629  0.3739  0.4102
  139MOL0     C18644   8.034   4.290   4.481  0.3832  0.9016 -0.2731
  139MOL0     C18645   8.014   4.186   4.590 -0.3424  0.2370 -0.4705
  139MOL0     C18646   7.943   4.261   4.719  0.2311  0.1523  0.5861
  139MOL0     N18647   8.021   4.367   4.786 -0.1373 -0.1028 -0.3726
  139MOL0     C18648   7.971   4.481   4.845  0.6762 -0.4678  0.7186
  139MOL0     C18649   8.083   4.544   4.895 -0.3270 -0.4290 -0.0859
  139MOL0     C18650   8.108   4.668   4.970  0.5733 -0.2611  0.6638
  139MOL0     C18651   7.997   4.768   4.906 -0.3055  0.0575 -0.1348
  139MOL0     C18652   7.977   4.893   4.995  0.0853  0.5986 -0.4208
  139MOL0     C18653   7.927   5.017   4.922  0.1595 -0.1397  0.2077
  139MOL0     O18654   7.812   4.992   4.856 -0.2042  0.2952  0.4274
  139MOL0     C18655   7.685   5.029   4.903 -0.3448 -0.2958 -0.0429
  139MOL0     C18656   7.648   5.073   5.030  0.0700  0.4949  0.3068
  139MOL0     C18657   7.514   5.097   5.065  0.4944  0.0516 -0.0042
  139MOL0     C18658   7.480   5.131   5.211 -1.5275  0.0527 -0.0860
  139MOL0     C18659   7.417   5.106   4.964 -0.4696 -0.5314 -0.6303
  139MOL0     C18660   7.280   5.163   4.989 -0.2662  0.4818  0.7737
  139MOL0     O18661   7.193   5.135   4.892 -0.2929 -0.1737 -0.6947
  139MOL0     C18662   7.076   5.210   4.880 -0.4209  0.7868 -0.6856
  139MOL0     C18663   6.956   5.138   4.839 -0.1786 -0.4687 -0.3924
  139MOL0     C18664   6.831   5.194   4.851  0.0456  0.1675 -0.8276
  139MOL0     C18665   6.814   5.322   4.907 -0.3551  0.1129  0.0516
  139MOL0     O18666   6.682   5.368   4.921 -0.2637 -0.2978 -0.3589
  139MOL0     C18667   6.656   5.497   4.859  0.4348 -0.1342  0.0439
  139MOL0     C18668   6.499   5.498   4.835 -0.2402  0.7878 -0.2092
  139MOL0     C18669   6.440   5.385   4.739 -0.7325  0.6920 -0.4538
  139MOL0     C18670   6.290   5.378   4.729 -0.0108 -0.1201  0.0637
  139MOL0     C18671   6.236   5.290   4.619 -0.0541  0.2866  1.1231
  139MOL0     C18672   6.086   5.312   4.606  0.4407 -0.1738  0.1061
  139MOL0     C18673   6.023   5.197   4.529 -0.8903  0.2351 -0.3579
  139MOL0     C18674   5.872   5.213   4.547  0.7561  0.2150  0.1730
  139MOL0    Cl18675   5.790   5.335   4.432 -0.6642 -0.5195 -0.0566
  139MOL0     C18676   6.923   5.391   4.942 -0.3345  0.9696  0.1160
  139MOL0     C18677   7.055   5.336   4.934 -0.7760  0.4663  0.3974
  139MOL0     O18678   7.260   5.219   5.092  0.1180 -0.3938 -0.0483
  139MOL0     C18679   7.449   5.054   4.839 -0.3660 -0.0631  0.3135
  139MOL0     C18680   7.582   5.016   4.805 -0.4778  1.0347  0.1347
  139MOL0     N18681   8.195   4.463   4.861 -0.0968  0.5226 -0.1985
  139MOL0     N18682   8.148   4.359   4.809 -0.4408  0.4156  0.4452
  139MOL0     C18683   7.772   4.538   3.999 -0.2528 -0.4946 -1.1427
  139MOL0     C18684   7.723   4.668   4.023 -0.1448  0.5431  0.1027
  139MOL0     C18685   7.648   5.134   3.916 -0.8424 -0.4720 -1.0106
  139MOL0     C18686   7.629   5.250   3.826  0.5645 -0.0270  0.5242
  139MOL0     C18687   7.576   5.376   3.871  0.1957  0.1507 -0.9345
  139MOL0     C18688   7.578   5.405   4.005  0.2985  0.2859 -0.9395
  139MOL0     O18689   7.522   5.515   4.053  0.3128 -0.1741  0.0289
  139MOL0     C18690   7.580   5.645   4.025  0.7326  0.1885  0.0294
  139MOL0     C18691   7.525   5.768   4.113 -1.2145 -0.1602 -0.2973
  139MOL0     C18692   7.489   5.723   4.246  0.1800  0.2054 -0.9161
  139MOL0     C18693   7.474   5.823   4.364 -0.4606  0.2312  0.2200
  139MOL0     C18694   7.374   5.930   4.335 -0.0987 -0.5085 -0.1572
  139MOL0     C18695   7.285   6.012   4.326  0.1615  0.0758 -0.1893
  139MOL0     C18696   7.605   5.295   4.095 -0.2472 -0.7334 -0.4732
  139MOL0     C18697   7.624   5.161   4.054 -0.7837 -0.4308  0.1385
  139MOL0     H18698   7.911   4.842   3.810  0.3519 -0.2687 -0.1982
  139MOL0     H18699   8.010   4.625   3.774 -0.2063 -1.1942  0.3259
  139MOL0     H18700   8.130   4.303   3.921  2.2165 -0.3531 -0.6087
  139MOL0     H18701   8.146   4.462   3.849 -0.2438 -1.4162 -1.8343
  139MOL0     H18702   8.225   4.484   4.070  0.2663 -1.2353  2.5232
  139MOL0     H18703   8.064   4.540   4.102  2.7118  0.6775  4.0044
  139MOL0     H18704   7.997   4.368   4.221  0.8056 -2.0456  3.3937
  139MOL0     H18705   8.111   4.257   4.131  3.1780 -0.3634  0.6139
  139MOL0     H18706   8.297   4.387   4.278 -0.6247  0.3072 -1.0663
  139MOL0     H18707   8.157   4.470   4.348 -1.1789 -0.0181  0.7073
  139MOL0     H18708   8.161   4.161   4.351  3.5490 -1.0034  3.0698
  139MOL0     H18709   8.246   4.250   4.463  1.3258 -0.4901 -0.7990
  139MOL0     H18710   8.043   4.386   4.532  0.6114  1.5753 -1.5640
  139MOL0     H18711   7.943   4.296   4.421  0.4187  0.9877 -0.3160
  139MOL0     H18712   7.952   4.106   4.548  0.0425  0.0176 -0.6281
  139MOL0     H18713   8.107   4.136   4.620 -0.1384 -0.8952 -2.7938
  139MOL0     H18714   7.919   4.191   4.800  0.1264  0.8394  1.1506
  139MOL0     H18715   7.858   4.309   4.670  0.5811 -0.1979 -0.4133
  139MOL0     H18716   7.868   4.515   4.843  0.6518 -0.5210  0.9822
  139MOL0     H18717   8.100   4.653   5.078  0.2550 -0.6620  0.5893
  139MOL0     H18718   8.205   4.701   4.931  2.4586 -2.4076  3.0974
  139MOL0     H18719   7.905   4.713   4.885  0.1039 -1.2675  1.3916
  139MOL0     H18720   8.036   4.808   4.811 -1.0848  4.6821  1.2566
  139MOL0     H18721   8.076   4.905   5.039  0.5830 -1.2993 -0.9219
  139MOL0     H18722   7.902   4.862   5.069  0.5141 -3.0469 -1.3174
  139MOL0     H18723   8.006   5.044   4.851  1.4988  2.1862  2.4086
  139MOL0     H18724   7.915   5.111   4.977 -0.5211  0.6231 -1.1769
  139MOL0     H18725   7.732   5.079   5.099  0.9378 -0.7029 -0.5963
  139MOL0     H18726   7.564   5.097   5.272  0.8188  1.5259 -2.2674
  139MOL0     H18727   7.470   5.237   5.235 -0.2775  0.3119 -0.6412
  139MOL0     H18728   7.394   5.077   5.252 -0.8950 -0.2772  0.8380
  139MOL0     H18729   6.947   5.042   4.790 -6.6422 -0.3228 -0.3225
  139MOL0     H18730   6.737   5.144   4.829  0.3907 -1.7309  1.5269
  139MOL0     H18731   6.685   5.579   4.925  0.2762  0.5060 -0.6819
  139MOL0     H18732   6.702   5.515   4.762 -0.7944  1.4509 -0.2804
  139MOL0     H18733   6.440   5.490   4.927 -2.1084  4.5204 -0.8590
  139MOL0     H18734   6.477   5.599   4.798  1.7655  0.3100 -2.9918
  139MOL0     H18735   6.494   5.293   4.764  1.3058  1.7552 -0.7568
  139MOL0     H18736   6.464   5.401   4.634  0.2063 -0.0760 -0.3734
  139MOL0     H18737   6.235   5.342   4.817 -3.8399  0.6771 -1.7992
  139MOL0     H18738   6.258   5.480   4.706 -4.0918 -1.5953 -1.9772
  139MOL0     H18739   6.265   5.186   4.633  1.0048  0.2058 -1.2380
  139MOL0     H18740   6.287   5.307   4.524  2.9562  0.3596  2.6238
  139MOL0     H18741   6.043   5.311   4.706 -3.4614 -1.6434 -1.4127
  139MOL0     H18742   6.060   5.405   4.554 -1.6757 -0.7245  0.0937
  139MOL0     H18743   6.056   5.104   4.576  0.8763  1.8835  1.8838
  139MOL0     H18744   6.045   5.194   4.422 -1.1290  1.1375 -0.4414
  139MOL0     H18745   5.850   5.233   4.653  1.7203 -1.7178  0.7808
  139MOL0     H18746   5.832   5.112   4.536  2.1240 -0.4309  0.9399
  139MOL0     H18747   6.904   5.491   4.980 -4.2475  0.9401 -1.3543
  139MOL0     H18748   7.146   5.384   4.969 -0.1286 -1.0927  0.9130
  139MOL0     H18749   7.369   5.021   4.773 -0.0323 -1.1876  0.4530
  139MOL0     H18750   7.606   4.979   4.706  3.1755  1.6914  0.6104
  139MOL0     H18751   7.736   4.444   4.040  1.1652 -0.7874 -0.5443
  139MOL0     H18752   7.652   4.684   4.104 -0.2983 -1.8647  0.5131
  139MOL0     H18753   7.640   5.234   3.719  1.4778  0.3054  0.5605
  139MOL0     H18754   7.547   5.443   3.791 -2.3655  1.2838  0.8068
  139MOL0     H18755   7.689   5.640   4.024  0.7156 -0.1281 -0.2262
  139MOL0     H18756   7.552   5.663   3.921 -0.5929 -1.6171  0.0419
  139MOL0     H18757   7.438   5.817   4.068 -2.9118 -0.9908  1.8849
  139MOL0     H18758   7.609   5.838   4.123 -0.3978 -0.5836 -3.2956
  139MOL0     H18759   7.575   5.662   4.273  1.4405  1.6268 -1.5736
  139MOL0     H18760   7.400   5.662   4.228  1.4209 -1.4527 -1.7099
  139MOL0     H18761   7.570   5.871   4.384  0.2744 -1.9364  2.5371
  139MOL0     H18762   7.451   5.770   4.457 -0.6339  0.2116  0.1664
  139MOL0     H18763   7.221   6.096   4.312  0.4351  0.4951  0.9242
  139MOL0     H18764   7.581   5.318   4.198 -0.5908  1.5517 -1.0015
  139MOL0     H18765   7.621   5.090   4.136 -2.1738 -1.5947 -0.8529
  140MOL0     O18766  10.904   2.296   8.601 -0.2503  0.6964  0.1714
  140MOL0     C18767  10.867   2.311   8.717  0.1171 -0.8950 -1.3676
  140MOL0     O18768  10.757   2.372   8.752  0.3165 -0.3059 -0.1159
  140MOL0     C18769  10.670   2.430   8.660 -0.0366 -0.0238 -0.2654
  140MOL0     C18770  10.582   2.365   8.573 -0.5783  0.4435 -0.2341
  140MOL0     C18771  10.513   2.435   8.479  0.5932 -0.9988  0.6608
  140MOL0     C18772  10.521   2.575   8.458  0.7242  0.2287 -0.2487
  140MOL0     O18773  10.437   2.633   8.359 -0.2814  0.3431 -0.1458
  140MOL0     C18774  10.419   2.779   8.374 -0.1409  0.0761 -0.2845
  140MOL0     C18775  10.301   2.831   8.284  0.1661  0.0910  0.0333
  140MOL0     C18776  10.161   2.795   8.348  0.6943  0.8221 -0.1014
  140MOL0     C18777  10.101   2.657   8.322 -0.6435  0.3522  0.2025
  140MOL0     C18778   9.977   2.618   8.397 -0.1456 -0.7901 -0.4087
  140MOL0     C18779   9.857   2.665   8.309  0.4506  0.2161 -0.4610
  140MOL0     C18780   9.734   2.659   8.389  0.1849  0.0547  0.1627
  140MOL0     C18781   9.608   2.702   8.318 -0.1104 -0.3835 -0.6695
  140MOL0     N18782   9.543   2.590   8.242 -0.0471 -0.0925 -0.3845
  140MOL0     C18783   9.597   2.551   8.121 -0.7873  0.1830 -0.2539
  140MOL0     C18784   9.501   2.489   8.062 -0.4074  0.4357  0.5323
  140MOL0     C18785   9.495   2.420   7.933  0.7909 -0.1189  0.6359
  140MOL0     C18786   9.590   2.307   7.933  0.0606 -0.3672 -0.3546
  140MOL0     C18787   9.557   2.190   8.041  0.3926 -1.2268  0.4330
  140MOL0     C18788   9.629   2.064   8.023 -0.8222  0.5913 -0.0288
  140MOL0     O18789   9.768   2.071   8.048  0.0640  0.2421 -0.1941
  140MOL0     C18790   9.842   1.959   8.033  0.5708  0.7018 -0.3066
  140MOL0     C18791   9.949   1.962   7.947 -0.8212 -0.8059  0.0578
  140MOL0     C18792  10.046   1.862   7.934 -0.1654  0.7176 -0.3176
  140MOL0     C18793  10.168   1.903   7.857 -0.4062 -0.4615 -0.6647
  140MOL0     C18794  10.034   1.742   8.005  0.4112 -0.8053  0.0971
  140MOL0     C18795  10.127   1.626   7.995  0.0321  0.2306  0.1370
  140MOL0     O18796  10.095   1.514   8.064  1.2163 -0.1986 -0.9193
  140MOL0     C18797  10.180   1.401   8.068 -0.6492 -0.8065  0.3855
  140MOL0     C18798  10.251   1.361   7.954 -0.5850  0.4562  0.6327
  140MOL0     C18799  10.339   1.255   7.950 -0.6853  1.1874 -0.0097
  140MOL0     C18800  10.353   1.170   8.056 -0.0657 -0.0455 -0.1914
  140MOL0     O18801  10.430   1.051   8.051  0.2853 -1.1283  0.1110
  140MOL0     C18802  10.486   1.016   7.919  0.1983  0.1342 -0.6064
  140MOL0     C18803  10.579   0.887   7.929  0.4708  0.5099  0.9514
  140MOL0     C18804  10.517   0.765   7.995 -0.2814  0.5249  0.3508
  140MOL0     C18805  10.591   0.726   8.116 -0.6613  0.3631 -0.4369
  140MOL0     C18806  10.547   0.809   8.242  0.5826  0.2604  0.6682
  140MOL0     C18807  10.607   0.746   8.369 -0.0448  0.4686 -0.2476
  140MOL0     C18808  10.760   0.773   8.378 -0.2358 -0.0484  0.4315
  140MOL0     C18809  10.799   0.919   8.389  0.3322  0.1835  0.0912
  140MOL0    Cl18810  10.868   0.971   8.236  0.0511  0.2697 -0.0904
  140MOL0     C18811  10.281   1.203   8.170 -0.0338 -0.4531  0.3404
  140MOL0     C18812  10.190   1.309   8.172 -0.1334 -0.1988 -0.5049
  140MOL0     O18813  10.238   1.645   7.942  0.6976  0.2193  0.0086
  140MOL0     C18814   9.909   1.741   8.083  0.4028 -0.2534  0.5822
  140MOL0     C18815   9.815   1.844   8.100  0.1438  0.1888 -0.7989
  140MOL0     N18816   9.391   2.480   8.149 -0.0261 -0.3866 -0.0762
  140MOL0     N18817   9.412   2.542   8.259  0.5254 -1.1709  0.3083
  140MOL0     C18818  10.607   2.641   8.551  0.1272  0.0161  1.1978
  140MOL0     C18819  10.673   2.573   8.650  0.1691 -0.2929 -1.6177
  140MOL0     C18820  10.957   2.264   8.828  0.0753 -0.0980 -0.5723
  140MOL0     C18821  10.943   2.301   8.963  0.4738  0.2915 -0.2630
  140MOL0     C18822  11.025   2.246   9.070 -0.2130  0.3590 -0.5981
  140MOL0     C18823  11.134   2.164   9.036 -0.1026  0.5984  0.3236
  140MOL0     O18824  11.216   2.104   9.130  0.1839 -0.5983  0.3861
  140MOL0     C18825  11.280   2.196   9.216  0.6742  0.0330  0.2067
  140MOL0     C18826  11.382   2.135   9.299 -0.2491  0.2185 -0.3172
  140MOL0     C18827  11.497   2.089   9.219  0.2119 -0.0723 -0.3276
  140MOL0     C18828  11.616   2.043   9.303 -0.5336 -1.0322 -0.0120
  140MOL0     C18829  11.735   2.021   9.210 -0.1646 -0.2879  0.0079
  140MOL0     C18830  11.822   1.992   9.129  0.0018  0.4607 -1.4443
  140MOL0     C18831  11.145   2.120   8.906 -0.0427 -0.5050 -0.9011
  140MOL0     C18832  11.064   2.176   8.802  0.3143  0.0537 -0.5507
  140MOL0     H18833  10.583   2.256   8.580 -0.0805  0.4829  0.3775
  140MOL0     H18834  10.451   2.376   8.413  2.6298 -0.8448 -1.5059
  140MOL0     H18835  10.399   2.807   8.478  1.3483  1.1380 -0.2594
  140MOL0     H18836  10.510   2.835   8.350  0.6120 -0.6520  0.7971
  140MOL0     H18837  10.305   2.940   8.281 -3.2494  0.3115 -2.3906
  140MOL0     H18838  10.316   2.803   8.180  2.3471  3.5822 -0.7451
  140MOL0     H18839  10.147   2.809   8.456 -1.8819 -2.9282  0.2574
  140MOL0     H18840  10.085   2.869   8.323  0.4847  1.0471  1.1522
  140MOL0     H18841  10.085   2.637   8.215 -0.0754 -0.1873  0.2187
  140MOL0     H18842  10.176   2.583   8.349  1.3361  1.5274 -1.7643
  140MOL0     H18843   9.976   2.509   8.409  1.5172 -1.1960 -3.0881
  140MOL0     H18844   9.966   2.665   8.495  0.2378 -0.0312 -0.7240
  140MOL0     H18845   9.871   2.767   8.272 -0.5099  0.0682 -1.2810
  140MOL0     H18846   9.840   2.594   8.227 -3.7002 -1.1696  1.3145
  140MOL0     H18847   9.717   2.552   8.406 -1.1662 -0.2382 -2.5018
  140MOL0     H18848   9.756   2.712   8.482  5.3824  1.9987 -1.7595
  140MOL0     H18849   9.619   2.785   8.247 -3.0053  1.1179  0.4891
  140MOL0     H18850   9.553   2.728   8.408  1.0680 -0.4404  0.0953
  140MOL0     H18851   9.692   2.564   8.069 -0.8500  0.1326 -0.3796
  140MOL0     H18852   9.396   2.379   7.912  1.0362  1.4009 -4.7542
  140MOL0     H18853   9.516   2.495   7.857  2.7169 -1.0912  0.1390
  140MOL0     H18854   9.691   2.347   7.949 -0.9809  1.5757  2.0465
  140MOL0     H18855   9.582   2.256   7.836  0.8240 -0.3385 -0.4432
  140MOL0     H18856   9.450   2.167   8.033  0.2650 -1.0892  1.5255
  140MOL0     H18857   9.572   2.220   8.145  2.3245  1.3209 -0.4801
  140MOL0     H18858   9.614   2.030   7.920 -1.8415  3.2441 -0.8608
  140MOL0     H18859   9.583   1.992   8.091 -1.7310  2.1559  1.0724
  140MOL0     H18860   9.978   2.056   7.902  0.6489 -1.9257 -1.4526
  140MOL0     H18861  10.187   1.832   7.775  1.3153  0.2538 -0.9314
  140MOL0     H18862  10.161   2.005   7.820 -1.1175  0.2797  1.4008
  140MOL0     H18863  10.256   1.896   7.922 -0.0219  0.1893 -1.0973
  140MOL0     H18864  10.217   1.406   7.861 -0.9965  1.0670  1.0746
  140MOL0     H18865  10.385   1.232   7.854 -0.4344 -0.0835  0.3978
  140MOL0     H18866  10.405   0.981   7.855  1.9121 -1.0091 -2.2498
  140MOL0     H18867  10.545   1.088   7.861  0.9412 -1.9308 -2.5500
  140MOL0     H18868  10.598   0.854   7.826  1.4152  0.5029  1.1139
  140MOL0     H18869  10.680   0.920   7.958  0.7749  0.1025  0.3840
  140MOL0     H18870  10.513   0.685   7.921 -2.1433  1.2359 -0.3840
  140MOL0     H18871  10.410   0.781   8.015 -0.3419  1.0687 -0.3571
  140MOL0     H18872  10.570   0.620   8.136 -1.6525  0.9061  1.7557
  140MOL0     H18873  10.698   0.747   8.101 -0.4478  5.7930  4.8230
  140MOL0     H18874  10.438   0.813   8.242  0.5726  4.2206  0.3737
  140MOL0     H18875  10.567   0.916   8.236 -4.1286  1.4437  1.6697
  140MOL0     H18876  10.566   0.791   8.460 -2.7213 -2.7023  0.2819
  140MOL0     H18877  10.566   0.645   8.374 -3.2463  1.7026  1.4734
  140MOL0     H18878  10.820   0.722   8.302  2.2457  0.8001  1.6927
  140MOL0     H18879  10.795   0.736   8.475 -1.9104  0.9971  1.4781
  140MOL0     H18880  10.880   0.940   8.459  0.9337  0.8902 -0.8079
  140MOL0     H18881  10.709   0.977   8.414  0.2937 -1.5614  5.2337
  140MOL0     H18882  10.288   1.134   8.253 -1.5786 -1.0986 -0.0145
  140MOL0     H18883  10.124   1.342   8.251 -1.2881  1.6157 -2.1355
  140MOL0     H18884   9.889   1.648   8.136  0.9907  0.4495  2.1239
  140MOL0     H18885   9.745   1.836   8.183  1.6412  2.6026  0.8314
  140MOL0     H18886  10.616   2.749   8.546 -1.5051  0.1287 -0.8346
  140MOL0     H18887  10.754   2.614   8.710  0.9459 -0.6304 -2.4083
  140MOL0     H18888  10.870   2.364   9.014  1.4028  1.8692 -0.8195
  140MOL0     H18889  11.009   2.258   9.176 -1.5371  0.7729 -0.8238
  140MOL0     H18890  11.320   2.282   9.162 -1.7257  0.3699 -1.1973
  140MOL0     H18891  11.196   2.230   9.276 -0.2628 -1.9995  0.1323
  140MOL0     H18892  11.327   2.057   9.352  0.0688 -0.5932 -1.1472
  140MOL0     H18893  11.414   2.210   9.371 -1.9533  0.0571  0.6498
  140MOL0     H18894  11.535   2.160   9.146 -0.5402 -1.9774 -2.7136
  140MOL0     H18895  11.458   2.006   9.159  1.1054  0.5450 -1.8003
  140MOL0     H18896  11.598   1.952   9.361  2.2745 -2.4196 -1.1250
  140MOL0     H18897  11.650   2.117   9.375  1.6305 -0.5496 -1.4261
  140MOL0     H18898  11.900   1.974   9.058  1.3586  1.3775 -0.2473
  140MOL0     H18899  11.230   2.053   8.902  1.6483  0.8801  4.2990
  140MOL0     H18900  11.104   2.157   8.703  1.2414 -1.0603  0.0120
  141MOL0     O18901  10.998   3.557   1.483 -0.3914  0.6663 -0.1613
  141MOL0     C18902  10.931   3.649   1.520  0.2543  0.4606  0.2694
  141MOL0     O18903  10.953   3.743   1.621 -0.5753 -0.4874 -0.1661
  141MOL0     C18904  11.023   3.700   1.729 -0.8542 -0.5467 -0.3223
  141MOL0     C18905  11.065   3.802   1.811  0.3290  0.1849  0.3875
  141MOL0     C18906  11.143   3.779   1.920  0.1815  0.7188  0.6190
  141MOL0     C18907  11.199   3.649   1.952 -0.2863  0.2759 -0.2215
  141MOL0     O18908  11.290   3.629   2.051 -0.0476  0.2935 -0.1892
  141MOL0     C18909  11.429   3.649   2.024 -0.4449 -0.4306  0.0994
  141MOL0     C18910  11.505   3.649   2.166  0.9549  0.2947  0.7799
  141MOL0     C18911  11.646   3.700   2.158  0.5831  0.2702  0.4997
  141MOL0     C18912  11.704   3.764   2.289 -0.3572  0.3431 -0.3607
  141MOL0     C18913  11.852   3.766   2.298 -1.0170 -0.8952 -0.1894
  141MOL0     C18914  11.896   3.834   2.425 -1.0670  0.5170 -0.2813
  141MOL0     C18915  12.047   3.861   2.424  0.1687  0.8410 -0.5451
  141MOL0     C18916  12.104   3.911   2.568  0.0807  0.0461 -0.5045
  141MOL0     N18917  12.250   3.903   2.572 -0.4367  0.0212 -0.1293
  141MOL0     C18918  12.345   3.933   2.476 -0.1311 -0.1690  0.2398
  141MOL0     C18919  12.454   3.942   2.543 -0.0567  0.2389 -0.3500
  141MOL0     C18920  12.584   3.984   2.479  0.8150 -0.1912 -1.3764
  141MOL0     C18921  12.699   3.881   2.506  0.3607  0.3202 -0.3314
  141MOL0     C18922  12.829   3.949   2.471 -0.2032 -1.0796 -0.2005
  141MOL0     C18923  12.935   3.847   2.458  0.1053 -0.2301  0.7811
  141MOL0     O18924  12.937   3.775   2.577 -0.4295  0.6988 -0.9644
  141MOL0     C18925  13.056   3.710   2.607  0.2609 -0.6780 -0.0456
  141MOL0     C18926  13.081   3.684   2.741  0.2167  0.2240 -0.0948
  141MOL0     C18927  13.202   3.629   2.793 -0.2315 -0.4315 -0.3740
  141MOL0     C18928  13.192   3.605   2.943  0.1190  1.0678  0.6404
  141MOL0     C18929  13.304   3.580   2.696 -0.0586  0.3960  0.2755
  141MOL0     C18930  13.431   3.502   2.734  0.1800 -0.5224  0.3104
  141MOL0     O18931  13.521   3.488   2.634  0.7377  0.6374  0.1090
  141MOL0     C18932  13.642   3.441   2.667  0.7184  0.1139 -0.1922
  141MOL0     C18933  13.731   3.535   2.719  0.8077  0.1992  0.8479
  141MOL0     C18934  13.867   3.496   2.731  0.4421 -0.1259 -0.1012
  141MOL0     C18935  13.900   3.352   2.737 -0.3528  0.2061  0.3193
  141MOL0     O18936  14.027   3.301   2.757 -0.0264 -0.5604 -0.7144
  141MOL0     C18937  14.135   3.382   2.743  0.7147  0.3892 -0.2521
  141MOL0     C18938  14.265   3.301   2.764 -0.2192 -0.0711  1.3933
  141MOL0     C18939  14.317   3.281   2.905 -0.9550  0.3868 -0.6598
  141MOL0     C18940  14.422   3.165   2.918  0.2031  0.2105 -0.4629
  141MOL0     C18941  14.460   3.132   3.070  0.7780 -1.1872 -1.3541
  141MOL0     C18942  14.362   3.034   3.137 -0.5650  0.4230 -0.3129
  141MOL0     C18943  14.352   2.889   3.084  0.7193  1.5157  1.2362
  141MOL0     C18944  14.228   2.817   3.127  0.0357 -0.2350 -0.7155
  141MOL0    Cl18945  14.218   2.803   3.307 -0.9103  0.1441  0.0808
  141MOL0     C18946  13.799   3.256   2.701 -0.8913 -0.2293 -0.4185
  141MOL0     C18947  13.672   3.304   2.668 -0.2813  0.1498  0.1067
  141MOL0     O18948  13.456   3.471   2.851  0.3428 -0.4399  0.1181
  141MOL0     C18949  13.280   3.616   2.568 -1.0404  0.4189  0.6055
  141MOL0     C18950  13.173   3.686   2.517 -0.1280 -0.7638 -0.7547
  141MOL0     N18951  12.444   3.904   2.676  0.0740  0.0392 -0.6140
  141MOL0     N18952  12.317   3.871   2.685 -0.7879 -0.8692  0.3334
  141MOL0     C18953  11.155   3.547   1.878  1.3733  0.2712  0.1957
  141MOL0     C18954  11.069   3.567   1.763 -0.0943 -0.5269 -0.8565
  141MOL0     C18955  10.811   3.670   1.447  0.2046  0.0038  0.0374
  141MOL0     C18956  10.713   3.767   1.481  0.5540 -0.6629 -1.0984
  141MOL0     C18957  10.597   3.782   1.412  0.4688  0.7952  0.5360
  141MOL0     C18958  10.562   3.701   1.296 -0.4020 -0.5264 -0.0231
  141MOL0     O18959  10.445   3.716   1.235  0.0085  0.8175 -0.0978
  141MOL0     C18960  10.339   3.617   1.270 -0.1418  0.0738 -0.4227
  141MOL0     C18961  10.279   3.656   1.402  0.4044  1.0341 -0.3740
  141MOL0     C18962  10.225   3.793   1.388  0.1983  0.5712 -0.7238
  141MOL0     C18963  10.135   3.830   1.507  0.0303 -0.1506  0.2630
  141MOL0     C18964  10.049   3.940   1.463  0.2117 -0.0783 -0.1723
  141MOL0     C18965   9.958   4.025   1.439 -0.3502  0.2059 -0.1879
  141MOL0     C18966  10.659   3.608   1.259  0.4164 -0.4044 -1.0446
  141MOL0     C18967  10.768   3.584   1.339 -0.2082 -0.4396  0.3072
  141MOL0     H18968  11.023   3.901   1.798  0.9351  0.3493 -0.3994
  141MOL0     H18969  11.173   3.864   1.981  0.9393  0.6516  0.3470
  141MOL0     H18970  11.456   3.561   1.965  0.8525 -1.5467  2.2339
  141MOL0     H18971  11.440   3.751   1.985  2.1510 -0.5374  0.4043
  141MOL0     H18972  11.449   3.712   2.235 -3.0091 -1.5640 -0.4391
  141MOL0     H18973  11.514   3.547   2.204 -0.0764 -0.3013 -0.4778
  141MOL0     H18974  11.709   3.614   2.131 -1.6525 -1.3411  0.2069
  141MOL0     H18975  11.649   3.784   2.087  2.0639  0.7773  1.1070
  141MOL0     H18976  11.661   3.865   2.294 -2.9882 -0.6488 -1.0820
  141MOL0     H18977  11.672   3.704   2.374  0.5160 -0.8870 -0.8810
  141MOL0     H18978  11.897   3.666   2.292  3.4423  0.8862 -0.7139
  141MOL0     H18979  11.893   3.816   2.209 -1.6228 -0.7494 -0.3892
  141MOL0     H18980  11.841   3.926   2.445 -0.0766  1.6623 -2.4118
  141MOL0     H18981  11.877   3.761   2.504  1.1167  1.5752  1.3422
  141MOL0     H18982  12.107   3.774   2.395 -1.6308 -0.6945  0.1251
  141MOL0     H18983  12.060   3.943   2.352 -3.0597  2.3434  0.4025
  141MOL0     H18984  12.061   3.845   2.644  0.3041  0.9111  0.3967
  141MOL0     H18985  12.074   4.014   2.589  0.2575  0.4243 -1.9664
  141MOL0     H18986  12.335   3.960   2.371  0.1435  0.9354  0.4903
  141MOL0     H18987  12.578   3.999   2.371  0.5763 -2.2790 -1.6922
  141MOL0     H18988  12.608   4.082   2.523  2.8151  0.6417 -4.0776
  141MOL0     H18989  12.680   3.798   2.437  1.0568  1.2996 -1.7569
  141MOL0     H18990  12.710   3.845   2.609  2.8898  0.5232 -0.4647
  141MOL0     H18991  12.853   4.020   2.551  0.4244 -2.6362  1.0371
  141MOL0     H18992  12.830   4.002   2.376  1.3036 -0.0600  0.3368
  141MOL0     H18993  13.028   3.904   2.452 -1.7431  3.0366  0.9518
  141MOL0     H18994  12.935   3.783   2.369  1.1630 -0.2762  0.7929
  141MOL0     H18995  12.999   3.705   2.809  0.6973  1.3865  0.1588
  141MOL0     H18996  13.089   3.605   2.981  0.7367 -1.2230  2.5245
  141MOL0     H18997  13.224   3.502   2.955 -0.4311  0.6856 -0.8449
  141MOL0     H18998  13.248   3.680   3.000  0.6130  1.3502 -0.2039
  141MOL0     H18999  13.706   3.641   2.726 -1.2893  0.1254 -2.9011
  141MOL0     H19000  13.939   3.576   2.742 -0.0068  0.2507  0.1285
  141MOL0     H19001  14.137   3.419   2.640 -0.7443 -0.2794 -0.5448
  141MOL0     H19002  14.137   3.468   2.810 -0.4018 -1.3507  2.1990
  141MOL0     H19003  14.257   3.204   2.714 -3.5633 -0.7623  2.9637
  141MOL0     H19004  14.340   3.359   2.711  0.9433 -2.1215  0.6770
  141MOL0     H19005  14.231   3.254   2.967  1.7386  0.1458  3.3127
  141MOL0     H19006  14.358   3.370   2.955 -0.3175 -1.3388  2.1038
  141MOL0     H19007  14.389   3.067   2.881  0.7679  0.1093 -0.7177
  141MOL0     H19008  14.513   3.187   2.861 -0.5418 -1.2167 -2.3214
  141MOL0     H19009  14.460   3.226   3.125  1.8988 -1.5290 -0.7359
  141MOL0     H19010  14.564   3.098   3.075  1.4050  0.7864  0.9358
  141MOL0     H19011  14.387   3.037   3.244  0.5934 -0.3492 -0.5343
  141MOL0     H19012  14.268   3.082   3.110  1.0298  2.0538 -3.6035
  141MOL0     H19013  14.436   2.838   3.133 -0.6276 -1.2285  0.8855
  141MOL0     H19014  14.371   2.872   2.978 -2.9864 -0.3577  0.7237
  141MOL0     H19015  14.230   2.714   3.092 -0.1763 -0.8089  0.8630
  141MOL0     H19016  14.143   2.867   3.080  0.1137  0.6776  0.0834
  141MOL0     H19017  13.826   3.151   2.692  1.8288  0.4843 -1.6886
  141MOL0     H19018  13.596   3.233   2.638  0.1466 -0.8894  1.3891
  141MOL0     H19019  13.359   3.593   2.497 -2.7021  0.7886 -1.4876
  141MOL0     H19020  13.171   3.712   2.412 -0.1594 -0.4586 -0.6809
  141MOL0     H19021  11.203   3.451   1.895 -0.9579 -1.5012 -2.3371
  141MOL0     H19022  11.025   3.486   1.707 -2.4968  0.1009 -0.0037
  141MOL0     H19023  10.715   3.835   1.566  0.9872  0.3393 -1.8833
  141MOL0     H19024  10.530   3.853   1.459 -1.4187 -2.0273  2.4545
  141MOL0     H19025  10.271   3.617   1.184 -0.4856 -1.4203 -0.1843
  141MOL0     H19026  10.388   3.519   1.276  0.1435  0.3035  1.8152
  141MOL0     H19027  10.349   3.642   1.486  0.5822 -0.7499 -0.7638
  141MOL0     H19028  10.195   3.586   1.414 -1.4210  2.8057 -2.2647
  141MOL0     H19029  10.162   3.797   1.299 -2.2501  1.0563  0.9366
  141MOL0     H19030  10.304   3.870   1.388  1.6551 -0.8613 -0.0176
  141MOL0     H19031  10.196   3.861   1.592  1.2283  3.6472 -1.7453
  141MOL0     H19032  10.069   3.747   1.533  1.0372 -0.7872  0.8221
  141MOL0     H19033   9.879   4.097   1.435  1.3835  2.1469 -2.9405
  141MOL0     H19034  10.654   3.544   1.172  3.4496  1.3586 -2.7039
  141MOL0     H19035  10.833   3.501   1.314 -0.6957 -1.3225  1.8168
  142MOL0     O19036   2.621   2.721   0.703 -0.0145  0.1389  0.2515
  142MOL0     C19037   2.644   2.819   0.780 -0.7997 -0.0076 -0.3196
  142MOL0     O19038   2.695   2.804   0.907  0.3279 -0.0037 -0.4279
  142MOL0     C19039   2.697   2.677   0.966 -0.0571  0.6655  0.2516
  142MOL0     C19040   2.793   2.575   0.926 -0.7733 -0.5874  0.7221
  142MOL0     C19041   2.791   2.449   0.982 -0.6011 -0.0974 -0.4539
  142MOL0     C19042   2.699   2.416   1.082 -1.3556  0.4962  0.9248
  142MOL0     O19043   2.719   2.296   1.145  0.7792  0.4295  0.5933
  142MOL0     C19044   2.617   2.266   1.242  0.3350 -0.1451 -0.2440
  142MOL0     C19045   2.655   2.140   1.310 -0.1103  0.6859  0.4509
  142MOL0     C19046   2.667   2.139   1.465 -0.3533 -0.8380 -0.2172
  142MOL0     C19047   2.678   1.990   1.511  1.0219 -0.4653  1.0430
  142MOL0     C19048   2.700   1.975   1.658 -0.6848  0.0592 -0.3570
  142MOL0     C19049   2.767   1.848   1.710  0.4057 -0.4353 -0.0440
  142MOL0     C19050   2.802   1.874   1.862 -0.0550  0.8843 -0.6902
  142MOL0     C19051   2.852   1.744   1.933 -0.9848  0.6724 -0.3190
  142MOL0     N19052   2.870   1.767   2.076 -0.4155  0.2498 -0.0814
  142MOL0     C19053   2.785   1.720   2.166  1.1431 -0.5606  0.2835
  142MOL0     C19054   2.858   1.700   2.277 -0.6682 -0.1554  0.7399
  142MOL0     C19055   2.815   1.621   2.396 -0.0342  0.7867  0.0324
  142MOL0     C19056   2.760   1.474   2.370 -0.6208  0.0935  0.5268
  142MOL0     C19057   2.876   1.382   2.318 -0.2788 -0.2424  0.2519
  142MOL0     C19058   3.023   1.393   2.378 -0.5513  1.0118 -0.4883
  142MOL0     O19059   3.022   1.362   2.516 -0.0630  0.4669 -0.5483
  142MOL0     C19060   3.121   1.285   2.554 -0.4012 -0.3280 -0.0373
  142MOL0     C19061   3.095   1.152   2.603  0.5449  0.1081 -0.1488
  142MOL0     C19062   3.198   1.081   2.661 -0.2671  0.2442 -0.3684
  142MOL0     C19063   3.163   0.941   2.725  0.0005 -0.8624  0.1770
  142MOL0     C19064   3.333   1.135   2.670  0.1724 -0.0457  0.2040
  142MOL0     C19065   3.434   1.060   2.747 -0.2035 -0.3601 -1.2033
  142MOL0     O19066   3.459   0.930   2.700  0.2013  0.0559 -0.3287
  142MOL0     C19067   3.564   0.856   2.759  0.2847 -0.7486  0.2059
  142MOL0     C19068   3.684   0.899   2.816 -0.0714  0.6256  0.1264
  142MOL0     C19069   3.780   0.806   2.853 -0.0760 -0.1004  0.0920
  142MOL0     C19070   3.765   0.672   2.832 -0.3138  0.4584  0.0024
  142MOL0     O19071   3.867   0.587   2.868 -0.0886  0.0857  0.0147
  142MOL0     C19072   3.859   0.440   2.880  0.4431 -0.4562 -0.4708
  142MOL0     C19073   3.946   0.403   3.002  0.3044  0.7629  1.1998
  142MOL0     C19074   3.926   0.252   3.028  0.8532  0.9076  0.2744
  142MOL0     C19075   4.009   0.207   3.141 -0.7352 -0.5105 -0.0631
  142MOL0     C19076   3.961   0.077   3.210  0.0546 -0.4811  0.0163
  142MOL0     C19077   4.020  -0.054   3.142 -0.0686 -0.7964 -1.1349
  142MOL0     C19078   4.152  -0.108   3.205  0.5006 -0.0799 -1.0500
  142MOL0     C19079   4.198  -0.257   3.184  0.1868 -0.9378  0.6757
  142MOL0    Cl19080   4.056  -0.351   3.231  0.4246 -0.3857 -0.2452
  142MOL0     C19081   3.648   0.625   2.765 -0.3532 -0.8233  0.7721
  142MOL0     C19082   3.550   0.717   2.729  0.3319  0.1032  0.6308
  142MOL0     O19083   3.487   1.118   2.843  0.1516  0.4495  0.1737
  142MOL0     C19084   3.350   1.264   2.624 -0.4713 -0.2928 -0.5308
  142MOL0     C19085   3.245   1.335   2.570  0.0008 -0.0989 -0.0943
  142MOL0     N19086   2.979   1.756   2.253 -0.0219 -0.8626  0.3950
  142MOL0     N19087   2.991   1.799   2.129 -0.7040  0.0767 -0.3096
  142MOL0     C19088   2.596   2.512   1.113 -0.4646  0.0529 -0.9298
  142MOL0     C19089   2.604   2.643   1.060  0.4988  0.4098 -0.7688
  142MOL0     C19090   2.628   2.958   0.737 -0.4736  0.1923 -0.6671
  142MOL0     C19091   2.632   3.062   0.832  0.1052  0.0658 -0.1877
  142MOL0     C19092   2.602   3.195   0.799 -0.0863 -0.4510 -0.1679
  142MOL0     C19093   2.588   3.231   0.664 -0.5998  0.0498  0.4731
  142MOL0     O19094   2.569   3.358   0.620  0.4406 -0.0363 -0.8311
  142MOL0     C19095   2.546   3.469   0.711 -0.1622  0.2850  0.6275
  142MOL0     C19096   2.504   3.593   0.629  0.4294  0.5520 -1.0226
  142MOL0     C19097   2.560   3.718   0.707  0.0171 -0.2982 -1.3726
  142MOL0     C19098   2.483   3.852   0.659 -0.4170 -0.2718  0.3615
  142MOL0     C19099   2.508   3.968   0.741 -0.4157 -0.4733 -0.3585
  142MOL0     C19100   2.535   4.068   0.807 -0.9001 -0.1440  0.3433
  142MOL0     C19101   2.598   3.131   0.564 -0.5908  0.4600  0.0684
  142MOL0     C19102   2.611   2.988   0.593 -1.1396  0.1975  0.3056
  142MOL0     H19103   2.864   2.600   0.848 -0.6062 -3.4066 -0.1523
  142MOL0     H19104   2.875   2.388   0.951 -0.6969 -0.6605  0.3802
  142MOL0     H19105   2.629   2.342   1.320  1.0328 -2.3804  1.9853
  142MOL0     H19106   2.511   2.280   1.220  0.1891  4.1311  2.0584
  142MOL0     H19107   2.584   2.065   1.273  0.4908  0.3482 -0.0561
  142MOL0     H19108   2.756   2.115   1.276 -0.2239 -1.7303  1.6859
  142MOL0     H19109   2.755   2.193   1.501  0.2311 -0.9070 -1.4807
  142MOL0     H19110   2.580   2.192   1.505 -1.7860 -1.5924 -2.1358
  142MOL0     H19111   2.580   1.950   1.484  0.5271  1.1440  0.2919
  142MOL0     H19112   2.757   1.941   1.454  0.9169  1.4607 -0.9005
  142MOL0     H19113   2.766   2.058   1.686 -0.5174  0.1685 -1.0432
  142MOL0     H19114   2.606   1.982   1.712 -0.6540 -1.3688 -0.0886
  142MOL0     H19115   2.704   1.759   1.700 -1.6340  1.1231 -2.0563
  142MOL0     H19116   2.854   1.825   1.647 -0.3199 -0.6466 -1.0020
  142MOL0     H19117   2.877   1.952   1.877  2.3937 -0.7094 -3.4141
  142MOL0     H19118   2.716   1.913   1.916 -0.9689 -2.4165  0.5050
  142MOL0     H19119   2.948   1.714   1.890  1.2018  3.2931  2.2805
  142MOL0     H19120   2.783   1.660   1.924  0.0856 -0.0285 -2.6167
  142MOL0     H19121   2.690   1.671   2.150  0.4219  0.8978  0.0488
  142MOL0     H19122   2.899   1.615   2.466 -0.9843 -0.8614  1.1098
  142MOL0     H19123   2.738   1.673   2.453 -2.9142 -1.2715 -1.6865
  142MOL0     H19124   2.672   1.477   2.305 -1.2771 -1.2898  1.3166
  142MOL0     H19125   2.729   1.435   2.467  2.1417 -1.4960  0.8616
  142MOL0     H19126   2.878   1.400   2.210 -0.9773 -0.4606  0.2000
  142MOL0     H19127   2.841   1.281   2.341  1.0716 -0.5624  1.0094
  142MOL0     H19128   3.058   1.495   2.364  2.5424  0.2908  1.1563
  142MOL0     H19129   3.081   1.324   2.315 -2.0211 -1.5860  0.8534
  142MOL0     H19130   2.998   1.103   2.611  1.6125 -2.0015  0.5263
  142MOL0     H19131   3.062   0.947   2.768  0.2199  2.8616  0.4610
  142MOL0     H19132   3.162   0.873   2.639  1.5345 -0.7769  0.0686
  142MOL0     H19133   3.230   0.898   2.799  0.1879  0.1865  0.6359
  142MOL0     H19134   3.696   1.006   2.826 -0.9475  0.7320  0.1439
  142MOL0     H19135   3.867   0.847   2.903 -0.4385  1.8426 -0.7870
  142MOL0     H19136   3.755   0.407   2.885 -0.1645  1.3745 -0.4429
  142MOL0     H19137   3.891   0.395   2.786  2.1012  1.0724 -0.6887
  142MOL0     H19138   4.055   0.413   2.993  0.4802 -0.9495  1.1676
  142MOL0     H19139   3.916   0.466   3.086 -0.3467  5.3662 -2.0952
  142MOL0     H19140   3.934   0.183   2.944 -3.4683 -0.8514  1.0562
  142MOL0     H19141   3.822   0.235   3.057  0.4891  2.8111  0.2133
  142MOL0     H19142   4.115   0.204   3.117 -0.5713  2.8103 -0.2171
  142MOL0     H19143   4.018   0.283   3.219 -0.1311 -2.7092  2.1360
  142MOL0     H19144   3.852   0.087   3.215  0.0666  2.0962 -2.3113
  142MOL0     H19145   4.004   0.071   3.310  0.7554 -2.4992 -0.3629
  142MOL0     H19146   3.940  -0.126   3.162 -0.2489 -0.0252  1.1619
  142MOL0     H19147   4.034  -0.046   3.034 -2.1260 -0.0940 -1.4068
  142MOL0     H19148   4.157  -0.100   3.314 -0.0427 -2.7792 -0.7543
  142MOL0     H19149   4.229  -0.045   3.159 -1.1178  0.5914 -2.9888
  142MOL0     H19150   4.290  -0.277   3.239  2.5632  3.4012 -1.2375
  142MOL0     H19151   4.223  -0.269   3.078  0.3480 -2.1171  0.8318
  142MOL0     H19152   3.638   0.519   2.745 -1.6413 -0.5118 -0.3911
  142MOL0     H19153   3.465   0.675   2.676 -0.2268  0.2687  1.3750
  142MOL0     H19154   3.442   1.319   2.638 -0.7968  0.1304  0.0054
  142MOL0     H19155   3.272   1.433   2.533  0.8179  0.9807  3.0849
  142MOL0     H19156   2.521   2.473   1.181  0.2886 -1.6410 -0.9963
  142MOL0     H19157   2.528   2.712   1.095 -0.5791 -1.3649  0.5833
  142MOL0     H19158   2.643   3.035   0.936 -3.4982 -2.6779 -0.3125
  142MOL0     H19159   2.612   3.257   0.888  2.5529  0.1317 -0.7924
  142MOL0     H19160   2.460   3.439   0.772 -1.3727 -1.5589 -1.8211
  142MOL0     H19161   2.624   3.485   0.786 -1.0468 -1.0845  1.8773
  142MOL0     H19162   2.397   3.608   0.618  0.2317  2.9511  2.3638
  142MOL0     H19163   2.550   3.597   0.530  4.6057  0.8993  0.6805
  142MOL0     H19164   2.664   3.733   0.678  0.5837 -1.5110 -0.0570
  142MOL0     H19165   2.540   3.701   0.814 -0.7124 -3.2755 -1.9162
  142MOL0     H19166   2.375   3.853   0.646 -0.3213 -0.3859 -0.5043
  142MOL0     H19167   2.525   3.882   0.562  2.3275  0.8676  1.7919
  142MOL0     H19168   2.550   4.161   0.858 -0.9709 -0.8530  1.6956
  142MOL0     H19169   2.599   3.173   0.464  0.4784  2.0931  0.7287
  142MOL0     H19170   2.611   2.912   0.515 -0.2128 -0.9005  1.3362
  143MOL0     O19171   0.017   8.250  10.334 -0.1485  0.0801  0.0736
  143MOL0     C19172  -0.020   8.368  10.321 -0.1635 -0.4047  0.5749
  143MOL0     O19173   0.030   8.473  10.394  0.3610 -0.0581 -0.3120
  143MOL0     C19174   0.140   8.441  10.465  0.4716  0.1375  0.0777
  143MOL0     C19175   0.261   8.420  10.386  0.4628  0.5669 -0.4015
  143MOL0     C19176   0.379   8.384  10.452  0.4231 -0.5676  0.1878
  143MOL0     C19177   0.384   8.391  10.590 -0.0604  0.5668  0.2144
  143MOL0     O19178   0.506   8.358  10.654  0.3959 -0.6903 -0.1743
  143MOL0     C19179   0.546   8.458  10.755 -1.0133  0.4725  0.2247
  143MOL0     C19180   0.684   8.406  10.815 -0.5885 -0.6774 -0.1509
  143MOL0     C19181   0.795   8.385  10.701  0.0948  0.2188 -0.3064
  143MOL0     C19182   0.925   8.342  10.764  0.7886 -0.0555  0.2785
  143MOL0     C19183   1.051   8.366  10.674  0.5421  0.5994 -1.3794
  143MOL0     C19184   1.185   8.311  10.729  0.4662  0.5647 -0.3622
  143MOL0     C19185   1.283   8.269  10.616 -0.4987 -0.5211  0.5817
  143MOL0     C19186   1.436   8.246  10.668 -0.0440  0.3365 -0.3363
  143MOL0     N19187   1.494   8.138  10.589 -0.0229  0.2632 -0.6127
  143MOL0     C19188   1.443   8.006  10.604  0.7068 -0.0762  0.3476
  143MOL0     C19189   1.513   7.931  10.523 -0.2295 -0.9030 -0.2437
  143MOL0     C19190   1.505   7.785  10.495 -0.3756 -0.4914 -0.0668
  143MOL0     C19191   1.545   7.710  10.621  0.1476  0.5792 -0.0401
  143MOL0     C19192   1.693   7.724  10.660 -0.9954 -0.9365 -0.9764
  143MOL0     C19193   1.779   7.648  10.567  1.1169 -0.4770  0.9804
  143MOL0     O19194   1.752   7.507  10.584 -0.2412  0.1428 -0.2913
  143MOL0     C19195   1.765   7.436  10.703 -0.1781 -0.4853  0.3537
  143MOL0     C19196   1.876   7.453  10.790  0.1120  0.2673 -0.1997
  143MOL0     C19197   1.878   7.400  10.912  0.6651  0.6948  0.5784
  143MOL0     C19198   2.002   7.427  11.001  0.0262  0.1096 -0.1272
  143MOL0     C19199   1.777   7.314  10.952 -0.9887 -0.0546  0.0192
  143MOL0     C19200   1.773   7.256  11.081 -0.0232  0.6909 -0.5949
  143MOL0     O19201   1.692   7.145  11.088  0.3776  0.2432  0.2433
  143MOL0     C19202   1.659   7.070  11.200  0.2046 -0.4124 -0.1162
  143MOL0     C19203   1.661   7.108  11.330 -0.0861 -0.6103  0.0635
  143MOL0     C19204   1.613   7.032  11.434  0.1109  1.0790 -0.7357
  143MOL0     C19205   1.570   6.901  11.410  0.3386  0.0439 -0.2129
  143MOL0     O19206   1.517   6.833  11.519 -0.5361  0.1462  0.4233
  143MOL0     C19207   1.485   6.695  11.511 -0.2799  0.3643  0.0952
  143MOL0     C19208   1.452   6.653  11.653 -0.0906 -0.1882  0.1938
  143MOL0     C19209   1.307   6.689  11.680  0.9303  0.4223  1.1832
  143MOL0     C19210   1.251   6.620  11.805 -0.7152  0.9028  0.1167
  143MOL0     C19211   1.313   6.651  11.951  0.3958 -0.3338  0.4938
  143MOL0     C19212   1.336   6.799  11.960 -0.6876  0.7203 -0.6588
  143MOL0     C19213   1.392   6.832  12.103 -0.2465  0.6553  0.3099
  143MOL0     C19214   1.393   6.986  12.120  0.2102 -0.3239  0.5467
  143MOL0    Cl19215   1.243   7.076  12.119  0.3073  0.0459  0.5416
  143MOL0     C19216   1.567   6.855  11.277  0.3073 -0.1797 -1.0408
  143MOL0     C19217   1.606   6.945  11.174 -0.0257 -0.2266 -0.5186
  143MOL0     O19218   1.829   7.306  11.185  0.3778 -0.1687  0.4022
  143MOL0     C19219   1.676   7.284  10.864  0.1245 -0.2394 -0.8235
  143MOL0     C19220   1.666   7.349  10.743  0.6071 -0.0148  0.5828
  143MOL0     N19221   1.602   8.013  10.456  0.3884  0.3535 -0.0847
  143MOL0     N19222   1.590   8.136  10.493  0.3597 -0.7928 -1.0051
  143MOL0     C19223   0.275   8.404  10.666  0.9516  0.0703 -0.5066
  143MOL0     C19224   0.147   8.444  10.609 -0.3252 -0.3602  0.9841
  143MOL0     C19225  -0.120   8.406  10.218  0.6031 -1.0801 -0.8787
  143MOL0     C19226  -0.172   8.546  10.225  0.1999  0.2355  0.0436
  143MOL0     C19227  -0.270   8.588  10.130  0.3353 -0.4844 -0.6457
  143MOL0     C19228  -0.308   8.495  10.027 -0.2736  0.2739  0.1560
  143MOL0     O19229  -0.377   8.542   9.915 -0.3184  0.2827 -0.5709
  143MOL0     C19230  -0.411   8.683   9.893 -0.7960  0.0733 -0.6939
  143MOL0     C19231  -0.449   8.694   9.741  0.3322 -0.4316  0.2110
  143MOL0     C19232  -0.600   8.705   9.732  0.2855 -0.3499  0.1559
  143MOL0     C19233  -0.657   8.694   9.594  0.2545  0.4192  0.3695
  143MOL0     C19234  -0.648   8.554   9.543  0.8101 -1.2775  0.3115
  143MOL0     C19235  -0.604   8.441   9.523  0.2800 -0.2562  0.2920
  143MOL0     C19236  -0.259   8.363  10.024 -0.4938 -0.0921 -0.6499
  143MOL0     C19237  -0.173   8.314  10.119  0.6386  0.7675  0.2139
  143MOL0     H19238   0.253   8.409  10.278  0.5604  0.6797 -0.4195
  143MOL0     H19239   0.468   8.376  10.390 -1.4161  1.4107 -3.0336
  143MOL0     H19240   0.557   8.561  10.718 -1.2109  0.9232  1.4057
  143MOL0     H19241   0.472   8.468  10.834 -0.1910 -3.2196  1.6481
  143MOL0     H19242   0.722   8.482  10.884 -0.7661  0.1732 -0.9571
  143MOL0     H19243   0.685   8.310  10.868  2.7934 -1.0992 -0.7805
  143MOL0     H19244   0.754   8.308  10.636 -0.4729  0.4529 -0.2321
  143MOL0     H19245   0.811   8.473  10.638 -0.6572  1.9573  1.7743
  143MOL0     H19246   0.943   8.395  10.858  0.3895  0.9427 -0.2001
  143MOL0     H19247   0.927   8.234  10.785  0.5213 -0.4511 -1.5608
  143MOL0     H19248   1.033   8.329  10.573 -3.5837 -0.9032 -0.3140
  143MOL0     H19249   1.051   8.474  10.658 -0.4413  1.1444  1.5505
  143MOL0     H19250   1.230   8.376  10.805  1.1957  1.3397 -1.4331
  143MOL0     H19251   1.155   8.222  10.786 -0.1252  3.0226  3.5608
  143MOL0     H19252   1.249   8.196  10.542  0.2334  1.3670 -1.7458
  143MOL0     H19253   1.299   8.349  10.543  3.5061 -0.8525  0.8745
  143MOL0     H19254   1.441   8.210  10.771  0.7046  1.6327  0.1041
  143MOL0     H19255   1.492   8.340  10.655  0.4575  0.1491  0.4516
  143MOL0     H19256   1.373   7.955  10.671 -3.8288  1.2508 -2.9010
  143MOL0     H19257   1.405   7.760  10.458 -1.9736  1.9322  2.2428
  143MOL0     H19258   1.575   7.762  10.414  1.5705 -2.9608  2.1257
  143MOL0     H19259   1.534   7.604  10.595 -0.2469  0.0032  2.2341
  143MOL0     H19260   1.475   7.736  10.701 -3.7175  0.7405 -3.1995
  143MOL0     H19261   1.704   7.700  10.766 -1.4832 -0.8563 -0.9073
  143MOL0     H19262   1.706   7.832  10.651 -1.2859 -0.8471 -0.3370
  143MOL0     H19263   1.887   7.666  10.577  1.4173 -0.2380 -1.8171
  143MOL0     H19264   1.749   7.675  10.465 -1.4295  0.9335  2.0245
  143MOL0     H19265   1.947   7.523  10.749 -1.2235  1.2066 -0.9461
  143MOL0     H19266   1.981   7.487  11.090  0.8439 -0.1939  0.2848
  143MOL0     H19267   2.055   7.338  11.035  2.6155  1.4491 -0.3980
  143MOL0     H19268   2.072   7.483  10.937 -0.4830  4.6090  2.7862
  143MOL0     H19269   1.719   7.197  11.354 -2.3226  0.9834 -0.1597
  143MOL0     H19270   1.609   7.068  11.536 -1.0031 -0.7486 -0.0731
  143MOL0     H19271   1.401   6.684  11.443 -0.6857  0.2852  0.6027
  143MOL0     H19272   1.568   6.642  11.463  0.5996  1.4223  0.3857
  143MOL0     H19273   1.463   6.545  11.666 -1.3856 -0.6964 -2.2420
  143MOL0     H19274   1.501   6.719  11.726  1.6950 -0.3757 -0.7706
  143MOL0     H19275   1.255   6.648  11.593  1.7741 -0.4561  1.0908
  143MOL0     H19276   1.290   6.798  11.681 -0.3393  0.2487  0.6594
  143MOL0     H19277   1.143   6.634  11.802 -0.8929  0.4599  2.3207
  143MOL0     H19278   1.264   6.512  11.791 -1.6842  0.9678 -1.4399
  143MOL0     H19279   1.405   6.593  11.963  0.4741 -0.5302 -0.9246
  143MOL0     H19280   1.243   6.625  12.031  0.9711 -1.5292  0.6359
  143MOL0     H19281   1.407   6.827  11.882  4.8930 -1.8938  2.7847
  143MOL0     H19282   1.240   6.849  11.948 -2.1038 -2.0720 -1.5800
  143MOL0     H19283   1.496   6.800  12.100 -0.4192  0.1804 -0.7317
  143MOL0     H19284   1.335   6.799  12.190  0.1309  0.3250  0.4353
  143MOL0     H19285   1.442   7.031  12.033 -2.4961  2.8211  0.4521
  143MOL0     H19286   1.465   7.014  12.198  2.9283 -2.6800 -0.8975
  143MOL0     H19287   1.525   6.756  11.265  2.1036 -1.3572  1.5383
  143MOL0     H19288   1.614   6.930  11.067 -0.7866 -1.1948 -0.4597
  143MOL0     H19289   1.600   7.211  10.890  1.2788 -1.2061 -0.0091
  143MOL0     H19290   1.580   7.335  10.679 -0.3721 -1.5770  2.1654
  143MOL0     H19291   0.291   8.394  10.773 -1.8015  1.3903  0.1173
  143MOL0     H19292   0.053   8.461  10.660 -1.2183 -0.7294 -0.4842
  143MOL0     H19293  -0.139   8.621  10.295 -0.0868 -1.4822  2.1256
  143MOL0     H19294  -0.289   8.694  10.140 -1.2733 -0.8302  0.2472
  143MOL0     H19295  -0.487   8.715   9.964  0.2408  1.8362 -0.3241
  143MOL0     H19296  -0.321   8.745   9.904 -1.1711  1.0825 -2.7900
  143MOL0     H19297  -0.419   8.609   9.680 -0.6481  0.8457 -2.2230
  143MOL0     H19298  -0.400   8.779   9.692 -0.8886 -0.2958 -0.8434
  143MOL0     H19299  -0.624   8.807   9.763 -0.0648 -0.2971 -0.2805
  143MOL0     H19300  -0.653   8.637   9.801 -1.3263  0.9361  0.2465
  143MOL0     H19301  -0.611   8.765   9.524 -1.4911  0.3559 -0.9233
  143MOL0     H19302  -0.761   8.727   9.603  0.2876  0.5612  0.2405
  143MOL0     H19303  -0.578   8.344   9.484  0.1934  1.0292 -3.3473
  143MOL0     H19304  -0.296   8.305   9.940 -2.5773 -0.2585  0.3065
  143MOL0     H19305  -0.138   8.212  10.127 -2.4515 -0.2878  2.2431
  144MOL0     O19306   4.088   8.538   8.765 -0.4687 -0.3621 -0.2881
  144MOL0     C19307   4.067   8.561   8.879 -0.0154 -0.4142  0.0726
  144MOL0     O19308   3.962   8.644   8.919  0.7304  0.0014 -0.2364
  144MOL0     C19309   3.846   8.655   8.852  0.1789  0.4160 -0.1174
  144MOL0     C19310   3.751   8.730   8.921 -1.1627 -0.7809 -0.4995
  144MOL0     C19311   3.623   8.752   8.866  0.0720  0.1862  0.0244
  144MOL0     C19312   3.583   8.704   8.739  0.2121  0.0239  0.3408
  144MOL0     O19313   3.460   8.721   8.698 -0.2835 -0.1812  0.8795
  144MOL0     C19314   3.410   8.627   8.601 -0.3224  0.4936 -0.4021
  144MOL0     C19315   3.260   8.601   8.621  0.3589 -0.4153 -0.0504
  144MOL0     C19316   3.195   8.527   8.509 -0.1560  0.8045 -0.6761
  144MOL0     C19317   3.051   8.477   8.532 -0.4446  0.0429  0.0406
  144MOL0     C19318   2.981   8.393   8.429  0.5011  0.3489  0.4125
  144MOL0     C19319   2.854   8.312   8.479 -0.0732 -0.5808  0.3925
  144MOL0     C19320   2.746   8.416   8.541 -0.8775  0.1473 -0.3907
  144MOL0     C19321   2.605   8.355   8.568 -0.4148 -0.1150 -0.2989
  144MOL0     N19322   2.536   8.328   8.442  0.0818  0.4940  0.0696
  144MOL0     C19323   2.555   8.208   8.371 -0.0471  0.3028  0.4267
  144MOL0     C19324   2.470   8.222   8.273  0.1333 -0.2253  0.3554
  144MOL0     C19325   2.447   8.131   8.156  0.5253 -0.1038 -0.2258
  144MOL0     C19326   2.388   7.998   8.203 -0.5795  0.5076 -0.1748
  144MOL0     C19327   2.334   7.916   8.084  0.3680  0.2343 -0.2170
  144MOL0     C19328   2.267   7.790   8.146  0.6669 -0.4499 -0.2673
  144MOL0     O19329   2.246   7.697   8.044 -0.3631 -0.6345  0.8311
  144MOL0     C19330   2.197   7.576   8.068  0.3403  1.0073 -0.5301
  144MOL0     C19331   2.228   7.483   7.969  0.0993  0.7434 -0.2045
  144MOL0     C19332   2.173   7.352   7.965  0.4964 -0.0447 -0.7229
  144MOL0     C19333   2.230   7.260   7.859  0.9109  1.1353  0.2294
  144MOL0     C19334   2.074   7.309   8.058 -0.4860 -0.0740 -0.0227
  144MOL0     C19335   2.008   7.177   8.063  0.4173  0.1757 -0.2591
  144MOL0     O19336   2.020   7.087   7.957 -0.8542 -0.0498  0.2715
  144MOL0     C19337   1.968   6.952   7.945  0.5310  0.0013  0.1691
  144MOL0     C19338   1.883   6.893   8.038 -0.2774  0.5440 -0.0284
  144MOL0     C19339   1.820   6.771   8.009  0.0737  0.6031  0.7241
  144MOL0     C19340   1.853   6.699   7.893 -0.9646 -0.1586  0.1243
  144MOL0     O19341   1.793   6.577   7.876 -0.6719  0.2039  0.7577
  144MOL0     C19342   1.880   6.459   7.863  0.3813  0.9936 -0.7461
  144MOL0     C19343   1.823   6.359   7.753  0.6611  1.0874 -0.7894
  144MOL0     C19344   1.684   6.287   7.786 -0.6983 -0.6389  0.6573
  144MOL0     C19345   1.689   6.136   7.757 -0.9252  0.3095 -0.2083
  144MOL0     C19346   1.547   6.081   7.750 -0.7260  0.1838  0.1096
  144MOL0     C19347   1.551   5.940   7.699 -0.0931  0.7041  0.2656
  144MOL0     C19348   1.420   5.868   7.716  0.3661 -0.7104 -0.7947
  144MOL0     C19349   1.387   5.744   7.644 -0.2251 -0.6077 -0.4678
  144MOL0    Cl19350   1.418   5.750   7.469  0.3642 -0.2928  0.0279
  144MOL0     C19351   1.942   6.766   7.805 -0.4171  0.1482  0.0844
  144MOL0     C19352   1.993   6.881   7.829  0.1651 -1.0542  0.2169
  144MOL0     O19353   1.933   7.157   8.157 -0.8372  0.0255 -1.0710
  144MOL0     C19354   2.049   7.409   8.160  0.1693  0.3708 -0.2438
  144MOL0     C19355   2.106   7.534   8.154  0.4031  0.5315  0.5899
  144MOL0     N19356   2.413   8.351   8.283 -0.4305 -0.4942  0.8820
  144MOL0     N19357   2.448   8.413   8.385 -0.5136 -1.1427  0.1922
  144MOL0     C19358   3.681   8.627   8.664 -1.0667 -0.5470 -0.2978
  144MOL0     C19359   3.811   8.605   8.719  0.1063  0.2669  0.0600
  144MOL0     C19360   4.165   8.502   8.973  0.2689  0.3448 -0.2015
  144MOL0     C19361   4.273   8.437   8.915  0.6114 -0.4961  0.2195
  144MOL0     C19362   4.374   8.383   8.995 -0.0526  0.3692  0.8859
  144MOL0     C19363   4.364   8.382   9.132 -0.7291 -0.9552 -0.0273
  144MOL0     O19364   4.471   8.329   9.199 -0.2690  0.2430 -0.2266
  144MOL0     C19365   4.479   8.339   9.337 -0.2011  0.2457 -0.9999
  144MOL0     C19366   4.547   8.474   9.375 -0.5407 -0.3837 -0.7432
  144MOL0     C19367   4.682   8.491   9.294  0.1445  0.0609  0.3810
  144MOL0     C19368   4.767   8.610   9.336 -0.3318 -0.2772 -0.3737
  144MOL0     C19369   4.902   8.587   9.287 -0.8432  0.0716 -0.3464
  144MOL0     C19370   5.015   8.576   9.255 -0.3812  0.5840 -0.0517
  144MOL0     C19371   4.253   8.451   9.195  0.8836  0.5807  0.3534
  144MOL0     C19372   4.151   8.500   9.113  0.3292 -0.8733 -1.0650
  144MOL0     H19373   3.773   8.763   9.022 -1.8450 -2.2050  0.1420
  144MOL0     H19374   3.543   8.797   8.924  1.0342 -0.2279  1.7195
  144MOL0     H19375   3.434   8.675   8.505  4.6469 -0.2938  0.1979
  144MOL0     H19376   3.456   8.529   8.612 -1.1365  0.1950  0.4050
  144MOL0     H19377   3.260   8.537   8.710  1.4435 -1.2238 -0.5994
  144MOL0     H19378   3.209   8.696   8.638  0.8214 -0.0230 -0.8014
  144MOL0     H19379   3.181   8.581   8.415 -1.3337 -0.4072 -1.2349
  144MOL0     H19380   3.251   8.433   8.498  1.9014  1.2766  3.6119
  144MOL0     H19381   3.045   8.433   8.632 -1.6313  0.1437  0.0307
  144MOL0     H19382   2.989   8.568   8.534 -0.1024  0.2734  0.5605
  144MOL0     H19383   2.949   8.447   8.340 -0.1136  0.2595  0.5797
  144MOL0     H19384   3.050   8.320   8.386 -0.5252  0.8549 -2.2803
  144MOL0     H19385   2.816   8.250   8.397 -0.5246 -0.7321  0.7179
  144MOL0     H19386   2.884   8.245   8.560  0.3419  0.3204  1.0035
  144MOL0     H19387   2.786   8.440   8.640  1.8935 -1.5555 -0.9680
  144MOL0     H19388   2.737   8.502   8.475 -0.4686 -0.1117 -0.7936
  144MOL0     H19389   2.555   8.426   8.635  0.4952  0.6835 -0.4408
  144MOL0     H19390   2.606   8.262   8.625 -0.5002  1.1650  1.9258
  144MOL0     H19391   2.627   8.136   8.408 -0.0233  0.8074  1.4138
  144MOL0     H19392   2.372   8.175   8.090  0.6128  1.1781  0.4923
  144MOL0     H19393   2.544   8.127   8.106 -0.2760 -1.3191 -1.7912
  144MOL0     H19394   2.305   8.013   8.273 -1.8287  0.3028 -1.5534
  144MOL0     H19395   2.466   7.937   8.250  0.3590  0.0143 -2.2717
  144MOL0     H19396   2.425   7.895   8.026 -0.9497 -0.4495 -2.1127
  144MOL0     H19397   2.261   7.960   8.016 -0.7588 -1.9588 -0.4834
  144MOL0     H19398   2.169   7.823   8.181  0.7316  2.2324 -2.2941
  144MOL0     H19399   2.326   7.751   8.230  1.6174 -1.1051 -1.2110
  144MOL0     H19400   2.302   7.509   7.894 -1.8512  1.5032 -1.9468
  144MOL0     H19401   2.287   7.172   7.892 -0.2990  0.2967  0.1336
  144MOL0     H19402   2.150   7.224   7.794  0.8157 -0.2034  1.0464
  144MOL0     H19403   2.299   7.313   7.793  1.4333  1.4190  0.9852
  144MOL0     H19404   1.862   6.950   8.128  2.7323  1.6594  0.0569
  144MOL0     H19405   1.749   6.711   8.067 -0.7024 -0.9566 -1.6702
  144MOL0     H19406   1.985   6.488   7.858  1.6231 -1.7561  3.6107
  144MOL0     H19407   1.878   6.412   7.962  3.3523 -0.6037 -1.3400
  144MOL0     H19408   1.801   6.424   7.668 -3.1011  2.4773  1.0308
  144MOL0     H19409   1.905   6.289   7.736  2.1776  1.7674  2.8650
  144MOL0     H19410   1.603   6.336   7.731  1.0565 -0.4504 -1.9254
  144MOL0     H19411   1.661   6.301   7.892  1.2468 -3.1649  1.5115
  144MOL0     H19412   1.729   6.125   7.656 -0.4785  0.0938 -0.0094
  144MOL0     H19413   1.748   6.094   7.839  0.4162  1.2441 -0.6558
  144MOL0     H19414   1.488   6.142   7.681 -0.1606 -0.2418 -0.7663
  144MOL0     H19415   1.505   6.086   7.851  1.2001  0.2184  0.9505
  144MOL0     H19416   1.574   5.955   7.594 -5.3190  0.6452 -1.1967
  144MOL0     H19417   1.623   5.879   7.754  1.1650 -0.3301 -2.4110
  144MOL0     H19418   1.346   5.936   7.671 -0.4395 -0.5014  0.7561
  144MOL0     H19419   1.404   5.875   7.824  3.4315  2.4511 -0.3377
  144MOL0     H19420   1.284   5.716   7.664 -0.8849  1.4991 -0.6805
  144MOL0     H19421   1.455   5.671   7.691 -0.1752  0.0448  0.5043
  144MOL0     H19422   1.978   6.724   7.712 -2.1627 -1.7213  0.1658
  144MOL0     H19423   2.044   6.927   7.745 -0.8687 -1.0259 -0.4197
  144MOL0     H19424   1.986   7.393   8.246 -1.2423 -0.9588 -1.4644
  144MOL0     H19425   2.086   7.599   8.238 -1.3772 -0.5663  1.0642
  144MOL0     H19426   3.674   8.584   8.565  1.8188  1.2215 -1.4040
  144MOL0     H19427   3.875   8.538   8.664  0.5207  2.2496 -2.0336
  144MOL0     H19428   4.285   8.435   8.807 -0.6868  0.9397  0.0032
  144MOL0     H19429   4.464   8.338   8.955  0.2147  1.3169  0.3927
  144MOL0     H19430   4.383   8.324   9.386 -2.7604  2.3547 -4.8521
  144MOL0     H19431   4.539   8.254   9.372 -0.1824 -0.3107 -2.2932
  144MOL0     H19432   4.567   8.484   9.482  0.2741  0.3832 -0.9553
  144MOL0     H19433   4.479   8.553   9.342  0.1066 -0.1640 -1.5821
  144MOL0     H19434   4.651   8.488   9.189 -1.0749 -2.7434  0.7169
  144MOL0     H19435   4.743   8.403   9.316 -0.8995 -0.7121  0.2481
  144MOL0     H19436   4.771   8.628   9.444 -2.4475  2.6613 -0.6605
  144MOL0     H19437   4.726   8.704   9.298  0.6102  1.5163  2.6742
  144MOL0     H19438   5.118   8.581   9.227  0.8011 -0.0826  3.6110
  144MOL0     H19439   4.247   8.460   9.303 -0.2455 -1.8392  0.5718
  144MOL0     H19440   4.067   8.548   9.161  2.3576  1.5903  0.2596
  145MOL0     O19441   4.294   5.653   0.806  0.4124  0.6332  0.3425
  145MOL0     C19442   4.346   5.562   0.739  1.1280 -0.0194 -0.4848
  145MOL0     O19443   4.283   5.460   0.670  0.0291 -0.7171  0.2200
  145MOL0     C19444   4.146   5.452   0.651  0.5544 -0.1531 -0.0605
  145MOL0     C19445   4.097   5.326   0.603 -1.0137  0.1213 -1.0363
  145MOL0     C19446   3.965   5.302   0.581  0.3695  0.1437  0.3327
  145MOL0     C19447   3.867   5.405   0.582 -0.3051 -1.1185  0.2425
  145MOL0     O19448   3.739   5.391   0.547 -0.2552  0.4772  0.0520
  145MOL0     C19449   3.679   5.265   0.539 -0.7951  0.1632  0.2340
  145MOL0     C19450   3.531   5.256   0.506  0.4376 -0.2642  0.7996
  145MOL0     C19451   3.472   5.115   0.520 -1.1873 -0.2640  0.0610
  145MOL0     C19452   3.511   5.018   0.410  0.0865 -0.5875 -0.5975
  145MOL0     C19453   3.448   4.877   0.422  0.5170 -0.0130 -0.3384
  145MOL0     C19454   3.515   4.786   0.319  1.0569  0.7660  0.5895
  145MOL0     C19455   3.430   4.658   0.307 -0.3629  0.1301 -0.4610
  145MOL0     C19456   3.511   4.564   0.227  0.9870  0.1228 -0.2244
  145MOL0     N19457   3.529   4.617   0.087 -0.6639 -0.9680  0.2096
  145MOL0     C19458   3.434   4.610  -0.005  0.0186  1.1395 -0.9063
  145MOL0     C19459   3.465   4.691  -0.105 -0.0036  0.3329  0.5943
  145MOL0     C19460   3.410   4.731  -0.241 -0.1597  0.1708  0.1964
  145MOL0     C19461   3.372   4.618  -0.339  0.7618 -0.0005  0.5869
  145MOL0     C19462   3.280   4.524  -0.279 -0.0836  0.0114  0.1101
  145MOL0     C19463   3.188   4.454  -0.377  0.4479 -0.6811  0.6715
  145MOL0     O19464   3.082   4.390  -0.299  0.5392 -0.5652  0.6302
  145MOL0     C19465   3.102   4.262  -0.257  0.5429  0.3733 -0.9329
  145MOL0     C19466   3.221   4.195  -0.255  0.4454 -1.1231  0.1378
  145MOL0     C19467   3.231   4.058  -0.216 -0.1957 -0.3591  0.4326
  145MOL0     C19468   3.368   3.999  -0.225  0.5483 -0.2020 -0.1317
  145MOL0     C19469   3.110   3.983  -0.187 -0.2154 -0.6457  0.1573
  145MOL0     C19470   3.120   3.836  -0.149 -0.5763 -1.2505 -0.4886
  145MOL0     O19471   3.033   3.791  -0.057  0.5408  0.2882  0.6560
  145MOL0     C19472   2.999   3.659  -0.070  0.4961 -0.0049 -0.0748
  145MOL0     C19473   3.072   3.556  -0.016 -0.0136 -0.4752 -0.7209
  145MOL0     C19474   3.038   3.418  -0.025 -1.2156 -0.2982  0.2389
  145MOL0     C19475   2.939   3.380  -0.114  0.8701  1.4663  0.5106
  145MOL0     O19476   2.911   3.247  -0.151 -1.1768 -1.3286 -0.8819
  145MOL0     C19477   2.990   3.143  -0.085 -0.0058 -0.4521  0.6775
  145MOL0     C19478   2.965   3.005  -0.139 -0.0502  0.5862  0.5258
  145MOL0     C19479   3.000   2.990  -0.287  0.4040  0.3234 -0.6049
  145MOL0     C19480   2.939   2.863  -0.347  0.1560  0.3483  0.2683
  145MOL0     C19481   2.962   2.847  -0.500 -0.2648  0.3896 -0.5084
  145MOL0     C19482   2.859   2.747  -0.555  0.7092  0.0402 -0.5112
  145MOL0     C19483   2.890   2.701  -0.704  0.5264  1.4812 -0.0131
  145MOL0     C19484   2.909   2.822  -0.795 -0.0205  0.7325  1.0864
  145MOL0    Cl19485   3.081   2.872  -0.788  0.0040  0.3271  0.1013
  145MOL0     C19486   2.861   3.478  -0.171 -0.0504  0.1757  0.4654
  145MOL0     C19487   2.893   3.615  -0.155 -0.3113  0.5630 -0.2061
  145MOL0     O19488   3.186   3.772  -0.228 -0.0368 -0.0966 -0.1419
  145MOL0     C19489   2.989   4.053  -0.192 -0.1221 -0.2183 -1.0380
  145MOL0     C19490   2.984   4.190  -0.222 -0.0431  0.3812  0.1085
  145MOL0     N19491   3.586   4.740  -0.071  0.5781 -0.5837  0.5208
  145MOL0     N19492   3.626   4.700   0.045  0.2853 -0.2328 -0.5076
  145MOL0     C19493   3.909   5.528   0.636  0.3894 -0.7265  0.2569
  145MOL0     C19494   4.051   5.556   0.668 -0.0220  1.2541  0.5344
  145MOL0     C19495   4.498   5.563   0.727  0.7126 -0.1824 -0.5890
  145MOL0     C19496   4.572   5.678   0.706  1.7879  0.1190 -0.2053
  145MOL0     C19497   4.705   5.685   0.696  0.3954  0.2744  0.3060
  145MOL0     C19498   4.775   5.566   0.708 -0.8544  0.2304 -0.1935
  145MOL0     O19499   4.921   5.551   0.708 -1.0071 -1.1508 -0.0641
  145MOL0     C19500   5.007   5.663   0.739  0.1814 -0.7063 -0.2210
  145MOL0     C19501   5.126   5.677   0.636  0.1236  0.5111 -0.2277
  145MOL0     C19502   5.227   5.557   0.643  0.5262 -0.6536  0.3709
  145MOL0     C19503   5.301   5.520   0.780  0.1769 -0.8044  0.4917
  145MOL0     C19504   5.344   5.635   0.856  0.1795  0.1562  0.8978
  145MOL0     C19505   5.395   5.725   0.925  0.4553  0.3015  0.0388
  145MOL0     C19506   4.714   5.443   0.719 -0.6284  0.0058  0.2778
  145MOL0     C19507   4.568   5.448   0.720 -0.3960 -0.6333 -0.5985
  145MOL0     H19508   4.173   5.248   0.599 -1.8069 -0.9057  1.4141
  145MOL0     H19509   3.934   5.202   0.551 -0.4336 -0.3242  2.5054
  145MOL0     H19510   3.739   5.207   0.468  0.0415 -3.4238  3.5282
  145MOL0     H19511   3.685   5.221   0.639 -0.2727  2.4643  1.2767
  145MOL0     H19512   3.475   5.329   0.564 -1.4944 -0.5086 -0.6461
  145MOL0     H19513   3.513   5.290   0.403  1.2931  3.7064  1.8213
  145MOL0     H19514   3.496   5.077   0.620  0.6063 -1.0273 -0.6172
  145MOL0     H19515   3.363   5.112   0.516 -1.2820  1.6110  0.5480
  145MOL0     H19516   3.473   5.056   0.315 -2.3993 -3.6070 -1.0036
  145MOL0     H19517   3.618   4.999   0.418  0.4178  1.6482  1.5320
  145MOL0     H19518   3.465   4.837   0.523 -2.7945 -0.7698  0.0281
  145MOL0     H19519   3.341   4.878   0.399  0.5284 -3.3911 -1.0483
  145MOL0     H19520   3.522   4.837   0.223  1.3615 -0.1194  0.1302
  145MOL0     H19521   3.618   4.754   0.341 -0.0837 -2.9687  1.2687
  145MOL0     H19522   3.418   4.606   0.402  1.0373 -2.2462 -1.4848
  145MOL0     H19523   3.333   4.684   0.263 -1.8203  0.1282  2.5283
  145MOL0     H19524   3.464   4.465   0.229  1.0626  0.0819 -0.4412
  145MOL0     H19525   3.612   4.548   0.266  1.5767 -0.2549 -1.8441
  145MOL0     H19526   3.345   4.549   0.008 -0.7943  2.4643  0.0042
  145MOL0     H19527   3.328   4.803  -0.237  0.1942  0.6296 -0.5024
  145MOL0     H19528   3.492   4.777  -0.297  0.1643 -0.4079  0.1815
  145MOL0     H19529   3.459   4.569  -0.385 -0.2947 -1.8131  0.4136
  145MOL0     H19530   3.322   4.668  -0.422  1.7990  2.4983  1.3759
  145MOL0     H19531   3.213   4.576  -0.209 -0.7977 -0.0057 -0.5369
  145MOL0     H19532   3.333   4.447  -0.223 -1.5207 -0.8221  0.3742
  145MOL0     H19533   3.244   4.384  -0.440  0.2744  0.7354 -1.1388
  145MOL0     H19534   3.136   4.522  -0.444  0.0736  0.4192  2.0428
  145MOL0     H19535   3.316   4.245  -0.272 -0.3557 -0.2346 -2.0327
  145MOL0     H19536   3.374   3.926  -0.143 -2.1305  0.8187  1.0836
  145MOL0     H19537   3.375   3.944  -0.319  0.0857 -1.2345  0.4226
  145MOL0     H19538   3.446   4.075  -0.219 -2.8788  3.5294  2.6481
  145MOL0     H19539   3.150   3.589   0.053 -1.1892  1.1361 -0.0853
  145MOL0     H19540   3.107   3.351   0.026  1.7904  1.9566 -0.5290
  145MOL0     H19541   3.099   3.148  -0.084  0.0942 -1.7941  2.5115
  145MOL0     H19542   2.957   3.140   0.020 -3.6134  1.0046 -0.2708
  145MOL0     H19543   3.017   2.930  -0.079 -1.0637  1.3520  2.4156
  145MOL0     H19544   2.861   2.974  -0.133 -0.0254  0.6339  1.1845
  145MOL0     H19545   3.107   2.995  -0.311  0.4336 -1.9348 -1.1928
  145MOL0     H19546   2.955   3.073  -0.341  0.9604  0.2988 -1.1106
  145MOL0     H19547   2.979   2.776  -0.294 -2.5548 -0.1968  1.6018
  145MOL0     H19548   2.830   2.848  -0.343  0.3270 -1.7164 -1.1852
  145MOL0     H19549   3.068   2.840  -0.526 -0.3278  1.8968 -1.3474
  145MOL0     H19550   2.945   2.941  -0.555  1.0428  0.4695 -0.8146
  145MOL0     H19551   2.857   2.651  -0.504 -0.6040  0.2601 -0.1077
  145MOL0     H19552   2.760   2.793  -0.544 -0.6643 -3.2060  2.3793
  145MOL0     H19553   2.813   2.633  -0.741 -0.5499  3.3085 -1.3073
  145MOL0     H19554   2.977   2.636  -0.701 -0.9933 -0.6456  2.4774
  145MOL0     H19555   2.836   2.897  -0.762 -0.4056  0.0146  1.9046
  145MOL0     H19556   2.878   2.799  -0.898  0.7898 -1.1795  1.2400
  145MOL0     H19557   2.770   3.449  -0.223 -2.4026  0.0020  4.2667
  145MOL0     H19558   2.836   3.688  -0.212  1.5451  3.0841  0.9778
  145MOL0     H19559   2.892   4.005  -0.185 -0.2392  0.2030  0.9314
  145MOL0     H19560   2.887   4.238  -0.216  0.3555  1.1363  0.6779
  145MOL0     H19561   3.835   5.607   0.646 -1.0505 -2.1046  0.9003
  145MOL0     H19562   4.079   5.659   0.688  1.1415  1.2910 -1.0869
  145MOL0     H19563   4.513   5.769   0.708  2.7120  0.7851  3.1649
  145MOL0     H19564   4.760   5.777   0.678  0.3817  0.1358 -0.4768
  145MOL0     H19565   4.945   5.753   0.737 -1.0463 -1.5241 -0.1146
  145MOL0     H19566   5.060   5.640   0.832  0.1421  2.8030  0.7946
  145MOL0     H19567   5.202   5.755   0.645  5.1413 -3.5970 -2.3454
  145MOL0     H19568   5.090   5.674   0.533 -1.4170 -2.9057  0.2599
  145MOL0     H19569   5.311   5.578   0.577  1.4676 -2.2823  1.0169
  145MOL0     H19570   5.175   5.466   0.610 -3.0264  1.2718  0.1398
  145MOL0     H19571   5.393   5.463   0.761  2.1778  3.0357 -3.5072
  145MOL0     H19572   5.242   5.457   0.846  1.2541 -2.1127  0.2530
  145MOL0     H19573   5.438   5.802   0.986 -0.9691  1.1507  0.0184
  145MOL0     H19574   4.775   5.355   0.708  1.3239  1.5022 -1.9840
  145MOL0     H19575   4.520   5.351   0.708 -2.6994  0.7229 -3.6829
  146MOL0     O19576   5.904   6.673   8.877  0.1517 -0.2113 -1.2239
  146MOL0     C19577   5.970   6.609   8.801 -0.2328  0.2879  0.2641
  146MOL0     O19578   5.987   6.641   8.670 -0.1062 -0.2534  0.0285
  146MOL0     C19579   5.928   6.752   8.612 -0.2154  1.0325 -0.6300
  146MOL0     C19580   5.801   6.814   8.653 -0.5371  0.2589 -0.0767
  146MOL0     C19581   5.739   6.915   8.585 -0.6558  0.1367  1.1234
  146MOL0     C19582   5.792   6.969   8.465 -0.1821  0.8431  0.6868
  146MOL0     O19583   5.736   7.069   8.382  0.1206  0.2341 -0.0514
  146MOL0     C19584   5.598   7.050   8.335  0.4055  0.5806  2.1905
  146MOL0     C19585   5.560   7.184   8.273  0.1454 -0.0568  1.0284
  146MOL0     C19586   5.409   7.193   8.250  0.3168 -0.5432 -0.5129
  146MOL0     C19587   5.356   7.085   8.148  0.3466  0.1727  0.3170
  146MOL0     C19588   5.225   7.129   8.077  0.0921  0.2911  0.0616
  146MOL0     C19589   5.105   7.110   8.175 -0.5464  0.1973  0.4408
  146MOL0     C19590   4.976   7.111   8.102 -0.4479 -0.6018  0.3001
  146MOL0     C19591   4.857   7.134   8.197 -0.0390 -0.2393 -0.6226
  146MOL0     N19592   4.732   7.100   8.141  0.2645 -0.3116  0.8008
  146MOL0     C19593   4.645   7.184   8.076  0.1889  0.4944  0.5070
  146MOL0     C19594   4.546   7.090   8.040  0.1410 -0.2121  0.4685
  146MOL0     C19595   4.410   7.109   7.972 -0.5790 -0.3989  1.3876
  146MOL0     C19596   4.435   7.125   7.818  0.2636  0.4449 -0.2734
  146MOL0     C19597   4.317   7.163   7.725  0.9794 -0.0662 -0.0212
  146MOL0     C19598   4.206   7.054   7.743 -0.2244 -0.0343  1.0241
  146MOL0     O19599   4.104   7.067   7.647  0.4139  0.0484  0.1325
  146MOL0     C19600   3.980   7.031   7.686  0.0995  0.2989  0.5335
  146MOL0     C19601   3.954   6.895   7.696  0.2481  0.4466 -0.3395
  146MOL0     C19602   3.821   6.838   7.699  0.1297 -0.4428  0.1793
  146MOL0     C19603   3.807   6.690   7.706  0.7255  0.3153  0.5078
  146MOL0     C19604   3.710   6.926   7.709  0.2459 -0.5131 -0.1042
  146MOL0     C19605   3.572   6.881   7.724 -0.2416 -0.2429 -0.4867
  146MOL0     O19606   3.495   6.938   7.813 -0.0377 -0.1190  0.0911
  146MOL0     C19607   3.356   6.910   7.830 -0.0502  0.6735 -0.5860
  146MOL0     C19608   3.270   7.007   7.874  0.2507 -0.6774 -0.3686
  146MOL0     C19609   3.139   6.989   7.917 -1.7475  0.0631  0.4412
  146MOL0     C19610   3.091   6.856   7.916  0.5013  0.0092  0.4481
  146MOL0     O19611   2.962   6.825   7.950  0.3853 -0.1205 -0.4789
  146MOL0     C19612   2.873   6.836   7.840  0.0670 -0.8923  0.1173
  146MOL0     C19613   2.743   6.769   7.872  0.0937  0.8516  0.0190
  146MOL0     C19614   2.772   6.619   7.904  0.0655  0.8327 -0.2399
  146MOL0     C19615   2.652   6.526   7.887  0.2875  1.2357  0.0222
  146MOL0     C19616   2.691   6.379   7.932  0.0097 -1.0579  0.5339
  146MOL0     C19617   2.576   6.285   7.895 -0.8640 -0.4800 -0.9421
  146MOL0     C19618   2.605   6.135   7.929 -0.3491 -0.7532 -0.4497
  146MOL0     C19619   2.493   6.035   7.884 -0.6656  0.7540  0.1200
  146MOL0    Cl19620   2.434   6.072   7.721  0.2353  0.2507 -0.5024
  146MOL0     C19621   3.175   6.747   7.871 -0.1684  0.5764 -1.4401
  146MOL0     C19622   3.307   6.776   7.835 -0.3216  0.6099  0.6877
  146MOL0     O19623   3.534   6.800   7.641  0.2760 -0.4452 -0.7054
  146MOL0     C19624   3.734   7.065   7.717  0.1752  0.2414 -0.0785
  146MOL0     C19625   3.863   7.115   7.709  0.3367 -1.2870 -0.4746
  146MOL0     N19626   4.581   6.969   8.102  0.0268  0.4430  0.0453
  146MOL0     N19627   4.686   6.979   8.164 -0.2429 -0.1636 -0.0797
  146MOL0     C19628   5.922   6.915   8.430 -0.2687  0.0282 -1.0013
  146MOL0     C19629   5.986   6.812   8.499 -0.2973  0.8756  0.3804
  146MOL0     C19630   6.025   6.475   8.841  0.8636  0.2507  0.5407
  146MOL0     C19631   5.971   6.406   8.952 -0.0689  0.1722 -0.2543
  146MOL0     C19632   6.029   6.293   8.995  0.5872  0.3086  0.7287
  146MOL0     C19633   6.149   6.243   8.929 -0.0999  0.1294 -1.5195
  146MOL0     O19634   6.217   6.134   8.977 -0.1712 -0.0430 -1.0748
  146MOL0     C19635   6.155   6.047   9.075  0.4022  0.0021 -0.5881
  146MOL0     C19636   6.196   6.083   9.217 -0.8018 -0.2618 -0.5618
  146MOL0     C19637   6.346   6.051   9.229 -1.3741  0.6385 -0.4826
  146MOL0     C19638   6.403   6.092   9.366  0.2703 -0.1521  0.0123
  146MOL0     C19639   6.361   6.010   9.483 -0.2751 -1.2300  0.4036
  146MOL0     C19640   6.331   5.947   9.584  1.1669 -0.8407  0.6327
  146MOL0     C19641   6.198   6.312   8.819 -0.4207  0.4619  0.3045
  146MOL0     C19642   6.131   6.425   8.767  0.0817 -0.3784 -0.5930
  146MOL0     H19643   5.748   6.774   8.739  2.4471 -2.0601  0.8594
  146MOL0     H19644   5.638   6.938   8.617 -0.3803  0.5738  1.7108
  146MOL0     H19645   5.589   6.968   8.263 -1.3709  3.2296 -0.9229
  146MOL0     H19646   5.527   7.026   8.415  1.0861 -0.4207  2.5134
  146MOL0     H19647   5.603   7.272   8.321 -0.0491  1.2897 -1.1340
  146MOL0     H19648   5.602   7.183   8.172 -1.7945 -2.9956  0.0999
  146MOL0     H19649   5.353   7.182   8.343  0.1183 -0.6221 -0.6412
  146MOL0     H19650   5.386   7.292   8.209 -2.2306 -1.3650 -1.2022
  146MOL0     H19651   5.421   7.090   8.060 -0.9505 -1.4395 -0.7849
  146MOL0     H19652   5.346   6.982   8.184 -3.5186 -0.0144 -0.8271
  146MOL0     H19653   5.223   7.234   8.046 -1.9624  0.8497  1.8028
  146MOL0     H19654   5.211   7.069   7.986 -1.6797 -3.0147  2.3001
  146MOL0     H19655   5.115   7.007   8.210  2.9088  0.8215  1.7489
  146MOL0     H19656   5.127   7.179   8.257  1.9205  1.5601 -1.2486
  146MOL0     H19657   4.976   7.198   8.037 -2.2836 -0.8449 -0.0851
  146MOL0     H19658   4.960   7.021   8.042 -2.5039 -0.0978  0.0053
  146MOL0     H19659   4.839   7.238   8.224 -1.0878 -0.8279  1.0783
  146MOL0     H19660   4.877   7.084   8.292 -0.3877 -1.2542 -1.0623
  146MOL0     H19661   4.651   7.288   8.048  0.7588 -0.1182 -1.9337
  146MOL0     H19662   4.341   7.025   7.986 -0.9840 -0.6531 -1.4984
  146MOL0     H19663   4.358   7.199   8.005 -0.4204  0.5375 -0.7677
  146MOL0     H19664   4.465   7.026   7.782 -0.7324  0.3196 -0.7914
  146MOL0     H19665   4.515   7.197   7.796 -0.8046  1.2148 -1.8121
  146MOL0     H19666   4.348   7.169   7.620  1.9699 -2.1521  0.1033
  146MOL0     H19667   4.283   7.259   7.766 -0.3051 -0.3251 -0.4366
  146MOL0     H19668   4.164   7.048   7.843 -2.6222  1.7530  0.2206
  146MOL0     H19669   4.250   6.957   7.720 -2.6889 -0.9223 -0.2779
  146MOL0     H19670   4.035   6.824   7.686 -0.2204 -0.3503  1.2481
  146MOL0     H19671   3.756   6.652   7.617 -2.2088  2.4487  1.1371
  146MOL0     H19672   3.908   6.651   7.719  0.3581 -0.9230 -0.2514
  146MOL0     H19673   3.738   6.671   7.788  0.8693  2.2331  1.1287
  146MOL0     H19674   3.309   7.109   7.881  3.6222 -1.7160 -1.8411
  146MOL0     H19675   3.083   7.077   7.948 -0.1405  3.1463 -4.2696
  146MOL0     H19676   2.857   6.937   7.800  2.5576  0.2434  1.7543
  146MOL0     H19677   2.924   6.786   7.757  0.3299  0.1299 -0.3577
  146MOL0     H19678   2.697   6.831   7.949 -1.3521 -0.4115  0.2251
  146MOL0     H19679   2.684   6.770   7.779 -1.2303 -3.1099  0.6337
  146MOL0     H19680   2.813   6.620   8.006 -1.6683  1.9892  0.4976
  146MOL0     H19681   2.852   6.593   7.834  0.6964  3.6460 -0.7246
  146MOL0     H19682   2.560   6.558   7.937 -1.9300 -1.0805 -2.2732
  146MOL0     H19683   2.620   6.526   7.782 -1.0732  0.6417  0.4137
  146MOL0     H19684   2.734   6.378   8.032  0.0932 -3.0340  0.5138
  146MOL0     H19685   2.772   6.337   7.871  3.2863 -0.0890  3.8656
  146MOL0     H19686   2.491   6.313   7.957 -1.1728 -1.3650 -0.9539
  146MOL0     H19687   2.546   6.298   7.790 -1.9256  1.7408 -0.4105
  146MOL0     H19688   2.596   6.134   8.038 -1.7317  0.9195 -0.5100
  146MOL0     H19689   2.704   6.108   7.893 -0.3555  0.6174 -1.6011
  146MOL0     H19690   2.415   6.033   7.961  1.2503 -2.4875  2.1722
  146MOL0     H19691   2.521   5.930   7.891 -3.9891 -0.4256 -1.8457
  146MOL0     H19692   3.142   6.644   7.882 -0.3525  0.6639 -1.1487
  146MOL0     H19693   3.372   6.691   7.817 -3.2791 -2.0334  1.5275
  146MOL0     H19694   3.651   7.133   7.736 -0.0856 -0.3254  0.9005
  146MOL0     H19695   3.890   7.221   7.704  1.1551 -1.4981 -0.7944
  146MOL0     H19696   5.962   6.947   8.334  0.5095  2.7644  0.1220
  146MOL0     H19697   6.079   6.775   8.456 -1.6029  0.9125 -2.6996
  146MOL0     H19698   5.884   6.443   9.005  1.3582  0.4483  2.0410
  146MOL0     H19699   5.984   6.250   9.084 -0.2994 -1.5563 -0.5710
  146MOL0     H19700   6.046   6.048   9.080  0.4549 -0.2591  1.0059
  146MOL0     H19701   6.183   5.946   9.042 -0.6258 -0.4706 -0.0499
  146MOL0     H19702   6.149   6.010   9.284 -0.4343  0.0968  0.1061
  146MOL0     H19703   6.168   6.186   9.242 -1.6193 -0.3053 -1.2520
  146MOL0     H19704   6.406   6.106   9.156  0.8414 -0.5360  0.3955
  146MOL0     H19705   6.358   5.945   9.207  3.0804  1.0955 -1.0339
  146MOL0     H19706   6.387   6.198   9.386  1.0032 -0.4356  2.4933
  146MOL0     H19707   6.510   6.071   9.359  0.6978 -1.2970  5.3197
  146MOL0     H19708   6.299   5.899   9.674 -4.8352 -0.8862 -1.0766
  146MOL0     H19709   6.285   6.267   8.773 -1.9446 -2.8756  0.3566
  146MOL0     H19710   6.171   6.474   8.678  2.4665 -3.0572 -1.1309
  147MOL0     O19711   8.787   8.381   8.873  0.3578 -0.2540  0.6511
  147MOL0     C19712   8.731   8.317   8.787 -0.2833 -0.5867 -0.1054
  147MOL0     O19713   8.679   8.368   8.675 -0.2445 -0.0726  0.1923
  147MOL0     C19714   8.713   8.491   8.630  0.7218 -0.8218 -1.5480
  147MOL0     C19715   8.844   8.541   8.613  0.3692  0.9461 -1.2625
  147MOL0     C19716   8.871   8.665   8.573 -0.6381  0.6226 -0.0601
  147MOL0     C19717   8.765   8.748   8.529  0.4262  0.1892 -0.7905
  147MOL0     O19718   8.783   8.886   8.499  0.1769 -0.0386  0.5688
  147MOL0     C19719   8.817   8.974   8.614  0.5521 -0.5213  0.2249
  147MOL0     C19720   8.833   9.112   8.555 -0.5953 -0.2047 -0.6923
  147MOL0     C19721   8.702   9.166   8.497 -0.5907 -0.9410  0.0792
  147MOL0     C19722   8.718   9.317   8.471  0.4301  0.2190 -0.8098
  147MOL0     C19723   8.583   9.381   8.451  0.9112 -0.6174 -1.6009
  147MOL0     C19724   8.511   9.442   8.573 -0.2840 -0.2105  0.9540
  147MOL0     C19725   8.384   9.499   8.529  0.2944  0.0137  0.9163
  147MOL0     C19726   8.267   9.401   8.564 -0.3072  0.2737 -0.3083
  147MOL0     N19727   8.131   9.452   8.532  0.1453 -0.5123  0.4288
  147MOL0     C19728   8.024   9.413   8.605 -0.7065  0.5200  0.0136
  147MOL0     C19729   7.915   9.419   8.523  0.4338 -0.1376  0.4013
  147MOL0     C19730   7.769   9.380   8.549 -0.2891 -1.0349  1.1336
  147MOL0     C19731   7.671   9.497   8.525 -0.1958 -0.9838 -0.9192
  147MOL0     C19732   7.540   9.483   8.612  0.1152 -0.4724  0.1356
  147MOL0     C19733   7.466   9.351   8.577  0.0288  0.2813  0.7075
  147MOL0     O19734   7.412   9.360   8.444 -0.7001 -0.2101  0.0645
  147MOL0     C19735   7.280   9.388   8.450  0.3889  0.1375  0.8052
  147MOL0     C19736   7.185   9.289   8.413 -0.7372  0.0090  0.3713
  147MOL0     C19737   7.048   9.315   8.415 -0.5350  0.2325 -0.6022
  147MOL0     C19738   6.960   9.208   8.366  0.7377 -0.5063 -0.4404
  147MOL0     C19739   7.002   9.445   8.448  0.4426  0.6043 -0.2242
  147MOL0     C19740   6.856   9.466   8.481  0.1580 -0.2551 -0.4768
  147MOL0     O19741   6.827   9.524   8.599  0.5788  0.0867  0.4035
  147MOL0     C19742   6.725   9.622   8.580  0.7373 -0.1525 -0.9851
  147MOL0     C19743   6.596   9.601   8.628  0.7364  0.6084 -0.1960
  147MOL0     C19744   6.500   9.707   8.618  0.5843 -0.0960 -0.1138
  147MOL0     C19745   6.531   9.824   8.552 -0.8404 -0.6841 -0.2440
  147MOL0     O19746   6.435   9.923   8.536 -0.2677 -0.3741 -0.3390
  147MOL0     C19747   6.327   9.946   8.631 -0.3008 -0.2382 -0.3332
  147MOL0     C19748   6.221  10.046   8.578 -0.6170 -0.1062 -0.3326
  147MOL0     C19749   6.100  10.056   8.673 -0.3140 -0.2851 -0.0245
  147MOL0     C19750   5.996  10.161   8.634  0.4095 -0.1184  0.9826
  147MOL0     C19751   5.895  10.094   8.536 -0.6174 -0.2773  0.8976
  147MOL0     C19752   5.773  10.181   8.514  0.2124 -0.7108  0.1650
  147MOL0     C19753   5.657  10.096   8.457 -0.3727 -0.3803  0.2881
  147MOL0     C19754   5.525  10.093   8.545 -0.8122  0.0402 -0.6573
  147MOL0    Cl19755   5.558  10.028   8.713  0.3392  0.0479  0.0560
  147MOL0     C19756   6.661   9.837   8.491  0.8690  0.4051  0.1565
  147MOL0     C19757   6.751   9.735   8.506 -0.6930  0.4760  0.1884
  147MOL0     O19758   6.771   9.456   8.383  0.0459 -0.3105  0.6833
  147MOL0     C19759   7.096   9.545   8.475 -0.8271 -0.0987 -1.2724
  147MOL0     C19760   7.233   9.521   8.482  1.2080  0.3966  0.7762
  147MOL0     N19761   7.960   9.488   8.409  1.0282 -0.5369  0.4228
  147MOL0     N19762   8.092   9.515   8.423 -0.0542  0.3598  0.1355
  147MOL0     C19763   8.634   8.703   8.538 -0.9623 -0.4489 -0.0728
  147MOL0     C19764   8.611   8.579   8.596 -0.1806  0.2044  1.1644
  147MOL0     C19765   8.682   8.169   8.806 -0.2586  0.3654  0.2915
  147MOL0     C19766   8.629   8.093   8.705 -0.3152 -0.9127  0.5007
  147MOL0     C19767   8.593   7.958   8.715 -0.3101  0.4827 -0.0278
  147MOL0     C19768   8.638   7.891   8.833 -0.2961  0.0046  0.4606
  147MOL0     O19769   8.624   7.751   8.843 -0.2772  0.1430 -0.3404
  147MOL0     C19770   8.745   7.684   8.885  0.2378  0.3897 -0.2074
  147MOL0     C19771   8.748   7.646   9.034 -0.3712 -0.6329  0.2413
  147MOL0     C19772   8.614   7.601   9.097  0.0957  0.3568 -0.4438
  147MOL0     C19773   8.549   7.487   9.014  0.3656  0.6188  0.1022
  147MOL0     C19774   8.615   7.363   9.040  0.1548  0.5512  0.3320
  147MOL0     C19775   8.681   7.264   9.047 -0.0861  0.1792  0.0020
  147MOL0     C19776   8.686   7.966   8.942  0.7795 -0.7266  0.0802
  147MOL0     C19777   8.709   8.103   8.929 -1.3310 -0.2565  0.5783
  147MOL0     H19778   8.929   8.486   8.650 -0.4679 -0.5667 -1.5234
  147MOL0     H19779   8.972   8.701   8.593  0.6159 -3.8092  3.3407
  147MOL0     H19780   8.736   8.956   8.687 -0.3060 -1.6281 -0.9479
  147MOL0     H19781   8.912   8.940   8.655  1.6376  1.2761 -0.7076
  147MOL0     H19782   8.852   9.173   8.643  1.4342  1.8333 -2.4011
  147MOL0     H19783   8.898   9.120   8.467 -3.0620  0.4465 -2.5828
  147MOL0     H19784   8.677   9.121   8.401 -0.9663  0.5847 -0.5701
  147MOL0     H19785   8.615   9.144   8.561 -2.8371  1.7622 -1.7972
  147MOL0     H19786   8.769   9.369   8.552  1.1252 -0.9616 -0.4689
  147MOL0     H19787   8.760   9.327   8.370 -0.1337  0.0784 -1.0641
  147MOL0     H19788   8.589   9.471   8.389 -1.6042  0.3386 -0.5739
  147MOL0     H19789   8.517   9.311   8.399  1.5585 -0.9652 -1.9675
  147MOL0     H19790   8.499   9.359   8.643  1.1793 -2.3257 -1.1540
  147MOL0     H19791   8.578   9.516   8.618  2.9923 -0.5842 -2.7969
  147MOL0     H19792   8.369   9.590   8.589  2.3367  2.0994 -1.4667
  147MOL0     H19793   8.381   9.541   8.428  0.4950  2.3767  1.8302
  147MOL0     H19794   8.272   9.387   8.672  1.7828  2.7574  0.0086
  147MOL0     H19795   8.281   9.306   8.513  1.1109 -2.1291  4.0261
  147MOL0     H19796   8.038   9.374   8.706  3.3706  0.5952 -0.3450
  147MOL0     H19797   7.745   9.304   8.474 -1.5814 -0.1813  0.6420
  147MOL0     H19798   7.756   9.347   8.652  1.5564 -1.6008  1.2076
  147MOL0     H19799   7.632   9.492   8.423 -1.1989  0.0345 -0.6030
  147MOL0     H19800   7.719   9.591   8.556 -0.3630 -2.0585  3.1407
  147MOL0     H19801   7.473   9.568   8.597 -0.6697 -1.4871 -2.5852
  147MOL0     H19802   7.559   9.482   8.720 -0.5004  0.0469  0.2549
  147MOL0     H19803   7.380   9.340   8.644 -1.1647  0.2255 -0.7909
  147MOL0     H19804   7.537   9.267   8.574  4.0699  3.3530  0.9499
  147MOL0     H19805   7.210   9.194   8.368 -1.9898  0.6665 -1.9239
  147MOL0     H19806   6.952   9.204   8.257 -1.2056 -0.0310 -0.3641
  147MOL0     H19807   6.987   9.111   8.410  2.1961 -0.2358 -0.6844
  147MOL0     H19808   6.858   9.230   8.398  1.7536  1.1367  1.8604
  147MOL0     H19809   6.591   9.513   8.691 -3.4335  1.0482  0.3484
  147MOL0     H19810   6.412   9.679   8.676  1.3261 -0.4867  0.8518
  147MOL0     H19811   6.284   9.848   8.656  0.3874 -0.6102 -0.5792
  147MOL0     H19812   6.368   9.983   8.726 -0.7845 -3.3107  1.2096
  147MOL0     H19813   6.268  10.144   8.567  2.1613 -1.6224 -4.6805
  147MOL0     H19814   6.185  10.016   8.479 -4.1385  0.1455  0.7472
  147MOL0     H19815   6.142  10.076   8.772  1.6610 -1.7691 -0.5122
  147MOL0     H19816   6.059   9.956   8.685  2.1010 -1.2175  1.2111
  147MOL0     H19817   5.944  10.207   8.718  0.3162 -0.1697  0.9550
  147MOL0     H19818   6.030  10.248   8.577 -0.7686 -0.4083 -0.2313
  147MOL0     H19819   5.853  10.000   8.572 -0.2967 -0.2951  1.2285
  147MOL0     H19820   5.951  10.074   8.445  0.4353  1.7332  1.0446
  147MOL0     H19821   5.749  10.232   8.607  2.8034  1.0295 -0.0343
  147MOL0     H19822   5.788  10.255   8.435  0.3326 -3.7724 -2.9450
  147MOL0     H19823   5.688  10.004   8.408 -1.9311  0.6897 -2.9630
  147MOL0     H19824   5.626  10.147   8.365 -4.4301 -0.6772  1.2899
  147MOL0     H19825   5.442  10.035   8.505 -2.5799  1.6867  0.4420
  147MOL0     H19826   5.483  10.193   8.540  1.3304  1.1092  0.9211
  147MOL0     H19827   6.694   9.920   8.429  1.3032 -2.1972 -3.4183
  147MOL0     H19828   6.849   9.733   8.459 -1.6344 -0.7663 -1.8581
  147MOL0     H19829   7.056   9.645   8.486 -2.4314 -0.6132 -2.1474
  147MOL0     H19830   7.302   9.604   8.496 -0.2711  1.7007  0.6140
  147MOL0     H19831   8.548   8.762   8.509  0.5212  0.8909 -1.9313
  147MOL0     H19832   8.508   8.545   8.595 -1.3547  3.2940 -0.7957
  147MOL0     H19833   8.613   8.135   8.606 -0.4343  0.1068  0.9394
  147MOL0     H19834   8.549   7.901   8.634 -4.4680  2.3384  0.6430
  147MOL0     H19835   8.748   7.595   8.821 -4.0855 -3.2748  3.9206
  147MOL0     H19836   8.831   7.747   8.861 -1.3841  3.4735  1.4403
  147MOL0     H19837   8.788   7.736   9.082  3.0817 -2.2008  0.6176
  147MOL0     H19838   8.830   7.574   9.042  2.2964  2.0581 -1.0131
  147MOL0     H19839   8.547   7.688   9.101  1.9448  1.8477 -0.2213
  147MOL0     H19840   8.622   7.571   9.202 -0.5334  0.5813 -0.3305
  147MOL0     H19841   8.539   7.511   8.908 -2.0022 -0.1713  0.0882
  147MOL0     H19842   8.448   7.476   9.053  0.0281  0.0081 -0.9005
  147MOL0     H19843   8.744   7.178   9.049 -1.4112 -0.8249 -0.2704
  147MOL0     H19844   8.702   7.932   9.044 -0.3216  0.7856  0.7893
  147MOL0     H19845   8.754   8.159   9.010 -0.9913  1.4207 -0.7204
  148MOL0     O19846   1.951   8.586   3.620 -0.1603 -0.4024  0.1896
  148MOL0     C19847   1.845   8.534   3.653 -0.0973  0.4851 -0.0646
  148MOL0     O19848   1.784   8.532   3.772 -0.4995 -0.2403 -0.7114
  148MOL0     C19849   1.850   8.553   3.887  0.7569 -0.2491  0.1398
  148MOL0     C19850   1.971   8.496   3.919 -0.5015  0.1614  0.3976
  148MOL0     C19851   2.026   8.504   4.045  0.3729  0.0531  0.0366
  148MOL0     C19852   1.968   8.586   4.140  0.5968 -0.0030 -0.2433
  148MOL0     O19853   2.017   8.622   4.258 -0.3285 -0.1611  0.0041
  148MOL0     C19854   2.096   8.527   4.329  1.3679  0.1405 -0.7145
  148MOL0     C19855   2.132   8.593   4.467  0.2186  0.1155  0.3146
  148MOL0     C19856   2.189   8.498   4.575 -0.4680 -0.5866 -0.9935
  148MOL0     C19857   2.079   8.422   4.659  0.1204  0.5650 -0.4986
  148MOL0     C19858   2.135   8.300   4.726 -0.5528  0.1884  0.3188
  148MOL0     C19859   2.258   8.336   4.811  0.1616 -0.0219  0.5526
  148MOL0     C19860   2.295   8.206   4.891  0.3636 -0.4858  0.0167
  148MOL0     C19861   2.402   8.211   5.002  0.1836 -0.4302  0.5095
  148MOL0     N19862   2.393   8.080   5.082 -0.2250  0.0743 -0.2286
  148MOL0     C19863   2.300   8.035   5.176 -1.1306  0.0415  0.9251
  148MOL0     C19864   2.331   7.906   5.192  1.0651  0.5739  1.7415
  148MOL0     C19865   2.273   7.825   5.300 -0.1981 -0.1289 -2.3319
  148MOL0     C19866   2.130   7.784   5.261  1.2088  0.5211 -0.5252
  148MOL0     C19867   2.057   7.702   5.364  0.5072 -0.3446  0.4734
  148MOL0     C19868   1.930   7.651   5.289  0.0377  1.0901 -0.3330
  148MOL0     O19869   1.862   7.735   5.193 -0.0996 -0.5568 -1.1815
  148MOL0     C19870   1.807   7.855   5.245 -0.0785 -0.2130 -0.1765
  148MOL0     C19871   1.779   7.951   5.149  0.6915 -0.6483 -0.3231
  148MOL0     C19872   1.725   8.082   5.175 -0.7167 -0.5411  0.1775
  148MOL0     C19873   1.693   8.175   5.054  0.0553  0.3075 -0.7302
  148MOL0     C19874   1.713   8.114   5.309  1.2326 -0.0518 -0.5817
  148MOL0     C19875   1.647   8.235   5.353 -0.1804  0.6451  0.3714
  148MOL0     O19876   1.555   8.233   5.454  0.9660 -0.4047 -0.5947
  148MOL0     C19877   1.493   8.347   5.494  0.3524  0.6678  0.8915
  148MOL0     C19878   1.511   8.384   5.624  0.8491 -0.5924 -0.5082
  148MOL0     C19879   1.442   8.494   5.672 -1.4302  0.8605  0.7644
  148MOL0     C19880   1.356   8.567   5.586  1.2274 -1.4299 -0.4930
  148MOL0     O19881   1.267   8.665   5.630 -0.0258  0.9589  0.5607
  148MOL0     C19882   1.288   8.715   5.763  0.9027  0.4182 -0.3901
  148MOL0     C19883   1.173   8.814   5.799 -0.0261 -0.3269  0.1438
  148MOL0     C19884   1.046   8.733   5.810 -0.4946  0.1490  0.6896
  148MOL0     C19885   0.925   8.832   5.830 -0.5903  0.0771 -1.3483
  148MOL0     C19886   0.790   8.765   5.815  0.4200 -0.2906  0.6082
  148MOL0     C19887   0.777   8.617   5.875  0.6715 -0.4213 -0.7516
  148MOL0     C19888   0.640   8.550   5.831 -0.0503 -0.0687 -0.6066
  148MOL0     C19889   0.623   8.407   5.880 -0.5282  0.5935 -0.1661
  148MOL0    Cl19890   0.613   8.400   6.057  0.2435  0.4198  0.1840
  148MOL0     C19891   1.348   8.531   5.451 -0.7745 -0.2644  0.2733
  148MOL0     C19892   1.420   8.422   5.403  0.0186 -0.7959 -0.1812
  148MOL0     O19893   1.711   8.334   5.318  0.6503  0.0627  0.0455
  148MOL0     C19894   1.750   8.024   5.406 -0.3076  0.5307 -0.3020
  148MOL0     C19895   1.790   7.895   5.376 -0.0486  0.0321 -0.0541
  148MOL0     N19896   2.431   7.861   5.104  0.3525 -0.2424 -0.2681
  148MOL0     N19897   2.472   7.971   5.050 -0.2001 -0.4645  0.3276
  148MOL0     C19898   1.841   8.646   4.112 -0.0585  0.7374 -0.2674
  148MOL0     C19899   1.784   8.632   3.989  0.6114  1.7513  0.3274
  148MOL0     C19900   1.758   8.470   3.543  0.2401  0.5098  0.4867
  148MOL0     C19901   1.811   8.479   3.416 -0.1045 -1.0943  0.2354
  148MOL0     C19902   1.721   8.454   3.306  0.0039 -0.1475 -0.2473
  148MOL0     C19903   1.589   8.412   3.332 -0.2639 -0.0339 -0.3874
  148MOL0     O19904   1.512   8.402   3.220 -0.0799  0.0513 -0.1975
  148MOL0     C19905   1.369   8.391   3.223  0.6575 -0.7472  0.8415
  148MOL0     C19906   1.293   8.525   3.271  0.1390 -0.0422 -0.1450
  148MOL0     C19907   1.158   8.527   3.354  0.1415  0.2093 -0.4391
  148MOL0     C19908   1.041   8.447   3.292  0.2033 -0.1703 -1.1131
  148MOL0     C19909   1.003   8.460   3.148  0.7112  0.2755 -0.6000
  148MOL0     C19910   0.982   8.494   3.036 -1.1826 -0.3201  0.6151
  148MOL0     C19911   1.543   8.390   3.467  0.1394  0.9092 -0.3677
  148MOL0     C19912   1.628   8.425   3.572  0.0881 -0.7751 -0.2129
  148MOL0     H19913   2.015   8.433   3.842 -1.9663 -1.4849  0.8620
  148MOL0     H19914   2.121   8.455   4.064  0.0461 -1.0997 -1.1699
  148MOL0     H19915   2.036   8.438   4.350 -2.2956  2.6203  0.1529
  148MOL0     H19916   2.183   8.494   4.271  0.4184 -0.8995 -1.5851
  148MOL0     H19917   2.206   8.670   4.443 -0.7254  0.9899  0.1223
  148MOL0     H19918   2.046   8.649   4.505  0.6680  0.6367  0.5768
  148MOL0     H19919   2.264   8.431   4.532 -0.6898 -0.7971 -1.0539
  148MOL0     H19920   2.252   8.550   4.648 -0.4760 -0.4324 -1.0978
  148MOL0     H19921   2.033   8.483   4.738 -0.8761 -1.4295  0.5242
  148MOL0     H19922   2.003   8.392   4.586  0.2618 -0.2697 -0.3094
  148MOL0     H19923   2.055   8.268   4.793 -0.0939 -0.1340  0.7148
  148MOL0     H19924   2.168   8.219   4.661 -1.6171  1.0196 -1.3529
  148MOL0     H19925   2.341   8.376   4.753  1.1268 -0.7927  1.3631
  148MOL0     H19926   2.234   8.416   4.882 -0.4882  1.2519 -1.0375
  148MOL0     H19927   2.203   8.161   4.930  0.3256 -0.4227  0.0003
  148MOL0     H19928   2.336   8.136   4.818  2.2936 -0.4927  1.0583
  148MOL0     H19929   2.381   8.301   5.060  0.6147  1.4764 -2.1392
  148MOL0     H19930   2.501   8.224   4.958  0.1226 -0.7803  0.2607
  148MOL0     H19931   2.231   8.096   5.234  0.1811  1.8327  0.6677
  148MOL0     H19932   2.337   7.738   5.316  0.1601  0.4294 -0.5371
  148MOL0     H19933   2.265   7.878   5.396  1.0611 -3.2226 -0.3485
  148MOL0     H19934   2.135   7.731   5.166  1.3420  0.9517 -0.7628
  148MOL0     H19935   2.064   7.871   5.248  0.5680  0.0434 -0.5035
  148MOL0     H19936   2.040   7.751   5.460  0.3211 -0.8130  0.6831
  148MOL0     H19937   2.117   7.613   5.386  1.4825 -0.3819 -2.0455
  148MOL0     H19938   1.870   7.634   5.379  4.3611 -0.1262  2.6182
  148MOL0     H19939   1.952   7.557   5.237  1.7397  1.6094 -0.6282
  148MOL0     H19940   1.820   7.926   5.052  1.7267 -0.3168  0.0087
  148MOL0     H19941   1.625   8.256   5.080 -1.3430 -0.6914 -1.1852
  148MOL0     H19942   1.784   8.207   5.002 -0.8506  0.8460 -2.0572
  148MOL0     H19943   1.641   8.117   4.977  0.0925 -0.1663 -0.3996
  148MOL0     H19944   1.580   8.324   5.683  0.3572  1.0066  1.8159
  148MOL0     H19945   1.468   8.537   5.768 -1.1763 -0.4877  1.3213
  148MOL0     H19946   1.273   8.633   5.834 -0.7325  2.1382  1.3445
  148MOL0     H19947   1.386   8.764   5.766  1.9924 -1.4138 -2.6156
  148MOL0     H19948   1.187   8.861   5.897 -4.1249  1.6351 -0.0213
  148MOL0     H19949   1.168   8.903   5.735  0.6231 -1.5431 -1.6941
  148MOL0     H19950   1.049   8.671   5.900  2.8090  1.2003  1.4263
  148MOL0     H19951   1.038   8.669   5.721  2.0460 -3.0293  2.5497
  148MOL0     H19952   0.934   8.875   5.930  1.1967  0.1656 -1.5247
  148MOL0     H19953   0.940   8.916   5.762 -0.1120  0.3182 -0.9503
  148MOL0     H19954   0.778   8.749   5.708  1.7227 -1.7331  0.6371
  148MOL0     H19955   0.709   8.824   5.857  1.8078  2.7313 -0.6907
  148MOL0     H19956   0.847   8.543   5.836 -2.1568 -3.0849 -1.1398
  148MOL0     H19957   0.793   8.625   5.983  0.5095  4.2253 -0.8742
  148MOL0     H19958   0.638   8.546   5.722 -2.9565  2.3924 -0.8021
  148MOL0     H19959   0.550   8.605   5.862 -2.4264 -4.2636  0.6847
  148MOL0     H19960   0.711   8.349   5.850 -1.1847 -1.2442  1.2854
  148MOL0     H19961   0.536   8.358   5.835 -2.3113  2.1728  1.4026
  148MOL0     H19962   1.280   8.581   5.383 -0.8250 -1.3137 -0.4804
  148MOL0     H19963   1.412   8.399   5.297  1.2947  2.5063 -1.1098
  148MOL0     H19964   1.739   8.047   5.512  0.3414 -1.3943  0.2229
  148MOL0     H19965   1.805   7.821   5.454 -2.4979  0.1002  0.5388
  148MOL0     H19966   1.795   8.726   4.169 -0.3554  1.0968 -0.9901
  148MOL0     H19967   1.701   8.695   3.960 -0.5203 -0.2267 -0.9577
  148MOL0     H19968   1.905   8.522   3.383 -1.7534 -0.5826 -4.5238
  148MOL0     H19969   1.747   8.472   3.202 -0.1798 -2.0259 -0.6474
  148MOL0     H19970   1.344   8.384   3.117  0.6413 -1.7965  0.9086
  148MOL0     H19971   1.331   8.306   3.279  1.2124 -1.1575  0.6017
  148MOL0     H19972   1.282   8.577   3.176  3.2371 -0.6150 -0.9294
  148MOL0     H19973   1.364   8.580   3.334 -0.3638 -1.0176  1.3213
  148MOL0     H19974   1.130   8.633   3.349  2.4291  0.8702 -0.9904
  148MOL0     H19975   1.164   8.492   3.457 -1.6531  0.3333 -0.2629
  148MOL0     H19976   0.950   8.440   3.353  0.8999  2.6377  0.4075
  148MOL0     H19977   1.072   8.342   3.301 -0.3398 -0.3386 -1.1783
  148MOL0     H19978   0.960   8.510   2.932  3.0414 -0.8185 -0.5462
  148MOL0     H19979   1.448   8.339   3.478  1.1137 -0.5124  2.2294
  148MOL0     H19980   1.588   8.426   3.673 -1.4374 -0.0696 -0.7883
  149MOL0     O19981  10.794   0.285  10.667 -1.0218  0.4947 -0.8403
  149MOL0     C19982  10.695   0.247  10.735  2.0894 -0.6169  0.0002
  149MOL0     O19983  10.589   0.326  10.762 -0.6881  0.8642  0.2689
  149MOL0     C19984  10.595   0.447  10.698  0.2220 -0.3576  0.1021
  149MOL0     C19985  10.538   0.467  10.573 -0.1332  0.1505 -0.4216
  149MOL0     C19986  10.540   0.602  10.517  0.5777  0.5144 -0.1459
  149MOL0     C19987  10.594   0.706  10.589 -0.6027 -1.0232 -0.1300
  149MOL0     O19988  10.599   0.833  10.536 -0.2973 -0.3073 -0.4065
  149MOL0     C19989  10.473   0.895  10.522  0.6585  0.1787  0.2690
  149MOL0     C19990  10.483   1.035  10.577  0.0401 -0.7690  0.8038
  149MOL0     C19991  10.351   1.112  10.561  0.0013  0.1519 -0.5449
  149MOL0     C19992  10.358   1.259  10.616 -0.3205  0.0647  0.0670
  149MOL0     C19993  10.218   1.317  10.642  0.5468  0.1592 -0.1607
  149MOL0     C19994  10.229   1.461  10.681 -0.4735  0.1623 -0.8318
  149MOL0     C19995  10.100   1.534  10.675 -0.3328  0.0356 -0.0671
  149MOL0     C19996  10.024   1.526  10.808  0.1600 -0.4673 -0.1449
  149MOL0     N19997  10.080   1.603  10.918  0.5930 -0.0708  0.3897
  149MOL0     C19998  10.098   1.743  10.906  0.1225 -0.6788  0.1997
  149MOL0     C19999  10.144   1.781  11.026  0.4273  0.4533 -0.3302
  149MOL0     C20000  10.182   1.923  11.059  0.8408 -0.4644  0.5698
  149MOL0     C20001  10.336   1.928  11.083 -0.8214 -0.4725  1.0924
  149MOL0     C20002  10.387   2.066  11.101 -0.4595  0.4565  0.3116
  149MOL0     C20003  10.533   2.074  11.108 -0.0070 -1.1101  0.8101
  149MOL0     O20004  10.578   2.211  11.133  0.0007 -0.3903 -0.9534
  149MOL0     C20005  10.708   2.241  11.090  0.5712 -0.8437 -0.1959
  149MOL0     C20006  10.729   2.262  10.950 -0.2820  0.1515  0.0775
  149MOL0     C20007  10.864   2.287  10.911  0.0209  0.2212  0.2343
  149MOL0     C20008  10.876   2.300  10.762  0.3567  0.0879 -0.9988
  149MOL0     C20009  10.974   2.272  10.997  0.0336 -0.2846 -0.1548
  149MOL0     C20010  11.112   2.289  10.951 -0.6483 -0.5743 -0.1496
  149MOL0     O20011  11.189   2.323  11.054  0.2892  0.1919 -0.3524
  149MOL0     C20012  11.313   2.366  11.023 -0.0474 -0.4288 -0.5369
  149MOL0     C20013  11.412   2.332  11.125  0.4333 -0.0546 -0.2009
  149MOL0     C20014  11.544   2.370  11.107  0.3125 -0.3564 -0.8402
  149MOL0     C20015  11.587   2.460  11.003  0.3882  0.5960 -0.2363
  149MOL0     O20016  11.717   2.513  10.988 -0.0815 -0.6292  0.5631
  149MOL0     C20017  11.798   2.465  10.874  0.1087 -0.5342  0.3857
  149MOL0     C20018  11.865   2.582  10.796  0.6921 -0.2932 -0.7931
  149MOL0     C20019  11.976   2.642  10.880 -0.8590  0.7399  0.9791
  149MOL0     C20020  12.013   2.787  10.849  0.0924 -0.3685 -0.2730
  149MOL0     C20021  12.068   2.811  10.708  0.1691 -0.0329 -0.5039
  149MOL0     C20022  12.086   2.965  10.685  0.2470  0.1984 -0.2580
  149MOL0     C20023  12.119   2.993  10.545 -0.1365 -0.4324  0.8471
  149MOL0     C20024  12.200   2.889  10.479  0.0096 -0.2981  0.6925
  149MOL0    Cl20025  12.217   2.938  10.303  0.4021 -0.2539  0.0878
  149MOL0     C20026  11.487   2.506  10.915 -0.6111  1.0205  0.9324
  149MOL0     C20027  11.352   2.450  10.916  0.1459  0.4360  0.1586
  149MOL0     O20028  11.148   2.261  10.835  0.0038 -0.6177  0.0697
  149MOL0     C20029  10.952   2.254  11.138 -0.5405 -0.2476  0.0891
  149MOL0     C20030  10.815   2.233  11.176 -0.2351  0.6947 -0.1614
  149MOL0     N20031  10.150   1.674  11.115 -0.4115  0.0065  0.2578
  149MOL0     N20032  10.113   1.570  11.039 -0.6947  0.3834 -0.7827
  149MOL0     C20033  10.646   0.684  10.711  0.2412  0.5154  0.3500
  149MOL0     C20034  10.657   0.557  10.767  0.6504  0.7249 -0.7191
  149MOL0     C20035  10.690   0.096  10.765 -0.1598 -0.6288 -0.5588
  149MOL0     C20036  10.806   0.019  10.764 -0.1768  0.0845 -0.2132
  149MOL0     C20037  10.806  -0.118  10.816  0.2717  0.0439 -0.0999
  149MOL0     C20038  10.687  -0.164  10.872  0.2808  0.7589  0.0603
  149MOL0     O20039  10.674  -0.287  10.931  0.0500  0.2826  0.2843
  149MOL0     C20040  10.664  -0.393  10.841  0.4660  0.6315 -0.0355
  149MOL0     C20041  10.635  -0.523  10.919  0.3918 -1.5650  0.4331
  149MOL0     C20042  10.739  -0.573  11.025 -0.1088 -0.2774  0.1484
  149MOL0     C20043  10.870  -0.605  10.949  0.9745 -0.7249 -0.2565
  149MOL0     C20044  10.941  -0.707  11.026 -0.2582  0.7964  0.4122
  149MOL0     C20045  11.017  -0.786  11.083  0.8542  0.0448  0.3982
  149MOL0     C20046  10.570  -0.088  10.851  0.3043  0.9561 -0.1620
  149MOL0     C20047  10.564   0.039  10.795 -0.8870 -0.4094  0.0909
  149MOL0     H20048  10.494   0.382  10.521  0.2081 -0.9098  0.9756
  149MOL0     H20049  10.493   0.622  10.421  0.7936  1.1405 -0.1230
  149MOL0     H20050  10.437   0.898  10.419  1.3608  0.7220  0.0266
  149MOL0     H20051  10.396   0.843  10.579  0.4792  1.5639  1.3538
  149MOL0     H20052  10.511   1.029  10.683 -0.2571 -4.4743  0.7989
  149MOL0     H20053  10.557   1.090  10.518 -0.0628  0.0797  1.4418
  149MOL0     H20054  10.335   1.101  10.453  2.1018 -0.3500 -0.8476
  149MOL0     H20055  10.278   1.047  10.609  1.0092 -1.4715 -1.1149
  149MOL0     H20056  10.428   1.258  10.700  0.5687  0.6088 -0.6500
  149MOL0     H20057  10.414   1.322  10.546  0.6511  0.9896  1.6247
  149MOL0     H20058  10.165   1.307  10.547 -3.7009  0.2719  1.9686
  149MOL0     H20059  10.151   1.268  10.713 -2.0201  3.7763  0.1958
  149MOL0     H20060  10.275   1.475  10.779 -1.0173  2.2842 -0.8249
  149MOL0     H20061  10.295   1.506  10.606  2.1483  0.9687  1.7829
  149MOL0     H20062  10.117   1.641  10.657 -2.1891  0.7692  2.0533
  149MOL0     H20063  10.039   1.503  10.590 -1.9128  1.4263  0.5041
  149MOL0     H20064  10.005   1.424  10.843  1.0250 -0.0597  1.6664
  149MOL0     H20065   9.926   1.568  10.784  1.4504  2.3741 -0.7565
  149MOL0     H20066  10.073   1.817  10.831 -1.3213  0.6308  1.8807
  149MOL0     H20067  10.164   1.983  10.970 -0.1087 -1.0969  0.3191
  149MOL0     H20068  10.125   1.954  11.148  3.4473  3.2688  1.1660
  149MOL0     H20069  10.384   1.890  10.992  0.5636 -1.2169  2.1038
  149MOL0     H20070  10.367   1.856  11.159  0.5384 -0.8934  0.1765
  149MOL0     H20071  10.346   2.104  11.195  1.2083 -1.7027  2.0313
  149MOL0     H20072  10.336   2.125  11.024 -1.7317  0.2771  0.9903
  149MOL0     H20073  10.562   2.044  11.006  0.0025  0.4174  0.3476
  149MOL0     H20074  10.575   2.008  11.184 -1.7089 -3.5194 -0.1928
  149MOL0     H20075  10.653   2.271  10.873 -1.0047  1.8964  0.9483
  149MOL0     H20076  10.779   2.328  10.720  0.0467  2.8125  1.2553
  149MOL0     H20077  10.946   2.383  10.749  1.4445  0.3428  4.3951
  149MOL0     H20078  10.901   2.209  10.706 -2.3984 -0.6600 -1.2048
  149MOL0     H20079  11.372   2.293  11.218  3.4350 -1.4293  0.6315
  149MOL0     H20080  11.624   2.348  11.177 -1.3412 -2.0391  0.5992
  149MOL0     H20081  11.877   2.394  10.899 -0.1760 -1.3675 -1.0041
  149MOL0     H20082  11.738   2.402  10.808 -2.6329  0.3652  1.8770
  149MOL0     H20083  11.902   2.550  10.699  2.2982  0.3385 -0.4110
  149MOL0     H20084  11.792   2.662  10.779  2.6973  1.6026 -0.9371
  149MOL0     H20085  12.063   2.576  10.871 -1.5417 -0.7687  4.1212
  149MOL0     H20086  11.954   2.633  10.987 -0.3261  3.3344  1.3906
  149MOL0     H20087  11.925   2.851  10.842  1.9739  2.2273 -3.4975
  149MOL0     H20088  12.078   2.825  10.928  2.5306 -2.9091 -0.8898
  149MOL0     H20089  12.006   2.761  10.634 -0.7702 -4.5161  2.8422
  149MOL0     H20090  12.165   2.761  10.701 -0.1592 -0.5424 -1.6191
  149MOL0     H20091  11.988   3.011  10.699 -1.3779 -3.1280  0.3304
  149MOL0     H20092  12.165   3.011  10.745  0.5999 -0.9375  0.1871
  149MOL0     H20093  12.165   3.092  10.534 -0.1503 -0.1896  2.6070
  149MOL0     H20094  12.025   2.991  10.489 -0.1767  1.3314  0.7846
  149MOL0     H20095  12.172   2.784  10.470  2.2602 -0.7898 -2.2786
  149MOL0     H20096  12.299   2.888  10.525  1.8945  0.8063 -2.9591
  149MOL0     H20097  11.502   2.584  10.841 -1.0797 -1.7032 -2.2145
  149MOL0     H20098  11.271   2.487  10.854 -0.5870 -1.7431 -0.2698
  149MOL0     H20099  11.032   2.256  11.211  1.1957  1.5940 -1.7218
  149MOL0     H20100  10.792   2.197  11.276  0.8434 -1.2812 -0.5807
  149MOL0     H20101  10.690   0.769  10.761 -0.6244  2.6182 -2.2107
  149MOL0     H20102  10.688   0.542  10.870  1.8201  1.7118 -0.9105
  149MOL0     H20103  10.895   0.072  10.730  0.6159 -0.5519  0.8156
  149MOL0     H20104  10.897  -0.177  10.823 -1.5926 -3.0848 -0.3285
  149MOL0     H20105  10.584  -0.381  10.767  0.7948 -1.6549 -0.8541
  149MOL0     H20106  10.757  -0.409  10.785  1.5987 -1.9092  2.3650
  149MOL0     H20107  10.613  -0.610  10.855 -1.9027 -1.9306  1.5972
  149MOL0     H20108  10.542  -0.508  10.975  0.2698 -1.2450  0.1464
  149MOL0     H20109  10.687  -0.653  11.078 -2.9626  1.0748 -0.4240
  149MOL0     H20110  10.756  -0.493  11.097 -3.4250  1.0011 -0.2980
  149MOL0     H20111  10.936  -0.519  10.940  1.6766 -0.9703  2.0155
  149MOL0     H20112  10.845  -0.637  10.847 -0.8622  2.8542 -1.0841
  149MOL0     H20113  11.068  -0.859  11.142 -0.7909 -0.9289  0.6613
  149MOL0     H20114  10.482  -0.137  10.892  0.9378  1.2309  1.6269
  149MOL0     H20115  10.473   0.094  10.773  0.9021  2.2736 -1.0749
  150MOL0     O20116   6.920   2.727  10.161 -0.0308 -0.1137 -0.1558
  150MOL0     C20117   6.950   2.780  10.056 -0.4879  0.3944  0.4100
  150MOL0     O20118   6.883   2.869   9.973  0.4427  0.7692  0.2715
  150MOL0     C20119   6.748   2.907   9.990  0.9219  0.0315  0.3629
  150MOL0     C20120   6.651   2.804   9.998  0.2629 -0.2084  0.9131
  150MOL0     C20121   6.516   2.836   9.996 -0.1525 -0.6760  0.4913
  150MOL0     C20122   6.479   2.969   9.975 -1.3026  0.3186  0.4001
  150MOL0     O20123   6.340   2.987   9.975 -0.5844  0.4551 -0.3853
  150MOL0     C20124   6.282   3.106   9.920  0.5700  1.3854 -0.9576
  150MOL0     C20125   6.125   3.065   9.920 -0.0829 -0.2081 -0.5250
  150MOL0     C20126   6.035   3.177   9.960  0.1117  0.7169  0.7157
  150MOL0     C20127   6.039   3.219  10.111  0.3800 -0.0020 -0.2861
  150MOL0     C20128   5.933   3.324  10.154 -0.4664  0.1762 -0.6772
  150MOL0     C20129   5.786   3.284  10.137  0.6952  0.9719 -0.5700
  150MOL0     C20130   5.751   3.137  10.189 -0.1613 -0.2504  0.3719
  150MOL0     C20131   5.602   3.110  10.162 -1.1257  0.8315  0.8705
  150MOL0     N20132   5.530   3.152  10.277  0.5830  0.6735  0.8728
  150MOL0     C20133   5.512   3.077  10.393  0.0200 -0.1470  1.1243
  150MOL0     C20134   5.416   3.144  10.464  0.2866 -0.3894  0.4159
  150MOL0     C20135   5.367   3.092  10.606 -0.7122  0.5533  0.4696
  150MOL0     C20136   5.217   3.053  10.602 -0.5085  1.0100 -0.2902
  150MOL0     C20137   5.204   2.896  10.623 -0.0359 -0.2683 -0.1961
  150MOL0     C20138   5.252   2.827  10.497  0.6043  0.9228  0.7913
  150MOL0     O20139   5.264   2.691  10.542  0.8276 -0.5249 -1.0805
  150MOL0     C20140   5.167   2.594  10.524 -0.3348  0.4007  0.1955
  150MOL0     C20141   5.157   2.497  10.617 -1.0410 -0.0345 -0.1406
  150MOL0     C20142   5.078   2.382  10.601 -0.4416 -0.4462  0.8453
  150MOL0     C20143   5.114   2.278  10.698  0.0115  0.7000  0.6000
  150MOL0     C20144   5.002   2.356  10.485 -0.0931 -0.1068 -0.3865
  150MOL0     C20145   4.930   2.223  10.466  0.0461 -0.0286 -0.7428
  150MOL0     O20146   4.837   2.186  10.557 -0.3148  0.6576 -0.0585
  150MOL0     C20147   4.798   2.055  10.549 -0.0551 -0.2477  0.5368
  150MOL0     C20148   4.664   2.010  10.522 -0.2672  0.5915 -0.4419
  150MOL0     C20149   4.633   1.877  10.491 -0.0582 -0.1129 -0.1667
  150MOL0     C20150   4.724   1.779  10.516 -0.2239 -0.7653  0.0740
  150MOL0     O20151   4.688   1.652  10.488 -0.5415  0.0111 -0.0246
  150MOL0     C20152   4.747   1.538  10.549  0.3434 -0.3628  1.0148
  150MOL0     C20153   4.656   1.415  10.539 -0.6117  0.5029 -0.2570
  150MOL0     C20154   4.594   1.388  10.399 -0.0230  0.3864 -0.0291
  150MOL0     C20155   4.532   1.243  10.395 -0.5542  0.0896 -0.6309
  150MOL0     C20156   4.548   1.171  10.265  0.6766 -0.0273  0.4270
  150MOL0     C20157   4.693   1.146  10.226 -0.3910 -0.2381 -0.5863
  150MOL0     C20158   4.753   1.022  10.305 -1.2340  0.3398  0.8214
  150MOL0     C20159   4.908   1.022  10.284  0.1787  0.1238  0.7688
  150MOL0    Cl20160   4.981   0.881  10.359 -0.3334  0.3177 -0.0871
  150MOL0     C20161   4.851   1.809  10.564 -0.8529  0.4992 -0.5824
  150MOL0     C20162   4.881   1.950  10.582 -0.4409  0.2892 -0.4834
  150MOL0     O20163   4.958   2.158  10.367 -0.2513  0.0429  0.3927
  150MOL0     C20164   5.017   2.453  10.383  0.2246 -0.4640 -0.5747
  150MOL0     C20165   5.098   2.570  10.405  0.3099 -0.1399 -0.0977
  150MOL0     N20166   5.387   3.254  10.394  0.2177  0.8213 -0.6875
  150MOL0     N20167   5.439   3.256  10.281 -0.1529  0.5697 -0.5549
  150MOL0     C20168   6.572   3.072   9.966 -0.7112 -0.4327  0.5703
  150MOL0     C20169   6.709   3.043   9.974 -0.4900  0.0012  0.2782
  150MOL0     C20170   7.082   2.747  10.008 -0.0607  0.3269  0.5428
  150MOL0     C20171   7.124   2.780   9.878 -0.4856 -0.5686 -0.1345
  150MOL0     C20172   7.244   2.736   9.819 -0.3760 -0.5323  0.3070
  150MOL0     C20173   7.322   2.642   9.894 -0.7718 -0.9625  0.2553
  150MOL0     O20174   7.437   2.583   9.848 -0.1776  0.3352 -0.0121
  150MOL0     C20175   7.451   2.536   9.718 -0.1680  0.2046  0.6151
  150MOL0     C20176   7.550   2.421   9.732  0.9607  0.4127  0.3356
  150MOL0     C20177   7.519   2.295   9.649  0.0726 -0.2358  0.4608
  150MOL0     C20178   7.588   2.169   9.694  0.5848 -0.0872  0.3062
  150MOL0     C20179   7.728   2.188   9.729  0.2148  0.2500  1.1912
  150MOL0     C20180   7.849   2.207   9.744  0.3264  0.6346 -0.1631
  150MOL0     C20181   7.293   2.621  10.032  1.2085  0.5258  0.0921
  150MOL0     C20182   7.172   2.670  10.082  0.4212  0.8290  0.0009
  150MOL0     H20183   6.674   2.698  10.003  1.1869  0.0224  3.7809
  150MOL0     H20184   6.445   2.754  10.005  2.9328 -3.3990  1.9477
  150MOL0     H20185   6.298   3.176  10.003 -1.3361  0.0484  0.6466
  150MOL0     H20186   6.319   3.129   9.820 -1.8163 -1.3968 -2.6441
  150MOL0     H20187   6.093   3.039   9.819 -1.0158 -0.5751 -0.1473
  150MOL0     H20188   6.101   2.973   9.974 -2.6981 -0.4158 -1.8818
  150MOL0     H20189   6.050   3.268   9.903  2.5272  2.2041  3.4553
  150MOL0     H20190   5.938   3.132   9.934  0.4062  0.8339 -0.6703
  150MOL0     H20191   6.028   3.132  10.175 -0.9836  0.5428  0.2658
  150MOL0     H20192   6.137   3.266  10.121 -0.5455  1.9090  0.2938
  150MOL0     H20193   5.949   3.349  10.259  2.8917  2.9632 -1.6588
  150MOL0     H20194   5.946   3.418  10.099  1.7962  0.3627  0.1073
  150MOL0     H20195   5.730   3.358  10.195  1.9951  0.6174  1.2253
  150MOL0     H20196   5.740   3.294  10.038 -1.3743 -3.7581 -0.3805
  150MOL0     H20197   5.812   3.059  10.143  0.2423  0.8290 -1.0182
  150MOL0     H20198   5.776   3.129  10.295  3.3742 -0.8509 -0.3930
  150MOL0     H20199   5.586   3.004  10.138  3.8694  0.4327 -2.1443
  150MOL0     H20200   5.563   3.170  10.080 -1.4528 -2.9195 -2.0308
  150MOL0     H20201   5.558   2.984  10.423  0.5762 -0.3866 -0.3468
  150MOL0     H20202   5.423   3.009  10.649 -3.8285 -2.0261 -0.0449
  150MOL0     H20203   5.370   3.181  10.669 -4.0918  0.9378  0.2752
  150MOL0     H20204   5.164   3.074  10.509 -1.9688  0.6810  0.4326
  150MOL0     H20205   5.159   3.104  10.680 -1.3796 -1.0301  0.4739
  150MOL0     H20206   5.098   2.870  10.634 -0.1772  1.0548  2.9092
  150MOL0     H20207   5.248   2.852  10.713 -0.4202 -0.1471  0.0573
  150MOL0     H20208   5.346   2.860  10.450 -0.5961  1.8073 -1.1207
  150MOL0     H20209   5.175   2.840  10.420  0.9233 -0.6482  0.1653
  150MOL0     H20210   5.218   2.513  10.705 -0.9655  0.9961 -0.3709
  150MOL0     H20211   5.104   2.314  10.801 -2.3105 -3.4335  2.0753
  150MOL0     H20212   5.051   2.189  10.688 -0.7112  1.4017 -1.8513
  150MOL0     H20213   5.214   2.246  10.670 -0.4296  1.0614 -1.5306
  150MOL0     H20214   4.574   2.071  10.509 -1.6457 -0.6683  2.4413
  150MOL0     H20215   4.533   1.845  10.463  1.1989 -1.9830 -2.9229
  150MOL0     H20216   4.835   1.528  10.485 -0.2182 -3.0058  0.5418
  150MOL0     H20217   4.770   1.552  10.655  0.7947 -0.3823  0.9211
  150MOL0     H20218   4.723   1.338  10.579  1.8151  2.9902  0.7290
  150MOL0     H20219   4.568   1.417  10.604 -0.1407  0.5999  0.3733
  150MOL0     H20220   4.664   1.407  10.317 -0.2119 -2.2930 -0.9054
  150MOL0     H20221   4.510   1.454  10.378 -2.5384 -0.9730  4.4875
  150MOL0     H20222   4.579   1.180  10.472 -0.6493 -1.9680 -2.1645
  150MOL0     H20223   4.423   1.237  10.403 -0.7027  2.8846  0.3768
  150MOL0     H20224   4.502   1.242  10.195 -3.1632 -1.4376  1.2805
  150MOL0     H20225   4.479   1.089  10.244 -1.7818  2.5647 -2.6772
  150MOL0     H20226   4.695   1.135  10.117 -2.5880  2.1369 -0.9627
  150MOL0     H20227   4.758   1.229  10.253  0.4467 -0.9724 -0.2876
  150MOL0     H20228   4.691   0.935  10.282 -5.0987  3.2350 -0.9362
  150MOL0     H20229   4.750   1.045  10.412  1.1024  0.2530  0.9478
  150MOL0     H20230   4.943   1.117  10.327 -0.8035  0.8819 -0.0779
  150MOL0     H20231   4.936   1.026  10.179 -1.1871  3.2293  0.4235
  150MOL0     H20232   4.927   1.737  10.593  0.5940  1.9126 -0.7345
  150MOL0     H20233   4.974   1.963  10.635 -1.8230  0.4949  2.0711
  150MOL0     H20234   4.956   2.442  10.294 -0.7115 -1.8705  0.2092
  150MOL0     H20235   5.108   2.643  10.325  2.6066  2.6959  2.5091
  150MOL0     H20236   6.543   3.176   9.973  0.6031 -0.1516  2.6054
  150MOL0     H20237   6.778   3.127   9.974 -0.9064  0.3803 -1.2320
  150MOL0     H20238   7.059   2.831   9.807  1.4439 -1.2874 -2.5547
  150MOL0     H20239   7.279   2.758   9.718 -2.4487  0.2760 -0.2772
  150MOL0     H20240   7.357   2.489   9.687  0.4394 -1.8240  1.6219
  150MOL0     H20241   7.490   2.610   9.648  2.5604 -2.5329 -1.0515
  150MOL0     H20242   7.554   2.384   9.835 -1.3539 -0.5329  0.1557
  150MOL0     H20243   7.649   2.463   9.713  1.4481 -0.6319  0.5143
  150MOL0     H20244   7.536   2.310   9.542  1.9852 -1.3300  0.5500
  150MOL0     H20245   7.412   2.276   9.662  0.3371 -0.6555  2.3592
  150MOL0     H20246   7.594   2.111   9.602  0.6473 -0.7564  0.7307
  150MOL0     H20247   7.527   2.118   9.769 -0.4054 -0.2465 -0.5773
  150MOL0     H20248   7.956   2.210   9.758  0.0526  0.4898  2.5256
  150MOL0     H20249   7.355   2.553  10.089 -1.7000 -1.7863  0.7321
  150MOL0     H20250   7.144   2.631  10.180  2.1246 -2.5785 -0.7286
  151MOL0     O20251   1.768  10.574   5.144 -0.7408 -0.4113  0.0652
  151MOL0     C20252   1.777  10.547   5.261  0.0196  0.1698  0.8714
  151MOL0     O20253   1.874  10.461   5.315 -0.2767 -0.3653  0.4437
  151MOL0     C20254   1.952  10.370   5.240  0.2909 -0.3866 -0.0298
  151MOL0     C20255   1.897  10.289   5.141  0.0478  0.2678  0.7792
  151MOL0     C20256   1.961  10.181   5.086  0.1789  0.8233 -0.9006
  151MOL0     C20257   2.097  10.156   5.117  0.2131  0.6954  0.9398
  151MOL0     O20258   2.175  10.054   5.078  0.4434  0.2259  0.3352
  151MOL0     C20259   2.150   9.990   4.948  0.1738 -0.2258 -0.1123
  151MOL0     C20260   2.057   9.872   4.968 -0.0213  0.0720 -0.0669
  151MOL0     C20261   2.006   9.826   4.836 -0.4212  0.5558 -0.2132
  151MOL0     C20262   1.892   9.729   4.858  0.1751 -0.5875 -0.6265
  151MOL0     C20263   1.858   9.671   4.726  1.1988 -0.0424  0.3436
  151MOL0     C20264   1.707   9.625   4.726 -0.7994 -0.1303 -0.9454
  151MOL0     C20265   1.654   9.593   4.585 -0.7918  0.5556 -0.0560
  151MOL0     C20266   1.628   9.715   4.492  0.2603  0.3203 -0.3539
  151MOL0     N20267   1.515   9.789   4.549 -0.3081  0.4468  0.0568
  151MOL0     C20268   1.380   9.756   4.532 -0.3892 -0.7133 -0.3360
  151MOL0     C20269   1.311   9.862   4.591 -0.3173  0.0088 -0.3337
  151MOL0     C20270   1.158   9.858   4.600  0.0367 -0.3745 -0.3283
  151MOL0     C20271   1.122   9.885   4.747  0.8671  0.5729  0.1161
  151MOL0     C20272   1.142   9.748   4.825  0.1986  0.1538  0.1371
  151MOL0     C20273   1.044   9.739   4.948  0.2132 -0.1964 -0.2721
  151MOL0     O20274   0.906   9.744   4.905 -0.2923 -0.3369 -0.2720
  151MOL0     C20275   0.819   9.770   5.010  0.3906 -0.0957  0.0447
  151MOL0     C20276   0.842   9.816   5.146  0.4247  0.0218  0.3854
  151MOL0     C20277   0.750   9.789   5.248 -0.2966 -0.4160  0.8027
  151MOL0     C20278   0.775   9.856   5.382  1.0088  0.6359  0.9558
  151MOL0     C20279   0.621   9.743   5.213  0.2922 -0.7173  0.1185
  151MOL0     C20280   0.500   9.721   5.305  0.2201 -0.1622  0.3774
  151MOL0     O20281   0.383   9.679   5.244  0.1640  0.8462 -0.0200
  151MOL0     C20282   0.284   9.640   5.330  0.3816 -0.7492 -0.1097
  151MOL0     C20283   0.302   9.530   5.424  0.2740 -0.0200  0.0092
  151MOL0     C20284   0.184   9.485   5.476  0.7107 -0.0597 -0.7210
  151MOL0     C20285   0.050   9.534   5.435  0.5972 -0.9716 -0.5302
  151MOL0     O20286  -0.073   9.476   5.468 -0.1413  0.6261  0.3961
  151MOL0     C20287  -0.162   9.548   5.551  0.2701  0.5908  0.5232
  151MOL0     C20288  -0.298   9.512   5.501 -0.7451  0.3478  0.5511
  151MOL0     C20289  -0.412   9.595   5.566 -0.3437  0.3696  0.0109
  151MOL0     C20290  -0.539   9.521   5.505  1.9576 -0.8439 -0.0347
  151MOL0     C20291  -0.673   9.560   5.571  0.4576 -0.1074 -0.5221
  151MOL0     C20292  -0.786   9.460   5.523  0.0379  0.0700  0.0806
  151MOL0     C20293  -0.911   9.514   5.578 -0.1786 -0.3802 -0.1837
  151MOL0     C20294  -1.030   9.446   5.517  0.3022  0.5302  0.4515
  151MOL0    Cl20295  -1.041   9.271   5.553  0.4474 -0.2680  0.0208
  151MOL0     C20296   0.041   9.640   5.341  0.2044 -0.1504  1.0514
  151MOL0     C20297   0.162   9.692   5.290 -0.3994 -0.5570 -0.0921
  151MOL0     O20298   0.522   9.728   5.426 -0.2755 -0.7633  0.3775
  151MOL0     C20299   0.600   9.703   5.081 -0.4048 -0.2082 -1.0893
  151MOL0     C20300   0.700   9.713   4.983 -1.3823 -0.0290 -0.3293
  151MOL0     N20301   1.412   9.955   4.645  0.5498  0.2105 -0.2062
  151MOL0     N20302   1.521   9.914   4.612 -0.1245  0.0560 -0.2844
  151MOL0     C20303   2.158  10.239   5.208 -0.6062  0.1525 -0.1253
  151MOL0     C20304   2.083  10.336   5.279  0.5380 -0.3893 -0.1554
  151MOL0     C20305   1.677  10.605   5.353  0.7919  0.5033 -0.5306
  151MOL0     C20306   1.691  10.587   5.494 -1.0080 -1.3611  0.1402
  151MOL0     C20307   1.598  10.645   5.581  0.6253  0.0674 -0.2425
  151MOL0     C20308   1.472  10.675   5.531  0.7167 -0.4380  0.1992
  151MOL0     O20309   1.376  10.704   5.627  0.5823 -0.4012  0.4101
  151MOL0     C20310   1.259  10.618   5.615  0.1959 -0.1249 -0.1692
  151MOL0     C20311   1.161  10.648   5.734  0.1059  0.2523  0.0042
  151MOL0     C20312   1.026  10.568   5.721 -0.3265 -0.1124 -0.0887
  151MOL0     C20313   0.898  10.637   5.746  0.5811  0.4273  0.3490
  151MOL0     C20314   0.865  10.660   5.888  0.6103 -0.7012 -0.4434
  151MOL0     C20315   0.854  10.670   6.011 -0.7310 -0.3417 -0.7843
  151MOL0     C20316   1.451  10.682   5.391  0.9297 -0.4565 -0.0013
  151MOL0     C20317   1.557  10.648   5.309  0.6288  0.8547  0.0875
  151MOL0     H20318   1.790  10.305   5.126  0.1746 -1.8705 -4.6377
  151MOL0     H20319   1.919  10.111   5.014  0.3431 -1.0518  0.7311
  151MOL0     H20320   2.107  10.062   4.878  0.9691 -1.0931 -1.5478
  151MOL0     H20321   2.239   9.948   4.900 -0.2921 -0.2591 -0.9603
  151MOL0     H20322   2.125   9.798   5.011  2.8865  0.5656 -3.4266
  151MOL0     H20323   1.973   9.903   5.032 -2.0286 -0.5351 -2.2567
  151MOL0     H20324   1.977   9.914   4.777  1.1603  0.4873 -1.1250
  151MOL0     H20325   2.080   9.767   4.783  1.2680 -0.2432  2.8011
  151MOL0     H20326   1.926   9.650   4.925  2.0000  0.7055  0.0579
  151MOL0     H20327   1.812   9.785   4.908  1.9803  0.7411  0.9249
  151MOL0     H20328   1.861   9.749   4.650  2.3815 -0.7273 -0.3384
  151MOL0     H20329   1.933   9.592   4.714 -0.1648 -1.7580  2.3542
  151MOL0     H20330   1.724   9.527   4.772  2.1443  0.9911  0.6180
  151MOL0     H20331   1.635   9.684   4.782  0.9688  0.9040  0.3506
  151MOL0     H20332   1.721   9.532   4.524 -2.8143 -0.7099 -1.1035
  151MOL0     H20333   1.561   9.537   4.593  0.2200 -1.1356  0.5388
  151MOL0     H20334   1.599   9.685   4.391 -0.3043 -0.6699  0.0840
  151MOL0     H20335   1.722   9.771   4.490  1.4442 -1.5866 -2.2084
  151MOL0     H20336   1.336   9.666   4.491 -0.0646  0.3467 -3.2558
  151MOL0     H20337   1.127   9.942   4.537  3.7976 -0.8917 -3.2377
  151MOL0     H20338   1.108   9.770   4.558  1.2926 -0.0371 -2.7100
  151MOL0     H20339   1.016   9.909   4.741 -0.2428 -3.6307 -0.1261
  151MOL0     H20340   1.176   9.966   4.798  0.1035 -0.2845  2.4497
  151MOL0     H20341   1.238   9.738   4.875 -0.2169  1.7918  1.3417
  151MOL0     H20342   1.117   9.666   4.757  1.2308 -0.7105  0.7736
  151MOL0     H20343   1.071   9.815   5.022 -1.3157 -0.5285  0.6781
  151MOL0     H20344   1.049   9.647   5.009 -1.7537  0.5439  1.1208
  151MOL0     H20345   0.932   9.874   5.163  2.3020 -2.7052  0.3942
  151MOL0     H20346   0.858   9.926   5.374  1.0730  0.5728  1.0764
  151MOL0     H20347   0.688   9.914   5.414 -0.0776 -0.7514  0.6466
  151MOL0     H20348   0.796   9.774   5.452 -0.9365 -2.1543 -1.4494
  151MOL0     H20349   0.392   9.471   5.434 -1.8577 -3.3455  1.3452
  151MOL0     H20350   0.185   9.387   5.524  1.6340  0.0639 -0.4768
  151MOL0     H20351  -0.149   9.515   5.655 -0.6161 -4.1308 -0.6039
  151MOL0     H20352  -0.150   9.656   5.554  0.0447  0.6417  3.7837
  151MOL0     H20353  -0.316   9.521   5.393  0.2608  0.7115  0.3997
  151MOL0     H20354  -0.304   9.405   5.521 -2.3473 -0.1286 -1.9144
  151MOL0     H20355  -0.417   9.701   5.539  1.9106  0.3053 -0.7972
  151MOL0     H20356  -0.406   9.588   5.675  2.4456  0.2455 -0.0878
  151MOL0     H20357  -0.556   9.536   5.398  2.2380  1.1877  0.1529
  151MOL0     H20358  -0.533   9.415   5.528  0.8880 -0.9079 -0.0242
  151MOL0     H20359  -0.707   9.661   5.547 -2.5483 -1.0657 -0.7646
  151MOL0     H20360  -0.672   9.560   5.680  3.8828  0.1064 -0.4558
  151MOL0     H20361  -0.791   9.462   5.413 -1.3828  2.0376  0.1341
  151MOL0     H20362  -0.773   9.354   5.546 -3.3183 -0.5215 -0.2065
  151MOL0     H20363  -0.921   9.623   5.573 -0.2384 -0.3048  1.2167
  151MOL0     H20364  -0.914   9.496   5.686 -1.8632  0.0746 -0.1268
  151MOL0     H20365  -1.044   9.462   5.410  3.0510  0.5926  0.0384
  151MOL0     H20366  -1.120   9.483   5.568  0.1319  1.3027 -0.3782
  151MOL0     H20367  -0.059   9.667   5.309 -0.1312  0.1955  2.2971
  151MOL0     H20368   0.154   9.774   5.219  0.0266 -0.5571 -0.1433
  151MOL0     H20369   0.514   9.646   5.050 -0.8497  0.1621 -0.5462
  151MOL0     H20370   0.694   9.666   4.885 -0.2620  0.3673 -0.5930
  151MOL0     H20371   2.257  10.215   5.244 -1.1145  1.7186  2.5915
  151MOL0     H20372   2.112  10.374   5.376 -0.6200 -0.2259  0.1412
  151MOL0     H20373   1.786  10.549   5.530 -0.9009 -2.2532 -1.0451
  151MOL0     H20374   1.610  10.641   5.689 -1.5230  2.1474  0.1580
  151MOL0     H20375   1.209  10.638   5.520  0.8631 -0.3150 -0.5725
  151MOL0     H20376   1.289  10.512   5.616 -0.3895 -0.2951  0.5053
  151MOL0     H20377   1.147  10.756   5.736 -1.1460  0.1572  3.6145
  151MOL0     H20378   1.204  10.626   5.832 -0.2767  0.4581  0.2189
  151MOL0     H20379   1.037  10.482   5.788  1.8340 -0.2955 -0.6018
  151MOL0     H20380   1.030  10.527   5.619  0.7567  1.3680 -0.6786
  151MOL0     H20381   0.816  10.573   5.711 -0.7713  0.6408  2.9063
  151MOL0     H20382   0.896  10.731   5.690  0.6946  0.1213 -0.1757
  151MOL0     H20383   0.851  10.684   6.117 -2.5142  0.5132 -0.8972
  151MOL0     H20384   1.355  10.725   5.364  2.2751  3.1551  0.3883
  151MOL0     H20385   1.531  10.646   5.204 -0.3744  0.3313  0.3388
  152MOL0     O20386   2.822   7.600   0.200 -0.1490 -0.9188 -0.1050
  152MOL0     C20387   2.867   7.492   0.232  0.6273  0.5871  0.2258
  152MOL0     O20388   2.836   7.423   0.343 -0.1127 -0.0073  0.0645
  152MOL0     C20389   2.764   7.475   0.441  0.1088 -0.0223 -0.1732
  152MOL0     C20390   2.829   7.523   0.555  0.6392  0.0548  0.1644
  152MOL0     C20391   2.748   7.576   0.654  0.9525 -0.8673 -0.2216
  152MOL0     C20392   2.610   7.565   0.657  0.4306  0.0504  0.4458
  152MOL0     O20393   2.533   7.594   0.764  0.0839  0.2006  0.0552
  152MOL0     C20394   2.384   7.577   0.762 -0.7405 -1.0299  0.2112
  152MOL0     C20395   2.323   7.599   0.908 -0.2930  1.1675  0.0744
  152MOL0     C20396   2.345   7.739   0.957  0.1691  0.1258 -0.7211
  152MOL0     C20397   2.231   7.834   0.900  0.3989  0.5145  0.0542
  152MOL0     C20398   2.240   7.980   0.962 -0.3054 -0.6761  0.2895
  152MOL0     C20399   2.130   8.071   0.908  0.3380  0.6277 -0.0737
  152MOL0     C20400   2.023   8.082   1.016 -0.3156  0.9862  0.3969
  152MOL0     C20401   1.933   8.195   0.979  0.7279  0.0567 -0.8751
  152MOL0     N20402   1.983   8.328   1.011 -0.5836  0.0899  0.0812
  152MOL0     C20403   2.042   8.408   0.913  0.1132  0.0419  0.2837
  152MOL0     C20404   2.072   8.521   0.990  0.6590  0.3712 -1.0053
  152MOL0     C20405   2.145   8.635   0.924 -0.0588  0.7634  0.3322
  152MOL0     C20406   2.274   8.671   0.992 -0.6253 -0.4158 -0.7496
  152MOL0     C20407   2.340   8.776   0.905 -0.3259 -0.9906  0.9187
  152MOL0     C20408   2.487   8.805   0.945 -0.1954 -0.1975 -1.0230
  152MOL0     O20409   2.502   8.843   1.077 -0.1326 -0.4270 -0.0535
  152MOL0     C20410   2.627   8.842   1.127  0.1693 -0.0745 -0.0310
  152MOL0     C20411   2.742   8.819   1.050 -0.5953 -0.1318 -0.0384
  152MOL0     C20412   2.870   8.806   1.112  0.2870 -0.1821 -1.4036
  152MOL0     C20413   2.989   8.765   1.039 -0.0143 -0.4842 -0.5620
  152MOL0     C20414   2.875   8.808   1.258 -0.2947 -0.3821  0.3606
  152MOL0     C20415   2.990   8.811   1.344 -0.2578  0.4143 -1.0930
  152MOL0     O20416   3.106   8.861   1.286 -0.1406  0.9760  0.8493
  152MOL0     C20417   3.231   8.885   1.350  0.1647  0.8713 -0.8626
  152MOL0     C20418   3.239   8.934   1.482  0.5589 -0.0433 -0.2079
  152MOL0     C20419   3.370   8.933   1.544  0.3807 -0.2884  0.1652
  152MOL0     C20420   3.480   8.878   1.480 -0.1818 -0.5710 -0.8875
  152MOL0     O20421   3.598   8.865   1.559  0.0159 -0.1096  0.1233
  152MOL0     C20422   3.713   8.910   1.493 -0.6922  1.1368 -0.5092
  152MOL0     C20423   3.836   8.901   1.579  0.0599 -0.2207  0.7767
  152MOL0     C20424   3.957   8.996   1.536  0.0973 -0.0195  0.0126
  152MOL0     C20425   4.078   8.964   1.627  0.7170  0.7902 -0.3321
  152MOL0     C20426   4.211   9.029   1.575  0.2765 -0.2206  0.7142
  152MOL0     C20427   4.313   9.037   1.694  0.6473  0.0168 -0.0193
  152MOL0     C20428   4.451   9.066   1.644  0.6190 -0.8032 -0.2851
  152MOL0     C20429   4.569   9.064   1.737 -0.1927  0.3235  0.1880
  152MOL0    Cl20430   4.702   9.174   1.679  0.1205 -0.0935 -0.2055
  152MOL0     C20431   3.465   8.837   1.348  0.2483  0.0608  0.9531
  152MOL0     C20432   3.342   8.839   1.284 -0.4579  0.7007  0.1078
  152MOL0     O20433   2.977   8.783   1.465  0.2272 -0.4945  0.2526
  152MOL0     C20434   2.752   8.828   1.324  0.0718  0.7446  0.4946
  152MOL0     C20435   2.635   8.847   1.257 -0.8130 -1.2824  0.3947
  152MOL0     N20436   2.024   8.506   1.116  0.1852  0.6545  0.1064
  152MOL0     N20437   1.971   8.391   1.134 -0.4010  0.2265 -0.4869
  152MOL0     C20438   2.546   7.510   0.540 -0.6512 -0.4979 -0.6204
  152MOL0     C20439   2.624   7.472   0.438 -0.7349  0.5875  0.3443
  152MOL0     C20440   2.961   7.416   0.144  0.9935 -0.6382  0.1542
  152MOL0     C20441   2.959   7.279   0.139 -0.3098  0.4466  0.0549
  152MOL0     C20442   3.062   7.213   0.072  0.1751  0.6721 -1.0982
  152MOL0     C20443   3.147   7.283  -0.009 -1.2036  0.8279  0.9307
  152MOL0     O20444   3.245   7.214  -0.069 -1.0118 -0.8481 -0.3144
  152MOL0     C20445   3.211   7.118  -0.165  0.5282 -0.5299  0.5618
  152MOL0     C20446   3.097   7.162  -0.256  0.6285 -0.2521 -0.7172
  152MOL0     C20447   3.126   7.295  -0.335  0.2007 -0.2313  0.0423
  152MOL0     C20448   3.229   7.275  -0.446  0.2717  0.0353 -0.4646
  152MOL0     C20449   3.275   7.400  -0.508  0.0726  0.8130 -0.0450
  152MOL0     C20450   3.298   7.505  -0.553 -0.1483 -0.5597  0.3882
  152MOL0     C20451   3.148   7.420  -0.007 -0.3336 -0.0463  0.5977
  152MOL0     C20452   3.057   7.481   0.063 -0.0250  0.1841 -1.2832
  152MOL0     H20453   2.936   7.529   0.539  0.5494 -3.4036 -3.4462
  152MOL0     H20454   2.799   7.627   0.736  0.0125  2.1932 -1.4184
  152MOL0     H20455   2.349   7.649   0.688  0.6476  0.8475  1.2740
  152MOL0     H20456   2.354   7.476   0.733  1.9624 -1.9104  0.2115
  152MOL0     H20457   2.219   7.567   0.919  0.6277 -3.5262 -2.3608
  152MOL0     H20458   2.391   7.536   0.966  0.3609  1.8589  0.0747
  152MOL0     H20459   2.352   7.725   1.065  0.3420 -4.2609 -1.0990
  152MOL0     H20460   2.437   7.782   0.917  0.1688  2.6145  1.6727
  152MOL0     H20461   2.234   7.828   0.791  0.3399 -1.4472  0.1275
  152MOL0     H20462   2.131   7.799   0.928  0.1532  2.3770  1.7634
  152MOL0     H20463   2.243   7.985   1.071  0.5540 -0.3052  0.2543
  152MOL0     H20464   2.334   8.019   0.923 -0.3967 -1.2002 -0.4826
  152MOL0     H20465   2.174   8.171   0.900  1.0943  0.2087 -1.6174
  152MOL0     H20466   2.098   8.032   0.811  0.7739 -0.7541  0.3245
  152MOL0     H20467   1.964   7.991   1.023 -0.3800  1.1162  1.7774
  152MOL0     H20468   2.056   8.102   1.118  1.5251  1.7840 -0.3020
  152MOL0     H20469   1.842   8.182   1.038  0.0550 -3.0111 -2.3456
  152MOL0     H20470   1.903   8.197   0.874 -3.0470 -2.0019 -0.0393
  152MOL0     H20471   2.082   8.388   0.814  2.0026  4.0419  0.0111
  152MOL0     H20472   2.172   8.616   0.820  0.5562 -1.6162  0.8705
  152MOL0     H20473   2.075   8.719   0.933 -1.0535 -0.0789  0.6118
  152MOL0     H20474   2.336   8.583   1.012  3.2992  2.6741  2.4603
  152MOL0     H20475   2.243   8.721   1.084 -1.8506 -0.4411 -1.1227
  152MOL0     H20476   2.282   8.868   0.915 -1.8797 -1.9870  1.4196
  152MOL0     H20477   2.345   8.746   0.800  1.2480 -0.3111  0.7693
  152MOL0     H20478   2.530   8.889   0.890 -0.0725  1.2636  1.1966
  152MOL0     H20479   2.547   8.714   0.941  1.0462  0.3624  2.0480
  152MOL0     H20480   2.734   8.817   0.942  1.1770  0.1271 -0.2128
  152MOL0     H20481   2.946   8.732   0.944 -2.0389 -0.5919  0.3392
  152MOL0     H20482   3.042   8.860   1.026 -2.0305  0.7527 -0.0955
  152MOL0     H20483   3.042   8.683   1.087 -2.2651 -3.3847 -2.6179
  152MOL0     H20484   3.151   8.967   1.537  1.2596  0.8961  0.3789
  152MOL0     H20485   3.360   8.978   1.642 -0.9473  0.5751 -0.3464
  152MOL0     H20486   3.735   8.844   1.409  0.5851 -0.5121  1.0346
  152MOL0     H20487   3.703   9.016   1.465 -0.2464  1.2863 -0.1178
  152MOL0     H20488   3.804   8.921   1.682 -0.3874 -3.0093  1.2736
  152MOL0     H20489   3.868   8.797   1.592  1.4030  0.3669  2.8927
  152MOL0     H20490   3.945   9.102   1.558  3.7045  0.4494  0.3881
  152MOL0     H20491   3.985   8.981   1.431 -1.0031  1.1786 -0.4746
  152MOL0     H20492   4.060   8.998   1.730  1.4864 -0.2883  0.1947
  152MOL0     H20493   4.096   8.856   1.633  1.1123  0.9192  3.4134
  152MOL0     H20494   4.175   9.125   1.537 -1.8940 -1.8999 -1.8375
  152MOL0     H20495   4.261   8.978   1.492  1.9811  2.5806 -0.1115
  152MOL0     H20496   4.287   9.107   1.773  0.5695  0.2741 -0.2684
  152MOL0     H20497   4.304   8.936   1.736 -1.8155  0.7174  1.3390
  152MOL0     H20498   4.444   9.164   1.597 -0.6006 -0.1222  1.2546
  152MOL0     H20499   4.475   8.998   1.562 -0.8634 -0.8515 -0.7066
  152MOL0     H20500   4.603   8.961   1.753 -1.0082  0.0035 -0.0656
  152MOL0     H20501   4.546   9.101   1.838  1.1929  0.4289  0.4789
  152MOL0     H20502   3.540   8.780   1.293 -0.1440  0.4047  0.0506
  152MOL0     H20503   3.342   8.797   1.184 -0.4211  0.4787  0.1991
  152MOL0     H20504   2.752   8.828   1.432  3.3363 -1.7859  0.6624
  152MOL0     H20505   2.544   8.864   1.313 -2.4826 -2.5204 -1.7576
  152MOL0     H20506   2.439   7.492   0.539 -1.0683  1.4775  1.0867
  152MOL0     H20507   2.585   7.423   0.349  0.4233  0.3083 -0.0221
  152MOL0     H20508   2.877   7.232   0.192  0.6560 -0.7023  0.6055
  152MOL0     H20509   3.058   7.106   0.054 -0.2507  0.7454 -1.4277
  152MOL0     H20510   3.299   7.096  -0.225  0.5623 -1.2964  0.8882
  152MOL0     H20511   3.186   7.031  -0.104  0.5140  0.0658  1.4164
  152MOL0     H20512   3.003   7.176  -0.201  0.0477 -1.9501 -1.2232
  152MOL0     H20513   3.066   7.079  -0.320 -1.0243 -1.7121  1.7967
  152MOL0     H20514   3.148   7.373  -0.261 -2.5287  1.0526 -0.3887
  152MOL0     H20515   3.040   7.332  -0.391  2.0929  0.6325 -2.5189
  152MOL0     H20516   3.190   7.216  -0.529 -0.9439 -1.9561  1.4334
  152MOL0     H20517   3.316   7.230  -0.398  0.2746  1.1198  0.5955
  152MOL0     H20518   3.312   7.608  -0.581 -1.4108 -0.6023 -0.4826
  152MOL0     H20519   3.195   7.502  -0.061 -0.7963  0.6458  1.2212
  152MOL0     H20520   3.048   7.590   0.063 -2.5736  0.0521  0.3870
  153MOL0     O20521  10.569   7.110   8.886  0.3299  1.0930  0.2275
  153MOL0     C20522  10.634   7.190   8.809  0.6754  0.8855 -0.4442
  153MOL0     O20523  10.641   7.193   8.672  0.1474  0.5154  0.3965
  153MOL0     C20524  10.548   7.114   8.599 -0.0404 -0.3351  1.2862
  153MOL0     C20525  10.595   7.062   8.474 -0.3323  0.5291  0.5605
  153MOL0     C20526  10.516   6.975   8.401 -0.1372  0.3448  0.4840
  153MOL0     C20527  10.385   6.942   8.437  0.2443  0.0447 -0.0941
  153MOL0     O20528  10.314   6.870   8.345  0.2527  0.0054  0.0172
  153MOL0     C20529  10.189   6.818   8.395  0.1240  0.1471 -0.5390
  153MOL0     C20530  10.151   6.695   8.312  0.4051  0.0123  0.4870
  153MOL0     C20531  10.021   6.623   8.353  0.0100 -0.0770  0.7408
  153MOL0     C20532  10.009   6.584   8.504 -0.5174  0.2813  0.7754
  153MOL0     C20533   9.903   6.474   8.535 -0.0309 -1.3486  0.5884
  153MOL0     C20534   9.765   6.520   8.475 -0.9148  0.3016 -0.7617
  153MOL0     C20535   9.651   6.428   8.521  0.4619 -0.6311 -0.4274
  153MOL0     C20536   9.671   6.274   8.492  0.4759  0.2453  0.3835
  153MOL0     N20537   9.578   6.194   8.581  0.2208 -0.1736  0.3404
  153MOL0     C20538   9.488   6.098   8.529 -0.5999  0.3401  0.3017
  153MOL0     C20539   9.436   6.033   8.645  0.5050  0.4279  0.1072
  153MOL0     C20540   9.345   5.915   8.658  0.2006 -0.3825 -0.8056
  153MOL0     C20541   9.196   5.925   8.611  0.4394 -0.2174 -0.1693
  153MOL0     C20542   9.194   5.896   8.456 -0.2201 -0.1939 -0.0345
  153MOL0     C20543   9.049   5.895   8.397  0.1851  0.2117  0.3015
  153MOL0     O20544   9.033   5.765   8.328  0.0181 -0.1202 -0.0025
  153MOL0     C20545   8.990   5.659   8.392  0.1433  0.3871  1.1755
  153MOL0     C20546   9.057   5.541   8.354  0.5902 -0.1544  0.7632
  153MOL0     C20547   9.031   5.414   8.410  0.6212  0.0015  0.6423
  153MOL0     C20548   9.113   5.292   8.361 -0.2768  0.9273  0.5253
  153MOL0     C20549   8.930   5.408   8.509  0.4453  0.0950 -1.0675
  153MOL0     C20550   8.886   5.287   8.587  0.2098 -0.4456  0.0545
  153MOL0     O20551   8.793   5.307   8.673 -0.6735  1.1414 -0.0571
  153MOL0     C20552   8.765   5.205   8.761  0.1876 -0.3424  0.0516
  153MOL0     C20553   8.644   5.143   8.748  0.1619 -0.0328  0.0104
  153MOL0     C20554   8.620   5.031   8.830  1.5601  0.8273  0.5389
  153MOL0     C20555   8.714   4.972   8.919  0.5000 -0.6657  0.3440
  153MOL0     O20556   8.671   4.853   8.972  0.3255 -0.0020  0.6514
  153MOL0     C20557   8.769   4.753   9.020  0.1870 -0.2322 -0.0308
  153MOL0     C20558   8.699   4.650   9.111 -0.2765  0.2117  0.2015
  153MOL0     C20559   8.782   4.612   9.228 -0.1695  0.8129 -0.2118
  153MOL0     C20560   8.720   4.493   9.318 -0.3335 -0.3777 -1.1381
  153MOL0     C20561   8.778   4.497   9.448 -0.3337 -0.3458  0.3411
  153MOL0     C20562   8.711   4.393   9.542  0.4719 -0.3931 -0.7874
  153MOL0     C20563   8.754   4.248   9.515 -0.3357 -1.2538  0.1751
  153MOL0     C20564   8.663   4.184   9.416  0.7403 -0.1226 -0.2808
  153MOL0    Cl20565   8.674   4.005   9.452  0.1639 -0.5647  0.1330
  153MOL0     C20566   8.842   5.036   8.927 -0.3735 -1.2666 -0.3886
  153MOL0     C20567   8.866   5.154   8.848  0.0874 -0.4448 -0.4651
  153MOL0     O20568   8.929   5.178   8.551  0.7126 -0.9094 -0.5830
  153MOL0     C20569   8.867   5.525   8.546  0.0672  1.0624 -0.2123
  153MOL0     C20570   8.906   5.648   8.496 -0.5009 -0.5483 -0.5226
  153MOL0     N20571   9.509   6.087   8.750 -0.6790 -0.4863  0.1899
  153MOL0     N20572   9.594   6.174   8.710  0.3654 -0.7973 -0.5067
  153MOL0     C20573  10.344   6.994   8.566  0.3791 -0.2321  0.0943
  153MOL0     C20574  10.419   7.085   8.636  0.1662 -0.2521 -0.4909
  153MOL0     C20575  10.697   7.299   8.878  0.5821 -0.2052 -0.3737
  153MOL0     C20576  10.767   7.396   8.816  0.1341  0.6681  0.6185
  153MOL0     C20577  10.825   7.504   8.870  0.5291  0.1223 -0.8731
  153MOL0     C20578  10.829   7.496   9.019  0.0086 -0.2297 -0.1858
  153MOL0     O20579  10.888   7.600   9.077  0.0526 -0.1193  0.0116
  153MOL0     C20580  10.886   7.630   9.217 -0.4301  0.1284  0.2024
  153MOL0     C20581  10.983   7.753   9.224  1.0227  0.6086  0.2902
  153MOL0     C20582  10.989   7.798   9.369  0.1587  0.2170  0.1134
  153MOL0     C20583  10.859   7.851   9.435  0.0105  0.6324 -0.3221
  153MOL0     C20584  10.815   7.974   9.378 -0.2736  0.3514  0.4701
  153MOL0     C20585  10.770   8.072   9.319 -0.2847 -0.2768 -0.3208
  153MOL0     C20586  10.768   7.395   9.094  1.1852  0.4028  0.0291
  153MOL0     C20587  10.695   7.295   9.022  0.4384  0.1206  0.5540
  153MOL0     H20588  10.687   7.108   8.439 -1.3967  1.4321 -1.1413
  153MOL0     H20589  10.561   6.932   8.312 -1.5292 -2.5257  1.0273
  153MOL0     H20590  10.215   6.782   8.495 -1.4915  1.5694  0.4342
  153MOL0     H20591  10.110   6.893   8.396  0.0272  0.0365  0.0939
  153MOL0     H20592  10.136   6.723   8.207 -3.3247  0.8004  1.0833
  153MOL0     H20593  10.242   6.637   8.329  0.0134 -0.5258  0.7793
  153MOL0     H20594   9.941   6.694   8.330  0.8091  0.4973 -0.3389
  153MOL0     H20595   9.998   6.531   8.298 -0.5445  0.7395 -0.4360
  153MOL0     H20596  10.107   6.547   8.537  0.3500  1.6661 -0.1372
  153MOL0     H20597   9.981   6.675   8.558 -1.0278  1.0502 -0.7390
  153MOL0     H20598   9.926   6.372   8.503 -2.0500 -1.2138 -1.5331
  153MOL0     H20599   9.881   6.481   8.642  0.5209  4.8260  0.6321
  153MOL0     H20600   9.754   6.624   8.509 -0.9959  0.3148 -0.8252
  153MOL0     H20601   9.778   6.519   8.366  2.8101 -2.4656 -0.4946
  153MOL0     H20602   9.635   6.441   8.629 -2.2478 -0.5308 -0.7738
  153MOL0     H20603   9.558   6.463   8.476  0.1829 -0.1505  0.5077
  153MOL0     H20604   9.763   6.225   8.526 -1.2244 -2.2801  1.6690
  153MOL0     H20605   9.666   6.242   8.388  0.3056  3.8729 -0.8683
  153MOL0     H20606   9.473   6.064   8.426 -2.9161  0.3472  0.5791
  153MOL0     H20607   9.383   5.825   8.608 -0.1179  1.9282 -5.7781
  153MOL0     H20608   9.336   5.893   8.765  0.1559 -1.8864 -1.0848
  153MOL0     H20609   9.156   6.024   8.634  1.7227  0.1654  0.5433
  153MOL0     H20610   9.131   5.855   8.665  1.1165  0.8125  2.1358
  153MOL0     H20611   9.240   5.801   8.428 -0.8023 -0.3610 -0.4393
  153MOL0     H20612   9.249   5.978   8.409  2.0076 -1.9481 -0.6560
  153MOL0     H20613   9.037   5.969   8.318 -0.1210 -0.3113 -0.1545
  153MOL0     H20614   8.968   5.907   8.469 -0.5339 -2.2786  0.0237
  153MOL0     H20615   9.121   5.551   8.267  0.5297  4.0834  1.0172
  153MOL0     H20616   9.183   5.316   8.280 -0.2398  0.1094  0.3087
  153MOL0     H20617   9.180   5.245   8.434 -0.1481  0.1212 -0.1043
  153MOL0     H20618   9.040   5.217   8.330 -1.8320  2.3662  0.5812
  153MOL0     H20619   8.564   5.173   8.680  0.9790  0.2438 -0.8540
  153MOL0     H20620   8.526   4.976   8.827  2.7566 -1.4276  1.5655
  153MOL0     H20621   8.806   4.703   8.930 -2.1615 -1.8870 -0.1778
  153MOL0     H20622   8.841   4.806   9.082 -0.0007  1.3200 -1.0906
  153MOL0     H20623   8.604   4.693   9.146 -0.8418 -2.5122  2.4476
  153MOL0     H20624   8.669   4.564   9.050 -3.2225 -0.3162  2.1627
  153MOL0     H20625   8.809   4.706   9.276 -0.0900  1.7958 -2.0685
  153MOL0     H20626   8.884   4.584   9.198  0.4082  1.4634  1.0889
  153MOL0     H20627   8.612   4.496   9.329 -0.1464  4.2850  3.1723
  153MOL0     H20628   8.737   4.394   9.275 -1.2477 -3.0125  3.7948
  153MOL0     H20629   8.757   4.599   9.479 -1.1103 -0.0022 -1.2147
  153MOL0     H20630   8.886   4.478   9.448 -0.3934 -0.7747 -0.7105
  153MOL0     H20631   8.740   4.414   9.646 -2.0898 -1.6691  0.2841
  153MOL0     H20632   8.603   4.409   9.532  0.3481 -0.6702 -0.0052
  153MOL0     H20633   8.752   4.192   9.609 -0.6181 -0.9565  0.3466
  153MOL0     H20634   8.854   4.249   9.472  0.4520  1.9325  1.8129
  153MOL0     H20635   8.692   4.211   9.314  3.7798  2.4257  1.1084
  153MOL0     H20636   8.560   4.219   9.429  0.4395 -1.6207  1.9299
  153MOL0     H20637   8.920   4.991   8.988 -0.3315  1.8889  2.1305
  153MOL0     H20638   8.966   5.196   8.849  0.5678 -1.5476 -0.7405
  153MOL0     H20639   8.796   5.534   8.628 -2.7819  0.4084 -2.4426
  153MOL0     H20640   8.857   5.738   8.533 -0.2644 -0.4228 -0.5064
  153MOL0     H20641  10.246   6.979   8.610 -0.1788  1.5676 -0.4471
  153MOL0     H20642  10.361   7.138   8.711 -0.7363  1.5074 -2.3294
  153MOL0     H20643  10.778   7.383   8.709  1.1376 -0.9463  0.8944
  153MOL0     H20644  10.876   7.588   8.825 -0.7452  2.7307  2.1376
  153MOL0     H20645  10.788   7.662   9.254  0.5841  1.2932  2.0036
  153MOL0     H20646  10.914   7.544   9.278  0.6350  0.0579 -0.3556
  153MOL0     H20647  10.937   7.836   9.170  0.2051 -0.0439 -0.0339
  153MOL0     H20648  11.082   7.727   9.185  0.7754  0.1971 -0.0563
  153MOL0     H20649  11.066   7.876   9.378 -1.4262  1.5951  4.0067
  153MOL0     H20650  11.026   7.717   9.433 -1.0780  0.6053  1.3637
  153MOL0     H20651  10.878   7.884   9.538 -1.8668  1.4812 -0.2032
  153MOL0     H20652  10.776   7.780   9.427 -0.8292  1.5640 -0.0831
  153MOL0     H20653  10.731   8.158   9.268  1.3342  0.2829 -0.6712
  153MOL0     H20654  10.765   7.383   9.202  2.2617 -1.9432 -0.1547
  153MOL0     H20655  10.633   7.226   9.079  2.1853 -0.2008  2.1439
  154MOL0     O20656   7.901   8.705   7.430 -0.7090  0.1535 -0.4083
  154MOL0     C20657   7.963   8.775   7.347  0.0224 -0.7182 -0.2484
  154MOL0     O20658   7.910   8.837   7.240  0.8755  0.2047  0.2232
  154MOL0     C20659   7.771   8.856   7.217 -0.0742 -0.7384 -0.5161
  154MOL0     C20660   7.744   8.923   7.097 -0.2279  0.3162 -0.3541
  154MOL0     C20661   7.606   8.943   7.060 -0.1877  0.4552  0.1062
  154MOL0     C20662   7.494   8.888   7.119 -0.0490  1.1373 -0.7645
  154MOL0     O20663   7.371   8.898   7.051 -0.6690  0.2421 -0.6007
  154MOL0     C20664   7.261   8.821   7.091  0.8551  0.0384  0.8359
  154MOL0     C20665   7.142   8.858   6.999  0.0924  0.2543  0.6220
  154MOL0     C20666   7.028   8.753   7.004  0.7887  0.4552 -0.1795
  154MOL0     C20667   6.917   8.805   6.921  0.6949  0.7413  0.6250
  154MOL0     C20668   6.848   8.675   6.856 -0.2091 -1.0393 -0.8172
  154MOL0     C20669   6.773   8.599   6.966 -0.3505  0.4748  0.2903
  154MOL0     C20670   6.721   8.451   6.915  1.4127  0.6613 -0.1264
  154MOL0     C20671   6.841   8.371   6.869 -0.4115  0.7038  0.2273
  154MOL0     N20672   6.945   8.362   6.971 -0.5872  0.0973  0.8092
  154MOL0     C20673   6.912   8.342   7.106 -1.3052 -0.3094 -0.1118
  154MOL0     C20674   7.033   8.328   7.169 -0.5464 -0.1846 -0.7698
  154MOL0     C20675   7.064   8.301   7.311 -0.5044  1.1188 -0.1666
  154MOL0     C20676   7.096   8.432   7.389  0.4970 -0.4067  0.5089
  154MOL0     C20677   7.203   8.520   7.318  0.7337  0.4499  0.0196
  154MOL0     C20678   7.340   8.447   7.291 -0.4792 -0.0589 -0.5801
  154MOL0     O20679   7.407   8.379   7.398  0.4484  0.1800  0.8999
  154MOL0     C20680   7.536   8.354   7.395 -0.6435  0.1224 -0.2028
  154MOL0     C20681   7.619   8.366   7.289 -0.1942  0.3985 -0.0606
  154MOL0     C20682   7.751   8.342   7.315 -1.0649  0.1622  0.7593
  154MOL0     C20683   7.844   8.383   7.206  0.9132 -0.4741 -0.7022
  154MOL0     C20684   7.812   8.314   7.439  1.0565 -1.7019 -0.1810
  154MOL0     C20685   7.961   8.300   7.458 -0.3892 -0.2465 -0.2417
  154MOL0     O20686   8.039   8.259   7.357  1.1072 -0.2630 -0.8451
  154MOL0     C20687   8.177   8.243   7.369  1.3997 -0.0881 -0.5796
  154MOL0     C20688   8.273   8.344   7.370 -0.2905 -1.0140 -0.4871
  154MOL0     C20689   8.408   8.313   7.391  0.8406 -0.0221 -0.1039
  154MOL0     C20690   8.445   8.185   7.425 -0.1655  0.5939  0.6499
  154MOL0     O20691   8.575   8.141   7.460  0.5972 -0.5258  0.5131
  154MOL0     C20692   8.671   8.239   7.497  0.1089  0.0731 -1.0406
  154MOL0     C20693   8.635   8.301   7.626  0.8775 -0.3711  0.6446
  154MOL0     C20694   8.740   8.405   7.679  0.7521  0.5383  0.0070
  154MOL0     C20695   8.884   8.354   7.714 -0.4293  0.4270 -0.4106
  154MOL0     C20696   8.932   8.427   7.842  0.8391 -0.7256 -0.6539
  154MOL0     C20697   9.085   8.396   7.860 -0.3562  1.2863 -0.7152
  154MOL0     C20698   9.126   8.252   7.897  0.8921  0.0899  0.2395
  154MOL0     C20699   9.282   8.247   7.941 -0.3200 -0.2086  0.2739
  154MOL0    Cl20700   9.312   8.093   8.022  0.0981  0.0858 -0.4415
  154MOL0     C20701   8.354   8.085   7.408  0.7422 -0.3467  0.2647
  154MOL0     C20702   8.216   8.111   7.381 -0.0434 -0.5532  0.8183
  154MOL0     O20703   7.999   8.317   7.575  0.5448 -0.9901 -0.0470
  154MOL0     C20704   7.721   8.304   7.546 -0.1693 -0.0178  0.3882
  154MOL0     C20705   7.586   8.313   7.521  0.2772  0.4272 -0.1044
  154MOL0     N20706   7.132   8.355   7.073 -0.1472 -0.2497  0.8849
  154MOL0     N20707   7.077   8.373   6.954 -0.8849 -0.1492 -0.2872
  154MOL0     C20708   7.531   8.815   7.241 -0.1892  0.1065 -0.7398
  154MOL0     C20709   7.663   8.798   7.287  0.3246 -0.5653  0.4758
  154MOL0     C20710   8.104   8.774   7.378 -0.5882 -1.3023  0.3809
  154MOL0     C20711   8.162   8.703   7.478 -0.2503 -0.4308 -0.5622
  154MOL0     C20712   8.300   8.717   7.513 -0.0372  0.6711 -0.5248
  154MOL0     C20713   8.385   8.808   7.437 -0.4661 -0.5286 -0.3417
  154MOL0     O20714   8.515   8.808   7.455 -0.1456  0.2776  0.4184
  154MOL0     C20715   8.566   8.795   7.590  0.1240 -0.4202 -0.3320
  154MOL0     C20716   8.719   8.830   7.585 -0.5571 -0.2960  0.3720
  154MOL0     C20717   8.744   8.986   7.578  0.1711  0.2214 -1.4335
  154MOL0     C20718   8.690   9.059   7.466  0.0484  0.0373  0.5124
  154MOL0     C20719   8.722   9.198   7.459 -0.3554 -0.0829  0.9202
  154MOL0     C20720   8.731   9.318   7.460 -0.6725  0.2160  0.2672
  154MOL0     C20721   8.320   8.888   7.340 -0.3085  0.8553  0.5383
  154MOL0     C20722   8.187   8.867   7.307  0.4819 -0.7515  0.0189
  154MOL0     H20723   7.821   8.963   7.032 -0.8917 -0.1727 -1.4857
  154MOL0     H20724   7.588   9.015   6.981  1.6149  3.3611  2.1497
  154MOL0     H20725   7.292   8.717   7.080  4.2971  1.2129 -3.4492
  154MOL0     H20726   7.229   8.845   7.192  3.2784 -0.0738  1.7079
  154MOL0     H20727   7.102   8.957   7.025  0.4961  0.2567  1.2540
  154MOL0     H20728   7.170   8.865   6.894 -4.1217  0.3021 -0.6974
  154MOL0     H20729   7.065   8.658   6.965  2.8249  1.6421 -1.3328
  154MOL0     H20730   6.994   8.741   7.107  2.7420 -0.9398  0.3743
  154MOL0     H20731   6.846   8.872   6.971  0.7464  2.8752 -1.9251
  154MOL0     H20732   6.949   8.857   6.830 -1.6024  0.0982 -0.6102
  154MOL0     H20733   6.779   8.722   6.787  1.0671  1.9429 -0.2293
  154MOL0     H20734   6.926   8.611   6.814  2.1339  0.5328  0.8761
  154MOL0     H20735   6.828   8.595   7.061  0.6105  4.3516  0.0986
  154MOL0     H20736   6.681   8.651   6.994  0.7408  1.2005  2.9130
  154MOL0     H20737   6.666   8.404   6.998 -0.7244  3.6132  0.3049
  154MOL0     H20738   6.652   8.464   6.831 -1.9335 -2.4622  1.8356
  154MOL0     H20739   6.882   8.416   6.778 -1.3510 -1.2246 -1.2332
  154MOL0     H20740   6.823   8.271   6.830  1.2715  0.0710  1.0166
  154MOL0     H20741   6.820   8.321   7.159  0.1258 -1.0291  2.2283
  154MOL0     H20742   6.975   8.247   7.347 -0.2124  0.2136 -0.7644
  154MOL0     H20743   7.155   8.240   7.314 -1.1462 -0.1071 -2.5981
  154MOL0     H20744   7.120   8.420   7.495  0.2452  0.1539  0.6328
  154MOL0     H20745   7.004   8.490   7.387 -0.0015 -1.1470 -2.2060
  154MOL0     H20746   7.219   8.601   7.390 -1.9787  1.5007 -0.4140
  154MOL0     H20747   7.166   8.562   7.224 -3.0560  1.0848  1.6004
  154MOL0     H20748   7.404   8.524   7.247 -0.4816 -0.8408 -2.0111
  154MOL0     H20749   7.321   8.377   7.209  1.6563 -0.2380 -0.9757
  154MOL0     H20750   7.582   8.380   7.188  1.6718 -0.7208 -0.9590
  154MOL0     H20751   7.920   8.452   7.242  2.8574 -2.8974  0.1333
  154MOL0     H20752   7.893   8.300   7.154 -1.0824  0.0077 -3.6418
  154MOL0     H20753   7.788   8.432   7.125 -0.1010  1.1690  0.9032
  154MOL0     H20754   8.253   8.448   7.347 -0.0472 -1.4351 -2.8482
  154MOL0     H20755   8.481   8.393   7.394  0.3472  0.4153  0.6994
  154MOL0     H20756   8.771   8.193   7.489 -0.6186 -1.5697 -1.1789
  154MOL0     H20757   8.694   8.322   7.429  1.9312  0.3262 -0.1898
  154MOL0     H20758   8.535   8.342   7.608  0.6629 -2.1087 -3.0551
  154MOL0     H20759   8.628   8.224   7.704  4.4430  1.5009  3.1271
  154MOL0     H20760   8.701   8.449   7.771  2.6665 -0.6522  1.4672
  154MOL0     H20761   8.754   8.488   7.609 -1.6149 -1.0704 -2.5703
  154MOL0     H20762   8.877   8.246   7.725  2.7119  0.2928  1.8314
  154MOL0     H20763   8.940   8.385   7.625 -1.6819  1.0524 -1.0110
  154MOL0     H20764   8.871   8.401   7.928  3.3714  0.2508  1.5864
  154MOL0     H20765   8.921   8.533   7.815 -0.3218 -1.0772 -1.6644
  154MOL0     H20766   9.123   8.416   7.759 -1.6009  0.5931 -1.3338
  154MOL0     H20767   9.127   8.472   7.928 -1.6101  3.0070 -1.7794
  154MOL0     H20768   9.101   8.195   7.807 -0.7628 -0.7794  1.2042
  154MOL0     H20769   9.065   8.211   7.977  1.4152  0.8759  1.0622
  154MOL0     H20770   9.303   8.336   8.001  2.2236 -0.3127 -0.3414
  154MOL0     H20771   9.346   8.256   7.853  2.8898  3.2173  2.6229
  154MOL0     H20772   8.387   7.981   7.411 -3.1318 -1.9693 -3.4151
  154MOL0     H20773   8.145   8.032   7.358 -0.6812 -0.1460  1.3456
  154MOL0     H20774   7.744   8.258   7.641 -0.6274  2.9074  2.0659
  154MOL0     H20775   7.523   8.286   7.605  1.2689 -2.5717 -0.1976
  154MOL0     H20776   7.457   8.766   7.303  0.6531 -2.1941 -1.4563
  154MOL0     H20777   7.668   8.739   7.378  1.2479  0.0635  0.8517
  154MOL0     H20778   8.099   8.625   7.520 -1.9261 -0.6861 -3.2855
  154MOL0     H20779   8.342   8.659   7.595  0.5192  0.7321 -0.7642
  154MOL0     H20780   8.504   8.869   7.642  0.4526 -0.9431  0.8498
  154MOL0     H20781   8.556   8.697   7.639  5.0584 -1.1330 -0.2581
  154MOL0     H20782   8.765   8.792   7.493 -2.2220 -3.2114  0.6248
  154MOL0     H20783   8.771   8.789   7.672 -0.7655  1.9821  1.6545
  154MOL0     H20784   8.848   9.017   7.578 -0.5348  2.9102 -3.1893
  154MOL0     H20785   8.695   9.027   7.667  4.0132  0.2047  0.9048
  154MOL0     H20786   8.582   9.046   7.469  0.0801 -1.4730 -1.8772
  154MOL0     H20787   8.727   9.014   7.373  0.5792  1.0805  0.1970
  154MOL0     H20788   8.751   9.424   7.455 -0.6551  0.1899 -0.2582
  154MOL0     H20789   8.384   8.941   7.271  0.4259 -1.0731 -0.3394
  154MOL0     H20790   8.141   8.921   7.225  1.9448  1.0188  0.2937
  155MOL0     O20791   2.479   9.608   2.185 -0.2361 -0.4659 -0.3036
  155MOL0     C20792   2.404   9.544   2.112  0.3057 -0.5787  0.3507
  155MOL0     O20793   2.454   9.457   2.014  0.5826  0.6200 -0.3090
  155MOL0     C20794   2.573   9.404   2.044  0.0230  0.3104 -0.1478
  155MOL0     C20795   2.683   9.450   1.973 -0.1739 -0.0257  0.0933
  155MOL0     C20796   2.813   9.414   2.017 -0.6779  0.5243  0.4259
  155MOL0     C20797   2.823   9.321   2.116 -1.0280  0.1702  0.8566
  155MOL0     O20798   2.952   9.302   2.147  0.3558  0.5337 -0.1247
  155MOL0     C20799   2.983   9.230   2.268 -0.3446  0.0465 -0.1457
  155MOL0     C20800   3.135   9.258   2.288 -0.2571  0.8720 -0.4626
  155MOL0     C20801   3.219   9.172   2.388 -0.4455  0.0440  0.9579
  155MOL0     C20802   3.210   9.022   2.367  0.8110  0.5127 -0.7732
  155MOL0     C20803   3.286   8.958   2.485  0.9056  0.1452 -0.4512
  155MOL0     C20804   3.254   8.802   2.494 -0.5172  0.5842  0.5480
  155MOL0     C20805   3.356   8.709   2.575 -0.1315  0.6218  0.9923
  155MOL0     C20806   3.474   8.675   2.490  0.3731 -0.0701  0.1258
  155MOL0     N20807   3.568   8.595   2.569  0.6313  0.1467  0.3226
  155MOL0     C20808   3.556   8.463   2.558  0.7451 -0.7026 -0.2097
  155MOL0     C20809   3.614   8.412   2.669 -0.1596  0.4277  0.2378
  155MOL0     C20810   3.604   8.268   2.704 -0.2992 -0.0502  0.3381
  155MOL0     C20811   3.724   8.199   2.759 -0.7906 -0.2724  0.1966
  155MOL0     C20812   3.860   8.212   2.681 -0.5091  0.0659 -0.4094
  155MOL0     C20813   3.987   8.217   2.771 -0.4265  0.3986  0.6049
  155MOL0     O20814   4.102   8.239   2.688 -0.8739  0.1817 -0.1836
  155MOL0     C20815   4.226   8.238   2.752 -1.1165  0.5281  0.3035
  155MOL0     C20816   4.255   8.224   2.891  0.5200  0.4438  0.8480
  155MOL0     C20817   4.379   8.207   2.937  0.1777 -0.1632  0.3312
  155MOL0     C20818   4.397   8.167   3.073 -0.7034  0.0078  0.1376
  155MOL0     C20819   4.492   8.228   2.852  0.2593  0.0003  0.1848
  155MOL0     C20820   4.636   8.222   2.893 -0.1420  0.4384 -0.1602
  155MOL0     O20821   4.667   8.219   3.022 -0.4546 -0.5397 -0.0652
  155MOL0     C20822   4.798   8.238   3.069  0.4094 -0.0424  0.6874
  155MOL0     C20823   4.807   8.326   3.173  0.5870 -0.8603 -0.1208
  155MOL0     C20824   4.926   8.339   3.237  1.3668 -0.7971  0.8559
  155MOL0     C20825   5.033   8.259   3.206 -0.0198 -0.4512 -0.0347
  155MOL0     O20826   5.147   8.273   3.269  0.8043 -0.0817 -0.5060
  155MOL0     C20827   5.155   8.351   3.394 -0.0586  0.0785 -0.0721
  155MOL0     C20828   5.299   8.354   3.449 -0.4091 -0.7427 -0.4081
  155MOL0     C20829   5.310   8.461   3.567 -0.5888 -0.7479 -0.6607
  155MOL0     C20830   5.441   8.453   3.651  0.0859  0.2760  0.3016
  155MOL0     C20831   5.443   8.552   3.767 -0.2153  0.2883  0.1025
  155MOL0     C20832   5.569   8.524   3.848 -0.2654 -0.1353 -0.0368
  155MOL0     C20833   5.581   8.632   3.952  0.1681 -0.4860 -0.1901
  155MOL0     C20834   5.715   8.647   4.022 -0.1175 -0.9173  0.5738
  155MOL0    Cl20835   5.727   8.767   4.153  0.0667 -0.2376  0.0285
  155MOL0     C20836   5.025   8.160   3.111  0.5669  0.4887 -1.3547
  155MOL0     C20837   4.909   8.159   3.035 -0.3038 -0.4736 -0.6593
  155MOL0     O20838   4.721   8.229   2.804 -0.2318 -0.2359 -0.1268
  155MOL0     C20839   4.460   8.256   2.713 -0.4986  0.0258 -0.1012
  155MOL0     C20840   4.325   8.264   2.669  0.1319 -0.1029 -1.0948
  155MOL0     N20841   3.661   8.516   2.742  0.3041 -0.4260 -0.2995
  155MOL0     N20842   3.644   8.622   2.671  0.1263 -0.1476  0.6146
  155MOL0     C20843   2.715   9.271   2.181  0.6321 -0.2283  1.0033
  155MOL0     C20844   2.589   9.318   2.145  0.2727 -0.3938  0.0923
  155MOL0     C20845   2.261   9.579   2.113 -0.1251 -0.5449 -0.7284
  155MOL0     C20846   2.216   9.669   2.221  0.3694 -0.5175 -0.5591
  155MOL0     C20847   2.089   9.694   2.238  0.3974  0.3846 -0.3790
  155MOL0     C20848   1.994   9.664   2.137  0.4529  0.7561 -0.4220
  155MOL0     O20849   1.863   9.708   2.147 -0.1060  0.4079 -0.0534
  155MOL0     C20850   1.834   9.817   2.232 -0.2960 -0.4073 -0.3090
  155MOL0     C20851   1.699   9.885   2.203 -0.2359  0.7107 -0.3712
  155MOL0     C20852   1.700   9.965   2.067 -0.5738  0.3354  0.6387
  155MOL0     C20853   1.796  10.092   2.072 -0.5288  1.4971  0.4740
  155MOL0     C20854   1.730  10.198   2.146  0.5238  0.1635  0.5831
  155MOL0     C20855   1.653  10.277   2.198 -1.0744 -1.0711 -0.0064
  155MOL0     C20856   2.032   9.579   2.029 -0.1070  0.3346  0.0533
  155MOL0     C20857   2.169   9.537   2.015 -0.1743 -0.8325  0.5580
  155MOL0     H20858   2.675   9.536   1.907  2.1083 -0.6456 -1.1256
  155MOL0     H20859   2.904   9.455   1.976  0.6032 -0.5731  2.0340
  155MOL0     H20860   2.931   9.265   2.357  0.3492 -0.5352  0.5022
  155MOL0     H20861   2.953   9.125   2.258 -1.8632  0.3981  0.3452
  155MOL0     H20862   3.191   9.263   2.194 -1.6093  0.7049 -1.3139
  155MOL0     H20863   3.140   9.362   2.321  2.3335  0.2683  1.2762
  155MOL0     H20864   3.324   9.200   2.380 -0.7821  0.9398 -0.6752
  155MOL0     H20865   3.180   9.196   2.487  0.7227 -1.1463  1.7459
  155MOL0     H20866   3.105   8.990   2.359  0.5093  1.6958 -1.8114
  155MOL0     H20867   3.256   8.992   2.272  1.9222  1.5487 -0.5853
  155MOL0     H20868   3.391   8.988   2.478  1.8059 -1.7753  2.5512
  155MOL0     H20869   3.258   8.995   2.585  0.9055  1.0507 -0.7796
  155MOL0     H20870   3.155   8.785   2.538 -0.0712  1.1092  1.7972
  155MOL0     H20871   3.250   8.762   2.392 -1.4025 -1.9525  1.4956
  155MOL0     H20872   3.384   8.763   2.666  5.2542 -0.2724  0.2267
  155MOL0     H20873   3.302   8.617   2.597  0.5156  0.3149  1.3280
  155MOL0     H20874   3.524   8.763   2.449 -1.1411  0.6442 -0.2677
  155MOL0     H20875   3.447   8.625   2.396  1.7522  1.0803 -0.9209
  155MOL0     H20876   3.492   8.408   2.490  0.4652  1.2075 -1.5656
  155MOL0     H20877   3.525   8.258   2.779 -0.8118 -3.8777 -0.5042
  155MOL0     H20878   3.560   8.222   2.615 -1.9558 -1.5732  1.8623
  155MOL0     H20879   3.700   8.093   2.757 -0.5472 -0.3131 -1.1213
  155MOL0     H20880   3.733   8.230   2.864  0.7222  1.5114 -0.4023
  155MOL0     H20881   3.865   8.311   2.635 -0.7023  1.1497  1.7768
  155MOL0     H20882   3.856   8.147   2.593 -0.3358  1.4312 -1.4582
  155MOL0     H20883   3.998   8.125   2.831 -0.8207 -0.4037 -0.5269
  155MOL0     H20884   3.963   8.295   2.844  1.1503  0.6023  0.9424
  155MOL0     H20885   4.167   8.222   2.954 -0.4090  0.4099 -0.4161
  155MOL0     H20886   4.436   8.251   3.132 -1.3238 -0.5505  1.3921
  155MOL0     H20887   4.306   8.147   3.131 -1.1715 -0.2902 -0.6812
  155MOL0     H20888   4.448   8.071   3.065 -1.7499 -0.6460  0.9705
  155MOL0     H20889   4.722   8.376   3.219  1.9907  0.3752  1.2376
  155MOL0     H20890   4.919   8.395   3.330 -0.5581 -2.0163  1.4982
  155MOL0     H20891   5.135   8.455   3.365  2.0160  0.1334 -1.4871
  155MOL0     H20892   5.087   8.304   3.466  0.3678  1.7728  1.5244
  155MOL0     H20893   5.324   8.256   3.492 -0.6948 -1.1855 -1.2236
  155MOL0     H20894   5.370   8.375   3.368 -2.0339 -1.9101 -2.2470
  155MOL0     H20895   5.228   8.438   3.636 -0.4714  2.4023  0.6895
  155MOL0     H20896   5.309   8.561   3.524  1.8800 -1.4888 -2.7170
  155MOL0     H20897   5.441   8.348   3.685 -3.8960  0.4474  1.4150
  155MOL0     H20898   5.536   8.456   3.598 -0.3049 -0.0463 -0.4297
  155MOL0     H20899   5.346   8.550   3.817 -0.0388  0.0904  0.4360
  155MOL0     H20900   5.450   8.654   3.728 -1.6420  0.9009  1.3571
  155MOL0     H20901   5.566   8.427   3.898  0.9383 -0.9428 -1.4554
  155MOL0     H20902   5.665   8.521   3.795  0.0934  1.6590  0.4367
  155MOL0     H20903   5.506   8.617   4.030 -2.7684  3.5537 -1.8854
  155MOL0     H20904   5.567   8.735   3.917 -0.0704 -0.5600 -0.3195
  155MOL0     H20905   5.786   8.665   3.941 -1.5314 -1.7563 -0.9028
  155MOL0     H20906   5.740   8.543   4.048  1.2602 -1.4741 -2.5786
  155MOL0     H20907   5.105   8.087   3.100 -1.9610 -3.1081  1.5625
  155MOL0     H20908   4.911   8.093   2.949 -1.4743  0.8831 -1.7796
  155MOL0     H20909   4.534   8.255   2.633  0.2855 -0.4725  0.6103
  155MOL0     H20910   4.305   8.286   2.565 -0.8735 -2.0661 -1.3672
  155MOL0     H20911   2.714   9.200   2.264 -0.5032 -1.0836  0.2919
  155MOL0     H20912   2.501   9.292   2.204 -1.5415  1.1089 -1.7900
  155MOL0     H20913   2.287   9.723   2.283  1.4915  1.1830 -3.1672
  155MOL0     H20914   2.056   9.759   2.319  1.0696  1.0288 -0.6130
  155MOL0     H20915   1.827   9.783   2.336 -2.7599 -2.9848 -1.2196
  155MOL0     H20916   1.920   9.884   2.240 -0.0127 -0.6095 -1.4372
  155MOL0     H20917   1.663   9.946   2.286  1.3430 -2.0962  2.6343
  155MOL0     H20918   1.620   9.810   2.202  0.3874  0.0226 -1.7030
  155MOL0     H20919   1.600  10.009   2.060 -0.8222  0.1902  2.6988
  155MOL0     H20920   1.731   9.904   1.982 -2.5945  0.3500 -0.1633
  155MOL0     H20921   1.823  10.123   1.971 -1.5160  2.6374  0.5381
  155MOL0     H20922   1.890  10.075   2.125 -0.3996  2.4252  0.5491
  155MOL0     H20923   1.586  10.347   2.243  1.5245  0.0754  2.2839
  155MOL0     H20924   1.962   9.570   1.947 -2.9578 -0.5495  2.4101
  155MOL0     H20925   2.197   9.477   1.929  0.7074  2.0189 -1.2824
  156MOL0     O20926  10.657   6.865   3.225  0.2592 -0.5843  0.2101
  156MOL0     C20927  10.771   6.841   3.265  0.2587 -0.5146 -0.1640
  156MOL0     O20928  10.797   6.784   3.383 -0.2658  0.5919 -0.7061
  156MOL0     C20929  10.700   6.772   3.482 -0.0813 -0.2926  0.3015
  156MOL0     C20930  10.720   6.669   3.575 -0.1229 -1.0920  0.4587
  156MOL0     C20931  10.634   6.654   3.688 -0.4750  0.2367  0.7723
  156MOL0     C20932  10.528   6.749   3.703 -0.5934 -1.0727 -0.0978
  156MOL0     O20933  10.423   6.753   3.798  0.1579  0.0890  0.1656
  156MOL0     C20934  10.380   6.620   3.833 -0.4629  0.1202  0.4648
  156MOL0     C20935  10.254   6.614   3.932  0.0464  0.0734 -0.3444
  156MOL0     C20936  10.128   6.681   3.880 -0.4084 -0.2114 -0.2748
  156MOL0     C20937  10.010   6.642   3.958 -0.0455  0.3434  0.2258
  156MOL0     C20938   9.992   6.719   4.083  0.1680  0.4406 -0.3383
  156MOL0     C20939   9.857   6.782   4.092  0.7663  0.2884  1.2536
  156MOL0     C20940   9.820   6.828   4.229 -0.2520 -0.6966 -0.0462
  156MOL0     C20941   9.823   6.739   4.348  0.2765  0.3844  0.1756
  156MOL0     N20942   9.740   6.626   4.319  0.4139 -0.4732 -0.1464
  156MOL0     C20943   9.599   6.623   4.320  0.1177 -0.1183  0.0596
  156MOL0     C20944   9.569   6.510   4.258  0.0730 -0.3187 -0.6996
  156MOL0     C20945   9.431   6.463   4.225 -0.1557 -0.9649  0.2217
  156MOL0     C20946   9.395   6.525   4.084 -0.4849  0.7030  0.0556
  156MOL0     C20947   9.330   6.659   4.086  0.2162  0.4703 -0.1381
  156MOL0     C20948   9.291   6.691   3.944 -0.1896  0.0729  0.1891
  156MOL0     O20949   9.205   6.807   3.926  0.3510  0.1381  0.1435
  156MOL0     C20950   9.080   6.791   3.979 -0.3377  0.0517  0.1802
  156MOL0     C20951   9.000   6.897   3.983  0.6430 -0.9718  0.1991
  156MOL0     C20952   8.873   6.892   4.057 -1.5797  0.6518 -1.0635
  156MOL0     C20953   8.791   7.008   4.064  0.5435 -0.3720  1.2159
  156MOL0     C20954   8.825   6.759   4.100 -0.1427  0.3095  0.5272
  156MOL0     C20955   8.682   6.741   4.147 -0.0882 -0.1950  0.5839
  156MOL0     O20956   8.659   6.632   4.221  0.3916  0.9217 -0.1389
  156MOL0     C20957   8.528   6.612   4.265  0.2593  0.2958 -1.7693
  156MOL0     C20958   8.465   6.710   4.357 -0.9356 -0.1835  0.6395
  156MOL0     C20959   8.338   6.687   4.404  0.7935 -0.1063 -0.2321
  156MOL0     C20960   8.257   6.583   4.346 -0.7905 -0.4813  0.7337
  156MOL0     O20961   8.124   6.573   4.365 -0.2095 -0.3023  0.3566
  156MOL0     C20962   8.074   6.569   4.499  0.2553  0.2935  0.0366
  156MOL0     C20963   7.942   6.503   4.502  0.0732 -0.0585  1.5458
  156MOL0     C20964   7.876   6.539   4.629  0.3627 -0.7714 -0.1390
  156MOL0     C20965   7.891   6.429   4.737 -0.3882  0.0605  0.1588
  156MOL0     C20966   7.841   6.473   4.868  0.7366  0.9862 -0.9801
  156MOL0     C20967   7.833   6.347   4.958 -0.1613  0.2434 -0.1970
  156MOL0     C20968   7.796   6.374   5.110  0.0608 -0.6954  0.0646
  156MOL0     C20969   7.647   6.378   5.133 -0.1494  0.3987 -0.1852
  156MOL0    Cl20970   7.580   6.529   5.053 -0.1609  0.0245 -0.2815
  156MOL0     C20971   8.321   6.486   4.263  0.4907  0.1697 -0.1425
  156MOL0     C20972   8.457   6.497   4.232  0.7712 -0.2157  0.5969
  156MOL0     O20973   8.597   6.829   4.113 -0.0474  0.7570 -0.4336
  156MOL0     C20974   8.907   6.650   4.087  0.0500 -0.4859  0.3717
  156MOL0     C20975   9.032   6.667   4.032  0.6208  0.6555 -0.3447
  156MOL0     N20976   9.684   6.446   4.218  0.4677 -0.2286  0.5315
  156MOL0     N20977   9.781   6.515   4.263 -0.3156 -0.6610 -0.4784
  156MOL0     C20978  10.524   6.860   3.613  0.1876 -0.1215 -0.0315
  156MOL0     C20979  10.613   6.870   3.505  0.0960  0.1205  0.3139
  156MOL0     C20980  10.889   6.876   3.188  0.6131 -0.5981 -0.5969
  156MOL0     C20981  11.006   6.808   3.216 -0.3325 -0.1326 -0.0496
  156MOL0     C20982  11.114   6.841   3.134 -0.4679  0.2447 -0.0393
  156MOL0     C20983  11.116   6.946   3.038  0.2593 -0.5771  0.0568
  156MOL0     O20984  11.217   6.969   2.957 -0.1178  0.0224 -0.2086
  156MOL0     C20985  11.324   7.050   3.017 -0.4515 -0.7389  0.6728
  156MOL0     C20986  11.444   6.961   3.048  0.8818 -0.5490 -0.0667
  156MOL0     C20987  11.544   7.051   3.126  0.0371  0.4586 -0.2522
  156MOL0     C20988  11.581   7.188   3.065  0.0661 -0.0029 -0.0399
  156MOL0     C20989  11.696   7.260   3.125 -0.8393 -0.4589  0.2487
  156MOL0     C20990  11.786   7.321   3.194  0.7410 -0.2132  0.3586
  156MOL0     C20991  10.999   7.012   3.018  0.7428  0.4185 -0.6726
  156MOL0     C20992  10.884   6.981   3.091  0.5614  0.6195 -0.1477
  156MOL0     H20993  10.788   6.585   3.561  4.3829  2.3310 -0.4944
  156MOL0     H20994  10.632   6.575   3.762 -0.7956  0.8975  1.4777
  156MOL0     H20995  10.364   6.553   3.748  1.9416  0.8582 -0.6544
  156MOL0     H20996  10.469   6.583   3.885  0.9244  0.5805 -1.4634
  156MOL0     H20997  10.235   6.506   3.937  2.2437 -0.3523 -0.3027
  156MOL0     H20998  10.282   6.641   4.034 -1.4836 -2.7381  0.9442
  156MOL0     H20999  10.120   6.790   3.880  1.7465 -0.0125 -0.3919
  156MOL0     H21000  10.127   6.648   3.776  0.0507  0.9152 -0.6532
  156MOL0     H21001   9.925   6.645   3.889  2.4219  0.4325 -3.0662
  156MOL0     H21002  10.004   6.536   3.983 -0.5212  0.3646  0.2178
  156MOL0     H21003  10.005   6.635   4.152 -0.3420 -2.4345 -3.4766
  156MOL0     H21004  10.076   6.787   4.099  0.2267  0.8823 -2.2827
  156MOL0     H21005   9.845   6.860   4.016 -0.3754 -0.8810  0.1832
  156MOL0     H21006   9.785   6.703   4.066  2.5842 -1.7201  2.0153
  156MOL0     H21007   9.894   6.906   4.251 -1.3045  0.0608  0.9225
  156MOL0     H21008   9.725   6.882   4.239  2.0601  3.3976  2.8289
  156MOL0     H21009   9.790   6.798   4.434 -0.9112 -0.7250  0.5258
  156MOL0     H21010   9.921   6.696   4.370 -1.0547 -2.6419  0.7450
  156MOL0     H21011   9.533   6.704   4.350 -1.2977 -0.3939 -2.1036
  156MOL0     H21012   9.424   6.354   4.227 -1.0036 -0.9010  1.1225
  156MOL0     H21013   9.362   6.507   4.298  1.2660  0.2414  0.9146
  156MOL0     H21014   9.315   6.457   4.055 -0.5375 -0.0056  1.7591
  156MOL0     H21015   9.490   6.535   4.031  0.2827  3.2782  1.7529
  156MOL0     H21016   9.404   6.731   4.121  1.6571 -0.6329 -0.7944
  156MOL0     H21017   9.246   6.668   4.155 -0.4465 -1.4651 -0.6142
  156MOL0     H21018   9.242   6.610   3.888 -0.2199 -0.3715  0.8488
  156MOL0     H21019   9.380   6.711   3.882 -1.6887  1.7170 -1.5744
  156MOL0     H21020   9.026   6.992   3.938 -1.4538 -0.6333 -0.3780
  156MOL0     H21021   8.737   7.017   4.159  0.6084  0.0633  1.2148
  156MOL0     H21022   8.863   7.088   4.046  3.2349 -2.6750  1.0737
  156MOL0     H21023   8.714   6.998   3.987  0.3595  0.2804  1.3102
  156MOL0     H21024   8.527   6.796   4.384  1.0570 -1.7380  1.2778
  156MOL0     H21025   8.310   6.766   4.472 -0.7412  2.1143 -3.2259
  156MOL0     H21026   8.137   6.505   4.562 -0.0755 -1.8271 -1.6575
  156MOL0     H21027   8.065   6.676   4.520 -0.0470  0.9896 -3.1463
  156MOL0     H21028   7.882   6.535   4.416  2.5718 -1.1153 -0.7264
  156MOL0     H21029   7.963   6.396   4.496  1.7735  0.3286 -0.7940
  156MOL0     H21030   7.768   6.556   4.627  0.1604 -0.9364  3.0652
  156MOL0     H21031   7.917   6.629   4.676 -0.1051 -1.1673  1.0773
  156MOL0     H21032   7.841   6.339   4.700 -0.4175  1.1250 -2.5818
  156MOL0     H21033   7.999   6.412   4.733 -0.5274 -1.7550  2.3584
  156MOL0     H21034   7.740   6.515   4.859  0.6718  1.7639  2.2148
  156MOL0     H21035   7.913   6.537   4.919  1.6359 -1.2468  0.7399
  156MOL0     H21036   7.765   6.267   4.926  1.7130 -0.8266 -1.6954
  156MOL0     H21037   7.936   6.312   4.969 -0.0704  0.7710  0.8036
  156MOL0     H21038   7.845   6.456   5.162 -2.6847 -1.7066  4.8330
  156MOL0     H21039   7.822   6.286   5.168 -2.2767 -1.4025  0.1225
  156MOL0     H21040   7.624   6.384   5.239  0.9866 -0.5315  0.1377
  156MOL0     H21041   7.603   6.284   5.098 -0.7220 -0.5802  2.9046
  156MOL0     H21042   8.268   6.399   4.224 -2.3064  0.8887  1.7586
  156MOL0     H21043   8.510   6.429   4.166 -0.0087 -1.8763  1.6049
  156MOL0     H21044   8.882   6.552   4.129  1.2178  0.0699  2.5359
  156MOL0     H21045   9.100   6.582   4.033  1.2351  1.1342  1.0959
  156MOL0     H21046  10.452   6.928   3.656  0.0309 -0.9921  1.1651
  156MOL0     H21047  10.613   6.957   3.440  1.5228 -1.4627 -1.9218
  156MOL0     H21048  11.016   6.730   3.291 -1.3097 -0.2249  0.0025
  156MOL0     H21049  11.209   6.788   3.130 -1.7252 -2.1789  0.6457
  156MOL0     H21050  11.348   7.110   2.930  2.4839  2.6267  3.4797
  156MOL0     H21051  11.290   7.107   3.104 -0.8621 -2.4627  1.7079
  156MOL0     H21052  11.486   6.907   2.962 -1.1503  0.5890 -1.8624
  156MOL0     H21053  11.415   6.886   3.123  0.0537  0.6778  0.8769
  156MOL0     H21054  11.638   6.997   3.136 -1.2268 -1.6999  0.6555
  156MOL0     H21055  11.527   7.071   3.232  1.9378 -1.8349  0.5670
  156MOL0     H21056  11.495   7.254   3.083  0.3849 -0.5988  5.4187
  156MOL0     H21057  11.596   7.180   2.957 -0.4032  2.1816 -0.3270
  156MOL0     H21058  11.844   7.370   3.270  2.1685 -0.9118 -0.2456
  156MOL0     H21059  10.995   7.095   2.949  0.2421  0.2944 -0.7979
  156MOL0     H21060  10.790   7.029   3.066  0.4078 -0.9780 -3.1278
  157MOL0     O21061   9.870   3.556   7.763  0.1500  0.1055  0.2923
  157MOL0     C21062   9.904   3.658   7.702  0.0665 -0.0601  0.2882
  157MOL0     O21063   9.816   3.759   7.665 -0.5812  0.7877  1.4682
  157MOL0     C21064   9.709   3.783   7.745  0.0239 -0.2194 -0.9336
  157MOL0     C21065   9.583   3.735   7.718  1.2331  0.0893  0.6892
  157MOL0     C21066   9.477   3.772   7.797  0.2288  0.5327 -1.1287
  157MOL0     C21067   9.497   3.853   7.907  0.8571 -0.2962 -0.6557
  157MOL0     O21068   9.379   3.889   7.968 -0.0191  0.3381  0.6789
  157MOL0     C21069   9.385   3.966   8.091 -0.0437 -0.3555 -0.5191
  157MOL0     C21070   9.247   3.989   8.137  0.2201 -0.1284 -0.4508
  157MOL0     C21071   9.175   3.858   8.181  0.1964 -0.8521 -0.1736
  157MOL0     C21072   9.029   3.878   8.229 -0.3820  0.6136  0.0647
  157MOL0     C21073   9.034   3.968   8.348  0.9191 -0.2122  0.8186
  157MOL0     C21074   8.898   3.954   8.419 -0.7454  0.3566 -0.0637
  157MOL0     C21075   8.894   4.045   8.542  0.7661  0.1763 -0.1936
  157MOL0     C21076   8.759   4.025   8.625 -0.0139 -0.8964  0.0198
  157MOL0     N21077   8.655   4.058   8.539 -0.1481 -0.0338  0.5408
  157MOL0     C21078   8.640   4.173   8.466  0.1235 -0.3565  0.3307
  157MOL0     C21079   8.517   4.163   8.414  0.3534 -0.5915  0.3134
  157MOL0     C21080   8.454   4.258   8.331 -0.2180  0.1999 -0.9231
  157MOL0     C21081   8.385   4.364   8.420 -0.5218  0.6118  0.6052
  157MOL0     C21082   8.269   4.304   8.501  0.4573  0.1404 -0.0070
  157MOL0     C21083   8.180   4.414   8.572  0.1382  0.9322  0.0833
  157MOL0     O21084   8.106   4.356   8.679 -0.2325 -0.3302  0.4566
  157MOL0     C21085   7.971   4.320   8.673  0.3588 -0.2021  0.4566
  157MOL0     C21086   7.908   4.286   8.790  0.5098 -0.8023 -0.1311
  157MOL0     C21087   7.779   4.244   8.800 -0.0471  0.3973  0.7908
  157MOL0     C21088   7.715   4.202   8.937 -0.1716  0.1298  0.1785
  157MOL0     C21089   7.701   4.258   8.679  0.1726  0.3752  0.7574
  157MOL0     C21090   7.563   4.210   8.666  0.6022  0.1172 -0.5394
  157MOL0     O21091   7.473   4.297   8.605  0.1983  0.3636  0.0644
  157MOL0     C21092   7.352   4.244   8.594 -0.4022  0.3609  1.1333
  157MOL0     C21093   7.307   4.177   8.476 -0.1392  0.3892 -0.5033
  157MOL0     C21094   7.173   4.152   8.462  0.5875  0.0354 -0.4216
  157MOL0     C21095   7.082   4.179   8.568  0.2900  0.1026  0.2546
  157MOL0     O21096   6.947   4.170   8.530 -0.0816 -0.5683  0.0316
  157MOL0     C21097   6.848   4.136   8.627  0.6654  0.1642  0.6885
  157MOL0     C21098   6.704   4.124   8.551 -0.0265  0.0233 -0.3313
  157MOL0     C21099   6.587   4.167   8.633 -0.8742 -0.4505 -0.1783
  157MOL0     C21100   6.541   4.054   8.721 -0.0432 -0.0430 -0.6304
  157MOL0     C21101   6.405   4.078   8.801  0.7093  0.3465  0.1605
  157MOL0     C21102   6.422   4.184   8.909  0.4000 -0.4609  0.4224
  157MOL0     C21103   6.289   4.228   8.971  0.8340  0.9627  0.1136
  157MOL0     C21104   6.313   4.318   9.088 -0.1038 -0.2213  0.2805
  157MOL0    Cl21105   6.411   4.473   9.044 -0.1597  0.2307  0.5020
  157MOL0     C21106   7.128   4.222   8.689 -0.2326  0.0753  0.2836
  157MOL0     C21107   7.258   4.260   8.700 -0.6929 -0.3442  1.4717
  157MOL0     O21108   7.534   4.095   8.713  0.2628  0.0959  0.9821
  157MOL0     C21109   7.758   4.297   8.560 -0.1551 -0.0494 -0.2813
  157MOL0     C21110   7.891   4.323   8.557 -0.4691 -0.4032  0.3202
  157MOL0     N21111   8.467   4.036   8.432  0.0146 -0.0910 -0.4797
  157MOL0     N21112   8.542   3.981   8.522  0.3302  0.1874  0.1896
  157MOL0     C21113   9.623   3.904   7.938 -0.0561  0.9591  0.1359
  157MOL0     C21114   9.729   3.865   7.859 -1.1462  0.7216  0.2686
  157MOL0     C21115  10.043   3.674   7.652 -0.0045 -0.0513 -0.2344
  157MOL0     C21116  10.088   3.788   7.576  0.8533  0.0269 -0.2157
  157MOL0     C21117  10.217   3.787   7.521  0.5782 -0.8030  0.2215
  157MOL0     C21118  10.308   3.682   7.551  0.7479 -0.0388 -0.4071
  157MOL0     O21119  10.434   3.687   7.500 -1.0901  0.1483  0.8938
  157MOL0     C21120  10.541   3.621   7.578  0.1672  0.6550 -0.1235
  157MOL0     C21121  10.685   3.678   7.551 -0.3572  0.2996 -0.8908
  157MOL0     C21122  10.713   3.712   7.396 -0.3095  0.0161  0.3804
  157MOL0     C21123  10.706   3.863   7.350  0.3633  0.6722  0.8217
  157MOL0     C21124  10.772   3.948   7.446 -0.6805  0.3700  0.3582
  157MOL0     C21125  10.825   4.032   7.519  0.3081  0.4297  0.0422
  157MOL0     C21126  10.270   3.582   7.636 -0.4791  0.8462  0.1745
  157MOL0     C21127  10.139   3.568   7.692  0.5468  0.1962  0.8525
  157MOL0     H21128   9.582   3.690   7.619  3.6608  0.9304  0.2165
  157MOL0     H21129   9.373   3.745   7.779 -0.4740  0.3623  2.4978
  157MOL0     H21130   9.435   3.902   8.165  1.4611 -0.2425 -1.3959
  157MOL0     H21131   9.437   4.061   8.080  1.8691 -1.2301  0.3575
  157MOL0     H21132   9.261   4.063   8.217  0.3122  0.0601 -0.6381
  157MOL0     H21133   9.191   4.056   8.071  2.1123  0.1278 -1.8846
  157MOL0     H21134   9.167   3.795   8.091  4.7805 -1.2085 -0.6128
  157MOL0     H21135   9.233   3.798   8.252  0.0082  0.8948  1.5209
  157MOL0     H21136   8.959   3.918   8.154 -2.2721  3.7807  3.2209
  157MOL0     H21137   8.991   3.779   8.254  1.7057 -0.9204 -2.2813
  157MOL0     H21138   9.113   3.947   8.420  1.7615  1.1133  0.3121
  157MOL0     H21139   9.062   4.070   8.321  1.5528 -1.1375 -2.4076
  157MOL0     H21140   8.813   3.974   8.353 -1.6921  2.9394  1.7726
  157MOL0     H21141   8.880   3.849   8.444 -2.3271  1.2356  2.9144
  157MOL0     H21142   8.976   4.018   8.609 -0.7130 -3.6299  0.3339
  157MOL0     H21143   8.898   4.151   8.515 -2.1021  1.2994  3.1070
  157MOL0     H21144   8.759   4.088   8.714  0.2226  0.7363 -1.0918
  157MOL0     H21145   8.755   3.925   8.669 -1.2260 -0.9360 -0.1501
  157MOL0     H21146   8.706   4.258   8.451  0.2524 -0.8198 -2.1896
  157MOL0     H21147   8.521   4.309   8.261  1.3245  0.7547  0.8476
  157MOL0     H21148   8.376   4.215   8.268  1.0164  1.2366 -3.2971
  157MOL0     H21149   8.362   4.439   8.343  0.9337 -0.9244 -1.4488
  157MOL0     H21150   8.444   4.425   8.489 -1.3874  1.1344  0.8959
  157MOL0     H21151   8.313   4.234   8.573  1.6368  0.1107 -0.7250
  157MOL0     H21152   8.209   4.252   8.425 -0.6116  3.0680 -1.2875
  157MOL0     H21153   8.130   4.485   8.505  2.6632  2.1504 -0.6444
  157MOL0     H21154   8.247   4.474   8.634  1.1875 -1.4792  1.4226
  157MOL0     H21155   7.957   4.296   8.887 -0.5817 -1.4354  0.5053
  157MOL0     H21156   7.772   4.248   9.018  2.5210 -0.2756 -1.3381
  157MOL0     H21157   7.614   4.242   8.941 -0.9613 -1.6091 -1.0335
  157MOL0     H21158   7.700   4.093   8.937  2.9623 -0.4275  1.9464
  157MOL0     H21159   7.378   4.157   8.397 -0.6363  1.1269 -1.1599
  157MOL0     H21160   7.129   4.120   8.368  2.4773 -0.6273 -1.1473
  157MOL0     H21161   6.872   4.041   8.674 -0.2692 -0.3902  0.0627
  157MOL0     H21162   6.838   4.201   8.714  2.4930 -0.9376  1.7724
  157MOL0     H21163   6.712   4.179   8.457 -1.3219  1.8564  0.5663
  157MOL0     H21164   6.701   4.020   8.518  3.5719 -0.8603  1.6049
  157MOL0     H21165   6.505   4.192   8.565  0.0840  0.6041 -0.9906
  157MOL0     H21166   6.612   4.253   8.696  2.9148  0.2262 -2.3045
  157MOL0     H21167   6.532   3.962   8.661  2.2288 -0.4890 -0.3897
  157MOL0     H21168   6.627   4.029   8.784  1.8215  0.9458 -2.6354
  157MOL0     H21169   6.364   3.986   8.843 -0.9804  1.3718  0.8394
  157MOL0     H21170   6.332   4.119   8.730  0.5876 -0.3468 -0.1208
  157MOL0     H21171   6.498   4.164   8.985  3.1705  2.4997 -1.2882
  157MOL0     H21172   6.465   4.275   8.865  0.0592  1.3430  3.5576
  157MOL0     H21173   6.248   4.140   9.021  3.5750  1.1909  3.1588
  157MOL0     H21174   6.232   4.263   8.885 -1.1823 -0.7849  0.6753
  157MOL0     H21175   6.363   4.274   9.175 -1.0390  0.9784  1.4586
  157MOL0     H21176   6.220   4.363   9.123 -0.9659 -0.9585 -0.9832
  157MOL0     H21177   7.060   4.235   8.771 -1.4730 -1.8018 -0.3657
  157MOL0     H21178   7.289   4.310   8.792  0.9337  2.1033 -0.2707
  157MOL0     H21179   7.699   4.290   8.469  0.1354  1.1166 -0.5829
  157MOL0     H21180   7.933   4.332   8.458 -0.0795 -0.7905  0.4432
  157MOL0     H21181   9.644   3.957   8.031  0.8135 -2.6630  2.1875
  157MOL0     H21182   9.829   3.898   7.882 -0.3224  0.8421 -3.0264
  157MOL0     H21183  10.015   3.861   7.544 -0.7624 -1.7176 -0.6889
  157MOL0     H21184  10.243   3.863   7.449 -0.4932  1.0377  1.6700
  157MOL0     H21185  10.527   3.616   7.686 -2.7646  0.3898 -0.4369
  157MOL0     H21186  10.537   3.515   7.553 -3.5870 -0.1948  3.1059
  157MOL0     H21187  10.772   3.628   7.593  0.7223 -0.6113 -3.9237
  157MOL0     H21188  10.690   3.774   7.603  0.5310  0.1528 -0.6933
  157MOL0     H21189  10.640   3.649   7.344 -2.1784  1.9345  0.5437
  157MOL0     H21190  10.815   3.683   7.369 -1.1069 -0.4546 -2.4887
  157MOL0     H21191  10.603   3.899   7.341 -0.5014 -1.9821 -1.1794
  157MOL0     H21192  10.768   3.868   7.259 -2.9487 -1.5216 -1.8204
  157MOL0     H21193  10.861   4.113   7.580 -0.6890  1.9597 -1.3284
  157MOL0     H21194  10.351   3.512   7.651  2.7812  3.7865 -2.1062
  157MOL0     H21195  10.119   3.480   7.752  1.5298  1.0900  2.5447
  158MOL0     O21196   4.759   9.362   4.763  0.1960  0.5603  1.1840
  158MOL0     C21197   4.842   9.274   4.777  0.0351 -0.8183  0.3169
  158MOL0     O21198   4.832   9.152   4.742  0.3682 -1.0204 -0.5549
  158MOL0     C21199   4.703   9.105   4.740  0.7133 -0.0272 -0.7356
  158MOL0     C21200   4.623   9.096   4.864  0.9641  0.2112 -0.1506
  158MOL0     C21201   4.496   9.030   4.859 -0.2249  0.1737 -0.4968
  158MOL0     C21202   4.452   8.987   4.732 -0.8327 -1.1596  0.2982
  158MOL0     O21203   4.326   8.926   4.721 -1.1377 -0.4951  0.4429
  158MOL0     C21204   4.262   8.947   4.600  0.1649 -0.7883 -0.5313
  158MOL0     C21205   4.114   8.960   4.624  0.0601 -0.2840  0.0109
  158MOL0     C21206   4.073   9.080   4.716 -1.0739 -0.6812 -0.0894
  158MOL0     C21207   3.923   9.084   4.753  0.7419 -1.1798 -0.0666
  158MOL0     C21208   3.872   9.221   4.810  0.5039 -0.0419 -0.6404
  158MOL0     C21209   3.932   9.240   4.948 -0.0933  0.5392 -0.3366
  158MOL0     C21210   3.918   9.392   4.988 -1.2092 -0.5521 -0.1514
  158MOL0     C21211   3.936   9.397   5.141  0.3967  0.4031  0.1815
  158MOL0     N21212   4.012   9.518   5.185  0.6538  0.2970  0.6077
  158MOL0     C21213   3.983   9.642   5.128  0.3382 -0.2572  0.0213
  158MOL0     C21214   4.102   9.719   5.148  0.6985  0.7075 -0.6591
  158MOL0     C21215   4.129   9.859   5.113  0.4503  0.0196  0.6624
  158MOL0     C21216   4.256   9.882   5.029 -0.1407  0.3154  0.6346
  158MOL0     C21217   4.251   9.828   4.882 -0.3135  0.1508 -0.3334
  158MOL0     C21218   4.394   9.822   4.813 -0.7061 -0.4570 -0.2696
  158MOL0     O21219   4.388   9.823   4.675  0.0665 -0.2771 -0.0378
  158MOL0     C21220   4.407   9.713   4.598 -0.1409 -0.6055 -0.8220
  158MOL0     C21221   4.383   9.581   4.644  0.8209 -0.2402 -0.0719
  158MOL0     C21222   4.386   9.477   4.548  0.8084  0.7867 -0.7987
  158MOL0     C21223   4.354   9.345   4.612 -0.5464 -0.6071 -0.2570
  158MOL0     C21224   4.409   9.497   4.411  0.4707 -0.1249  0.0149
  158MOL0     C21225   4.438   9.381   4.320  0.5930 -0.5769  0.6133
  158MOL0     O21226   4.496   9.268   4.363  0.3551  0.6667  0.2135
  158MOL0     C21227   4.497   9.161   4.273 -0.2694  0.8452 -0.3120
  158MOL0     C21228   4.396   9.074   4.270 -1.0414 -0.5240  0.7704
  158MOL0     C21229   4.411   8.965   4.180  0.0720  0.2430 -0.8382
  158MOL0     C21230   4.528   8.938   4.104  0.9670  0.2778  0.1376
  158MOL0     O21231   4.524   8.820   4.025  0.8871  0.1642  0.4527
  158MOL0     C21232   4.617   8.799   3.924 -0.2795 -0.9738  0.1089
  158MOL0     C21233   4.640   8.663   3.853  0.1252 -0.6348 -0.5658
  158MOL0     C21234   4.602   8.540   3.935 -0.6423 -0.0584  0.1294
  158MOL0     C21235   4.668   8.400   3.896 -0.1305  0.6798  0.3890
  158MOL0     C21236   4.636   8.293   4.000 -0.1256 -0.2042 -0.4159
  158MOL0     C21237   4.687   8.154   3.956  0.7707 -0.3573  1.6776
  158MOL0     C21238   4.605   8.100   3.833  1.3294 -0.4044 -0.4417
  158MOL0     C21239   4.590   7.952   3.848  0.4263 -0.2125 -0.9634
  158MOL0    Cl21240   4.494   7.903   3.994 -0.1114 -0.3780  0.2301
  158MOL0     C21241   4.630   9.022   4.121  0.1666 -0.3994  0.1629
  158MOL0     C21242   4.621   9.136   4.206  0.0078 -0.9443  0.1846
  158MOL0     O21243   4.398   9.403   4.204  0.4415  0.9152 -0.4329
  158MOL0     C21244   4.427   9.627   4.372 -0.0168 -0.3473  0.1619
  158MOL0     C21245   4.427   9.731   4.461 -0.4383 -0.4857  0.7016
  158MOL0     N21246   4.193   9.631   5.217 -0.4544  0.7891 -0.1696
  158MOL0     N21247   4.137   9.520   5.234 -0.2266 -0.0779 -0.7200
  158MOL0     C21248   4.526   9.007   4.612 -0.8166  0.7694 -0.0513
  158MOL0     C21249   4.649   9.074   4.618 -1.0253  0.4588 -0.0351
  158MOL0     C21250   4.979   9.317   4.820 -0.5335 -0.6141 -0.6543
  158MOL0     C21251   5.005   9.433   4.895 -0.2698 -0.0922 -0.4241
  158MOL0     C21252   5.135   9.485   4.924  0.4326  0.2836  0.2533
  158MOL0     C21253   5.250   9.421   4.877 -0.6053  0.0394 -0.8209
  158MOL0     O21254   5.372   9.475   4.917 -0.1664 -0.1727  0.4274
  158MOL0     C21255   5.489   9.414   4.879 -1.4434  0.8864 -0.5381
  158MOL0     C21256   5.605   9.501   4.898 -1.1806 -1.1447  0.1995
  158MOL0     C21257   5.743   9.435   4.930  0.4833 -0.3173 -0.2485
  158MOL0     C21258   5.856   9.526   4.935 -0.6456 -0.1538  0.2687
  158MOL0     C21259   5.967   9.443   4.972  0.4868  0.3153 -0.1327
  158MOL0     C21260   6.053   9.356   5.003 -0.1100 -0.5635 -0.0675
  158MOL0     C21261   5.226   9.302   4.800  0.5962 -0.4295 -0.0298
  158MOL0     C21262   5.094   9.256   4.773  0.2093 -0.2887 -0.0135
  158MOL0     H21263   4.659   9.132   4.960  1.6695 -0.4537 -0.1553
  158MOL0     H21264   4.428   9.035   4.944  0.5092 -2.6168  0.3606
  158MOL0     H21265   4.289   9.038   4.545  0.6176  1.7061  3.4320
  158MOL0     H21266   4.289   8.854   4.549  4.9227  0.0723 -0.1177
  158MOL0     H21267   4.074   8.973   4.523  3.3232  0.8604 -1.2878
  158MOL0     H21268   4.083   8.870   4.678 -1.2710  0.6582  0.8589
  158MOL0     H21269   4.131   9.069   4.808  1.2805  0.7194 -1.2995
  158MOL0     H21270   4.104   9.179   4.682 -1.0879  0.1450  2.1215
  158MOL0     H21271   3.861   9.064   4.665  1.5590  3.1988 -1.9246
  158MOL0     H21272   3.912   8.996   4.817  1.4372  0.1537  1.9631
  158MOL0     H21273   3.903   9.298   4.739  0.5501  0.5765  0.0401
  158MOL0     H21274   3.763   9.222   4.822  0.5742 -2.6775  1.0783
  158MOL0     H21275   3.879   9.173   5.016 -1.5396  0.5275 -1.4171
  158MOL0     H21276   4.039   9.217   4.948 -0.3681 -0.9758 -2.3073
  158MOL0     H21277   4.004   9.440   4.942 -1.3049  0.5132  0.7429
  158MOL0     H21278   3.824   9.432   4.949 -1.7095 -1.9990 -0.4755
  158MOL0     H21279   3.984   9.311   5.190  4.1302  1.9122 -0.4987
  158MOL0     H21280   3.832   9.404   5.173  0.0558  1.0098 -1.0011
  158MOL0     H21281   3.888   9.680   5.091  0.8982  1.4053  0.2191
  158MOL0     H21282   4.039   9.892   5.062  0.8088 -0.0701 -0.0402
  158MOL0     H21283   4.140   9.928   5.198  2.4237 -0.0686  0.5346
  158MOL0     H21284   4.341   9.848   5.088 -0.4049 -0.2152  0.7135
  158MOL0     H21285   4.262   9.991   5.019  1.1244  0.2225  0.2906
  158MOL0     H21286   4.193   9.894   4.817  2.0328  0.8772 -1.7916
  158MOL0     H21287   4.198   9.733   4.894  0.9101 -0.4521  0.5666
  158MOL0     H21288   4.450   9.735   4.849 -1.0012  0.1162  1.6648
  158MOL0     H21289   4.459   9.905   4.839  2.7662 -2.9874 -0.1786
  158MOL0     H21290   4.377   9.559   4.750  1.5965 -0.3120 -0.0383
  158MOL0     H21291   4.436   9.322   4.681  0.8228  2.6302 -0.6384
  158MOL0     H21292   4.258   9.339   4.665  0.1161 -0.9857  0.9532
  158MOL0     H21293   4.349   9.268   4.535 -1.7012 -0.5855 -0.2125
  158MOL0     H21294   4.304   9.085   4.327  0.1137 -2.2475  3.1212
  158MOL0     H21295   4.334   8.889   4.167  1.0588 -0.9769  0.1547
  158MOL0     H21296   4.599   8.871   3.844  1.1886 -1.9598 -1.1749
  158MOL0     H21297   4.704   8.823   3.985  0.5065  0.3631 -1.4433
  158MOL0     H21298   4.581   8.665   3.761  2.3628 -2.3637 -2.1535
  158MOL0     H21299   4.742   8.660   3.814 -0.0980  1.3661 -1.4217
  158MOL0     H21300   4.494   8.535   3.920 -0.6791  1.0160 -0.0730
  158MOL0     H21301   4.613   8.554   4.043  0.5015 -1.0584  0.1542
  158MOL0     H21302   4.630   8.371   3.797 -1.8475  2.3292  0.5212
  158MOL0     H21303   4.775   8.425   3.898  0.3718 -1.2878  0.0731
  158MOL0     H21304   4.534   8.297   4.040  0.7612  1.8401  1.9759
  158MOL0     H21305   4.697   8.307   4.090 -0.7557 -3.9591  0.7790
  158MOL0     H21306   4.793   8.159   3.930  0.4938 -1.2058  0.2793
  158MOL0     H21307   4.675   8.077   4.032  1.2287  0.2592  2.3927
  158MOL0     H21308   4.650   8.114   3.734 -0.4689  2.5609 -0.9755
  158MOL0     H21309   4.511   8.154   3.817  0.7689 -0.6884  1.6828
  158MOL0     H21310   4.690   7.909   3.852  0.9029  0.9204  1.7362
  158MOL0     H21311   4.540   7.902   3.764  0.9590 -0.0338 -1.3951
  158MOL0     H21312   4.721   9.012   4.063  0.8624 -0.7236  1.2760
  158MOL0     H21313   4.689   9.220   4.195 -0.2474 -0.6279  1.0238
  158MOL0     H21314   4.458   9.668   4.276  1.2605 -0.2528  0.5987
  158MOL0     H21315   4.437   9.835   4.429  3.6063 -0.4801  1.4994
  158MOL0     H21316   4.485   8.982   4.515  0.1504  0.2699 -0.3458
  158MOL0     H21317   4.708   9.091   4.529  0.7068 -3.1744  0.2256
  158MOL0     H21318   4.926   9.499   4.928 -0.1041  1.5955 -3.1103
  158MOL0     H21319   5.142   9.582   4.972 -1.9905  1.7935 -2.1518
  158MOL0     H21320   5.507   9.328   4.944 -0.1140  0.7352 -1.0726
  158MOL0     H21321   5.479   9.373   4.778  0.0501  2.9570 -1.5894
  158MOL0     H21322   5.571   9.553   4.988 -1.7076 -2.7650  0.9824
  158MOL0     H21323   5.613   9.571   4.814 -2.3165 -0.3721  0.7123
  158MOL0     H21324   5.755   9.352   4.860  0.0332 -0.1936 -0.4780
  158MOL0     H21325   5.732   9.398   5.033 -0.4317  1.8341  0.4856
  158MOL0     H21326   5.847   9.592   5.022  0.3148 -0.1168  0.3484
  158MOL0     H21327   5.882   9.586   4.848  2.1632 -0.6940  0.6413
  158MOL0     H21328   6.128   9.283   5.027 -0.3190 -1.3331 -1.6384
  158MOL0     H21329   5.309   9.244   4.761  0.5212 -0.9755  0.5881
  158MOL0     H21330   5.080   9.168   4.711  1.1547  0.6237 -1.5874
  159MOL0     O21331   7.650   3.536   8.018 -0.5337  0.0358 -0.0824
  159MOL0     C21332   7.709   3.643   8.015 -0.1367 -0.0968 -0.6375
  159MOL0     O21333   7.674   3.753   7.940 -0.0972  1.1446  0.3838
  159MOL0     C21334   7.554   3.761   7.879  0.2844  0.7777 -0.0681
  159MOL0     C21335   7.550   3.799   7.748 -0.4108 -0.6877  0.4447
  159MOL0     C21336   7.429   3.791   7.667 -0.3736 -0.0126  0.1427
  159MOL0     C21337   7.314   3.750   7.730 -0.1272  0.4457 -0.2913
  159MOL0     O21338   7.198   3.744   7.657 -0.3865  0.1716  0.3340
  159MOL0     C21339   7.107   3.637   7.680 -0.6178 -0.2700  0.1051
  159MOL0     C21340   6.973   3.716   7.691 -0.0443 -0.5757  0.4783
  159MOL0     C21341   6.855   3.623   7.672  0.9365  1.1465 -0.3618
  159MOL0     C21342   6.848   3.544   7.531 -0.0170  0.3570 -0.1325
  159MOL0     C21343   6.701   3.493   7.516  0.7692  0.4463 -0.0966
  159MOL0     C21344   6.686   3.340   7.545  0.3790 -0.2629 -0.6791
  159MOL0     C21345   6.531   3.305   7.531 -0.5112 -0.3876 -0.4792
  159MOL0     C21346   6.509   3.155   7.547 -0.2027 -0.1567  1.1998
  159MOL0     N21347   6.572   3.081   7.433 -0.6207 -1.2129  0.4420
  159MOL0     C21348   6.526   3.072   7.305  0.9324  0.5972 -0.3563
  159MOL0     C21349   6.608   2.985   7.245  0.1861 -0.1714  0.3642
  159MOL0     C21350   6.581   2.937   7.101 -0.1479 -0.3055  0.2674
  159MOL0     C21351   6.529   2.787   7.103 -0.1883  0.1529 -0.0539
  159MOL0     C21352   6.402   2.767   7.184  0.2273  0.8353  0.1272
  159MOL0     C21353   6.304   2.664   7.128  0.1308 -0.3978 -0.3824
  159MOL0     O21354   6.380   2.543   7.096 -0.0627 -0.3673  0.0960
  159MOL0     C21355   6.361   2.465   6.984  0.9251  0.0864 -0.0157
  159MOL0     C21356   6.427   2.345   6.983 -0.1812 -1.0176 -0.6346
  159MOL0     C21357   6.419   2.257   6.883  0.3002 -0.7374  0.0344
  159MOL0     C21358   6.501   2.131   6.898 -0.8472  0.2793 -0.2971
  159MOL0     C21359   6.333   2.280   6.771 -0.8280 -0.7529 -0.7001
  159MOL0     C21360   6.316   2.181   6.664 -0.3429  0.4206  0.4834
  159MOL0     O21361   6.280   2.234   6.537 -0.6430  0.3361 -0.2976
  159MOL0     C21362   6.266   2.154   6.426  1.2685 -0.1507  0.4087
  159MOL0     C21363   6.241   2.021   6.409  0.5564  0.8253  0.7149
  159MOL0     C21364   6.241   1.957   6.281  0.9744  0.0438 -0.3672
  159MOL0     C21365   6.242   2.032   6.167 -0.6395 -0.4541  0.5913
  159MOL0     O21366   6.215   1.971   6.051 -0.3526  0.0957 -0.0490
  159MOL0     C21367   6.217   2.042   5.929 -0.5296 -1.0605  0.8501
  159MOL0     C21368   6.234   1.949   5.808  0.0477 -0.3952 -0.0785
  159MOL0     C21369   6.341   1.847   5.821 -0.1969 -0.8232 -0.5201
  159MOL0     C21370   6.488   1.892   5.787  0.2790 -0.3212  0.5213
  159MOL0     C21371   6.591   1.796   5.854 -0.0335  0.8027 -0.5653
  159MOL0     C21372   6.587   1.759   6.008 -0.2700  1.1262 -0.1169
  159MOL0     C21373   6.571   1.882   6.098  0.4133 -0.0051 -0.5542
  159MOL0     C21374   6.705   1.963   6.092  0.8473 -0.1101 -0.2633
  159MOL0    Cl21375   6.707   2.086   6.218  0.3790 -0.1885  0.2041
  159MOL0     C21376   6.260   2.171   6.188  0.3047  0.1100  0.3131
  159MOL0     C21377   6.279   2.231   6.313 -0.1015 -0.5202 -0.5571
  159MOL0     O21378   6.336   2.065   6.686 -0.2335  0.1483  0.3709
  159MOL0     C21379   6.278   2.404   6.774 -0.2495 -0.1784 -0.4584
  159MOL0     C21380   6.287   2.499   6.873  0.0325  0.3607  0.5304
  159MOL0     N21381   6.719   2.952   7.326  0.4377 -0.5835 -0.4755
  159MOL0     N21382   6.686   3.010   7.445  0.8639  0.4161  0.4739
  159MOL0     C21383   7.307   3.729   7.872 -0.1861  0.1834  0.2000
  159MOL0     C21384   7.439   3.721   7.936  0.7331  0.6191  0.5174
  159MOL0     C21385   7.839   3.657   8.091 -0.3625 -0.1394  0.8411
  159MOL0     C21386   7.889   3.555   8.180  0.4847 -0.5587  1.0610
  159MOL0     C21387   8.005   3.568   8.250  0.0913 -0.5255 -0.2315
  159MOL0     C21388   8.086   3.680   8.226 -1.4418  0.1283 -0.1652
  159MOL0     O21389   8.200   3.706   8.286 -0.1450  0.2073 -1.1649
  159MOL0     C21390   8.251   3.611   8.378 -1.2342 -0.5029  0.0280
  159MOL0     C21391   8.396   3.651   8.408  0.0078  0.1411 -0.3108
  159MOL0     C21392   8.490   3.593   8.301  1.0206 -0.5735  0.9841
  159MOL0     C21393   8.638   3.653   8.310 -0.1353 -0.0402 -0.1790
  159MOL0     C21394   8.738   3.545   8.285  0.7131  0.2134 -0.6234
  159MOL0     C21395   8.809   3.453   8.244 -0.3038  0.9333  0.7902
  159MOL0     C21396   8.049   3.769   8.127  0.3619 -0.5272  0.6858
  159MOL0     C21397   7.927   3.761   8.054 -0.2993 -0.1753 -1.0173
  159MOL0     H21398   7.648   3.827   7.709  0.5962 -0.1689  3.1355
  159MOL0     H21399   7.435   3.804   7.559  1.7769  0.4345  0.2736
  159MOL0     H21400   7.105   3.573   7.591 -2.2468  0.5304 -0.4707
  159MOL0     H21401   7.113   3.580   7.773 -4.5259 -1.9146 -0.4631
  159MOL0     H21402   6.959   3.769   7.786 -1.6985  1.6185 -0.8873
  159MOL0     H21403   6.970   3.790   7.610 -1.8714 -2.1348 -0.9707
  159MOL0     H21404   6.839   3.555   7.756 -0.9219  1.2458 -0.6122
  159MOL0     H21405   6.768   3.688   7.658  1.5711  1.3453 -6.1685
  159MOL0     H21406   6.872   3.612   7.448  1.6755 -1.5826 -1.3198
  159MOL0     H21407   6.928   3.470   7.518 -1.1117 -0.5286 -2.1962
  159MOL0     H21408   6.633   3.548   7.581 -0.0530  2.7227 -2.7037
  159MOL0     H21409   6.676   3.513   7.412  1.1657 -0.7328 -0.4429
  159MOL0     H21410   6.759   3.288   7.482  0.8044 -0.8526  0.2806
  159MOL0     H21411   6.713   3.310   7.646  0.2540  1.0640 -0.2413
  159MOL0     H21412   6.467   3.357   7.603  0.5985 -1.0613  1.0461
  159MOL0     H21413   6.504   3.320   7.426 -1.3509 -3.1307 -0.7251
  159MOL0     H21414   6.404   3.128   7.541 -0.1563 -0.3968  1.4404
  159MOL0     H21415   6.542   3.125   7.647  0.6534  2.5244  1.7962
  159MOL0     H21416   6.430   3.111   7.272  0.3229  0.4455  1.1340
  159MOL0     H21417   6.530   3.013   7.042  1.0667  2.1907  2.2257
  159MOL0     H21418   6.681   2.946   7.056  0.8349 -0.7722  2.2409
  159MOL0     H21419   6.607   2.720   7.138 -1.8055 -0.1620  3.3910
  159MOL0     H21420   6.503   2.765   6.999  2.3862  0.8001 -0.9099
  159MOL0     H21421   6.357   2.867   7.186 -1.1140  0.2809 -1.0061
  159MOL0     H21422   6.450   2.748   7.280  1.7855 -1.6836 -1.0621
  159MOL0     H21423   6.263   2.699   7.032 -0.9914 -2.5115 -0.7405
  159MOL0     H21424   6.226   2.645   7.202 -1.3933  3.2904 -0.8402
  159MOL0     H21425   6.491   2.332   7.069  3.9697  1.1376 -3.0673
  159MOL0     H21426   6.439   2.041   6.896 -0.0867 -0.2394 -1.4146
  159MOL0     H21427   6.578   2.124   6.820  0.3306  2.5011  0.5676
  159MOL0     H21428   6.554   2.125   6.993 -0.0571 -1.3363 -0.8026
  159MOL0     H21429   6.221   1.961   6.497  2.1549  0.5436  0.9124
  159MOL0     H21430   6.235   1.850   6.264  1.4165  0.0514 -0.6054
  159MOL0     H21431   6.122   2.096   5.931 -0.9807 -1.7112 -0.9672
  159MOL0     H21432   6.301   2.110   5.913 -1.3005 -0.3031 -0.1223
  159MOL0     H21433   6.144   1.888   5.800  0.4968 -1.0787 -0.0015
  159MOL0     H21434   6.241   2.007   5.715  1.9721 -0.4844 -0.0347
  159MOL0     H21435   6.309   1.766   5.755  0.5304 -2.2553  0.8197
  159MOL0     H21436   6.342   1.804   5.921  2.5195 -0.8626 -0.4898
  159MOL0     H21437   6.489   1.894   5.677 -2.2019  0.9623  0.4542
  159MOL0     H21438   6.494   1.996   5.821 -0.9941 -0.1360  0.2118
  159MOL0     H21439   6.688   1.845   5.839  1.6575 -2.7151 -2.1742
  159MOL0     H21440   6.608   1.704   5.799 -1.8818  0.3024 -0.3585
  159MOL0     H21441   6.506   1.689   6.030  1.8104 -0.9834  1.3835
  159MOL0     H21442   6.674   1.705   6.047 -0.8849 -1.4969 -2.1228
  159MOL0     H21443   6.566   1.851   6.203  0.2258 -0.2562 -0.6351
  159MOL0     H21444   6.476   1.933   6.079  0.8303  2.3244  2.7484
  159MOL0     H21445   6.715   1.997   5.989 -1.8640 -3.4876 -1.8680
  159MOL0     H21446   6.797   1.906   6.110 -0.4114 -2.6054 -1.1991
  159MOL0     H21447   6.263   2.237   6.102  0.1031 -0.3941 -0.0881
  159MOL0     H21448   6.295   2.338   6.325 -0.7804 -0.5167  0.5277
  159MOL0     H21449   6.212   2.437   6.694  1.0036 -0.0837 -1.4781
  159MOL0     H21450   6.241   2.594   6.845  0.4508  0.2450 -0.5696
  159MOL0     H21451   7.212   3.717   7.923  0.9261 -0.1970  2.2852
  159MOL0     H21452   7.446   3.674   8.034 -1.3544 -0.1990  0.3354
  159MOL0     H21453   7.817   3.478   8.203 -1.0437  0.9484  1.5078
  159MOL0     H21454   8.018   3.494   8.328 -1.8757  1.3620  2.0528
  159MOL0     H21455   8.190   3.624   8.467 -2.3800  2.4165 -1.0384
  159MOL0     H21456   8.240   3.511   8.334 -2.2957  0.5237 -2.1910
  159MOL0     H21457   8.431   3.621   8.507  1.5740 -1.3806 -1.2596
  159MOL0     H21458   8.398   3.761   8.404 -1.0152  0.4129  3.3048
  159MOL0     H21459   8.458   3.618   8.199 -0.5830 -1.5647  1.2120
  159MOL0     H21460   8.474   3.485   8.301 -2.8992 -0.2119  3.7755
  159MOL0     H21461   8.671   3.701   8.403  0.6812  2.0171 -1.4628
  159MOL0     H21462   8.655   3.722   8.227  0.8799 -1.9777 -1.6898
  159MOL0     H21463   8.887   3.387   8.214 -0.6233  1.0103 -0.2459
  159MOL0     H21464   8.116   3.853   8.112 -1.0085  0.4181 -0.3056
  159MOL0     H21465   7.910   3.831   7.973 -1.1543  1.5134  0.5318
  160MOL0     O21466   8.909   6.675   8.892 -0.1799  0.0312  0.7118
  160MOL0     C21467   8.805   6.684   8.814 -0.2462  0.5345 -0.0802
  160MOL0     O21468   8.677   6.699   8.860 -0.1301 -0.4166 -0.1349
  160MOL0     C21469   8.664   6.724   8.991 -0.0482 -0.2879 -0.8670
  160MOL0     C21470   8.640   6.864   9.017 -0.0297 -0.3292 -0.3185
  160MOL0     C21471   8.621   6.910   9.144 -0.0011 -0.9424 -1.1317
  160MOL0     C21472   8.604   6.823   9.257  0.0928 -0.4688  0.0139
  160MOL0     O21473   8.581   6.865   9.391 -0.9467  0.0144  0.2472
  160MOL0     C21474   8.621   6.769   9.491  0.3338 -0.0722  0.8171
  160MOL0     C21475   8.504   6.676   9.537  0.6580  0.6822 -0.2640
  160MOL0     C21476   8.556   6.560   9.619  0.0835 -0.5598  0.3291
  160MOL0     C21477   8.439   6.455   9.646 -1.2472  0.1694 -0.8942
  160MOL0     C21478   8.362   6.499   9.774  0.4861 -0.0258  0.1701
  160MOL0     C21479   8.442   6.510   9.905  0.6996 -1.1919  0.3039
  160MOL0     C21480   8.555   6.412   9.940 -0.3472  0.0134 -0.0522
  160MOL0     C21481   8.635   6.463  10.059  0.0872 -0.4677 -0.1363
  160MOL0     N21482   8.547   6.477  10.175 -0.7179  1.5616  0.0319
  160MOL0     C21483   8.513   6.367  10.257  1.0856  0.5103 -0.6777
  160MOL0     C21484   8.424   6.425  10.343 -0.6516  0.8647  0.1116
  160MOL0     C21485   8.349   6.355  10.450 -0.4060 -0.3358 -0.2856
  160MOL0     C21486   8.433   6.382  10.581  0.3373 -0.1269 -0.1880
  160MOL0     C21487   8.356   6.416  10.715  0.3803  0.1831  0.2180
  160MOL0     C21488   8.432   6.517  10.807  0.8270  0.1014 -0.9147
  160MOL0     O21489   8.542   6.465  10.877  0.2476 -0.5950 -0.0164
  160MOL0     C21490   8.526   6.454  11.012  0.2923 -0.2571  0.0129
  160MOL0     C21491   8.434   6.376  11.078  1.0221  0.4939 -0.5832
  160MOL0     C21492   8.417   6.375  11.219  0.1271 -1.0292  0.7300
  160MOL0     C21493   8.313   6.285  11.278  0.0589  0.0443  0.2344
  160MOL0     C21494   8.497   6.475  11.298 -0.4404  0.3541 -0.5617
  160MOL0     C21495   8.480   6.497  11.445 -0.1951 -0.1676 -0.4016
  160MOL0     O21496   8.547   6.592  11.506 -0.1754 -0.0911 -0.1424
  160MOL0     C21497   8.557   6.599  11.638 -0.6081  0.0159  0.4738
  160MOL0     C21498   8.601   6.724  11.684 -0.6786  1.0054 -0.7001
  160MOL0     C21499   8.621   6.751  11.824  0.3332  0.2530  0.4555
  160MOL0     C21500   8.593   6.653  11.917 -0.0419 -0.1113  0.1941
  160MOL0     O21501   8.618   6.684  12.053  0.3437  0.2146  0.7547
  160MOL0     C21502   8.610   6.591  12.157 -0.3492 -0.1636  0.6781
  160MOL0     C21503   8.616   6.660  12.298 -0.0707  1.4488  0.8830
  160MOL0     C21504   8.572   6.570  12.413 -0.7121  0.6482 -0.4345
  160MOL0     C21505   8.682   6.468  12.464  0.2052  1.2410 -0.2039
  160MOL0     C21506   8.632   6.398  12.597 -0.1974 -0.1573 -0.2808
  160MOL0     C21507   8.594   6.504  12.715 -0.3904  0.0894 -0.7638
  160MOL0     C21508   8.545   6.426  12.845  0.8257  0.2615  0.9486
  160MOL0     C21509   8.443   6.484  12.933  0.2674  0.6470  0.9171
  160MOL0    Cl21510   8.522   6.614  13.030 -0.1435 -0.1010  0.3430
  160MOL0     C21511   8.570   6.525  11.867 -0.9994  0.6089 -0.6888
  160MOL0     C21512   8.546   6.495  11.733  0.5091 -0.8044  1.1711
  160MOL0     O21513   8.403   6.418  11.500  0.0473 -0.1492  0.6908
  160MOL0     C21514   8.595   6.546  11.225 -0.1270 -0.0366  0.1392
  160MOL0     C21515   8.613   6.537  11.083 -0.4850 -0.2817 -0.0128
  160MOL0     N21516   8.408   6.558  10.311  0.3676 -0.0324  0.3243
  160MOL0     N21517   8.478   6.587  10.207  0.8687 -1.2768 -0.7177
  160MOL0     C21518   8.614   6.683   9.222 -0.0831 -1.1651  0.7276
  160MOL0     C21519   8.651   6.638   9.094 -0.4791 -0.3751 -0.0765
  160MOL0     C21520   8.825   6.662   8.671  0.0114  0.3087 -0.1336
  160MOL0     C21521   8.958   6.665   8.617 -0.9504  0.1958 -0.7419
  160MOL0     C21522   8.993   6.624   8.496  1.0741  0.2690 -0.6813
  160MOL0     C21523   8.890   6.601   8.405  0.6961 -0.4943  0.3621
  160MOL0     O21524   8.905   6.568   8.272  0.6463  0.9932 -0.0593
  160MOL0     C21525   9.035   6.567   8.214  0.2005 -1.0116  0.0604
  160MOL0     C21526   9.069   6.716   8.181 -0.7072  0.2175  0.0528
  160MOL0     C21527   9.042   6.756   8.030 -0.1102 -0.2387  0.1604
  160MOL0     C21528   9.146   6.701   7.936 -0.2997  0.8058  0.2039
  160MOL0     C21529   9.261   6.791   7.916 -0.0613 -0.4843  0.7963
  160MOL0     C21530   9.344   6.868   7.887 -0.0978  0.0561  0.2984
  160MOL0     C21531   8.758   6.613   8.443 -0.6375 -0.1970  0.1069
  160MOL0     C21532   8.726   6.624   8.583  0.0826 -0.2305  1.1067
  160MOL0     H21533   8.638   6.928   8.930 -3.2440 -0.7485 -0.6817
  160MOL0     H21534   8.621   7.016   9.168 -1.2700 -1.5019  1.7528
  160MOL0     H21535   8.709   6.719   9.450  0.8797  3.1591 -2.4450
  160MOL0     H21536   8.650   6.820   9.584 -0.0133 -1.1326  1.5380
  160MOL0     H21537   8.433   6.729   9.601 -1.2382 -2.0193  0.0459
  160MOL0     H21538   8.444   6.631   9.458 -1.4148 -2.3167  2.7304
  160MOL0     H21539   8.636   6.504   9.570  1.7483  1.3633  0.7251
  160MOL0     H21540   8.610   6.601   9.705 -1.5060  1.7121  0.3433
  160MOL0     H21541   8.371   6.439   9.561 -3.2478  1.6684  0.3142
  160MOL0     H21542   8.470   6.351   9.654 -3.3587 -0.3748  1.3745
  160MOL0     H21543   8.307   6.589   9.745  0.6103  0.1982  0.6221
  160MOL0     H21544   8.286   6.421   9.788 -0.9330  1.1852 -0.4684
  160MOL0     H21545   8.486   6.610   9.900  0.1052 -0.6521  3.5101
  160MOL0     H21546   8.372   6.508   9.989 -0.5367 -0.1654 -0.6780
  160MOL0     H21547   8.521   6.319   9.986 -2.5278  1.2306  0.9501
  160MOL0     H21548   8.621   6.388   9.856 -1.1464 -0.8297 -0.4543
  160MOL0     H21549   8.690   6.553  10.032 -0.9776  0.9941  2.2720
  160MOL0     H21550   8.714   6.390  10.082  0.6924  0.2947  0.2537
  160MOL0     H21551   8.522   6.259  10.255 -0.9936  0.1373  2.5152
  160MOL0     H21552   8.250   6.401  10.448 -0.1227  0.3786 -3.2861
  160MOL0     H21553   8.334   6.249  10.430 -0.6499 -0.2429 -0.5980
  160MOL0     H21554   8.491   6.473  10.565  0.8910 -0.4546 -0.0784
  160MOL0     H21555   8.508   6.303  10.597 -0.1255 -0.1650  2.3539
  160MOL0     H21556   8.318   6.326  10.765  2.6664 -0.6381  0.6125
  160MOL0     H21557   8.266   6.473  10.693 -0.8572 -1.7081  0.1557
  160MOL0     H21558   8.359   6.571  10.867  1.6727  1.9218 -1.4494
  160MOL0     H21559   8.466   6.601  10.746 -1.3225  3.7412  2.4533
  160MOL0     H21560   8.379   6.315  11.008 -2.3675  0.6132  1.7271
  160MOL0     H21561   8.253   6.251  11.193  1.3435  2.0720 -1.5899
  160MOL0     H21562   8.345   6.205  11.345 -0.4694 -0.7613 -0.4454
  160MOL0     H21563   8.241   6.338  11.340 -0.6780 -3.2900  2.5194
  160MOL0     H21564   8.616   6.799  11.608  1.7036  1.5291  0.1784
  160MOL0     H21565   8.663   6.841  11.866 -2.0923  1.5443  0.3023
  160MOL0     H21566   8.522   6.529  12.140 -0.0510 -1.0140  2.0551
  160MOL0     H21567   8.699   6.528  12.163  0.9525  1.5542  0.4411
  160MOL0     H21568   8.714   6.698  12.325  0.6210  0.2167  0.2149
  160MOL0     H21569   8.545   6.743  12.287 -0.7722  0.8194  0.4649
  160MOL0     H21570   8.482   6.515  12.382 -1.4895  3.0879 -2.9370
  160MOL0     H21571   8.546   6.639  12.493  0.4567 -0.2951  0.7936
  160MOL0     H21572   8.691   6.382  12.396  3.1046  0.4684  0.9884
  160MOL0     H21573   8.778   6.513  12.491  0.7213  0.0562  0.0104
  160MOL0     H21574   8.719   6.348  12.641  0.4111  2.4038  1.6806
  160MOL0     H21575   8.547   6.331  12.581 -0.1884 -0.4249  0.7143
  160MOL0     H21576   8.681   6.567  12.737  1.5760 -3.3424  2.3924
  160MOL0     H21577   8.507   6.555  12.674 -0.3173  2.8135  2.0891
  160MOL0     H21578   8.626   6.382  12.904 -0.3318 -1.0971  1.5893
  160MOL0     H21579   8.489   6.342  12.804  3.2038 -2.1334  2.2898
  160MOL0     H21580   8.410   6.404  13.000  1.4775 -0.5272  0.1664
  160MOL0     H21581   8.371   6.530  12.865  0.3696  0.9686  1.0267
  160MOL0     H21582   8.565   6.442  11.937 -0.4510  2.1568  1.3041
  160MOL0     H21583   8.520   6.394  11.703  0.9989  0.2124 -3.3675
  160MOL0     H21584   8.649   6.621  11.283 -2.2448  3.2809 -1.9049
  160MOL0     H21585   8.677   6.601  11.023 -0.5453 -0.5774 -0.3977
  160MOL0     H21586   8.590   6.609   9.298 -0.5328 -1.1646  0.5872
  160MOL0     H21587   8.663   6.533   9.069  1.1761 -1.0589  3.0612
  160MOL0     H21588   9.039   6.698   8.682 -1.5312  0.0380  0.0861
  160MOL0     H21589   9.099   6.626   8.476  0.8976 -1.3766 -2.0120
  160MOL0     H21590   9.119   6.529   8.273  1.3055 -0.3628 -1.0456
  160MOL0     H21591   9.033   6.514   8.119 -3.1159  0.5057 -0.8554
  160MOL0     H21592   9.176   6.727   8.200 -0.4456 -1.0006 -0.5736
  160MOL0     H21593   9.007   6.781   8.243 -3.3315 -0.5481 -1.5876
  160MOL0     H21594   9.035   6.865   8.033 -2.4673 -0.3345 -0.0941
  160MOL0     H21595   8.944   6.727   7.989 -1.2903  2.1511  1.1365
  160MOL0     H21596   9.098   6.686   7.838  0.5300  0.0371 -0.1090
  160MOL0     H21597   9.183   6.600   7.954 -1.5386  0.1533 -0.6818
  160MOL0     H21598   9.417   6.943   7.862 -0.2097 -0.0145 -0.2554
  160MOL0     H21599   8.680   6.595   8.371  0.0379 -0.9599 -0.4463
  160MOL0     H21600   8.620   6.604   8.596 -0.2714 -1.2565 -2.3196
  161MOL0     O21601   6.849   9.691   9.150 -0.1259  0.4726  0.6910
  161MOL0     C21602   6.899   9.684   9.041 -0.3209  0.9061 -0.7453
  161MOL0     O21603   6.839   9.699   8.925 -0.6227 -0.3459  0.0004
  161MOL0     C21604   6.702   9.720   8.930 -0.1334  0.1850 -0.6726
  161MOL0     C21605   6.658   9.848   8.902 -0.1915  0.5914  0.0112
  161MOL0     C21606   6.525   9.886   8.924 -0.1060 -0.4124 -0.0418
  161MOL0     C21607   6.430   9.795   8.975  0.6018 -0.5445 -0.3289
  161MOL0     O21608   6.302   9.839   8.983 -0.0614 -0.0189  0.9866
  161MOL0     C21609   6.189   9.749   8.952 -0.2978 -0.4367  0.2190
  161MOL0     C21610   6.048   9.808   8.970 -0.4501 -0.4944  0.1187
  161MOL0     C21611   5.931   9.723   8.921 -0.5982  0.4077 -1.4128
  161MOL0     C21612   5.806   9.785   8.978 -0.3013  0.4187  0.1430
  161MOL0     C21613   5.678   9.730   8.921 -0.1995  0.2593  0.3051
  161MOL0     C21614   5.554   9.791   8.996  0.6063 -0.0390  0.2424
  161MOL0     C21615   5.422   9.730   8.947 -0.0745 -0.7697 -0.5301
  161MOL0     C21616   5.296   9.771   9.033 -0.4556  0.4271 -0.4910
  161MOL0     N21617   5.245   9.660   9.114  0.9594 -0.1182 -0.7674
  161MOL0     C21618   5.258   9.659   9.258 -0.6217 -0.2242  0.1069
  161MOL0     C21619   5.161   9.574   9.301  0.8563  1.0485 -0.8555
  161MOL0     C21620   5.134   9.513   9.442  0.4243 -0.5024 -0.8083
  161MOL0     C21621   5.052   9.615   9.528 -1.2470 -0.6081  0.5917
  161MOL0     C21622   4.908   9.644   9.473  0.1410  0.1098  0.3521
  161MOL0     C21623   4.807   9.656   9.574  0.5701 -0.4894 -0.6552
  161MOL0     O21624   4.827   9.758   9.677  0.0338 -0.5677 -0.1039
  161MOL0     C21625   4.759   9.735   9.788 -0.6673 -0.6290 -0.3008
  161MOL0     C21626   4.652   9.822   9.811  0.4064 -0.7613 -0.5260
  161MOL0     C21627   4.571   9.820   9.928  0.4970  0.1290  0.3601
  161MOL0     C21628   4.455   9.916   9.927 -0.0780 -0.1447 -0.0562
  161MOL0     C21629   4.608   9.733  10.031  0.1554 -0.1633 -0.1085
  161MOL0     C21630   4.540   9.714  10.168 -0.5782 -0.5534 -0.4729
  161MOL0     O21631   4.615   9.655  10.259 -0.1340 -0.8600 -0.4835
  161MOL0     C21632   4.547   9.638  10.378 -0.7117  0.0200 -0.0959
  161MOL0     C21633   4.502   9.508  10.413 -0.4505  0.4753  0.5467
  161MOL0     C21634   4.443   9.481  10.537  0.0937 -0.9113 -0.3809
  161MOL0     C21635   4.430   9.586  10.630 -0.4685 -0.1849  0.2736
  161MOL0     O21636   4.340   9.587  10.738  0.3885  0.5110 -0.0432
  161MOL0     C21637   4.303   9.466  10.809 -0.1432 -0.8011 -0.5251
  161MOL0     C21638   4.159   9.416  10.809  0.0202  0.7936 -0.8988
  161MOL0     C21639   4.110   9.391  10.675  0.0789 -0.4465  1.0226
  161MOL0     C21640   3.985   9.319  10.686 -0.9281  0.0008 -1.7515
  161MOL0     C21641   3.859   9.390  10.730 -0.4287 -0.2506  0.1845
  161MOL0     C21642   3.752   9.282  10.763 -0.6730 -0.5137 -0.3427
  161MOL0     C21643   3.609   9.347  10.808 -0.6580  0.1811 -0.4863
  161MOL0     C21644   3.519   9.363  10.689 -0.0967 -0.6349 -0.6839
  161MOL0    Cl21645   3.546   9.516  10.598  0.5427  0.3043 -0.1270
  161MOL0     C21646   4.469   9.713  10.593 -0.0926 -0.8194 -0.3156
  161MOL0     C21647   4.545   9.736  10.474  0.4227  0.3183  0.7762
  161MOL0     O21648   4.423   9.760  10.184  0.2109  0.2208 -0.1717
  161MOL0     C21649   4.722   9.653  10.013 -0.2573 -0.7844  0.3150
  161MOL0     C21650   4.797   9.656   9.894  0.5645  0.1802  0.3029
  161MOL0     N21651   5.084   9.532   9.192  0.2689  0.1899  0.3631
  161MOL0     N21652   5.132   9.587   9.082  0.1715 -0.1161 -0.0508
  161MOL0     C21653   6.473   9.665   9.012  0.3292  0.1742  0.3083
  161MOL0     C21654   6.602   9.629   8.979  0.4605  0.3688 -0.0251
  161MOL0     C21655   7.049   9.653   9.035  0.1400 -0.1623 -0.9484
  161MOL0     C21656   7.122   9.682   8.921 -0.5579  0.5320 -0.0203
  161MOL0     C21657   7.248   9.619   8.903  0.1962  0.6336 -0.2207
  161MOL0     C21658   7.312   9.549   9.003  1.3565  0.1759 -0.2020
  161MOL0     O21659   7.437   9.499   8.977 -0.3887  0.0292 -0.3010
  161MOL0     C21660   7.522   9.484   9.091  0.1224 -0.1407  0.2415
  161MOL0     C21661   7.659   9.427   9.050 -1.1459  0.7998  0.2320
  161MOL0     C21662   7.763   9.425   9.157 -0.0512 -0.0969  0.2880
  161MOL0     C21663   7.816   9.571   9.177 -0.8824  0.7106 -0.4671
  161MOL0     C21664   7.935   9.554   9.265  0.3508 -0.1793  0.7085
  161MOL0     C21665   8.028   9.527   9.340 -0.0721 -0.7276 -0.7964
  161MOL0     C21666   7.245   9.536   9.124 -0.3196 -0.1331  0.3845
  161MOL0     C21667   7.113   9.579   9.142  0.5043 -1.0894  0.7525
  161MOL0     H21668   6.726   9.922   8.863 -1.4899  0.0790 -3.5870
  161MOL0     H21669   6.502   9.985   8.886 -0.8596 -0.0022  1.3835
  161MOL0     H21670   6.195   9.713   8.849 -1.3918  0.6781 -0.2568
  161MOL0     H21671   6.208   9.665   9.018 -1.3052  0.8438  2.2244
  161MOL0     H21672   6.038   9.816   9.078 -2.7134 -1.4184  0.0164
  161MOL0     H21673   6.045   9.907   8.922 -0.1468 -0.1088  0.8732
  161MOL0     H21674   5.930   9.730   8.812 -3.6995  0.5937 -1.4348
  161MOL0     H21675   5.954   9.626   8.965 -2.3669  0.9017  0.7388
  161MOL0     H21676   5.801   9.769   9.086  2.6820  2.3180  0.6643
  161MOL0     H21677   5.808   9.890   8.950 -2.8319  0.9504  1.6609
  161MOL0     H21678   5.681   9.751   8.814  2.5991 -1.3790 -0.0630
  161MOL0     H21679   5.680   9.621   8.924  5.2275  0.0923  1.3259
  161MOL0     H21680   5.562   9.775   9.104  1.3929  0.9146  0.3466
  161MOL0     H21681   5.556   9.900   8.988 -0.6917 -0.0403 -0.2473
  161MOL0     H21682   5.416   9.769   8.845  1.8944  1.1725  0.0241
  161MOL0     H21683   5.434   9.622   8.956 -2.1157 -0.8949  1.7572
  161MOL0     H21684   5.208   9.799   8.975 -2.7286 -0.5715  2.3006
  161MOL0     H21685   5.319   9.852   9.103  1.1918 -0.6391  0.2777
  161MOL0     H21686   5.335   9.693   9.326  1.2520 -0.0183 -2.0337
  161MOL0     H21687   5.081   9.420   9.418  0.5463 -0.3326 -1.7806
  161MOL0     H21688   5.230   9.496   9.492 -0.2703 -0.0153  0.7420
  161MOL0     H21689   5.101   9.712   9.523 -3.5898  0.6051 -2.3250
  161MOL0     H21690   5.054   9.588   9.634 -4.2570 -1.7598  0.4431
  161MOL0     H21691   4.886   9.559   9.408  0.2596 -0.0233  0.4868
  161MOL0     H21692   4.927   9.733   9.412  1.8245 -1.0241 -0.8430
  161MOL0     H21693   4.784   9.560   9.621  4.7544 -1.6482 -0.5678
  161MOL0     H21694   4.711   9.683   9.529  0.3461  1.0834  0.6748
  161MOL0     H21695   4.620   9.897   9.741  1.5635  2.5271  2.1863
  161MOL0     H21696   4.364   9.856   9.938 -1.2059  1.8493  2.4920
  161MOL0     H21697   4.460   9.980  10.015 -4.7260 -2.4655  2.2436
  161MOL0     H21698   4.464   9.976   9.836  1.2145  1.0353  0.7929
  161MOL0     H21699   4.501   9.419  10.351 -3.9338  0.0206  1.0171
  161MOL0     H21700   4.388   9.388  10.547 -0.0073 -0.9477 -1.2384
  161MOL0     H21701   4.368   9.383  10.778 -0.7599 -2.0716  1.4400
  161MOL0     H21702   4.328   9.489  10.912  0.7703  3.8472 -1.5772
  161MOL0     H21703   4.149   9.326  10.871 -0.7090  3.0401  2.5384
  161MOL0     H21704   4.096   9.489  10.860 -0.6168 -0.3497  0.0148
  161MOL0     H21705   4.181   9.333  10.615 -1.1988 -0.5243 -0.4586
  161MOL0     H21706   4.079   9.485  10.628 -1.6970 -1.1541  0.7227
  161MOL0     H21707   3.961   9.262  10.596 -3.6484 -2.9283  0.5579
  161MOL0     H21708   4.005   9.233  10.752  1.0896  0.2867 -1.9247
  161MOL0     H21709   3.819   9.450  10.649 -1.2106  0.0076  0.7511
  161MOL0     H21710   3.874   9.454  10.818  0.3160  0.5327 -0.4968
  161MOL0     H21711   3.748   9.218  10.675  4.8134 -1.6094 -0.0972
  161MOL0     H21712   3.792   9.224  10.847  0.1730  1.0600  0.3894
  161MOL0     H21713   3.634   9.443  10.853  0.0246  0.3754 -1.2496
  161MOL0     H21714   3.571   9.280  10.885 -2.0740  0.6232 -0.7655
  161MOL0     H21715   3.424   9.362  10.743  0.9744  1.7945  1.4189
  161MOL0     H21716   3.526   9.274  10.625  1.5102  0.8071 -2.6400
  161MOL0     H21717   4.457   9.790  10.669 -3.7158 -2.0206  0.5296
  161MOL0     H21718   4.588   9.832  10.447 -1.6831  2.4059  4.1463
  161MOL0     H21719   4.756   9.583  10.089  0.0775 -0.9548  0.0144
  161MOL0     H21720   4.889   9.598   9.893  1.1013  0.8650  3.1332
  161MOL0     H21721   6.407   9.584   9.040 -0.0629  1.2808  2.8598
  161MOL0     H21722   6.625   9.525   8.999 -1.5973  0.2098  1.7489
  161MOL0     H21723   7.078   9.720   8.829 -1.9778 -2.2228 -0.6033
  161MOL0     H21724   7.301   9.632   8.809  1.0323 -0.1067  0.1310
  161MOL0     H21725   7.536   9.583   9.136 -1.3241 -1.4373  3.8809
  161MOL0     H21726   7.481   9.422   9.171 -2.3270  0.7311 -0.2481
  161MOL0     H21727   7.707   9.476   8.965  1.2674 -0.1982  0.9289
  161MOL0     H21728   7.645   9.320   9.029  1.7475 -0.2271  2.7228
  161MOL0     H21729   7.842   9.353   9.135  0.3962 -0.1059  1.8324
  161MOL0     H21730   7.719   9.395   9.252  0.2457  0.2548  0.5389
  161MOL0     H21731   7.741   9.633   9.227 -4.2441 -2.6679 -0.8532
  161MOL0     H21732   7.841   9.624   9.085 -0.4166 -0.4307 -1.0157
  161MOL0     H21733   8.099   9.502   9.417  1.5679  1.3804 -1.5136
  161MOL0     H21734   7.292   9.484   9.207  3.3762  0.1440 -1.3118
  161MOL0     H21735   7.055   9.573   9.234  0.0384  1.9383  0.7452
  162MOL0     O21736   4.452   7.833   5.051 -0.6996  0.2008  0.0200
  162MOL0     C21737   4.516   7.910   5.120  0.3922 -0.5569  0.5796
  162MOL0     O21738   4.612   7.996   5.072 -0.4218 -0.2236  0.8743
  162MOL0     C21739   4.620   8.034   4.931  0.7527 -0.0840  0.0938
  162MOL0     C21740   4.594   7.947   4.826  0.4671 -0.6722 -0.7612
  162MOL0     C21741   4.619   7.983   4.698 -1.1332  0.4442  0.4365
  162MOL0     C21742   4.674   8.106   4.670 -0.1462 -0.2450  0.2316
  162MOL0     O21743   4.693   8.124   4.537  0.4486  0.1198 -0.1524
  162MOL0     C21744   4.748   8.244   4.489 -0.9028 -1.0667 -0.3256
  162MOL0     C21745   4.816   8.223   4.361 -0.8104 -0.1306 -0.4662
  162MOL0     C21746   4.919   8.113   4.365 -0.2001  0.8406 -0.3758
  162MOL0     C21747   5.025   8.134   4.266 -0.2946  0.2551  0.2916
  162MOL0     C21748   5.128   8.022   4.251 -0.4626  0.4305  0.3854
  162MOL0     C21749   5.084   7.875   4.223  0.1498  0.7474 -0.1328
  162MOL0     C21750   5.034   7.856   4.076  1.0003  0.0430  0.0847
  162MOL0     C21751   4.949   7.733   4.064  0.4438  0.1223 -0.1423
  162MOL0     N21752   4.917   7.704   3.925 -0.0203 -0.0765 -0.6396
  162MOL0     C21753   4.799   7.653   3.882  0.3886 -0.2726 -0.0369
  162MOL0     C21754   4.821   7.599   3.758 -0.1017  0.1157  0.2584
  162MOL0     C21755   4.711   7.531   3.670 -0.4649 -0.3798  0.7815
  162MOL0     C21756   4.692   7.373   3.677  0.1530 -0.2638  0.2159
  162MOL0     C21757   4.811   7.290   3.636 -0.6790 -0.2394 -0.0447
  162MOL0     C21758   4.789   7.143   3.659  0.0033  1.2010 -0.5682
  162MOL0     O21759   4.747   7.117   3.799 -0.2823  0.4148 -0.0184
  162MOL0     C21760   4.730   6.983   3.833  1.0861  0.1419 -0.0652
  162MOL0     C21761   4.782   6.950   3.954  0.5724  0.1354 -0.1030
  162MOL0     C21762   4.791   6.817   4.004 -0.4347 -0.8558 -0.1404
  162MOL0     C21763   4.836   6.807   4.146  0.1143  0.6566  0.5092
  162MOL0     C21764   4.747   6.716   3.923 -0.2435  0.4843  0.4529
  162MOL0     C21765   4.765   6.576   3.969  0.6571  0.5574 -0.3128
  162MOL0     O21766   4.654   6.503   4.013 -0.8532  1.0656 -0.0908
  162MOL0     C21767   4.661   6.370   4.060  0.1719  0.5008 -0.3998
  162MOL0     C21768   4.775   6.323   4.132  0.1671  0.8868 -0.5736
  162MOL0     C21769   4.777   6.204   4.206  0.0844  0.6906  0.7897
  162MOL0     C21770   4.670   6.112   4.168 -0.0102  0.7978  0.1971
  162MOL0     O21771   4.667   5.984   4.207  0.6512 -0.3245  0.4403
  162MOL0     C21772   4.781   5.931   4.273  0.2520 -0.3618  1.7856
  162MOL0     C21773   4.773   5.780   4.313 -0.9556  0.7270  0.1299
  162MOL0     C21774   4.895   5.734   4.391 -0.6474  0.1754 -1.0721
  162MOL0     C21775   5.032   5.750   4.322 -0.0760  0.7700  0.0271
  162MOL0     C21776   5.157   5.697   4.401 -0.1742 -0.1264  0.5034
  162MOL0     C21777   5.296   5.731   4.337  0.7499  0.4377  0.2664
  162MOL0     C21778   5.412   5.706   4.433 -0.0832 -0.4013  0.1216
  162MOL0     C21779   5.538   5.726   4.363 -0.1328  0.0831  0.3891
  162MOL0    Cl21780   5.567   5.895   4.321 -0.6691  0.3253  0.2055
  162MOL0     C21781   4.556   6.148   4.084  0.1895 -0.2391 -0.5054
  162MOL0     C21782   4.556   6.281   4.037 -0.3372  0.4887 -0.5264
  162MOL0     O21783   4.879   6.529   3.951 -0.1020  0.0314  0.0753
  162MOL0     C21784   4.711   6.742   3.787  0.7119  0.0684  0.5464
  162MOL0     C21785   4.696   6.877   3.746  0.4873  0.2474 -0.4981
  162MOL0     N21786   4.954   7.632   3.721 -0.3224 -0.0051  0.0280
  162MOL0     N21787   5.010   7.689   3.827  0.1994 -0.1202  0.8483
  162MOL0     C21788   4.690   8.203   4.775 -0.1086 -0.1752  0.2969
  162MOL0     C21789   4.661   8.162   4.908 -0.5773 -0.5248 -0.0136
  162MOL0     C21790   4.470   7.921   5.272  0.2514  0.2609 -0.4531
  162MOL0     C21791   4.559   7.992   5.355 -0.5903  0.5250  0.2831
  162MOL0     C21792   4.539   7.991   5.499 -0.8643  0.2612 -0.3872
  162MOL0     C21793   4.425   7.929   5.559 -0.3608 -0.2544  0.5065
  162MOL0     O21794   4.393   7.918   5.690  0.6152 -0.2847 -0.2141
  162MOL0     C21795   4.476   7.997   5.775  0.0293 -0.0106 -0.4384
  162MOL0     C21796   4.409   8.022   5.912  1.3399 -0.5022  0.1428
  162MOL0     C21797   4.350   7.900   5.988  1.3153  0.5691 -0.0813
  162MOL0     C21798   4.270   7.941   6.114  0.0988 -0.7525  0.4793
  162MOL0     C21799   4.214   7.825   6.193  0.0023 -0.2616  0.0915
  162MOL0     C21800   4.166   7.725   6.243 -0.8670  1.2226  0.9327
  162MOL0     C21801   4.331   7.869   5.465 -0.6714  0.0126 -0.2789
  162MOL0     C21802   4.349   7.875   5.322 -0.9540 -0.0607  0.9651
  162MOL0     H21803   4.561   7.845   4.841  0.3601 -1.2591 -4.1515
  162MOL0     H21804   4.615   7.906   4.622 -0.5069  1.5948 -0.7981
  162MOL0     H21805   4.668   8.319   4.484  0.6094  0.8369  1.7033
  162MOL0     H21806   4.820   8.281   4.563 -0.3608 -1.7041 -0.5244
  162MOL0     H21807   4.746   8.195   4.282  0.7944 -4.6781 -0.5587
  162MOL0     H21808   4.862   8.316   4.326 -0.4488 -0.0845  0.1096
  162MOL0     H21809   4.960   8.112   4.467 -1.1799  1.1315  0.0298
  162MOL0     H21810   4.869   8.019   4.342 -1.4599  1.2106  0.7177
  162MOL0     H21811   4.975   8.157   4.171  2.0970  1.5026 -0.7378
  162MOL0     H21812   5.087   8.220   4.289  2.3948 -1.3630 -0.4337
  162MOL0     H21813   5.208   8.044   4.180 -0.3748 -2.0012 -0.3683
  162MOL0     H21814   5.176   8.002   4.347 -3.4409 -0.0712  1.9117
  162MOL0     H21815   5.180   7.824   4.233  0.7652  1.2000 -2.8363
  162MOL0     H21816   5.015   7.827   4.293  0.1751 -0.2373 -0.7666
  162MOL0     H21817   4.974   7.945   4.054  1.1440  0.4840  1.3680
  162MOL0     H21818   5.109   7.862   3.997 -0.0026  2.3968 -0.7706
  162MOL0     H21819   4.851   7.742   4.111 -0.9281  2.6088 -3.1034
  162MOL0     H21820   4.996   7.644   4.106 -0.5696  0.6051  2.1800
  162MOL0     H21821   4.703   7.639   3.931 -0.0115  1.4644 -0.2552
  162MOL0     H21822   4.620   7.583   3.700 -0.0646  2.2627 -2.0811
  162MOL0     H21823   4.736   7.562   3.568  0.0795 -1.0044  0.7185
  162MOL0     H21824   4.607   7.351   3.611 -2.7994  2.4241  2.8162
  162MOL0     H21825   4.674   7.346   3.781  1.8630  0.2712  0.6932
  162MOL0     H21826   4.904   7.326   3.681 -0.7222 -0.9745  0.6540
  162MOL0     H21827   4.831   7.303   3.529 -0.8370  0.4229  0.0002
  162MOL0     H21828   4.881   7.093   3.627  0.2802 -1.4168  3.5507
  162MOL0     H21829   4.709   7.109   3.593  0.4483 -0.3707 -0.3285
  162MOL0     H21830   4.814   7.036   4.012 -0.4836  1.5976 -1.5999
  162MOL0     H21831   4.916   6.733   4.140  1.2280  1.5883  2.8210
  162MOL0     H21832   4.880   6.897   4.191  1.0190  0.3118  0.3334
  162MOL0     H21833   4.752   6.769   4.205  0.0690  0.4342  0.3010
  162MOL0     H21834   4.837   6.406   4.165  1.1609 -0.1078  0.1148
  162MOL0     H21835   4.863   6.181   4.268  2.3461 -1.0221 -2.6978
  162MOL0     H21836   4.870   5.945   4.212 -1.6385 -1.7036 -1.5877
  162MOL0     H21837   4.788   5.990   4.365 -1.7377  0.2158  1.6243
  162MOL0     H21838   4.690   5.767   4.382 -0.2262  0.2469  0.9302
  162MOL0     H21839   4.747   5.707   4.235 -5.4962 -0.0287  2.0223
  162MOL0     H21840   4.883   5.626   4.408 -0.0858  0.5208  2.2240
  162MOL0     H21841   4.891   5.776   4.492  2.0278  2.7102 -1.8651
  162MOL0     H21842   5.015   5.691   4.231 -0.3649  0.1795  0.4555
  162MOL0     H21843   5.052   5.854   4.295 -0.0179  0.7206 -0.1219
  162MOL0     H21844   5.141   5.591   4.419 -4.0948 -0.1683 -2.0330
  162MOL0     H21845   5.157   5.752   4.496 -0.7146 -0.7649  0.8844
  162MOL0     H21846   5.301   5.668   4.248  0.3943 -1.5690  1.6141
  162MOL0     H21847   5.278   5.837   4.317 -2.8913 -0.1165 -0.0015
  162MOL0     H21848   5.408   5.609   4.484  2.1878 -0.4962  0.2467
  162MOL0     H21849   5.411   5.784   4.509 -1.1955 -0.0398 -0.2529
  162MOL0     H21850   5.537   5.663   4.273 -0.1856 -1.4190  1.4072
  162MOL0     H21851   5.612   5.685   4.432  2.6018 -0.0539 -2.3889
  162MOL0     H21852   4.477   6.076   4.065  0.3368 -0.1790 -1.4081
  162MOL0     H21853   4.467   6.315   3.985  0.0536  0.4888 -1.2212
  162MOL0     H21854   4.686   6.668   3.711  2.7734 -0.0693 -0.0661
  162MOL0     H21855   4.652   6.903   3.651  1.7426  2.2762 -0.5857
  162MOL0     H21856   4.729   8.302   4.753  0.5864 -0.2265  1.2381
  162MOL0     H21857   4.679   8.230   4.991 -1.8057  1.9319 -1.6270
  162MOL0     H21858   4.644   8.049   5.320 -0.2500  1.2330  2.1219
  162MOL0     H21859   4.619   8.038   5.555 -1.8638  2.0216 -0.3403
  162MOL0     H21860   4.566   7.939   5.792  0.2816  0.2718 -0.7966
  162MOL0     H21861   4.491   8.095   5.729 -1.2951 -0.1825 -1.2928
  162MOL0     H21862   4.326   8.090   5.891 -0.5794 -2.8162 -0.1265
  162MOL0     H21863   4.478   8.072   5.981  2.5068  0.0869 -1.3964
  162MOL0     H21864   4.424   7.825   6.016  0.1649 -1.2886 -1.7740
  162MOL0     H21865   4.274   7.854   5.925  1.0953  2.2863 -1.1347
  162MOL0     H21866   4.178   7.990   6.082  2.5455  3.6039 -0.6681
  162MOL0     H21867   4.332   8.010   6.172 -0.3720 -2.2225  2.8655
  162MOL0     H21868   4.123   7.642   6.296 -1.8153  1.2103  0.1776
  162MOL0     H21869   4.243   7.833   5.518 -0.2257 -0.8247 -0.0988
  162MOL0     H21870   4.268   7.840   5.259  0.4802  0.5152 -1.3331
  163MOL0     O21871  10.199   2.533   5.773 -0.5228 -0.2060  0.2799
  163MOL0     C21872  10.293   2.501   5.695 -0.4264  0.2608 -0.3674
  163MOL0     O21873  10.329   2.371   5.676 -0.2966 -0.6219 -0.4017
  163MOL0     C21874  10.230   2.274   5.691  0.5025 -0.1580  0.6039
  163MOL0     C21875  10.266   2.147   5.739 -0.1173 -0.4596  0.5646
  163MOL0     C21876  10.170   2.046   5.738 -0.8620 -0.9379  0.9117
  163MOL0     C21877  10.036   2.064   5.694  0.2872 -0.2176  0.3425
  163MOL0     O21878   9.952   1.956   5.707  0.5831  0.2544  0.4884
  163MOL0     C21879   9.838   1.971   5.778  0.2590 -0.0887 -0.3232
  163MOL0     C21880   9.789   1.834   5.820  0.2304  0.0021 -0.6157
  163MOL0     C21881   9.809   1.712   5.729  0.1584 -0.2268  0.0010
  163MOL0     C21882   9.722   1.597   5.787 -0.5316 -1.0418  0.1101
  163MOL0     C21883   9.750   1.469   5.718  0.3451  0.1705  0.4814
  163MOL0     C21884   9.646   1.366   5.763  0.2303 -0.6543 -0.4309
  163MOL0     C21885   9.505   1.375   5.699 -0.4885 -0.0623 -0.1335
  163MOL0     C21886   9.521   1.363   5.540  0.6718  0.6303  0.5137
  163MOL0     N21887   9.406   1.283   5.490 -0.0835 -0.4404  0.0917
  163MOL0     C21888   9.297   1.340   5.431 -0.2492 -0.4738  0.2545
  163MOL0     C21889   9.224   1.225   5.391 -0.8961  0.0993 -0.1470
  163MOL0     C21890   9.075   1.228   5.344 -0.0893 -0.4556 -0.0137
  163MOL0     C21891   9.053   1.358   5.259 -0.1523  0.0921 -1.0028
  163MOL0     C21892   8.912   1.379   5.220  0.2902  0.5573 -0.3593
  163MOL0     C21893   8.898   1.501   5.138 -0.0307 -0.4367  0.1932
  163MOL0     O21894   8.761   1.495   5.102 -0.0250  0.3686  0.3117
  163MOL0     C21895   8.727   1.544   4.977 -0.2561 -0.1254 -0.2932
  163MOL0     C21896   8.733   1.683   4.941  0.1883 -0.2821  0.2471
  163MOL0     C21897   8.691   1.724   4.816 -0.2524  0.6117 -0.3325
  163MOL0     C21898   8.700   1.869   4.777  0.1550 -0.5758  0.6188
  163MOL0     C21899   8.633   1.632   4.724 -0.6540  0.6172 -0.2734
  163MOL0     C21900   8.621   1.657   4.578  0.1816 -0.0943 -0.0965
  163MOL0     O21901   8.707   1.741   4.509 -0.2884  0.7121 -0.0545
  163MOL0     C21902   8.711   1.734   4.369 -0.7509  0.4163 -0.6526
  163MOL0     C21903   8.685   1.851   4.304 -0.3982 -0.6472  0.1510
  163MOL0     C21904   8.691   1.875   4.169 -0.6421  0.1902 -1.0954
  163MOL0     C21905   8.723   1.773   4.079  0.6002 -0.3356  0.4234
  163MOL0     O21906   8.737   1.785   3.945  1.0543 -0.6198  0.1569
  163MOL0     C21907   8.823   1.712   3.859  0.9999 -0.1931 -0.2309
  163MOL0     C21908   8.963   1.768   3.869  0.2608 -0.3099  0.1272
  163MOL0     C21909   9.054   1.702   3.782 -1.6426 -0.0229  1.3755
  163MOL0     C21910   9.067   1.547   3.794 -0.2744 -0.2998  0.6989
  163MOL0     C21911   9.117   1.490   3.931  0.2369  0.1369 -0.3470
  163MOL0     C21912   9.265   1.527   3.954  0.6526 -1.2544  0.1811
  163MOL0     C21913   9.320   1.492   4.085  0.5179  0.8147  0.0239
  163MOL0     C21914   9.456   1.551   4.131 -0.6817 -0.9516 -0.5593
  163MOL0    Cl21915   9.588   1.557   4.001  0.2145  0.3104 -0.3773
  163MOL0     C21916   8.739   1.643   4.147  0.3569 -0.0489 -0.3040
  163MOL0     C21917   8.728   1.623   4.289 -0.5976 -0.3516  0.7485
  163MOL0     O21918   8.518   1.600   4.529  0.1643 -0.5644  1.1740
  163MOL0     C21919   8.611   1.503   4.771 -0.2818  0.2730  0.0880
  163MOL0     C21920   8.661   1.451   4.889 -0.1566 -0.7163  0.2493
  163MOL0     N21921   9.309   1.111   5.402 -0.5639 -0.0500  0.4117
  163MOL0     N21922   9.410   1.147   5.478  0.6641 -0.6147  0.7241
  163MOL0     C21923  10.002   2.189   5.650  0.3830 -0.5621  0.1621
  163MOL0     C21924  10.100   2.292   5.638 -0.1471  0.9744  0.1677
  163MOL0     C21925  10.384   2.606   5.649 -0.5478 -0.3096  0.3837
  163MOL0     C21926  10.361   2.740   5.677 -0.1306 -0.7352 -0.4993
  163MOL0     C21927  10.462   2.840   5.653 -0.3031 -0.4006  0.1121
  163MOL0     C21928  10.587   2.804   5.600  0.4822 -0.4567  0.4844
  163MOL0     O21929  10.697   2.883   5.601 -0.2765 -0.2227 -0.3414
  163MOL0     C21930  10.694   2.991   5.698  0.6073 -0.5337  0.9368
  163MOL0     C21931  10.821   3.073   5.710 -0.6817 -0.3159 -1.0301
  163MOL0     C21932  10.927   3.004   5.810 -0.5450 -0.5926  0.3036
  163MOL0     C21933  11.048   3.103   5.825  0.2234  0.3547  0.1055
  163MOL0     C21934  11.144   3.092   5.720  0.4288  0.2201  0.1136
  163MOL0     C21935  11.233   3.097   5.638 -0.7794 -0.5644 -0.0614
  163MOL0     C21936  10.606   2.671   5.569 -0.4318  0.2179 -0.6590
  163MOL0     C21937  10.503   2.574   5.591  0.0390  0.5369  0.2823
  163MOL0     H21938  10.365   2.120   5.774  2.0233  1.9158 -3.0019
  163MOL0     H21939  10.200   1.945   5.763  1.5579 -0.1088  1.6828
  163MOL0     H21940   9.836   2.037   5.864  0.8872 -1.4251  0.7652
  163MOL0     H21941   9.755   2.012   5.720 -1.7950 -4.0034 -0.5423
  163MOL0     H21942   9.844   1.824   5.914 -0.9177 -1.5038 -0.0497
  163MOL0     H21943   9.683   1.821   5.847  1.4713 -4.8538  3.4737
  163MOL0     H21944   9.797   1.731   5.622  2.8311 -3.6725 -1.1018
  163MOL0     H21945   9.912   1.674   5.729  0.2123 -0.0822  0.2030
  163MOL0     H21946   9.734   1.595   5.895  3.2110 -0.2022 -0.1771
  163MOL0     H21947   9.618   1.630   5.777  0.3817  2.3604  0.5781
  163MOL0     H21948   9.756   1.491   5.611  1.6687 -0.5006  0.4061
  163MOL0     H21949   9.849   1.430   5.741  0.0555 -1.6807 -1.1277
  163MOL0     H21950   9.682   1.265   5.739 -0.3629 -0.4366 -2.4120
  163MOL0     H21951   9.624   1.371   5.870  2.3489  1.9835 -0.0297
  163MOL0     H21952   9.451   1.289   5.740 -1.7089  1.2771  1.1964
  163MOL0     H21953   9.448   1.465   5.724 -0.7836 -0.2061 -0.2800
  163MOL0     H21954   9.610   1.315   5.497 -0.9525 -1.2511 -0.9198
  163MOL0     H21955   9.511   1.465   5.503 -3.8738 -0.6505 -2.7033
  163MOL0     H21956   9.266   1.444   5.442 -0.5090 -0.0187 -3.5657
  163MOL0     H21957   9.047   1.139   5.285 -1.9645 -0.7430  1.2270
  163MOL0     H21958   9.010   1.236   5.431 -1.2041  1.0846 -0.9396
  163MOL0     H21959   9.105   1.345   5.164 -0.9647  2.5986 -1.8637
  163MOL0     H21960   9.087   1.452   5.305 -3.4172  1.5894 -1.4085
  163MOL0     H21961   8.860   1.413   5.311 -0.3568  0.1181 -0.5620
  163MOL0     H21962   8.869   1.285   5.184  2.0825 -0.8914  1.1376
  163MOL0     H21963   8.956   1.486   5.046 -1.3845 -0.8767 -0.6218
  163MOL0     H21964   8.941   1.590   5.183  5.5388 -0.9352 -3.2326
  163MOL0     H21965   8.773   1.756   5.010 -1.3744 -0.5442  1.4855
  163MOL0     H21966   8.709   1.938   4.862  2.4017 -0.6048  0.4620
  163MOL0     H21967   8.789   1.896   4.720  2.1560 -2.7596  2.4780
  163MOL0     H21968   8.606   1.890   4.725  1.3522  1.8090 -0.7431
  163MOL0     H21969   8.662   1.942   4.359  2.0587  0.5430 -0.6758
  163MOL0     H21970   8.665   1.977   4.142  2.0220  1.0026 -0.9264
  163MOL0     H21971   8.839   1.608   3.891 -0.8760  0.2671  2.5403
  163MOL0     H21972   8.789   1.716   3.755  1.2285 -0.7095 -0.3285
  163MOL0     H21973   8.947   1.874   3.846  2.7892 -0.4896 -3.0762
  163MOL0     H21974   8.998   1.768   3.973  0.2519  0.2082  0.1311
  163MOL0     H21975   9.152   1.745   3.804 -1.7469  1.3996 -0.6907
  163MOL0     H21976   9.031   1.712   3.675  1.3985  2.6890  0.8158
  163MOL0     H21977   8.975   1.503   3.753 -0.7101  2.7915 -2.0794
  163MOL0     H21978   9.138   1.525   3.713 -1.6360  1.3388 -1.0516
  163MOL0     H21979   9.103   1.382   3.925 -0.6011  0.2947 -1.8207
  163MOL0     H21980   9.059   1.519   4.019 -0.0228 -0.5137 -0.2972
  163MOL0     H21981   9.326   1.482   3.875 -0.1750  0.9511 -1.8394
  163MOL0     H21982   9.272   1.635   3.942  0.9179 -1.3321 -0.4114
  163MOL0     H21983   9.327   1.382   4.090 -3.5871  0.3689 -0.5989
  163MOL0     H21984   9.252   1.518   4.166  0.2867 -1.1502  0.5120
  163MOL0     H21985   9.499   1.491   4.212 -0.8615 -1.0990 -0.5741
  163MOL0     H21986   9.442   1.650   4.176 -2.5310 -0.6102 -1.7639
  163MOL0     H21987   8.760   1.561   4.079 -1.5458  0.2791 -1.3311
  163MOL0     H21988   8.736   1.524   4.334  0.5305 -0.6705 -0.1114
  163MOL0     H21989   8.555   1.445   4.699 -2.0412  1.2531  0.6150
  163MOL0     H21990   8.658   1.345   4.916  1.2686 -0.4030  1.8249
  163MOL0     H21991   9.908   2.202   5.598  0.7513 -2.4184 -1.0971
  163MOL0     H21992  10.077   2.388   5.593 -1.9516  0.8158  0.6861
  163MOL0     H21993  10.271   2.778   5.725  0.3988 -1.5561  1.2309
  163MOL0     H21994  10.429   2.941   5.675 -1.7529 -0.8031 -0.0862
  163MOL0     H21995  10.614   3.052   5.655 -0.9377 -2.6937  0.5284
  163MOL0     H21996  10.664   2.958   5.799 -1.3416  0.7593  0.8495
  163MOL0     H21997  10.803   3.174   5.747 -0.1413  0.2683 -2.2911
  163MOL0     H21998  10.862   3.073   5.608  2.1505 -2.7674 -0.0447
  163MOL0     H21999  10.968   2.912   5.767 -1.1774 -1.0427  0.6475
  163MOL0     H22000  10.877   2.986   5.905 -1.1062 -1.4851 -0.1456
  163MOL0     H22001  11.099   3.082   5.919  2.9581 -1.0385 -1.5533
  163MOL0     H22002  11.017   3.208   5.828  0.3085  0.3855 -0.0882
  163MOL0     H22003  11.314   3.106   5.569  0.0916 -0.3522  0.9695
  163MOL0     H22004  10.700   2.645   5.521  1.3879  1.6256  1.9215
  163MOL0     H22005  10.533   2.472   5.572  0.7968  0.4603  1.7004
  164MOL0     O22006   8.854   9.524  10.090  0.9855  0.7817  0.4115
  164MOL0     C22007   8.736   9.499  10.102  1.2964 -0.0465  0.4573
  164MOL0     O22008   8.676   9.375  10.065  0.5793 -0.5123  0.2757
  164MOL0     C22009   8.744   9.287   9.987  0.6048 -0.6911 -0.0218
  164MOL0     C22010   8.737   9.157  10.016  0.2723  1.2036 -0.5408
  164MOL0     C22011   8.815   9.058   9.945 -0.0186  0.0155  0.2082
  164MOL0     C22012   8.912   9.102   9.844  0.1203  0.0741 -0.4827
  164MOL0     O22013   8.984   9.017   9.773 -0.3627 -0.2700  0.2861
  164MOL0     C22014   8.982   8.875   9.793  0.6547 -0.4163  0.5031
  164MOL0     C22015   9.099   8.807   9.722 -0.3623 -0.2578  0.4534
  164MOL0     C22016   9.103   8.819   9.570 -0.6248 -0.3630 -0.9582
  164MOL0     C22017   8.971   8.781   9.509  0.2875 -0.2431 -0.7918
  164MOL0     C22018   8.981   8.794   9.352  0.6044 -0.0107 -0.4414
  164MOL0     C22019   8.866   8.726   9.296  0.6938  1.1658 -0.6346
  164MOL0     C22020   8.847   8.736   9.143 -0.1682  0.3101 -0.0671
  164MOL0     C22021   8.705   8.690   9.107  0.1517 -0.7469 -0.2296
  164MOL0     N22022   8.662   8.568   9.183  0.3909 -0.4675 -0.3002
  164MOL0     C22023   8.682   8.429   9.167 -0.0898  0.2784  1.1307
  164MOL0     C22024   8.610   8.370   9.262  0.0812  0.1406 -0.1019
  164MOL0     C22025   8.588   8.222   9.287  0.9717  0.7402  0.3484
  164MOL0     C22026   8.703   8.137   9.355 -0.1225 -0.3002  0.7178
  164MOL0     C22027   8.694   7.989   9.327 -0.1415  0.1685  0.5879
  164MOL0     C22028   8.556   7.924   9.334 -0.0543  0.0140  0.5190
  164MOL0     O22029   8.480   7.956   9.217  0.0737  0.3685  0.1780
  164MOL0     C22030   8.372   7.872   9.179  0.2641 -0.2189 -0.4312
  164MOL0     C22031   8.321   7.770   9.261  0.4385 -0.3676 -0.2414
  164MOL0     C22032   8.202   7.699   9.224  0.4166 -0.8483 -0.5042
  164MOL0     C22033   8.160   7.601   9.327  0.3540  0.6261  0.0383
  164MOL0     C22034   8.139   7.730   9.098 -0.9365  0.7813  0.7422
  164MOL0     C22035   8.006   7.672   9.055 -0.2455 -0.5836 -0.6068
  164MOL0     O22036   7.916   7.758   8.990 -0.4005  0.5451 -0.8016
  164MOL0     C22037   7.789   7.712   9.000 -0.5176 -0.0104 -0.7319
  164MOL0     C22038   7.737   7.641   8.896 -0.2262  0.8883  1.4878
  164MOL0     C22039   7.599   7.599   8.899 -0.3765 -0.1460 -0.2172
  164MOL0     C22040   7.522   7.612   9.009  0.2271 -1.1284  0.3518
  164MOL0     O22041   7.393   7.570   9.022 -1.0463  0.0267  0.5697
  164MOL0     C22042   7.352   7.469   8.923 -0.0927 -0.5239 -0.2103
  164MOL0     C22043   7.248   7.364   8.978 -0.6402  0.6023 -0.4933
  164MOL0     C22044   7.099   7.412   8.971  0.4541 -0.2533 -0.6830
  164MOL0     C22045   7.012   7.309   9.040 -0.5487 -0.5908 -0.1207
  164MOL0     C22046   6.999   7.176   8.966  0.2288  0.6008 -0.2908
  164MOL0     C22047   6.950   7.187   8.821 -1.4002  0.0244  0.5379
  164MOL0     C22048   6.919   7.040   8.771 -0.1866  0.3067 -0.2429
  164MOL0     C22049   6.866   7.027   8.630 -0.2902 -0.4479  1.5018
  164MOL0    Cl22050   6.979   7.071   8.499  0.3974 -0.2256 -0.0556
  164MOL0     C22051   7.579   7.677   9.118 -0.1045 -0.6390 -0.2835
  164MOL0     C22052   7.714   7.720   9.113  1.0004 -0.7782 -0.2063
  164MOL0     O22053   7.985   7.555   9.079 -0.5533 -0.6762  0.6992
  164MOL0     C22054   8.204   7.826   9.014 -0.3469  0.4436 -0.4223
  164MOL0     C22055   8.312   7.894   9.065 -0.7041 -0.6661 -0.1370
  164MOL0     N22056   8.543   8.465   9.334  0.7892  1.1772 -0.3204
  164MOL0     N22057   8.586   8.576   9.294  0.0825  0.0138  0.2044
  164MOL0     C22058   8.912   9.232   9.808 -0.4240  0.0748  0.1925
  164MOL0     C22059   8.832   9.323   9.884 -0.3147 -0.6016  0.2596
  164MOL0     C22060   8.641   9.610  10.147 -0.7599  0.6400  0.1384
  164MOL0     C22061   8.507   9.594  10.136 -0.8425  0.5336 -0.2225
  164MOL0     C22062   8.414   9.696  10.162  0.2873 -0.6972 -0.5256
  164MOL0     C22063   8.461   9.825  10.190 -0.2951  0.1175 -0.0553
  164MOL0     O22064   8.368   9.928  10.219  0.1523  0.7717  0.6525
  164MOL0     C22065   8.225   9.918  10.202  0.4954 -0.4419  0.2877
  164MOL0     C22066   8.161  10.048  10.251 -0.4745 -0.2898  0.1457
  164MOL0     C22067   8.185  10.159  10.149 -0.1701  0.3038 -0.4083
  164MOL0     C22068   8.151  10.298  10.206 -0.4770 -1.0389 -0.0013
  164MOL0     C22069   8.267  10.348  10.283  0.6628 -0.1518  0.2471
  164MOL0     C22070   8.374  10.372  10.341 -0.4718  0.4235  0.8617
  164MOL0     C22071   8.598   9.850  10.194 -0.5556  0.3824  0.1041
  164MOL0     C22072   8.688   9.743  10.169  0.3328  0.4809 -0.0314
  164MOL0     H22073   8.669   9.132  10.096  1.2446  2.8415  0.8608
  164MOL0     H22074   8.805   8.953   9.970 -1.9582  0.1406  0.0875
  164MOL0     H22075   8.996   8.864   9.901  0.7430  2.8253  0.9379
  164MOL0     H22076   8.886   8.828   9.769 -0.9449  2.6883  0.3452
  164MOL0     H22077   9.183   8.855   9.772 -1.5439  1.6782  0.6499
  164MOL0     H22078   9.096   8.698   9.730 -1.0401 -0.1759  1.5296
  164MOL0     H22079   9.134   8.922   9.549 -0.9927 -0.0175  0.1423
  164MOL0     H22080   9.185   8.753   9.539  0.7812  0.1037  1.5007
  164MOL0     H22081   8.949   8.677   9.535  0.1319 -0.5033 -1.9190
  164MOL0     H22082   8.893   8.851   9.539 -0.7318 -2.2227  1.5121
  164MOL0     H22083   8.997   8.897   9.318 -1.5960  1.1451  1.6974
  164MOL0     H22084   9.071   8.739   9.323 -0.4886  0.2382 -5.2667
  164MOL0     H22085   8.886   8.620   9.318 -0.4105  1.4568  2.1231
  164MOL0     H22086   8.778   8.767   9.344 -1.2522 -2.2785 -0.9317
  164MOL0     H22087   8.869   8.838   9.110 -0.3212  0.0964 -0.8549
  164MOL0     H22088   8.921   8.673   9.093  1.0460  0.0972  1.8768
  164MOL0     H22089   8.677   8.676   9.002 -0.0939  2.4144 -0.6993
  164MOL0     H22090   8.638   8.771   9.139 -0.7334 -1.9617  1.0955
  164MOL0     H22091   8.752   8.375   9.105  0.1817  2.2797 -0.4157
  164MOL0     H22092   8.501   8.213   9.354  1.6537 -4.9814  0.9247
  164MOL0     H22093   8.561   8.171   9.194 -0.2539  0.9324  0.5712
  164MOL0     H22094   8.712   8.165   9.461  0.9146  0.0571  0.5521
  164MOL0     H22095   8.800   8.172   9.319 -0.8821  2.3575  1.0641
  164MOL0     H22096   8.765   7.951   9.401  2.1670  0.9820 -1.0851
  164MOL0     H22097   8.746   7.952   9.238  0.8685  2.6431  0.0770
  164MOL0     H22098   8.496   7.958   9.419 -2.4903 -0.7234 -0.8093
  164MOL0     H22099   8.565   7.815   9.344 -1.2947 -0.1571 -0.0358
  164MOL0     H22100   8.352   7.749   9.363  0.3022  0.0988 -0.1051
  164MOL0     H22101   8.169   7.501   9.284 -1.2600 -0.6142  2.3856
  164MOL0     H22102   8.223   7.598   9.417  0.5428 -2.3643 -0.1010
  164MOL0     H22103   8.052   7.609   9.342  0.4371  1.7453  0.1145
  164MOL0     H22104   7.792   7.636   8.802 -0.4938  0.1185  1.3659
  164MOL0     H22105   7.560   7.552   8.810 -2.5597  2.4299 -0.7477
  164MOL0     H22106   7.320   7.519   8.831  0.4581 -0.1517 -0.2055
  164MOL0     H22107   7.439   7.403   8.909 -2.3859 -4.3216  1.6780
  164MOL0     H22108   7.267   7.276   8.915 -1.7305  0.8215 -1.1575
  164MOL0     H22109   7.272   7.330   9.079  1.8496 -0.0194 -1.2291
  164MOL0     H22110   7.051   7.427   8.873 -1.6635 -0.2146  0.2987
  164MOL0     H22111   7.091   7.511   9.017 -0.9642  0.9858 -3.3182
  164MOL0     H22112   7.056   7.299   9.139  1.8962  0.8002 -0.9915
  164MOL0     H22113   6.912   7.355   9.045 -1.2328 -1.9733 -0.5826
  164MOL0     H22114   6.930   7.115   9.025 -0.1314  0.2671 -1.0548
  164MOL0     H22115   7.097   7.126   8.962 -0.6112 -1.0517 -1.1554
  164MOL0     H22116   6.861   7.249   8.813 -1.3579  0.4952  2.9050
  164MOL0     H22117   7.033   7.224   8.760 -2.4332 -1.1191 -1.6611
  164MOL0     H22118   6.850   6.992   8.841  2.7065 -0.8512  2.0026
  164MOL0     H22119   7.011   6.981   8.782  1.2568  2.3449 -0.8774
  164MOL0     H22120   6.783   7.096   8.610  0.5703  0.7352  1.9080
  164MOL0     H22121   6.826   6.927   8.615 -0.4174 -0.0911 -1.0011
  164MOL0     H22122   7.523   7.689   9.211 -1.1029 -0.3785 -0.9096
  164MOL0     H22123   7.759   7.760   9.203 -0.1416  1.5543 -0.5890
  164MOL0     H22124   8.167   7.848   8.914  0.5422 -3.0935 -1.6799
  164MOL0     H22125   8.372   7.961   9.003 -2.2754  1.6616  0.7160
  164MOL0     H22126   8.970   9.268   9.724 -3.9410  2.3507 -1.4801
  164MOL0     H22127   8.828   9.427   9.852  0.3823  0.5022  3.4605
  164MOL0     H22128   8.480   9.491  10.112  1.1046  0.2963 -1.6527
  164MOL0     H22129   8.308   9.674  10.164 -0.1364  1.2153  0.4425
  164MOL0     H22130   8.204   9.905  10.096  1.2210  3.4075 -0.4517
  164MOL0     H22131   8.193   9.832  10.263  1.7411  0.4292  2.2843
  164MOL0     H22132   8.206  10.069  10.349  1.4053  0.6256 -0.8526
  164MOL0     H22133   8.053  10.046  10.264 -0.7482 -0.1090 -1.7987
  164MOL0     H22134   8.123  10.151  10.060 -1.5898  0.3641  0.5430
  164MOL0     H22135   8.290  10.162  10.118  0.0475 -2.1864 -0.1714
  164MOL0     H22136   8.067  10.308  10.275  0.2821  0.6093  0.7343
  164MOL0     H22137   8.135  10.371  10.125  0.1569 -1.4419 -0.4994
  164MOL0     H22138   8.459  10.412  10.391 -0.0918 -1.3964  1.7587
  164MOL0     H22139   8.646   9.947  10.204  0.4181  0.0851 -1.2491
  164MOL0     H22140   8.795   9.762  10.180  1.1508 -3.0566 -0.8086
  165MOL0     O22141   9.023   3.947   7.199 -1.0328  0.4134  0.7426
  165MOL0     C22142   9.110   4.035   7.178 -0.4168 -0.0568  0.4864
  165MOL0     O22143   9.084   4.152   7.118  0.0848  0.5987 -0.2138
  165MOL0     C22144   8.957   4.189   7.062  0.2587  0.3010 -0.2497
  165MOL0     C22145   8.835   4.122   7.073  0.2740 -0.0262 -0.9626
  165MOL0     C22146   8.716   4.202   7.031  0.0914  0.2263  0.1348
  165MOL0     C22147   8.729   4.331   6.978 -0.3219 -0.3283  0.9342
  165MOL0     O22148   8.613   4.391   6.941 -0.4234  0.0726 -0.7373
  165MOL0     C22149   8.589   4.508   6.867 -0.0443 -0.1419  0.5551
  165MOL0     C22150   8.439   4.512   6.833 -0.7051  0.2143 -0.4480
  165MOL0     C22151   8.348   4.492   6.957  0.4839 -0.7216 -0.1341
  165MOL0     C22152   8.213   4.567   6.944 -0.2015  0.1108  0.3211
  165MOL0     C22153   8.124   4.516   7.060 -0.4898 -0.7076  0.1005
  165MOL0     C22154   7.978   4.589   7.066  0.2795  0.6745 -0.8100
  165MOL0     C22155   7.888   4.578   6.935 -0.8093  0.9587  0.1051
  165MOL0     C22156   7.833   4.436   6.909 -0.1160 -0.1151  0.2996
  165MOL0     N22157   7.742   4.397   7.018  0.2749 -0.0325  0.3242
  165MOL0     C22158   7.717   4.268   7.070  0.5077 -0.0732  0.8418
  165MOL0     C22159   7.631   4.287   7.167 -0.2696 -0.0159 -0.5559
  165MOL0     C22160   7.579   4.195   7.270 -0.2922  0.9954  0.4664
  165MOL0     C22161   7.434   4.144   7.247 -0.4744 -0.8433  0.4439
  165MOL0     C22162   7.393   4.020   7.324 -0.3929 -1.1449  0.3195
  165MOL0     C22163   7.259   3.959   7.271  0.4935  0.3229 -0.0471
  165MOL0     O22164   7.196   3.860   7.360  0.1165  0.6210  0.5508
  165MOL0     C22165   7.058   3.889   7.366 -0.1673  0.3306  0.9346
  165MOL0     C22166   7.025   3.988   7.457 -0.6611 -0.2497  0.6817
  165MOL0     C22167   6.898   4.024   7.486 -0.3489  1.2122  0.2882
  165MOL0     C22168   6.879   4.143   7.580  0.1366  0.7708 -0.1873
  165MOL0     C22169   6.796   3.962   7.418 -0.1863 -0.3919  0.0016
  165MOL0     C22170   6.651   4.000   7.440 -0.8584 -0.1090 -0.0010
  165MOL0     O22171   6.557   3.898   7.412 -0.0450 -0.5519  0.2606
  165MOL0     C22172   6.428   3.933   7.427  0.4053  0.3746  0.8309
  165MOL0     C22173   6.346   3.887   7.328 -0.2131 -0.5385  0.5195
  165MOL0     C22174   6.211   3.903   7.327 -0.5479 -0.2199  0.4476
  165MOL0     C22175   6.151   3.980   7.440 -0.1075  0.1226  0.0344
  165MOL0     O22176   6.016   4.012   7.448  0.0849 -0.6655  0.1413
  165MOL0     C22177   5.926   3.951   7.353 -1.2210  0.4207  0.2139
  165MOL0     C22178   5.786   3.992   7.402 -0.2584  0.0373 -0.1745
  165MOL0     C22179   5.669   3.930   7.342  0.6569 -0.1144  0.6950
  165MOL0     C22180   5.629   3.785   7.393 -0.4370 -0.2351 -0.8740
  165MOL0     C22181   5.505   3.739   7.302 -0.1024 -0.7515 -0.4650
  165MOL0     C22182   5.410   3.662   7.390 -0.5135  0.4550  0.9755
  165MOL0     C22183   5.466   3.569   7.494 -0.2618 -0.8552  0.3542
  165MOL0     C22184   5.367   3.486   7.556  1.5078 -0.2348 -0.4695
  165MOL0    Cl22185   5.245   3.596   7.642  0.2207  0.0412 -0.1127
  165MOL0     C22186   6.231   4.023   7.541 -0.1625  0.5346  0.6312
  165MOL0     C22187   6.366   4.003   7.531  0.1939  0.2567  0.4721
  165MOL0     O22188   6.622   4.114   7.476 -0.3105 -0.1961  0.4765
  165MOL0     C22189   6.830   3.849   7.339  0.1144  0.4038  0.3457
  165MOL0     C22190   6.961   3.821   7.295  0.6150  0.1235  0.0711
  165MOL0     N22191   7.579   4.415   7.161  0.4604  0.7671 -0.5891
  165MOL0     N22192   7.651   4.478   7.074  0.0693  0.3618  0.2597
  165MOL0     C22193   8.851   4.385   6.968 -0.1876  0.2372  1.0730
  165MOL0     C22194   8.964   4.318   7.012  0.3701  0.3164 -0.3332
  165MOL0     C22195   9.246   4.002   7.217 -0.0613 -0.4130  0.0420
  165MOL0     C22196   9.269   3.888   7.289 -0.2015  0.2756 -0.6918
  165MOL0     C22197   9.386   3.844   7.339 -0.3875  0.4552 -0.1314
  165MOL0     C22198   9.504   3.918   7.319  0.0525  0.8741 -0.3230
  165MOL0     O22199   9.603   3.885   7.408 -0.7511  0.2120 -0.2489
  165MOL0     C22200   9.738   3.931   7.383  0.5773  0.5361  0.1984
  165MOL0     C22201   9.781   4.049   7.478  0.0171  0.3988  0.5559
  165MOL0     C22202   9.914   4.113   7.428 -0.5240  0.2007 -0.5495
  165MOL0     C22203   9.905   4.244   7.352  0.2769  0.2817  0.1559
  165MOL0     C22204  10.035   4.296   7.350 -0.5725 -0.1302 -1.1250
  165MOL0     C22205  10.150   4.329   7.365  0.1717 -0.0505 -0.0531
  165MOL0     C22206   9.487   4.040   7.246  0.0068  0.2485  0.1632
  165MOL0     C22207   9.366   4.074   7.187 -0.1463 -1.0439  0.1178
  165MOL0     H22208   8.827   4.018   7.104  3.2178 -1.4743 -4.3682
  165MOL0     H22209   8.618   4.157   7.044 -0.2213 -0.0734 -2.6011
  165MOL0     H22210   8.627   4.599   6.916 -1.4410 -0.6035  2.6469
  165MOL0     H22211   8.641   4.506   6.771  3.3798  0.0220  2.2810
  165MOL0     H22212   8.413   4.613   6.800 -3.5586  0.4933  2.1628
  165MOL0     H22213   8.419   4.431   6.762  2.0494 -2.2660  1.3651
  165MOL0     H22214   8.334   4.383   6.964 -3.2042 -0.3088  0.9359
  165MOL0     H22215   8.398   4.541   7.041 -2.1290  2.5525 -0.2997
  165MOL0     H22216   8.227   4.676   6.937  0.0901  0.0508 -0.1337
  165MOL0     H22217   8.159   4.555   6.850  3.2109  1.9334 -2.1300
  165MOL0     H22218   8.134   4.407   7.067  1.3951 -0.4862  2.3545
  165MOL0     H22219   8.185   4.542   7.147 -1.7808 -0.2721  0.8977
  165MOL0     H22220   7.932   4.554   7.158  2.2640 -0.9418 -0.3765
  165MOL0     H22221   7.984   4.696   7.087 -1.6746  0.1178  3.7436
  165MOL0     H22222   7.799   4.642   6.938 -0.4728  1.4378 -0.1435
  165MOL0     H22223   7.951   4.622   6.857  0.0101  1.5482  1.0845
  165MOL0     H22224   7.911   4.359   6.907  1.0043  0.9555  1.1303
  165MOL0     H22225   7.781   4.438   6.813 -0.0978 -1.7495  0.2245
  165MOL0     H22226   7.756   4.176   7.027 -2.2186 -1.8611  1.9334
  165MOL0     H22227   7.637   4.103   7.279  0.8075  1.6810  0.5622
  165MOL0     H22228   7.592   4.234   7.371  0.4282 -0.8042  1.0901
  165MOL0     H22229   7.425   4.138   7.138  2.2938  2.7052 -0.1763
  165MOL0     H22230   7.377   4.233   7.272  2.2386  1.3018 -0.4987
  165MOL0     H22231   7.378   4.052   7.427  1.1429  0.0630  0.2053
  165MOL0     H22232   7.470   3.943   7.333  0.9911  0.4269  2.9199
  165MOL0     H22233   7.292   3.901   7.184  0.5294 -0.6725  0.6073
  165MOL0     H22234   7.181   4.029   7.239  0.0831 -0.2396 -0.3149
  165MOL0     H22235   7.108   4.033   7.511  0.1640 -1.1051  0.1595
  165MOL0     H22236   6.863   4.240   7.533  2.7183  2.7171  2.5680
  165MOL0     H22237   6.808   4.121   7.661  1.5823  2.2226  1.5592
  165MOL0     H22238   6.972   4.154   7.637  0.8402 -0.7707 -0.9913
  165MOL0     H22239   6.391   3.827   7.249 -0.2301  0.4972 -0.3030
  165MOL0     H22240   6.153   3.855   7.249  1.8556 -1.7942 -0.4627
  165MOL0     H22241   5.943   3.986   7.251  0.9165 -0.4425  0.2351
  165MOL0     H22242   5.958   3.847   7.347 -1.3504  0.4034 -0.2191
  165MOL0     H22243   5.775   3.993   7.511 -0.2443 -1.3042 -0.1468
  165MOL0     H22244   5.782   4.101   7.388  2.1021  0.3597  1.1828
  165MOL0     H22245   5.685   3.922   7.234  0.4388  0.4606  0.6189
  165MOL0     H22246   5.579   3.988   7.365 -0.0761 -1.5207  1.5272
  165MOL0     H22247   5.713   3.715   7.391  1.0764  1.4312  0.0324
  165MOL0     H22248   5.609   3.792   7.500 -3.5848 -1.6612 -1.2632
  165MOL0     H22249   5.556   3.677   7.227  2.2550  1.0132 -0.4413
  165MOL0     H22250   5.458   3.822   7.249  1.6101  0.8470  0.4166
  165MOL0     H22251   5.342   3.737   7.432  0.2132  1.5572  0.2210
  165MOL0     H22252   5.359   3.591   7.323  0.5126 -0.3178  0.9823
  165MOL0     H22253   5.511   3.628   7.574 -3.9560  0.0444  1.9579
  165MOL0     H22254   5.532   3.497   7.445 -1.1013 -0.6176 -1.2075
  165MOL0     H22255   5.414   3.426   7.635  1.8590  1.5245  0.7357
  165MOL0     H22256   5.312   3.416   7.492  0.3928  1.2504 -1.2031
  165MOL0     H22257   6.197   4.063   7.636  0.7520 -1.9529  2.1264
  165MOL0     H22258   6.427   4.032   7.616 -1.5371 -0.0641  1.8722
  165MOL0     H22259   6.754   3.794   7.283  1.5143 -1.4228  0.1491
  165MOL0     H22260   6.989   3.748   7.220  1.7915  2.4958 -1.9452
  165MOL0     H22261   8.860   4.487   6.932  2.5618 -0.3177 -0.0277
  165MOL0     H22262   9.056   4.377   7.019  0.9376 -0.6532  0.6709
  165MOL0     H22263   9.188   3.823   7.322 -3.3784  2.4788 -3.4076
  165MOL0     H22264   9.390   3.750   7.393 -1.3103  1.2318  1.3299
  165MOL0     H22265   9.791   3.838   7.405 -0.6895 -0.0912  0.6845
  165MOL0     H22266   9.748   3.950   7.276 -0.6623  1.1686  0.1747
  165MOL0     H22267   9.788   4.017   7.582  0.9786  0.4145  0.5019
  165MOL0     H22268   9.698   4.119   7.463  0.5685  0.9819  0.1658
  165MOL0     H22269   9.968   4.044   7.362  0.1678 -0.8914  1.0910
  165MOL0     H22270   9.969   4.126   7.521 -1.2591 -0.3176 -0.0245
  165MOL0     H22271   9.849   4.321   7.407 -1.0110  1.4495 -2.6024
  165MOL0     H22272   9.869   4.232   7.250  5.0213 -0.6217 -1.6948
  165MOL0     H22273  10.237   4.386   7.388  0.5588 -0.9800  0.8616
  165MOL0     H22274   9.567   4.112   7.232  0.0492  0.0565 -0.6572
  165MOL0     H22275   9.364   4.157   7.116 -3.7058 -1.3535 -0.3415
  166MOL0     O22276   5.334   5.091   2.742 -0.0897 -0.8633 -0.2773
  166MOL0     C22277   5.254   5.186   2.733  0.0419  0.2294 -0.1482
  166MOL0     O22278   5.263   5.310   2.787  0.3336  0.8629 -0.4222
  166MOL0     C22279   5.366   5.353   2.863 -0.5266  0.0765  0.1686
  166MOL0     C22280   5.345   5.490   2.885  0.5235  0.0179  0.4042
  166MOL0     C22281   5.414   5.546   2.988 -0.0536  0.7268 -0.1173
  166MOL0     C22282   5.523   5.476   3.049 -0.8488 -0.0682  0.1738
  166MOL0     O22283   5.606   5.543   3.147  0.7842 -0.1559 -0.2674
  166MOL0     C22284   5.548   5.566   3.277  0.1381  0.1003 -0.4084
  166MOL0     C22285   5.669   5.584   3.370  0.1912 -0.9363 -0.3009
  166MOL0     C22286   5.752   5.466   3.383 -0.5497  0.6872  0.4541
  166MOL0     C22287   5.855   5.500   3.494  0.8260  0.2718  0.4328
  166MOL0     C22288   5.956   5.395   3.508 -0.5657  0.3317 -0.5476
  166MOL0     C22289   5.905   5.261   3.568 -0.2212 -0.2692 -0.2588
  166MOL0     C22290   6.002   5.202   3.670  0.0549  0.2955 -0.4547
  166MOL0     C22291   6.141   5.172   3.602  0.1712  0.1875  0.4407
  166MOL0     N22292   6.245   5.190   3.703 -0.4108 -0.4162  1.2615
  166MOL0     C22293   6.305   5.093   3.791 -0.0249  0.3702 -0.2414
  166MOL0     C22294   6.410   5.159   3.849  0.4371  0.1468 -0.0764
  166MOL0     C22295   6.497   5.092   3.945 -0.5409  0.2619 -0.1841
  166MOL0     C22296   6.637   5.039   3.887  0.5188  1.1059  0.7627
  166MOL0     C22297   6.603   4.974   3.748  0.1513 -0.1852 -0.4526
  166MOL0     C22298   6.735   4.936   3.683  0.7798 -0.6759  0.3254
  166MOL0     O22299   6.787   4.837   3.766 -0.2838  0.2875  0.6555
  166MOL0     C22300   6.752   4.702   3.736 -0.5527  0.4240 -0.1121
  166MOL0     C22301   6.828   4.600   3.793 -0.7038  0.8497  0.0784
  166MOL0     C22302   6.818   4.464   3.778  0.8073 -0.4332  0.5003
  166MOL0     C22303   6.926   4.374   3.834 -0.3428  0.5586 -0.1662
  166MOL0     C22304   6.707   4.416   3.697  0.8175 -0.6246 -0.2469
  166MOL0     C22305   6.672   4.278   3.679  0.8112 -0.3518 -0.4153
  166MOL0     O22306   6.540   4.249   3.665 -0.0721 -0.4202 -0.1931
  166MOL0     C22307   6.488   4.121   3.657 -0.3082 -0.5112  0.0727
  166MOL0     C22308   6.354   4.121   3.611 -0.0441 -0.1940 -0.1313
  166MOL0     C22309   6.290   3.992   3.595 -0.1242  0.0192  0.5084
  166MOL0     C22310   6.357   3.869   3.616  0.5593 -0.3438  0.3691
  166MOL0     O22311   6.296   3.749   3.582 -0.7107  0.0976 -0.0160
  166MOL0     C22312   6.178   3.749   3.502  0.8215  0.1998 -1.0252
  166MOL0     C22313   6.129   3.607   3.458 -0.2429 -0.7297  0.8945
  166MOL0     C22314   6.045   3.631   3.325  0.1685  0.1668  0.5498
  166MOL0     C22315   5.950   3.514   3.281 -0.2188  0.8829 -0.8771
  166MOL0     C22316   5.935   3.510   3.131  0.3883 -0.0310 -0.8145
  166MOL0     C22317   6.060   3.465   3.068 -0.5621  0.5211 -0.4481
  166MOL0     C22318   6.031   3.391   2.938  0.6724 -0.1455  0.3002
  166MOL0     C22319   5.958   3.471   2.833  0.2516  0.6590  0.3925
  166MOL0    Cl22320   6.066   3.607   2.791  0.5925 -0.2269 -0.0866
  166MOL0     C22321   6.487   3.868   3.659 -0.9860 -0.5176 -0.2069
  166MOL0     C22322   6.551   3.990   3.669 -0.4333 -0.2208 -0.0452
  166MOL0     O22323   6.762   4.203   3.695 -0.6187 -1.0612 -0.0653
  166MOL0     C22324   6.623   4.514   3.643 -0.5095  0.0208  0.5451
  166MOL0     C22325   6.643   4.655   3.662  0.3657  0.9100  0.0674
  166MOL0     N22326   6.410   5.296   3.808  0.8210 -0.0837  0.6994
  166MOL0     N22327   6.311   5.304   3.716 -0.0315 -1.4063  1.1390
  166MOL0     C22328   5.553   5.340   3.015  0.4609 -0.7416 -0.9181
  166MOL0     C22329   5.479   5.280   2.919 -0.3841 -0.4486  0.9583
  166MOL0     C22330   5.130   5.147   2.667  0.0524 -0.1533 -0.6075
  166MOL0     C22331   5.049   5.252   2.614 -0.3140  1.0394 -0.4837
  166MOL0     C22332   4.948   5.221   2.533  0.8663 -0.1990  0.9741
  166MOL0     C22333   4.915   5.087   2.503 -0.9645 -0.3486 -0.6147
  166MOL0     O22334   4.813   5.055   2.424  0.5459  0.9029 -0.0837
  166MOL0     C22335   4.826   5.115   2.296 -0.1490 -0.3538 -0.4267
  166MOL0     C22336   4.728   5.235   2.276 -0.7135 -0.3814  0.8338
  166MOL0     C22337   4.733   5.289   2.134 -0.5288  0.2010 -0.2697
  166MOL0     C22338   4.625   5.395   2.107 -0.4423 -0.8584  0.8559
  166MOL0     C22339   4.633   5.440   1.970  0.7876 -1.5069  0.1542
  166MOL0     C22340   4.628   5.472   1.847 -0.0405  0.6152 -0.5056
  166MOL0     C22341   5.003   4.987   2.562  1.0012  0.4146  0.8606
  166MOL0     C22342   5.112   5.008   2.633  0.5492  0.4057 -0.4309
  166MOL0     H22343   5.278   5.553   2.828  1.0525  0.5819  0.3840
  166MOL0     H22344   5.402   5.649   3.021 -2.8204  0.2161  0.7549
  166MOL0     H22345   5.476   5.648   3.273  1.4816  1.2908 -2.3287
  166MOL0     H22346   5.485   5.478   3.288 -3.1334  2.2021 -0.8635
  166MOL0     H22347   5.728   5.671   3.339  1.9072 -1.5292  1.1772
  166MOL0     H22348   5.625   5.607   3.467 -2.1998 -0.9788 -1.3004
  166MOL0     H22349   5.695   5.378   3.415  4.4682 -2.9064  0.7172
  166MOL0     H22350   5.812   5.436   3.297 -2.5556 -1.0283 -0.4172
  166MOL0     H22351   5.916   5.578   3.447  1.6718 -1.7327 -2.0368
  166MOL0     H22352   5.814   5.522   3.593  2.4017 -0.1728  1.2170
  166MOL0     H22353   6.009   5.375   3.414  2.3603 -1.4663  1.3105
  166MOL0     H22354   6.037   5.441   3.565  0.3238  0.0072 -1.5236
  166MOL0     H22355   5.805   5.277   3.611 -0.6786 -1.8077 -0.6911
  166MOL0     H22356   5.900   5.177   3.498 -2.2345 -0.0446 -0.4606
  166MOL0     H22357   6.012   5.266   3.758  1.0877  1.4606 -1.3802
  166MOL0     H22358   5.968   5.100   3.689  0.4300  0.3177  0.3275
  166MOL0     H22359   6.157   5.239   3.517  1.1954 -0.5358  0.0344
  166MOL0     H22360   6.146   5.068   3.568  1.4312  0.2867  0.2767
  166MOL0     H22361   6.269   4.995   3.821  0.3174  0.0105 -0.9963
  166MOL0     H22362   6.535   5.153   4.027  3.4636 -2.7056  0.4888
  166MOL0     H22363   6.450   5.006   3.991 -0.5071  0.2353 -0.1990
  166MOL0     H22364   6.680   4.967   3.957 -2.6060 -0.7449  0.9892
  166MOL0     H22365   6.692   5.132   3.867  3.8641 -0.9259 -0.2806
  166MOL0     H22366   6.562   5.044   3.674  0.6206  1.0247  0.3823
  166MOL0     H22367   6.539   4.888   3.766  2.5535 -1.6057  2.0287
  166MOL0     H22368   6.810   5.015   3.696 -0.4417  0.6766 -0.5095
  166MOL0     H22369   6.722   4.913   3.577  0.3328 -3.1965  0.8523
  166MOL0     H22370   6.907   4.656   3.843 -0.3389 -0.2656  0.7982
  166MOL0     H22371   7.021   4.425   3.849 -0.3863  1.2287 -1.9961
  166MOL0     H22372   6.883   4.328   3.924  1.2891 -1.1125 -0.1846
  166MOL0     H22373   6.955   4.288   3.773 -1.4071 -2.4782  3.2539
  166MOL0     H22374   6.289   4.204   3.587  0.2535  0.0897  0.0393
  166MOL0     H22375   6.186   3.979   3.568  0.3771 -0.7148 -1.2162
  166MOL0     H22376   6.093   3.797   3.550  0.5445 -0.8287 -0.4570
  166MOL0     H22377   6.186   3.811   3.413 -2.5083  1.5844 -0.5087
  166MOL0     H22378   6.227   3.560   3.445 -0.2004  0.2326 -4.0610
  166MOL0     H22379   6.067   3.558   3.534 -0.0019 -0.8626  1.0069
  166MOL0     H22380   6.122   3.662   3.253 -2.9756  2.6712 -2.0363
  166MOL0     H22381   5.980   3.717   3.345 -0.5698  0.5517 -2.8406
  166MOL0     H22382   5.982   3.415   3.315  0.4549  0.6633 -2.0990
  166MOL0     H22383   5.850   3.529   3.322 -0.8455  1.3053 -2.4840
  166MOL0     H22384   5.915   3.611   3.095  0.6689  0.5454  0.5799
  166MOL0     H22385   5.853   3.445   3.100  1.7555 -2.9498  1.1816
  166MOL0     H22386   6.136   3.543   3.066  0.6046 -0.4376  1.8677
  166MOL0     H22387   6.110   3.398   3.138  0.1548  1.5127  0.0137
  166MOL0     H22388   5.966   3.305   2.961  1.4257 -0.5000  1.1406
  166MOL0     H22389   6.118   3.348   2.887 -0.2490  0.4617 -1.9367
  166MOL0     H22390   5.856   3.501   2.855 -0.0997  0.0497 -0.3410
  166MOL0     H22391   5.956   3.410   2.742  1.7758  0.8237  0.2189
  166MOL0     H22392   6.544   3.779   3.683 -0.5187 -0.1396  0.0996
  166MOL0     H22393   6.651   3.991   3.713 -0.5694  0.6464  0.2569
  166MOL0     H22394   6.541   4.487   3.576 -0.2986 -0.3846  0.4481
  166MOL0     H22395   6.584   4.730   3.610 -2.5185 -0.3695  1.3100
  166MOL0     H22396   5.641   5.292   3.058  2.0317  1.9156 -0.9280
  166MOL0     H22397   5.510   5.178   2.897  2.2223  0.1719  1.3717
  166MOL0     H22398   5.061   5.355   2.646  1.0302  0.5140  0.8606
  166MOL0     H22399   4.894   5.306   2.492 -0.3967 -0.9573  1.0224
  166MOL0     H22400   4.927   5.149   2.272 -1.0359  1.3036 -2.0924
  166MOL0     H22401   4.808   5.045   2.215 -3.7162  1.1664 -1.1336
  166MOL0     H22402   4.746   5.316   2.347  1.3800 -0.7669  0.8242
  166MOL0     H22403   4.630   5.191   2.295 -1.3832  0.2479 -0.9481
  166MOL0     H22404   4.715   5.203   2.069  0.4677  0.8669 -1.4708
  166MOL0     H22405   4.835   5.319   2.107  0.4390 -1.5278  1.2592
  166MOL0     H22406   4.651   5.485   2.163  0.3852 -0.6823  0.2027
  166MOL0     H22407   4.520   5.375   2.132 -0.5762  0.5188  1.4596
  166MOL0     H22408   4.632   5.505   1.745  1.0398  1.7410 -0.1293
  166MOL0     H22409   4.973   4.887   2.534  0.1874  0.4144  1.6785
  166MOL0     H22410   5.181   4.926   2.652 -0.1537  0.3712  2.3920
  167MOL0     O22411   4.437   2.828   0.551  0.8847 -0.8249  0.2394
  167MOL0     C22412   4.438   2.843   0.429  0.0927 -0.1172 -0.0257
  167MOL0     O22413   4.368   2.947   0.365 -0.0398 -0.1490 -0.1561
  167MOL0     C22414   4.314   3.044   0.440 -0.5381 -0.1749  1.6669
  167MOL0     C22415   4.180   3.079   0.408 -0.0454 -0.3253  0.3405
  167MOL0     C22416   4.108   3.177   0.485 -0.5669 -0.1991 -0.4456
  167MOL0     C22417   4.183   3.250   0.594 -0.2914 -0.3395  0.7789
  167MOL0     O22418   4.123   3.356   0.660 -0.4019  0.0083  0.3487
  167MOL0     C22419   4.202   3.426   0.762  0.5461 -0.2387  0.1296
  167MOL0     C22420   4.093   3.517   0.825  0.3898  0.4887 -0.2935
  167MOL0     C22421   4.152   3.609   0.924  0.3909 -0.1175 -0.0771
  167MOL0     C22422   4.039   3.667   1.014  0.6332 -0.1027  0.0373
  167MOL0     C22423   4.098   3.780   1.104 -0.2687  0.0646  0.0125
  167MOL0     C22424   3.984   3.859   1.176  0.8413 -0.3984  0.4396
  167MOL0     C22425   4.033   3.977   1.270  0.8446  0.6014  0.6768
  167MOL0     C22426   3.922   4.052   1.346  0.7088 -0.3141 -1.0480
  167MOL0     N22427   3.808   3.974   1.364  0.6475  0.5012  0.2348
  167MOL0     C22428   3.781   3.882   1.465 -0.4943 -1.0812  0.1520
  167MOL0     C22429   3.671   3.820   1.432  0.6848 -0.6337  0.2531
  167MOL0     C22430   3.585   3.720   1.512 -0.0072 -0.2466 -0.5131
  167MOL0     C22431   3.637   3.660   1.652  0.0984  0.1376 -0.5499
  167MOL0     C22432   3.550   3.538   1.707  0.7901  0.8505 -0.6792
  167MOL0     C22433   3.422   3.600   1.767 -0.1936  0.0241 -0.1959
  167MOL0     O22434   3.337   3.492   1.821 -0.4911  0.2367  0.4629
  167MOL0     C22435   3.213   3.525   1.849 -0.9056 -0.1116  1.0412
  167MOL0     C22436   3.107   3.455   1.801  0.7378 -0.3934 -0.5406
  167MOL0     C22437   2.982   3.492   1.838 -0.3118  0.5792  0.3745
  167MOL0     C22438   2.872   3.408   1.784  0.0316 -0.0394  0.9206
  167MOL0     C22439   2.959   3.594   1.929 -0.5786 -0.1090  0.3645
  167MOL0     C22440   2.829   3.631   1.982  0.1574  0.3776  1.1524
  167MOL0     O22441   2.841   3.663   2.113 -0.4063 -0.4767 -0.1310
  167MOL0     C22442   2.741   3.721   2.184 -0.3011  0.0100  1.0160
  167MOL0     C22443   2.710   3.680   2.314  0.0932  0.0737 -0.3253
  167MOL0     C22444   2.602   3.742   2.383 -0.4968  0.0249  0.7128
  167MOL0     C22445   2.546   3.861   2.332 -0.2633  0.2742  0.0796
  167MOL0     O22446   2.459   3.939   2.407  0.6091  0.2419 -0.5001
  167MOL0     C22447   2.360   3.882   2.491  1.1645  0.1185  0.4789
  167MOL0     C22448   2.275   3.997   2.546 -0.3944 -0.6035 -1.3593
  167MOL0     C22449   2.168   3.943   2.643  0.4677 -0.5374 -0.5415
  167MOL0     C22450   2.072   4.043   2.701  0.0898  0.1150 -0.2069
  167MOL0     C22451   1.968   3.974   2.786  0.7642  0.0791  0.5984
  167MOL0     C22452   1.859   4.078   2.814 -0.8010  0.1366 -0.3826
  167MOL0     C22453   1.899   4.206   2.890 -0.0728 -0.1451  0.7527
  167MOL0     C22454   1.788   4.276   2.972 -0.4101  0.3751  0.9909
  167MOL0    Cl22455   1.667   4.353   2.870  0.2496  0.1437  0.5320
  167MOL0     C22456   2.591   3.906   2.211 -0.1920 -0.0911  0.4353
  167MOL0     C22457   2.686   3.837   2.133 -0.0252 -0.3227 -0.5090
  167MOL0     O22458   2.715   3.634   1.914 -0.7874  0.0083  0.0935
  167MOL0     C22459   3.070   3.664   1.975 -1.3264  0.3831  1.0426
  167MOL0     C22460   3.195   3.635   1.931  0.4442 -0.7067 -0.4599
  167MOL0     N22461   3.616   3.884   1.316 -0.0167  0.2492 -0.1443
  167MOL0     N22462   3.701   3.981   1.281 -0.0113 -0.1693  0.0402
  167MOL0     C22463   4.313   3.221   0.605  0.3128  0.6105 -0.7577
  167MOL0     C22464   4.386   3.117   0.538 -0.2948  0.3487 -0.2425
  167MOL0     C22465   4.526   2.763   0.341 -0.2672  0.0745 -0.2475
  167MOL0     C22466   4.508   2.778   0.205  0.6055  0.9580  0.0367
  167MOL0     C22467   4.589   2.690   0.118  0.1471  0.4003 -0.5846
  167MOL0     C22468   4.696   2.608   0.173  0.2892 -0.2791  1.3167
  167MOL0     O22469   4.759   2.518   0.088 -0.7675  0.0090  0.1205
  167MOL0     C22470   4.686   2.450  -0.012 -0.6785  0.2686 -0.5018
  167MOL0     C22471   4.782   2.353  -0.087 -0.6330 -0.3455  0.4175
  167MOL0     C22472   4.831   2.417  -0.220 -0.1181  0.3153 -0.6261
  167MOL0     C22473   4.938   2.344  -0.293 -0.0286  0.4328  0.0039
  167MOL0     C22474   4.880   2.227  -0.365  0.1333 -0.3801 -0.0629
  167MOL0     C22475   4.841   2.129  -0.423  0.3485  0.9118 -0.1082
  167MOL0     C22476   4.718   2.608   0.304  0.2518  0.2249 -0.3097
  167MOL0     C22477   4.632   2.676   0.382 -0.5332  0.2442 -0.5307
  167MOL0     H22478   4.126   3.025   0.332 -2.6895  2.9561 -0.3843
  167MOL0     H22479   4.006   3.207   0.466  0.8301  3.0499 -4.0328
  167MOL0     H22480   4.242   3.350   0.830  0.1539 -0.6139 -0.0588
  167MOL0     H22481   4.283   3.488   0.722 -0.4240  0.6006 -0.6044
  167MOL0     H22482   4.059   3.575   0.738 -0.3055  0.0797 -0.2998
  167MOL0     H22483   4.011   3.456   0.863  0.1789  0.4173 -0.8480
  167MOL0     H22484   4.231   3.560   0.982  1.2530 -0.7065 -1.7051
  167MOL0     H22485   4.200   3.682   0.859  0.1362 -2.3860 -3.0117
  167MOL0     H22486   3.953   3.701   0.955 -0.6869 -0.6549  1.5753
  167MOL0     H22487   4.004   3.595   1.089  0.7855  0.5681  0.7625
  167MOL0     H22488   4.174   3.742   1.174  1.9097  2.0797 -1.1254
  167MOL0     H22489   4.162   3.846   1.045  0.1983  0.3351  0.7989
  167MOL0     H22490   3.928   3.907   1.095  2.1710  0.2599 -0.1234
  167MOL0     H22491   3.930   3.787   1.238  0.0076  0.4185  0.6889
  167MOL0     H22492   4.089   3.923   1.347  0.0309  0.7552  1.3918
  167MOL0     H22493   4.103   4.046   1.221 -0.9261  0.9385 -1.5113
  167MOL0     H22494   3.895   4.151   1.309 -2.0423  0.5739  2.6577
  167MOL0     H22495   3.960   4.082   1.445  1.5748  0.7046 -1.6740
  167MOL0     H22496   3.832   3.852   1.556 -1.5539 -2.6561  0.2714
  167MOL0     H22497   3.484   3.760   1.521  0.6726  1.5778 -0.6368
  167MOL0     H22498   3.582   3.631   1.449  1.7453 -2.5758  2.3846
  167MOL0     H22499   3.640   3.730   1.736  2.7052 -0.0154 -0.4243
  167MOL0     H22500   3.736   3.616   1.638  0.8726  1.3884  0.7796
  167MOL0     H22501   3.606   3.492   1.788 -1.1742 -0.5037  0.0009
  167MOL0     H22502   3.543   3.463   1.628 -2.3636  2.3514 -2.0251
  167MOL0     H22503   3.373   3.650   1.684 -0.8380 -1.0525 -0.4773
  167MOL0     H22504   3.464   3.660   1.848 -0.3933 -2.1403  1.6252
  167MOL0     H22505   3.134   3.371   1.738  0.0416 -0.3756 -0.8667
  167MOL0     H22506   2.923   3.323   1.738 -1.9901 -0.6633 -0.2733
  167MOL0     H22507   2.820   3.361   1.867 -0.1628  0.7831  1.2700
  167MOL0     H22508   2.811   3.453   1.705 -0.1389 -0.1431  0.9924
  167MOL0     H22509   2.773   3.610   2.368  0.5431  2.4344  2.5022
  167MOL0     H22510   2.583   3.711   2.485 -2.3663 -0.4374  0.2522
  167MOL0     H22511   2.294   3.819   2.430 -0.4282 -0.0665  2.2803
  167MOL0     H22512   2.403   3.813   2.564  0.2482  0.3175  1.2265
  167MOL0     H22513   2.346   4.060   2.601 -0.6641 -0.3814 -1.2602
  167MOL0     H22514   2.240   4.071   2.473 -1.8015 -1.2836 -1.4080
  167MOL0     H22515   2.217   3.904   2.733 -1.4762  1.0665  1.3460
  167MOL0     H22516   2.117   3.867   2.584 -0.7523 -1.4397  1.5487
  167MOL0     H22517   2.126   4.119   2.757  0.3152 -0.5749  0.5310
  167MOL0     H22518   2.028   4.094   2.615 -0.2676 -1.0306 -0.7282
  167MOL0     H22519   2.011   3.925   2.874 -0.9675 -1.1616  0.8052
  167MOL0     H22520   1.924   3.897   2.723  1.1801 -0.0843  0.5086
  167MOL0     H22521   1.795   4.103   2.729 -1.1916  0.5910  0.0352
  167MOL0     H22522   1.786   4.018   2.869 -1.0899  1.6613  1.0128
  167MOL0     H22523   1.933   4.274   2.811 -1.0980 -1.0902 -0.5447
  167MOL0     H22524   1.979   4.173   2.956 -0.4761 -1.9595  0.3951
  167MOL0     H22525   1.817   4.362   3.032 -0.8377 -1.4596  4.0615
  167MOL0     H22526   1.749   4.201   3.041  0.4041 -0.8142  0.2114
  167MOL0     H22527   2.571   4.010   2.187  1.0525  0.7340  2.6977
  167MOL0     H22528   2.730   3.881   2.044 -0.3960  3.9393  1.1709
  167MOL0     H22529   3.063   3.749   2.042  1.7024  0.0132  1.9783
  167MOL0     H22530   3.269   3.704   1.970 -0.2762 -0.2400  0.1180
  167MOL0     H22531   4.382   3.268   0.674 -2.2753  1.2467  1.5877
  167MOL0     H22532   4.494   3.110   0.541 -0.3029  0.5405  1.0010
  167MOL0     H22533   4.433   2.844   0.163 -1.2778 -1.8468 -1.3550
  167MOL0     H22534   4.568   2.684   0.012 -3.1189 -1.1182  0.0347
  167MOL0     H22535   4.596   2.403   0.029 -1.8281  3.2348  0.6967
  167MOL0     H22536   4.648   2.520  -0.088 -0.5637 -0.2465 -1.0400
  167MOL0     H22537   4.720   2.266  -0.108 -0.0017 -1.0534  1.4078
  167MOL0     H22538   4.865   2.313  -0.028  0.3019 -0.9918 -1.2590
  167MOL0     H22539   4.875   2.515  -0.202  4.9829 -2.1216  2.7744
  167MOL0     H22540   4.746   2.437  -0.286 -1.3270 -3.3176 -0.4296
  167MOL0     H22541   5.020   2.306  -0.231  0.5049 -4.1858 -2.9801
  167MOL0     H22542   4.978   2.417  -0.365  0.5712  2.8714  2.6267
  167MOL0     H22543   4.812   2.055  -0.494 -0.6875  1.2928 -0.0984
  167MOL0     H22544   4.802   2.556   0.349  1.5470  1.7609 -0.8428
  167MOL0     H22545   4.648   2.666   0.489 -0.9299 -0.5623 -0.5321
  168MOL0     O22546   7.404   2.737   1.318 -1.3892 -0.1368  0.0172
  168MOL0     C22547   7.356   2.849   1.333  0.1895 -0.8579  0.2871
  168MOL0     O22548   7.375   2.958   1.257  0.3451  0.3373  0.0699
  168MOL0     C22549   7.412   2.945   1.128 -0.6308  0.1525  0.3060
  168MOL0     C22550   7.378   3.051   1.036  0.3295  0.1203 -0.1306
  168MOL0     C22551   7.402   3.051   0.899  0.2447 -0.6859  0.4106
  168MOL0     C22552   7.479   2.942   0.844  0.5584  0.0823 -0.4907
  168MOL0     O22553   7.526   2.947   0.715  0.1124  0.1804  1.1310
  168MOL0     C22554   7.508   2.829   0.628  0.7070  0.2322  0.0287
  168MOL0     C22555   7.648   2.782   0.577  0.0701  0.7025  0.7223
  168MOL0     C22556   7.699   2.873   0.454  0.3274  0.1727  0.4567
  168MOL0     C22557   7.855   2.827   0.440  0.5606 -0.0035 -0.3497
  168MOL0     C22558   7.918   2.875   0.300  0.7175 -0.4727  0.1810
  168MOL0     C22559   8.065   2.846   0.287  0.8573 -0.0626 -1.3239
  168MOL0     C22560   8.132   2.904   0.158 -0.2907  0.7114  0.1244
  168MOL0     C22561   8.268   2.846   0.118 -0.5570 -0.9634 -0.4100
  168MOL0     N22562   8.288   2.871  -0.018  0.4137  0.5680  0.7861
  168MOL0     C22563   8.389   2.950  -0.067  0.4725 -0.5260  0.6198
  168MOL0     C22564   8.389   2.930  -0.202 -0.3128 -0.6564  0.3870
  168MOL0     C22565   8.478   3.021  -0.291 -0.3823  0.2040 -0.8106
  168MOL0     C22566   8.626   3.000  -0.250 -0.8283  0.1060 -0.3491
  168MOL0     C22567   8.678   2.872  -0.313  0.8595 -0.4483 -0.3173
  168MOL0     C22568   8.637   2.727  -0.268 -0.5543  0.1680  0.6284
  168MOL0     O22569   8.695   2.627  -0.361  0.0643  0.0783 -0.5745
  168MOL0     C22570   8.613   2.587  -0.458  0.3558 -0.5686  0.1496
  168MOL0     C22571   8.497   2.662  -0.499 -0.6197 -0.2517 -0.8760
  168MOL0     C22572   8.422   2.631  -0.617  0.2016 -0.1814  0.5306
  168MOL0     C22573   8.305   2.718  -0.635  0.0527  0.7565 -0.3992
  168MOL0     C22574   8.477   2.531  -0.704  0.4196 -1.0198  0.9486
  168MOL0     C22575   8.422   2.491  -0.837 -0.7669  1.2700  0.5419
  168MOL0     O22576   8.505   2.419  -0.911 -0.3423  0.5088  0.5133
  168MOL0     C22577   8.474   2.372  -1.044 -0.0268 -0.8644 -0.0527
  168MOL0     C22578   8.353   2.383  -1.125 -0.3143 -0.1343 -0.3295
  168MOL0     C22579   8.330   2.302  -1.239 -0.4982  0.1217  0.4615
  168MOL0     C22580   8.438   2.220  -1.289 -0.3790 -0.2793  0.1190
  168MOL0     O22581   8.440   2.150  -1.404  0.7881  0.7533  0.5897
  168MOL0     C22582   8.396   2.230  -1.517  0.2414 -0.1343  0.9334
  168MOL0     C22583   8.355   2.136  -1.644 -0.1857  0.3247 -0.1577
  168MOL0     C22584   8.473   2.052  -1.701  0.1446 -0.4650  0.0235
  168MOL0     C22585   8.568   2.153  -1.772 -1.1941 -1.2487  0.7827
  168MOL0     C22586   8.705   2.082  -1.814 -0.3143 -0.1109  0.4665
  168MOL0     C22587   8.785   2.024  -1.691  0.6423 -0.5008 -0.3600
  168MOL0     C22588   8.917   1.966  -1.728  0.9767 -0.0104  0.2372
  168MOL0     C22589   8.920   1.843  -1.816 -1.0309 -0.3752 -0.0712
  168MOL0    Cl22590   9.083   1.769  -1.845 -0.1582 -0.6880  0.3387
  168MOL0     C22591   8.555   2.218  -1.221  0.5800  0.0116  0.0049
  168MOL0     C22592   8.576   2.287  -1.098  0.3928  0.2192  1.7098
  168MOL0     O22593   8.310   2.524  -0.872  0.2575 -0.1051 -0.0630
  168MOL0     C22594   8.597   2.474  -0.660 -0.5042 -0.8657 -0.5803
  168MOL0     C22595   8.657   2.490  -0.536 -0.1029  0.4148  0.6145
  168MOL0     N22596   8.296   2.841  -0.238  0.6512  0.9094 -0.0103
  168MOL0     N22597   8.232   2.799  -0.127  0.0322  0.1064 -0.2278
  168MOL0     C22598   7.526   2.842   0.925 -0.7442  0.3667  0.4131
  168MOL0     C22599   7.494   2.847   1.062  0.7087 -0.4242  0.0382
  168MOL0     C22600   7.262   2.868   1.441  0.3689  0.0115  0.0917
  168MOL0     C22601   7.160   2.968   1.437  0.7763  0.3597 -0.5835
  168MOL0     C22602   7.073   2.975   1.551 -0.5397 -0.1561  1.2795
  168MOL0     C22603   7.098   2.893   1.662  0.7517  0.8938  0.3345
  168MOL0     O22604   7.040   2.911   1.780 -0.3428 -0.4719 -0.1783
  168MOL0     C22605   6.965   2.805   1.836  0.3604 -0.3514  0.5501
  168MOL0     C22606   6.816   2.791   1.788  0.2038 -0.2437 -1.0137
  168MOL0     C22607   6.739   2.919   1.799  0.5030  0.2130  0.2111
  168MOL0     C22608   6.594   2.896   1.767 -0.5301  0.6025  0.3469
  168MOL0     C22609   6.520   3.018   1.770  0.2180  0.3901  0.7119
  168MOL0     C22610   6.451   3.120   1.771 -0.3504 -0.4217  0.5064
  168MOL0     C22611   7.184   2.788   1.649 -0.3201  0.3155  0.5967
  168MOL0     C22612   7.271   2.781   1.547  0.7813  0.9659 -0.1318
  168MOL0     H22613   7.323   3.134   1.080  0.9268  0.0815  0.7131
  168MOL0     H22614   7.386   3.141   0.840  1.2711 -0.1855  0.8705
  168MOL0     H22615   7.451   2.743   0.666  1.0680 -0.9662 -1.9300
  168MOL0     H22616   7.455   2.848   0.534 -0.8532  1.6668  1.1592
  168MOL0     H22617   7.708   2.780   0.668  1.8887 -0.1339 -0.4508
  168MOL0     H22618   7.642   2.679   0.541  2.8701  0.8255 -0.3162
  168MOL0     H22619   7.645   2.837   0.365  1.5061  0.2950 -0.3297
  168MOL0     H22620   7.681   2.980   0.472  1.5538  1.0764 -2.9236
  168MOL0     H22621   7.898   2.873   0.529 -2.4660  0.8049  0.8150
  168MOL0     H22622   7.865   2.719   0.455  0.1094  0.1236  0.9888
  168MOL0     H22623   7.864   2.822   0.222  0.9688 -1.3884  0.6193
  168MOL0     H22624   7.910   2.982   0.276  2.6082 -0.4174 -0.3863
  168MOL0     H22625   8.104   2.897   0.376 -0.9287  2.7031 -1.9869
  168MOL0     H22626   8.095   2.742   0.305 -0.4683 -0.0904  1.2196
  168MOL0     H22627   8.065   2.881   0.076 -0.6006  0.4871  0.4376
  168MOL0     H22628   8.137   3.013   0.160  1.0879  0.6722  1.3784
  168MOL0     H22629   8.269   2.738   0.136  0.5805 -0.6476  1.6603
  168MOL0     H22630   8.351   2.886   0.177  0.1086 -0.7346 -1.4831
  168MOL0     H22631   8.436   3.030  -0.011 -3.9841  0.7180  3.0757
  168MOL0     H22632   8.472   3.005  -0.399  2.7400 -1.2521 -0.8704
  168MOL0     H22633   8.450   3.126  -0.278 -1.0981 -0.0822  0.0946
  168MOL0     H22634   8.629   2.989  -0.141 -1.8985  1.3039 -0.1763
  168MOL0     H22635   8.695   3.082  -0.273  0.9035 -0.6984  1.5924
  168MOL0     H22636   8.786   2.883  -0.302  0.6781  0.6902  0.5574
  168MOL0     H22637   8.646   2.883  -0.417 -2.9903  0.1720  0.7712
  168MOL0     H22638   8.530   2.714  -0.248 -1.1643  2.0158 -1.0849
  168MOL0     H22639   8.686   2.708  -0.172  1.5187 -0.8158 -0.5485
  168MOL0     H22640   8.464   2.755  -0.454 -2.7547 -0.7183 -1.3653
  168MOL0     H22641   8.213   2.667  -0.606  3.0032 -2.8351  4.0822
  168MOL0     H22642   8.305   2.802  -0.566 -0.2286  1.3912 -1.1559
  168MOL0     H22643   8.298   2.756  -0.737 -2.9593  0.2141 -0.4824
  168MOL0     H22644   8.264   2.435  -1.091 -0.8401 -3.5500  4.5104
  168MOL0     H22645   8.237   2.283  -1.291  0.4847 -1.3659 -0.8573
  168MOL0     H22646   8.305   2.288  -1.502 -0.6852 -0.4173 -2.5996
  168MOL0     H22647   8.476   2.293  -1.556 -0.4081  0.3805  0.4063
  168MOL0     H22648   8.274   2.069  -1.615 -0.5798  1.0253  0.3958
  168MOL0     H22649   8.308   2.208  -1.712 -0.2586  2.9236  2.4226
  168MOL0     H22650   8.449   1.970  -1.769  1.2115  0.7440 -1.9150
  168MOL0     H22651   8.532   2.007  -1.620 -0.0557  2.0783  1.6934
  168MOL0     H22652   8.522   2.202  -1.858  3.0635  0.9655 -0.5559
  168MOL0     H22653   8.588   2.244  -1.713  2.4201 -0.0939 -1.8494
  168MOL0     H22654   8.759   2.152  -1.878 -2.8942 -0.0183 -1.8190
  168MOL0     H22655   8.678   2.001  -1.883  0.3591  1.7959 -2.2019
  168MOL0     H22656   8.803   2.110  -1.625 -1.2568 -0.1346 -0.2608
  168MOL0     H22657   8.721   1.950  -1.642 -0.5902 -0.7312 -2.2054
  168MOL0     H22658   8.957   1.921  -1.637  0.9612 -2.0829 -0.7404
  168MOL0     H22659   8.980   2.044  -1.772 -0.3603  1.1774  0.3605
  168MOL0     H22660   8.885   1.877  -1.914 -2.4135  2.1247  1.1941
  168MOL0     H22661   8.854   1.765  -1.776 -0.5300 -0.5316  0.4632
  168MOL0     H22662   8.644   2.172  -1.262  1.0695 -0.6387  1.7205
  168MOL0     H22663   8.671   2.280  -1.046  1.3693 -0.4267 -0.0547
  168MOL0     H22664   8.645   2.410  -0.733  3.2314  1.1310 -0.1232
  168MOL0     H22665   8.736   2.426  -0.498  0.2704  0.6571  0.2702
  168MOL0     H22666   7.601   2.771   0.889 -0.1721  0.3014  1.6774
  168MOL0     H22667   7.557   2.780   1.118  1.2310  0.7519  0.8911
  168MOL0     H22668   7.153   3.033   1.350  0.7390  1.8019  0.4524
  168MOL0     H22669   6.995   3.049   1.559 -0.3190  0.5837 -2.0723
  168MOL0     H22670   7.016   2.711   1.816  0.7645 -0.7212  2.9873
  168MOL0     H22671   6.961   2.818   1.945 -1.3232  0.1591  0.4514
  168MOL0     H22672   6.775   2.712   1.851  1.1074 -1.6709 -2.1715
  168MOL0     H22673   6.816   2.748   1.688  1.1996 -4.0413  0.4288
  168MOL0     H22674   6.781   2.981   1.719  0.0765 -1.3816 -1.3065
  168MOL0     H22675   6.754   2.960   1.900 -0.0542 -0.6412  0.6497
  168MOL0     H22676   6.550   2.828   1.842 -1.7116 -0.3541 -1.1611
  168MOL0     H22677   6.582   2.835   1.677  3.4095  3.3827 -2.3752
  168MOL0     H22678   6.395   3.211   1.776 -0.0949 -0.0778 -1.7200
  168MOL0     H22679   7.199   2.717   1.730 -0.0469  0.3210  0.5509
  168MOL0     H22680   7.352   2.708   1.552  1.2122  1.4762  0.4278
  169MOL0     O22681   5.624   6.030   1.844 -0.3066  0.6725  0.5109
  169MOL0     C22682   5.610   6.150   1.841 -0.5445  0.0022 -0.3892
  169MOL0     O22683   5.536   6.216   1.738 -0.4161 -0.5708 -1.0407
  169MOL0     C22684   5.471   6.145   1.643  0.7478  0.6014  0.1718
  169MOL0     C22685   5.400   6.026   1.664  0.0550 -0.1437 -0.7527
  169MOL0     C22686   5.339   5.952   1.559 -0.6472 -0.6795  0.1960
  169MOL0     C22687   5.324   6.005   1.427 -0.0511  1.7672  0.4633
  169MOL0     O22688   5.250   5.926   1.334  0.3467 -0.5564  0.5468
  169MOL0     C22689   5.260   5.967   1.191  0.0192  0.1367  0.2662
  169MOL0     C22690   5.163   5.882   1.112 -0.1744  0.0396 -0.2905
  169MOL0     C22691   5.026   5.954   1.129 -0.0103 -0.4431 -0.7667
  169MOL0     C22692   4.911   5.886   1.056 -0.0402 -0.1659  0.2851
  169MOL0     C22693   4.786   5.960   1.091 -0.0867  0.6619 -0.1009
  169MOL0     C22694   4.658   5.916   1.011 -0.8127 -0.1586 -1.0031
  169MOL0     C22695   4.547   6.015   1.012 -0.5527 -0.0218  0.7204
  169MOL0     C22696   4.478   6.012   1.138 -0.0586 -0.7998 -0.6353
  169MOL0     N22697   4.359   6.096   1.148  0.1699 -0.2104 -0.0601
  169MOL0     C22698   4.258   6.114   1.055  0.4054 -0.0063 -0.3433
  169MOL0     C22699   4.164   6.187   1.119 -0.7090 -0.4582 -0.5163
  169MOL0     C22700   4.046   6.254   1.065 -0.4955 -0.2338  1.0447
  169MOL0     C22701   4.084   6.400   1.019  0.1750 -0.1140  0.2965
  169MOL0     C22702   4.121   6.494   1.140 -0.0366  0.3301 -0.0906
  169MOL0     C22703   4.116   6.636   1.115  0.8636 -0.9478  0.2328
  169MOL0     O22704   4.206   6.675   1.014  0.0762 -0.1572 -0.7288
  169MOL0     C22705   4.332   6.728   1.044  0.1671  0.8193 -0.1654
  169MOL0     C22706   4.418   6.716   0.933  0.4118  0.5828  0.0510
  169MOL0     C22707   4.550   6.747   0.940 -0.7840 -0.4208  0.4766
  169MOL0     C22708   4.642   6.735   0.816  0.4540 -0.6612 -0.4812
  169MOL0     C22709   4.598   6.811   1.064 -0.5989 -0.5117  0.1474
  169MOL0     C22710   4.743   6.849   1.093 -0.2750 -1.2187 -0.3537
  169MOL0     O22711   4.764   6.921   1.206 -0.4649  0.1897 -0.2173
  169MOL0     C22712   4.893   6.924   1.255 -0.5581 -0.2269 -1.2982
  169MOL0     C22713   4.960   6.815   1.316 -0.7991 -0.5729 -0.5401
  169MOL0     C22714   5.088   6.833   1.367 -0.0835 -0.7609 -1.0826
  169MOL0     C22715   5.152   6.957   1.350  0.3114  0.7730 -0.3678
  169MOL0     O22716   5.281   6.988   1.387  0.2307  0.2538  0.4820
  169MOL0     C22717   5.358   6.881   1.443  0.1395  0.3316  0.0676
  169MOL0     C22718   5.502   6.915   1.474  0.1350  0.6967 -0.1559
  169MOL0     C22719   5.515   7.024   1.574  0.2243 -0.2843 -0.4741
  169MOL0     C22720   5.466   6.984   1.708  0.1062 -1.3321  0.4482
  169MOL0     C22721   5.458   7.103   1.804  0.8299 -0.1857  0.1844
  169MOL0     C22722   5.594   7.131   1.865 -0.7505 -0.2411 -0.5896
  169MOL0     C22723   5.588   7.187   2.007 -0.4390 -0.6139  0.1723
  169MOL0     C22724   5.726   7.196   2.085 -0.0791  0.4813 -0.4594
  169MOL0    Cl22725   5.694   7.308   2.220  0.1464 -0.6041 -0.3662
  169MOL0     C22726   5.090   7.062   1.281 -0.5700 -0.6958  0.3573
  169MOL0     C22727   4.967   7.047   1.239  0.9127 -0.6382  0.5142
  169MOL0     O22728   4.833   6.811   1.012 -0.2394 -0.3975  0.1991
  169MOL0     C22729   4.508   6.833   1.172  0.6781  0.3933 -0.5368
  169MOL0     C22730   4.377   6.785   1.168  0.4816  1.1810 -0.4353
  169MOL0     N22731   4.204   6.210   1.245  0.3186 -0.8651  0.5013
  169MOL0     N22732   4.318   6.150   1.265  0.3216 -0.4755  0.0371
  169MOL0     C22733   5.396   6.126   1.404 -0.0289  1.2538 -0.0005
  169MOL0     C22734   5.465   6.197   1.515 -0.4717 -0.0062 -0.7719
  169MOL0     C22735   5.683   6.250   1.930 -1.1959  0.0862 -0.3585
  169MOL0     C22736   5.740   6.203   2.052  0.0972 -0.3276  0.8258
  169MOL0     C22737   5.813   6.295   2.125 -0.6914  0.4145 -0.1336
  169MOL0     C22738   5.831   6.432   2.096  0.0893  0.7159  0.1893
  169MOL0     O22739   5.904   6.521   2.166  0.1037 -0.2712 -0.2924
  169MOL0     C22740   5.988   6.467   2.270 -0.2711 -1.1408 -0.9846
  169MOL0     C22741   6.064   6.582   2.328 -0.5196 -0.0735 -0.0386
  169MOL0     C22742   6.197   6.537   2.388 -0.8936 -0.3643  0.7783
  169MOL0     C22743   6.301   6.527   2.273  0.2021  0.9275 -0.6407
  169MOL0     C22744   6.434   6.581   2.307 -0.4077 -0.7860 -0.8976
  169MOL0     C22745   6.540   6.620   2.332  0.3622 -0.8081 -0.5636
  169MOL0     C22746   5.800   6.459   1.963 -0.1917 -0.0605 -0.3470
  169MOL0     C22747   5.720   6.372   1.894  0.2550 -0.5893  0.1690
  169MOL0     H22748   5.405   5.992   1.767  1.6768 -2.0223 -1.3882
  169MOL0     H22749   5.292   5.859   1.591 -4.3741  1.5328  1.8478
  169MOL0     H22750   5.237   6.074   1.185  0.8626  0.8791  5.2507
  169MOL0     H22751   5.365   5.946   1.167 -0.1911  1.5915 -2.2821
  169MOL0     H22752   5.195   5.871   1.008 -1.1688 -1.6964 -0.4354
  169MOL0     H22753   5.153   5.782   1.155  0.9740 -0.1550 -0.4462
  169MOL0     H22754   4.998   5.950   1.235 -0.0484 -3.5581 -0.8100
  169MOL0     H22755   5.031   6.056   1.088 -2.2318  0.5244  1.1035
  169MOL0     H22756   4.938   5.896   0.950 -0.2927  0.7201  0.3038
  169MOL0     H22757   4.920   5.780   1.083 -0.3391 -1.1380 -2.9337
  169MOL0     H22758   4.767   5.943   1.197  2.6885 -0.6842  0.2577
  169MOL0     H22759   4.795   6.068   1.079 -1.9452  0.8899  0.1630
  169MOL0     H22760   4.683   5.910   0.905  0.8586  0.7322 -0.6956
  169MOL0     H22761   4.624   5.819   1.048 -0.8746  0.9442  2.1396
  169MOL0     H22762   4.584   6.117   1.004  1.9717 -0.7228  2.3059
  169MOL0     H22763   4.480   5.997   0.927 -1.0019 -1.2269  1.2994
  169MOL0     H22764   4.550   6.059   1.205 -2.0678  1.1683  0.2484
  169MOL0     H22765   4.452   5.915   1.182 -2.1178 -1.0200 -2.1652
  169MOL0     H22766   4.279   6.067   0.960  2.4729 -1.6563  0.8302
  169MOL0     H22767   4.010   6.197   0.979 -0.1421  0.2611  0.5593
  169MOL0     H22768   3.975   6.259   1.148 -1.5166 -0.3248  0.1984
  169MOL0     H22769   3.998   6.449   0.971  0.8647  2.8876  1.9162
  169MOL0     H22770   4.164   6.397   0.944 -0.0572 -0.3653  0.0502
  169MOL0     H22771   4.225   6.467   1.162  0.4395  2.9141  1.1447
  169MOL0     H22772   4.067   6.474   1.233  4.8027  0.6367  3.1360
  169MOL0     H22773   4.146   6.691   1.205  0.9045  1.5814 -1.2253
  169MOL0     H22774   4.016   6.668   1.085  0.9765 -2.0225 -1.4461
  169MOL0     H22775   4.368   6.682   0.843  2.7432 -2.5079 -0.2313
  169MOL0     H22776   4.679   6.832   0.780 -2.7491  0.4767 -1.0179
  169MOL0     H22777   4.726   6.672   0.847  0.8768 -0.2433 -0.7647
  169MOL0     H22778   4.581   6.710   0.730 -2.1284  3.2033 -0.0479
  169MOL0     H22779   4.909   6.721   1.333  1.5069 -1.4677  1.9926
  169MOL0     H22780   5.126   6.750   1.425 -2.5551 -0.5411  1.0470
  169MOL0     H22781   5.302   6.841   1.528 -0.9248  2.8998  0.6911
  169MOL0     H22782   5.360   6.810   1.360 -1.2291  2.2122 -1.7026
  169MOL0     H22783   5.561   6.832   1.514  0.0732 -0.7947 -2.9190
  169MOL0     H22784   5.550   6.955   1.384  0.9742  2.5163  1.0353
  169MOL0     H22785   5.474   7.119   1.539  0.1952 -0.3500 -0.6179
  169MOL0     H22786   5.621   7.052   1.581  0.2475 -0.6484  0.8572
  169MOL0     H22787   5.371   6.932   1.690 -0.2355  0.0645 -2.3654
  169MOL0     H22788   5.529   6.909   1.756 -1.0921 -1.4874  1.8427
  169MOL0     H22789   5.388   7.070   1.881 -2.1343 -1.6431 -2.8730
  169MOL0     H22790   5.426   7.193   1.750 -0.2634 -1.0696 -0.7208
  169MOL0     H22791   5.652   7.038   1.871 -0.1506  0.2120  2.2153
  169MOL0     H22792   5.644   7.199   1.797 -2.2060  1.7492  0.2444
  169MOL0     H22793   5.520   7.131   2.072 -0.1003  0.9522  1.9760
  169MOL0     H22794   5.551   7.290   2.011 -2.8207 -1.4115  3.3131
  169MOL0     H22795   5.794   7.247   2.017  0.1579 -0.0201 -0.5984
  169MOL0     H22796   5.753   7.096   2.121  0.0437  1.1756  1.5399
  169MOL0     H22797   5.135   7.160   1.275  0.1807 -1.0927 -0.6493
  169MOL0     H22798   4.917   7.126   1.184 -1.0287 -2.0825  0.0700
  169MOL0     H22799   4.543   6.870   1.267 -0.0053 -0.5461  0.1126
  169MOL0     H22800   4.314   6.799   1.256  1.2093  3.8296 -0.2381
  169MOL0     H22801   5.389   6.178   1.309 -0.8967  1.0506 -0.0593
  169MOL0     H22802   5.514   6.291   1.493 -2.6065  1.6757  1.1727
  169MOL0     H22803   5.734   6.098   2.078 -0.9072 -1.0784 -2.0275
  169MOL0     H22804   5.851   6.250   2.216 -1.3896  2.9302  1.5219
  169MOL0     H22805   5.930   6.434   2.356  1.0148  0.4515  0.5756
  169MOL0     H22806   6.056   6.389   2.233  0.6645 -1.4138  1.1680
  169MOL0     H22807   6.005   6.618   2.413 -2.9363 -0.3330 -1.5034
  169MOL0     H22808   6.083   6.662   2.255 -0.6986  1.1375  1.1996
  169MOL0     H22809   6.189   6.445   2.446 -0.4952  0.5063  2.2808
  169MOL0     H22810   6.233   6.614   2.458 -1.6466 -0.5463  1.3852
  169MOL0     H22811   6.264   6.587   2.189  0.8929 -2.0907 -3.3079
  169MOL0     H22812   6.316   6.427   2.230  2.7680  1.0456 -0.2103
  169MOL0     H22813   6.643   6.641   2.352  0.9383 -2.1777 -1.9290
  169MOL0     H22814   5.840   6.556   1.937  1.8281 -0.2066  1.9057
  169MOL0     H22815   5.702   6.382   1.787 -0.2879  0.2308  0.3267
  170MOL0     O22816   6.820   0.203   0.732  0.4985 -0.4739 -0.6730
  170MOL0     C22817   6.925   0.228   0.677 -0.4891 -0.9913  0.2398
  170MOL0     O22818   6.974   0.354   0.659  0.0526  0.1448  0.0371
  170MOL0     C22819   6.906   0.462   0.704  0.2467  0.5772 -0.1211
  170MOL0     C22820   6.829   0.531   0.621 -0.0599 -0.5646  0.1623
  170MOL0     C22821   6.774   0.658   0.661 -0.8860 -0.0112 -0.6738
  170MOL0     C22822   6.803   0.712   0.789 -0.3183  0.4741 -0.3602
  170MOL0     O22823   6.743   0.829   0.830  0.6450 -0.3001  0.6418
  170MOL0     C22824   6.819   0.932   0.898  0.1582 -0.6169 -0.2705
  170MOL0     C22825   6.764   0.955   1.041 -0.7461  0.5393 -0.6768
  170MOL0     C22826   6.614   0.973   1.022  0.1624  0.8056 -0.2104
  170MOL0     C22827   6.549   1.022   1.141  0.1474 -0.4575  0.0117
  170MOL0     C22828   6.405   1.064   1.111  1.3988  0.2826  0.3187
  170MOL0     C22829   6.367   1.178   1.206  0.1279  1.0181  0.8480
  170MOL0     C22830   6.214   1.200   1.212 -0.6507 -0.6128  1.1024
  170MOL0     C22831   6.170   1.356   1.210 -0.5523 -0.4491 -1.0288
  170MOL0     N22832   6.023   1.365   1.203  0.7147 -0.5562 -0.5817
  170MOL0     C22833   5.927   1.324   1.296 -0.8764 -0.0060  0.0178
  170MOL0     C22834   5.813   1.293   1.225  0.3933 -0.6386  0.2781
  170MOL0     C22835   5.696   1.230   1.289  0.4987 -0.3907 -0.4895
  170MOL0     C22836   5.593   1.354   1.321 -0.5228  0.5356  0.2146
  170MOL0     C22837   5.455   1.291   1.357  0.1332  1.3272 -0.8206
  170MOL0     C22838   5.362   1.404   1.407  0.1539  0.6539  0.7187
  170MOL0     O22839   5.381   1.435   1.540 -0.1516  0.4521  0.6444
  170MOL0     C22840   5.309   1.544   1.592  0.4673 -0.2320 -0.1665
  170MOL0     C22841   5.310   1.560   1.729  0.0216 -0.0631 -0.3203
  170MOL0     C22842   5.242   1.657   1.797  0.0255 -1.0058  0.1060
  170MOL0     C22843   5.254   1.652   1.947  0.0391 -0.3238  0.6706
  170MOL0     C22844   5.166   1.749   1.719  0.0887 -0.9940 -0.5463
  170MOL0     C22845   5.089   1.870   1.783 -0.2517  0.0694 -0.8552
  170MOL0     O22846   5.074   1.884   1.915 -0.4889  0.4441 -0.7230
  170MOL0     C22847   4.979   1.971   1.974 -0.7589 -0.0769 -0.2377
  170MOL0     C22848   4.898   2.069   1.911 -0.6031 -0.1600  0.3741
  170MOL0     C22849   4.820   2.164   1.974 -0.1269  1.6354  0.3964
  170MOL0     C22850   4.807   2.155   2.111 -1.0139 -0.5297 -0.0517
  170MOL0     O22851   4.718   2.249   2.154 -0.0872 -0.1499 -0.3414
  170MOL0     C22852   4.708   2.271   2.298  0.4986 -0.9323  0.0319
  170MOL0     C22853   4.645   2.401   2.328  0.2194 -0.4416 -0.3445
  170MOL0     C22854   4.714   2.524   2.262  0.3201 -0.3431  0.1349
  170MOL0     C22855   4.692   2.549   2.114 -0.7609 -0.5913  0.1333
  170MOL0     C22856   4.732   2.694   2.070 -0.3267  0.0621  0.4895
  170MOL0     C22857   4.748   2.708   1.920  0.2233  0.1224 -0.0277
  170MOL0     C22858   4.769   2.853   1.881  0.3559  0.0834  0.9530
  170MOL0     C22859   4.875   2.858   1.765  0.4805 -0.0877 -0.1661
  170MOL0    Cl22860   4.801   2.789   1.620  0.0627 -1.0121  0.0129
  170MOL0     C22861   4.887   2.062   2.191 -0.1734 -0.9792 -0.1378
  170MOL0     C22862   4.971   1.972   2.114  0.3977  0.7344  0.3586
  170MOL0     O22863   5.043   1.947   1.699  0.3601  0.1197 -0.0957
  170MOL0     C22864   5.175   1.738   1.583  0.3561 -0.0510  0.3986
  170MOL0     C22865   5.236   1.633   1.518 -0.5878  0.0686 -0.1173
  170MOL0     N22866   5.833   1.342   1.093  0.3981  0.2137 -0.7775
  170MOL0     N22867   5.952   1.385   1.091 -0.7005 -0.3439  0.4823
  170MOL0     C22868   6.883   0.630   0.876  0.3841  0.0862 -0.7180
  170MOL0     C22869   6.930   0.510   0.829 -0.1515 -0.7748 -0.0395
  170MOL0     C22870   7.009   0.121   0.623 -1.0267 -0.8313  0.9131
  170MOL0     C22871   6.950   0.002   0.582 -0.0681  1.2241 -1.0477
  170MOL0     C22872   7.024  -0.109   0.534 -0.1335 -0.3107  0.5802
  170MOL0     C22873   7.171  -0.087   0.533 -0.2813  0.0521  1.5636
  170MOL0     O22874   7.249  -0.190   0.478 -0.1224 -0.2137 -0.1070
  170MOL0     C22875   7.199  -0.322   0.448  0.5217 -0.0958 -0.2942
  170MOL0     C22876   7.311  -0.411   0.397 -0.0020 -0.8755 -0.4321
  170MOL0     C22877   7.397  -0.470   0.515 -0.3593  0.5996 -0.0537
  170MOL0     C22878   7.459  -0.611   0.459 -0.5805  1.0259 -0.5626
  170MOL0     C22879   7.377  -0.725   0.483 -0.5649  0.0314  0.6212
  170MOL0     C22880   7.306  -0.830   0.487 -0.4139  0.4444 -0.5455
  170MOL0     C22881   7.230   0.029   0.567 -0.0050 -0.2060  0.0424
  170MOL0     C22882   7.150   0.134   0.612 -1.7715  0.4682  0.3163
  170MOL0     H22883   6.807   0.501   0.519  1.5280  1.7970 -0.9737
  170MOL0     H22884   6.722   0.722   0.589  1.4057  1.7281 -0.9042
  170MOL0     H22885   6.926   0.913   0.907 -0.0030 -2.6395 -1.8378
  170MOL0     H22886   6.817   1.026   0.844  2.0303  0.2813  1.1028
  170MOL0     H22887   6.774   0.862   1.097 -1.5335  0.3257 -0.8831
  170MOL0     H22888   6.811   1.043   1.086 -2.8164  2.5980 -2.2777
  170MOL0     H22889   6.587   1.044   0.943 -1.4971  1.4464  0.8661
  170MOL0     H22890   6.581   0.869   1.011  0.4253  0.9208 -2.9129
  170MOL0     H22891   6.572   0.961   1.228  1.3237 -2.5546 -1.6888
  170MOL0     H22892   6.603   1.113   1.169 -1.5477  0.1589  1.5131
  170MOL0     H22893   6.393   1.088   1.005  0.8750 -4.2888 -0.9028
  170MOL0     H22894   6.339   0.977   1.119 -1.8902  2.7727  3.2195
  170MOL0     H22895   6.400   1.147   1.306 -3.4366 -0.5331  1.7189
  170MOL0     H22896   6.412   1.272   1.175 -1.3316  1.4911  0.0595
  170MOL0     H22897   6.169   1.153   1.123  0.7886 -1.6348  0.8709
  170MOL0     H22898   6.177   1.146   1.299  1.2526 -3.7850  0.1198
  170MOL0     H22899   6.223   1.399   1.125 -1.1999  3.2404  0.2388
  170MOL0     H22900   6.208   1.397   1.304  0.6749 -2.1341 -0.7426
  170MOL0     H22901   5.936   1.322   1.404 -1.0245 -0.4174  0.0236
  170MOL0     H22902   5.640   1.166   1.221  1.4289 -2.1012  0.2941
  170MOL0     H22903   5.715   1.174   1.381 -0.3261  1.8155  1.1484
  170MOL0     H22904   5.587   1.401   1.223  2.0734  1.4008  0.3868
  170MOL0     H22905   5.633   1.424   1.396 -0.8110 -0.9323  1.8062
  170MOL0     H22906   5.468   1.208   1.427  2.5831 -0.5699 -3.2969
  170MOL0     H22907   5.417   1.230   1.275 -2.2209 -0.0163  1.1354
  170MOL0     H22908   5.254   1.388   1.394  0.3876  0.4266 -1.3437
  170MOL0     H22909   5.381   1.487   1.339  0.3225  0.4182  0.4740
  170MOL0     H22910   5.354   1.480   1.787 -0.6187  0.4054  0.8555
  170MOL0     H22911   5.156   1.653   1.996  0.2503 -2.6488  1.2817
  170MOL0     H22912   5.289   1.558   1.990  1.5912  0.0646  0.3038
  170MOL0     H22913   5.311   1.737   1.985 -2.2926  0.9896  1.4722
  170MOL0     H22914   4.892   2.080   1.803 -0.4388  0.3864  0.4183
  170MOL0     H22915   4.758   2.237   1.923 -2.4264  0.7619  1.7491
  170MOL0     H22916   4.653   2.188   2.343  0.3134  0.6394  2.9741
  170MOL0     H22917   4.811   2.275   2.334  0.4276 -0.0684  0.1762
  170MOL0     H22918   4.541   2.399   2.293 -0.5205  1.0117  1.5894
  170MOL0     H22919   4.641   2.413   2.436  0.3535  0.2320 -0.4067
  170MOL0     H22920   4.820   2.509   2.285 -0.2847 -1.2264  2.6688
  170MOL0     H22921   4.674   2.614   2.311 -0.6606 -1.6982  1.9377
  170MOL0     H22922   4.767   2.491   2.059  0.6638  1.5632 -0.3161
  170MOL0     H22923   4.592   2.520   2.083 -0.4381 -0.1566 -1.4012
  170MOL0     H22924   4.823   2.737   2.112 -0.7943  2.2129 -0.5648
  170MOL0     H22925   4.642   2.753   2.090 -1.3009 -1.7830  1.8998
  170MOL0     H22926   4.832   2.649   1.883 -0.6467  0.6603 -3.1416
  170MOL0     H22927   4.661   2.676   1.861 -0.2248  1.6641 -0.2506
  170MOL0     H22928   4.810   2.917   1.960  0.3403  1.8061 -0.3750
  170MOL0     H22929   4.676   2.904   1.855  0.4960 -0.2261 -0.2203
  170MOL0     H22930   4.967   2.804   1.790  0.2639 -0.1698  0.4589
  170MOL0     H22931   4.894   2.962   1.738 -0.8130  0.4087  0.7765
  170MOL0     H22932   4.883   2.058   2.300 -4.1016 -0.9619 -0.1310
  170MOL0     H22933   5.026   1.893   2.163 -0.8358 -1.3322 -1.4114
  170MOL0     H22934   5.119   1.811   1.526  0.4072  0.3634  0.8796
  170MOL0     H22935   5.242   1.615   1.411  0.1758 -0.5984  0.0280
  170MOL0     H22936   6.899   0.654   0.981 -1.9014 -2.7666  0.4079
  170MOL0     H22937   6.984   0.444   0.896  0.9329  0.2794  0.1707
  170MOL0     H22938   6.843  -0.005   0.598 -0.1813  2.2946 -1.2987
  170MOL0     H22939   6.974  -0.198   0.497  0.3502 -0.9675  1.4743
  170MOL0     H22940   7.159  -0.357   0.544 -2.8317  2.1820 -0.7062
  170MOL0     H22941   7.115  -0.319   0.378 -2.3515  1.8310  2.9331
  170MOL0     H22942   7.384  -0.366   0.328  3.4265 -0.8488  2.8632
  170MOL0     H22943   7.271  -0.494   0.338 -2.9974  0.9542 -1.1312
  170MOL0     H22944   7.329  -0.493   0.597  0.6037  0.3819  0.6953
  170MOL0     H22945   7.477  -0.403   0.547  0.9603 -1.3450  0.8819
  170MOL0     H22946   7.556  -0.630   0.505 -0.4296  1.4227 -0.7150
  170MOL0     H22947   7.476  -0.604   0.351 -1.7486  3.2160 -0.6601
  170MOL0     H22948   7.228  -0.902   0.499 -1.5133  1.9749  3.0746
  170MOL0     H22949   7.337   0.043   0.555 -0.0819 -0.5875 -1.2195
  170MOL0     H22950   7.196   0.226   0.647  1.2283 -1.4905  2.0362
  171MOL0     O22951   2.982   0.755   6.521  0.2164 -0.2386 -0.0776
  171MOL0     C22952   2.928   0.832   6.603 -0.5236  0.2436 -1.4377
  171MOL0     O22953   2.999   0.922   6.687  1.2688  0.0193 -0.6995
  171MOL0     C22954   3.130   0.914   6.694 -1.2706 -0.0736 -0.0038
  171MOL0     C22955   3.197   1.020   6.631  0.3091  0.2450 -0.5738
  171MOL0     C22956   3.334   1.030   6.651 -0.0669 -0.3458  0.2916
  171MOL0     C22957   3.403   0.944   6.732 -0.7085 -1.2142 -2.2121
  171MOL0     O22958   3.532   0.974   6.773 -0.3270 -0.1293  0.3387
  171MOL0     C22959   3.545   1.018   6.911  0.2496 -0.0609 -1.0904
  171MOL0     C22960   3.684   1.089   6.927 -0.7579 -0.1020 -0.4988
  171MOL0     C22961   3.680   1.239   6.873  0.2845 -0.4037  0.1951
  171MOL0     C22962   3.666   1.253   6.725  0.6831 -0.2400 -0.3115
  171MOL0     C22963   3.670   1.396   6.686 -0.0264  0.6765  0.2568
  171MOL0     C22964   3.629   1.393   6.540 -0.2444  0.7489 -0.4651
  171MOL0     C22965   3.630   1.532   6.481  0.3707 -0.7301 -0.3311
  171MOL0     C22966   3.769   1.595   6.467 -0.5969  0.2989  0.0496
  171MOL0     N22967   3.757   1.707   6.373  0.3284  0.0366  0.6380
  171MOL0     C22968   3.685   1.822   6.386 -0.6573  0.4548  0.2470
  171MOL0     C22969   3.665   1.873   6.258  0.3357  0.2148 -0.3334
  171MOL0     C22970   3.560   1.977   6.224 -0.1895 -0.4677 -0.2796
  171MOL0     C22971   3.414   1.910   6.229  0.0508 -0.1826 -0.8281
  171MOL0     C22972   3.319   2.020   6.191 -0.7429  0.7451 -0.4180
  171MOL0     C22973   3.175   2.004   6.248 -0.8810 -0.0416  0.1494
  171MOL0     O22974   3.187   2.050   6.387 -0.1696  0.6582  0.0486
  171MOL0     C22975   3.078   2.029   6.462  0.7623  0.1906 -0.3303
  171MOL0     C22976   3.013   2.132   6.528 -0.4823  0.2912  0.5324
  171MOL0     C22977   2.893   2.113   6.602  0.3640 -0.2311 -0.3257
  171MOL0     C22978   2.823   2.247   6.637 -0.8891  0.3661 -0.2562
  171MOL0     C22979   2.847   1.982   6.616  0.4490 -0.5717 -0.2660
  171MOL0     C22980   2.717   1.947   6.688 -0.5016  0.0707 -0.3850
  171MOL0     O22981   2.696   1.814   6.725  0.3938 -0.6163  0.8188
  171MOL0     C22982   2.564   1.777   6.749  0.4648 -0.0357 -0.4093
  171MOL0     C22983   2.530   1.713   6.866 -1.5341 -0.0244  0.6965
  171MOL0     C22984   2.406   1.658   6.888 -0.5331  1.2134  0.5461
  171MOL0     C22985   2.302   1.689   6.800 -0.4544 -0.9967  0.4676
  171MOL0     O22986   2.175   1.666   6.828 -0.5272  0.0117 -0.7502
  171MOL0     C22987   2.063   1.743   6.773  0.4980 -0.0081  0.8349
  171MOL0     C22988   1.949   1.732   6.880  0.4597 -0.7479 -1.0702
  171MOL0     C22989   1.823   1.800   6.833  0.7225 -0.6382  1.3476
  171MOL0     C22990   1.717   1.808   6.944  0.4256  0.0945 -0.3641
  171MOL0     C22991   1.577   1.809   6.874 -0.8070  0.9082  0.8931
  171MOL0     C22992   1.461   1.839   6.971 -0.1416  0.0538  1.0869
  171MOL0     C22993   1.331   1.849   6.901  0.2462 -0.1701  0.2204
  171MOL0     C22994   1.288   1.987   6.866 -0.4561  0.0470  1.1137
  171MOL0    Cl22995   1.116   1.977   6.797  0.1573 -0.2241 -0.5208
  171MOL0     C22996   2.327   1.764   6.682  0.0968  0.2643  0.2692
  171MOL0     C22997   2.455   1.807   6.658 -0.1840  0.4093  1.4261
  171MOL0     O22998   2.646   2.043   6.724  0.3095  1.0577  0.6869
  171MOL0     C22999   2.927   1.874   6.570  0.1175 -1.1823 -0.9346
  171MOL0     C23000   3.037   1.899   6.492 -0.0757  0.7240  0.2525
  171MOL0     N23001   3.742   1.798   6.174  0.5816 -0.3360  0.2642
  171MOL0     N23002   3.785   1.695   6.242 -0.0819  0.9515  0.2057
  171MOL0     C23003   3.340   0.836   6.795  0.7610  0.2477  0.4593
  171MOL0     C23004   3.206   0.820   6.766  0.1033 -0.9249 -0.0166
  171MOL0     C23005   2.785   0.818   6.617  0.2863 -0.0423  0.7118
  171MOL0     C23006   2.710   0.726   6.537  0.9970 -0.0219  0.5102
  171MOL0     C23007   2.569   0.706   6.561  0.5143 -0.7595  0.7754
  171MOL0     C23008   2.502   0.785   6.657 -0.0733 -0.8044  0.6444
  171MOL0     O23009   2.368   0.762   6.666  1.1557  0.1065  0.8266
  171MOL0     C23010   2.312   0.759   6.793 -0.3940  0.1526  0.5426
  171MOL0     C23011   2.174   0.698   6.786 -0.1486 -0.2902 -0.7210
  171MOL0     C23012   2.111   0.719   6.921 -0.3490  0.4645 -0.5927
  171MOL0     C23013   1.989   0.625   6.913 -0.3992 -0.1149  0.1769
  171MOL0     C23014   1.884   0.645   7.016 -0.8769 -0.1960 -0.1667
  171MOL0     C23015   1.805   0.659   7.105 -0.3368  1.2010 -0.5967
  171MOL0     C23016   2.580   0.862   6.747  0.1392  0.5475  0.8658
  171MOL0     C23017   2.717   0.874   6.727 -0.6926 -1.0879  0.3406
  171MOL0     H23018   3.129   1.099   6.602 -0.5747 -0.7240 -1.2263
  171MOL0     H23019   3.381   1.124   6.626  1.0710 -0.4977  1.7176
  171MOL0     H23020   3.463   1.088   6.932 -0.1451 -0.9092  0.3529
  171MOL0     H23021   3.536   0.927   6.971 -1.0262  0.6904 -0.0882
  171MOL0     H23022   3.717   1.094   7.031 -0.4298 -2.7144 -0.3946
  171MOL0     H23023   3.756   1.032   6.867  0.5419  1.3468 -0.3872
  171MOL0     H23024   3.590   1.282   6.918 -1.5528 -2.3607 -1.3691
  171MOL0     H23025   3.769   1.297   6.898 -0.5525  0.1249  2.1083
  171MOL0     H23026   3.753   1.206   6.678 -0.2048 -0.7665 -1.4655
  171MOL0     H23027   3.576   1.205   6.687  2.2338 -0.6212 -3.8869
  171MOL0     H23028   3.610   1.458   6.753  0.5422  0.1216  1.2936
  171MOL0     H23029   3.775   1.423   6.695 -0.0951  0.5375  1.5562
  171MOL0     H23030   3.699   1.327   6.488  1.4364  1.8177  0.3388
  171MOL0     H23031   3.531   1.348   6.521  0.5157 -0.6906 -1.1678
  171MOL0     H23032   3.579   1.537   6.385 -0.8871  2.4063  0.3738
  171MOL0     H23033   3.579   1.601   6.550  0.0862 -1.0925 -0.1768
  171MOL0     H23034   3.823   1.511   6.423 -1.7179 -1.7470  2.3409
  171MOL0     H23035   3.816   1.622   6.562 -1.9341 -2.0717  1.4864
  171MOL0     H23036   3.638   1.844   6.482  2.3872 -3.9661  3.1506
  171MOL0     H23037   3.575   2.060   6.293  1.4436  2.8771 -4.1995
  171MOL0     H23038   3.582   2.017   6.124  2.2889  1.4972  0.9464
  171MOL0     H23039   3.399   1.879   6.333  1.4202 -0.3260 -0.6505
  171MOL0     H23040   3.410   1.826   6.158  2.7682 -2.8505  1.8543
  171MOL0     H23041   3.317   2.027   6.081 -0.2209  3.5981 -0.3133
  171MOL0     H23042   3.360   2.115   6.226 -1.9620  0.9719  0.4417
  171MOL0     H23043   3.140   1.901   6.250  1.4564 -0.8951  1.6727
  171MOL0     H23044   3.102   2.059   6.189  0.1321  1.3382  0.1342
  171MOL0     H23045   3.062   2.229   6.527  2.6738 -1.1352  2.1566
  171MOL0     H23046   2.760   2.246   6.726 -1.0278 -1.1485 -0.3508
  171MOL0     H23047   2.905   2.314   6.664  0.2118  0.8458 -4.1436
  171MOL0     H23048   2.760   2.290   6.559  0.4230  1.7833 -0.5875
  171MOL0     H23049   2.607   1.687   6.938 -0.9508 -1.8255 -0.5000
  171MOL0     H23050   2.396   1.590   6.972 -0.5409  1.5026  0.7827
  171MOL0     H23051   2.086   1.847   6.751 -0.0253 -0.0914 -0.1869
  171MOL0     H23052   2.029   1.679   6.690 -2.4636  2.2093  0.1661
  171MOL0     H23053   1.938   1.627   6.905  1.0080 -0.5989 -0.1740
  171MOL0     H23054   1.982   1.787   6.969 -0.5686  1.2682 -1.8562
  171MOL0     H23055   1.786   1.739   6.750  0.5121  0.5750  0.5277
  171MOL0     H23056   1.849   1.899   6.794 -0.5141 -0.2534  1.4586
  171MOL0     H23057   1.718   1.719   7.008 -2.6006 -1.8320 -2.7153
  171MOL0     H23058   1.732   1.900   7.001  2.0929  0.4777 -1.3653
  171MOL0     H23059   1.559   1.714   6.823 -0.5850  1.8974 -1.1358
  171MOL0     H23060   1.580   1.884   6.794  2.0445  0.3803  0.4186
  171MOL0     H23061   1.446   1.746   7.027 -0.2967 -1.5419 -1.4204
  171MOL0     H23062   1.479   1.927   7.032  0.5746  1.0436 -0.4891
  171MOL0     H23063   1.250   1.799   6.954 -0.3298  0.4609 -0.0574
  171MOL0     H23064   1.341   1.794   6.807 -0.4379  0.5261 -0.2642
  171MOL0     H23065   1.355   2.033   6.793 -3.0071  0.7865 -0.9516
  171MOL0     H23066   1.285   2.047   6.958 -1.7542  0.7393  0.6450
  171MOL0     H23067   2.253   1.789   6.606 -0.1918  0.0035  0.4616
  171MOL0     H23068   2.470   1.864   6.567 -0.4069 -1.3391  0.2491
  171MOL0     H23069   2.897   1.774   6.602  0.4540 -0.5587  1.5280
  171MOL0     H23070   3.093   1.813   6.457 -0.4908  1.0417 -1.2782
  171MOL0     H23071   3.395   0.763   6.854 -1.6884 -1.1248  1.1687
  171MOL0     H23072   3.147   0.741   6.811 -2.4608  0.8468 -0.0433
  171MOL0     H23073   2.748   0.661   6.458  1.1806  0.2880  0.3431
  171MOL0     H23074   2.511   0.625   6.516  1.3693 -1.3548  0.7263
  171MOL0     H23075   2.375   0.692   6.853 -1.3315 -1.3392 -0.0742
  171MOL0     H23076   2.325   0.853   6.848  3.2974 -0.7770  1.5317
  171MOL0     H23077   2.179   0.591   6.764 -0.5645  0.2122 -3.5889
  171MOL0     H23078   2.120   0.735   6.698  0.2368  0.7438 -0.5341
  171MOL0     H23079   2.076   0.820   6.945 -1.2974  0.0164 -0.0120
  171MOL0     H23080   2.169   0.687   7.009 -0.1779 -1.9762 -1.5289
  171MOL0     H23081   2.020   0.520   6.909 -0.3637 -0.2354  2.2998
  171MOL0     H23082   1.941   0.653   6.819 -0.8769 -0.2608  0.3726
  171MOL0     H23083   1.733   0.670   7.183  1.6332 -0.3089  1.5881
  171MOL0     H23084   2.543   0.926   6.826  3.8682  3.0287  0.8625
  171MOL0     H23085   2.774   0.947   6.784  0.7886 -2.8902  1.2640
  172MOL0     O23086   8.583   4.821   6.693  1.0461 -0.3540 -0.6496
  172MOL0     C23087   8.479   4.888   6.696 -1.4208 -0.3051 -0.1667
  172MOL0     O23088   8.402   4.938   6.591 -0.8935  0.2242  0.1182
  172MOL0     C23089   8.432   4.920   6.455 -0.6464 -0.3266  0.2594
  172MOL0     C23090   8.325   4.908   6.357  0.1228  0.5540 -0.6443
  172MOL0     C23091   8.358   4.894   6.221 -0.5390 -0.1821  0.7119
  172MOL0     C23092   8.489   4.913   6.173  0.6551  0.5750 -0.4594
  172MOL0     O23093   8.525   4.904   6.041 -0.2519  0.8679  0.4099
  172MOL0     C23094   8.440   4.984   5.954 -0.0324 -0.9304 -0.2027
  172MOL0     C23095   8.520   5.048   5.848  0.7323  0.3252  0.1675
  172MOL0     C23096   8.597   4.931   5.777 -0.6771 -0.1341  0.4261
  172MOL0     C23097   8.694   4.976   5.661  0.3921 -0.0871  0.3629
  172MOL0     C23098   8.822   5.032   5.724 -0.1575  0.2164  0.5988
  172MOL0     C23099   8.957   5.036   5.640  0.5886 -0.3958 -0.3305
  172MOL0     C23100   8.944   5.132   5.522 -0.2160  0.7365  0.6607
  172MOL0     C23101   9.071   5.139   5.437 -0.0674 -0.1221 -0.5708
  172MOL0     N23102   9.195   5.183   5.512 -0.0582  0.1142  0.3116
  172MOL0     C23103   9.234   5.312   5.527 -0.5038 -0.3606 -0.9029
  172MOL0     C23104   9.331   5.307   5.616 -0.0347 -0.1043  0.2147
  172MOL0     C23105   9.423   5.419   5.658  0.3675  0.5587  0.3722
  172MOL0     C23106   9.385   5.493   5.789 -0.8213 -0.6492  0.1184
  172MOL0     C23107   9.299   5.422   5.898 -0.3427  0.3748  0.1175
  172MOL0     C23108   9.160   5.389   5.861 -0.0522 -0.4757 -0.9920
  172MOL0     O23109   9.079   5.370   5.983 -0.0603  0.0405 -0.0340
  172MOL0     C23110   9.094   5.249   6.048  0.9012 -0.7109 -0.4020
  172MOL0     C23111   9.052   5.253   6.182  0.0946  1.0724 -0.2175
  172MOL0     C23112   9.055   5.143   6.265  0.1285  0.8619  0.0251
  172MOL0     C23113   9.045   5.160   6.414 -0.5159  0.1616  0.1290
  172MOL0     C23114   9.091   5.013   6.212  0.2943  0.0251 -0.2321
  172MOL0     C23115   9.094   4.889   6.292  0.2127 -0.0570 -0.7194
  172MOL0     O23116   9.011   4.880   6.402 -0.0149  0.2129 -0.0989
  172MOL0     C23117   9.000   4.758   6.459 -0.4445 -0.5237 -0.3030
  172MOL0     C23118   8.959   4.764   6.594 -0.5690 -0.4821  0.0542
  172MOL0     C23119   8.932   4.640   6.658 -1.0601 -0.0316 -0.5112
  172MOL0     C23120   8.943   4.518   6.598  0.3508 -0.2073 -0.2920
  172MOL0     O23121   8.883   4.416   6.666 -0.7679  0.3295 -1.0930
  172MOL0     C23122   8.915   4.280   6.630  0.3792 -0.9702 -0.3801
  172MOL0     C23123   8.778   4.226   6.580  0.2291 -0.2694 -0.3694
  172MOL0     C23124   8.781   4.074   6.572  0.1523 -0.3722 -0.7305
  172MOL0     C23125   8.673   4.024   6.469 -0.5441  0.3196 -0.0708
  172MOL0     C23126   8.533   4.066   6.504  0.9091 -0.4903  0.5440
  172MOL0     C23127   8.485   4.000   6.632 -0.5326 -0.0052  0.6391
  172MOL0     C23128   8.361   4.068   6.688  0.2997 -0.0366  0.2178
  172MOL0     C23129   8.369   4.085   6.843  0.5858 -0.1040  0.3379
  172MOL0    Cl23130   8.219   4.127   6.914 -0.4727 -0.7896 -0.2827
  172MOL0     C23131   8.990   4.510   6.463  0.5449  0.4248 -0.8514
  172MOL0     C23132   9.013   4.630   6.397  0.6906 -0.0300 -0.0877
  172MOL0     O23133   9.180   4.812   6.263  0.9153 -0.1038 -0.1388
  172MOL0     C23134   9.144   5.020   6.085 -0.6878 -0.6173  0.0947
  172MOL0     C23135   9.142   5.137   6.004 -0.6203  0.7806 -0.8774
  172MOL0     N23136   9.355   5.175   5.654 -0.0410 -0.4271 -0.4092
  172MOL0     N23137   9.280   5.096   5.584 -0.4987  0.2626 -0.3583
  172MOL0     C23138   8.591   4.924   6.275  0.7174 -0.0888  0.3638
  172MOL0     C23139   8.558   4.931   6.408 -0.3564 -0.1344  0.4109
  172MOL0     C23140   8.419   4.902   6.828 -0.1234  0.7406  0.3422
  172MOL0     C23141   8.292   4.956   6.836  0.2311 -0.0946 -0.4340
  172MOL0     C23142   8.232   4.979   6.963  0.2675  0.4099  0.5277
  172MOL0     C23143   8.307   4.968   7.077  0.5372 -0.4303 -0.1118
  172MOL0     O23144   8.248   5.011   7.197  0.2685  1.0140  0.2821
  172MOL0     C23145   8.274   4.973   7.331 -0.4307 -0.2432  0.4536
  172MOL0     C23146   8.220   4.827   7.339 -0.2437 -0.0072  0.2832
  172MOL0     C23147   8.313   4.756   7.441  0.0538 -0.6705 -0.0949
  172MOL0     C23148   8.306   4.605   7.434  0.1254 -0.0754  0.4920
  172MOL0     C23149   8.160   4.552   7.447 -1.4610 -0.3472 -0.7926
  172MOL0     C23150   8.048   4.502   7.459 -0.6231 -0.1834 -0.1288
  172MOL0     C23151   8.422   4.888   7.069 -0.9883  0.1322  0.5279
  172MOL0     C23152   8.485   4.855   6.944 -0.6624  0.1969 -0.0556
  172MOL0     H23153   8.222   4.903   6.392  0.2388 -3.7378 -0.4470
  172MOL0     H23154   8.282   4.870   6.148  1.2602 -1.6311 -0.8098
  172MOL0     H23155   8.363   4.915   5.919 -1.6200 -0.9870  3.0923
  172MOL0     H23156   8.381   5.056   6.011  1.0444 -1.4559  1.6575
  172MOL0     H23157   8.450   5.107   5.789 -1.0365  0.2746  2.1150
  172MOL0     H23158   8.587   5.119   5.898 -1.0667  0.4872  2.5270
  172MOL0     H23159   8.665   4.872   5.839  0.0416 -1.1379 -1.2471
  172MOL0     H23160   8.515   4.866   5.744 -2.9881  1.0769  3.3218
  172MOL0     H23161   8.726   4.887   5.605  2.4462  1.2931 -0.7778
  172MOL0     H23162   8.660   5.049   5.588 -1.1599  0.1598  1.2964
  172MOL0     H23163   8.801   5.128   5.773 -1.9297 -0.1257  0.5647
  172MOL0     H23164   8.845   4.961   5.804  5.0929 -0.3294 -0.9808
  172MOL0     H23165   9.036   5.066   5.710 -0.5024 -2.0408  1.7125
  172MOL0     H23166   8.971   4.932   5.608  0.2960 -0.2223 -1.0283
  172MOL0     H23167   8.859   5.106   5.458 -0.2592 -0.0681  1.0224
  172MOL0     H23168   8.923   5.235   5.553 -0.2985  1.1305 -0.6632
  172MOL0     H23169   9.052   5.222   5.367  1.7941  0.3316 -0.6152
  172MOL0     H23170   9.094   5.050   5.378 -1.5850 -0.9384  0.0302
  172MOL0     H23171   9.195   5.402   5.482  0.2092  1.7922  2.4825
  172MOL0     H23172   9.513   5.363   5.686 -0.0821  0.6556  2.1168
  172MOL0     H23173   9.450   5.481   5.572  1.5472  0.5672  0.7286
  172MOL0     H23174   9.328   5.582   5.760  2.1449  0.6580 -2.1831
  172MOL0     H23175   9.475   5.538   5.831 -2.3348  1.9000  0.9106
  172MOL0     H23176   9.288   5.504   5.970 -3.0502  1.5002 -1.4452
  172MOL0     H23177   9.358   5.336   5.932 -1.0639 -0.2079 -0.0766
  172MOL0     H23178   9.158   5.309   5.786  1.2278 -0.1431 -1.4087
  172MOL0     H23179   9.120   5.473   5.804  1.4331  0.0779 -1.2850
  172MOL0     H23180   9.023   5.348   6.225  0.2118 -0.3298  3.3214
  172MOL0     H23181   9.132   5.107   6.455 -0.7242 -2.9649 -3.0274
  172MOL0     H23182   9.044   5.262   6.455 -0.9885 -0.4012  1.5799
  172MOL0     H23183   8.953   5.114   6.450 -2.3536  0.2876 -3.8707
  172MOL0     H23184   8.953   4.856   6.650  2.1592 -0.1710 -0.0618
  172MOL0     H23185   8.910   4.648   6.764  2.0313 -0.5300  0.2897
  172MOL0     H23186   8.992   4.262   6.555  1.2410  1.4684 -0.1306
  172MOL0     H23187   8.958   4.233   6.719  1.7110  0.3856 -0.2704
  172MOL0     H23188   8.699   4.254   6.650  1.2762 -1.6126  1.4388
  172MOL0     H23189   8.766   4.269   6.481  4.4453  3.0516  0.3030
  172MOL0     H23190   8.771   4.026   6.670 -1.7277  1.7801  0.2210
  172MOL0     H23191   8.876   4.041   6.529  0.2990 -1.4111  0.3203
  172MOL0     H23192   8.701   4.059   6.369  0.2191 -1.2933 -0.4617
  172MOL0     H23193   8.690   3.916   6.464  3.9216  0.6923  2.0534
  172MOL0     H23194   8.467   4.040   6.420  0.2162  1.1753  0.5239
  172MOL0     H23195   8.533   4.175   6.510 -0.4340 -0.2224 -2.5059
  172MOL0     H23196   8.458   3.894   6.621  2.1273 -1.2975  4.5767
  172MOL0     H23197   8.560   4.001   6.711  1.9392 -0.9205 -1.5602
  172MOL0     H23198   8.277   4.004   6.661 -1.2578  1.6142  0.9214
  172MOL0     H23199   8.345   4.164   6.638  3.2402  1.1326  1.2720
  172MOL0     H23200   8.442   4.164   6.863  1.7061 -0.5848 -1.5909
  172MOL0     H23201   8.394   3.989   6.888  0.1410  0.7688  2.5948
  172MOL0     H23202   8.999   4.428   6.392  0.9853 -0.0969 -0.1987
  172MOL0     H23203   9.043   4.618   6.293  2.3297  0.6101  0.2842
  172MOL0     H23204   9.180   4.932   6.034 -0.9771 -3.1208  3.8078
  172MOL0     H23205   9.188   5.141   5.905  3.9418  1.5781  1.0295
  172MOL0     H23206   8.693   4.937   6.240  0.9602 -0.7387  0.8040
  172MOL0     H23207   8.648   4.941   6.468 -1.0807  2.6965  1.1607
  172MOL0     H23208   8.238   4.980   6.745 -0.0950 -0.7849 -0.4305
  172MOL0     H23209   8.134   5.024   6.978 -1.0245 -2.1777  0.5718
  172MOL0     H23210   8.381   4.986   7.350 -0.4422 -0.3928  0.6157
  172MOL0     H23211   8.219   5.036   7.402 -2.4121 -1.6438  0.2554
  172MOL0     H23212   8.208   4.766   7.249 -4.0450  0.6092  0.2065
  172MOL0     H23213   8.117   4.834   7.375  0.4636  1.0876  2.2923
  172MOL0     H23214   8.303   4.785   7.547  1.4722  1.9802 -0.5955
  172MOL0     H23215   8.413   4.778   7.403 -0.9323  1.8585 -1.5097
  172MOL0     H23216   8.377   4.562   7.506  2.0730 -0.4473 -1.5459
  172MOL0     H23217   8.352   4.570   7.341  1.5346  1.6817  0.4703
  172MOL0     H23218   7.949   4.462   7.468  0.2417 -3.0308 -1.9118
  172MOL0     H23219   8.473   4.870   7.163  4.6009  2.0892 -1.7041
  172MOL0     H23220   8.582   4.805   6.950 -0.6275  0.0363 -1.5406
  173MOL0     O23221   5.251   7.327   3.621 -1.1391  0.6576 -0.1999
  173MOL0     C23222   5.374   7.329   3.646 -0.9298  0.5760  0.5988
  173MOL0     O23223   5.472   7.271   3.565 -0.6302 -0.0290  0.0194
  173MOL0     C23224   5.432   7.223   3.437 -0.1294 -0.4484  0.0179
  173MOL0     C23225   5.386   7.311   3.338  0.2203  0.1379  0.6636
  173MOL0     C23226   5.372   7.262   3.208 -0.0126  0.1742  0.0363
  173MOL0     C23227   5.404   7.129   3.186 -0.1976  0.8063 -0.3996
  173MOL0     O23228   5.391   7.076   3.053 -0.6022 -0.1996  0.2899
  173MOL0     C23229   5.450   6.949   3.010  0.1463 -0.2108  0.1283
  173MOL0     C23230   5.434   6.907   2.854  0.0004 -0.4778 -0.9276
  173MOL0     C23231   5.500   6.768   2.825 -0.6971 -0.4421 -1.2782
  173MOL0     C23232   5.479   6.721   2.685  0.7472  0.2904 -0.5889
  173MOL0     C23233   5.564   6.596   2.656 -0.0936  0.1004 -0.0598
  173MOL0     C23234   5.546   6.563   2.513  0.2004 -0.2638  0.0274
  173MOL0     C23235   5.626   6.436   2.489 -0.3312 -0.1500  1.0268
  173MOL0     C23236   5.530   6.313   2.487 -0.4292  0.0831 -0.6825
  173MOL0     N23237   5.608   6.194   2.449  0.7987  0.7954 -0.3757
  173MOL0     C23238   5.722   6.151   2.511 -0.2750 -0.1229 -0.4453
  173MOL0     C23239   5.763   6.051   2.429  0.4480  0.4499 -0.8834
  173MOL0     C23240   5.885   5.965   2.469 -0.4744 -0.0991 -0.0853
  173MOL0     C23241   6.001   6.023   2.397  0.7475  0.7808 -0.6807
  173MOL0     C23242   6.064   6.150   2.460 -0.4248  0.2653 -0.7710
  173MOL0     C23243   6.170   6.107   2.555 -0.2716  0.0070 -0.4513
  173MOL0     O23244   6.277   6.039   2.495 -0.3080  0.1895  0.3805
  173MOL0     C23245   6.359   5.964   2.571 -0.2285  0.2870  0.8087
  173MOL0     C23246   6.380   5.981   2.708  1.2090 -0.2742 -0.4173
  173MOL0     C23247   6.488   5.921   2.779 -0.9028 -0.0738  0.1065
  173MOL0     C23248   6.513   5.973   2.920 -0.1503  0.6585 -1.1577
  173MOL0     C23249   6.569   5.829   2.720 -0.8720  0.3464  0.5914
  173MOL0     C23250   6.684   5.758   2.786  0.7464 -0.0552  0.2761
  173MOL0     O23251   6.651   5.674   2.891 -0.4587  0.4099  0.3478
  173MOL0     C23252   6.747   5.591   2.946 -0.2174  0.3967  0.4806
  173MOL0     C23253   6.705   5.460   2.975  0.2799 -0.4001  0.1464
  173MOL0     C23254   6.793   5.357   3.029  0.3896 -0.7850 -0.3230
  173MOL0     C23255   6.929   5.386   3.040 -0.0742  0.7297 -0.4885
  173MOL0     O23256   7.014   5.287   3.082  0.0136  0.2767 -0.4568
  173MOL0     C23257   7.004   5.149   3.047  0.5736  0.0789 -0.3600
  173MOL0     C23258   7.141   5.079   3.057  0.2849 -0.4328  0.6943
  173MOL0     C23259   7.230   5.143   3.162 -1.0739 -0.1222 -0.2156
  173MOL0     C23260   7.361   5.056   3.195  0.1520  0.3418 -0.2465
  173MOL0     C23261   7.407   5.089   3.339  0.3194  0.4881  0.6263
  173MOL0     C23262   7.527   5.019   3.392  0.2907  0.1278 -0.6598
  173MOL0     C23263   7.511   4.863   3.392 -0.3183  0.5312  0.3454
  173MOL0     C23264   7.624   4.809   3.480  0.4169 -0.7111 -0.1934
  173MOL0    Cl23265   7.717   4.676   3.396  0.0454 -0.2457  0.3724
  173MOL0     C23266   6.965   5.515   3.006  0.2334 -0.5102 -0.7236
  173MOL0     C23267   6.882   5.622   2.972  0.3539  0.0261  0.5816
  173MOL0     O23268   6.798   5.772   2.738  0.2400 -0.7146 -0.0169
  173MOL0     C23269   6.538   5.802   2.585  0.4849 -0.4382 -0.4975
  173MOL0     C23270   6.440   5.869   2.512  0.1988  0.2861 -0.2371
  173MOL0     N23271   5.671   6.034   2.321 -0.0668  0.1464 -0.5525
  173MOL0     N23272   5.587   6.130   2.330  0.1749  0.1170 -0.6071
  173MOL0     C23273   5.449   7.045   3.282  0.1209 -0.1766 -0.9727
  173MOL0     C23274   5.471   7.095   3.406  0.1220 -0.5550  0.2139
  173MOL0     C23275   5.417   7.395   3.766 -0.6393 -0.1516  0.1762
  173MOL0     C23276   5.318   7.429   3.859  0.1133  0.2181  0.1959
  173MOL0     C23277   5.353   7.494   3.977  0.0333 -0.2835  0.2851
  173MOL0     C23278   5.488   7.504   4.010  0.0855 -0.7466  0.2677
  173MOL0     O23279   5.505   7.574   4.124 -0.4121  0.2020 -0.8334
  173MOL0     C23280   5.629   7.542   4.194  0.1995 -0.4379 -0.7902
  173MOL0     C23281   5.628   7.628   4.316  0.2436  0.6107 -0.2113
  173MOL0     C23282   5.524   7.572   4.417  0.7473 -0.3468 -0.0402
  173MOL0     C23283   5.581   7.476   4.523  0.7681  0.3188  0.2758
  173MOL0     C23284   5.647   7.547   4.631  0.0696  0.0288  0.6166
  173MOL0     C23285   5.702   7.603   4.721  0.6372  0.2855 -0.3595
  173MOL0     C23286   5.589   7.465   3.923 -0.4403 -0.4787 -0.2867
  173MOL0     C23287   5.556   7.418   3.799  0.5229  0.3413 -0.2224
  173MOL0     H23288   5.374   7.418   3.349 -0.6174  0.1652 -0.3096
  173MOL0     H23289   5.332   7.310   3.119 -1.8721 -0.4765  0.4811
  173MOL0     H23290   5.557   6.948   3.031  0.0991 -3.3162  0.6209
  173MOL0     H23291   5.405   6.877   3.079 -1.5569  1.7789  1.2136
  173MOL0     H23292   5.330   6.900   2.820  0.2189 -0.3786 -1.6244
  173MOL0     H23293   5.479   6.984   2.791  1.2098 -0.8362 -0.5175
  173MOL0     H23294   5.608   6.777   2.834 -0.8674  0.1277  0.6819
  173MOL0     H23295   5.453   6.693   2.889 -2.5324  1.4499 -0.2930
  173MOL0     H23296   5.372   6.701   2.672  0.8814 -2.9832  2.2172
  173MOL0     H23297   5.505   6.808   2.623  0.4388 -0.4049 -1.7236
  173MOL0     H23298   5.668   6.617   2.681  0.7333 -0.2006 -2.9011
  173MOL0     H23299   5.537   6.517   2.727  2.3686 -0.4014  0.3922
  173MOL0     H23300   5.445   6.545   2.476  0.4254 -2.7996  0.4792
  173MOL0     H23301   5.586   6.648   2.456  0.2949 -0.9321 -0.9145
  173MOL0     H23302   5.678   6.441   2.393 -1.0014  5.9490  0.5928
  173MOL0     H23303   5.705   6.429   2.564 -0.0248  2.0410  0.9770
  173MOL0     H23304   5.447   6.325   2.417  0.1527  0.7214 -1.2752
  173MOL0     H23305   5.486   6.294   2.585  1.1943  2.5751  0.6321
  173MOL0     H23306   5.778   6.183   2.598 -1.9798  1.8080  0.0234
  173MOL0     H23307   5.893   5.963   2.578 -1.7994 -1.5878  0.0319
  173MOL0     H23308   5.880   5.864   2.427  2.3378  0.1417 -1.1858
  173MOL0     H23309   5.962   6.042   2.296 -1.0442 -0.2971 -0.2500
  173MOL0     H23310   6.069   5.938   2.388 -0.9082 -0.7843  0.6514
  173MOL0     H23311   5.991   6.208   2.517 -0.1760 -2.1816  2.3122
  173MOL0     H23312   6.112   6.211   2.383 -1.0848 -0.6676 -1.9652
  173MOL0     H23313   6.125   6.052   2.639  1.8004 -0.6140  0.3133
  173MOL0     H23314   6.205   6.204   2.590 -0.6206 -0.2238  0.5963
  173MOL0     H23315   6.317   6.047   2.766  1.3434  2.0562 -2.7606
  173MOL0     H23316   6.595   5.916   2.965 -0.8173 -0.1017 -0.8906
  173MOL0     H23317   6.547   6.077   2.913 -1.5130  1.3904  1.6319
  173MOL0     H23318   6.427   5.971   2.987  1.5969  2.6247  1.3802
  173MOL0     H23319   6.600   5.440   2.956  0.1650  0.9311 -0.7550
  173MOL0     H23320   6.740   5.269   3.064 -0.9017  0.9443  2.4563
  173MOL0     H23321   6.942   5.103   3.124 -1.1266  1.9246 -0.5380
  173MOL0     H23322   6.947   5.135   2.955 -1.3259  0.0339  0.7680
  173MOL0     H23323   7.104   4.983   3.093 -1.0755  0.4659  1.8188
  173MOL0     H23324   7.196   5.070   2.963  0.7469  1.5446  0.7162
  173MOL0     H23325   7.168   5.157   3.251 -1.3020  0.9664 -0.5261
  173MOL0     H23326   7.266   5.240   3.125 -0.0315 -0.6505 -0.6221
  173MOL0     H23327   7.334   4.950   3.192  1.8068 -0.3573  3.3801
  173MOL0     H23328   7.443   5.074   3.125  0.9869 -0.4443  0.4890
  173MOL0     H23329   7.321   5.072   3.403 -0.7856  1.9840 -0.4023
  173MOL0     H23330   7.425   5.197   3.340  1.7623  0.3391  4.1844
  173MOL0     H23331   7.606   5.043   3.321  0.5527 -3.4945 -1.7819
  173MOL0     H23332   7.544   5.035   3.499 -0.8340  0.4177 -0.5188
  173MOL0     H23333   7.523   4.822   3.291 -3.0891 -0.6821  0.4162
  173MOL0     H23334   7.412   4.836   3.428 -0.8962  0.6872 -1.0458
  173MOL0     H23335   7.578   4.775   3.573 -0.8844 -0.9437 -0.9072
  173MOL0     H23336   7.689   4.890   3.515 -1.7295  2.0232 -2.0720
  173MOL0     H23337   7.069   5.542   3.019 -0.1077 -0.3405  2.3987
  173MOL0     H23338   6.928   5.713   2.937 -0.6119  0.5543  0.6634
  173MOL0     H23339   6.604   5.738   2.529  1.6801  0.0165  0.3300
  173MOL0     H23340   6.436   5.867   2.404 -2.2014  0.6159 -0.2194
  173MOL0     H23341   5.459   6.938   3.266  0.3477 -0.0268 -1.8961
  173MOL0     H23342   5.520   7.032   3.480 -1.4511  0.4102  2.1869
  173MOL0     H23343   5.211   7.412   3.848  0.0196 -1.4449  2.7473
  173MOL0     H23344   5.291   7.530   4.058  1.2682  0.5884  0.8724
  173MOL0     H23345   5.628   7.437   4.224 -4.0573  0.0753  1.7712
  173MOL0     H23346   5.719   7.564   4.136  2.7357 -1.6541  2.3646
  173MOL0     H23347   5.598   7.729   4.287 -1.2991  1.1598  2.8234
  173MOL0     H23348   5.732   7.639   4.347  1.0325  1.4843 -2.9842
  173MOL0     H23349   5.432   7.528   4.378  0.1962 -1.5476  2.3997
  173MOL0     H23350   5.492   7.664   4.467 -1.5028  0.6809 -3.0658
  173MOL0     H23351   5.660   7.417   4.475  1.2318  0.1529  1.2201
  173MOL0     H23352   5.501   7.410   4.556 -0.9095  1.6478 -0.9527
  173MOL0     H23353   5.744   7.644   4.811  0.8059 -1.3912  0.3616
  173MOL0     H23354   5.691   7.487   3.949  0.0166 -0.5716 -1.8787
  173MOL0     H23355   5.639   7.412   3.730 -0.6790  1.8538 -1.9129
  174MOL0     O23356  10.899   4.309   0.275  0.1285 -0.1144 -0.2692
  174MOL0     C23357  11.006   4.279   0.326 -0.2887  0.2072  0.7718
  174MOL0     O23358  11.092   4.363   0.396  0.1799 -0.0178 -0.6012
  174MOL0     C23359  11.042   4.485   0.435 -0.7097 -0.9511 -0.1691
  174MOL0     C23360  11.049   4.525   0.574 -0.6774  0.5692  0.0443
  174MOL0     C23361  11.004   4.648   0.617  0.8199 -0.3051  0.3155
  174MOL0     C23362  10.964   4.738   0.521 -0.9658 -0.2782  0.2960
  174MOL0     O23363  10.935   4.863   0.574  0.0472 -0.6625  0.3230
  174MOL0     C23364  10.960   4.980   0.484  0.0014  0.9825  0.0472
  174MOL0     C23365  10.962   5.115   0.558 -0.0120  0.1600 -0.1872
  174MOL0     C23366  11.057   5.108   0.679 -0.1229 -0.3055  0.0881
  174MOL0     C23367  11.074   5.249   0.728 -0.1733  0.1365 -0.2573
  174MOL0     C23368  11.163   5.245   0.852  1.1271  0.7180 -0.3833
  174MOL0     C23369  11.227   5.378   0.870 -0.4453 -0.4252  0.4118
  174MOL0     C23370  11.286   5.411   1.002 -0.2465  0.4039 -0.0621
  174MOL0     C23371  11.343   5.559   0.992 -0.5485 -0.1515 -0.5757
  174MOL0     N23372  11.400   5.587   1.122 -0.3009 -0.0808 -0.3749
  174MOL0     C23373  11.330   5.577   1.243  0.6370 -0.8539  0.3324
  174MOL0     C23374  11.426   5.616   1.330 -0.6723  0.1034 -0.6566
  174MOL0     C23375  11.407   5.637   1.481  0.3639 -0.0966  0.2046
  174MOL0     C23376  11.384   5.511   1.565 -0.0618  0.0288  1.2143
  174MOL0     C23377  11.382   5.563   1.706 -0.4785 -0.0411  0.2630
  174MOL0     C23378  11.360   5.445   1.809 -0.0398  0.2777 -0.5874
  174MOL0     O23379  11.477   5.362   1.821 -0.5140 -0.5877 -0.2392
  174MOL0     C23380  11.493   5.283   1.930  0.5443  0.2279  0.7265
  174MOL0     C23381  11.514   5.150   1.903 -0.4064  0.2728 -0.3547
  174MOL0     C23382  11.507   5.058   2.019 -0.3084 -0.1872  0.6755
  174MOL0     C23383  11.520   4.913   1.985  0.6111 -0.2341  0.1560
  174MOL0     C23384  11.480   5.104   2.154  0.1209 -0.8068  1.3558
  174MOL0     C23385  11.458   5.016   2.278 -0.4792 -0.0788  0.1234
  174MOL0     O23386  11.462   5.069   2.399  0.4955 -0.3867  0.2728
  174MOL0     C23387  11.396   5.025   2.505  0.4321  0.0706  0.2276
  174MOL0     C23388  11.257   5.005   2.504  0.0110  0.5420 -0.1196
  174MOL0     C23389  11.174   4.988   2.616  0.1092  0.2653 -0.3611
  174MOL0     C23390  11.236   4.961   2.737  0.5058  0.2105 -1.4991
  174MOL0     O23391  11.153   4.929   2.845  0.5203 -1.0012  0.5792
  174MOL0     C23392  11.205   4.831   2.926 -0.2565  1.3474 -0.7879
  174MOL0     C23393  11.082   4.749   2.981 -0.5714  0.7383  0.0381
  174MOL0     C23394  11.120   4.622   3.072 -0.1637 -0.0640 -0.5325
  174MOL0     C23395  10.986   4.553   3.100 -0.6412  0.8450  0.0289
  174MOL0     C23396  11.012   4.425   3.182  0.2538 -0.2018 -0.6523
  174MOL0     C23397  10.895   4.332   3.202 -0.8242  0.0986 -0.2708
  174MOL0     C23398  10.777   4.386   3.282 -0.5643  0.6686  0.1435
  174MOL0     C23399  10.674   4.277   3.287  0.0931 -1.2672 -0.4309
  174MOL0    Cl23400  10.590   4.278   3.126  0.0696 -0.0500 -0.5579
  174MOL0     C23401  11.371   4.979   2.740 -0.3121  0.2676 -0.0220
  174MOL0     C23402  11.449   5.010   2.632 -1.0013  0.0159  0.2134
  174MOL0     O23403  11.426   4.905   2.259  0.2722  0.5398  0.0984
  174MOL0     C23404  11.475   5.250   2.171 -0.1314  0.0317 -0.2185
  174MOL0     C23405  11.486   5.333   2.059 -0.1583 -0.6771  0.1491
  174MOL0     N23406  11.545   5.639   1.273  0.0177 -0.0195  0.1086
  174MOL0     N23407  11.531   5.617   1.141 -0.3861 -0.5966  0.1785
  174MOL0     C23408  10.954   4.704   0.383 -0.4128 -0.0184  0.1786
  174MOL0     C23409  10.996   4.579   0.341 -0.8511 -0.1812 -0.4745
  174MOL0     C23410  11.063   4.147   0.300  0.2896  0.4168  0.3002
  174MOL0     C23411  10.996   4.055   0.209 -0.1111  0.1766  0.3225
  174MOL0     C23412  11.038   3.921   0.199  0.0051  0.4128  0.3210
  174MOL0     C23413  11.167   3.890   0.247  0.8606  0.0503  1.0876
  174MOL0     O23414  11.226   3.760   0.242  0.2378  0.5785 -0.1502
  174MOL0     C23415  11.144   3.646   0.278  0.6655 -0.2032 -0.4025
  174MOL0     C23416  11.176   3.521   0.190  0.3892  0.2059 -0.2600
  174MOL0     C23417  11.315   3.457   0.231 -0.1660 -0.0519 -0.3852
  174MOL0     C23418  11.436   3.517   0.154  0.7443 -1.1205 -0.4524
  174MOL0     C23419  11.439   3.493   0.011  0.8835 -0.1214  0.5295
  174MOL0     C23420  11.455   3.489  -0.111  0.3347  0.1117 -0.3575
  174MOL0     C23421  11.237   3.990   0.310 -0.0652  0.1080  0.1094
  174MOL0     C23422  11.188   4.112   0.330 -0.2257  0.3395 -1.1892
  174MOL0     H23423  11.075   4.463   0.659  0.9417  0.2543 -0.6378
  174MOL0     H23424  11.012   4.682   0.720 -1.2109  1.2255  0.0336
  174MOL0     H23425  11.060   4.967   0.441 -0.2499 -2.1833  0.1435
  174MOL0     H23426  10.892   4.975   0.398  0.0263 -1.7583  0.0767
  174MOL0     H23427  10.998   5.193   0.490  0.0235 -2.5787 -3.5290
  174MOL0     H23428  10.860   5.144   0.586  0.3261 -0.9218  2.3975
  174MOL0     H23429  11.026   5.034   0.753 -0.4534 -0.6060 -0.3450
  174MOL0     H23430  11.160   5.086   0.649 -0.3726  1.7270 -2.6574
  174MOL0     H23431  11.118   5.320   0.657 -0.8832 -0.0453 -0.9001
  174MOL0     H23432  10.972   5.283   0.743 -1.7782 -2.3346 -3.9279
  174MOL0     H23433  11.090   5.231   0.932 -1.1864 -0.0988 -2.5026
  174MOL0     H23434  11.242   5.170   0.844  1.0237  0.5581  0.0817
  174MOL0     H23435  11.302   5.369   0.791 -1.7508 -0.3506 -0.8741
  174MOL0     H23436  11.159   5.456   0.833  1.5078  2.5176  2.5864
  174MOL0     H23437  11.217   5.405   1.086  3.9264 -0.0502  3.7379
  174MOL0     H23438  11.364   5.339   1.026 -1.5058 -1.5552 -1.5988
  174MOL0     H23439  11.270   5.632   0.956  0.5414  0.7269 -1.0968
  174MOL0     H23440  11.421   5.554   0.916 -0.6180 -4.1933 -0.5529
  174MOL0     H23441  11.225   5.560   1.262  0.2007  1.6256  0.5192
  174MOL0     H23442  11.494   5.686   1.526  1.4108 -3.9505  2.8458
  174MOL0     H23443  11.328   5.708   1.508  0.7290 -0.7743  3.5870
  174MOL0     H23444  11.474   5.452   1.542  0.9960  1.9325  0.2854
  174MOL0     H23445  11.291   5.460   1.537  0.0389 -0.1271  1.1573
  174MOL0     H23446  11.300   5.635   1.714  1.6430  2.7644 -1.3690
  174MOL0     H23447  11.472   5.620   1.729 -2.8494  4.1723  0.1239
  174MOL0     H23448  11.281   5.380   1.770  0.2282  1.3275 -3.0736
  174MOL0     H23449  11.319   5.485   1.902 -1.4793  0.6158 -1.3423
  174MOL0     H23450  11.517   5.125   1.798 -2.4515 -0.3223 -0.3019
  174MOL0     H23451  11.423   4.872   1.955  0.5012  0.7696 -0.9458
  174MOL0     H23452  11.595   4.900   1.906 -0.0379 -2.1185 -0.1911
  174MOL0     H23453  11.569   4.861   2.068  2.0010  0.5568 -0.1293
  174MOL0     H23454  11.209   5.017   2.407 -0.1690 -1.2450 -0.2944
  174MOL0     H23455  11.066   4.985   2.614  0.0091  1.9590  0.5799
  174MOL0     H23456  11.263   4.758   2.869 -3.5354  0.3979 -3.2095
  174MOL0     H23457  11.269   4.864   3.008  2.1710 -0.8214 -1.6859
  174MOL0     H23458  11.021   4.812   3.046 -2.9316 -0.4964 -0.8655
  174MOL0     H23459  11.021   4.727   2.893  3.6507  1.3986 -3.3879
  174MOL0     H23460  11.170   4.656   3.163 -0.0916 -1.1999 -0.1403
  174MOL0     H23461  11.186   4.554   3.018 -0.6501  0.5218 -1.9285
  174MOL0     H23462  10.911   4.609   3.157  0.9051  3.1976 -0.0889
  174MOL0     H23463  10.943   4.525   3.003 -0.2356 -0.4560  0.2051
  174MOL0     H23464  11.066   4.452   3.274  1.6558 -0.4142 -1.3886
  174MOL0     H23465  11.083   4.370   3.120  0.9542  1.5963 -1.5145
  174MOL0     H23466  10.853   4.308   3.104 -2.4333  1.1686  0.1166
  174MOL0     H23467  10.931   4.240   3.248  2.4285  2.1330  1.6102
  174MOL0     H23468  10.730   4.475   3.238 -0.1415  0.8319  0.0224
  174MOL0     H23469  10.808   4.426   3.379 -3.4737  1.6809  0.7742
  174MOL0     H23470  10.593   4.289   3.360  0.7713  0.5783  0.0605
  174MOL0     H23471  10.717   4.179   3.312 -1.7920 -1.7775  1.0449
  174MOL0     H23472  11.429   4.961   2.829 -0.0208  1.4888  0.0526
  174MOL0     H23473  11.556   5.018   2.645 -1.2746  1.6041  1.9704
  174MOL0     H23474  11.458   5.287   2.271 -1.1708  0.5454 -0.5743
  174MOL0     H23475  11.479   5.441   2.060 -1.1682 -0.7146  2.4113
  174MOL0     H23476  10.927   4.777   0.306  1.0971  1.3343  0.8786
  174MOL0     H23477  10.994   4.552   0.236  2.7471 -1.4940 -0.3674
  174MOL0     H23478  10.897   4.071   0.168 -0.5475 -1.2804  0.7622
  174MOL0     H23479  10.976   3.841   0.160 -0.6346  0.7786  0.5686
  174MOL0     H23480  11.167   3.621   0.382  0.9932  0.9358 -0.1845
  174MOL0     H23481  11.041   3.680   0.267  0.9856  1.9158  2.0416
  174MOL0     H23482  11.175   3.548   0.084 -2.6895 -1.7084 -0.8205
  174MOL0     H23483  11.098   3.445   0.198  1.8531 -1.3423 -0.2093
  174MOL0     H23484  11.313   3.348   0.232  0.7295 -0.1899  3.4316
  174MOL0     H23485  11.327   3.487   0.336 -1.4091 -0.7506 -0.0282
  174MOL0     H23486  11.530   3.488   0.202  0.1536  1.1521  2.4075
  174MOL0     H23487  11.426   3.625   0.171 -3.8194 -1.2456 -1.0050
  174MOL0     H23488  11.462   3.494  -0.218  5.6348 -1.1380 -0.3495
  174MOL0     H23489  11.335   3.972   0.352  0.4837  1.9825 -0.2666
  174MOL0     H23490  11.254   4.182   0.380 -0.4707  0.1910 -0.6524
  175MOL0     O23491   9.608   7.525   7.180 -0.5301 -0.1068 -0.0715
  175MOL0     C23492   9.533   7.440   7.138  0.4492 -0.3993  0.2748
  175MOL0     O23493   9.397   7.441   7.152  0.8205 -0.0962 -0.8769
  175MOL0     C23494   9.333   7.535   7.233 -0.1000  0.4786  0.7887
  175MOL0     C23495   9.286   7.488   7.357  0.0396  0.5472 -0.9073
  175MOL0     C23496   9.199   7.567   7.426  1.0447  0.6715 -0.1582
  175MOL0     C23497   9.162   7.697   7.383 -0.6796  0.2432 -0.9308
  175MOL0     O23498   9.066   7.759   7.459  0.0373  0.4875  0.2745
  175MOL0     C23499   9.043   7.898   7.460 -0.4868  0.7844  0.7842
  175MOL0     C23500   9.011   7.954   7.599 -0.1560 -0.0153 -1.1081
  175MOL0     C23501   8.872   7.921   7.637  0.2360 -0.1493  0.4948
  175MOL0     C23502   8.845   7.961   7.786  1.0098  0.6893  0.4517
  175MOL0     C23503   8.693   7.943   7.806  0.4978  0.7437  0.3761
  175MOL0     C23504   8.667   7.970   7.959 -0.0511  0.1576  0.4735
  175MOL0     C23505   8.523   7.954   7.998  0.0409 -0.5565 -1.0607
  175MOL0     C23506   8.508   7.943   8.159  1.2514  0.3144  0.4222
  175MOL0     N23507   8.391   7.854   8.192  0.1988 -0.8717  0.4936
  175MOL0     C23508   8.262   7.892   8.202 -0.7952 -0.2339  0.4979
  175MOL0     C23509   8.207   7.796   8.274  0.8706  0.0222 -0.6159
  175MOL0     C23510   8.064   7.785   8.313 -0.5751  0.2969 -0.4156
  175MOL0     C23511   8.049   7.761   8.461 -0.0871 -0.5973 -0.5438
  175MOL0     C23512   8.072   7.604   8.502  0.6939  0.1008  0.7661
  175MOL0     C23513   7.977   7.508   8.425 -0.2992 -0.4539  0.8438
  175MOL0     O23514   7.836   7.531   8.466 -0.5433  0.3668 -0.5810
  175MOL0     C23515   7.718   7.501   8.396 -0.4120 -0.3601 -0.1350
  175MOL0     C23516   7.606   7.551   8.455 -0.3382  0.0782  0.8362
  175MOL0     C23517   7.482   7.510   8.402 -0.5668 -0.5884 -0.7091
  175MOL0     C23518   7.364   7.565   8.472  0.0190 -0.6688  0.7927
  175MOL0     C23519   7.473   7.419   8.297 -0.0021 -0.8346  0.7310
  175MOL0     C23520   7.339   7.388   8.242  0.4562  0.6446  0.1278
  175MOL0     O23521   7.244   7.499   8.234 -0.0873  0.5498  0.0574
  175MOL0     C23522   7.108   7.475   8.206 -0.6212 -0.0283  0.5423
  175MOL0     C23523   7.039   7.556   8.125 -0.3058 -0.1399  0.0590
  175MOL0     C23524   6.901   7.540   8.116  1.1980 -0.4385  0.7166
  175MOL0     C23525   6.830   7.436   8.185 -0.5398 -0.5632  0.5900
  175MOL0     O23526   6.692   7.435   8.187  0.8918  0.1886  0.3197
  175MOL0     C23527   6.606   7.541   8.135 -0.5883  0.1256 -0.6997
  175MOL0     C23528   6.463   7.494   8.131  0.4726  0.1871  0.8815
  175MOL0     C23529   6.452   7.369   8.030  0.2409  0.2312  0.2876
  175MOL0     C23530   6.322   7.363   7.953  0.3642  0.5671  0.4378
  175MOL0     C23531   6.330   7.251   7.847  0.3188 -0.4416 -0.7681
  175MOL0     C23532   6.221   7.250   7.731 -1.3154  0.5701 -1.3191
  175MOL0     C23533   6.220   7.127   7.646 -0.3928 -0.4290  0.8065
  175MOL0     C23534   6.085   7.063   7.628  0.1866 -0.0258  0.2787
  175MOL0    Cl23535   5.992   7.181   7.519 -0.4840 -0.1645 -0.4368
  175MOL0     C23536   6.907   7.339   8.254 -0.6313  0.6822  0.8335
  175MOL0     C23537   7.040   7.365   8.267 -0.5034 -0.1642  0.8474
  175MOL0     O23538   7.324   7.278   8.192  0.9060  0.0150  0.2023
  175MOL0     C23539   7.593   7.373   8.236 -0.0825  0.2818 -1.0531
  175MOL0     C23540   7.716   7.424   8.279  0.4139 -0.9146  0.5504
  175MOL0     N23541   8.293   7.701   8.314 -0.1106  1.2765 -0.1988
  175MOL0     N23542   8.402   7.736   8.254 -0.0737 -0.5428 -0.0666
  175MOL0     C23543   9.212   7.740   7.255  0.1219  0.4809 -0.5579
  175MOL0     C23544   9.298   7.657   7.187  0.5228 -0.3225  0.8535
  175MOL0     C23545   9.597   7.328   7.063 -0.1047 -0.1532 -0.1036
  175MOL0     C23546   9.736   7.304   7.059 -0.5912 -0.2944 -0.3830
  175MOL0     C23547   9.790   7.184   7.021  0.1527 -0.1534  0.5359
  175MOL0     C23548   9.707   7.091   6.950  0.5364 -1.4967  0.3288
  175MOL0     O23549   9.749   6.970   6.910 -0.2565 -0.2893 -0.7947
  175MOL0     C23550   9.694   6.867   6.996  1.2206 -0.6128 -0.6810
  175MOL0     C23551   9.622   6.769   6.910 -0.9188  0.4513  0.0258
  175MOL0     C23552   9.558   6.648   6.980  0.0784  0.8199 -0.2300
  175MOL0     C23553   9.454   6.680   7.093  0.8607 -0.4721  1.1063
  175MOL0     C23554   9.367   6.564   7.121 -0.8949 -0.9807  0.6110
  175MOL0     C23555   9.305   6.475   7.165  0.4139 -0.2725  0.1582
  175MOL0     C23556   9.567   7.120   6.937  0.2026 -0.8571  1.0548
  175MOL0     C23557   9.518   7.240   6.991 -0.2173 -0.2743 -0.5154
  175MOL0     H23558   9.294   7.385   7.390  0.1883  0.3571 -1.5294
  175MOL0     H23559   9.162   7.521   7.517  0.4355  0.0777 -0.6873
  175MOL0     H23560   9.139   7.946   7.439  0.2730 -0.5608  1.0979
  175MOL0     H23561   8.972   7.925   7.380 -0.3695  0.0682  0.4302
  175MOL0     H23562   9.071   7.907   7.677 -3.8622 -1.0755  1.3540
  175MOL0     H23563   9.020   8.062   7.612  0.0622 -0.1802  0.2301
  175MOL0     H23564   8.807   7.977   7.569  1.0960  0.9383  0.5581
  175MOL0     H23565   8.856   7.814   7.621 -2.2320  0.1538  0.5300
  175MOL0     H23566   8.900   7.885   7.843  2.2260  0.1498 -1.3403
  175MOL0     H23567   8.883   8.060   7.814 -2.4908  2.2615  0.1712
  175MOL0     H23568   8.634   7.999   7.733  0.9743 -1.3029 -1.7097
  175MOL0     H23569   8.682   7.836   7.785  3.3248  0.6077 -0.8592
  175MOL0     H23570   8.718   7.888   8.012 -2.9089 -1.5725  0.7547
  175MOL0     H23571   8.718   8.059   7.998  0.2610  0.1283  0.1404
  175MOL0     H23572   8.462   8.028   7.946  2.0425  0.4474 -2.1006
  175MOL0     H23573   8.497   7.855   7.960 -2.4563  0.3867 -1.9993
  175MOL0     H23574   8.494   8.044   8.198 -1.1247  0.7252 -1.2282
  175MOL0     H23575   8.590   7.911   8.223  0.6717 -1.9867  0.1100
  175MOL0     H23576   8.207   7.971   8.153  0.1478 -0.8641 -1.6701
  175MOL0     H23577   8.027   7.887   8.304  1.7791  1.2398  0.0173
  175MOL0     H23578   8.015   7.708   8.252 -1.2464 -0.5505  1.1233
  175MOL0     H23579   7.947   7.787   8.493  0.1252 -2.2197  1.6638
  175MOL0     H23580   8.127   7.812   8.517  0.6889 -1.8958 -0.3985
  175MOL0     H23581   8.051   7.602   8.610 -1.4320 -2.3161  0.3833
  175MOL0     H23582   8.178   7.586   8.483  0.3660 -0.3899 -0.6649
  175MOL0     H23583   8.005   7.412   8.469 -1.5393 -1.0202  0.4235
  175MOL0     H23584   7.991   7.505   8.317 -1.6986  0.9849  0.5851
  175MOL0     H23585   7.621   7.618   8.538  0.7928  2.6400 -1.2852
  175MOL0     H23586   7.381   7.593   8.576  4.5014  1.1892 -0.2165
  175MOL0     H23587   7.337   7.654   8.414  2.0362  0.1075  0.9485
  175MOL0     H23588   7.283   7.492   8.470 -0.0961 -0.5643  1.3188
  175MOL0     H23589   7.085   7.627   8.058  1.8085 -2.1002 -0.6772
  175MOL0     H23590   6.846   7.618   8.066 -1.8316 -2.6848  0.2932
  175MOL0     H23591   6.611   7.637   8.187 -2.6154 -0.9554  1.6514
  175MOL0     H23592   6.646   7.556   8.034 -1.9751  2.1923 -0.9973
  175MOL0     H23593   6.430   7.462   8.231  1.1639  1.3012  1.4911
  175MOL0     H23594   6.400   7.572   8.087  1.1832 -1.0137 -2.5333
  175MOL0     H23595   6.469   7.280   8.091 -2.0657 -0.7037 -0.3293
  175MOL0     H23596   6.523   7.380   7.947 -2.5490  1.6753 -2.0865
  175MOL0     H23597   6.240   7.333   8.019  2.1915 -1.6637  1.8301
  175MOL0     H23598   6.289   7.453   7.899 -0.0006 -0.8998 -1.9039
  175MOL0     H23599   6.333   7.154   7.897 -0.0311  0.1889  0.5075
  175MOL0     H23600   6.422   7.255   7.788 -0.6740  1.4231 -2.3233
  175MOL0     H23601   6.122   7.275   7.770 -0.4583  1.2077  0.5406
  175MOL0     H23602   6.228   7.336   7.663 -1.3741  0.8494 -0.9765
  175MOL0     H23603   6.281   7.053   7.699 -0.5280 -1.7751 -0.8189
  175MOL0     H23604   6.268   7.142   7.548 -1.3307 -0.2996  0.3571
  175MOL0     H23605   6.039   7.049   7.726  0.5216  0.2780  0.4803
  175MOL0     H23606   6.080   6.965   7.579 -2.2991 -1.1648  2.5870
  175MOL0     H23607   6.866   7.254   8.307  0.6674 -0.4463  0.0742
  175MOL0     H23608   7.084   7.300   8.342 -0.3903  1.1903  1.9846
  175MOL0     H23609   7.583   7.327   8.139  0.6098  2.7383 -2.3734
  175MOL0     H23610   7.809   7.406   8.227  1.0172  2.1893  0.3266
  175MOL0     H23611   9.194   7.841   7.218  1.1823  1.8503  2.3497
  175MOL0     H23612   9.308   7.682   7.082  1.1704 -1.2097  0.6870
  175MOL0     H23613   9.807   7.375   7.101 -1.5447  1.1225 -1.1067
  175MOL0     H23614   9.898   7.171   7.024  0.4074  1.4757 -0.2700
  175MOL0     H23615   9.768   6.814   7.056  0.8670 -1.2568 -0.8027
  175MOL0     H23616   9.623   6.896   7.074  1.5577 -1.6881  0.0403
  175MOL0     H23617   9.704   6.728   6.850  0.3602 -1.8450  3.0858
  175MOL0     H23618   9.561   6.825   6.839  0.6867  0.7138 -1.2277
  175MOL0     H23619   9.642   6.586   7.011 -0.9527 -0.0878  0.8146
  175MOL0     H23620   9.512   6.590   6.900 -1.9201 -0.1394  1.5008
  175MOL0     H23621   9.384   6.758   7.061  1.3621 -0.7043 -0.6430
  175MOL0     H23622   9.514   6.712   7.178  0.6512 -0.3769  1.2201
  175MOL0     H23623   9.239   6.395   7.194 -0.0164 -0.0857 -0.2908
  175MOL0     H23624   9.498   7.044   6.901  0.2679  0.4878 -2.2536
  175MOL0     H23625   9.411   7.256   6.984 -0.2370  1.0047  1.8044
  176MOL0     O23626   6.027   8.504   5.455  0.0614 -0.3785 -0.2525
  176MOL0     C23627   6.039   8.591   5.542 -0.3850  0.0730  0.0373
  176MOL0     O23628   5.959   8.696   5.563  0.3179  0.4713 -0.3506
  176MOL0     C23629   5.854   8.724   5.480  0.0221 -0.6085  0.2199
  176MOL0     C23630   5.798   8.848   5.520  0.0198  0.7802  0.0223
  176MOL0     C23631   5.693   8.905   5.444 -0.2193  1.2666 -0.8139
  176MOL0     C23632   5.643   8.843   5.330  0.4695 -0.4316 -0.0104
  176MOL0     O23633   5.535   8.873   5.241 -0.4083  0.2803  0.1097
  176MOL0     C23634   5.491   9.008   5.265 -0.2029 -0.2533 -0.4426
  176MOL0     C23635   5.409   9.048   5.136  0.1352  0.0762 -0.0177
  176MOL0     C23636   5.300   8.949   5.110  0.7116  0.1595  0.1617
  176MOL0     C23637   5.210   9.014   5.002 -0.3910 -0.0560 -0.4971
  176MOL0     C23638   5.060   8.978   5.015  0.3196  0.3972 -0.1873
  176MOL0     C23639   5.032   8.837   4.960  0.4224  0.0267  0.1638
  176MOL0     C23640   4.881   8.812   4.934  0.0675  0.3723  1.5510
  176MOL0     C23641   4.787   8.862   5.041  0.2241 -0.4180 -0.3639
  176MOL0     N23642   4.776   8.771   5.152 -0.2308 -0.6466 -0.5193
  176MOL0     C23643   4.838   8.797   5.271  0.5465  0.0143 -0.8379
  176MOL0     C23644   4.856   8.671   5.322 -0.4711 -0.2081  0.0971
  176MOL0     C23645   4.942   8.633   5.447 -0.1949  0.5589  0.7315
  176MOL0     C23646   5.095   8.641   5.427 -0.6925  0.2554  0.0646
  176MOL0     C23647   5.129   8.560   5.302  0.1237  0.3218 -0.9556
  176MOL0     C23648   5.277   8.566   5.278 -0.5114 -0.2763 -0.0568
  176MOL0     O23649   5.337   8.498   5.387 -0.0781 -0.6204  0.1434
  176MOL0     C23650   5.423   8.395   5.355 -0.0469 -0.1626 -0.1216
  176MOL0     C23651   5.551   8.390   5.416 -0.1134 -0.2189  0.1964
  176MOL0     C23652   5.635   8.276   5.394  0.2412  0.5850 -0.6942
  176MOL0     C23653   5.752   8.257   5.486 -0.3916 -0.8628 -0.2621
  176MOL0     C23654   5.590   8.167   5.301 -0.5365 -0.7961  0.6741
  176MOL0     C23655   5.670   8.044   5.273  0.2284 -0.4151  0.1065
  176MOL0     O23656   5.612   7.948   5.189  0.0478 -0.5084  0.2881
  176MOL0     C23657   5.687   7.844   5.139  0.6253  0.4349  0.2233
  176MOL0     C23658   5.634   7.717   5.158  0.2271  0.4010 -1.2856
  176MOL0     C23659   5.710   7.607   5.120 -0.1690  0.0015 -0.2224
  176MOL0     C23660   5.826   7.627   5.054 -0.3933 -0.3283  0.2837
  176MOL0     O23661   5.898   7.521   5.033  0.0545 -0.3060  0.0139
  176MOL0     C23662   6.005   7.499   5.128 -1.0051  0.1694  1.1439
  176MOL0     C23663   5.958   7.389   5.218  0.1557 -0.0310 -0.8245
  176MOL0     C23664   6.076   7.350   5.316  0.2962  0.0863 -0.0039
  176MOL0     C23665   6.039   7.274   5.447  0.1148 -0.1853 -0.0604
  176MOL0     C23666   6.153   7.285   5.546  0.4360 -0.3659  0.6668
  176MOL0     C23667   6.151   7.407   5.634 -0.0424 -0.7962 -0.5381
  176MOL0     C23668   6.280   7.430   5.710  0.1875 -0.0246 -0.2068
  176MOL0     C23669   6.267   7.569   5.783 -0.0968  0.5145 -0.0594
  176MOL0    Cl23670   6.420   7.609   5.873  0.2134  0.1530  0.3262
  176MOL0     C23671   5.874   7.753   5.021 -0.0224 -0.0847 -0.0420
  176MOL0     C23672   5.811   7.865   5.073 -0.0005 -1.0221  1.1983
  176MOL0     O23673   5.788   8.039   5.306  0.2049 -0.0378 -0.0341
  176MOL0     C23674   5.468   8.181   5.231  0.6800 -0.1666  0.3387
  176MOL0     C23675   5.385   8.295   5.267 -0.3552 -0.7235 -0.4608
  176MOL0     N23676   4.810   8.577   5.241 -0.3838  0.8185  0.0319
  176MOL0     N23677   4.756   8.645   5.136  0.4116  0.0165 -0.6961
  176MOL0     C23678   5.694   8.715   5.296  0.0908 -0.3458  0.8523
  176MOL0     C23679   5.804   8.659   5.366 -0.5372 -0.0580  0.5697
  176MOL0     C23680   6.150   8.577   5.641  0.0742 -0.7431 -0.5204
  176MOL0     C23681   6.269   8.499   5.618  0.6225 -0.4387 -0.0088
  176MOL0     C23682   6.367   8.498   5.717 -1.2577  0.2622  0.4226
  176MOL0     C23683   6.359   8.584   5.822 -0.9340 -0.0106 -0.7858
  176MOL0     O23684   6.471   8.583   5.898 -0.0575  0.0454  0.1313
  176MOL0     C23685   6.461   8.661   6.020  0.6352 -0.0639  0.1499
  176MOL0     C23686   6.399   8.600   6.138  0.1498 -0.0440 -0.3426
  176MOL0     C23687   6.457   8.468   6.177  0.9557 -0.4345 -0.4425
  176MOL0     C23688   6.398   8.361   6.092  0.0321  0.0867 -0.2850
  176MOL0     C23689   6.399   8.224   6.156 -0.7712 -0.6228 -0.8370
  176MOL0     C23690   6.386   8.110   6.197 -0.6309 -1.4614  0.6597
  176MOL0     C23691   6.248   8.667   5.839 -0.2933 -0.1839 -0.0295
  176MOL0     C23692   6.142   8.659   5.748  0.2802 -0.9483 -0.5458
  176MOL0     H23693   5.837   8.902   5.605 -0.2528 -0.1951  0.7824
  176MOL0     H23694   5.640   8.988   5.489 -5.2799 -3.6850  3.8983
  176MOL0     H23695   5.439   9.023   5.360  0.8719 -0.8770  0.2579
  176MOL0     H23696   5.574   9.079   5.268 -0.8799  0.5306  0.2880
  176MOL0     H23697   5.366   9.144   5.167  2.1947  0.4985  1.7971
  176MOL0     H23698   5.468   9.056   5.044 -1.2403  1.3198 -0.8298
  176MOL0     H23699   5.355   8.860   5.077 -0.6346 -1.1125  1.2174
  176MOL0     H23700   5.242   8.921   5.198  0.3803  0.3977  0.0193
  176MOL0     H23701   5.230   9.120   4.981  0.5960 -0.4056 -1.4062
  176MOL0     H23702   5.243   8.976   4.905 -0.8266 -2.2563  0.1595
  176MOL0     H23703   5.034   8.975   5.121 -2.9080 -3.7634 -0.8522
  176MOL0     H23704   5.000   9.050   4.958 -1.3172  0.0462  1.0480
  176MOL0     H23705   5.076   8.806   4.865 -0.6077 -0.8045 -0.0670
  176MOL0     H23706   5.075   8.762   5.028 -2.4395 -4.6756 -2.6666
  176MOL0     H23707   4.849   8.866   4.844 -1.6345 -0.3265  1.6997
  176MOL0     H23708   4.852   8.711   4.904 -1.2538  0.9616  0.7231
  176MOL0     H23709   4.690   8.873   4.991  0.3038  1.3095 -0.2101
  176MOL0     H23710   4.824   8.960   5.073 -0.6460 -0.6167  1.4271
  176MOL0     H23711   4.854   8.896   5.312 -2.0692  0.0818  0.2063
  176MOL0     H23712   4.918   8.702   5.529  0.1031 -0.7325  1.9460
  176MOL0     H23713   4.908   8.531   5.465  0.4688  0.0711 -0.7148
  176MOL0     H23714   5.145   8.600   5.515 -2.8404 -1.2576  0.6722
  176MOL0     H23715   5.117   8.748   5.425 -1.1354  0.3413 -0.3845
  176MOL0     H23716   5.076   8.598   5.214  0.5859  0.0418 -1.3557
  176MOL0     H23717   5.092   8.459   5.318 -0.1636  0.6260  0.4782
  176MOL0     H23718   5.305   8.671   5.290  0.4728 -0.6533  1.2104
  176MOL0     H23719   5.301   8.531   5.177  1.6365 -0.8654  0.6067
  176MOL0     H23720   5.577   8.467   5.488  0.3500  2.0053 -2.2391
  176MOL0     H23721   5.761   8.338   5.560  0.1452 -1.9083  0.8694
  176MOL0     H23722   5.742   8.166   5.545 -2.2075  0.5139  1.7050
  176MOL0     H23723   5.851   8.260   5.440  1.0509  4.1060  2.3958
  176MOL0     H23724   5.537   7.688   5.198  0.7477 -1.3056 -1.1496
  176MOL0     H23725   5.672   7.507   5.141  0.3378 -1.9563 -6.5928
  176MOL0     H23726   6.082   7.445   5.071  0.4904  0.2842  2.9659
  176MOL0     H23727   6.044   7.594   5.166  0.3695  0.3579 -0.6297
  176MOL0     H23728   5.871   7.423   5.275  1.0328  1.8371 -0.5468
  176MOL0     H23729   5.925   7.293   5.175  1.6217 -0.4827 -0.9932
  176MOL0     H23730   6.121   7.442   5.354  1.7978 -0.3153 -0.6996
  176MOL0     H23731   6.155   7.298   5.260  2.1421  1.1549  1.4885
  176MOL0     H23732   5.956   7.324   5.497  0.3089  2.8557 -2.4773
  176MOL0     H23733   6.020   7.171   5.416 -0.8032  0.1459 -0.6454
  176MOL0     H23734   6.245   7.290   5.487  0.5077 -1.5745  0.6622
  176MOL0     H23735   6.150   7.196   5.609 -0.9815 -0.3228  0.6911
  176MOL0     H23736   6.138   7.502   5.580  1.1998 -0.2317  0.1023
  176MOL0     H23737   6.067   7.390   5.702  0.8450  1.5938  1.3163
  176MOL0     H23738   6.366   7.436   5.643 -0.5544  0.8989 -1.1188
  176MOL0     H23739   6.288   7.348   5.782 -0.2169  2.9107  3.5074
  176MOL0     H23740   6.179   7.579   5.847  0.3206  2.6862  0.2644
  176MOL0     H23741   6.250   7.649   5.710  1.8129 -1.2432 -2.6038
  176MOL0     H23742   5.965   7.766   4.964  0.8292 -3.2485  0.3927
  176MOL0     H23743   5.853   7.964   5.061 -3.5130  0.4073 -0.6901
  176MOL0     H23744   5.433   8.111   5.156 -1.7006 -1.2066  2.2841
  176MOL0     H23745   5.296   8.309   5.207 -1.3903 -0.4610  1.0865
  176MOL0     H23746   5.647   8.659   5.216 -4.2719 -1.0507  3.5411
  176MOL0     H23747   5.843   8.568   5.321 -0.5692  0.1252  0.1741
  176MOL0     H23748   6.268   8.432   5.532 -2.8086  0.4665 -0.8354
  176MOL0     H23749   6.455   8.442   5.689 -0.6997  1.6357 -0.6817
  176MOL0     H23750   6.566   8.678   6.045  0.5973  2.1604 -0.9178
  176MOL0     H23751   6.422   8.761   5.996 -1.5285 -0.7882  0.4276
  176MOL0     H23752   6.292   8.601   6.117 -0.4150  0.8250  2.2496
  176MOL0     H23753   6.419   8.669   6.220  3.4046  2.8599 -3.2369
  176MOL0     H23754   6.425   8.448   6.280 -1.1453  2.4603 -0.4297
  176MOL0     H23755   6.566   8.476   6.173  1.0656  2.1800  3.3101
  176MOL0     H23756   6.452   8.348   5.998  0.2628 -0.4693 -0.0800
  176MOL0     H23757   6.293   8.385   6.072 -0.0470  0.5071  0.5895
  176MOL0     H23758   6.404   8.010   6.230  0.6294 -0.8445  1.9795
  176MOL0     H23759   6.241   8.744   5.915  1.1681  0.1027 -0.1382
  176MOL0     H23760   6.044   8.703   5.765 -1.3098 -3.3190 -2.7363
  177MOL0     O23761   8.686   0.406   4.260 -0.4064 -0.0285 -0.2258
  177MOL0     C23762   8.761   0.383   4.164 -0.5202 -0.5143 -0.2382
  177MOL0     O23763   8.707   0.333   4.045 -0.4196  0.5757  0.6060
  177MOL0     C23764   8.571   0.347   4.025 -0.1104  0.9099  0.2808
  177MOL0     C23765   8.492   0.252   3.947 -0.4161  0.7774  0.5942
  177MOL0     C23766   8.360   0.274   3.918  1.1569 -0.3437  0.4195
  177MOL0     C23767   8.302   0.393   3.950  0.1456 -0.0788 -0.6064
  177MOL0     O23768   8.167   0.414   3.925 -0.2462  0.0038  0.7538
  177MOL0     C23769   8.065   0.313   3.943 -0.3363  0.2642  0.9756
  177MOL0     C23770   7.946   0.367   3.868  1.2158  0.7836 -0.4442
  177MOL0     C23771   7.948   0.354   3.714  0.6086 -0.3928 -0.1662
  177MOL0     C23772   7.907   0.202   3.688  0.0570  0.2706 -0.2839
  177MOL0     C23773   7.896   0.168   3.538 -0.9273  0.1633  0.8144
  177MOL0     C23774   7.850   0.027   3.519  0.5841 -0.4920  0.1435
  177MOL0     C23775   7.829  -0.012   3.369 -0.2712 -0.3492 -0.5307
  177MOL0     C23776   7.735  -0.134   3.368  0.3794  0.4643  0.1793
  177MOL0     N23777   7.727  -0.161   3.225  0.3756 -0.6639 -0.4994
  177MOL0     C23778   7.794  -0.250   3.144 -0.6760  0.4907  0.7795
  177MOL0     C23779   7.717  -0.250   3.027 -0.5933 -0.1661 -0.3307
  177MOL0     C23780   7.738  -0.314   2.897  0.7143  0.5846  0.3823
  177MOL0     C23781   7.708  -0.461   2.897 -0.7066  0.2519 -0.0097
  177MOL0     C23782   7.741  -0.527   2.753  0.5457 -0.6833  0.0151
  177MOL0     C23783   7.661  -0.655   2.725 -0.7829 -0.5847 -1.0738
  177MOL0     O23784   7.711  -0.771   2.786 -0.4727  0.1085 -0.3581
  177MOL0     C23785   7.623  -0.866   2.820 -0.3416  0.0830 -0.0512
  177MOL0     C23786   7.580  -0.956   2.724 -0.3877  0.9328 -0.1766
  177MOL0     C23787   7.500  -1.069   2.762 -0.1198  0.9464 -0.6872
  177MOL0     C23788   7.472  -1.159   2.641  0.1321  0.0995  1.4320
  177MOL0     C23789   7.453  -1.083   2.895  0.5692 -0.8440 -0.1607
  177MOL0     C23790   7.377  -1.201   2.948 -0.2433  0.7095 -0.7316
  177MOL0     O23791   7.296  -1.191   3.060 -0.8222 -0.1631  0.6261
  177MOL0     C23792   7.196  -1.286   3.066 -0.4009 -0.1847  0.1442
  177MOL0     C23793   7.146  -1.324   3.193 -0.1428  0.1029  0.1222
  177MOL0     C23794   7.045  -1.410   3.206 -0.5484  0.0868 -0.1590
  177MOL0     C23795   6.978  -1.449   3.099 -0.0341  0.6489  0.6517
  177MOL0     O23796   6.859  -1.520   3.112 -0.2957  0.0797 -0.5954
  177MOL0     C23797   6.836  -1.630   3.029  0.2096  0.3189  0.4270
  177MOL0     C23798   6.699  -1.688   3.056 -0.8888  0.2847 -0.5757
  177MOL0     C23799   6.584  -1.620   2.974 -0.3546  0.1509  0.5809
  177MOL0     C23800   6.458  -1.685   3.014  1.0433 -0.7848  1.0068
  177MOL0     C23801   6.337  -1.641   2.928  0.1453 -0.0018 -0.7270
  177MOL0     C23802   6.207  -1.688   2.998  0.3759 -0.8224  0.4582
  177MOL0     C23803   6.075  -1.621   2.942  0.5722  0.6913  0.1308
  177MOL0     C23804   6.027  -1.669   2.815  1.3463  0.1041 -0.5910
  177MOL0    Cl23805   5.911  -1.540   2.772 -0.7938 -0.3129  0.6967
  177MOL0     C23806   7.004  -1.405   2.972  0.1647 -0.0579  0.3827
  177MOL0     C23807   7.116  -1.329   2.950 -0.4677 -0.0563  0.7844
  177MOL0     O23808   7.392  -1.304   2.892 -0.3356  0.2477 -0.4113
  177MOL0     C23809   7.484  -0.974   2.980  0.9054  0.3863 -0.5918
  177MOL0     C23810   7.570  -0.876   2.945 -0.6306 -0.6273 -0.2538
  177MOL0     N23811   7.615  -0.158   3.040 -1.3312 -0.4554  0.1638
  177MOL0     N23812   7.628  -0.097   3.156 -0.1441  0.3058  0.6810
  177MOL0     C23813   8.376   0.489   4.019  0.1688  0.0803 -0.8978
  177MOL0     C23814   8.513   0.467   4.045  0.0743 -0.8964 -0.4253
  177MOL0     C23815   8.907   0.391   4.175  0.4126  1.2034  0.7835
  177MOL0     C23816   8.987   0.351   4.061  0.4291  0.0996 -0.2301
  177MOL0     C23817   9.122   0.320   4.084 -0.4193 -1.0975 -0.4512
  177MOL0     C23818   9.182   0.342   4.210 -0.5335 -0.0087  0.3018
  177MOL0     O23819   9.316   0.308   4.221 -0.4335  0.3163 -1.1793
  177MOL0     C23820   9.387   0.316   4.345 -0.5190 -0.2399  0.0518
  177MOL0     C23821   9.376   0.177   4.410  0.6417 -0.1068  0.2144
  177MOL0     C23822   9.433   0.180   4.553  0.2303 -0.5306  0.3667
  177MOL0     C23823   9.362   0.276   4.649 -0.4698  0.0145 -0.2167
  177MOL0     C23824   9.215   0.280   4.646  0.7495  0.1722  0.0291
  177MOL0     C23825   9.093   0.286   4.642  0.8600 -0.2540 -0.9128
  177MOL0     C23826   9.104   0.392   4.313  0.4972 -0.0423 -0.0469
  177MOL0     C23827   8.965   0.413   4.299 -0.9104  0.4372 -0.4102
  177MOL0     H23828   8.524   0.153   3.917 -0.6155  1.6420 -2.8603
  177MOL0     H23829   8.293   0.201   3.873 -0.1230  1.8592 -1.4763
  177MOL0     H23830   8.091   0.213   3.906  0.0581  0.8465 -0.4029
  177MOL0     H23831   8.044   0.303   4.049  1.0369  0.6877  1.3159
  177MOL0     H23832   7.852   0.331   3.911  0.1057 -1.0226 -4.0353
  177MOL0     H23833   7.952   0.474   3.890 -0.5705  1.6501 -3.5751
  177MOL0     H23834   7.884   0.422   3.657  1.0630 -0.8706 -1.2799
  177MOL0     H23835   8.051   0.380   3.686  0.7951  0.4005  1.1991
  177MOL0     H23836   7.984   0.137   3.731  0.6873  0.1069 -1.5918
  177MOL0     H23837   7.809   0.184   3.732  0.9982 -2.4502  0.9532
  177MOL0     H23838   7.837   0.246   3.487  0.4295  1.9568  1.8514
  177MOL0     H23839   7.995   0.175   3.493 -1.3973 -0.2710 -0.3300
  177MOL0     H23840   7.916  -0.043   3.570 -0.6188 -1.0578  0.9882
  177MOL0     H23841   7.753   0.016   3.568  0.8831 -2.2876  0.3870
  177MOL0     H23842   7.790   0.069   3.307 -2.5915  0.2658  1.5700
  177MOL0     H23843   7.931  -0.031   3.336 -0.0107  0.3778 -0.1664
  177MOL0     H23844   7.640  -0.124   3.420 -1.1372  1.1936 -2.5292
  177MOL0     H23845   7.788  -0.213   3.422 -0.9127 -0.1469  0.5762
  177MOL0     H23846   7.890  -0.298   3.165  0.6123  1.0184 -3.1418
  177MOL0     H23847   7.683  -0.255   2.824  3.0962  4.5319  1.5234
  177MOL0     H23848   7.845  -0.318   2.877  0.8141  0.4890  0.9118
  177MOL0     H23849   7.602  -0.466   2.924 -0.4920 -1.0764  0.7180
  177MOL0     H23850   7.758  -0.517   2.977 -2.7444  0.3849  1.4332
  177MOL0     H23851   7.849  -0.539   2.743  0.8061  1.4021 -0.2684
  177MOL0     H23852   7.704  -0.450   2.684 -1.8860 -2.2102 -0.5114
  177MOL0     H23853   7.659  -0.664   2.617 -0.8543  1.9653 -1.3642
  177MOL0     H23854   7.559  -0.637   2.760 -0.3012  2.5205 -0.9448
  177MOL0     H23855   7.608  -0.936   2.621 -1.7066 -0.3475 -0.8183
  177MOL0     H23856   7.381  -1.219   2.649 -2.8955  4.3875  2.7463
  177MOL0     H23857   7.453  -1.085   2.563  0.8825 -0.1478  1.0103
  177MOL0     H23858   7.547  -1.227   2.600  0.9066  1.7088  0.0490
  177MOL0     H23859   7.200  -1.289   3.280  1.9545 -1.3515 -0.5142
  177MOL0     H23860   7.017  -1.438   3.307 -1.4725 -0.9595 -0.6774
  177MOL0     H23861   6.835  -1.604   2.923 -1.0733 -0.8049  0.1372
  177MOL0     H23862   6.901  -1.711   3.060 -4.2827 -1.8420  6.1865
  177MOL0     H23863   6.688  -1.794   3.034 -2.2530  0.4857 -0.9687
  177MOL0     H23864   6.677  -1.679   3.163  1.3890  0.9121 -0.1141
  177MOL0     H23865   6.581  -1.620   2.865 -0.6629  1.0884  0.5797
  177MOL0     H23866   6.575  -1.515   3.003 -0.8977 -0.0492  1.1535
  177MOL0     H23867   6.459  -1.794   3.016 -1.2834 -0.8919 -0.7871
  177MOL0     H23868   6.453  -1.656   3.120  0.0543  1.2583  0.4588
  177MOL0     H23869   6.343  -1.677   2.825  0.6402  1.0830 -1.0931
  177MOL0     H23870   6.331  -1.532   2.917 -1.0038 -0.0338 -0.5678
  177MOL0     H23871   6.189  -1.795   3.002 -1.6749 -0.7018 -2.4208
  177MOL0     H23872   6.226  -1.653   3.100  0.8029 -3.2323  1.2510
  177MOL0     H23873   6.094  -1.513   2.936 -1.6487  1.2365  1.5446
  177MOL0     H23874   5.990  -1.636   3.009 -2.7566 -0.1280 -3.8791
  177MOL0     H23875   5.983  -1.768   2.827  2.3853 -0.3105 -0.1184
  177MOL0     H23876   6.116  -1.674   2.753  1.1832 -0.4703 -0.7833
  177MOL0     H23877   6.959  -1.444   2.881  1.7168  0.0197 -0.4624
  177MOL0     H23878   7.137  -1.291   2.850 -0.9214  1.0982  1.1095
  177MOL0     H23879   7.445  -0.983   3.081 -0.1268  0.6365 -0.9552
  177MOL0     H23880   7.609  -0.813   3.024 -3.5204  0.1538  0.6776
  177MOL0     H23881   8.321   0.574   4.058  0.9776 -0.6398  2.0540
  177MOL0     H23882   8.564   0.537   4.111  0.9715  0.2045 -2.2128
  177MOL0     H23883   8.946   0.331   3.963 -1.1064 -3.5904  0.9941
  177MOL0     H23884   9.185   0.285   4.002  1.8121  1.7210 -0.0907
  177MOL0     H23885   9.491   0.340   4.319 -0.7918  1.5472  0.4700
  177MOL0     H23886   9.356   0.397   4.411 -1.3245 -1.2478  0.9563
  177MOL0     H23887   9.434   0.106   4.350  0.0676 -0.4058  0.0154
  177MOL0     H23888   9.273   0.143   4.414 -0.1638  2.0127 -1.0423
  177MOL0     H23889   9.540   0.206   4.555 -0.4011  2.4631 -0.0388
  177MOL0     H23890   9.422   0.079   4.593  2.1652 -0.6714  0.6598
  177MOL0     H23891   9.407   0.374   4.634 -0.4948 -0.0533 -0.7650
  177MOL0     H23892   9.389   0.249   4.751 -0.8051 -0.3051 -0.2085
  177MOL0     H23893   8.987   0.302   4.649  0.6998 -1.2512 -0.8489
  177MOL0     H23894   9.145   0.425   4.408  0.8096  1.0365 -0.5381
  177MOL0     H23895   8.900   0.435   4.383  0.7198 -1.3075  1.3901
  178MOL0     O23896   2.135   4.921   3.676 -0.5371 -0.0123  0.0874
  178MOL0     C23897   2.127   4.974   3.789  0.6607  0.1663  0.3980
  178MOL0     O23898   2.029   5.074   3.820 -0.4952 -0.2963  0.1025
  178MOL0     C23899   1.922   5.088   3.736 -0.3385 -0.2891 -0.5200
  178MOL0     C23900   1.833   4.993   3.692  0.2931  0.3626  0.6121
  178MOL0     C23901   1.723   5.021   3.597 -0.8667  0.4746  0.0378
  178MOL0     C23902   1.700   5.157   3.562  0.1157  0.6526 -1.4879
  178MOL0     O23903   1.602   5.201   3.485  0.4875 -0.2416 -0.5728
  178MOL0     C23904   1.506   5.112   3.422 -0.2019 -0.2394 -0.1536
  178MOL0     C23905   1.553   5.058   3.285 -0.5256  1.0768  0.3036
  178MOL0     C23906   1.439   4.962   3.233 -0.2940 -0.3502  0.7332
  178MOL0     C23907   1.470   4.851   3.132 -1.3084 -0.1136 -0.9645
  178MOL0     C23908   1.345   4.772   3.101  0.5393  0.8591 -0.9020
  178MOL0     C23909   1.320   4.665   3.205  0.4000 -0.0796  0.3679
  178MOL0     C23910   1.197   4.582   3.165  0.3295  0.6147  0.0826
  178MOL0     C23911   1.205   4.446   3.218  0.7506  0.0929  0.3510
  178MOL0     N23912   1.077   4.379   3.198 -0.1621  0.0426  0.3231
  178MOL0     C23913   1.025   4.374   3.066 -0.4956  0.4706 -0.2588
  178MOL0     C23914   0.900   4.329   3.091  0.6548  0.9433  1.1036
  178MOL0     C23915   0.805   4.292   2.987  0.2864  0.4389 -0.3970
  178MOL0     C23916   0.803   4.140   2.974 -0.3359  1.0235  0.3653
  178MOL0     C23917   0.665   4.075   2.986 -0.4695  0.1250  0.2578
  178MOL0     C23918   0.573   4.100   2.867  0.0773  0.2758 -1.0958
  178MOL0     O23919   0.514   3.975   2.843  0.2008  0.1536  0.6502
  178MOL0     C23920   0.380   3.941   2.873 -0.0679  0.4081  0.2427
  178MOL0     C23921   0.292   4.017   2.958  0.0726 -0.3736  0.1543
  178MOL0     C23922   0.160   3.976   2.974 -0.0095  0.1751  0.3324
  178MOL0     C23923   0.080   4.081   3.056  0.4731  0.4972  0.1829
  178MOL0     C23924   0.101   3.858   2.916  0.1188 -0.5626 -0.8971
  178MOL0     C23925  -0.038   3.821   2.918  0.3425 -0.1563 -0.2032
  178MOL0     O23926  -0.125   3.896   2.982  0.0407 -0.0810  0.2633
  178MOL0     C23927  -0.257   3.865   3.007  0.2572  0.0271 -0.5443
  178MOL0     C23928  -0.339   3.758   2.963  0.6196 -0.0481 -0.0702
  178MOL0     C23929  -0.477   3.754   2.983 -0.7581  0.9386  0.4392
  178MOL0     C23930  -0.545   3.846   3.059  0.2263 -0.4664 -0.5084
  178MOL0     O23931  -0.684   3.828   3.067 -0.5474 -0.4684 -0.7618
  178MOL0     C23932  -0.764   3.947   3.048 -0.2278  0.3755  0.1923
  178MOL0     C23933  -0.916   3.918   3.040 -0.1711  0.0902 -0.3469
  178MOL0     C23934  -0.937   3.813   2.924 -0.1977  0.0923  0.0452
  178MOL0     C23935  -1.091   3.790   2.882 -0.3536 -0.1259 -0.3093
  178MOL0     C23936  -1.142   3.897   2.801  0.5834 -0.2412 -0.9480
  178MOL0     C23937  -1.110   3.873   2.648  0.5638  0.3535  0.6603
  178MOL0     C23938  -1.176   3.985   2.559 -0.8422 -0.3583 -0.2266
  178MOL0     C23939  -1.177   3.936   2.418 -0.3019 -0.0994  0.1928
  178MOL0    Cl23940  -1.238   4.060   2.310 -0.6347 -0.0879 -0.2613
  178MOL0     C23941  -0.467   3.951   3.109 -1.1211  0.0276  0.4195
  178MOL0     C23942  -0.332   3.968   3.077 -0.7876  0.0315  0.2602
  178MOL0     O23943  -0.063   3.712   2.866 -1.4767 -0.4819 -0.0385
  178MOL0     C23944   0.193   3.787   2.837 -0.2471 -0.4657  0.4518
  178MOL0     C23945   0.332   3.823   2.822  0.4103 -0.7524  0.2366
  178MOL0     N23946   0.867   4.343   3.216 -0.6090  0.0787 -0.5473
  178MOL0     N23947   0.973   4.385   3.280 -0.0070  0.4645 -0.7506
  178MOL0     C23948   1.782   5.254   3.623 -0.8786  0.2090  0.2642
  178MOL0     C23949   1.895   5.220   3.700  0.2458  0.2565  0.6137
  178MOL0     C23950   2.225   4.938   3.892 -0.0019 -0.3462 -0.0294
  178MOL0     C23951   2.302   4.813   3.871 -0.9737 -0.7456  0.3483
  178MOL0     C23952   2.404   4.773   3.969  0.4154  0.0352  0.6628
  178MOL0     C23953   2.431   4.852   4.079  0.0958  0.6137  0.7869
  178MOL0     O23954   2.523   4.829   4.176 -0.6549 -0.5216  0.4867
  178MOL0     C23955   2.604   4.712   4.183  0.6183 -0.4743 -0.2200
  178MOL0     C23956   2.671   4.700   4.319 -0.1458 -0.6779 -0.0220
  178MOL0     C23957   2.806   4.785   4.309  0.5573 -0.5348 -0.2507
  178MOL0     C23958   2.872   4.779   4.447  0.3599 -0.8540 -0.0208
  178MOL0     C23959   3.003   4.842   4.449 -0.8252 -0.7707 -0.3376
  178MOL0     C23960   3.119   4.884   4.451  0.8360 -0.2590  1.1319
  178MOL0     C23961   2.361   4.977   4.090  1.1602 -0.0747  0.9163
  178MOL0     C23962   2.260   5.017   3.997 -0.0432 -0.0110 -0.6509
  178MOL0     H23963   1.843   4.896   3.740  1.4173  1.1844  2.1420
  178MOL0     H23964   1.671   4.936   3.554 -0.9308 -1.0553  2.9243
  178MOL0     H23965   1.469   5.033   3.489 -0.7823 -0.4514 -0.7110
  178MOL0     H23966   1.425   5.176   3.388  1.6490  1.6245 -1.2935
  178MOL0     H23967   1.576   5.145   3.223  2.5279 -0.0357 -0.3349
  178MOL0     H23968   1.642   4.994   3.295 -1.8411 -0.7767  0.7405
  178MOL0     H23969   1.389   4.916   3.319 -1.7571  0.0063  0.0998
  178MOL0     H23970   1.372   5.027   3.176  0.3995  0.6029  0.9814
  178MOL0     H23971   1.511   4.881   3.035  0.0666 -3.2282 -1.4562
  178MOL0     H23972   1.543   4.785   3.180 -2.1958 -0.4391 -0.0342
  178MOL0     H23973   1.248   4.819   3.085 -0.7274 -1.2968  0.0540
  178MOL0     H23974   1.364   4.721   3.006 -0.6276  1.5317 -1.5085
  178MOL0     H23975   1.411   4.606   3.189  0.7313  1.0308 -2.5188
  178MOL0     H23976   1.308   4.697   3.309 -4.1824  0.1527 -0.0527
  178MOL0     H23977   1.119   4.646   3.207  3.5033  3.4205  2.1245
  178MOL0     H23978   1.186   4.589   3.056  0.0980  2.7140  0.2012
  178MOL0     H23979   1.227   4.450   3.325 -2.2096 -1.7272  1.1333
  178MOL0     H23980   1.278   4.386   3.163  0.7565  0.0793  0.3745
  178MOL0     H23981   1.080   4.387   2.973 -0.1293  2.3536  0.1760
  178MOL0     H23982   0.707   4.320   3.028 -0.0770 -0.6588 -0.4776
  178MOL0     H23983   0.817   4.335   2.888  0.7182 -0.9920 -0.9888
  178MOL0     H23984   0.868   4.095   3.050 -0.6213  2.3804  1.4372
  178MOL0     H23985   0.849   4.110   2.879  3.1767 -1.5726  2.6008
  178MOL0     H23986   0.609   4.099   3.077  2.0356  0.6437  1.7605
  178MOL0     H23987   0.681   3.969   3.008  0.1871  0.5766  2.2290
  178MOL0     H23988   0.627   4.136   2.779  0.0990 -1.1467 -1.6901
  178MOL0     H23989   0.492   4.170   2.889 -0.3089  0.2779 -2.4705
  178MOL0     H23990   0.331   4.107   3.004 -0.6392 -0.0007  0.0446
  178MOL0     H23991  -0.022   4.104   3.023 -1.0435  2.0835  5.1394
  178MOL0     H23992   0.072   4.029   3.151 -0.8143  2.9192  1.4858
  178MOL0     H23993   0.122   4.182   3.054  0.1414  0.6396 -1.9470
  178MOL0     H23994  -0.300   3.676   2.904  1.3216 -1.0998  1.7694
  178MOL0     H23995  -0.527   3.666   2.944  1.0651 -1.9442  3.8535
  178MOL0     H23996  -0.746   4.016   3.132 -1.0975  0.0458  0.6656
  178MOL0     H23997  -0.730   4.006   2.962  2.5893 -0.4616  0.6335
  178MOL0     H23998  -0.944   3.869   3.133  1.6553  0.0502  0.2209
  178MOL0     H23999  -0.963   4.013   3.012  0.4658  0.8235  0.9663
  178MOL0     H24000  -0.905   3.711   2.948 -0.2167 -0.4656 -2.0397
  178MOL0     H24001  -0.886   3.837   2.830 -1.3153  4.3710  0.3090
  178MOL0     H24002  -1.112   3.703   2.819  0.3732  0.3739 -1.2670
  178MOL0     H24003  -1.149   3.768   2.972 -0.3116 -1.8255 -0.6659
  178MOL0     H24004  -1.100   3.992   2.837  0.0738 -0.3545 -0.0151
  178MOL0     H24005  -1.249   3.898   2.821  0.6990  0.0653 -0.2776
  178MOL0     H24006  -1.003   3.868   2.626  0.6803  0.7427  1.1122
  178MOL0     H24007  -1.149   3.775   2.619  5.0532 -1.8564  1.1576
  178MOL0     H24008  -1.116   4.076   2.553 -1.6600  0.1768 -0.5283
  178MOL0     H24009  -1.280   4.013   2.580 -0.9105 -0.4763 -0.4087
  178MOL0     H24010  -1.246   3.851   2.418 -2.1779  1.3460  1.5059
  178MOL0     H24011  -1.083   3.901   2.374 -1.8562 -0.3634 -3.2416
  178MOL0     H24012  -0.516   4.024   3.172 -1.8896  1.2760 -1.5464
  178MOL0     H24013  -0.293   4.058   3.123 -4.8622  0.6751  3.0469
  178MOL0     H24014   0.161   3.695   2.788 -0.7827 -0.4072  0.6856
  178MOL0     H24015   0.397   3.759   2.762 -0.7077 -1.4305 -0.2971
  178MOL0     H24016   1.763   5.359   3.603  0.3861  0.5796  0.8799
  178MOL0     H24017   1.963   5.297   3.735  1.7817 -1.7090  2.2131
  178MOL0     H24018   2.274   4.760   3.781  4.0706 -1.4256 -1.1044
  178MOL0     H24019   2.457   4.680   3.951  0.6730  0.0518  1.2980
  178MOL0     H24020   2.534   4.630   4.166  1.1283 -0.5538 -2.2147
  178MOL0     H24021   2.678   4.709   4.103  0.3176  2.0747 -0.6892
  178MOL0     H24022   2.703   4.597   4.338  0.0051 -0.6278 -0.0012
  178MOL0     H24023   2.601   4.730   4.398  0.4171 -1.7158  0.8987
  178MOL0     H24024   2.781   4.889   4.287  2.2402  0.0995  0.6473
  178MOL0     H24025   2.861   4.745   4.224 -1.1442 -2.0630 -0.6906
  178MOL0     H24026   2.882   4.674   4.475 -0.4796 -0.6776  0.9772
  178MOL0     H24027   2.807   4.826   4.521  0.6651 -1.0419  0.3710
  178MOL0     H24028   3.215   4.930   4.458  1.7489 -1.2618 -2.5092
  178MOL0     H24029   2.384   5.041   4.174  1.9309 -0.5283  1.0567
  178MOL0     H24030   2.218   5.116   4.011  2.3627  1.0457 -0.3952
  179MOL0     O24031   1.295  11.126   5.081 -0.3649 -0.3942  0.2937
  179MOL0     C24032   1.382  11.206   5.094 -1.1913 -0.4149 -0.4850
  179MOL0     O24033   1.372  11.350   5.105 -0.4332  0.6092  0.1309
  179MOL0     C24034   1.256  11.408   5.068  0.1007  0.1824  0.2764
  179MOL0     C24035   1.153  11.432   5.155 -0.2137  1.2100  0.5070
  179MOL0     C24036   1.037  11.491   5.118  0.4052 -0.7480  0.2888
  179MOL0     C24037   1.019  11.517   4.979  0.8999 -0.1920  0.0511
  179MOL0     O24038   0.907  11.593   4.943 -0.1243  0.0161 -0.0176
  179MOL0     C24039   0.934  11.708   4.863 -0.3107 -0.2755  0.6999
  179MOL0     C24040   0.919  11.831   4.941  0.5903  0.6851 -1.2637
  179MOL0     C24041   1.011  11.946   4.900 -0.3913 -0.5764 -0.0244
  179MOL0     C24042   1.158  11.949   4.946 -0.6062 -0.2847 -0.3376
  179MOL0     C24043   1.241  12.076   4.907 -0.3845 -0.2111 -0.4749
  179MOL0     C24044   1.236  12.187   5.012  0.0343  0.9883 -0.4552
  179MOL0     C24045   1.296  12.161   5.145 -0.2986  0.7424 -0.8328
  179MOL0     C24046   1.445  12.163   5.144 -0.3839 -0.8292  0.0272
  179MOL0     N24047   1.514  12.149   5.273  0.1341 -0.3257  0.2562
  179MOL0     C24048   1.642  12.105   5.287 -0.3764 -0.0329  0.5231
  179MOL0     C24049   1.648  12.052   5.406  0.2047  0.6788 -0.8717
  179MOL0     C24050   1.766  11.997   5.484  0.5121  0.6912 -0.6469
  179MOL0     C24051   1.758  11.850   5.481 -0.6050  0.0562  0.2465
  179MOL0     C24052   1.808  11.789   5.354 -0.2358  0.6318  0.1751
  179MOL0     C24053   1.771  11.648   5.326 -0.0531  0.2738 -0.3904
  179MOL0     O24054   1.838  11.609   5.209  0.9731 -1.0367  0.7037
  179MOL0     C24055   1.944  11.522   5.208 -0.1582  0.2046  0.0238
  179MOL0     C24056   1.956  11.408   5.294 -0.8145  0.4357  0.3089
  179MOL0     C24057   2.064  11.314   5.283 -0.3354  0.0424  0.3643
  179MOL0     C24058   2.058  11.202   5.378 -1.0100  0.7840 -0.6731
  179MOL0     C24059   2.139  11.312   5.163  0.0122  0.1875 -1.0006
  179MOL0     C24060   2.243  11.208   5.131  0.0737  0.3722  0.0057
  179MOL0     O24061   2.286  11.209   5.003 -0.3879 -0.3212  0.6973
  179MOL0     C24062   2.386  11.115   4.971  0.4150 -0.4001 -0.6416
  179MOL0     C24063   2.349  11.009   4.903  0.2010  0.6976  0.7049
  179MOL0     C24064   2.436  10.904   4.871 -0.0652 -0.1142  0.1867
  179MOL0     C24065   2.561  10.903   4.920 -0.6294  0.0870 -1.2388
  179MOL0     O24066   2.650  10.799   4.897  0.0610  0.1870 -0.8067
  179MOL0     C24067   2.788  10.806   4.926 -0.6235 -0.9974  0.1667
  179MOL0     C24068   2.854  10.889   4.814  0.5869  0.5086  0.4037
  179MOL0     C24069   3.009  10.891   4.815  0.1727 -1.2932 -0.0326
  179MOL0     C24070   3.063  10.994   4.707 -0.5415 -0.0388  0.8757
  179MOL0     C24071   3.222  11.003   4.719  0.1211 -0.0662 -1.0322
  179MOL0     C24072   3.296  10.864   4.728  0.3775  0.3020  0.7597
  179MOL0     C24073   3.442  10.869   4.703  0.7889 -0.0999  0.3407
  179MOL0     C24074   3.519  10.800   4.812  0.7203 -0.2009 -0.4121
  179MOL0    Cl24075   3.697  10.803   4.788  0.2670  0.2282  0.0009
  179MOL0     C24076   2.597  11.014   4.997 -0.2940  0.2904 -0.1382
  179MOL0     C24077   2.515  11.124   5.023 -0.5286  0.2164 -0.1887
  179MOL0     O24078   2.272  11.121   5.213  0.0674  0.2258 -0.1292
  179MOL0     C24079   2.121  11.417   5.070 -0.6950  0.4674 -0.1382
  179MOL0     C24080   2.038  11.526   5.104  0.0657  0.0529 -0.2808
  179MOL0     N24081   1.523  12.050   5.460  0.5247 -0.7257 -0.5028
  179MOL0     N24082   1.446  12.099   5.375  0.7330 -0.3212  0.3644
  179MOL0     C24083   1.123  11.481   4.891 -0.2339  0.3847  0.0507
  179MOL0     C24084   1.240  11.426   4.932  0.3025 -0.3467 -0.3087
  179MOL0     C24085   1.522  11.151   5.093  0.2911  0.3570 -0.2852
  179MOL0     C24086   1.545  11.015   5.090  0.1664  0.0167  0.3234
  179MOL0     C24087   1.669  10.968   5.094 -0.5652 -0.4981  0.6938
  179MOL0     C24088   1.782  11.052   5.090 -0.1944 -0.3065  0.0980
  179MOL0     O24089   1.920  11.017   5.090  0.1902 -0.1235  0.4571
  179MOL0     C24090   1.961  10.873   5.071  0.1199  0.0969  0.3782
  179MOL0     C24091   2.008  10.815   5.205  0.8116  0.3406 -0.0778
  179MOL0     C24092   2.107  10.702   5.209  0.5776  0.0294 -0.5803
  179MOL0     C24093   2.145  10.691   5.363  0.2976  0.1382 -0.7234
  179MOL0     C24094   2.263  10.607   5.401  0.4903 -0.4229 -0.0416
  179MOL0     C24095   2.359  10.541   5.413  0.1246 -0.1231  0.5847
  179MOL0     C24096   1.754  11.190   5.090 -0.0005 -0.7673  0.5724
  179MOL0     C24097   1.625  11.237   5.089  0.3146 -0.6697 -0.0235
  179MOL0     H24098   1.164  11.402   5.258 -1.8037 -0.1945  0.3135
  179MOL0     H24099   0.954  11.511   5.184 -0.8599 -3.8590 -0.1842
  179MOL0     H24100   1.038  11.721   4.833 -0.6411 -0.0523 -0.3663
  179MOL0     H24101   0.880  11.713   4.768  1.3762  5.5028 -0.3726
  179MOL0     H24102   0.814  11.849   4.917  0.2617 -2.0360 -2.2335
  179MOL0     H24103   0.924  11.813   5.049 -1.1503 -0.0380 -1.2688
  179MOL0     H24104   1.001  11.963   4.792 -2.5271  0.9987  0.3541
  179MOL0     H24105   0.975  12.036   4.951  1.2414  0.9722 -1.4391
  179MOL0     H24106   1.166  11.930   5.054  0.0325 -0.9991 -0.4989
  179MOL0     H24107   1.206  11.869   4.888 -1.5156 -1.6974  0.7894
  179MOL0     H24108   1.342  12.035   4.897 -1.3752 -2.6469 -1.3448
  179MOL0     H24109   1.224  12.113   4.806  2.6172  2.2640 -0.2175
  179MOL0     H24110   1.291  12.275   4.976  2.4485  0.2283  1.1394
  179MOL0     H24111   1.130  12.214   5.011 -0.8088 -2.0260 -0.5668
  179MOL0     H24112   1.256  12.242   5.207  0.1190  2.2917 -2.5106
  179MOL0     H24113   1.262  12.068   5.190 -2.4255  2.6496  1.8737
  179MOL0     H24114   1.470  12.252   5.085 -1.7947 -1.6208 -1.9055
  179MOL0     H24115   1.476  12.081   5.078 -3.1166 -3.8668  2.1747
  179MOL0     H24116   1.718  12.109   5.209 -1.0656 -1.9107 -0.3008
  179MOL0     H24117   1.854  12.044   5.438  0.2512  1.1118 -0.7158
  179MOL0     H24118   1.746  12.027   5.587  1.1243  0.3320 -0.4165
  179MOL0     H24119   1.659  11.812   5.508 -1.5642  1.3162 -1.3412
  179MOL0     H24120   1.826  11.817   5.560 -0.5082  1.5219  0.7979
  179MOL0     H24121   1.917  11.794   5.345 -0.1262  0.9475  1.5236
  179MOL0     H24122   1.765  11.837   5.266  0.5773 -1.1727 -1.2605
  179MOL0     H24123   1.663  11.653   5.314  0.0903  0.5735 -1.6670
  179MOL0     H24124   1.811  11.595   5.413  3.9455 -0.0578 -2.1972
  179MOL0     H24125   1.884  11.388   5.372 -1.1771 -4.3949 -0.9459
  179MOL0     H24126   2.057  11.109   5.321  4.4698 -0.3920  0.5279
  179MOL0     H24127   2.156  11.191   5.426 -1.4918  0.4280  0.2422
  179MOL0     H24128   1.983  11.209   5.457  1.0319  0.3796  1.4049
  179MOL0     H24129   2.247  11.015   4.866  0.5751 -0.1254 -0.5352
  179MOL0     H24130   2.400  10.828   4.801 -1.5574  2.9877 -2.6756
  179MOL0     H24131   2.805  10.851   5.025  0.2935  1.7098 -1.1046
  179MOL0     H24132   2.826  10.704   4.919  0.3702 -0.6042 -0.5231
  179MOL0     H24133   2.821  10.844   4.720 -0.7245  4.4966 -1.2594
  179MOL0     H24134   2.808  10.988   4.822  1.7383  1.1574 -0.7271
  179MOL0     H24135   3.040  10.787   4.804  3.0703 -0.5708  0.3577
  179MOL0     H24136   3.043  10.927   4.913  1.6281 -0.0230 -0.9576
  179MOL0     H24137   3.028  10.971   4.606  0.5131 -0.0274  0.4965
  179MOL0     H24138   3.024  11.095   4.724  1.9894  1.0697  0.5474
  179MOL0     H24139   3.250  11.060   4.808  0.7214 -1.2031 -0.4719
  179MOL0     H24140   3.252  11.062   4.631 -1.9459  2.4046 -0.2066
  179MOL0     H24141   3.278  10.828   4.830 -0.9605  2.5022  1.3626
  179MOL0     H24142   3.247  10.791   4.663  3.7519 -2.4640  1.0436
  179MOL0     H24143   3.480  10.970   4.688 -0.4527  0.3225 -0.1404
  179MOL0     H24144   3.463  10.815   4.610 -2.3387 -2.4020  0.7845
  179MOL0     H24145   3.497  10.693   4.821  2.5956 -0.5454  0.5612
  179MOL0     H24146   3.486  10.834   4.911  0.4660  1.1622 -0.9534
  179MOL0     H24147   2.683  11.010   5.062 -0.3173  3.3677  0.2542
  179MOL0     H24148   2.541  11.202   5.094 -2.6357  1.1450 -0.3675
  179MOL0     H24149   2.182  11.428   4.982  2.4951  1.5884  2.0310
  179MOL0     H24150   2.036  11.614   5.039  0.4451  0.3850  0.1572
  179MOL0     H24151   1.123  11.488   4.783  1.0854 -0.7109 -0.0546
  179MOL0     H24152   1.315  11.390   4.862  2.1534 -2.3534  2.5119
  179MOL0     H24153   1.470  10.937   5.080  1.7435 -1.4938 -0.1899
  179MOL0     H24154   1.680  10.860   5.094 -1.7035 -0.7437 -2.4429
  179MOL0     H24155   1.878  10.809   5.038  0.8625 -0.9756  0.5279
  179MOL0     H24156   2.030  10.850   4.990  0.7908 -1.7702  1.4128
  179MOL0     H24157   1.923  10.779   5.265  1.6298 -0.5832  0.5577
  179MOL0     H24158   2.052  10.891   5.269  0.6040 -1.2332  2.0516
  179MOL0     H24159   2.193  10.713   5.143 -1.2678 -0.5614 -3.2989
  179MOL0     H24160   2.055  10.615   5.168  1.1687  0.8458 -3.2411
  179MOL0     H24161   2.061  10.652   5.421 -0.4924 -0.5377 -2.2638
  179MOL0     H24162   2.159  10.789   5.409 -3.3911  0.9396 -1.0111
  179MOL0     H24163   2.441  10.483   5.452 -1.0533  1.0085  5.3728
  179MOL0     H24164   1.836  11.261   5.089 -0.8338  0.2307  0.6160
  179MOL0     H24165   1.617  11.345   5.093 -1.2777 -0.5325 -3.3601
  180MOL0     O24166   0.614   8.225   5.607 -0.1772  0.5929 -0.3021
  180MOL0     C24167   0.575   8.117   5.557 -0.1198 -0.3599  0.2812
  180MOL0     O24168   0.651   8.004   5.531 -0.2897  0.3092 -0.2311
  180MOL0     C24169   0.782   8.013   5.490  0.1886  0.1643 -1.7369
  180MOL0     C24170   0.854   8.130   5.467 -0.1140 -1.3714 -0.6337
  180MOL0     C24171   0.980   8.136   5.424  0.6098  0.2768 -0.3828
  180MOL0     C24172   1.048   8.019   5.402 -1.1952  0.0226  0.1712
  180MOL0     O24173   1.185   8.021   5.365  0.1750 -0.6743 -0.4581
  180MOL0     C24174   1.222   8.127   5.275 -1.1253  0.6932  0.0683
  180MOL0     C24175   1.349   8.094   5.207 -0.1688 -0.0962 -0.6523
  180MOL0     C24176   1.343   7.994   5.089  0.8247 -0.2642  1.2457
  180MOL0     C24177   1.319   7.848   5.136  0.3296 -1.2122 -0.0527
  180MOL0     C24178   1.449   7.795   5.203 -0.5866  1.0074 -0.2067
  180MOL0     C24179   1.436   7.643   5.217  0.3643 -0.9696 -0.6759
  180MOL0     C24180   1.585   7.594   5.223  0.2322 -0.6089 -0.2879
  180MOL0     C24181   1.580   7.442   5.245 -0.1184 -0.1191  0.9482
  180MOL0     N24182   1.565   7.396   5.383 -0.0886  0.4907 -0.1626
  180MOL0     C24183   1.658   7.413   5.490  0.5047 -0.5850 -0.7173
  180MOL0     C24184   1.589   7.345   5.588  1.0446 -0.1672 -0.1496
  180MOL0     C24185   1.638   7.332   5.727  0.1689 -0.3712  0.0707
  180MOL0     C24186   1.745   7.232   5.739 -0.1005 -0.3583  0.9622
  180MOL0     C24187   1.698   7.087   5.742  0.0533  0.3833 -0.0820
  180MOL0     C24188   1.806   6.998   5.807  0.4199  0.9544 -0.3571
  180MOL0     O24189   1.887   6.929   5.704  0.2362  0.0340 -0.5923
  180MOL0     C24190   1.993   6.852   5.746  0.6971 -0.0538 -0.1774
  180MOL0     C24191   2.104   6.901   5.813  0.3105 -0.8469  0.0127
  180MOL0     C24192   2.211   6.821   5.858 -0.1215 -0.2075  0.0259
  180MOL0     C24193   2.301   6.893   5.951 -1.3415 -0.4637 -0.8694
  180MOL0     C24194   2.208   6.681   5.837  0.2936 -0.9985  0.4383
  180MOL0     C24195   2.311   6.590   5.880 -0.4893  0.0609  0.1268
  180MOL0     O24196   2.438   6.629   5.860  0.0175 -0.0185  0.6192
  180MOL0     C24197   2.527   6.547   5.923  0.1121  0.5759 -0.7371
  180MOL0     C24198   2.599   6.449   5.855  0.2130  0.0964 -0.0196
  180MOL0     C24199   2.694   6.374   5.922  0.9296  0.6014 -1.0229
  180MOL0     C24200   2.712   6.383   6.060 -0.7737 -0.4377 -0.1897
  180MOL0     O24201   2.807   6.309   6.135  0.9400  0.5363 -0.2760
  180MOL0     C24202   2.917   6.252   6.062  0.7883 -0.0458 -0.2783
  180MOL0     C24203   3.006   6.195   6.171 -0.8835 -0.3366 -0.2786
  180MOL0     C24204   3.125   6.121   6.100  0.9188 -0.2692  0.4754
  180MOL0     C24205   3.221   6.079   6.209 -1.5551  0.0417 -0.3765
  180MOL0     C24206   3.342   5.998   6.159  0.3137  0.7430  0.4295
  180MOL0     C24207   3.426   5.930   6.273 -0.6900  0.6017  0.4504
  180MOL0     C24208   3.522   5.825   6.209  0.7995  1.0331 -0.1942
  180MOL0     C24209   3.621   5.755   6.291 -0.0327  1.3247  0.0219
  180MOL0    Cl24210   3.682   5.619   6.196 -0.0756 -0.3640 -0.1051
  180MOL0     C24211   2.646   6.481   6.132  0.8706 -0.1308 -0.1937
  180MOL0     C24212   2.554   6.559   6.063 -0.0846  0.6269 -1.1249
  180MOL0     O24213   2.271   6.484   5.926  0.5613  0.6966 -0.5032
  180MOL0     C24214   2.096   6.638   5.754 -0.8333 -0.6870  0.3368
  180MOL0     C24215   2.004   6.728   5.697  0.2678  0.6726 -0.6364
  180MOL0     N24216   1.476   7.288   5.545 -0.2994  0.2740 -0.5830
  180MOL0     N24217   1.460   7.323   5.426  0.4241  0.4098 -0.0036
  180MOL0     C24218   0.992   7.900   5.428  0.4276 -0.7940  0.9552
  180MOL0     C24219   0.857   7.896   5.465 -0.1428  0.1231  0.1120
  180MOL0     C24220   0.425   8.117   5.519 -0.4954 -1.9571 -0.0580
  180MOL0     C24221   0.331   8.222   5.545 -0.6538 -0.3725  0.0380
  180MOL0     C24222   0.203   8.218   5.482 -0.0264 -0.1785  0.4481
  180MOL0     C24223   0.166   8.105   5.404 -0.8727  0.0615  0.0554
  180MOL0     O24224   0.044   8.099   5.355 -0.2095 -0.6753 -0.1350
  180MOL0     C24225  -0.074   8.140   5.424  0.1669 -0.7592 -0.4676
  180MOL0     C24226  -0.159   8.219   5.324  0.0410 -0.3051 -0.6685
  180MOL0     C24227  -0.295   8.285   5.369 -0.5075 -0.6180 -0.3253
  180MOL0     C24228  -0.338   8.376   5.262  0.3948  0.8065 -1.1826
  180MOL0     C24229  -0.476   8.417   5.278 -0.0478  0.1624  0.6349
  180MOL0     C24230  -0.580   8.461   5.308 -0.2340  0.4868 -0.6864
  180MOL0     C24231   0.261   8.002   5.382  0.3574 -0.1443 -0.1671
  180MOL0     C24232   0.391   8.012   5.434 -0.2013  0.8758  0.5531
  180MOL0     H24233   0.817   8.231   5.485  1.2786 -0.8323 -0.6573
  180MOL0     H24234   1.014   8.237   5.404  0.6895  0.0671 -1.3564
  180MOL0     H24235   1.149   8.126   5.194 -1.6547  2.7426  0.4835
  180MOL0     H24236   1.231   8.226   5.319 -2.4934  0.0395  1.9697
  180MOL0     H24237   1.382   8.192   5.170  0.2140 -0.6493 -1.8396
  180MOL0     H24238   1.411   8.053   5.287 -1.1848 -2.3791 -0.9694
  180MOL0     H24239   1.269   8.031   5.018  3.1316  0.9142 -0.6340
  180MOL0     H24240   1.435   8.006   5.031 -1.9697  1.0957 -3.4282
  180MOL0     H24241   1.239   7.835   5.209  2.6565 -2.4639  2.4038
  180MOL0     H24242   1.279   7.775   5.064 -1.8965 -0.0118 -0.1380
  180MOL0     H24243   1.538   7.824   5.146  0.7153 -2.9836 -0.4754
  180MOL0     H24244   1.453   7.842   5.301 -0.4269 -3.1517  1.9905
  180MOL0     H24245   1.387   7.615   5.311  1.5057  0.6603  0.4518
  180MOL0     H24246   1.388   7.592   5.133  1.1237  0.6141 -2.1413
  180MOL0     H24247   1.627   7.627   5.128 -1.3067  0.3201 -0.6949
  180MOL0     H24248   1.632   7.650   5.305 -0.4298 -1.5147  0.7491
  180MOL0     H24249   1.669   7.396   5.203 -1.7823 -1.8909 -0.8461
  180MOL0     H24250   1.500   7.398   5.184  2.9812 -2.0770 -2.0695
  180MOL0     H24251   1.755   7.462   5.486  0.2826  0.4606  2.9263
  180MOL0     H24252   1.668   7.432   5.760 -0.2299 -0.3120  0.2631
  180MOL0     H24253   1.559   7.298   5.794  1.4626  0.9576  2.4152
  180MOL0     H24254   1.801   7.257   5.829  0.2557  2.4122  0.0693
  180MOL0     H24255   1.817   7.245   5.657 -0.3171 -1.3003  0.6012
  180MOL0     H24256   1.696   7.044   5.642  3.9061  1.2120 -0.6919
  180MOL0     H24257   1.610   7.073   5.806  0.1896  2.3638  0.5939
  180MOL0     H24258   1.760   6.913   5.857  1.1031 -0.1497 -1.5422
  180MOL0     H24259   1.877   7.046   5.875 -0.8438  1.0220  0.9565
  180MOL0     H24260   2.115   7.005   5.843  2.8589 -1.4828  1.5252
  180MOL0     H24261   2.343   6.837   6.035  2.6332 -0.5080 -2.6203
  180MOL0     H24262   2.380   6.925   5.881 -1.4868 -1.4552 -1.5120
  180MOL0     H24263   2.255   6.984   5.991  0.2599 -0.3945  0.9553
  180MOL0     H24264   2.596   6.431   5.748  1.1136  2.6261 -0.5456
  180MOL0     H24265   2.750   6.295   5.872  0.2577  0.2612 -1.2557
  180MOL0     H24266   2.887   6.171   5.995  1.5059 -1.6375  1.2824
  180MOL0     H24267   2.980   6.324   6.009  0.3199  0.0193 -0.7608
  180MOL0     H24268   3.060   6.276   6.222 -2.0906  0.6802 -0.5661
  180MOL0     H24269   2.946   6.137   6.242  0.0048  0.4239  1.1354
  180MOL0     H24270   3.173   6.192   6.033  1.4244 -3.5320 -2.9945
  180MOL0     H24271   3.091   6.029   6.051  1.5256 -1.1960  1.7343
  180MOL0     H24272   3.271   6.159   6.265  0.7753 -2.6960  1.7484
  180MOL0     H24273   3.173   6.024   6.290  1.8536 -1.2712  0.9299
  180MOL0     H24274   3.402   6.056   6.089 -1.6891  0.1579 -1.9113
  180MOL0     H24275   3.306   5.914   6.100 -1.0902  1.2395  0.5345
  180MOL0     H24276   3.489   6.011   6.312  1.9359 -0.3674 -1.4888
  180MOL0     H24277   3.360   5.884   6.347  0.9053 -0.9912  0.9573
  180MOL0     H24278   3.564   5.880   6.124  2.6962 -0.7379 -0.4764
  180MOL0     H24279   3.457   5.744   6.174  1.1241  1.1422 -1.0754
  180MOL0     H24280   3.563   5.718   6.376  0.5063  1.3298  0.3926
  180MOL0     H24281   3.706   5.814   6.326  0.9617  0.1002 -0.2718
  180MOL0     H24282   2.652   6.485   6.240  2.3098 -2.7746 -0.0942
  180MOL0     H24283   2.494   6.636   6.112 -1.0314 -0.1370 -1.0628
  180MOL0     H24284   2.089   6.532   5.735 -1.6985 -0.2778 -1.9526
  180MOL0     H24285   1.934   6.685   5.626 -1.3105  0.5774  0.8964
  180MOL0     H24286   1.050   7.810   5.409  1.6775  0.0414  0.6928
  180MOL0     H24287   0.814   7.799   5.489  1.7034 -1.8369 -3.7049
  180MOL0     H24288   0.360   8.308   5.604  2.0437 -0.3244 -1.1963
  180MOL0     H24289   0.130   8.295   5.506 -0.2119 -1.4953  4.8210
  180MOL0     H24290  -0.123   8.054   5.469  1.1009 -3.1214 -3.5744
  180MOL0     H24291  -0.045   8.212   5.501  3.9295  1.9573 -3.9532
  180MOL0     H24292  -0.180   8.149   5.242 -2.3280 -0.3392 -0.0925
  180MOL0     H24293  -0.104   8.297   5.270 -1.1069  1.8665  1.1647
  180MOL0     H24294  -0.278   8.345   5.459 -2.3169 -1.9627  1.0187
  180MOL0     H24295  -0.375   8.210   5.380  0.5210 -2.1259 -2.4049
  180MOL0     H24296  -0.338   8.318   5.169 -1.0384  0.2414 -0.8504
  180MOL0     H24297  -0.277   8.467   5.256  1.3926  0.7477  3.9178
  180MOL0     H24298  -0.674   8.511   5.317 -1.9887 -2.8522  1.0291
  180MOL0     H24299   0.220   7.919   5.327 -0.8384 -1.2029  2.1889
  180MOL0     H24300   0.461   7.934   5.406 -1.6053  0.7297 -3.2126
  181MOL0     O24301   1.256   2.359   6.465 -0.3404  0.0158  0.0138
  181MOL0     C24302   1.149   2.314   6.521 -0.4267 -0.5620 -0.0188
  181MOL0     O24303   1.133   2.290   6.658 -0.1972 -0.4227  0.5804
  181MOL0     C24304   1.201   2.363   6.757 -0.0946  0.7334  0.1064
  181MOL0     C24305   1.234   2.295   6.871  0.3294  0.1682 -0.3675
  181MOL0     C24306   1.295   2.362   6.974 -0.3833 -1.2678 -0.7259
  181MOL0     C24307   1.334   2.501   6.967  0.0789 -0.1454  0.1828
  181MOL0     O24308   1.395   2.558   7.075  0.3411 -0.7345 -0.0399
  181MOL0     C24309   1.308   2.668   7.131  0.9572 -0.5459  0.4275
  181MOL0     C24310   1.358   2.708   7.266  0.3633 -0.1818  0.9452
  181MOL0     C24311   1.494   2.780   7.260 -0.2178 -0.7248 -0.1751
  181MOL0     C24312   1.526   2.826   7.406  0.0579 -0.0205 -0.1209
  181MOL0     C24313   1.432   2.938   7.447 -0.7857  0.5109 -0.2996
  181MOL0     C24314   1.488   3.010   7.568  0.5145 -0.8686  0.0562
  181MOL0     C24315   1.374   3.089   7.638  0.5189  0.1159 -0.1842
  181MOL0     C24316   1.416   3.180   7.751 -0.2988  0.5482 -1.0516
  181MOL0     N24317   1.331   3.290   7.784 -0.3236  0.2317 -0.3463
  181MOL0     C24318   1.279   3.387   7.701  0.3650  0.5376  0.1564
  181MOL0     C24319   1.188   3.460   7.782 -0.8478  0.3167 -0.2915
  181MOL0     C24320   1.121   3.588   7.741 -0.2681 -0.9005 -0.3027
  181MOL0     C24321   1.002   3.544   7.653 -0.4405 -0.3190  0.3006
  181MOL0     C24322   0.919   3.662   7.615 -0.1578 -0.6254  1.0757
  181MOL0     C24323   0.815   3.635   7.501 -0.1743 -0.5272 -0.2830
  181MOL0     O24324   0.683   3.604   7.548 -0.2061 -0.4739  0.6497
  181MOL0     C24325   0.600   3.706   7.598 -0.3396 -0.2295 -1.0351
  181MOL0     C24326   0.602   3.844   7.561  0.1130  0.9919  0.2741
  181MOL0     C24327   0.496   3.924   7.617 -0.4989 -0.7026  0.2636
  181MOL0     C24328   0.492   4.070   7.565 -0.0143 -0.0198 -0.6267
  181MOL0     C24329   0.405   3.875   7.714  0.1887 -0.7235 -0.4559
  181MOL0     C24330   0.293   3.955   7.761  0.9465  0.2084  0.0014
  181MOL0     O24331   0.189   3.887   7.805 -0.0234  0.8345 -0.1887
  181MOL0     C24332   0.072   3.946   7.840 -0.4097 -0.4035 -0.6243
  181MOL0     C24333   0.069   3.999   7.973 -0.0275  0.0372  0.2666
  181MOL0     C24334  -0.044   4.071   8.016  0.2402 -0.1914  0.2544
  181MOL0     C24335  -0.159   4.073   7.932  0.4857  1.1882  1.3663
  181MOL0     O24336  -0.268   4.129   7.994 -0.6277  0.1610 -0.2279
  181MOL0     C24337  -0.372   4.178   7.908 -0.0104  0.7221  0.7376
  181MOL0     C24338  -0.334   4.316   7.855 -0.3862  1.3451  0.2389
  181MOL0     C24339  -0.274   4.408   7.951  0.2362 -0.0773  0.4437
  181MOL0     C24340  -0.276   4.542   7.873  0.0765 -0.6442  0.0395
  181MOL0     C24341  -0.240   4.667   7.959  1.3957 -0.3016 -0.1248
  181MOL0     C24342  -0.232   4.801   7.883 -0.7381  0.9464  0.0452
  181MOL0     C24343  -0.148   4.783   7.753 -0.4559 -0.1512  0.9900
  181MOL0     C24344  -0.114   4.920   7.693  0.0987 -0.4117  0.2569
  181MOL0    Cl24345  -0.012   5.014   7.814 -0.6822  0.0824  0.1397
  181MOL0     C24346  -0.155   3.999   7.810  0.1564 -0.3553  0.0019
  181MOL0     C24347  -0.041   3.949   7.757 -0.1953  0.4788 -0.7930
  181MOL0     O24348   0.297   4.078   7.758 -0.1572 -0.5083 -0.4712
  181MOL0     C24349   0.422   3.742   7.750  0.3659  0.0064 -0.2698
  181MOL0     C24350   0.515   3.659   7.693 -0.2672 -0.1667 -0.1292
  181MOL0     N24351   1.176   3.396   7.906 -0.2132 -0.4321 -0.6854
  181MOL0     N24352   1.261   3.298   7.901  0.3722 -0.2252 -0.0552
  181MOL0     C24353   1.304   2.564   6.840  0.6687  0.6414 -0.0656
  181MOL0     C24354   1.241   2.494   6.742  0.3415  0.5595  0.3136
  181MOL0     C24355   1.042   2.268   6.433  0.3254  0.2656  0.0665
  181MOL0     C24356   0.936   2.179   6.465  0.2184 -0.3784 -0.5145
  181MOL0     C24357   0.822   2.157   6.390  0.7355  0.6148 -0.5696
  181MOL0     C24358   0.817   2.217   6.270 -0.3375  0.6659  0.2334
  181MOL0     O24359   0.710   2.177   6.198  0.4991  0.2873  0.8130
  181MOL0     C24360   0.693   2.221   6.067  0.5548  0.4761 -0.6432
  181MOL0     C24361   0.569   2.164   6.005 -0.0942 -1.1326  0.3054
  181MOL0     C24362   0.549   2.197   5.850 -0.0055 -0.7917 -0.2785
  181MOL0     C24363   0.503   2.343   5.836 -0.0259 -0.8936 -0.1322
  181MOL0     C24364   0.370   2.351   5.873  1.1237 -0.9504  0.2750
  181MOL0     C24365   0.254   2.359   5.910  1.1191  0.4094  0.2499
  181MOL0     C24366   0.915   2.310   6.230  0.3979  0.2223 -0.1269
  181MOL0     C24367   1.022   2.338   6.316 -0.4841  1.2978  0.3838
  181MOL0     H24368   1.193   2.198   6.899  0.9583 -0.0548 -0.1988
  181MOL0     H24369   1.325   2.302   7.059 -0.7602 -0.0860  0.2705
  181MOL0     H24370   1.295   2.757   7.069 -0.8726 -0.3306  1.0797
  181MOL0     H24371   1.208   2.631   7.152  0.3692  1.1770  0.8589
  181MOL0     H24372   1.280   2.769   7.313  0.9463 -0.0036  1.6798
  181MOL0     H24373   1.358   2.617   7.326 -2.4097 -1.6585 -1.0599
  181MOL0     H24374   1.579   2.718   7.230  1.2046 -1.0074  3.8613
  181MOL0     H24375   1.475   2.869   7.198  1.5991  1.5871  2.3467
  181MOL0     H24376   1.517   2.742   7.476 -1.5033  0.0094 -0.2512
  181MOL0     H24377   1.630   2.860   7.406 -0.6061  2.2201 -1.1142
  181MOL0     H24378   1.400   3.003   7.365  1.6686  3.8342  1.1288
  181MOL0     H24379   1.341   2.891   7.484  0.8440 -0.9791  2.1191
  181MOL0     H24380   1.536   2.940   7.635  1.7787 -1.4576 -1.4047
  181MOL0     H24381   1.564   3.077   7.527 -0.8025  0.2259 -0.7176
  181MOL0     H24382   1.319   3.143   7.561 -0.3190 -1.7023 -0.9278
  181MOL0     H24383   1.299   3.020   7.677 -0.5508  1.8020  0.8957
  181MOL0     H24384   1.512   3.227   7.727 -0.6823  2.9861  1.5306
  181MOL0     H24385   1.441   3.117   7.836  0.4945  0.4638 -1.3374
  181MOL0     H24386   1.299   3.405   7.596  0.8642  0.3360  0.2150
  181MOL0     H24387   1.073   3.647   7.820  4.2782  2.2913  0.5033
  181MOL0     H24388   1.197   3.648   7.690 -0.0424  0.9243  2.0335
  181MOL0     H24389   0.950   3.454   7.686 -2.5045 -0.5904 -3.1995
  181MOL0     H24390   1.052   3.507   7.562  4.6012  1.4498  1.9674
  181MOL0     H24391   0.975   3.747   7.576 -5.3218  1.9108 -1.8543
  181MOL0     H24392   0.867   3.701   7.704 -0.8035  1.4113 -0.1153
  181MOL0     H24393   0.845   3.551   7.438  0.0247  0.0807 -1.0122
  181MOL0     H24394   0.807   3.730   7.448  6.4521  2.5109  3.0423
  181MOL0     H24395   0.668   3.889   7.488  1.3170  0.1749  0.8365
  181MOL0     H24396   0.389   4.089   7.532  0.4336  0.5969 -1.7010
  181MOL0     H24397   0.518   4.126   7.655  4.9471 -0.8683 -1.2358
  181MOL0     H24398   0.566   4.090   7.487  2.8481 -0.7081  1.7255
  181MOL0     H24399   0.158   3.990   8.035 -0.9220  1.7737  1.8872
  181MOL0     H24400  -0.063   4.117   8.113 -0.7955  3.3993 -1.4886
  181MOL0     H24401  -0.389   4.102   7.831  2.2888 -0.1723  1.0261
  181MOL0     H24402  -0.463   4.186   7.967  0.7642  0.0546  2.0498
  181MOL0     H24403  -0.258   4.292   7.779 -0.4259  1.2787  0.2195
  181MOL0     H24404  -0.421   4.357   7.804 -0.8179  1.0425  0.7226
  181MOL0     H24405  -0.171   4.375   7.968 -1.3787 -4.1726  4.2167
  181MOL0     H24406  -0.318   4.417   8.051  2.0751  1.7149  1.1421
  181MOL0     H24407  -0.220   4.538   7.779 -1.2435  0.6654 -0.8566
  181MOL0     H24408  -0.380   4.558   7.844  0.4122 -0.8118 -1.3252
  181MOL0     H24409  -0.143   4.647   8.006  0.6961 -0.7354  1.1934
  181MOL0     H24410  -0.304   4.683   8.047  1.3588 -0.8356 -0.0449
  181MOL0     H24411  -0.336   4.829   7.869 -0.8944 -0.0635 -0.9000
  181MOL0     H24412  -0.188   4.876   7.950 -0.7425  0.1497  0.9510
  181MOL0     H24413  -0.211   4.727   7.683  1.3860  0.6935 -1.4636
  181MOL0     H24414  -0.054   4.728   7.761  1.4927  2.9053  0.7214
  181MOL0     H24415  -0.192   4.994   7.674  1.5094  1.1377  0.2368
  181MOL0     H24416  -0.055   4.904   7.602 -2.9490  1.2491 -2.2128
  181MOL0     H24417  -0.245   3.989   7.751  0.1237  3.4081 -0.8507
  181MOL0     H24418  -0.039   3.878   7.675 -0.5806 -4.9015  3.2162
  181MOL0     H24419   0.357   3.701   7.827 -1.6541 -1.7004 -2.7270
  181MOL0     H24420   0.523   3.556   7.726 -1.8073 -0.5287 -0.7830
  181MOL0     H24421   1.331   2.666   6.815 -0.1541  0.7014 -0.7542
  181MOL0     H24422   1.231   2.535   6.642 -0.6595 -2.6431 -1.0485
  181MOL0     H24423   0.938   2.121   6.557  0.4881 -0.3848 -0.5246
  181MOL0     H24424   0.738   2.098   6.426  1.7438 -1.7868 -1.8898
  181MOL0     H24425   0.681   2.330   6.072  0.3398  0.4357 -0.2698
  181MOL0     H24426   0.772   2.169   6.013  2.0905  0.7903  1.1879
  181MOL0     H24427   0.484   2.199   6.064  1.7170  2.2542  1.2037
  181MOL0     H24428   0.582   2.056   6.013  1.8889 -0.8669  1.4708
  181MOL0     H24429   0.472   2.133   5.806  0.7683 -1.3408 -0.8579
  181MOL0     H24430   0.640   2.171   5.796 -1.6268 -0.3854 -3.4575
  181MOL0     H24431   0.524   2.374   5.734 -0.3812 -0.7281 -0.1522
  181MOL0     H24432   0.557   2.412   5.902 -2.5292  0.4697  0.5970
  181MOL0     H24433   0.156   2.369   5.951  0.0068  0.1891 -2.1851
  181MOL0     H24434   0.900   2.372   6.143  0.1155  2.1047  1.1953
  181MOL0     H24435   1.094   2.409   6.275  0.0478  1.4255  1.5108
  182MOL0     O24436   6.689   5.354   2.234  0.1616  0.2296  0.3669
  182MOL0     C24437   6.680   5.379   2.350 -0.1937 -0.4395  0.1518
  182MOL0     O24438   6.587   5.450   2.411 -0.6301 -0.1132  0.8796
  182MOL0     C24439   6.480   5.519   2.343  0.2312  1.4246  0.4467
  182MOL0     C24440   6.357   5.513   2.405 -0.3835  0.1774 -0.4519
  182MOL0     C24441   6.244   5.560   2.333 -0.6124 -0.2052 -0.0768
  182MOL0     C24442   6.256   5.648   2.226 -0.0205  0.9006  0.1450
  182MOL0     O24443   6.156   5.710   2.153  0.6620 -0.5891  0.5042
  182MOL0     C24444   6.016   5.714   2.180  0.7571  0.3670 -0.0997
  182MOL0     C24445   5.952   5.818   2.088 -0.9838 -0.5728 -0.3463
  182MOL0     C24446   5.916   5.757   1.951  0.1974  0.1035 -0.6357
  182MOL0     C24447   6.036   5.728   1.864 -0.6240  0.6738 -0.1658
  182MOL0     C24448   5.991   5.690   1.721 -0.5162  0.2185 -0.2676
  182MOL0     C24449   6.114   5.661   1.627  0.7662  0.6302  0.0078
  182MOL0     C24450   6.079   5.613   1.481 -0.2940  0.5601 -0.1511
  182MOL0     C24451   6.049   5.457   1.476  0.6186  0.0934 -0.0109
  182MOL0     N24452   6.007   5.422   1.342  0.3496 -0.1393  0.0055
  182MOL0     C24453   5.884   5.416   1.284  0.6497 -0.8146  0.1276
  182MOL0     C24454   5.910   5.423   1.152  0.3154  0.2379  0.1129
  182MOL0     C24455   5.801   5.461   1.050  0.1341  0.0210 -0.1315
  182MOL0     C24456   5.774   5.339   0.961 -0.3242 -0.4152  0.0813
  182MOL0     C24457   5.694   5.227   1.019 -0.2233 -0.8647  0.1156
  182MOL0     C24458   5.679   5.108   0.929 -0.5077 -0.2954  0.4185
  182MOL0     O24459   5.586   5.020   0.990 -0.1434 -0.2965  0.1130
  182MOL0     C24460   5.464   4.993   0.925  0.0150 -0.8273 -0.0525
  182MOL0     C24461   5.399   5.076   0.831  0.0171  0.6601 -0.4742
  182MOL0     C24462   5.269   5.035   0.783 -0.1251 -0.9037  0.4896
  182MOL0     C24463   5.197   5.131   0.686 -0.1945 -0.3821  0.5200
  182MOL0     C24464   5.220   4.908   0.811  0.0653  1.0207 -0.2053
  182MOL0     C24465   5.080   4.863   0.775 -0.0753  0.5489 -0.3093
  182MOL0     O24466   5.038   4.891   0.661  0.6645 -0.3124 -0.2102
  182MOL0     C24467   4.936   4.810   0.599  0.0726 -0.4237 -0.0649
  182MOL0     C24468   4.930   4.668   0.609 -0.1060  0.1035  0.1562
  182MOL0     C24469   4.823   4.599   0.550 -0.1734  0.5894 -0.2253
  182MOL0     C24470   4.729   4.671   0.479  0.9788 -0.2133  0.2447
  182MOL0     O24471   4.624   4.598   0.427 -0.9336 -0.2950  0.1257
  182MOL0     C24472   4.551   4.660   0.315  0.0234  0.4698  0.0139
  182MOL0     C24473   4.455   4.566   0.249 -0.4770  0.7145 -0.6240
  182MOL0     C24474   4.536   4.436   0.210  0.2474 -0.2163 -0.1060
  182MOL0     C24475   4.451   4.338   0.124  0.6664  0.8527 -0.7006
  182MOL0     C24476   4.458   4.387  -0.018 -0.8241 -0.8741  0.7212
  182MOL0     C24477   4.321   4.394  -0.085  0.6816  0.2311  0.3399
  182MOL0     C24478   4.335   4.444  -0.224  0.0602 -0.0489  0.2279
  182MOL0     C24479   4.190   4.472  -0.274 -0.2058  0.9861 -0.9024
  182MOL0    Cl24480   4.095   4.328  -0.319 -0.2535  0.1233  0.3232
  182MOL0     C24481   4.730   4.812   0.477 -0.0790  0.0332  1.0557
  182MOL0     C24482   4.834   4.877   0.530 -0.4548  0.5288 -0.1405
  182MOL0     O24483   5.028   4.786   0.861  0.1180 -0.2558  0.3782
  182MOL0     C24484   5.299   4.824   0.896  0.3781  0.3567  0.4700
  182MOL0     C24485   5.418   4.875   0.950 -0.4757  0.3645  0.6781
  182MOL0     N24486   6.040   5.407   1.119  0.7094  0.3256  0.0737
  182MOL0     N24487   6.099   5.424   1.235 -0.5307 -0.0874 -0.4441
  182MOL0     C24488   6.392   5.671   2.190  0.3880 -0.1196  0.1767
  182MOL0     C24489   6.500   5.611   2.241  0.4853  0.7464 -0.8870
  182MOL0     C24490   6.805   5.343   2.424  0.8871  0.3104 -0.5488
  182MOL0     C24491   6.916   5.281   2.355  0.2170 -0.7712 -0.3797
  182MOL0     C24492   7.026   5.238   2.425 -0.5967 -0.7523  0.6734
  182MOL0     C24493   7.031   5.248   2.565  1.0126  0.7500  0.1831
  182MOL0     O24494   7.140   5.202   2.643  0.2888 -0.0479  0.0994
  182MOL0     C24495   7.226   5.294   2.714 -0.2393 -1.1038  0.7196
  182MOL0     C24496   7.374   5.255   2.701  0.4927  0.1026  0.2998
  182MOL0     C24497   7.465   5.377   2.692  1.1849 -0.2640  0.6180
  182MOL0     C24498   7.459   5.460   2.817  0.3868  0.2222 -0.9592
  182MOL0     C24499   7.565   5.556   2.841 -0.3231  1.2352 -1.3741
  182MOL0     C24500   7.652   5.638   2.857  0.1465  0.5750 -0.2202
  182MOL0     C24501   6.920   5.291   2.635 -0.2217 -0.1059  0.3061
  182MOL0     C24502   6.804   5.347   2.568  0.4174  0.2318  0.0132
  182MOL0     H24503   6.356   5.453   2.496 -0.8652  4.4329  2.6760
  182MOL0     H24504   6.147   5.551   2.381 -0.0993  0.9934  1.2610
  182MOL0     H24505   5.972   5.614   2.165  0.9695  0.2428  0.1083
  182MOL0     H24506   6.006   5.742   2.285 -1.2899  1.8894 -0.6407
  182MOL0     H24507   5.855   5.850   2.129 -1.1221  1.9334 -2.3935
  182MOL0     H24508   6.009   5.911   2.090 -3.1679  0.8957  3.0997
  182MOL0     H24509   5.857   5.669   1.978 -0.1051  1.0223  2.0669
  182MOL0     H24510   5.850   5.829   1.901 -0.3093  0.8827  1.0726
  182MOL0     H24511   6.102   5.815   1.861  0.7333 -0.3549 -1.4162
  182MOL0     H24512   6.097   5.646   1.903 -1.2528 -1.1843 -2.7963
  182MOL0     H24513   5.932   5.598   1.717  1.0296 -1.0163  2.7245
  182MOL0     H24514   5.919   5.759   1.676  1.1553  1.1369 -1.6475
  182MOL0     H24515   6.168   5.756   1.619  0.7163  0.7388  0.9039
  182MOL0     H24516   6.186   5.593   1.674 -2.7377 -2.8808  0.8717
  182MOL0     H24517   5.988   5.666   1.451 -1.9836 -1.7748  0.5177
  182MOL0     H24518   6.156   5.638   1.407 -0.9758  4.1795  0.1699
  182MOL0     H24519   5.966   5.428   1.541 -0.0460 -1.4544 -1.4934
  182MOL0     H24520   6.133   5.399   1.516  2.0239  0.8691 -1.6879
  182MOL0     H24521   5.788   5.436   1.330  0.3507 -0.3875 -0.6731
  182MOL0     H24522   5.713   5.506   1.096  0.3659 -2.2384  2.8587
  182MOL0     H24523   5.851   5.538   0.990  4.0374 -1.4225  0.9424
  182MOL0     H24524   5.867   5.299   0.921  0.5155 -0.5202  2.0203
  182MOL0     H24525   5.719   5.376   0.874  2.3723  0.9332 -1.1689
  182MOL0     H24526   5.589   5.252   1.037 -0.3585 -0.5412 -1.0448
  182MOL0     H24527   5.749   5.200   1.109  2.7738 -0.0280 -1.3210
  182MOL0     H24528   5.770   5.049   0.912 -1.1411 -0.3177 -3.7999
  182MOL0     H24529   5.643   5.132   0.829 -2.6547 -1.9103  0.7520
  182MOL0     H24530   5.439   5.173   0.801  2.2537 -0.3421 -0.9240
  182MOL0     H24531   5.229   5.113   0.583  2.2637  0.5418  1.0548
  182MOL0     H24532   5.089   5.110   0.690 -0.2539 -0.1247  0.2859
  182MOL0     H24533   5.230   5.234   0.695 -0.4404 -0.4956  4.2415
  182MOL0     H24534   5.006   4.627   0.675 -0.6447  0.5480  1.0774
  182MOL0     H24535   4.802   4.493   0.558  0.7976  0.3155 -1.1617
  182MOL0     H24536   4.491   4.746   0.346 -0.0846  2.1186 -4.0759
  182MOL0     H24537   4.624   4.695   0.241  0.3819  1.9274  1.0108
  182MOL0     H24538   4.373   4.552   0.321 -0.8379 -1.2280 -1.3584
  182MOL0     H24539   4.412   4.603   0.156 -0.7873  0.8256 -0.4401
  182MOL0     H24540   4.552   4.382   0.304  1.0053 -3.4744 -1.9745
  182MOL0     H24541   4.630   4.458   0.159  2.1670 -5.6579  0.3766
  182MOL0     H24542   4.487   4.234   0.132  1.4687  1.2504  2.9882
  182MOL0     H24543   4.349   4.333   0.162 -0.0173 -0.2270 -2.5452
  182MOL0     H24544   4.517   4.321  -0.082 -1.0061  2.0892 -2.8809
  182MOL0     H24545   4.521   4.477  -0.024  0.8843 -2.1112 -1.8454
  182MOL0     H24546   4.268   4.299  -0.094 -0.2272  0.7108  0.4072
  182MOL0     H24547   4.247   4.456  -0.033  3.6817  1.0646  4.0117
  182MOL0     H24548   4.385   4.372  -0.289 -2.7635 -0.8624 -1.2003
  182MOL0     H24549   4.383   4.542  -0.230 -3.2927  1.7710  0.9187
  182MOL0     H24550   4.196   4.531  -0.366  0.6740  0.9428 -0.8821
  182MOL0     H24551   4.130   4.532  -0.205 -0.5764 -0.7789  0.3937
  182MOL0     H24552   4.654   4.874   0.431  1.5893  2.1846  1.0619
  182MOL0     H24553   4.830   4.985   0.536 -1.0687  0.4802  0.5153
  182MOL0     H24554   5.264   4.726   0.926  0.8178  0.8294  2.6732
  182MOL0     H24555   5.483   4.813   1.011 -1.0406  0.5872  1.5157
  182MOL0     H24556   6.403   5.755   2.123 -3.6158  1.3505  1.0816
  182MOL0     H24557   6.602   5.625   2.207  1.0156 -0.5114  0.1054
  182MOL0     H24558   6.909   5.263   2.248 -0.6754 -0.5762 -0.3635
  182MOL0     H24559   7.118   5.214   2.372  1.2942  2.7779  1.9699
  182MOL0     H24560   7.208   5.392   2.669  1.6072 -0.1625  1.8938
  182MOL0     H24561   7.190   5.307   2.817  1.1626  2.4920  0.9143
  182MOL0     H24562   7.377   5.194   2.610 -2.7037  1.8222 -1.0983
  182MOL0     H24563   7.400   5.182   2.779 -1.4999 -2.3475 -1.1764
  182MOL0     H24564   7.428   5.435   2.607 -1.1089 -3.1898 -0.5800
  182MOL0     H24565   7.567   5.345   2.669  1.0600 -0.0634 -0.2437
  182MOL0     H24566   7.450   5.390   2.900  0.9784  0.1915 -0.9160
  182MOL0     H24567   7.361   5.508   2.809 -0.6669 -0.7306  3.4764
  182MOL0     H24568   7.738   5.698   2.877 -0.2564  1.7441 -1.7958
  182MOL0     H24569   6.929   5.276   2.742  0.2618  0.3118  0.3258
  182MOL0     H24570   6.718   5.373   2.628  2.1183  1.0123  2.2708
  183MOL0     O24571   1.420  11.423   8.745  0.6077 -0.1596  0.5268
  183MOL0     C24572   1.351  11.405   8.844 -1.3943 -0.5793 -0.1282
  183MOL0     O24573   1.214  11.404   8.851 -0.4201  0.3955  0.2703
  183MOL0     C24574   1.138  11.443   8.743 -0.0305  0.8191 -0.2367
  183MOL0     C24575   1.013  11.374   8.741  0.6141  0.4805 -0.0931
  183MOL0     C24576   0.927  11.408   8.639  0.9991 -0.3330 -0.4621
  183MOL0     C24577   0.941  11.517   8.554  0.0296 -0.6258  0.0427
  183MOL0     O24578   0.839  11.562   8.475 -0.1137  0.4327  0.6566
  183MOL0     C24579   0.877  11.585   8.341 -0.2511  0.0976  0.2251
  183MOL0     C24580   0.876  11.736   8.307 -0.0136  0.2773  0.0103
  183MOL0     C24581   0.853  11.764   8.158 -0.1916 -1.3891 -0.1796
  183MOL0     C24582   0.861  11.922   8.145 -0.4899 -0.1004  0.6079
  183MOL0     C24583   0.924  11.952   8.008  0.0202 -0.3715 -0.5004
  183MOL0     C24584   0.843  11.901   7.887 -0.2974 -0.1492 -0.8485
  183MOL0     C24585   0.924  11.932   7.765  0.7129  0.5259  0.5008
  183MOL0     C24586   0.924  12.084   7.736 -0.0536  0.8400 -0.3864
  183MOL0     N24587   0.989  12.120   7.612 -0.2579 -0.4099  0.3427
  183MOL0     C24588   1.118  12.134   7.569  0.4699  0.3315 -0.9385
  183MOL0     C24589   1.111  12.146   7.436  1.2239  0.4037 -0.5135
  183MOL0     C24590   1.221  12.136   7.339 -0.9256 -1.5713  0.7904
  183MOL0     C24591   1.216  12.236   7.222  0.9399 -0.8061  0.3368
  183MOL0     C24592   1.298  12.216   7.090 -0.3781  0.6914 -0.4716
  183MOL0     C24593   1.231  12.100   7.018  0.0389  0.1049  0.1345
  183MOL0     O24594   1.293  11.979   7.045 -0.5291 -0.8244 -0.9801
  183MOL0     C24595   1.236  11.865   6.995 -0.9063 -0.0193  0.6352
  183MOL0     C24596   1.158  11.862   6.879  0.7582 -0.5729  0.8759
  183MOL0     C24597   1.110  11.745   6.822 -0.9817 -0.7230  0.4040
  183MOL0     C24598   1.025  11.763   6.701 -0.0440  0.2675  0.1065
  183MOL0     C24599   1.149  11.617   6.877  0.2798 -0.3742 -0.8025
  183MOL0     C24600   1.105  11.482   6.824 -0.6136 -0.4105 -0.4615
  183MOL0     O24601   1.137  11.357   6.894 -0.6810 -0.1721  0.1572
  183MOL0     C24602   1.077  11.236   6.835 -1.4629 -0.0518 -0.2460
  183MOL0     C24603   1.111  11.207   6.703  0.3548  0.0211  0.6098
  183MOL0     C24604   1.065  11.095   6.637  0.9253  1.1127 -0.2156
  183MOL0     C24605   0.979  11.006   6.706 -0.1607  0.1643 -0.1374
  183MOL0     O24606   0.921  10.894   6.661  0.4015  0.0350  0.1803
  183MOL0     C24607   0.990  10.820   6.567 -0.1405 -0.0596  0.4373
  183MOL0     C24608   0.915  10.697   6.505  0.2352  0.1015 -0.3916
  183MOL0     C24609   0.778  10.759   6.451  0.7252  0.1691 -0.2689
  183MOL0     C24610   0.702  10.661   6.374  1.0577  0.0950 -0.3843
  183MOL0     C24611   0.575  10.713   6.303 -0.2395  0.1578  0.9070
  183MOL0     C24612   0.491  10.615   6.219 -0.6195  0.0860  1.5282
  183MOL0     C24613   0.570  10.565   6.090  0.2363 -0.3727 -0.3874
  183MOL0     C24614   0.496  10.457   6.001 -0.3056 -1.0841 -0.5876
  183MOL0    Cl24615   0.341  10.513   5.922  0.3487 -0.0981  0.7455
  183MOL0     C24616   0.956  11.031   6.840 -0.3942 -0.8750 -0.6832
  183MOL0     C24617   1.006  11.141   6.904  0.2506  0.0303  0.2301
  183MOL0     O24618   1.028  11.490   6.728 -0.0883 -0.5723 -0.2850
  183MOL0     C24619   1.230  11.626   7.000 -0.1388 -0.0340  0.5396
  183MOL0     C24620   1.272  11.746   7.054  0.2630 -0.3378 -0.2041
  183MOL0     N24621   0.984  12.144   7.399  0.3295  0.3065  0.1945
  183MOL0     N24622   0.908  12.123   7.501  1.1925 -0.0707  0.6672
  183MOL0     C24623   1.060  11.579   8.567 -0.3686 -0.2200  0.5161
  183MOL0     C24624   1.167  11.545   8.652 -0.4576 -0.8545  0.6464
  183MOL0     C24625   1.417  11.398   8.980  0.1962  0.7545  0.0573
  183MOL0     C24626   1.342  11.398   9.097  0.8561 -0.3358 -0.1203
  183MOL0     C24627   1.400  11.398   9.224 -0.8265  0.8847  0.0641
  183MOL0     C24628   1.543  11.388   9.244 -0.0677 -0.5606  0.7406
  183MOL0     O24629   1.582  11.392   9.372  0.0021 -0.3426  0.0888
  183MOL0     C24630   1.711  11.343   9.397 -0.1260 -0.2068 -0.5567
  183MOL0     C24631   1.811  11.467   9.374 -0.1272  0.4015 -0.8701
  183MOL0     C24632   1.946  11.408   9.362 -0.5083 -0.9255  0.2902
  183MOL0     C24633   2.066  11.509   9.384 -0.1375  0.4229 -0.7570
  183MOL0     C24634   2.103  11.582   9.262  0.4221 -0.4321  0.0363
  183MOL0     C24635   2.128  11.645   9.162  0.2628  0.1004 -0.3929
  183MOL0     C24636   1.615  11.358   9.128 -0.0831  1.1617  0.3410
  183MOL0     C24637   1.556  11.373   8.997 -0.5843  0.3223  0.1265
  183MOL0     H24638   0.968  11.298   8.804  2.9294 -2.4117 -1.6778
  183MOL0     H24639   0.827  11.367   8.625  0.2748  0.8455  0.9189
  183MOL0     H24640   0.974  11.542   8.313  0.5046  1.6818  0.3014
  183MOL0     H24641   0.796  11.540   8.284  0.2487  0.2779 -0.6466
  183MOL0     H24642   0.796  11.782   8.365  0.8011 -0.3002  1.6658
  183MOL0     H24643   0.976  11.769   8.338 -0.8758  2.0965  0.9622
  183MOL0     H24644   0.931  11.709   8.105  0.5532 -0.4481 -0.0876
  183MOL0     H24645   0.753  11.739   8.122  0.0403  1.7783 -3.7038
  183MOL0     H24646   0.761  11.962   8.163 -0.5219  0.9070 -1.5982
  183MOL0     H24647   0.926  11.971   8.219  1.2953 -1.1638 -0.1783
  183MOL0     H24648   0.922  12.061   7.995 -0.5829 -0.5204 -1.8273
  183MOL0     H24649   1.023  11.905   8.006 -0.4875 -1.4752 -0.6867
  183MOL0     H24650   0.829  11.793   7.897  0.8477 -0.4042 -1.7851
  183MOL0     H24651   0.746  11.947   7.868  1.3463  2.7274 -3.2507
  183MOL0     H24652   1.023  11.891   7.782 -0.7081 -2.0225  3.7806
  183MOL0     H24653   0.873  11.878   7.684  2.5611 -0.6714  0.0816
  183MOL0     H24654   0.973  12.137   7.818  2.2876 -2.8551  0.8784
  183MOL0     H24655   0.817  12.104   7.729 -0.4474 -1.2603 -1.2434
  183MOL0     H24656   1.205  12.129   7.634  1.1021  0.6553 -1.7500
  183MOL0     H24657   1.312  12.150   7.397 -0.4376  0.6247 -0.3728
  183MOL0     H24658   1.240  12.037   7.296 -1.6443 -0.7982 -1.4593
  183MOL0     H24659   1.249  12.329   7.268  1.1243 -1.0052  0.6143
  183MOL0     H24660   1.116  12.266   7.188  1.8094  0.2651 -1.4190
  183MOL0     H24661   1.401  12.192   7.116 -0.0455  1.4710 -1.0588
  183MOL0     H24662   1.306  12.310   7.036 -0.4470  0.1602 -1.4264
  183MOL0     H24663   1.248  12.130   6.914  1.4274  2.7270  1.0204
  183MOL0     H24664   1.122  12.105   7.025 -0.0467  1.3880 -1.4956
  183MOL0     H24665   1.126  11.954   6.832  3.0499 -1.7865 -3.6475
  183MOL0     H24666   1.024  11.866   6.662  0.5467 -0.7229 -2.7113
  183MOL0     H24667   1.071  11.704   6.622 -1.6473  0.1114 -0.7615
  183MOL0     H24668   0.923  11.726   6.719 -0.6132  1.5795 -0.2619
  183MOL0     H24669   1.172  11.267   6.636 -1.2382 -1.0228 -1.9267
  183MOL0     H24670   1.082  11.086   6.531  0.4704  0.6804 -0.2574
  183MOL0     H24671   1.025  10.889   6.489  0.9106 -0.3222  0.6663
  183MOL0     H24672   1.079  10.767   6.600 -0.8038 -1.6871 -0.2845
  183MOL0     H24673   0.981  10.688   6.418 -0.7787 -0.9349 -1.0882
  183MOL0     H24674   0.898  10.613   6.572  0.5975  0.4082  0.0920
  183MOL0     H24675   0.796  10.840   6.380  1.3844  1.0000  0.7949
  183MOL0     H24676   0.714  10.797   6.532 -0.9291 -1.0015 -0.9915
  183MOL0     H24677   0.769  10.615   6.301  1.2092  1.7528 -1.3357
  183MOL0     H24678   0.680  10.586   6.451 -0.3730 -0.3851 -1.2190
  183MOL0     H24679   0.604  10.795   6.236 -2.0422 -1.2744 -1.8356
  183MOL0     H24680   0.502  10.739   6.380 -1.3736 -1.6847  0.5191
  183MOL0     H24681   0.470  10.532   6.286  0.3954 -0.3960  1.2703
  183MOL0     H24682   0.395  10.661   6.193 -0.6381 -1.6994 -2.3802
  183MOL0     H24683   0.667  10.523   6.119  0.5545  0.6262  0.0309
  183MOL0     H24684   0.596  10.652   6.029 -0.1350 -0.2758 -0.4122
  183MOL0     H24685   0.471  10.371   6.064 -0.8422  0.3990  1.2930
  183MOL0     H24686   0.565  10.416   5.926  0.7361 -2.1455  0.8944
  183MOL0     H24687   0.898  10.963   6.901 -0.5382  1.0119  1.3921
  183MOL0     H24688   0.984  11.166   7.007 -1.8192  0.5805 -0.2975
  183MOL0     H24689   1.277  11.539   7.045  2.2987  0.4846 -0.8180
  183MOL0     H24690   1.332  11.759   7.143 -1.5362  0.1935  0.9893
  183MOL0     H24691   1.077  11.657   8.493  2.6404 -0.5624  0.7006
  183MOL0     H24692   1.262  11.598   8.655 -0.9524  0.0285  1.3049
  183MOL0     H24693   1.234  11.400   9.084  0.9642  0.5887 -1.0366
  183MOL0     H24694   1.336  11.412   9.310  0.9022 -0.0383  1.5721
  183MOL0     H24695   1.720  11.295   9.495 -0.1689 -0.0981 -0.4995
  183MOL0     H24696   1.729  11.251   9.340  0.6614 -0.6765  0.4099
  183MOL0     H24697   1.795  11.534   9.458 -0.9776 -1.8399  0.8646
  183MOL0     H24698   1.790  11.524   9.283  2.2162  1.4781 -0.8074
  183MOL0     H24699   1.963  11.365   9.263 -3.4035 -0.6190 -0.4263
  183MOL0     H24700   1.957  11.324   9.431 -0.3926 -0.3644  0.9645
  183MOL0     H24701   2.153  11.448   9.411 -0.0435 -0.8372 -3.5024
  183MOL0     H24702   2.055  11.570   9.474 -1.1441 -0.6711 -0.1304
  183MOL0     H24703   2.153  11.693   9.069  3.3344  0.1249  0.3398
  183MOL0     H24704   1.724  11.356   9.125 -0.0524  2.5349 -1.1610
  183MOL0     H24705   1.613  11.363   8.905 -1.9918 -3.1605 -0.5581
  184MOL0     O24706   5.474   3.491   8.401 -0.1737  0.6253 -0.6688
  184MOL0     C24707   5.507   3.495   8.285 -0.1882 -0.0591  0.1354
  184MOL0     O24708   5.455   3.578   8.190 -0.0560  0.0984  0.0765
  184MOL0     C24709   5.343   3.655   8.207 -0.3808  0.0350  0.8148
  184MOL0     C24710   5.340   3.786   8.149 -0.1258  0.9504 -0.5356
  184MOL0     C24711   5.225   3.865   8.166  0.1471  0.0833  0.9871
  184MOL0     C24712   5.104   3.810   8.225 -0.3225  0.6653  0.6471
  184MOL0     O24713   4.985   3.876   8.231  0.5146  0.3821 -0.0386
  184MOL0     C24714   4.992   4.011   8.269  0.1692  1.3920 -0.7532
  184MOL0     C24715   4.854   4.085   8.267  0.0319 -0.1194  0.0673
  184MOL0     C24716   4.764   4.057   8.144 -0.1028 -0.5510 -1.0514
  184MOL0     C24717   4.686   4.177   8.100 -0.2109  0.7359  1.1520
  184MOL0     C24718   4.570   4.161   8.000 -0.1305  0.2897 -0.3878
  184MOL0     C24719   4.544   4.292   7.931  0.0260  0.0631 -0.8570
  184MOL0     C24720   4.414   4.284   7.849 -0.1871 -1.3695  0.2359
  184MOL0     C24721   4.355   4.425   7.832 -1.7665 -0.5347  0.8081
  184MOL0     N24722   4.443   4.518   7.762  0.6112  0.1264  0.6114
  184MOL0     C24723   4.515   4.620   7.815 -0.1976 -0.7101 -0.1052
  184MOL0     C24724   4.585   4.680   7.709 -0.7029  0.0387 -0.9906
  184MOL0     C24725   4.667   4.803   7.720  1.0122 -0.1388 -0.1316
  184MOL0     C24726   4.810   4.780   7.755  0.1098  0.1082 -0.1992
  184MOL0     C24727   4.881   4.694   7.646  0.0311 -0.4243 -0.5863
  184MOL0     C24728   5.033   4.688   7.641  0.4336 -0.6034 -0.4491
  184MOL0     O24729   5.104   4.677   7.764  0.2825 -0.1067  0.9978
  184MOL0     C24730   5.243   4.660   7.744  0.8587  0.1328  0.3965
  184MOL0     C24731   5.328   4.746   7.664  0.2439  0.1131 -0.0485
  184MOL0     C24732   5.463   4.711   7.637 -0.4070 -0.2541 -0.3658
  184MOL0     C24733   5.544   4.813   7.558 -0.1995 -0.2104  0.6402
  184MOL0     C24734   5.511   4.592   7.691 -0.1503 -0.2081  0.4255
  184MOL0     C24735   5.642   4.533   7.648  0.0058  0.1789  0.2011
  184MOL0     O24736   5.690   4.567   7.522 -1.2093 -0.3360 -1.0157
  184MOL0     C24737   5.819   4.535   7.472 -0.0516  0.5794  0.1606
  184MOL0     C24738   5.880   4.625   7.381 -0.0637 -0.1764 -0.2970
  184MOL0     C24739   5.995   4.593   7.317 -0.5662  0.3867  0.7277
  184MOL0     C24740   6.058   4.475   7.330  0.2972  0.5566 -1.4987
  184MOL0     O24741   6.168   4.439   7.264  0.5468 -0.4788  0.6684
  184MOL0     C24742   6.218   4.304   7.259 -0.0323  0.9225  0.2939
  184MOL0     C24743   6.350   4.295   7.186 -0.2738  0.6734 -0.4155
  184MOL0     C24744   6.452   4.405   7.242 -0.0040 -0.3510 -1.2179
  184MOL0     C24745   6.605   4.380   7.235  0.0810  0.9197  0.0345
  184MOL0     C24746   6.651   4.375   7.091 -0.4602  0.8624 -0.2528
  184MOL0     C24747   6.782   4.299   7.071 -0.0256 -0.7406 -0.1294
  184MOL0     C24748   6.901   4.387   7.118 -1.2214  0.1886  0.2265
  184MOL0     C24749   7.046   4.332   7.086  0.1607  0.1029 -0.2364
  184MOL0    Cl24750   7.176   4.448   7.121  0.0944  0.0945 -0.2738
  184MOL0     C24751   5.998   4.386   7.421 -0.7909  0.3644 -1.1480
  184MOL0     C24752   5.881   4.412   7.494  0.4643  0.2006  0.0530
  184MOL0     O24753   5.684   4.447   7.721  0.0286  0.2023 -0.3354
  184MOL0     C24754   5.433   4.511   7.782  0.2955 -0.4167  0.8586
  184MOL0     C24755   5.297   4.542   7.796 -0.7775  0.5059 -0.8977
  184MOL0     N24756   4.550   4.611   7.594  0.0116 -0.9936  0.0426
  184MOL0     N24757   4.463   4.522   7.624  0.2045 -0.7482 -0.8035
  184MOL0     C24758   5.119   3.679   8.275 -0.4149  0.9429  0.7510
  184MOL0     C24759   5.229   3.603   8.262 -0.0714  0.0229 -0.8677
  184MOL0     C24760   5.603   3.379   8.242  0.4035 -0.1843 -0.2505
  184MOL0     C24761   5.676   3.404   8.123 -0.3666  0.2132  0.8629
  184MOL0     C24762   5.781   3.319   8.077  0.5914  0.8450 -0.2292
  184MOL0     C24763   5.812   3.207   8.151  0.2364 -0.2173 -0.3746
  184MOL0     O24764   5.922   3.135   8.100  0.1501  0.3171  0.3827
  184MOL0     C24765   5.970   3.015   8.175  0.0214  0.1804  0.2068
  184MOL0     C24766   6.031   2.908   8.086 -0.1220  0.5967  0.3293
  184MOL0     C24767   6.161   2.953   8.021  0.2413  0.3054 -0.6298
  184MOL0     C24768   6.234   2.826   7.953 -0.9482 -0.2941 -0.1759
  184MOL0     C24769   6.311   2.861   7.835 -0.4064  0.1269 -0.0944
  184MOL0     C24770   6.373   2.888   7.745  0.7319  0.1337 -0.2279
  184MOL0     C24771   5.742   3.183   8.270 -0.2291 -0.1156 -1.0041
  184MOL0     C24772   5.642   3.269   8.319  0.2636 -0.7633  0.1404
  184MOL0     H24773   5.428   3.822   8.096 -0.6772 -1.0265 -2.9796
  184MOL0     H24774   5.234   3.965   8.124  0.9433  0.2244  1.4717
  184MOL0     H24775   5.043   4.029   8.365  0.4341  0.1535 -0.6508
  184MOL0     H24776   5.051   4.053   8.187  3.8884 -1.7715  0.0494
  184MOL0     H24777   4.795   4.053   8.354 -1.7628 -1.0119 -1.4183
  184MOL0     H24778   4.870   4.192   8.280  0.6761 -0.0503 -1.2148
  184MOL0     H24779   4.830   4.044   8.058  1.1864  1.0574 -0.3652
  184MOL0     H24780   4.693   3.974   8.149 -3.6442  2.2524 -1.0377
  184MOL0     H24781   4.637   4.221   8.187  0.5225  3.0118  0.4921
  184MOL0     H24782   4.761   4.252   8.074 -2.0254  1.8327 -1.3877
  184MOL0     H24783   4.603   4.091   7.922 -2.4182 -2.3735  0.8436
  184MOL0     H24784   4.488   4.104   8.047  1.5454  0.5164  3.1641
  184MOL0     H24785   4.540   4.368   8.009  0.3164 -0.5685 -0.2195
  184MOL0     H24786   4.627   4.320   7.866 -0.3041 -1.4446 -1.9904
  184MOL0     H24787   4.443   4.229   7.758 -0.5714 -1.9993  0.4849
  184MOL0     H24788   4.338   4.217   7.891 -1.4615  0.2305  0.5638
  184MOL0     H24789   4.324   4.462   7.930 -2.9674  0.8574 -0.0606
  184MOL0     H24790   4.268   4.404   7.769  1.1601  1.7848 -4.7234
  184MOL0     H24791   4.519   4.653   7.919 -0.4313  0.6904 -0.5195
  184MOL0     H24792   4.663   4.845   7.620 -1.4649  0.5838  0.2099
  184MOL0     H24793   4.627   4.866   7.800 -1.2199 -0.0905 -1.2260
  184MOL0     H24794   4.808   4.736   7.855 -3.4920 -1.3963 -0.7777
  184MOL0     H24795   4.859   4.877   7.773  1.4679 -0.9131  2.1192
  184MOL0     H24796   4.855   4.734   7.547 -0.2029  0.4288 -0.1852
  184MOL0     H24797   4.851   4.589   7.656  0.2509 -0.2338  3.8013
  184MOL0     H24798   5.058   4.783   7.593 -1.8931  0.2818 -0.0497
  184MOL0     H24799   5.063   4.606   7.575 -2.6209  1.0150 -4.2443
  184MOL0     H24800   5.295   4.842   7.628 -0.4187  0.2714  0.9362
  184MOL0     H24801   5.511   4.806   7.454 -2.1681 -2.0931  1.2968
  184MOL0     H24802   5.525   4.914   7.595 -1.6333 -0.5272  0.8339
  184MOL0     H24803   5.651   4.798   7.571 -0.2389 -1.1020  0.0062
  184MOL0     H24804   5.854   4.728   7.364 -0.2182 -0.1401  0.1495
  184MOL0     H24805   6.040   4.668   7.252  1.0839 -2.5936 -1.8380
  184MOL0     H24806   6.233   4.267   7.361  0.6430 -4.3300 -1.4277
  184MOL0     H24807   6.148   4.243   7.202 -0.3649  0.1104  1.5382
  184MOL0     H24808   6.399   4.198   7.192  0.0554  0.8753  0.2218
  184MOL0     H24809   6.332   4.322   7.081 -1.4592  0.6829 -0.2225
  184MOL0     H24810   6.422   4.428   7.344 -1.0234 -1.2745 -1.2808
  184MOL0     H24811   6.428   4.493   7.182 -1.9527 -0.4844 -0.7012
  184MOL0     H24812   6.658   4.459   7.289  0.8935  1.0757 -0.9612
  184MOL0     H24813   6.639   4.289   7.284  3.1217  1.4384 -0.8778
  184MOL0     H24814   6.657   4.472   7.040  0.4246  1.3801  0.8102
  184MOL0     H24815   6.584   4.319   7.024  0.6808  2.4823 -2.9092
  184MOL0     H24816   6.788   4.206   7.129 -0.6299  0.6539  2.2909
  184MOL0     H24817   6.795   4.265   6.967  2.2334 -1.9153  0.4803
  184MOL0     H24818   6.897   4.395   7.227 -2.7433 -0.2483  0.2256
  184MOL0     H24819   6.888   4.488   7.079 -1.3396 -0.1479 -0.6130
  184MOL0     H24820   7.047   4.299   6.981 -0.2126 -1.9141  0.3444
  184MOL0     H24821   7.065   4.244   7.148 -1.9043  0.1276  0.5137
  184MOL0     H24822   6.035   4.287   7.447 -0.7414  1.0291  1.6081
  184MOL0     H24823   5.843   4.347   7.572  0.3304  2.4703  1.9813
  184MOL0     H24824   5.469   4.419   7.828  0.7735 -0.2090  0.8989
  184MOL0     H24825   5.225   4.485   7.855 -2.5713  0.3234 -3.1214
  184MOL0     H24826   5.036   3.625   8.319  2.2703 -1.7082  2.9343
  184MOL0     H24827   5.247   3.502   8.297  2.7413  0.2110 -1.5902
  184MOL0     H24828   5.660   3.495   8.067 -4.5094 -0.4309  0.7047
  184MOL0     H24829   5.850   3.339   7.996 -0.3876 -1.7382 -1.8484
  184MOL0     H24830   6.043   3.054   8.246  2.4122 -1.0783 -1.4060
  184MOL0     H24831   5.887   2.964   8.224  2.6725 -2.9522  1.8643
  184MOL0     H24832   5.959   2.883   8.007 -0.4377  0.7992  0.5490
  184MOL0     H24833   6.041   2.817   8.145  0.2354  0.1053 -0.4716
  184MOL0     H24834   6.232   3.000   8.089  0.3230 -1.7445  0.7734
  184MOL0     H24835   6.134   3.030   7.948  0.2705 -0.7384 -1.7864
  184MOL0     H24836   6.168   2.743   7.924  1.6609 -2.0967 -1.3939
  184MOL0     H24837   6.303   2.779   8.023 -2.0434 -1.1882  0.3575
  184MOL0     H24838   6.406   2.905   7.644  1.6510 -3.0478 -0.5694
  184MOL0     H24839   5.771   3.094   8.325  0.8459 -0.5035 -2.1451
  184MOL0     H24840   5.596   3.277   8.417 -0.5981  2.6866 -0.3715
  185MOL0     O24841  10.349  10.380   0.387  0.5158 -0.5703 -0.1507
  185MOL0     C24842  10.351  10.406   0.267  0.5207  0.5729 -1.4624
  185MOL0     O24843  10.249  10.384   0.188  0.8147  0.0773 -0.4145
  185MOL0     C24844  10.117  10.348   0.224  1.0460 -0.1567 -0.4628
  185MOL0     C24845  10.010  10.417   0.166  0.5572  0.3993 -0.2881
  185MOL0     C24846   9.885  10.399   0.218 -0.3635  0.4146  0.1896
  185MOL0     C24847   9.850  10.307   0.321  0.1781 -0.7117  0.4779
  185MOL0     O24848   9.721  10.295   0.370 -0.1638  0.8274  0.0357
  185MOL0     C24849   9.672  10.164   0.387 -0.1249  0.5618 -0.0804
  185MOL0     C24850   9.513  10.187   0.384  0.0778 -0.3396  0.0499
  185MOL0     C24851   9.462  10.299   0.483 -0.2024 -0.4883  0.0477
  185MOL0     C24852   9.431  10.246   0.622  0.2048 -0.3090 -0.4521
  185MOL0     C24853   9.303  10.163   0.616  0.2536 -0.3901 -0.1345
  185MOL0     C24854   9.193  10.202   0.517 -0.1570 -0.0026  0.4432
  185MOL0     C24855   9.125  10.315   0.596 -0.6488 -0.0852  0.3934
  185MOL0     C24856   9.011  10.375   0.504  0.8342  0.3280 -0.7357
  185MOL0     N24857   8.936  10.481   0.574  1.0656 -0.0164 -0.8199
  185MOL0     C24858   8.993  10.591   0.628  0.2266 -0.2650 -0.5431
  185MOL0     C24859   8.891  10.674   0.665 -0.1304 -0.6114  0.0388
  185MOL0     C24860   8.888  10.810   0.732 -0.9167 -0.1458  0.2015
  185MOL0     C24861   9.027  10.864   0.763  0.7958 -0.4844 -0.1050
  185MOL0     C24862   9.020  11.015   0.795 -0.7506 -0.0494  0.3048
  185MOL0     C24863   9.159  11.069   0.816 -0.3001 -0.2957 -0.4248
  185MOL0     O24864   9.221  11.004   0.928  0.4916  0.4562  0.1913
  185MOL0     C24865   9.361  11.019   0.943  0.1529  1.5578 -0.3806
  185MOL0     C24866   9.429  11.130   0.892  0.5554 -0.1747 -0.3553
  185MOL0     C24867   9.568  11.134   0.906 -0.5427  0.0896 -0.0301
  185MOL0     C24868   9.630  11.238   0.824 -0.0743 -0.7415  0.5855
  185MOL0     C24869   9.637  11.035   0.965  0.1603  0.1414 -0.7669
  185MOL0     C24870   9.790  11.026   0.967 -0.4050  0.3690  0.5294
  185MOL0     O24871   9.844  11.041   0.842 -0.3150  0.7045  0.2864
  185MOL0     C24872   9.990  11.023   0.845 -0.9454  0.0736 -0.6063
  185MOL0     C24873  10.039  10.894   0.834  0.0280  0.5046 -0.0305
  185MOL0     C24874  10.175  10.871   0.841 -0.7134  0.3289  0.1992
  185MOL0     C24875  10.273  10.970   0.852 -0.0663 -1.4388 -1.1025
  185MOL0     O24876  10.407  10.943   0.835  0.4410 -0.0984 -0.2891
  185MOL0     C24877  10.506  11.043   0.833  0.1680 -1.0190 -0.7276
  185MOL0     C24878  10.644  10.975   0.818  0.3515 -0.2228 -0.2789
  185MOL0     C24879  10.677  10.913   0.677 -0.3190  0.3908  0.1111
  185MOL0     C24880  10.557  10.916   0.571 -0.7137 -0.5150  0.2358
  185MOL0     C24881  10.598  10.859   0.430 -0.1646  0.2331 -1.1826
  185MOL0     C24882  10.501  10.934   0.337 -0.8129 -0.8783  0.6851
  185MOL0     C24883  10.351  10.905   0.355  0.1649  0.6337 -0.2617
  185MOL0     C24884  10.320  10.766   0.308 -0.6695  0.1742  0.4426
  185MOL0    Cl24885  10.158  10.742   0.264  0.3677  0.2625  0.2575
  185MOL0     C24886  10.211  11.103   0.859 -0.0032 -0.5852  0.4054
  185MOL0     C24887  10.075  11.131   0.874 -0.3000 -0.8249 -0.3565
  185MOL0     O24888   9.855  10.988   1.062  0.7653  0.2475 -0.0232
  185MOL0     C24889   9.575  10.928   1.017 -0.0598 -0.8656 -0.5374
  185MOL0     C24890   9.435  10.909   1.004  0.0173 -0.0108 -0.5152
  185MOL0     N24891   8.775  10.598   0.645 -0.6212  0.1356 -0.1079
  185MOL0     N24892   8.802  10.490   0.585  0.3164 -0.5071  0.2904
  185MOL0     C24893   9.956  10.229   0.376  0.7555 -0.1764 -0.0797
  185MOL0     C24894  10.083  10.258   0.323  0.0503  0.4530 -0.7479
  185MOL0     C24895  10.471  10.470   0.216 -0.1659  0.5697 -0.8883
  185MOL0     C24896  10.588  10.494   0.303  0.4055  1.1930  1.0523
  185MOL0     C24897  10.689  10.571   0.254  0.0825  0.0158  0.1824
  185MOL0     C24898  10.685  10.623   0.117 -0.1258  1.0419 -0.5444
  185MOL0     O24899  10.784  10.709   0.081  0.1745  0.0995  0.1731
  185MOL0     C24900  10.769  10.804  -0.024 -0.8918  0.3281  0.4770
  185MOL0     C24901  10.874  10.900  -0.017  0.0166 -0.7982 -0.5518
  185MOL0     C24902  11.017  10.844  -0.011 -0.0441 -0.2637 -0.0982
  185MOL0     C24903  11.111  10.948  -0.087 -0.1520  1.3986 -0.0686
  185MOL0     C24904  11.151  11.078  -0.024 -0.1013  1.1517  0.3285
  185MOL0     C24905  11.187  11.179   0.032  0.5599  0.8080 -0.0500
  185MOL0     C24906  10.573  10.595   0.041 -0.0591  0.2187  1.1588
  185MOL0     C24907  10.466  10.516   0.085 -1.0035 -0.7156 -0.0939
  185MOL0     H24908  10.011  10.470   0.071  0.1033 -0.0214 -0.5377
  185MOL0     H24909   9.797  10.453   0.183 -0.4617  0.1947  0.0922
  185MOL0     H24910   9.703  10.092   0.310 -0.2018  1.6955 -1.2053
  185MOL0     H24911   9.717  10.129   0.481  1.1764  2.3807  0.0398
  185MOL0     H24912   9.485  10.224   0.286 -0.1194  1.7587  0.8586
  185MOL0     H24913   9.463  10.091   0.399  0.7425 -0.7391 -0.1986
  185MOL0     H24914   9.540  10.375   0.495 -1.5211  1.2833 -1.8275
  185MOL0     H24915   9.384  10.350   0.426  3.3532  2.8670 -2.3288
  185MOL0     H24916   9.507  10.184   0.670 -1.0791 -0.5959  1.2867
  185MOL0     H24917   9.417  10.326   0.695 -0.0882  0.1096 -0.9614
  185MOL0     H24918   9.323  10.056   0.606  0.3186 -0.2808 -1.2578
  185MOL0     H24919   9.267  10.160   0.719 -0.9937  1.2629 -0.4962
  185MOL0     H24920   9.226  10.230   0.416  2.4973  0.4160  1.3467
  185MOL0     H24921   9.118  10.123   0.505 -0.2499  0.1393  0.0746
  185MOL0     H24922   9.082  10.273   0.687 -0.5293  0.9511  0.9445
  185MOL0     H24923   9.182  10.406   0.616 -1.4803  0.0299  2.4790
  185MOL0     H24924   8.934  10.300   0.485  0.6914  0.0199  0.9267
  185MOL0     H24925   9.056  10.423   0.417  0.7240  1.2724 -0.2844
  185MOL0     H24926   9.099  10.612   0.638  0.2797 -1.0078  0.6635
  185MOL0     H24927   8.831  10.880   0.670  0.9407  0.9082 -0.3797
  185MOL0     H24928   8.839  10.803   0.830  2.0999  1.8311  2.0021
  185MOL0     H24929   9.098  10.850   0.681  0.2397  1.0736 -0.8895
  185MOL0     H24930   9.081  10.811   0.842  1.5507 -0.7832 -0.7965
  185MOL0     H24931   8.961  11.018   0.887  1.2427 -3.0234  1.8343
  185MOL0     H24932   8.983  11.059   0.702  0.2239 -1.3022 -0.7062
  185MOL0     H24933   9.149  11.177   0.832 -2.6587 -0.4990 -0.2078
  185MOL0     H24934   9.220  11.048   0.728 -1.3618 -1.7933 -0.8252
  185MOL0     H24935   9.359  11.201   0.849 -2.5100 -2.3395  0.7356
  185MOL0     H24936   9.564  11.325   0.812  1.4138  0.4422  0.6671
  185MOL0     H24937   9.710  11.289   0.878 -0.3218 -1.1880  1.3889
  185MOL0     H24938   9.655  11.207   0.722  0.1794  0.5479  0.2305
  185MOL0     H24939   9.976  10.807   0.815 -1.3574  0.9880  2.0311
  185MOL0     H24940  10.224  10.775   0.847  0.7359  1.1306  3.0730
  185MOL0     H24941  10.481  11.108   0.749  1.7908  3.3290  1.8441
  185MOL0     H24942  10.505  11.101   0.925 -0.3801 -1.2342 -0.5904
  185MOL0     H24943  10.718  11.056   0.815 -1.1636  1.1926 -1.6309
  185MOL0     H24944  10.666  10.896   0.890 -2.5921 -0.1139  0.8830
  185MOL0     H24945  10.726  10.816   0.687  1.6981  1.2827 -0.5295
  185MOL0     H24946  10.750  10.984   0.636  0.8345  0.0613  1.5049
  185MOL0     H24947  10.470  10.862   0.610  1.2002 -2.3999  2.2611
  185MOL0     H24948  10.515  11.016   0.561 -0.1801 -0.4134 -1.1384
  185MOL0     H24949  10.577  10.752   0.439 -1.1274  0.5837  2.9469
  185MOL0     H24950  10.704  10.873   0.409 -0.2102  1.3974 -0.7140
  185MOL0     H24951  10.521  11.039   0.359 -1.0285 -0.7055  0.0821
  185MOL0     H24952  10.535  10.927   0.233 -2.2361  2.0205 -0.0952
  185MOL0     H24953  10.290  10.968   0.290  0.2649  2.3099  1.1789
  185MOL0     H24954  10.314  10.921   0.457  0.4648 -0.6868  0.0711
  185MOL0     H24955  10.346  10.683   0.373  0.3318  0.4964  0.4688
  185MOL0     H24956  10.389  10.752   0.224  0.0335 -1.6112  1.2848
  185MOL0     H24957  10.275  11.188   0.880 -0.3852 -0.5357  1.4011
  185MOL0     H24958  10.043  11.233   0.887 -0.3053 -0.8454 -0.1972
  185MOL0     H24959   9.631  10.848   1.063  1.2598  0.2135 -0.2280
  185MOL0     H24960   9.392  10.824   1.056 -0.8930  1.1072  0.6379
  185MOL0     H24961   9.939  10.161   0.459 -0.3015 -1.6830 -1.4619
  185MOL0     H24962  10.163  10.203   0.370 -0.3848 -1.7593 -2.4295
  185MOL0     H24963  10.595  10.443   0.399  0.1331 -3.5066 -1.1275
  185MOL0     H24964  10.784  10.580   0.305  0.0432 -0.4131  0.3373
  185MOL0     H24965  10.770  10.748  -0.118  1.6699 -2.4059  1.9542
  185MOL0     H24966  10.679  10.866  -0.028 -1.0783  0.2211  2.1424
  185MOL0     H24967  10.853  10.966   0.068 -3.8529  1.9926 -3.3057
  185MOL0     H24968  10.860  10.970  -0.100  1.3439  0.4562  0.2240
  185MOL0     H24969  11.018  10.744  -0.054 -1.0057  0.1214 -1.0878
  185MOL0     H24970  11.041  10.850   0.095  3.2495  1.3228 -0.7922
  185MOL0     H24971  11.083  10.971  -0.190 -0.7110  2.0120  0.2109
  185MOL0     H24972  11.202  10.887  -0.095 -1.1903 -0.0158 -1.8068
  185MOL0     H24973  11.213  11.279   0.060 -0.3333  0.9256  0.4166
  185MOL0     H24974  10.566  10.632  -0.061 -0.5353  1.3415  1.5779
  185MOL0     H24975  10.384  10.501   0.016 -0.6747 -2.6664 -0.1126
  186MOL0     O24976   1.090   4.604   1.177  0.7166  0.3470 -0.5580
  186MOL0     C24977   1.201   4.565   1.133  1.3377 -0.0887  0.3647
  186MOL0     O24978   1.277   4.634   1.046  0.0066 -0.0852  1.7807
  186MOL0     C24979   1.247   4.759   1.009  0.5462  0.0574 -0.2909
  186MOL0     C24980   1.193   4.865   1.096  0.0339 -1.2822 -0.4221
  186MOL0     C24981   1.168   4.998   1.045  0.6249  0.4263 -0.2057
  186MOL0     C24982   1.201   5.039   0.917  0.6627 -0.0775 -0.4469
  186MOL0     O24983   1.200   5.167   0.860 -0.4518 -0.2161 -0.1470
  186MOL0     C24984   1.158   5.272   0.946 -0.3287  0.3406  0.8550
  186MOL0     C24985   1.176   5.411   0.871 -0.4101 -0.3420  0.7818
  186MOL0     C24986   1.089   5.419   0.753 -0.3522  0.1707  0.6156
  186MOL0     C24987   1.079   5.559   0.686  1.3837  0.5829  0.4111
  186MOL0     C24988   0.982   5.558   0.562  0.1151 -0.0482  0.2034
  186MOL0     C24989   0.983   5.696   0.483 -0.4697  0.9016 -0.8638
  186MOL0     C24990   1.098   5.701   0.377  0.1951 -0.0609  0.2485
  186MOL0     C24991   1.068   5.609   0.257 -0.6975  0.4575  0.2624
  186MOL0     N24992   1.146   5.651   0.129 -0.1761 -0.5462 -0.1172
  186MOL0     C24993   1.260   5.591   0.081 -0.5579  0.2958  0.2162
  186MOL0     C24994   1.298   5.673  -0.027 -0.4212  0.0321 -0.8020
  186MOL0     C24995   1.412   5.665  -0.110 -0.5142 -0.4985 -0.3447
  186MOL0     C24996   1.552   5.720  -0.048  0.4797  0.3205 -0.5348
  186MOL0     C24997   1.542   5.871  -0.011  0.0359 -0.0662 -0.7049
  186MOL0     C24998   1.529   5.972  -0.135 -0.2015  0.4252 -0.1446
  186MOL0     O24999   1.637   5.944  -0.222 -0.2736  0.3286  0.1375
  186MOL0     C25000   1.663   6.030  -0.330  0.7940  0.1583  0.5824
  186MOL0     C25001   1.784   6.032  -0.389  0.3400 -0.8380  0.3914
  186MOL0     C25002   1.823   6.143  -0.476  0.3599  0.5602 -0.4902
  186MOL0     C25003   1.968   6.126  -0.540  0.6477  0.2354  0.6571
  186MOL0     C25004   1.727   6.233  -0.524  0.4605  0.3526  0.4427
  186MOL0     C25005   1.752   6.330  -0.644  0.0552  0.0114  0.1943
  186MOL0     O25006   1.863   6.310  -0.724  0.3583  0.8931  0.5009
  186MOL0     C25007   1.916   6.408  -0.802  0.2587 -0.5837 -0.4866
  186MOL0     C25008   1.876   6.547  -0.806 -0.7118 -0.3570 -0.1297
  186MOL0     C25009   1.936   6.638  -0.897 -0.0861  0.5269  0.0722
  186MOL0     C25010   2.039   6.587  -0.987 -0.1118  0.3574 -0.3077
  186MOL0     O25011   2.088   6.671  -1.084 -0.0218  0.7199 -0.4933
  186MOL0     C25012   2.218   6.634  -1.138  0.6174 -0.6063 -0.8112
  186MOL0     C25013   2.343   6.655  -1.039  0.6160  0.4661  0.2366
  186MOL0     C25014   2.335   6.787  -0.976 -0.2641 -1.5787  0.0753
  186MOL0     C25015   2.473   6.817  -0.915 -0.3883  0.6003  0.0422
  186MOL0     C25016   2.477   6.961  -0.859  0.3515 -0.3967 -0.1421
  186MOL0     C25017   2.610   6.994  -0.787  0.0768  1.0676  0.6406
  186MOL0     C25018   2.638   7.142  -0.775 -0.0544 -0.2796 -0.0063
  186MOL0     C25019   2.788   7.166  -0.739 -0.5219  0.2616  0.1410
  186MOL0    Cl25020   2.858   7.033  -0.647 -0.0819 -0.0857 -0.4687
  186MOL0     C25021   2.077   6.452  -0.970 -0.7162  0.8526 -0.1169
  186MOL0     C25022   2.016   6.368  -0.881 -0.3465  0.1470 -0.1546
  186MOL0     O25023   1.669   6.418  -0.653 -0.0908  0.0905 -0.0799
  186MOL0     C25024   1.599   6.221  -0.473  0.3148  1.0652  0.3194
  186MOL0     C25025   1.572   6.127  -0.372 -0.1172  1.1178 -0.2910
  186MOL0     N25026   1.191   5.762  -0.043 -0.6944  0.4781  0.3240
  186MOL0     N25027   1.102   5.747   0.046 -0.7905  0.1550  0.1991
  186MOL0     C25028   1.244   4.935   0.834 -0.7210 -0.4998 -0.2203
  186MOL0     C25029   1.261   4.799   0.876  0.1607  0.2183 -0.0222
  186MOL0     C25030   1.267   4.445   1.189  0.0389 -0.2795  0.6784
  186MOL0     C25031   1.211   4.376   1.292  0.8275  1.2601 -0.0179
  186MOL0     C25032   1.262   4.259   1.337  0.3252 -0.5632 -0.1185
  186MOL0     C25033   1.372   4.208   1.281 -1.1951  0.5185 -0.5485
  186MOL0     O25034   1.439   4.086   1.303 -0.1811 -0.6647  0.0269
  186MOL0     C25035   1.431   4.041   1.442  0.4104  0.3999  0.6452
  186MOL0     C25036   1.571   4.079   1.507 -0.0337  0.3914  0.4406
  186MOL0     C25037   1.581   4.220   1.549 -0.1098 -0.9080 -0.0449
  186MOL0     C25038   1.472   4.266   1.648  0.1591 -0.5146  0.0836
  186MOL0     C25039   1.468   4.183   1.771 -0.5394  0.0206  0.3144
  186MOL0     C25040   1.470   4.110   1.869 -0.6778 -0.0329 -0.3139
  186MOL0     C25041   1.421   4.273   1.166  0.7848  0.1751 -0.8254
  186MOL0     C25042   1.379   4.399   1.129  0.8078  0.6504  0.3215
  186MOL0     H25043   1.182   4.847   1.203  3.4528 -1.6376  0.0074
  186MOL0     H25044   1.140   5.072   1.119 -0.5377  0.4614 -0.6586
  186MOL0     H25045   1.054   5.257   0.975  0.3074 -1.3021  2.5212
  186MOL0     H25046   1.227   5.268   1.031  1.4641 -1.8856 -0.5825
  186MOL0     H25047   1.145   5.488   0.943  2.3815  2.6914 -0.9727
  186MOL0     H25048   1.280   5.424   0.838 -1.4717 -0.8319 -3.2433
  186MOL0     H25049   1.123   5.348   0.677  1.2998 -0.7979  2.1986
  186MOL0     H25050   0.986   5.402   0.787 -1.2128  3.6665  0.1823
  186MOL0     H25051   1.044   5.631   0.761 -2.0705 -2.1253  1.6643
  186MOL0     H25052   1.173   5.605   0.655  0.3717  0.3344 -3.5515
  186MOL0     H25053   0.992   5.467   0.503 -0.4756 -0.1523  0.2568
  186MOL0     H25054   0.883   5.542   0.607  1.0522  2.7647  3.7394
  186MOL0     H25055   0.887   5.700   0.431 -0.2128  1.1962 -1.3150
  186MOL0     H25056   0.990   5.775   0.559 -0.4525 -0.8392  1.0416
  186MOL0     H25057   1.114   5.799   0.331 -5.8609 -0.0707 -2.9274
  186MOL0     H25058   1.194   5.670   0.419  0.8372  1.1036 -0.3050
  186MOL0     H25059   0.960   5.614   0.238 -0.5418  0.7687 -0.5666
  186MOL0     H25060   1.096   5.505   0.277  3.9851  1.5198  0.2989
  186MOL0     H25061   1.320   5.508   0.117 -1.4030 -1.1506 -1.5509
  186MOL0     H25062   1.441   5.564  -0.139 -0.0572 -0.1047 -1.3115
  186MOL0     H25063   1.397   5.728  -0.198  1.1413 -0.5119 -0.6745
  186MOL0     H25064   1.621   5.702  -0.131 -1.9449 -1.3533 -2.3699
  186MOL0     H25065   1.586   5.657   0.033  0.7084 -1.5958 -2.0451
  186MOL0     H25066   1.631   5.906   0.043 -0.5391  1.7200 -0.8488
  186MOL0     H25067   1.465   5.884   0.065  2.6804  3.2009  1.6944
  186MOL0     H25068   1.528   6.076  -0.101 -2.0727  0.3030  0.2506
  186MOL0     H25069   1.428   5.954  -0.174  0.2879 -0.6563 -0.9721
  186MOL0     H25070   1.865   5.970  -0.352  0.2092 -1.2709 -0.0486
  186MOL0     H25071   1.998   6.021  -0.531  1.0335  0.4650  2.3117
  186MOL0     H25072   1.987   6.153  -0.644 -1.3782  3.6273  1.0295
  186MOL0     H25073   2.050   6.172  -0.485  1.2438  1.5173 -1.2154
  186MOL0     H25074   1.794   6.588  -0.748  1.2811 -0.6915  3.1907
  186MOL0     H25075   1.913   6.744  -0.891  2.2906  1.0039  4.1842
  186MOL0     H25076   2.202   6.537  -1.186 -4.4830 -0.6011  0.3308
  186MOL0     H25077   2.253   6.695  -1.222  3.4071 -2.0565 -0.8057
  186MOL0     H25078   2.343   6.574  -0.965  0.8682  1.3882  1.2733
  186MOL0     H25079   2.425   6.647  -1.110 -1.1220 -0.9812 -1.7203
  186MOL0     H25080   2.259   6.786  -0.897 -0.2178 -1.5225  0.1208
  186MOL0     H25081   2.304   6.867  -1.044 -0.1848 -1.6599 -0.0571
  186MOL0     H25082   2.491   6.744  -0.836 -2.1920  0.4703  0.3808
  186MOL0     H25083   2.554   6.818  -0.988  0.0497  1.1754  0.5225
  186MOL0     H25084   2.391   6.980  -0.795 -0.3339  0.6749 -1.3391
  186MOL0     H25085   2.472   7.025  -0.947  1.9243  1.1092  0.8029
  186MOL0     H25086   2.612   6.952  -0.686 -0.9325  0.0127  0.2464
  186MOL0     H25087   2.687   6.949  -0.850  2.0539 -0.4752  3.8734
  186MOL0     H25088   2.588   7.181  -0.685  2.2595 -0.9308  1.6512
  186MOL0     H25089   2.611   7.191  -0.869  1.0742 -2.3314 -1.4521
  186MOL0     H25090   2.805   7.263  -0.691  2.3717 -0.1642  0.1083
  186MOL0     H25091   2.849   7.166  -0.830  0.4306  0.2713  0.7725
  186MOL0     H25092   2.155   6.410  -1.033 -1.2600  2.2637 -1.8033
  186MOL0     H25093   2.056   6.267  -0.884 -1.4285 -0.2930 -0.5470
  186MOL0     H25094   1.519   6.282  -0.513 -1.3861 -2.1685 -1.6463
  186MOL0     H25095   1.472   6.123  -0.329  0.1560 -0.6245  0.2543
  186MOL0     H25096   1.286   4.975   0.742  1.1523  3.1492  1.9616
  186MOL0     H25097   1.304   4.732   0.803 -0.4710 -1.6369  1.2206
  186MOL0     H25098   1.125   4.417   1.344 -0.4928 -1.4547  0.1369
  186MOL0     H25099   1.216   4.198   1.414  1.4944 -3.0190 -1.2620
  186MOL0     H25100   1.346   4.084   1.494  0.4892  0.1965  0.9471
  186MOL0     H25101   1.405   3.935   1.435  2.0775 -0.0880  1.3222
  186MOL0     H25102   1.650   4.064   1.433 -0.7896 -0.1156 -0.2844
  186MOL0     H25103   1.581   4.003   1.585  1.4727  0.8932  0.7603
  186MOL0     H25104   1.585   4.294   1.468  0.9397  0.1144  0.9103
  186MOL0     H25105   1.668   4.241   1.611 -2.2912  4.1573  1.8713
  186MOL0     H25106   1.372   4.262   1.604 -0.7626 -2.1321  2.1658
  186MOL0     H25107   1.490   4.369   1.681 -3.2342 -0.1397  1.2207
  186MOL0     H25108   1.473   4.068   1.967 -2.9560  1.7652  0.6262
  186MOL0     H25109   1.498   4.233   1.099  0.2640  2.9175 -3.2645
  186MOL0     H25110   1.432   4.448   1.048  0.1642  0.7372 -0.0547
  187MOL0     O25111   5.049   1.380  11.006 -0.3795 -0.5560 -0.1064
  187MOL0     C25112   5.078   1.463  10.927  0.5823 -0.3843  0.6381
  187MOL0     O25113   4.999   1.564  10.879  0.0001 -0.3981  0.0658
  187MOL0     C25114   4.868   1.570  10.921  1.7788 -0.6868  0.8877
  187MOL0     C25115   4.779   1.463  10.949  0.5925 -0.1942  1.2037
  187MOL0     C25116   4.650   1.484  11.002 -0.3368  0.5384 -0.4468
  187MOL0     C25117   4.601   1.624  11.012 -0.1422 -0.4614 -0.4780
  187MOL0     O25118   4.477   1.654  11.060  0.4043  0.1193  1.0389
  187MOL0     C25119   4.370   1.560  11.030  0.6570  0.4473  0.4175
  187MOL0     C25120   4.271   1.645  10.950 -0.2090 -0.7104 -0.4735
  187MOL0     C25121   4.305   1.619  10.808  0.2542 -0.0645 -0.1503
  187MOL0     C25122   4.234   1.691  10.701  0.4145  0.1571 -0.1846
  187MOL0     C25123   4.269   1.622  10.572  0.0382  0.5062  0.0857
  187MOL0     C25124   4.198   1.711  10.472 -0.1509  0.3779 -0.5696
  187MOL0     C25125   4.214   1.673  10.324 -0.2564  0.3571 -0.6627
  187MOL0     C25126   4.172   1.531  10.294 -0.2260 -0.0003  0.1320
  187MOL0     N25127   4.196   1.512  10.148  0.4845  0.0251 -0.1397
  187MOL0     C25128   4.312   1.458  10.098  0.4627 -0.3468  0.2120
  187MOL0     C25129   4.288   1.443   9.963  0.0015 -0.3221  0.5318
  187MOL0     C25130   4.387   1.404   9.858 -0.6469 -0.9466 -1.2296
  187MOL0     C25131   4.505   1.327   9.904  0.0811  0.2401  1.3286
  187MOL0     C25132   4.552   1.253   9.771 -0.6290 -0.4622  0.1827
  187MOL0     C25133   4.677   1.171   9.800  0.2144  0.0779  0.5178
  187MOL0     O25134   4.635   1.063   9.879 -0.1582  0.3299 -0.3568
  187MOL0     C25135   4.593   0.948   9.823  0.0496 -0.4851 -0.5452
  187MOL0     C25136   4.570   0.912   9.685  0.1111 -0.6305  0.7530
  187MOL0     C25137   4.518   0.786   9.649 -0.6353  0.0676  0.2531
  187MOL0     C25138   4.498   0.759   9.497 -0.3498  0.4377  0.6419
  187MOL0     C25139   4.479   0.689   9.751  0.5903 -0.4087 -0.5272
  187MOL0     C25140   4.404   0.555   9.726 -0.0757  0.6629 -0.6759
  187MOL0     O25141   4.341   0.541   9.602 -0.2702  0.0252 -0.0326
  187MOL0     C25142   4.306   0.415   9.567 -0.0423  0.8386  0.7855
  187MOL0     C25143   4.198   0.342   9.622  0.3395  0.5713  0.0888
  187MOL0     C25144   4.181   0.207   9.596  0.1075  0.2786 -0.0195
  187MOL0     C25145   4.273   0.132   9.512 -0.1046  0.4132 -0.4707
  187MOL0     O25146   4.253   0.001   9.505 -0.9724  0.5908  0.3722
  187MOL0     C25147   4.372  -0.086   9.526 -0.3487 -1.2247 -0.3674
  187MOL0     C25148   4.328  -0.225   9.552 -0.6138 -0.1100  0.5306
  187MOL0     C25149   4.277  -0.236   9.697  1.0123  0.3512 -0.2570
  187MOL0     C25150   4.150  -0.163   9.718 -0.0405 -0.9119 -0.0092
  187MOL0     C25151   4.058  -0.236   9.820  0.4969  0.5732 -0.3668
  187MOL0     C25152   3.927  -0.161   9.824  0.3529  0.0988 -0.0325
  187MOL0     C25153   3.934  -0.038   9.920  0.9383 -0.1123  0.0408
  187MOL0     C25154   3.795   0.034   9.941 -0.1414 -0.1868 -0.7578
  187MOL0    Cl25155   3.851   0.174  10.041 -0.0834  0.4101  0.5084
  187MOL0     C25156   4.373   0.200   9.445 -0.7086  0.5188  0.5390
  187MOL0     C25157   4.380   0.342   9.463 -0.5972  0.9014 -0.0166
  187MOL0     O25158   4.413   0.463   9.818  1.1262 -0.3672  0.7374
  187MOL0     C25159   4.508   0.725   9.884 -0.5751  0.0998  0.2122
  187MOL0     C25160   4.573   0.850   9.911  0.1801 -0.4893 -0.3109
  187MOL0     N25161   4.150   1.467   9.940 -0.0290 -0.2212 -1.0196
  187MOL0     N25162   4.097   1.516  10.049  0.1669 -0.0956  0.3205
  187MOL0     C25163   4.694   1.725  10.985 -0.5822 -0.2625  0.5275
  187MOL0     C25164   4.820   1.699  10.938  0.3487 -0.0021  0.1803
  187MOL0     C25165   5.221   1.466  10.887 -0.3922  0.1380  0.6538
  187MOL0     C25166   5.273   1.544  10.778 -0.2869  0.0300 -0.8369
  187MOL0     C25167   5.410   1.540  10.751  0.2346  0.7837 -0.4205
  187MOL0     C25168   5.497   1.459  10.824 -0.6639 -0.1739 -0.3054
  187MOL0     O25169   5.633   1.455  10.805 -0.0549 -0.3353 -0.4303
  187MOL0     C25170   5.692   1.556  10.714 -0.5314 -0.6105 -0.4754
  187MOL0     C25171   5.830   1.585  10.759 -0.6834  0.1887 -0.1554
  187MOL0     C25172   5.902   1.678  10.656 -0.5319 -0.0390  0.1061
  187MOL0     C25173   5.927   1.630  10.514 -0.4012 -0.2297 -0.9058
  187MOL0     C25174   5.968   1.484  10.502  0.1386 -0.6751 -0.3349
  187MOL0     C25175   5.987   1.364  10.526 -0.0794  0.1974  0.8450
  187MOL0     C25176   5.451   1.380  10.926 -0.1965 -0.3995 -0.0292
  187MOL0     C25177   5.313   1.379  10.955 -0.5282 -0.3067 -0.1091
  187MOL0     H25178   4.804   1.360  10.924 -2.4207 -1.4162  2.6931
  187MOL0     H25179   4.602   1.391  11.033  2.6847 -0.9925 -0.0022
  187MOL0     H25180   4.395   1.472  10.971 -1.4906  1.0222 -1.4827
  187MOL0     H25181   4.323   1.532  11.124 -1.0299  2.3581  0.2144
  187MOL0     H25182   4.165   1.624  10.967  0.2061 -2.6805 -0.1499
  187MOL0     H25183   4.287   1.750  10.977  1.7437 -1.5036  1.8048
  187MOL0     H25184   4.410   1.648  10.802  0.3294 -0.1437  0.6774
  187MOL0     H25185   4.303   1.511  10.794 -0.3837  0.2275 -2.7537
  187MOL0     H25186   4.126   1.692  10.721  0.1204 -2.0204 -1.3376
  187MOL0     H25187   4.259   1.797  10.702 -0.5661  0.4864  3.2475
  187MOL0     H25188   4.374   1.619  10.540  0.4918  1.8235  1.3258
  187MOL0     H25189   4.229   1.521  10.578 -0.6240  0.8364  2.0626
  187MOL0     H25190   4.091   1.706  10.494 -0.5010 -3.7847 -2.3656
  187MOL0     H25191   4.233   1.814  10.484 -1.9519  0.8202  1.9220
  187MOL0     H25192   4.146   1.737  10.267 -1.0577  0.1567  0.0349
  187MOL0     H25193   4.316   1.700  10.296  0.4190  0.3122  1.5689
  187MOL0     H25194   4.065   1.518  10.314 -1.1824  2.9924 -2.3866
  187MOL0     H25195   4.234   1.465  10.356  1.5001  3.0341  1.8723
  187MOL0     H25196   4.399   1.422  10.152  2.6104  0.5314 -2.4636
  187MOL0     H25197   4.325   1.357   9.782 -4.3168  0.5746  0.5501
  187MOL0     H25198   4.423   1.501   9.821  0.8341 -0.4220  1.3043
  187MOL0     H25199   4.465   1.251   9.971 -3.0725 -0.0426 -0.6942
  187MOL0     H25200   4.585   1.388   9.947  1.5072 -1.6220  1.4340
  187MOL0     H25201   4.579   1.327   9.696  2.1408 -2.5370 -1.0343
  187MOL0     H25202   4.469   1.189   9.739 -1.9281  1.4399 -0.4279
  187MOL0     H25203   4.753   1.234   9.847 -0.9126  1.8968  0.0298
  187MOL0     H25204   4.717   1.138   9.704  1.9319  0.3536  1.1148
  187MOL0     H25205   4.586   0.981   9.602  1.3852  1.8213  2.9053
  187MOL0     H25206   4.499   0.651   9.483 -3.3604  0.4355 -0.3229
  187MOL0     H25207   4.405   0.802   9.459 -0.0394 -0.4629 -1.2571
  187MOL0     H25208   4.577   0.808   9.441  2.3411 -1.2207  2.7443
  187MOL0     H25209   4.128   0.385   9.693 -1.7635 -0.2210 -1.3782
  187MOL0     H25210   4.108   0.144   9.646  1.6996 -1.9005 -0.2842
  187MOL0     H25211   4.426  -0.067   9.433 -0.3610 -1.2090 -0.3708
  187MOL0     H25212   4.438  -0.045   9.604  3.0354  2.6630 -4.7086
  187MOL0     H25213   4.261  -0.272   9.479 -3.2016  1.3902  1.8087
  187MOL0     H25214   4.424  -0.278   9.550 -0.8303 -0.4931 -0.4486
  187MOL0     H25215   4.356  -0.187   9.755  0.5165  3.5724 -2.0720
  187MOL0     H25216   4.274  -0.341   9.727 -2.7848  0.0225 -1.3767
  187MOL0     H25217   4.172  -0.065   9.762 -0.5308 -1.3526  1.2709
  187MOL0     H25218   4.095  -0.145   9.625 -0.9346 -1.2911  0.4301
  187MOL0     H25219   4.105  -0.255   9.916 -0.6830 -1.7556 -0.1779
  187MOL0     H25220   4.036  -0.336   9.782 -0.4631  0.4815  0.3927
  187MOL0     H25221   3.891  -0.137   9.723 -1.6252 -2.0893  0.0660
  187MOL0     H25222   3.869  -0.243   9.868  4.3511 -1.9807  1.8755
  187MOL0     H25223   4.007   0.031   9.878 -0.3919  1.7471  0.6682
  187MOL0     H25224   3.973  -0.067  10.019  1.5086  1.1265  0.1934
  187MOL0     H25225   3.728  -0.033   9.995 -0.1819 -0.4487 -1.1249
  187MOL0     H25226   3.749   0.058   9.845 -1.6521 -1.3317 -0.3488
  187MOL0     H25227   4.434   0.155   9.367  1.3214  1.2491  1.6312
  187MOL0     H25228   4.461   0.399   9.419 -1.8722  2.1366 -0.8638
  187MOL0     H25229   4.493   0.651   9.962  0.1065 -1.1077 -0.7565
  187MOL0     H25230   4.602   0.863  10.015  1.0318 -2.5131 -0.2430
  187MOL0     H25231   4.672   1.831  10.992  2.6870  0.6704 -1.4106
  187MOL0     H25232   4.887   1.777  10.903  2.8609 -3.3229 -3.2004
  187MOL0     H25233   5.214   1.613  10.718  0.0938  2.3721  1.3148
  187MOL0     H25234   5.448   1.596  10.666 -0.9604  0.1119 -1.4227
  187MOL0     H25235   5.695   1.511  10.614 -1.5398 -4.1040  0.9105
  187MOL0     H25236   5.635   1.649  10.719 -0.3030 -0.5475  2.5692
  187MOL0     H25237   5.891   1.495  10.766  0.3467  0.7727 -1.2091
  187MOL0     H25238   5.830   1.630  10.858 -1.1759  0.5954 -0.3336
  187MOL0     H25239   5.998   1.705  10.699 -0.2808  2.0526 -1.6419
  187MOL0     H25240   5.846   1.772  10.647 -1.1085 -0.2165  1.5672
  187MOL0     H25241   5.993   1.704  10.468 -0.6092  2.2063  2.3261
  187MOL0     H25242   5.838   1.644  10.451 -1.4864 -0.2702  0.5613
  187MOL0     H25243   6.004   1.258  10.526 -0.4215  0.1174 -0.8481
  187MOL0     H25244   5.513   1.308  10.979  1.0852 -1.2511 -2.4848
  187MOL0     H25245   5.274   1.315  11.034  0.9043 -1.7724 -0.5413
  188MOL0     O25246  11.077   8.133   3.370 -0.3793 -0.3992  0.7584
  188MOL0     C25247  11.165   8.146   3.455  0.3310 -0.7101  0.2130
  188MOL0     O25248  11.153   8.194   3.580  0.2004 -0.4867 -0.3745
  188MOL0     C25249  11.020   8.199   3.621 -0.4439  0.7706 -0.6838
  188MOL0     C25250  10.968   8.092   3.696 -0.2496  0.7435  0.1182
  188MOL0     C25251  10.842   8.092   3.747 -0.3860  0.2165 -0.8040
  188MOL0     C25252  10.773   8.212   3.736  0.6870 -0.0103  0.6855
  188MOL0     O25253  10.655   8.223   3.786  1.0592  0.2113  0.5461
  188MOL0     C25254  10.548   8.228   3.683 -0.8206  0.0402  0.1922
  188MOL0     C25255  10.405   8.209   3.738 -0.7013  0.0932  0.2525
  188MOL0     C25256  10.367   8.317   3.840  0.2748  0.2825  0.2822
  188MOL0     C25257  10.234   8.280   3.911  0.3652 -0.2548 -0.2098
  188MOL0     C25258  10.244   8.163   4.013 -1.1906  0.0465  0.0942
  188MOL0     C25259  10.258   8.232   4.147 -1.1303  0.4792 -1.0053
  188MOL0     C25260  10.298   8.118   4.249  0.0923 -0.9988  0.6393
  188MOL0     C25261  10.291   8.174   4.391 -0.2666 -0.5348  0.1067
  188MOL0     N25262  10.347   8.096   4.498 -1.4846  0.0304  0.5682
  188MOL0     C25263  10.487   8.084   4.515  0.8888 -0.4209 -0.6422
  188MOL0     C25264  10.498   8.028   4.640  0.5614  0.6279  0.2739
  188MOL0     C25265  10.632   7.981   4.696 -0.0861  0.2605 -0.6397
  188MOL0     C25266  10.643   7.828   4.687  0.1393  0.8138  0.3500
  188MOL0     C25267  10.779   7.789   4.755 -0.5828 -0.6471  0.4336
  188MOL0     C25268  10.827   7.656   4.710 -0.1700 -0.6423  0.2010
  188MOL0     O25269  10.737   7.539   4.735 -0.6951 -0.5993  0.4608
  188MOL0     C25270  10.674   7.539   4.858  0.8821  0.3443 -0.6389
  188MOL0     C25271  10.751   7.533   4.968 -0.7435 -0.2570 -0.4742
  188MOL0     C25272  10.693   7.529   5.095  0.3289 -0.4304  0.3935
  188MOL0     C25273  10.791   7.528   5.207  0.0705 -0.4616 -0.4479
  188MOL0     C25274  10.552   7.532   5.111  0.6156 -0.5819  0.2570
  188MOL0     C25275  10.489   7.521   5.250 -0.6803  0.7423  0.1223
  188MOL0     O25276  10.529   7.436   5.340 -0.7942  0.7230 -0.2760
  188MOL0     C25277  10.496   7.478   5.465  0.3082  0.0572  0.1453
  188MOL0     C25278  10.577   7.559   5.543  0.3772  0.5252  0.4009
  188MOL0     C25279  10.534   7.609   5.665  0.4640 -1.0017 -0.2559
  188MOL0     C25280  10.418   7.562   5.724 -0.1274  1.3569  0.1867
  188MOL0     O25281  10.389   7.590   5.853  0.0540 -0.3153 -0.1037
  188MOL0     C25282  10.313   7.488   5.930  0.2266  0.0626  0.6896
  188MOL0     C25283  10.375   7.511   6.073  0.6238 -0.2362  0.0228
  188MOL0     C25284  10.338   7.650   6.126 -0.3574 -0.5936 -0.7733
  188MOL0     C25285  10.365   7.662   6.275 -0.3787  0.0409  0.9307
  188MOL0     C25286  10.360   7.808   6.339 -0.6634  0.3386 -0.7908
  188MOL0     C25287  10.336   7.929   6.243 -0.4711 -0.6654  0.3210
  188MOL0     C25288  10.326   8.075   6.299 -0.4821  0.0217 -0.5306
  188MOL0     C25289  10.450   8.132   6.380 -0.7239  1.1541  0.1341
  188MOL0    Cl25290  10.600   8.116   6.294 -0.0373  0.0011 -0.3754
  188MOL0     C25291  10.340   7.467   5.651 -0.0508 -1.0263  0.4908
  188MOL0     C25292  10.380   7.428   5.520  0.7450  0.2172 -0.1506
  188MOL0     O25293  10.391   7.596   5.266 -0.6837  0.1991  0.6243
  188MOL0     C25294  10.466   7.548   4.996  0.0524 -0.5892  0.0939
  188MOL0     C25295  10.532   7.549   4.870  0.0059 -0.1300 -0.6096
  188MOL0     N25296  10.374   8.002   4.695 -0.2102  0.4695  0.2199
  188MOL0     N25297  10.278   8.045   4.607 -0.1497  0.5849 -0.3661
  188MOL0     C25298  10.827   8.324   3.662  0.9572  0.3520 -0.3128
  188MOL0     C25299  10.945   8.311   3.598  0.1109  0.3833  0.1085
  188MOL0     C25300  11.313   8.116   3.416  0.4071  0.0497 -0.2112
  188MOL0     C25301  11.416   8.125   3.514  0.2295  0.0890  0.6177
  188MOL0     C25302  11.555   8.104   3.481 -0.4251 -1.7207 -0.0895
  188MOL0     C25303  11.574   8.057   3.347 -0.3198 -0.1522  1.4978
  188MOL0     O25304  11.701   8.033   3.295 -0.5802  0.3455 -0.7099
  188MOL0     C25305  11.819   8.003   3.383  0.5529 -0.1298  0.2070
  188MOL0     C25306  11.939   8.005   3.293 -1.2177  0.1826 -0.3083
  188MOL0     C25307  11.916   7.932   3.162  0.5270 -0.4845 -0.0775
  188MOL0     C25308  11.888   7.787   3.179 -0.3105  0.2395  0.5651
  188MOL0     C25309  12.008   7.713   3.228  0.4090 -1.1712 -0.2324
  188MOL0     C25310  12.105   7.642   3.248 -0.2309  0.1767  0.5478
  188MOL0     C25311  11.475   8.053   3.253 -0.1064  0.0103  0.6810
  188MOL0     C25312  11.343   8.081   3.288  0.1467  0.4350  1.1547
  188MOL0     H25313  11.039   8.009   3.703  0.3662  1.1893 -0.6812
  188MOL0     H25314  10.818   8.003   3.803  2.1550 -0.8914 -1.3451
  188MOL0     H25315  10.544   8.323   3.630 -0.3286 -0.9790 -1.7492
  188MOL0     H25316  10.570   8.159   3.601  1.3357  2.1950 -1.1623
  188MOL0     H25317  10.334   8.223   3.656 -0.4001  0.7035  0.0880
  188MOL0     H25318  10.389   8.108   3.777  0.3603  0.5649  2.0139
  188MOL0     H25319  10.444   8.329   3.917  2.4154 -0.2807 -1.6189
  188MOL0     H25320  10.357   8.414   3.791  0.7308 -0.2382 -0.8855
  188MOL0     H25321  10.181   8.363   3.959  1.3950  0.8830 -0.9676
  188MOL0     H25322  10.162   8.247   3.835  2.6218 -0.1084 -2.5819
  188MOL0     H25323  10.153   8.104   4.022  0.3505 -2.4751  0.1189
  188MOL0     H25324  10.329   8.097   3.991 -1.9298 -1.0801  0.5154
  188MOL0     H25325  10.340   8.303   4.154  1.4972 -2.5153  2.5003
  188MOL0     H25326  10.159   8.274   4.168 -0.9434  0.2996  0.2969
  188MOL0     H25327  10.223   8.040   4.234 -1.7883  0.9124 -0.3025
  188MOL0     H25328  10.396   8.075   4.224 -0.5211 -0.8477 -2.3233
  188MOL0     H25329  10.186   8.198   4.408 -0.7506 -0.7071 -2.3224
  188MOL0     H25330  10.350   8.267   4.389  0.1719 -0.6658  2.7551
  188MOL0     H25331  10.565   8.125   4.453  2.0129 -0.9644  0.3722
  188MOL0     H25332  10.708   8.034   4.638  0.6923  1.1558  1.1243
  188MOL0     H25333  10.633   8.014   4.800 -0.7259  0.2492 -0.6229
  188MOL0     H25334  10.641   7.803   4.580 -1.0240 -4.9219  1.3871
  188MOL0     H25335  10.560   7.779   4.736 -0.5314  1.6543  0.0753
  188MOL0     H25336  10.771   7.798   4.864 -1.5073 -0.9324  0.3986
  188MOL0     H25337  10.853   7.863   4.722 -2.3526  0.4952 -1.1539
  188MOL0     H25338  10.927   7.634   4.749  0.2713 -0.3691 -0.7549
  188MOL0     H25339  10.846   7.652   4.602 -1.8160  1.4764 -0.2296
  188MOL0     H25340  10.859   7.539   4.959 -0.8858  1.3235 -1.6297
  188MOL0     H25341  10.886   7.486   5.173  0.3291 -1.1067  0.9982
  188MOL0     H25342  10.815   7.634   5.224 -2.9666  0.5840 -1.8367
  188MOL0     H25343  10.751   7.492   5.302 -0.0388  0.5658 -0.0894
  188MOL0     H25344  10.667   7.605   5.504 -0.1217 -0.3548 -1.9928
  188MOL0     H25345  10.596   7.682   5.715  0.4815 -0.2690 -1.3143
  188MOL0     H25346  10.206   7.506   5.927  0.2104 -0.0592 -1.0955
  188MOL0     H25347  10.343   7.387   5.900 -0.0878 -0.5905  2.4611
  188MOL0     H25348  10.338   7.431   6.138  0.6174 -1.3100 -1.2627
  188MOL0     H25349  10.484   7.504   6.070  0.5716 -0.6246 -1.5195
  188MOL0     H25350  10.230   7.662   6.109 -0.5150  0.3709  0.7588
  188MOL0     H25351  10.389   7.730   6.072 -2.0202  1.4414  0.5373
  188MOL0     H25352  10.310   7.587   6.332 -0.2241 -0.1989  0.7667
  188MOL0     H25353  10.471   7.639   6.287 -0.7207 -1.3023  1.5511
  188MOL0     H25354  10.456   7.828   6.388 -1.7950  2.1424  0.8225
  188MOL0     H25355  10.279   7.799   6.412  1.8931 -5.1450  1.9604
  188MOL0     H25356  10.413   7.921   6.165  0.7773 -1.7737  1.6280
  188MOL0     H25357  10.241   7.931   6.188  0.4176  4.2495 -1.5758
  188MOL0     H25358  10.245   8.070   6.372  1.8060  3.2984  2.5897
  188MOL0     H25359  10.311   8.138   6.210  0.8591 -1.7571 -2.0958
  188MOL0     H25360  10.463   8.089   6.480 -0.5706  1.8110  0.4049
  188MOL0     H25361  10.424   8.231   6.418 -0.9488 -0.8513  6.5421
  188MOL0     H25362  10.244   7.437   5.690  0.0623 -3.0339 -0.6368
  188MOL0     H25363  10.316   7.347   5.485  1.7174 -0.6862  0.0990
  188MOL0     H25364  10.358   7.558   5.005  0.3075  0.8810  2.4080
  188MOL0     H25365  10.484   7.572   4.776  3.5383  0.9328 -2.3370
  188MOL0     H25366  10.762   8.408   3.641 -0.8759 -0.9313 -0.0189
  188MOL0     H25367  10.993   8.396   3.551  2.0820 -0.8518 -0.2095
  188MOL0     H25368  11.406   8.145   3.621  2.0469 -0.3080  0.8941
  188MOL0     H25369  11.629   8.129   3.556  0.3663  2.0199 -1.8716
  188MOL0     H25370  11.830   8.081   3.459 -3.6217  1.8329 -0.8996
  188MOL0     H25371  11.809   7.906   3.431 -1.1464 -0.3769 -0.5945
  188MOL0     H25372  12.030   7.968   3.340  0.1947 -0.7307 -3.4528
  188MOL0     H25373  11.969   8.109   3.275  2.0177 -0.8812 -1.8242
  188MOL0     H25374  12.012   7.944   3.110  0.8914 -2.8230 -0.0842
  188MOL0     H25375  11.836   7.979   3.105  0.5320  0.4497  0.6679
  188MOL0     H25376  11.853   7.744   3.084 -1.2266  3.4537 -0.6954
  188MOL0     H25377  11.806   7.768   3.249 -0.0454 -0.4969  0.6909
  188MOL0     H25378  12.182   7.567   3.254 -1.0065 -0.5418  1.9558
  188MOL0     H25379  11.505   8.024   3.153  0.0642  1.3811  0.3134
  188MOL0     H25380  11.267   8.076   3.210  0.2159  0.5597  1.0792
  189MOL0     O25381   5.760   2.936   1.774  0.1434 -0.6655 -0.1894
  189MOL0     C25382   5.722   2.885   1.880  1.1910 -0.0324 -0.5214
  189MOL0     O25383   5.724   2.752   1.921  0.1014  0.1422 -0.7177
  189MOL0     C25384   5.790   2.649   1.860 -0.5470  0.3206  0.7593
  189MOL0     C25385   5.745   2.523   1.885 -0.3837  0.7729  0.0479
  189MOL0     C25386   5.811   2.411   1.839 -0.2237  0.0248  0.2475
  189MOL0     C25387   5.919   2.421   1.751  0.5579  0.6872  0.0682
  189MOL0     O25388   5.984   2.304   1.715  0.8790  0.4980 -0.0584
  189MOL0     C25389   6.053   2.319   1.593  0.2872  1.1403  0.3848
  189MOL0     C25390   6.056   2.180   1.540 -0.0951  0.6465  1.0743
  189MOL0     C25391   6.176   2.096   1.584 -0.4383 -0.5952  1.0766
  189MOL0     C25392   6.180   1.969   1.499  0.9320 -0.9060  0.1685
  189MOL0     C25393   6.316   1.885   1.501 -0.3850 -0.0990  0.7062
  189MOL0     C25394   6.303   1.740   1.464  0.2281  1.0781  0.5060
  189MOL0     C25395   6.438   1.675   1.504 -0.8542  0.6065  0.0396
  189MOL0     C25396   6.414   1.527   1.540 -0.8648  0.2758  0.0355
  189MOL0     N25397   6.534   1.449   1.571  0.0630  1.0641  0.4086
  189MOL0     C25398   6.608   1.390   1.475  0.3541  0.2697  0.0787
  189MOL0     C25399   6.712   1.328   1.541 -0.7774  0.2614  0.7270
  189MOL0     C25400   6.818   1.258   1.465 -0.9897  1.1675  0.4101
  189MOL0     C25401   6.815   1.106   1.495  0.0047  1.1009 -0.4726
  189MOL0     C25402   6.910   1.024   1.410 -0.5059  0.8566 -0.1375
  189MOL0     C25403   6.918   0.875   1.454  0.7478 -0.7850  0.1205
  189MOL0     O25404   6.954   0.859   1.595  0.1461 -0.2008 -0.8023
  189MOL0     C25405   7.010   0.741   1.630 -0.1804  0.3060 -0.3158
  189MOL0     C25406   7.138   0.730   1.672  0.1482 -0.2296 -0.2922
  189MOL0     C25407   7.196   0.607   1.716  0.0878 -0.8275  0.1088
  189MOL0     C25408   7.332   0.617   1.765 -1.1968 -0.9564  0.2650
  189MOL0     C25409   7.116   0.487   1.707 -0.3422 -0.7233 -0.2573
  189MOL0     C25410   7.150   0.348   1.762 -0.1008 -0.1612  0.9358
  189MOL0     O25411   7.072   0.245   1.719  0.7802 -0.0389 -0.3854
  189MOL0     C25412   7.102   0.129   1.780  0.9959 -1.0269 -0.5684
  189MOL0     C25413   7.204   0.045   1.736 -0.7648  0.1249 -0.2759
  189MOL0     C25414   7.220  -0.080   1.797 -0.7387 -0.4004  0.0837
  189MOL0     C25415   7.131  -0.117   1.895 -0.7948 -0.0788 -0.4092
  189MOL0     O25416   7.116  -0.241   1.944 -0.5027  0.2268 -0.2876
  189MOL0     C25417   7.230  -0.331   1.941 -0.6508  0.0284 -0.1740
  189MOL0     C25418   7.204  -0.466   2.020  0.0830 -0.0151 -1.0633
  189MOL0     C25419   7.336  -0.551   2.050  0.4369 -0.4257  0.3714
  189MOL0     C25420   7.456  -0.544   1.947  0.2382 -0.0600 -0.1782
  189MOL0     C25421   7.572  -0.644   1.996  0.3687 -0.8172  1.0946
  189MOL0     C25422   7.666  -0.602   2.103  0.2730 -0.6936  0.4154
  189MOL0     C25423   7.759  -0.720   2.135 -0.1569  0.4205  0.5575
  189MOL0     C25424   7.865  -0.659   2.223 -0.0509 -0.0937 -0.4335
  189MOL0    Cl25425   7.798  -0.663   2.381  0.3212 -0.6069 -0.0740
  189MOL0     C25426   7.046  -0.021   1.952 -0.0772  0.7252 -0.2907
  189MOL0     C25427   7.030   0.106   1.890  0.1499  0.5795  0.4676
  189MOL0     O25428   7.249   0.340   1.836 -0.3577  0.6469  0.3682
  189MOL0     C25429   6.992   0.500   1.647 -1.0555  0.0516  0.1248
  189MOL0     C25430   6.940   0.622   1.611 -0.5131  0.5913  0.3808
  189MOL0     N25431   6.705   1.360   1.674  0.2804 -0.0183  0.3587
  189MOL0     N25432   6.599   1.438   1.694  0.0122  0.7452 -0.6164
  189MOL0     C25433   5.960   2.549   1.717 -0.3544  0.0412  0.1441
  189MOL0     C25434   5.909   2.663   1.776 -0.3271  0.0777  0.0816
  189MOL0     C25435   5.648   2.989   1.966  0.6945  0.3189 -1.0086
  189MOL0     C25436   5.647   3.131   1.959  0.0868  1.0618  0.4889
  189MOL0     C25437   5.584   3.215   2.049 -0.4293 -0.6429  1.0192
  189MOL0     C25438   5.507   3.158   2.148  0.2463 -0.1118 -0.1284
  189MOL0     O25439   5.454   3.237   2.248  0.5456 -0.1337  0.1499
  189MOL0     C25440   5.399   3.179   2.370  0.5081  0.6558 -0.0576
  189MOL0     C25441   5.373   3.297   2.466 -0.4644 -0.1245 -0.6539
  189MOL0     C25442   5.358   3.237   2.602 -0.1903  0.3080  0.1245
  189MOL0     C25443   5.347   3.347   2.708  0.1909 -0.3874  0.2247
  189MOL0     C25444   5.313   3.289   2.835  0.8460 -0.1925 -0.3609
  189MOL0     C25445   5.331   3.254   2.948  0.2091  0.1423 -0.3776
  189MOL0     C25446   5.485   3.021   2.145  0.0509 -0.1874 -0.4257
  189MOL0     C25447   5.555   2.935   2.066  0.1847 -0.0295  1.2950
  189MOL0     H25448   5.654   2.518   1.944  1.3928 -1.3905  2.8338
  189MOL0     H25449   5.771   2.313   1.864  0.1105  0.3099  2.0970
  189MOL0     H25450   6.011   2.369   1.506  0.0548 -0.5994 -0.5453
  189MOL0     H25451   6.152   2.359   1.616  0.2793  0.0297  2.6700
  189MOL0     H25452   5.964   2.131   1.573 -1.2220  2.4076  0.7339
  189MOL0     H25453   6.056   2.183   1.431 -0.2092  2.3108  1.0819
  189MOL0     H25454   6.267   2.151   1.558  0.2178 -2.3225 -0.5559
  189MOL0     H25455   6.174   2.075   1.691 -0.4776  1.7744  1.5787
  189MOL0     H25456   6.097   1.905   1.532  0.5345 -0.7543 -0.5219
  189MOL0     H25457   6.176   2.005   1.395  0.4025  1.3556  0.9232
  189MOL0     H25458   6.381   1.928   1.425  2.5946 -3.0483  1.3628
  189MOL0     H25459   6.361   1.890   1.601  0.7629  1.0453  0.1535
  189MOL0     H25460   6.215   1.709   1.521 -0.5266  3.2295  0.6327
  189MOL0     H25461   6.284   1.724   1.358 -0.8769 -3.7085  1.1982
  189MOL0     H25462   6.501   1.690   1.416 -0.4180 -2.1983 -0.2184
  189MOL0     H25463   6.490   1.725   1.586 -1.5017  0.8383  0.3159
  189MOL0     H25464   6.364   1.482   1.454 -1.3767 -2.3404  1.5938
  189MOL0     H25465   6.350   1.522   1.628  0.3283 -3.5027  0.9203
  189MOL0     H25466   6.580   1.391   1.371 -0.5695 -0.0728  0.3132
  189MOL0     H25467   6.817   1.278   1.358 -2.3112  1.3266  0.4275
  189MOL0     H25468   6.914   1.290   1.507  1.3496 -0.9981 -2.8402
  189MOL0     H25469   6.716   1.066   1.470  0.9557 -0.6548 -1.5916
  189MOL0     H25470   6.824   1.081   1.601 -0.6405 -1.4296 -0.9431
  189MOL0     H25471   7.008   1.073   1.410  1.0882 -2.0817  0.9756
  189MOL0     H25472   6.872   1.018   1.308 -2.8776 -2.1144  0.7579
  189MOL0     H25473   6.989   0.825   1.387  0.6117  0.5850 -1.0912
  189MOL0     H25474   6.814   0.842   1.452  0.1776  0.8331  0.9552
  189MOL0     H25475   7.190   0.825   1.678  0.6225 -0.5133  0.2147
  189MOL0     H25476   7.327   0.616   1.875 -0.5306 -0.5834  0.3037
  189MOL0     H25477   7.393   0.528   1.746  1.3859  0.5976  0.6585
  189MOL0     H25478   7.388   0.704   1.729 -0.1290 -0.6929  2.3658
  189MOL0     H25479   7.264   0.076   1.651  0.3214 -2.4767 -0.5503
  189MOL0     H25480   7.291  -0.156   1.767  0.0457 -1.3404  3.7988
  189MOL0     H25481   7.277  -0.345   1.843  0.9101 -1.8172  0.7612
  189MOL0     H25482   7.306  -0.278   1.999 -0.6443 -1.4329  1.2416
  189MOL0     H25483   7.160  -0.431   2.114  0.6531  1.3748 -1.2890
  189MOL0     H25484   7.134  -0.531   1.967 -2.8117  0.1179  2.2765
  189MOL0     H25485   7.300  -0.653   2.069  0.2574 -0.5110 -0.4021
  189MOL0     H25486   7.363  -0.522   2.152 -3.5329  2.5519  0.8184
  189MOL0     H25487   7.413  -0.582   1.854 -0.7499  0.6232 -0.0148
  189MOL0     H25488   7.500  -0.446   1.931  0.5878 -0.2455 -0.3715
  189MOL0     H25489   7.642  -0.659   1.913  2.1917  0.3671  2.3359
  189MOL0     H25490   7.527  -0.740   2.022  2.2078 -2.3386 -0.8815
  189MOL0     H25491   7.720  -0.517   2.060 -2.1443  0.2265 -0.9955
  189MOL0     H25492   7.599  -0.575   2.185 -0.0303  2.0230 -0.6035
  189MOL0     H25493   7.799  -0.766   2.045 -0.3735 -0.3571  0.8561
  189MOL0     H25494   7.715  -0.804   2.189  2.9093 -0.7186  1.5084
  189MOL0     H25495   7.886  -0.557   2.189  2.0390 -0.6979 -1.0873
  189MOL0     H25496   7.957  -0.717   2.217 -1.5778 -3.3322  2.9843
  189MOL0     H25497   6.981  -0.047   2.035  2.7189 -0.3837  1.7230
  189MOL0     H25498   6.957   0.178   1.923 -1.2206  0.4812 -2.0565
  189MOL0     H25499   6.925   0.415   1.648 -0.7087 -0.2506 -1.0488
  189MOL0     H25500   6.835   0.628   1.585 -0.8197 -2.4036  0.5131
  189MOL0     H25501   6.053   2.555   1.661  0.0042 -1.1490  0.5696
  189MOL0     H25502   5.958   2.758   1.758  1.3551 -1.0490 -1.5984
  189MOL0     H25503   5.695   3.180   1.875  1.2753 -1.4159 -0.3660
  189MOL0     H25504   5.584   3.323   2.042  3.1670 -0.6651 -3.3171
  189MOL0     H25505   5.298   3.136   2.366  0.6680  0.0169  1.8479
  189MOL0     H25506   5.452   3.090   2.402 -0.7419  0.3848  1.3896
  189MOL0     H25507   5.281   3.347   2.435 -3.0938 -5.3142 -2.5860
  189MOL0     H25508   5.452   3.372   2.463 -0.3523 -0.1817  0.3799
  189MOL0     H25509   5.440   3.169   2.625 -0.5218 -0.3340 -0.5434
  189MOL0     H25510   5.261   3.187   2.595 -0.2103  0.3886 -0.2100
  189MOL0     H25511   5.266   3.417   2.686  0.8208  1.5502  3.4427
  189MOL0     H25512   5.435   3.412   2.718 -1.8065  2.3244  1.4227
  189MOL0     H25513   5.365   3.218   3.042  0.8342  1.8610  0.0976
  189MOL0     H25514   5.419   2.989   2.225  1.9539  0.0022  1.2908
  189MOL0     H25515   5.538   2.828   2.068  1.1961 -0.2573 -0.3646
  190MOL0     O25516   8.122   7.729   6.466 -0.7522 -0.5795 -0.3541
  190MOL0     C25517   8.053   7.703   6.373  0.2982  0.3303  0.7383
  190MOL0     O25518   8.077   7.730   6.239  0.1634 -0.1787  0.7835
  190MOL0     C25519   8.205   7.759   6.192  0.0356  0.0582 -0.7844
  190MOL0     C25520   8.222   7.861   6.100  0.4037 -0.6176 -0.1916
  190MOL0     C25521   8.345   7.890   6.040 -0.2551 -0.4957 -0.0184
  190MOL0     C25522   8.462   7.823   6.084 -0.0602  0.4224  0.0554
  190MOL0     O25523   8.587   7.831   6.019  1.9386 -0.5612 -0.7483
  190MOL0     C25524   8.611   7.941   5.932 -0.0558 -0.1572  0.4674
  190MOL0     C25525   8.753   7.917   5.885 -0.9471  0.0823 -0.1041
  190MOL0     C25526   8.861   7.950   5.992 -0.4483  0.5423 -0.0830
  190MOL0     C25527   8.999   7.957   5.928  0.1464  0.0070  0.1197
  190MOL0     C25528   9.100   7.943   6.038 -0.1586  0.2370  0.2311
  190MOL0     C25529   9.249   7.958   5.996  0.1822  0.3336  0.0083
  190MOL0     C25530   9.340   7.955   6.115  0.6384  0.7173  0.2125
  190MOL0     C25531   9.350   7.826   6.188 -0.1448  0.3245  0.1625
  190MOL0     N25532   9.253   7.778   6.276 -0.4909 -0.2057  0.7899
  190MOL0     C25533   9.163   7.668   6.251  0.0883 -0.7129 -0.4144
  190MOL0     C25534   9.071   7.673   6.350 -0.4591 -0.7932 -0.5987
  190MOL0     C25535   8.954   7.589   6.395 -0.1392  0.0157  0.1146
  190MOL0     C25536   8.863   7.582   6.269  1.0805  0.0843  0.1805
  190MOL0     C25537   8.856   7.446   6.205  0.3982 -0.2477 -0.2984
  190MOL0     C25538   8.719   7.422   6.134  0.5285  0.0822  0.2287
  190MOL0     O25539   8.705   7.290   6.093  0.6823 -0.9408  0.3116
  190MOL0     C25540   8.590   7.254   6.028  0.0802  0.1930  0.3479
  190MOL0     C25541   8.584   7.120   5.986 -0.0344 -0.8102 -0.3676
  190MOL0     C25542   8.460   7.070   5.942  0.9048 -0.1993 -1.1507
  190MOL0     C25543   8.457   6.922   5.922  0.0719  0.2060 -0.2150
  190MOL0     C25544   8.344   7.158   5.923  0.5215 -0.3844 -0.2153
  190MOL0     C25545   8.206   7.118   5.878 -0.4875 -0.1897  0.1971
  190MOL0     O25546   8.175   6.980   5.883 -0.2650  0.0381  0.3749
  190MOL0     C25547   8.044   6.960   5.853 -0.2526 -0.4980  0.1881
  190MOL0     C25548   7.959   6.950   5.960  0.1055 -0.1319  0.2130
  190MOL0     C25549   7.827   6.907   5.942 -0.7351 -0.0374 -0.3304
  190MOL0     C25550   7.781   6.879   5.813  0.3415  0.2905 -0.0728
  190MOL0     O25551   7.648   6.845   5.789 -0.0848  0.4117 -0.5454
  190MOL0     C25552   7.608   6.738   5.881 -0.8034  0.2514  0.4294
  190MOL0     C25553   7.485   6.676   5.809  0.2511 -1.4399 -0.1484
  190MOL0     C25554   7.514   6.639   5.669 -0.2877 -0.3586  0.6136
  190MOL0     C25555   7.582   6.501   5.643 -0.1058 -0.4035 -0.6815
  190MOL0     C25556   7.616   6.496   5.492 -0.7673 -0.0250 -0.1093
  190MOL0     C25557   7.729   6.587   5.456  0.9079  0.2057 -0.0521
  190MOL0     C25558   7.861   6.535   5.506 -1.0330 -0.5704  0.2498
  190MOL0     C25559   7.972   6.631   5.462  0.4752  1.2919 -0.1653
  190MOL0    Cl25560   8.101   6.619   5.579  0.3592 -0.0012 -0.4074
  190MOL0     C25561   7.865   6.895   5.700  0.2113  0.6252  0.1392
  190MOL0     C25562   7.994   6.935   5.716 -0.2922 -0.0598 -0.3381
  190MOL0     O25563   8.123   7.209   5.851 -0.3695  0.3057  0.0632
  190MOL0     C25564   8.364   7.297   5.952  0.1598 -0.6069  0.2904
  190MOL0     C25565   8.487   7.344   5.998 -0.0143 -0.7400 -0.1173
  190MOL0     N25566   9.105   7.791   6.427  0.0720  0.8332 -0.6230
  190MOL0     N25567   9.208   7.847   6.384 -0.7870 -0.2648 -0.0518
  190MOL0     C25568   8.442   7.708   6.174 -0.0392  0.2037 -0.4191
  190MOL0     C25569   8.315   7.678   6.222 -0.5241  1.1401 -0.5462
  190MOL0     C25570   7.914   7.649   6.403  0.2673 -0.1292  0.0131
  190MOL0     C25571   7.818   7.629   6.309  0.4064 -0.0142 -0.4746
  190MOL0     C25572   7.689   7.600   6.337  0.0102 -0.5469 -0.0086
  190MOL0     C25573   7.668   7.573   6.474  0.0972  0.1352  0.0574
  190MOL0     O25574   7.540   7.536   6.516 -0.0559 -0.4500 -1.0289
  190MOL0     C25575   7.446   7.640   6.484  0.0013  0.6440  0.1160
  190MOL0     C25576   7.302   7.574   6.483  0.2975 -0.3653 -0.5469
  190MOL0     C25577   7.279   7.482   6.366 -0.5845 -0.7729 -0.2337
  190MOL0     C25578   7.226   7.546   6.239  0.5029  0.5345 -0.5599
  190MOL0     C25579   7.258   7.689   6.204 -0.5572  0.7069 -0.8193
  190MOL0     C25580   7.268   7.808   6.179  0.0693  0.5333  1.0684
  190MOL0     C25581   7.764   7.587   6.579  0.4647  0.6103 -0.3730
  190MOL0     C25582   7.885   7.620   6.536 -0.3971 -0.5605 -0.8190
  190MOL0     H25583   8.136   7.916   6.064  1.6675  0.9709 -0.9023
  190MOL0     H25584   8.337   7.975   5.972 -2.2112  1.4401  2.4085
  190MOL0     H25585   8.539   7.947   5.850  3.2892  2.5998 -2.6261
  190MOL0     H25586   8.602   8.038   5.981  0.0832 -0.8354  1.8983
  190MOL0     H25587   8.774   7.817   5.845  1.3338  0.2605  0.5037
  190MOL0     H25588   8.758   7.983   5.798 -2.0753  0.6859  0.2646
  190MOL0     H25589   8.832   8.055   6.004  0.5301  0.9861 -1.2801
  190MOL0     H25590   8.870   7.891   6.084  0.2883 -0.8406 -1.0154
  190MOL0     H25591   9.001   7.864   5.870 -0.2573 -0.0344  0.1671
  190MOL0     H25592   9.017   8.045   5.865 -1.8517 -0.0079 -0.5562
  190MOL0     H25593   9.083   8.016   6.118  1.4124 -0.0408  0.8387
  190MOL0     H25594   9.073   7.848   6.084 -0.5835  0.6609  0.8842
  190MOL0     H25595   9.276   7.888   5.917 -1.0268  2.5851 -2.5655
  190MOL0     H25596   9.250   8.055   5.946 -1.5392 -0.9014 -2.6495
  190MOL0     H25597   9.439   7.978   6.074  0.8803  1.4428  1.1794
  190MOL0     H25598   9.305   8.038   6.176  0.6030 -1.0859  2.8041
  190MOL0     H25599   9.446   7.827   6.242  1.1130 -3.1473 -1.6725
  190MOL0     H25600   9.374   7.755   6.109  0.2184  2.7312 -2.0517
  190MOL0     H25601   9.173   7.586   6.181  3.9788 -1.2746  0.5786
  190MOL0     H25602   8.987   7.487   6.416 -2.0252 -0.5162  0.7211
  190MOL0     H25603   8.909   7.635   6.483  1.6200 -0.0644  1.0875
  190MOL0     H25604   8.893   7.657   6.195  1.2261 -0.1152  0.0388
  190MOL0     H25605   8.761   7.604   6.303  1.2580 -1.1557  1.6350
  190MOL0     H25606   8.865   7.368   6.281  0.4172  0.9103  0.9328
  190MOL0     H25607   8.936   7.434   6.132 -0.3895 -1.7560 -0.9531
  190MOL0     H25608   8.712   7.476   6.039 -0.7544 -0.8701 -0.2583
  190MOL0     H25609   8.651   7.458   6.212 -0.4831 -0.6272 -0.3085
  190MOL0     H25610   8.676   7.065   6.004 -0.4208 -1.2674  0.2507
  190MOL0     H25611   8.376   6.877   5.982 -2.7743  2.4300 -2.1172
  190MOL0     H25612   8.429   6.899   5.819  0.3830 -3.1031  0.3272
  190MOL0     H25613   8.557   6.888   5.951  0.9045  2.5526 -0.1880
  190MOL0     H25614   7.992   6.966   6.063  3.0292 -2.6760 -0.2076
  190MOL0     H25615   7.756   6.922   6.023  0.5756  0.7710  0.7127
  190MOL0     H25616   7.690   6.669   5.902  0.7613  1.5500 -1.0624
  190MOL0     H25617   7.575   6.774   5.979 -1.8243  1.1779 -0.2364
  190MOL0     H25618   7.458   6.589   5.870  0.6985 -0.0789  2.1185
  190MOL0     H25619   7.404   6.749   5.812 -0.0685 -1.7832 -0.3408
  190MOL0     H25620   7.573   6.714   5.616 -0.3585 -0.6938  0.0562
  190MOL0     H25621   7.412   6.642   5.631 -0.2508  1.5083  0.5677
  190MOL0     H25622   7.671   6.479   5.701  0.0046 -1.8996 -1.3677
  190MOL0     H25623   7.507   6.422   5.657  0.1050 -0.4496  0.2189
  190MOL0     H25624   7.544   6.521   5.413  1.7560  3.2950 -1.6092
  190MOL0     H25625   7.654   6.396   5.467  0.7095 -0.1115  2.1577
  190MOL0     H25626   7.729   6.590   5.346  2.1876  2.3937 -0.0467
  190MOL0     H25627   7.707   6.692   5.476  0.4371 -0.1144  1.2394
  190MOL0     H25628   7.893   6.441   5.459  0.8893  0.7386 -1.2410
  190MOL0     H25629   7.858   6.524   5.615 -0.3114 -3.6623  0.0497
  190MOL0     H25630   7.929   6.731   5.459 -0.3933  1.0897  2.6556
  190MOL0     H25631   8.005   6.605   5.361 -0.3608  1.2249 -0.4285
  190MOL0     H25632   7.834   6.875   5.598  4.6409 -1.1682 -1.0879
  190MOL0     H25633   8.065   6.939   5.634 -1.1769 -1.7071 -1.2533
  190MOL0     H25634   8.287   7.365   5.916  1.2245 -0.3899 -1.7240
  190MOL0     H25635   8.498   7.452   6.003  4.3570 -1.0008 -0.6364
  190MOL0     H25636   8.523   7.639   6.192  1.2188  1.4214 -1.1875
  190MOL0     H25637   8.316   7.594   6.291  1.3914  0.9603 -0.7496
  190MOL0     H25638   7.846   7.640   6.205  2.4696  2.3422  0.2467
  190MOL0     H25639   7.620   7.583   6.256  1.6701  1.3406 -1.9635
  190MOL0     H25640   7.429   7.717   6.560 -0.9517 -0.5800  1.2103
  190MOL0     H25641   7.457   7.698   6.393  1.5554  0.5000  0.1935
  190MOL0     H25642   7.230   7.657   6.486  3.1770  2.3303  2.2409
  190MOL0     H25643   7.299   7.529   6.582 -0.2235  2.8750  1.0533
  190MOL0     H25644   7.201   7.406   6.384  2.2234 -3.9072 -0.2366
  190MOL0     H25645   7.371   7.422   6.360  0.4169  0.7342 -0.4172
  190MOL0     H25646   7.117   7.538   6.247  0.5216  0.7501 -0.0508
  190MOL0     H25647   7.256   7.473   6.163  0.7140  1.0668 -0.9919
  190MOL0     H25648   7.273   7.908   6.140  0.3142  0.6117  1.3025
  190MOL0     H25649   7.740   7.562   6.682  2.5331  0.9209  0.2274
  190MOL0     H25650   7.955   7.625   6.619 -0.3266 -2.8562 -0.6831
  191MOL0     O25651  10.095   0.653   9.834  0.2280  0.3978  0.6008
  191MOL0     C25652  10.163   0.572   9.773  0.6210  0.6827  0.5102
  191MOL0     O25653  10.175   0.572   9.643 -0.1820  0.5623 -0.4318
  191MOL0     C25654  10.134   0.670   9.568 -0.3301 -0.3062  0.9022
  191MOL0     C25655  10.229   0.707   9.466 -0.5595 -0.9933 -0.0873
  191MOL0     C25656  10.202   0.821   9.390  0.7660 -0.2075  0.8228
  191MOL0     C25657  10.083   0.900   9.398  0.7539  0.9165  0.2529
  191MOL0     O25658  10.049   1.009   9.322  0.2382 -0.6610  0.5105
  191MOL0     C25659  10.147   1.074   9.242 -0.1427 -0.0808 -1.6272
  191MOL0     C25660  10.092   1.213   9.210 -0.0962  0.1214  0.2678
  191MOL0     C25661   9.959   1.208   9.139  0.1738  0.0705 -0.1895
  191MOL0     C25662   9.962   1.144   8.999 -0.2924  0.5380  0.3345
  191MOL0     C25663   9.828   1.153   8.910 -0.4175 -0.6378  0.2530
  191MOL0     C25664   9.774   1.287   8.887 -0.7483 -0.1827 -0.3159
  191MOL0     C25665   9.629   1.286   8.846 -0.3855 -0.5633  0.2532
  191MOL0     C25666   9.599   1.234   8.709 -0.4021 -0.1731  0.0646
  191MOL0     N25667   9.638   1.326   8.601 -0.6243  0.5828  0.1354
  191MOL0     C25668   9.561   1.429   8.558 -0.4782  0.3698 -1.0081
  191MOL0     C25669   9.633   1.488   8.455  0.1426 -0.5286 -0.0880
  191MOL0     C25670   9.590   1.617   8.392 -0.5509 -0.0384  0.1821
  191MOL0     C25671   9.662   1.738   8.453  0.2588 -0.5610 -0.0640
  191MOL0     C25672   9.621   1.758   8.601 -0.7980 -0.2335 -0.0011
  191MOL0     C25673   9.690   1.873   8.670 -0.1979 -0.4694 -0.0136
  191MOL0     O25674   9.731   1.859   8.807 -0.2028 -0.0430  0.5759
  191MOL0     C25675   9.855   1.806   8.839  0.2524 -1.0656  0.6774
  191MOL0     C25676   9.970   1.885   8.824 -0.3082 -0.1298  0.0606
  191MOL0     C25677  10.098   1.830   8.831  0.1123  0.4276 -0.4230
  191MOL0     C25678  10.212   1.929   8.812  1.1409 -0.2458  0.3271
  191MOL0     C25679  10.117   1.688   8.861 -1.4087  0.4153 -0.1733
  191MOL0     C25680  10.250   1.626   8.865 -0.9004  0.4452  0.3503
  191MOL0     O25681  10.251   1.493   8.906 -0.2721 -0.4970 -0.2642
  191MOL0     C25682  10.372   1.431   8.928 -0.6066 -0.8612  0.2906
  191MOL0     C25683  10.388   1.303   8.894 -0.3140 -0.1339  0.4591
  191MOL0     C25684  10.514   1.242   8.894 -0.4281  0.6120  0.0988
  191MOL0     C25685  10.623   1.313   8.933 -0.0346  0.1190 -0.3472
  191MOL0     O25686  10.744   1.245   8.930  0.2700 -0.2550 -0.6402
  191MOL0     C25687  10.777   1.172   9.053  0.6569 -0.1930 -0.1475
  191MOL0     C25688  10.862   1.054   9.004  0.5009 -0.1552 -0.1809
  191MOL0     C25689  10.800   0.969   8.895  0.4449 -0.3272 -0.3743
  191MOL0     C25690  10.898   0.914   8.784  0.1583 -0.1203  0.1113
  191MOL0     C25691  11.009   0.853   8.862 -0.1336  0.2026  0.7292
  191MOL0     C25692  11.091   0.756   8.774  0.2628  0.8849  0.4434
  191MOL0     C25693  11.142   0.815   8.638  0.4509  0.2090 -0.0786
  191MOL0     C25694  11.203   0.699   8.551  0.7591  0.3417  0.2781
  191MOL0    Cl25695  11.340   0.639   8.633 -0.4127  0.0963  0.1326
  191MOL0     C25696  10.610   1.438   8.984 -0.5770 -0.8331 -0.1940
  191MOL0     C25697  10.483   1.493   8.982 -0.1033 -0.5307 -0.4760
  191MOL0     O25698  10.337   1.679   8.794  0.1314 -0.2571  0.0066
  191MOL0     C25699   9.998   1.615   8.898 -0.1565 -0.4652  0.2251
  191MOL0     C25700   9.869   1.675   8.875  0.0807  0.0265  0.4251
  191MOL0     N25701   9.748   1.409   8.428 -0.2736 -0.5839 -0.5682
  191MOL0     N25702   9.749   1.324   8.518  0.2450  0.7440  0.0652
  191MOL0     C25703   9.981   0.850   9.485 -0.2710 -0.1094  0.4655
  191MOL0     C25704  10.018   0.745   9.571 -0.3730  0.5780 -0.8394
  191MOL0     C25705  10.244   0.463   9.841  0.1159 -0.1922 -0.2416
  191MOL0     C25706  10.221   0.431   9.976  0.5247  0.1323 -0.1403
  191MOL0     C25707  10.289   0.326  10.040  1.6773  0.5962  0.6929
  191MOL0     C25708  10.369   0.251   9.973 -0.4130  1.7028  1.0327
  191MOL0     O25709  10.402   0.131  10.038 -0.0064  0.5728 -0.5771
  191MOL0     C25710  10.490   0.042   9.957 -0.4210 -0.5217 -1.1663
  191MOL0     C25711  10.497  -0.100  10.010  0.6061  1.0089  0.2331
  191MOL0     C25712  10.559  -0.083  10.150 -0.4288  0.0726 -0.6767
  191MOL0     C25713  10.510  -0.200  10.236 -0.0953  0.4455 -0.5793
  191MOL0     C25714  10.552  -0.326  10.176  0.6688 -0.0081 -0.3140
  191MOL0     C25715  10.590  -0.425  10.113 -0.2442  0.3801  0.0141
  191MOL0     C25716  10.392   0.279   9.837  0.2960 -0.1422  0.4808
  191MOL0     C25717  10.334   0.384   9.775  0.3072 -0.1109  1.0597
  191MOL0     H25718  10.315   0.644   9.446 -0.0312  0.2311 -1.9255
  191MOL0     H25719  10.281   0.864   9.331  0.7920  0.6949  1.5007
  191MOL0     H25720  10.235   1.076   9.307 -0.0970 -4.2167 -1.3064
  191MOL0     H25721  10.172   1.020   9.150  0.8443 -3.0815  0.2674
  191MOL0     H25722  10.075   1.258   9.308 -1.3653 -0.7900  0.4908
  191MOL0     H25723  10.164   1.277   9.157  2.7052  0.2967  3.8553
  191MOL0     H25724   9.891   1.148   9.200  1.4909 -3.4640 -1.9255
  191MOL0     H25725   9.927   1.312   9.142 -0.3424 -0.0251  4.7225
  191MOL0     H25726  10.044   1.194   8.945 -0.6741  0.1286 -0.6505
  191MOL0     H25727   9.998   1.042   9.017  1.2564  0.8356 -0.8038
  191MOL0     H25728   9.855   1.101   8.817  1.1824 -0.4355  0.5644
  191MOL0     H25729   9.750   1.102   8.968 -0.7227  2.2396  2.6321
  191MOL0     H25730   9.772   1.340   8.983 -0.4619 -2.8232  1.2569
  191MOL0     H25731   9.845   1.343   8.827 -0.4629 -1.3265 -1.0930
  191MOL0     H25732   9.569   1.247   8.928 -0.4921  1.7372  1.3529
  191MOL0     H25733   9.605   1.393   8.846  0.6798 -0.2553  2.9673
  191MOL0     H25734   9.494   1.210   8.689  0.0910 -0.2817 -2.7363
  191MOL0     H25735   9.655   1.140   8.701 -1.0955 -0.4068 -3.8803
  191MOL0     H25736   9.465   1.447   8.607  0.2439 -2.1355  1.5970
  191MOL0     H25737   9.613   1.617   8.285 -2.3880 -1.5478 -0.2647
  191MOL0     H25738   9.483   1.624   8.410 -1.2879 -5.4767 -0.3220
  191MOL0     H25739   9.640   1.826   8.392  3.0783  0.6681  0.5031
  191MOL0     H25740   9.770   1.720   8.447  0.0518 -3.7137  2.6121
  191MOL0     H25741   9.644   1.665   8.654  0.3785 -0.2372 -0.4801
  191MOL0     H25742   9.513   1.773   8.596 -0.5230  1.7015 -0.9435
  191MOL0     H25743   9.606   1.941   8.686 -1.2245 -1.7419  0.1162
  191MOL0     H25744   9.770   1.916   8.609  1.0331 -1.2406  1.0134
  191MOL0     H25745   9.950   1.988   8.797  2.2860  0.0371 -1.5472
  191MOL0     H25746  10.185   2.034   8.821 -0.5411 -0.7369  1.6693
  191MOL0     H25747  10.285   1.922   8.894  1.2718  2.0148  0.4454
  191MOL0     H25748  10.266   1.910   8.719  2.5867  1.7830  0.6810
  191MOL0     H25749  10.320   1.232   8.847  0.1782  0.9003 -1.9929
  191MOL0     H25750  10.537   1.138   8.874 -1.7307  0.6279 -1.7973
  191MOL0     H25751  10.826   1.244   9.119 -2.2778  1.2700  0.6445
  191MOL0     H25752  10.686   1.138   9.105 -1.2366  0.5892 -2.7266
  191MOL0     H25753  10.950   1.100   8.958 -0.9976  2.2149 -0.8717
  191MOL0     H25754  10.892   0.995   9.091 -1.0495 -0.7378 -0.0080
  191MOL0     H25755  10.716   1.021   8.848  1.2992  0.7008 -0.8159
  191MOL0     H25756  10.752   0.877   8.929  1.3720 -1.5691 -2.2363
  191MOL0     H25757  10.850   0.846   8.713 -1.1528 -0.1200  0.9580
  191MOL0     H25758  10.940   0.991   8.719  1.2896  1.0117  2.0912
  191MOL0     H25759  10.961   0.813   8.952 -3.6118 -1.6436 -1.6854
  191MOL0     H25760  11.084   0.928   8.885  3.7898 -2.6804 -1.4371
  191MOL0     H25761  11.184   0.733   8.829  0.2337 -3.0777 -0.8422
  191MOL0     H25762  11.049   0.658   8.751  3.7712 -0.3125 -1.6629
  191MOL0     H25763  11.215   0.894   8.655  1.6930 -1.3957  2.7295
  191MOL0     H25764  11.058   0.856   8.581  1.2988 -0.2270 -1.7214
  191MOL0     H25765  11.214   0.732   8.447  0.9966 -2.6476 -0.7430
  191MOL0     H25766  11.135   0.613   8.548  0.6990  0.3255  1.5969
  191MOL0     H25767  10.703   1.485   9.014  0.6036 -3.2626  0.1600
  191MOL0     H25768  10.472   1.596   9.017 -1.4618 -0.9451  0.3750
  191MOL0     H25769  10.001   1.509   8.921  2.4798 -0.3652  0.6285
  191MOL0     H25770   9.785   1.607   8.882  1.2731 -1.4552  0.8641
  191MOL0     H25771   9.892   0.911   9.495 -0.7151 -0.7142  0.2667
  191MOL0     H25772   9.948   0.716   9.648  1.0611 -1.4221 -0.2136
  191MOL0     H25773  10.154   0.493  10.036 -1.2346  0.1091 -1.9703
  191MOL0     H25774  10.262   0.300  10.142  1.2815  0.6361  0.5988
  191MOL0     H25775  10.437   0.026   9.862 -1.3054  0.7064 -0.9066
  191MOL0     H25776  10.590   0.079   9.932 -0.2106 -0.7618 -0.6883
  191MOL0     H25777  10.558  -0.167   9.949  1.3136  0.6406  1.3116
  191MOL0     H25778  10.393  -0.133  10.020  1.1857 -0.8563  0.5431
  191MOL0     H25779  10.535   0.014  10.194 -3.8241  0.7605 -3.5945
  191MOL0     H25780  10.668  -0.081  10.139 -0.4352 -0.8829 -0.9928
  191MOL0     H25781  10.403  -0.204  10.254  0.0397 -2.2409  0.1741
  191MOL0     H25782  10.559  -0.201  10.334 -1.0100 -0.4619 -0.1187
  191MOL0     H25783  10.616  -0.511  10.056  1.7957  0.8735  0.1276
  191MOL0     H25784  10.464   0.215   9.787  2.6120  0.8568  2.3446
  191MOL0     H25785  10.365   0.421   9.677 -3.0953  3.0617  0.9621
  192MOL0     O25786   3.387   1.795   5.484  0.0152  0.4154 -0.1057
  192MOL0     C25787   3.432   1.774   5.375 -0.8156  0.3842 -0.2730
  192MOL0     O25788   3.373   1.744   5.252 -0.8279  0.0802  0.5445
  192MOL0     C25789   3.243   1.780   5.231  0.6384 -0.1038 -0.6003
  192MOL0     C25790   3.171   1.692   5.151  1.0164 -0.7086  0.3922
  192MOL0     C25791   3.043   1.724   5.107 -0.5236 -0.2569  0.6944
  192MOL0     C25792   2.991   1.855   5.136  0.8134  0.7250  0.2143
  192MOL0     O25793   2.868   1.887   5.078  0.2342 -0.3415 -0.2126
  192MOL0     C25794   2.829   2.020   5.076  0.1909 -0.1250  0.7073
  192MOL0     C25795   2.897   2.100   4.963  0.6474  0.5219 -0.7052
  192MOL0     C25796   3.038   2.157   4.983 -0.4322  0.3684 -1.3816
  192MOL0     C25797   3.079   2.220   4.851  0.9767  0.0419  0.3145
  192MOL0     C25798   3.237   2.224   4.834  0.0980  0.6341  0.8201
  192MOL0     C25799   3.297   2.344   4.763 -0.3048  0.3706 -0.1751
  192MOL0     C25800   3.451   2.328   4.766  0.5980 -0.0169 -0.1391
  192MOL0     C25801   3.541   2.443   4.714  0.5971  0.1069  0.0089
  192MOL0     N25802   3.677   2.423   4.759 -0.0793  0.4993  0.3759
  192MOL0     C25803   3.752   2.486   4.856  0.0662 -0.6787  1.9006
  192MOL0     C25804   3.877   2.439   4.837  0.0772  0.8408 -1.1815
  192MOL0     C25805   4.000   2.468   4.934  0.3056 -0.2957  0.4255
  192MOL0     C25806   4.132   2.478   4.847  1.1666  0.3840  0.8443
  192MOL0     C25807   4.251   2.515   4.936 -0.0922 -0.3983  0.3739
  192MOL0     C25808   4.292   2.400   5.018  0.2139  0.1319 -0.0503
  192MOL0     O25809   4.341   2.290   4.934 -0.8571  0.3695 -0.6207
  192MOL0     C25810   4.439   2.197   4.978  0.1464  0.1724  0.9245
  192MOL0     C25811   4.471   2.172   5.114  0.2063 -0.5885  0.4092
  192MOL0     C25812   4.573   2.084   5.148 -0.6046  0.4910 -0.5552
  192MOL0     C25813   4.612   2.071   5.297  0.7959  0.3394  0.4603
  192MOL0     C25814   4.644   2.008   5.046 -0.0518 -0.5206 -0.4464
  192MOL0     C25815   4.761   1.912   5.062 -1.4410  0.4297 -0.1357
  192MOL0     O25816   4.838   1.895   4.951  1.1074  0.4529  0.7675
  192MOL0     C25817   4.950   1.805   4.976 -0.1753  0.8971  0.3227
  192MOL0     C25818   5.077   1.853   5.012  0.9041 -1.0574  0.1940
  192MOL0     C25819   5.178   1.779   5.056 -0.4186  0.8249 -0.0248
  192MOL0     C25820   5.170   1.633   5.055 -0.7145 -1.0654  0.4054
  192MOL0     O25821   5.272   1.547   5.095  0.4243 -0.6212  0.6190
  192MOL0     C25822   5.379   1.604   5.165 -1.2460  0.0745  0.3292
  192MOL0     C25823   5.488   1.662   5.076  0.7287 -0.6718  0.5605
  192MOL0     C25824   5.581   1.553   5.012  0.4959 -0.9336  0.4416
  192MOL0     C25825   5.721   1.559   5.085 -0.6646 -0.3529  0.0018
  192MOL0     C25826   5.832   1.459   5.039  0.1747 -0.1323  0.5920
  192MOL0     C25827   5.964   1.467   5.116  0.3590  0.4650 -0.6444
  192MOL0     C25828   5.946   1.437   5.264  0.0685 -0.0427 -1.5117
  192MOL0     C25829   6.077   1.461   5.328 -0.3055  0.3102 -0.3509
  192MOL0    Cl25830   6.075   1.450   5.505 -0.3757 -0.3302  0.1791
  192MOL0     C25831   5.049   1.580   5.008  0.6039  0.9737 -0.6936
  192MOL0     C25832   4.937   1.666   4.980 -0.4926 -0.3342 -0.2016
  192MOL0     O25833   4.788   1.857   5.173 -0.0820 -0.5827  0.5487
  192MOL0     C25834   4.607   2.029   4.909 -0.2157 -0.0893 -0.0651
  192MOL0     C25835   4.509   2.125   4.879 -0.0006 -0.3892  0.2175
  192MOL0     N25836   3.877   2.337   4.745  0.0545 -0.6910  0.1930
  192MOL0     N25837   3.754   2.329   4.701  0.4688 -0.0465  0.0447
  192MOL0     C25838   3.058   1.937   5.228 -0.3706 -0.0984 -0.4885
  192MOL0     C25839   3.187   1.901   5.280  0.5291 -0.6547  0.1250
  192MOL0     C25840   3.582   1.752   5.378  0.0919 -0.0362 -0.1322
  192MOL0     C25841   3.635   1.654   5.294  0.0829 -0.2421  0.1208
  192MOL0     C25842   3.774   1.639   5.278 -0.1688 -0.6472  0.3361
  192MOL0     C25843   3.865   1.725   5.342 -0.4282  0.6283 -0.1622
  192MOL0     O25844   4.002   1.705   5.357 -0.1281 -0.9557 -0.5442
  192MOL0     C25845   4.065   1.666   5.236 -0.3712 -0.5883 -0.0046
  192MOL0     C25846   4.219   1.664   5.254  0.3308 -0.5050 -0.4224
  192MOL0     C25847   4.302   1.697   5.126  0.0713 -0.5600  0.0820
  192MOL0     C25848   4.443   1.740   5.145 -0.8653 -0.5680  0.4296
  192MOL0     C25849   4.521   1.633   5.191  0.6057 -0.3998 -0.3184
  192MOL0     C25850   4.582   1.537   5.232  0.4404 -0.3548 -0.4921
  192MOL0     C25851   3.809   1.830   5.418 -0.2897 -0.7319  0.1363
  192MOL0     C25852   3.669   1.838   5.431  0.1071  0.2154  0.5514
  192MOL0     H25853   3.224   1.605   5.114 -2.0864 -1.4110 -3.1213
  192MOL0     H25854   2.985   1.662   5.039 -1.4140 -0.1673  1.3491
  192MOL0     H25855   2.725   2.016   5.043  1.0609 -0.0442 -2.2560
  192MOL0     H25856   2.837   2.074   5.172  1.0054  1.5826 -0.2665
  192MOL0     H25857   2.901   2.034   4.875 -2.4804 -1.3304  0.3548
  192MOL0     H25858   2.838   2.190   4.945  3.0081  2.4978  0.7796
  192MOL0     H25859   3.036   2.220   5.073 -3.8833 -0.0855 -1.0155
  192MOL0     H25860   3.108   2.075   4.999 -0.1533  0.8974  0.2352
  192MOL0     H25861   3.047   2.161   4.765  0.3264  3.7217 -2.2098
  192MOL0     H25862   3.052   2.326   4.851  2.6914  0.6021  3.5212
  192MOL0     H25863   3.281   2.239   4.933  3.3389  3.2927 -0.8307
  192MOL0     H25864   3.272   2.130   4.792  1.7779  1.4042  0.3892
  192MOL0     H25865   3.266   2.351   4.658  1.8342  1.8787 -0.7957
  192MOL0     H25866   3.278   2.433   4.823 -1.2001 -0.7581  1.2555
  192MOL0     H25867   3.491   2.285   4.858  0.3021  2.3285  1.1488
  192MOL0     H25868   3.458   2.245   4.695 -2.6394 -1.2661  0.8380
  192MOL0     H25869   3.493   2.531   4.758  1.0856  0.7568 -0.7182
  192MOL0     H25870   3.534   2.442   4.605  2.9989 -1.8995 -0.2296
  192MOL0     H25871   3.720   2.567   4.920 -0.8550  0.8990 -0.4405
  192MOL0     H25872   3.980   2.562   4.986 -3.5915 -0.1154 -1.0770
  192MOL0     H25873   4.011   2.390   5.010  2.4554  1.0822  1.6433
  192MOL0     H25874   4.119   2.559   4.774 -0.7641 -0.9984 -0.4539
  192MOL0     H25875   4.140   2.381   4.797  1.5944  0.0890  1.4718
  192MOL0     H25876   4.224   2.600   4.999  2.2933  1.8527 -1.4506
  192MOL0     H25877   4.334   2.554   4.876  0.1724  1.4500  1.8614
  192MOL0     H25878   4.207   2.370   5.079  0.5917 -0.0946  0.3668
  192MOL0     H25879   4.354   2.440   5.099 -0.5428  1.3717 -0.0559
  192MOL0     H25880   4.427   2.226   5.197  1.7833 -0.2058  1.0192
  192MOL0     H25881   4.720   2.066   5.312  1.1892 -3.1746 -2.4337
  192MOL0     H25882   4.568   2.158   5.349  0.0733  0.0683  0.3134
  192MOL0     H25883   4.573   1.975   5.331 -1.1242 -0.4407 -3.4764
  192MOL0     H25884   5.084   1.961   5.021 -0.6172 -0.8906 -0.3222
  192MOL0     H25885   5.268   1.819   5.101  0.8606  0.2560 -1.9521
  192MOL0     H25886   5.349   1.664   5.252  0.0907 -1.7773  2.1627
  192MOL0     H25887   5.435   1.522   5.210  0.7462  0.7281 -0.7922
  192MOL0     H25888   5.436   1.714   4.995  0.4113 -1.5249  0.2042
  192MOL0     H25889   5.528   1.735   5.147 -2.2909 -0.5109  2.2922
  192MOL0     H25890   5.582   1.587   4.909 -0.9505 -1.1269  0.3450
  192MOL0     H25891   5.531   1.456   5.021 -0.3696 -0.8731 -2.6157
  192MOL0     H25892   5.767   1.658   5.080 -2.3809  0.4293 -1.0614
  192MOL0     H25893   5.702   1.535   5.190 -0.4793 -0.4282  0.0187
  192MOL0     H25894   5.864   1.486   4.938  3.8096 -1.8434  1.1054
  192MOL0     H25895   5.784   1.361   5.035 -1.2170  0.5565 -0.5896
  192MOL0     H25896   6.023   1.391   5.064  0.0242 -1.8190  2.0513
  192MOL0     H25897   6.008   1.566   5.105  2.6419 -0.0215  2.5533
  192MOL0     H25898   5.912   1.335   5.287  2.3604 -0.2131  1.8365
  192MOL0     H25899   5.875   1.510   5.302 -0.0413 -0.3985 -1.0148
  192MOL0     H25900   6.119   1.558   5.299  3.9980 -0.4823  2.2759
  192MOL0     H25901   6.147   1.386   5.291  1.3206  0.1269  2.7646
  192MOL0     H25902   5.027   1.474   5.015  0.1432  1.0282 -1.2395
  192MOL0     H25903   4.846   1.620   4.943  1.3583 -1.6213 -3.7413
  192MOL0     H25904   4.656   1.975   4.828 -0.6623 -1.3742  0.4984
  192MOL0     H25905   4.472   2.151   4.780 -0.3842 -3.1861 -0.4771
  192MOL0     H25906   3.004   2.024   5.263 -1.5458 -1.9894  2.8549
  192MOL0     H25907   3.247   1.974   5.334  2.1801  0.3751 -2.8947
  192MOL0     H25908   3.563   1.585   5.250  0.2528 -0.8083  0.7248
  192MOL0     H25909   3.812   1.561   5.213  0.9313 -0.1088  0.3187
  192MOL0     H25910   4.021   1.572   5.199 -0.8555 -0.1517 -0.5573
  192MOL0     H25911   4.036   1.731   5.153 -2.5596 -0.4375  0.8207
  192MOL0     H25912   4.257   1.564   5.277 -0.2548 -1.1613 -2.1430
  192MOL0     H25913   4.250   1.729   5.336  2.4930 -1.7895 -0.1576
  192MOL0     H25914   4.251   1.769   5.061  1.5697 -0.6438 -1.2621
  192MOL0     H25915   4.310   1.609   5.061 -1.4704 -0.8919  0.2997
  192MOL0     H25916   4.434   1.822   5.216 -2.3032  0.2978 -0.6922
  192MOL0     H25917   4.492   1.785   5.058 -2.1223  1.0851  0.5305
  192MOL0     H25918   4.638   1.463   5.286 -1.3140 -0.1160  1.8064
  192MOL0     H25919   3.872   1.909   5.457  0.7841 -0.4351 -2.0554
  192MOL0     H25920   3.623   1.922   5.483  2.0875  3.0672 -1.9486
  193MOL0     O25921   6.425   5.974   6.152  0.3599 -0.1216 -0.3113
  193MOL0     C25922   6.310   5.938   6.136 -0.0859 -0.5180  0.8733
  193MOL0     O25923   6.211   5.927   6.227  0.1316  0.0904 -0.1185
  193MOL0     C25924   6.237   5.959   6.365 -0.2084 -0.0448  0.3498
  193MOL0     C25925   6.278   6.089   6.404  0.5053 -1.0277  0.0485
  193MOL0     C25926   6.285   6.129   6.538 -0.1108  0.2103 -0.1925
  193MOL0     C25927   6.261   6.038   6.642  0.1940  0.1677 -0.0518
  193MOL0     O25928   6.277   6.082   6.769  0.2425 -0.2493 -0.4750
  193MOL0     C25929   6.331   5.997   6.874 -0.3761  0.1997 -0.3715
  193MOL0     C25930   6.319   6.061   7.011 -0.1523 -0.3974 -0.1651
  193MOL0     C25931   6.323   5.966   7.124 -0.3458  0.5899 -0.4002
  193MOL0     C25932   6.198   5.882   7.147 -0.1412  0.3218  0.5522
  193MOL0     C25933   6.084   5.961   7.208 -0.0177  0.0944 -0.6352
  193MOL0     C25934   5.939   5.916   7.180 -0.3310  0.3383 -0.3815
  193MOL0     C25935   5.901   5.906   7.036 -0.2366 -0.3584 -0.9799
  193MOL0     C25936   5.902   6.043   6.965  0.1504 -0.7428 -0.6324
  193MOL0     N25937   5.837   6.041   6.830 -0.5828 -0.5413  0.5211
  193MOL0     C25938   5.872   5.959   6.728 -0.4723  0.8513  0.1639
  193MOL0     C25939   5.796   5.996   6.622 -1.1394 -0.0054  0.6495
  193MOL0     C25940   5.811   5.918   6.490 -0.0310  0.0372 -0.3199
  193MOL0     C25941   5.829   6.007   6.365  0.6807 -1.1282 -0.2856
  193MOL0     C25942   5.823   5.916   6.241  0.7493 -0.3301  0.4485
  193MOL0     C25943   5.820   6.015   6.126  0.2569  0.4769  0.6868
  193MOL0     O25944   5.952   6.043   6.100  0.2976 -0.6944 -0.8042
  193MOL0     C25945   5.979   6.152   6.015 -0.5103  0.5711 -0.0266
  193MOL0     C25946   6.112   6.183   5.972 -0.0262  0.2023 -0.3123
  193MOL0     C25947   6.146   6.255   5.867  0.2431 -0.2415 -0.1372
  193MOL0     C25948   6.295   6.258   5.842  0.0921 -0.9499  0.3404
  193MOL0     C25949   6.053   6.331   5.796  0.1937 -0.3209  0.9755
  193MOL0     C25950   6.072   6.418   5.663 -0.3279 -0.1866 -0.4947
  193MOL0     O25951   6.207   6.433   5.632 -0.1791 -0.2228  0.2226
  193MOL0     C25952   6.255   6.513   5.525  0.1418  0.3438 -1.0071
  193MOL0     C25953   6.396   6.506   5.507 -0.1705 -0.1036  0.0511
  193MOL0     C25954   6.458   6.581   5.417  0.4001 -0.9261  0.2654
  193MOL0     C25955   6.389   6.656   5.329 -0.0836 -0.6307 -0.9455
  193MOL0     O25956   6.452   6.737   5.238  0.9804 -0.3096 -0.1190
  193MOL0     C25957   6.487   6.672   5.120 -0.0012  0.4409 -0.3208
  193MOL0     C25958   6.558   6.768   5.027  0.7858 -0.6838 -0.0179
  193MOL0     C25959   6.466   6.848   4.944 -0.5626  0.0159 -0.3392
  193MOL0     C25960   6.531   6.945   4.842  0.3489 -0.2608  0.0189
  193MOL0     C25961   6.438   7.024   4.739  0.3325  0.1256 -0.5848
  193MOL0     C25962   6.514   7.144   4.685 -1.0060 -0.4312  0.2797
  193MOL0     C25963   6.433   7.204   4.566  0.5058 -0.5805  0.0612
  193MOL0     C25964   6.519   7.306   4.494 -0.1287  0.5928 -0.1210
  193MOL0    Cl25965   6.553   7.455   4.584 -0.0456 -0.3718  0.0764
  193MOL0     C25966   6.255   6.648   5.326  0.7504  0.1813 -0.3745
  193MOL0     C25967   6.188   6.578   5.424 -0.1012  0.2949 -1.5148
  193MOL0     O25968   5.972   6.447   5.589 -0.1022  0.3000 -0.4286
  193MOL0     C25969   5.918   6.322   5.849 -0.5589 -0.2332 -0.5187
  193MOL0     C25970   5.890   6.233   5.949  0.7555 -0.8099  0.3233
  193MOL0     N25971   5.710   6.094   6.659 -1.0808  0.0306 -0.9660
  193MOL0     N25972   5.736   6.118   6.785 -0.1952  0.0753  0.2269
  193MOL0     C25973   6.211   5.908   6.604 -0.5619 -0.0744 -0.4581
  193MOL0     C25974   6.197   5.867   6.465  0.3453 -0.0800 -0.2653
  193MOL0     C25975   6.282   5.874   6.002  0.6908 -0.5426 -0.6358
  193MOL0     C25976   6.165   5.800   5.973 -0.9847 -0.1869 -0.1718
  193MOL0     C25977   6.165   5.731   5.853 -0.2760  0.2701 -0.6496
  193MOL0     C25978   6.274   5.726   5.756  0.0585 -1.4161 -0.7078
  193MOL0     O25979   6.278   5.654   5.640  0.8591  0.5925  0.1079
  193MOL0     C25980   6.158   5.625   5.569  0.1180 -0.1535 -0.4209
  193MOL0     C25981   6.198   5.570   5.432 -0.1902 -0.5777  0.1316
  193MOL0     C25982   6.076   5.523   5.340 -0.1091  1.2990 -0.1094
  193MOL0     C25983   6.112   5.517   5.197  0.1028 -0.3022  0.6516
  193MOL0     C25984   6.016   5.438   5.106  0.1281  0.5940 -0.8594
  193MOL0     C25985   5.941   5.361   5.042  0.2175  0.2801 -0.0251
  193MOL0     C25986   6.385   5.807   5.784 -0.7933 -0.5232  0.1380
  193MOL0     C25987   6.382   5.886   5.903  0.0334  0.4036  0.4112
  193MOL0     H25988   6.302   6.170   6.336  0.7952 -1.5004 -0.4279
  193MOL0     H25989   6.316   6.229   6.568 -1.9096  0.9944 -0.7764
  193MOL0     H25990   6.273   5.904   6.882 -0.6537  0.4951  1.7598
  193MOL0     H25991   6.437   5.975   6.858 -0.4170  1.9462 -3.9822
  193MOL0     H25992   6.398   6.136   7.018  1.8219 -2.3730 -0.3231
  193MOL0     H25993   6.224   6.116   7.006 -1.7965 -2.8185  1.7464
  193MOL0     H25994   6.409   5.900   7.110  1.0263  2.4019 -0.9210
  193MOL0     H25995   6.350   6.037   7.204 -1.1607  0.8058 -0.3095
  193MOL0     H25996   6.163   5.838   7.053 -0.7143 -0.4456  1.1162
  193MOL0     H25997   6.221   5.795   7.209  1.1226  1.6282  2.0150
  193MOL0     H25998   6.103   5.960   7.315 -1.4208 -2.3467 -0.3404
  193MOL0     H25999   6.091   6.067   7.181 -0.8407  0.9165  2.1267
  193MOL0     H26000   5.933   5.817   7.226  1.3074 -0.6606 -2.1783
  193MOL0     H26001   5.873   5.979   7.241 -1.0811  0.3007 -1.1294
  193MOL0     H26002   5.959   5.831   6.983  0.5468 -3.4186  3.6127
  193MOL0     H26003   5.799   5.867   7.041 -1.2494  2.0009 -1.7331
  193MOL0     H26004   6.007   6.070   6.947  0.7339 -2.5560 -0.0735
  193MOL0     H26005   5.858   6.124   7.024  0.6889 -0.4215 -0.6701
  193MOL0     H26006   5.942   5.876   6.725  0.1314  1.1236  3.1559
  193MOL0     H26007   5.907   5.866   6.500 -0.7578 -1.0114  1.7234
  193MOL0     H26008   5.725   5.851   6.483 -2.2238  1.6892  5.0896
  193MOL0     H26009   5.927   6.055   6.367  0.4043 -0.5718  1.3101
  193MOL0     H26010   5.757   6.089   6.365  2.0898  0.1762 -1.9292
  193MOL0     H26011   5.727   5.864   6.238 -0.1862  1.2222  1.5929
  193MOL0     H26012   5.908   5.849   6.229  1.3848  0.9667 -3.8475
  193MOL0     H26013   5.753   6.100   6.143 -1.1274  0.1768 -2.5926
  193MOL0     H26014   5.782   5.971   6.033  0.5501  1.9863 -0.1856
  193MOL0     H26015   6.185   6.122   6.023 -2.7664 -2.8280  0.3330
  193MOL0     H26016   6.350   6.176   5.889  1.6258  1.5780  3.3401
  193MOL0     H26017   6.301   6.233   5.736  0.2176  1.9588 -0.3949
  193MOL0     H26018   6.341   6.353   5.867 -0.5302 -0.8175  1.0328
  193MOL0     H26019   6.449   6.440   5.575 -0.7545 -0.9027 -0.2603
  193MOL0     H26020   6.566   6.588   5.408  0.4934 -0.1536  1.7013
  193MOL0     H26021   6.559   6.594   5.147  0.6746  0.4883 -1.8721
  193MOL0     H26022   6.390   6.639   5.080 -0.3152  0.3413  0.5008
  193MOL0     H26023   6.620   6.834   5.090 -1.5904 -2.0935  4.2411
  193MOL0     H26024   6.613   6.706   4.956 -2.5701 -0.3905 -3.1699
  193MOL0     H26025   6.392   6.901   5.005 -1.8103 -1.8175 -0.1698
  193MOL0     H26026   6.422   6.777   4.873  1.3725  0.7936 -2.4262
  193MOL0     H26027   6.574   7.018   4.912 -1.9004  1.0559  0.0994
  193MOL0     H26028   6.612   6.894   4.788 -1.4871 -0.4612 -2.7174
  193MOL0     H26029   6.345   7.059   4.786 -0.3065 -2.3848  0.1834
  193MOL0     H26030   6.418   6.960   4.653 -1.3072 -1.0741  0.6202
  193MOL0     H26031   6.529   7.218   4.764  1.6598 -1.6260  0.9974
  193MOL0     H26032   6.609   7.103   4.649 -0.8610 -1.4340  1.7256
  193MOL0     H26033   6.342   7.251   4.605  0.7194 -0.5396  0.5196
  193MOL0     H26034   6.419   7.121   4.496  1.6061 -1.0678  0.3985
  193MOL0     H26035   6.481   7.336   4.396  0.4040 -0.4129 -0.6624
  193MOL0     H26036   6.620   7.270   4.473  0.4686  2.5850 -0.8781
  193MOL0     H26037   6.211   6.727   5.267  2.2626  2.0638  0.9031
  193MOL0     H26038   6.081   6.596   5.435 -0.8574 -4.0734  0.4250
  193MOL0     H26039   5.846   6.377   5.791  0.4882  0.3544 -1.2933
  193MOL0     H26040   5.783   6.220   5.964  0.5598  1.8424  1.7942
  193MOL0     H26041   6.196   5.838   6.686  3.7239  0.3292  0.9168
  193MOL0     H26042   6.172   5.768   6.428  2.6480 -0.1160 -2.0236
  193MOL0     H26043   6.081   5.793   6.041 -0.6736  1.2093  0.3878
  193MOL0     H26044   6.086   5.660   5.827 -0.6342  0.2235  0.5102
  193MOL0     H26045   6.102   5.551   5.627 -1.0220  0.5064 -0.6530
  193MOL0     H26046   6.103   5.719   5.559  0.5284  0.1195 -0.1267
  193MOL0     H26047   6.269   5.486   5.435  0.1724 -0.3514 -1.2584
  193MOL0     H26048   6.248   5.654   5.382 -1.0817  0.1096  0.3740
  193MOL0     H26049   5.999   5.600   5.350 -0.9029  0.5646 -0.4040
  193MOL0     H26050   6.028   5.429   5.368  1.6123  0.4731  0.1740
  193MOL0     H26051   6.207   5.463   5.197  0.3927  0.1298 -1.3647
  193MOL0     H26052   6.128   5.615   5.150  1.7536 -1.7269 -2.0100
  193MOL0     H26053   5.878   5.285   4.999  0.2019 -0.3103  1.0109
  193MOL0     H26054   6.475   5.807   5.724 -0.1123 -0.3229  1.1333
  193MOL0     H26055   6.465   5.954   5.909  0.7993 -0.3756 -0.8682
  194MOL0     O26056   3.680  10.709   9.429  0.4792 -1.0317  0.3552
  194MOL0     C26057   3.804  10.701   9.417 -0.0243  0.0784  0.0822
  194MOL0     O26058   3.887  10.807   9.392  0.3785 -0.1583  0.3105
  194MOL0     C26059   3.843  10.937   9.373  0.4180  0.0350 -0.5039
  194MOL0     C26060   3.942  11.027   9.353  0.3440 -0.4783 -0.1367
  194MOL0     C26061   3.919  11.168   9.332  0.5118 -0.2815  0.2272
  194MOL0     C26062   3.786  11.213   9.316 -0.5896 -0.0599  0.3879
  194MOL0     O26063   3.750  11.341   9.291  0.8809 -0.0768  0.3212
  194MOL0     C26064   3.826  11.441   9.365  0.1928  0.4244  0.1934
  194MOL0     C26065   3.755  11.569   9.349 -0.0819  0.2136 -0.1799
  194MOL0     C26066   3.820  11.688   9.420 -0.6277  0.2047  0.2538
  194MOL0     C26067   3.724  11.809   9.416  0.2424  0.8476 -0.8889
  194MOL0     C26068   3.816  11.928   9.458  0.3214 -0.5414  0.2215
  194MOL0     C26069   3.744  12.037   9.547 -0.1073  1.0039 -0.3327
  194MOL0     C26070   3.815  12.165   9.566 -0.4730 -0.2914  0.0226
  194MOL0     C26071   3.926  12.139   9.677 -0.0064 -0.7324  0.2943
  194MOL0     N26072   4.013  12.253   9.693  0.2067 -2.0928  0.0698
  194MOL0     C26073   4.007  12.340   9.803  0.5771 -1.7622  0.2554
  194MOL0     C26074   4.123  12.414   9.801  1.3056  0.3815 -0.0493
  194MOL0     C26075   4.176  12.511   9.901  0.8571  0.4066 -0.3391
  194MOL0     C26076   4.142  12.463  10.051  0.8276  0.6631  0.9091
  194MOL0     C26077   4.163  12.576  10.152  0.4886  0.5598  0.4304
  194MOL0     C26078   4.123  12.510  10.287 -0.6942 -0.5073 -0.1339
  194MOL0     O26079   4.086  12.630  10.360  0.3315  0.3038 -1.2827
  194MOL0     C26080   4.006  12.620  10.475  0.0719  0.3863  0.7285
  194MOL0     C26081   3.934  12.505  10.509  0.2075 -0.8137 -0.0245
  194MOL0     C26082   3.856  12.502  10.632  0.3238 -0.2308  0.7796
  194MOL0     C26083   3.776  12.383  10.649 -0.0426  0.5507  0.6460
  194MOL0     C26084   3.855  12.610  10.718 -0.7625 -0.3991 -1.0122
  194MOL0     C26085   3.801  12.594  10.862 -0.8569  0.0939 -1.1098
  194MOL0     O26086   3.700  12.665  10.886 -1.2287 -0.2081 -0.7415
  194MOL0     C26087   3.612  12.619  10.981  0.2379 -0.2349  0.3932
  194MOL0     C26088   3.488  12.583  10.932  0.1241 -0.4624  0.5289
  194MOL0     C26089   3.386  12.536  11.024 -0.7906  0.0601  0.2759
  194MOL0     C26090   3.417  12.539  11.171 -0.0822 -0.3321 -0.0410
  194MOL0     O26091   3.326  12.503  11.261  0.1637  0.8704  0.3990
  194MOL0     C26092   3.372  12.420  11.364  0.2770 -0.2672 -0.4971
  194MOL0     C26093   3.349  12.483  11.500 -0.3334 -0.5785 -0.5038
  194MOL0     C26094   3.345  12.374  11.605 -0.3342 -0.5849 -0.6999
  194MOL0     C26095   3.282  12.424  11.733  0.4219 -0.1643 -0.1558
  194MOL0     C26096   3.258  12.310  11.828 -0.5798  0.6487 -0.5417
  194MOL0     C26097   3.213  12.372  11.968 -0.1726  0.3130 -0.5913
  194MOL0     C26098   3.163  12.268  12.067 -0.1025 -0.2364  0.0040
  194MOL0     C26099   3.047  12.180  12.031 -0.1155  0.1217  0.9655
  194MOL0    Cl26100   3.000  12.094  12.178  0.0644 -0.0133  0.3761
  194MOL0     C26101   3.547  12.592  11.212  0.8978 -0.0960 -0.3154
  194MOL0     C26102   3.640  12.637  11.120 -0.0831  1.0008 -0.4950
  194MOL0     O26103   3.853  12.517  10.941 -0.5390  0.8945 -0.0685
  194MOL0     C26104   3.923  12.730  10.679  0.1704  0.2069  0.0721
  194MOL0     C26105   3.986  12.735  10.555 -0.3074 -0.1819 -0.4699
  194MOL0     N26106   4.182  12.391   9.679  0.7576 -0.1053  0.6782
  194MOL0     N26107   4.113  12.303   9.615  0.1326 -0.1412 -0.1189
  194MOL0     C26108   3.682  11.118   9.328  0.4312 -0.0773 -0.8841
  194MOL0     C26109   3.713  10.977   9.347 -0.2360 -0.5351 -0.3102
  194MOL0     C26110   3.873  10.569   9.432  0.2657 -1.0074  1.0166
  194MOL0     C26111   4.000  10.554   9.393  0.1504  0.9512 -0.9940
  194MOL0     C26112   4.075  10.443   9.435 -0.0517  0.2532 -0.0721
  194MOL0     C26113   4.014  10.352   9.522  0.3846  0.2879 -0.1512
  194MOL0     O26114   4.082  10.233   9.559  0.3422 -0.1588 -0.3506
  194MOL0     C26115   4.186  10.195   9.471 -0.0388  0.3127  0.7560
  194MOL0     C26116   4.221  10.051   9.523 -0.2142  0.2482 -0.2140
  194MOL0     C26117   4.329   9.987   9.437  0.0075 -0.3756  1.1392
  194MOL0     C26118   4.470  10.045   9.450  0.3613 -0.2877  0.6413
  194MOL0     C26119   4.569   9.960   9.386  0.5636 -0.6598 -0.2716
  194MOL0     C26120   4.652   9.888   9.341 -1.0796 -0.6097 -0.3758
  194MOL0     C26121   3.888  10.371   9.571 -0.4461  0.2482  0.1403
  194MOL0     C26122   3.816  10.478   9.523  0.1196 -0.2237  1.1558
  194MOL0     H26123   4.048  11.004   9.364  0.8555  1.1554 -1.2058
  194MOL0     H26124   4.009  11.228   9.329  1.7568 -2.0879 -0.3373
  194MOL0     H26125   3.837  11.415   9.471 -1.5623  0.1576  0.3540
  194MOL0     H26126   3.919  11.461   9.313 -0.6063  0.5695 -1.2317
  194MOL0     H26127   3.748  11.596   9.243 -1.7831  0.2849 -0.0723
  194MOL0     H26128   3.655  11.548   9.386  0.6938  0.0739  1.9536
  194MOL0     H26129   3.852  11.658   9.521  0.8228 -1.9654 -0.7628
  194MOL0     H26130   3.917  11.711   9.374 -1.2916 -1.9666 -2.5093
  194MOL0     H26131   3.676  11.821   9.318  2.4922 -0.7790 -2.3058
  194MOL0     H26132   3.651  11.793   9.496  1.2061 -0.5712 -0.2610
  194MOL0     H26133   3.903  11.895   9.515  0.7072  1.9314  1.2076
  194MOL0     H26134   3.857  11.974   9.367 -0.1144 -0.3066  0.1453
  194MOL0     H26135   3.642  12.050   9.508  0.0551 -3.3044 -2.8453
  194MOL0     H26136   3.724  11.995   9.646 -0.2108 -0.8887 -1.1196
  194MOL0     H26137   3.859  12.207   9.475  0.8334  2.9467  1.9862
  194MOL0     H26138   3.743  12.243   9.591 -0.8334 -0.1737 -1.3110
  194MOL0     H26139   3.979  12.052   9.638 -0.8570  0.5318 -4.2525
  194MOL0     H26140   3.884  12.123   9.777  3.8529 -0.2566  2.1474
  194MOL0     H26141   3.927  12.346   9.877  1.4231 -0.9029  1.1194
  194MOL0     H26142   4.285  12.508   9.890  0.8435 -4.8643 -1.8644
  194MOL0     H26143   4.134  12.612   9.893  0.5505  0.3705  0.6368
  194MOL0     H26144   4.212  12.382  10.071 -0.5067 -1.7717 -3.1004
  194MOL0     H26145   4.039  12.431  10.069  0.7117  0.8118  0.5099
  194MOL0     H26146   4.099  12.662  10.129  2.4824  1.5417 -1.8496
  194MOL0     H26147   4.268  12.604  10.158  0.3570  0.7083  3.0306
  194MOL0     H26148   4.204  12.449  10.328 -0.9091 -1.0457 -0.4942
  194MOL0     H26149   4.048  12.431  10.271  1.0270 -1.6433 -3.9924
  194MOL0     H26150   3.937  12.410  10.456 -2.0428 -0.5865 -0.6612
  194MOL0     H26151   3.826  12.294  10.609  1.3441 -0.2282  3.8254
  194MOL0     H26152   3.748  12.365  10.753 -5.4859  2.4911 -0.1298
  194MOL0     H26153   3.674  12.402  10.612 -0.4884 -2.6893 -0.1360
  194MOL0     H26154   3.483  12.569  10.824 -4.3997 -0.6085  0.5416
  194MOL0     H26155   3.287  12.500  10.997 -0.5795 -2.4878  2.5259
  194MOL0     H26156   3.307  12.332  11.367 -1.9495  1.2825  2.7200
  194MOL0     H26157   3.477  12.390  11.354  1.3664  3.5955 -2.8682
  194MOL0     H26158   3.422  12.564  11.509 -1.5632  0.4060  1.0386
  194MOL0     H26159   3.250  12.527  11.507 -1.9640 -3.6056 -2.4480
  194MOL0     H26160   3.445  12.339  11.631 -1.3598 -1.5529  2.4107
  194MOL0     H26161   3.295  12.280  11.581 -3.7179  0.4718  1.4632
  194MOL0     H26162   3.351  12.504  11.762  1.2577  0.9740 -4.5076
  194MOL0     H26163   3.185  12.459  11.696  0.3667 -2.8485 -2.9751
  194MOL0     H26164   3.349  12.250  11.829 -0.3861  0.8758 -1.9594
  194MOL0     H26165   3.179  12.242  11.793 -3.1444  3.1097  0.1106
  194MOL0     H26166   3.296  12.433  12.005 -1.2225  0.8941  0.8673
  194MOL0     H26167   3.136  12.447  11.948  0.0973  0.2785 -1.8830
  194MOL0     H26168   3.131  12.316  12.160  0.5280 -0.6497  0.4464
  194MOL0     H26169   3.247  12.201  12.084  1.4634  1.3277 -1.2462
  194MOL0     H26170   3.059  12.103  11.954 -1.8561 -0.4795  1.2387
  194MOL0     H26171   2.965  12.245  11.998 -1.2909 -0.8946  1.7868
  194MOL0     H26172   3.573  12.600  11.317  2.7540  0.3654 -0.7631
  194MOL0     H26173   3.739  12.666  11.153 -0.3611  2.1869 -0.6480
  194MOL0     H26174   3.930  12.813  10.749  3.8386  0.1160  0.0068
  194MOL0     H26175   4.052  12.817  10.528  1.0033 -2.0098 -3.2792
  194MOL0     H26176   3.581  11.154   9.310  0.7192  2.0942  1.2900
  194MOL0     H26177   3.632  10.906   9.330 -1.7512  0.8420  0.8192
  194MOL0     H26178   4.038  10.631   9.327  1.8587  1.3931  0.4458
  194MOL0     H26179   4.174  10.419   9.399 -0.7462 -0.2161 -1.7607
  194MOL0     H26180   4.144  10.195   9.370  0.4314 -0.9101  0.5328
  194MOL0     H26181   4.270  10.264   9.476 -0.1239  0.8775 -2.8846
  194MOL0     H26182   4.130   9.990   9.516  0.7578 -1.1861 -0.9328
  194MOL0     H26183   4.266  10.046   9.622 -1.2041  1.3781  0.3211
  194MOL0     H26184   4.296   9.994   9.333  1.8412 -0.5026  0.5129
  194MOL0     H26185   4.331   9.882   9.467  1.6832 -1.7107 -2.9325
  194MOL0     H26186   4.503  10.061   9.553  2.2689 -1.8391  0.3389
  194MOL0     H26187   4.486  10.138   9.395 -1.1825 -1.1310 -1.3557
  194MOL0     H26188   4.726   9.827   9.293  1.0470  1.2319  0.4001
  194MOL0     H26189   3.850  10.298   9.642 -1.8731 -0.8637 -1.6467
  194MOL0     H26190   3.719  10.494   9.569 -0.3954  0.7948 -0.1994
  195MOL0     O26191  11.294   0.129   6.035 -0.2064 -0.5278  0.2153
  195MOL0     C26192  11.307   0.252   6.023  0.0597 -0.3631 -0.6397
  195MOL0     O26193  11.203   0.334   5.994 -0.2612 -0.3861  0.4711
  195MOL0     C26194  11.077   0.279   5.948 -0.1557 -0.6828  0.0206
  195MOL0     C26195  11.022   0.342   5.833 -0.3522 -0.2996 -0.2144
  195MOL0     C26196  10.896   0.305   5.781  0.4552  0.1404  0.6818
  195MOL0     C26197  10.833   0.190   5.833  0.3672 -0.6129  0.5031
  195MOL0     O26198  10.713   0.161   5.778  0.5382 -0.5128 -0.7736
  195MOL0     C26199  10.675   0.023   5.757  0.4835  0.5315 -0.3678
  195MOL0     C26200  10.532   0.025   5.702  0.3458 -0.0536 -0.2701
  195MOL0     C26201  10.484  -0.113   5.651  0.5955  0.1353 -1.1950
  195MOL0     C26202  10.341  -0.122   5.591 -0.2914 -0.5258 -0.1768
  195MOL0     C26203  10.242  -0.208   5.666 -0.0328  0.1507 -0.4876
  195MOL0     C26204  10.106  -0.141   5.646  0.0985  0.2033  0.2321
  195MOL0     C26205   9.994  -0.224   5.721  0.1827 -0.7634 -0.5849
  195MOL0     C26206   9.852  -0.170   5.700 -0.8965 -0.5198  0.5049
  195MOL0     N26207   9.750  -0.259   5.752 -0.1619 -0.2035 -0.3864
  195MOL0     C26208   9.737  -0.396   5.739 -0.2483  0.2179 -0.0619
  195MOL0     C26209   9.616  -0.426   5.794 -0.1274 -0.1986 -0.9407
  195MOL0     C26210   9.541  -0.546   5.777 -0.2166  0.3271 -0.4242
  195MOL0     C26211   9.563  -0.675   5.867  0.9567 -0.5990  0.1999
  195MOL0     C26212   9.497  -0.807   5.823  0.2039  0.0075  0.6317
  195MOL0     C26213   9.343  -0.787   5.811  0.1332 -0.4122  0.8845
  195MOL0     O26214   9.299  -0.740   5.685 -1.1191 -0.3187  0.3905
  195MOL0     C26215   9.174  -0.689   5.658 -0.6926 -0.4429  0.5786
  195MOL0     C26216   9.164  -0.582   5.569  0.3656  0.7181  0.2156
  195MOL0     C26217   9.045  -0.524   5.520 -0.4413 -0.5739  0.3653
  195MOL0     C26218   9.059  -0.395   5.436  1.4863  1.2045  0.1431
  195MOL0     C26219   8.921  -0.579   5.547  0.0100 -0.3659 -0.0006
  195MOL0     C26220   8.782  -0.531   5.511  0.0895  0.6734 -0.3106
  195MOL0     O26221   8.757  -0.407   5.469  0.4610 -0.3211  0.3770
  195MOL0     C26222   8.627  -0.361   5.461 -1.1848 -0.5785 -0.2360
  195MOL0     C26223   8.531  -0.428   5.387  0.1154  0.2935 -0.6213
  195MOL0     C26224   8.400  -0.382   5.369 -0.3270 -0.2817  0.2887
  195MOL0     C26225   8.369  -0.255   5.430  0.1834 -0.2024  0.6963
  195MOL0     O26226   8.253  -0.189   5.423  0.5195  0.2855 -0.3394
  195MOL0     C26227   8.129  -0.272   5.409 -0.5847 -0.6184  0.2706
  195MOL0     C26228   8.018  -0.187   5.448 -0.5583 -0.2143  0.2313
  195MOL0     C26229   7.883  -0.262   5.449 -0.1451 -0.6346 -0.6120
  195MOL0     C26230   7.762  -0.174   5.469 -0.5505  0.2977 -0.4061
  195MOL0     C26231   7.755  -0.110   5.601 -0.3941  0.1762  0.7740
  195MOL0     C26232   7.639  -0.017   5.606 -0.4901 -0.3967  0.3789
  195MOL0     C26233   7.667   0.119   5.529 -0.0814  1.2021  0.9131
  195MOL0     C26234   7.599   0.230   5.599 -0.0160 -0.1049 -0.5073
  195MOL0    Cl26235   7.424   0.201   5.607  0.0266  0.2651 -0.0535
  195MOL0     C26236   8.455  -0.209   5.525  0.4401 -0.4243  0.1424
  195MOL0     C26237   8.582  -0.263   5.536  0.2585 -0.0630  0.1775
  195MOL0     O26238   8.697  -0.622   5.528 -0.3207 -0.2946 -0.2653
  195MOL0     C26239   8.926  -0.681   5.645 -0.3159 -0.1042  0.0845
  195MOL0     C26240   9.048  -0.730   5.698 -0.6306  1.5348 -0.1332
  195MOL0     N26241   9.565  -0.308   5.845 -0.9962  0.9090  0.5856
  195MOL0     N26242   9.651  -0.216   5.822  0.3378  0.4162  0.3121
  195MOL0     C26243  10.894   0.126   5.942  0.3192 -0.1952  1.0968
  195MOL0     C26244  11.014   0.165   6.002  0.1803  0.2241 -0.1629
  195MOL0     C26245  11.439   0.308   6.059  1.1364  0.3862  0.2432
  195MOL0     C26246  11.547   0.219   6.065 -0.0484 -0.2970  0.0100
  195MOL0     C26247  11.673   0.278   6.106 -0.2054  0.2109  0.2479
  195MOL0     C26248  11.687   0.411   6.150 -0.9322 -0.0161 -0.2574
  195MOL0     O26249  11.815   0.436   6.189 -0.7582  0.4102  0.1801
  195MOL0     C26250  11.841   0.558   6.258 -0.5798  0.8024  0.8998
  195MOL0     C26251  11.893   0.668   6.157 -0.2653  0.1620 -0.1605
  195MOL0     C26252  12.013   0.619   6.082  0.4805  0.0085  0.4755
  195MOL0     C26253  12.128   0.600   6.172 -0.0897  0.3234 -0.6467
  195MOL0     C26254  12.246   0.658   6.108  0.8429  0.3720  0.5782
  195MOL0     C26255  12.341   0.690   6.050  0.2910 -0.1610 -0.2119
  195MOL0     C26256  11.582   0.501   6.132 -0.3030  0.0761  0.3217
  195MOL0     C26257  11.454   0.452   6.085  0.0668  0.2260 -0.2014
  195MOL0     H26258  11.066   0.429   5.787 -4.2858  1.6773 -0.7015
  195MOL0     H26259  10.861   0.346   5.686  0.4325 -3.1367 -0.8550
  195MOL0     H26260  10.739  -0.020   5.679 -4.6052 -1.0340 -4.2414
  195MOL0     H26261  10.678  -0.039   5.847 -0.3944 -0.5959 -1.0873
  195MOL0     H26262  10.467   0.049   5.787  1.7338 -0.9796  1.1103
  195MOL0     H26263  10.517   0.099   5.623  3.1207  0.6434 -0.2175
  195MOL0     H26264  10.557  -0.147   5.578  0.9244 -0.9262 -0.3930
  195MOL0     H26265  10.484  -0.177   5.739 -2.5092  1.2132 -0.2560
  195MOL0     H26266  10.302  -0.020   5.595 -4.0499 -1.8244  4.2129
  195MOL0     H26267  10.352  -0.155   5.487  0.3688 -1.8003  0.2689
  195MOL0     H26268  10.237  -0.307   5.621  2.0194  0.4044 -1.3951
  195MOL0     H26269  10.272  -0.225   5.770  0.9911 -1.3964 -1.0103
  195MOL0     H26270  10.098  -0.041   5.691 -0.0058 -0.0147  0.6983
  195MOL0     H26271  10.085  -0.131   5.539 -2.6576  0.1068  0.6991
  195MOL0     H26272   9.987  -0.329   5.689 -0.0772 -0.7777 -0.4759
  195MOL0     H26273  10.008  -0.223   5.829  0.6907  0.7857 -0.6401
  195MOL0     H26274   9.829  -0.177   5.593 -2.3379 -0.5274  0.8000
  195MOL0     H26275   9.858  -0.063   5.718  1.6273 -0.3528 -0.8206
  195MOL0     H26276   9.808  -0.459   5.686 -0.2283 -1.9393  2.3338
  195MOL0     H26277   9.434  -0.526   5.788 -0.2616  0.4150 -1.0139
  195MOL0     H26278   9.562  -0.574   5.674 -0.6476  2.3642 -1.1105
  195MOL0     H26279   9.532  -0.655   5.971  3.0561  5.0633  0.0967
  195MOL0     H26280   9.671  -0.682   5.879  1.2104  3.0176  1.0379
  195MOL0     H26281   9.523  -0.879   5.901  0.2659  1.3636  1.9121
  195MOL0     H26282   9.540  -0.845   5.729  0.2354  1.3710  0.0687
  195MOL0     H26283   9.299  -0.712   5.877 -2.4036 -1.6320  0.7277
  195MOL0     H26284   9.303  -0.887   5.835  2.0017 -2.0653 -2.2582
  195MOL0     H26285   9.255  -0.530   5.541  0.2681  0.7800  0.0100
  195MOL0     H26286   9.141  -0.395   5.363 -1.4803  3.8395 -3.5671
  195MOL0     H26287   8.970  -0.377   5.376  2.7056  1.4947 -1.6756
  195MOL0     H26288   9.065  -0.315   5.511 -2.9267  1.1842  0.7600
  195MOL0     H26289   8.562  -0.500   5.312  1.2456  2.0430 -1.9163
  195MOL0     H26290   8.338  -0.424   5.290 -0.1971 -1.9974  1.0578
  195MOL0     H26291   8.110  -0.297   5.304 -0.8164 -0.0365  0.1709
  195MOL0     H26292   8.132  -0.365   5.467  0.9537 -1.5919 -1.2843
  195MOL0     H26293   8.043  -0.142   5.545  3.9977  2.6410 -1.9234
  195MOL0     H26294   8.012  -0.107   5.374 -1.9951  0.8768  1.4672
  195MOL0     H26295   7.899  -0.320   5.540  1.0984 -0.6149 -0.8111
  195MOL0     H26296   7.867  -0.325   5.361  3.1382  0.4820 -2.1443
  195MOL0     H26297   7.780  -0.098   5.393 -0.9976  1.5573  0.6978
  195MOL0     H26298   7.670  -0.226   5.443  0.2289 -1.1048 -0.4593
  195MOL0     H26299   7.846  -0.061   5.636  0.7688 -0.1325 -1.6609
  195MOL0     H26300   7.731  -0.193   5.668 -1.1087 -1.2444 -1.1386
  195MOL0     H26301   7.545  -0.056   5.566  0.0434  1.0863 -2.6681
  195MOL0     H26302   7.611   0.010   5.708 -0.5449 -2.6473  1.0187
  195MOL0     H26303   7.628   0.107   5.428  1.9031  0.4244  0.1994
  195MOL0     H26304   7.774   0.134   5.517 -0.4359  3.0792 -0.2156
  195MOL0     H26305   7.603   0.328   5.552  1.1384  0.3392  0.4693
  195MOL0     H26306   7.643   0.238   5.699 -4.0984 -0.7943  1.6104
  195MOL0     H26307   8.424  -0.130   5.593 -2.1470 -3.0659  2.3091
  195MOL0     H26308   8.635  -0.216   5.618 -0.1812  0.6179  0.0734
  195MOL0     H26309   8.836  -0.731   5.680 -1.4968  1.5126 -0.5188
  195MOL0     H26310   9.050  -0.810   5.771 -2.5630  0.0155 -1.6231
  195MOL0     H26311  10.838   0.040   5.978 -1.1454  0.3679  0.2796
  195MOL0     H26312  11.059   0.118   6.089  0.1840  1.4348  0.5198
  195MOL0     H26313  11.548   0.118   6.028  1.6966 -0.5692  0.6965
  195MOL0     H26314  11.758   0.211   6.106 -1.0591 -0.9330  1.5314
  195MOL0     H26315  11.751   0.604   6.299 -0.7708  1.2489 -0.0051
  195MOL0     H26316  11.915   0.538   6.336  2.4839 -0.4075 -2.0461
  195MOL0     H26317  11.914   0.758   6.214 -0.5427 -1.6710  3.1088
  195MOL0     H26318  11.810   0.685   6.087 -1.4127  0.3417  1.2114
  195MOL0     H26319  12.032   0.700   6.011 -1.0615  0.3340  0.4023
  195MOL0     H26320  11.999   0.525   6.027  0.6043  0.5278 -0.4680
  195MOL0     H26321  12.135   0.492   6.188  1.9307  0.2678 -1.6634
  195MOL0     H26322  12.113   0.651   6.268  0.9911 -1.2096  0.3844
  195MOL0     H26323  12.426   0.715   5.990 -1.2640 -0.6703 -2.7642
  195MOL0     H26324  11.592   0.609   6.134 -3.0010  0.4313 -0.8687
  195MOL0     H26325  11.372   0.521   6.065 -2.6893 -2.2073  1.7699
  196MOL0     O26326   6.040  10.624   0.338 -0.2443 -0.3801  0.5032
  196MOL0     C26327   6.138  10.645   0.402 -0.2786  0.1499 -0.4236
  196MOL0     O26328   6.170  10.586   0.516 -0.6392  0.0191 -0.0283
  196MOL0     C26329   6.141  10.455   0.544  0.1481 -0.4404  0.1198
  196MOL0     C26330   6.011  10.416   0.550 -0.1815 -0.4516  0.3531
  196MOL0     C26331   5.966  10.289   0.592 -1.3852  0.0455 -0.0511
  196MOL0     C26332   6.071  10.193   0.632  0.1915 -0.1698  0.6782
  196MOL0     O26333   6.038  10.062   0.655 -0.2969  0.1398 -0.9463
  196MOL0     C26334   5.978   9.981   0.559  0.8583 -0.5872  0.2355
  196MOL0     C26335   5.954   9.840   0.594 -0.0285  0.5476  0.5284
  196MOL0     C26336   5.842   9.816   0.697  0.0133  0.6079  0.7034
  196MOL0     C26337   5.847   9.684   0.775  0.1708  0.9964  0.3530
  196MOL0     C26338   5.748   9.677   0.893 -0.3014  0.3669 -0.3038
  196MOL0     C26339   5.780   9.775   1.011 -0.0565  0.0783  0.2786
  196MOL0     C26340   5.680   9.768   1.134  0.1376  0.6889  0.9539
  196MOL0     C26341   5.551   9.847   1.087 -0.1690 -0.2137 -1.4402
  196MOL0     N26342   5.442   9.817   1.169  0.4062  0.2315 -0.1677
  196MOL0     C26343   5.447   9.775   1.300 -0.0973  0.0523 -0.1396
  196MOL0     C26344   5.314   9.788   1.351  0.0341  0.2007 -0.4593
  196MOL0     C26345   5.258   9.746   1.481  0.3180  0.6867 -0.5336
  196MOL0     C26346   5.238   9.598   1.485  0.4228  0.7032  0.4093
  196MOL0     C26347   5.169   9.550   1.613  0.1599 -0.0809  0.0081
  196MOL0     C26348   5.232   9.593   1.748  1.3147 -0.5073 -0.4656
  196MOL0     O26349   5.184   9.501   1.846  0.2917 -0.3744 -0.1034
  196MOL0     C26350   5.245   9.498   1.967 -0.3260  0.5931  0.6397
  196MOL0     C26351   5.179   9.454   2.076 -0.6532 -0.6821 -0.2838
  196MOL0     C26352   5.233   9.442   2.209  1.3851  0.8568  0.4309
  196MOL0     C26353   5.144   9.386   2.316  0.5773  0.6147 -0.3619
  196MOL0     C26354   5.370   9.479   2.220 -0.1009  0.7003 -0.3000
  196MOL0     C26355   5.443   9.468   2.351 -0.5553 -0.5562 -0.0339
  196MOL0     O26356   5.581   9.469   2.339  0.7745 -0.0231  0.4797
  196MOL0     C26357   5.649   9.456   2.454 -0.6361  0.3030  0.0782
  196MOL0     C26358   5.710   9.332   2.499  0.1673  0.2975  0.1299
  196MOL0     C26359   5.781   9.329   2.621  0.0247  0.4270  0.3004
  196MOL0     C26360   5.796   9.438   2.700 -0.9184 -0.8521 -0.0679
  196MOL0     O26361   5.835   9.440   2.829  0.1822  0.1083 -0.1665
  196MOL0     C26362   5.873   9.312   2.887 -0.3853  0.3515  0.1299
  196MOL0     C26363   5.918   9.338   3.033  0.6499  0.0604 -0.2122
  196MOL0     C26364   6.051   9.396   3.051 -0.9220 -0.2479 -0.2382
  196MOL0     C26365   6.163   9.294   3.089 -0.2290 -0.1433  0.0206
  196MOL0     C26366   6.302   9.362   3.094  0.4626 -0.5587 -0.8131
  196MOL0     C26367   6.336   9.425   3.229  0.1456  0.2881  0.5405
  196MOL0     C26368   6.490   9.422   3.261 -0.2982  0.2130 -0.7492
  196MOL0     C26369   6.526   9.439   3.414 -0.1332 -0.2620 -0.8650
  196MOL0    Cl26370   6.484   9.608   3.479  0.0365 -0.0729  0.0362
  196MOL0     C26371   5.746   9.566   2.647  0.5199 -0.1628 -0.4010
  196MOL0     C26372   5.694   9.579   2.516  0.8883  0.4724 -0.7274
  196MOL0     O26373   5.384   9.449   2.455 -0.3791  0.0613  0.2261
  196MOL0     C26374   5.438   9.526   2.106  1.3977  0.4815  0.2853
  196MOL0     C26375   5.379   9.541   1.984  0.0044  0.3251  0.5457
  196MOL0     N26376   5.235   9.831   1.249 -0.3188  0.0731  0.0271
  196MOL0     N26377   5.310   9.843   1.138  0.3827  1.4436 -0.9508
  196MOL0     C26378   6.198  10.240   0.640 -0.5821 -0.6057 -0.7580
  196MOL0     C26379   6.233  10.371   0.585 -1.0452  0.7315  0.0214
  196MOL0     C26380   6.241  10.728   0.350 -0.6530 -0.0909 -0.6209
  196MOL0     C26381   6.204  10.812   0.244  0.2225 -0.0651 -0.0150
  196MOL0     C26382   6.303  10.906   0.198  0.5858 -0.4424 -0.2055
  196MOL0     C26383   6.432  10.929   0.247  0.7191  0.4491  0.4495
  196MOL0     O26384   6.510  11.023   0.186  0.8031 -0.0698 -0.2449
  196MOL0     C26385   6.640  11.052   0.228  0.3928  0.6888  0.8187
  196MOL0     C26386   6.699  11.157   0.139  0.1921 -0.0498  0.1769
  196MOL0     C26387   6.846  11.183   0.176  0.9290  1.2275  0.7115
  196MOL0     C26388   6.924  11.235   0.056  0.3170 -0.3615 -0.2294
  196MOL0     C26389   7.061  11.276   0.086 -1.0701 -0.4120  0.4536
  196MOL0     C26390   7.180  11.293   0.133  0.2895  0.2255  0.1366
  196MOL0     C26391   6.465  10.855   0.357  0.0533  0.0285 -0.8267
  196MOL0     C26392   6.369  10.758   0.408 -0.0342  0.4250  0.1736
  196MOL0     H26393   5.939  10.494   0.527  2.6771  2.2164 -0.0505
  196MOL0     H26394   5.860  10.265   0.594 -1.7813  1.3942 -2.0366
  196MOL0     H26395   5.876  10.010   0.533  0.9895 -1.9480 -2.0895
  196MOL0     H26396   6.040   9.986   0.469 -0.5220 -1.3729 -0.8128
  196MOL0     H26397   5.947   9.771   0.509  3.5267 -0.6238  1.0335
  196MOL0     H26398   6.052   9.812   0.635  0.5206  2.8633  0.9687
  196MOL0     H26399   5.848   9.900   0.767  1.4494  1.9616 -0.9167
  196MOL0     H26400   5.751   9.822   0.637  0.7891  3.7745 -0.3825
  196MOL0     H26401   5.815   9.602   0.711 -0.5083  0.7939  0.9433
  196MOL0     H26402   5.951   9.659   0.801 -0.1095  1.3441  1.9207
  196MOL0     H26403   5.646   9.699   0.859 -0.6359 -1.3067 -0.4933
  196MOL0     H26404   5.736   9.570   0.913 -0.1280 -0.5589 -4.3284
  196MOL0     H26405   5.881   9.748   1.042  0.8010 -0.2937 -2.5797
  196MOL0     H26406   5.784   9.883   0.992  2.1445  1.2062  5.4207
  196MOL0     H26407   5.659   9.662   1.146 -1.8831  0.9184  0.0359
  196MOL0     H26408   5.732   9.804   1.223  0.7527  0.9821  0.4824
  196MOL0     H26409   5.521   9.846   0.982  2.0606 -4.6728 -2.2449
  196MOL0     H26410   5.573   9.950   1.117 -2.9467 -0.2373  1.2609
  196MOL0     H26411   5.531   9.742   1.360 -0.4958 -0.1646  0.3116
  196MOL0     H26412   5.335   9.776   1.553  0.7188  1.8840 -1.4234
  196MOL0     H26413   5.162   9.794   1.503 -0.2825 -0.1526 -1.2564
  196MOL0     H26414   5.338   9.558   1.468  0.5115  1.9970 -2.7776
  196MOL0     H26415   5.182   9.559   1.399  2.6626  0.5550 -1.0692
  196MOL0     H26416   5.161   9.441   1.605  0.5832  0.0254 -2.8244
  196MOL0     H26417   5.066   9.587   1.610 -0.0139 -0.5479  0.1027
  196MOL0     H26418   5.188   9.691   1.769  1.7676  0.2582 -2.7456
  196MOL0     H26419   5.341   9.599   1.739  1.0770  1.8047 -3.6915
  196MOL0     H26420   5.075   9.424   2.068 -0.4513 -1.1792 -1.1684
  196MOL0     H26421   5.053   9.344   2.273  0.6392  0.9539 -0.8373
  196MOL0     H26422   5.194   9.305   2.370  1.9803  0.1402 -2.2549
  196MOL0     H26423   5.106   9.462   2.386  1.7171 -0.8644  1.9953
  196MOL0     H26424   5.692   9.240   2.444  0.8799  0.3273 -0.1632
  196MOL0     H26425   5.810   9.230   2.655  1.2410  1.0282  1.0568
  196MOL0     H26426   5.798   9.233   2.896 -1.6612  1.6569  1.4356
  196MOL0     H26427   5.961   9.268   2.838 -1.8372 -2.5834 -0.0751
  196MOL0     H26428   5.839   9.393   3.084 -0.1304 -0.3120 -0.9968
  196MOL0     H26429   5.924   9.245   3.091 -1.2586  1.6008  2.7512
  196MOL0     H26430   6.045   9.471   3.130 -0.4693 -0.2807 -0.1714
  196MOL0     H26431   6.088   9.453   2.965  0.3757  0.9816  1.0656
  196MOL0     H26432   6.140   9.237   3.180 -0.8184  1.9589  1.2605
  196MOL0     H26433   6.164   9.214   3.014 -1.2484 -0.9141  0.8028
  196MOL0     H26434   6.294   9.433   3.011 -3.9489 -0.5221 -0.6141
  196MOL0     H26435   6.381   9.292   3.067  0.2323 -1.6968  1.2394
  196MOL0     H26436   6.299   9.527   3.236  0.3601  0.2962  2.0343
  196MOL0     H26437   6.287   9.357   3.300 -2.5015 -0.8049 -2.1199
  196MOL0     H26438   6.535   9.505   3.205 -0.9540  2.2175  1.5165
  196MOL0     H26439   6.531   9.326   3.226  0.6550  0.9798 -1.8398
  196MOL0     H26440   6.631   9.425   3.441 -0.6374 -3.1898 -0.0187
  196MOL0     H26441   6.475   9.362   3.474  0.8119 -0.7656 -0.6789
  196MOL0     H26442   5.733   9.654   2.709  0.0829  1.1280 -2.2336
  196MOL0     H26443   5.665   9.680   2.490 -1.8380  0.0639  0.3687
  196MOL0     H26444   5.545   9.541   2.113  2.1454 -3.4751 -0.4634
  196MOL0     H26445   5.446   9.551   1.899  0.7365 -0.8471  0.9589
  196MOL0     H26446   6.272  10.167   0.673  0.6823  2.0292  2.8536
  196MOL0     H26447   6.336  10.401   0.565 -0.7818 -1.8888 -3.4182
  196MOL0     H26448   6.115  10.796   0.184  0.9013  1.0595 -1.3884
  196MOL0     H26449   6.282  10.973   0.115 -0.1746  1.3541  1.3645
  196MOL0     H26450   6.642  11.074   0.335 -0.1931 -0.6125  1.1253
  196MOL0     H26451   6.693  10.956   0.222  0.5829  0.6447  2.6143
  196MOL0     H26452   6.645  11.249   0.164 -1.6566 -0.7412 -1.0633
  196MOL0     H26453   6.687  11.130   0.034  1.7382 -1.9749  0.4501
  196MOL0     H26454   6.892  11.091   0.213 -2.4498 -0.0438  2.1635
  196MOL0     H26455   6.853  11.257   0.257  1.1015  0.9303  0.9691
  196MOL0     H26456   6.877  11.325   0.015  0.0883 -0.8023 -0.9443
  196MOL0     H26457   6.937  11.153  -0.015  1.2104 -1.9243  1.6314
  196MOL0     H26458   7.276  11.292   0.181  0.3237  1.3898  0.1083
  196MOL0     H26459   6.555  10.877   0.414  0.3640  0.5338 -1.4859
  196MOL0     H26460   6.386  10.705   0.502  1.3818 -0.3316 -0.4905
  197MOL0     O26461   3.723   4.684   8.989  0.5091  0.3559  0.1568
  197MOL0     C26462   3.753   4.761   9.076 -1.6007 -0.6847 -0.0700
  197MOL0     O26463   3.683   4.871   9.111 -0.5477 -0.2127  0.3895
  197MOL0     C26464   3.563   4.903   9.047  1.0599  0.3892  0.0613
  197MOL0     C26465   3.539   4.927   8.909 -0.1721  0.3556 -0.2310
  197MOL0     C26466   3.420   4.954   8.845  0.3904 -0.6120  0.2785
  197MOL0     C26467   3.308   4.979   8.922 -0.6034 -0.2768 -0.5517
  197MOL0     O26468   3.192   5.006   8.855 -0.2487  0.0978  1.0465
  197MOL0     C26469   3.094   5.076   8.921 -0.2816  0.1885 -0.1270
  197MOL0     C26470   2.990   5.120   8.827 -0.3104  0.4859  0.3954
  197MOL0     C26471   2.914   5.002   8.759 -0.3620 -0.8510 -0.7419
  197MOL0     C26472   2.798   5.074   8.686 -0.5395 -0.6306  0.3499
  197MOL0     C26473   2.725   4.988   8.580 -0.2011 -0.0161  0.9130
  197MOL0     C26474   2.641   4.878   8.642  0.2928  0.8677 -0.4254
  197MOL0     C26475   2.562   4.782   8.545 -0.0655  0.1013 -1.3810
  197MOL0     C26476   2.443   4.848   8.479  0.0011 -0.2432  0.1934
  197MOL0     N26477   2.476   4.901   8.343  0.6189 -0.0478 -0.9107
  197MOL0     C26478   2.558   4.844   8.248  0.2734 -0.0982 -0.4890
  197MOL0     C26479   2.554   4.920   8.141  0.2404  0.5261  0.0968
  197MOL0     C26480   2.628   4.901   8.011 -0.0606 -0.0527  0.5098
  197MOL0     C26481   2.785   4.924   8.031 -0.0053  0.5796 -0.0412
  197MOL0     C26482   2.849   4.783   8.038 -0.6549 -0.8566 -0.6429
  197MOL0     C26483   2.999   4.800   8.069 -0.0465 -0.1791  0.5305
  197MOL0     O26484   3.049   4.664   8.077 -0.3482 -0.0384 -0.0324
  197MOL0     C26485   3.043   4.589   8.195 -0.1976 -0.1625 -1.1142
  197MOL0     C26486   3.039   4.647   8.327  0.7228 -1.0238 -0.0361
  197MOL0     C26487   3.043   4.571   8.446  0.3271 -0.3965 -0.2469
  197MOL0     C26488   3.053   4.648   8.578 -0.1384  0.9351  0.9680
  197MOL0     C26489   3.034   4.428   8.435 -0.4046 -0.4460  1.2304
  197MOL0     C26490   3.037   4.334   8.544 -0.7993 -1.0544  0.1104
  197MOL0     O26491   2.991   4.211   8.516  0.2459 -0.6195 -0.0836
  197MOL0     C26492   2.948   4.123   8.607 -0.5129 -0.0935 -0.2883
  197MOL0     C26493   2.944   3.993   8.549  0.7047 -0.5874 -0.8340
  197MOL0     C26494   2.890   3.889   8.617 -0.1637 -0.3036 -0.4894
  197MOL0     C26495   2.844   3.903   8.754 -0.5348 -0.5663  0.7695
  197MOL0     O26496   2.790   3.802   8.818  0.4257 -1.0301  0.2304
  197MOL0     C26497   2.829   3.665   8.793  0.0620 -0.3111 -0.2089
  197MOL0     C26498   2.809   3.582   8.918 -0.9592  1.7630 -0.2617
  197MOL0     C26499   2.905   3.617   9.031 -0.1553 -1.0262  0.6019
  197MOL0     C26500   2.987   3.493   9.077 -0.2996 -0.4690  0.5181
  197MOL0     C26501   3.096   3.466   8.985 -0.6973  0.4927  0.8387
  197MOL0     C26502   3.226   3.376   9.034 -0.1845  0.3517 -0.0734
  197MOL0     C26503   3.176   3.246   9.107  0.5113  0.4363  0.0097
  197MOL0     C26504   3.290   3.149   9.134 -0.2439  0.2995 -0.8260
  197MOL0    Cl26505   3.387   3.198   9.278 -0.1787  0.1705  0.4889
  197MOL0     C26506   2.854   4.029   8.807 -0.1245 -1.3968 -0.7510
  197MOL0     C26507   2.902   4.137   8.737 -0.3036 -0.3244  0.0670
  197MOL0     O26508   3.076   4.374   8.657 -0.4589 -0.1619  0.0290
  197MOL0     C26509   3.053   4.376   8.305  0.1548  0.3708  0.7794
  197MOL0     C26510   3.057   4.454   8.190 -0.0232 -0.0701 -0.1564
  197MOL0     N26511   2.488   5.032   8.178  1.2242  0.5488  0.7189
  197MOL0     N26512   2.424   5.016   8.292  0.0025  0.0201  0.0341
  197MOL0     C26513   3.324   4.984   9.065  0.5828 -0.4345  0.2792
  197MOL0     C26514   3.443   4.933   9.121 -0.8326  0.0176 -0.1743
  197MOL0     C26515   3.875   4.733   9.157  0.0656 -0.9740  0.1725
  197MOL0     C26516   3.947   4.614   9.126 -0.2271  0.4322 -0.8269
  197MOL0     C26517   4.061   4.578   9.198  0.2058 -0.8822  0.1833
  197MOL0     C26518   4.104   4.665   9.296 -0.2244 -0.6770  0.0723
  197MOL0     O26519   4.220   4.658   9.369 -0.1322  0.2704 -0.2082
  197MOL0     C26520   4.288   4.534   9.404 -0.4377  0.9156  0.1335
  197MOL0     C26521   4.226   4.478   9.528  0.6094  0.1227  0.6556
  197MOL0     C26522   4.269   4.545   9.662 -0.5551 -0.2250  1.0119
  197MOL0     C26523   4.176   4.520   9.785  0.0874 -0.1890  0.0014
  197MOL0     C26524   4.153   4.377   9.797 -0.2555  0.1128 -0.9339
  197MOL0     C26525   4.139   4.255   9.818  0.7591  0.5496 -1.0848
  197MOL0     C26526   4.041   4.786   9.314  0.3579  0.7298 -0.3478
  197MOL0     C26527   3.926   4.828   9.249  0.2047 -0.0700 -0.0219
  197MOL0     H26528   3.626   4.904   8.849  0.1201  0.7245  0.0479
  197MOL0     H26529   3.415   4.957   8.736  0.5346 -0.8354  0.2634
  197MOL0     H26530   3.051   5.014   9.001 -1.8746  0.9267 -0.3848
  197MOL0     H26531   3.138   5.164   8.968  0.1210 -0.0112 -0.1241
  197MOL0     H26532   2.930   5.192   8.884  1.2036  2.1736 -0.0451
  197MOL0     H26533   3.033   5.183   8.749  1.2710 -1.4223 -0.3935
  197MOL0     H26534   2.977   4.940   8.694 -1.2791 -2.6899  0.0507
  197MOL0     H26535   2.882   4.929   8.833  0.2060 -0.2692  0.0925
  197MOL0     H26536   2.721   5.115   8.751 -3.4760 -1.5689 -2.2671
  197MOL0     H26537   2.840   5.158   8.630 -0.2253 -0.5194  0.7475
  197MOL0     H26538   2.654   5.045   8.519 -1.9740 -2.4785  0.5602
  197MOL0     H26539   2.793   4.936   8.513  0.5012  0.9628  0.8323
  197MOL0     H26540   2.698   4.803   8.698 -1.0302 -0.9895 -1.4514
  197MOL0     H26541   2.569   4.929   8.707  1.4520 -0.2291  1.8282
  197MOL0     H26542   2.631   4.725   8.483 -1.4558 -2.9043 -0.3413
  197MOL0     H26543   2.526   4.700   8.607 -0.9295  0.9171 -0.7687
  197MOL0     H26544   2.407   4.927   8.545  2.5518  3.9109 -2.8805
  197MOL0     H26545   2.367   4.769   8.469 -0.4976  0.3129 -0.6477
  197MOL0     H26546   2.611   4.751   8.268  0.1436 -0.2441 -0.8118
  197MOL0     H26547   2.609   4.799   7.976  4.1557 -1.0488  0.5803
  197MOL0     H26548   2.584   4.970   7.938 -0.3508  3.1938  3.5177
  197MOL0     H26549   2.799   4.981   8.123  0.9228  2.8604 -1.4911
  197MOL0     H26550   2.819   4.981   7.944  4.3849 -1.4481  0.1214
  197MOL0     H26551   2.819   4.714   7.958  1.1674 -0.5991 -1.6095
  197MOL0     H26552   2.800   4.736   8.123 -2.6310  0.2450 -1.1296
  197MOL0     H26553   3.015   4.858   8.160 -1.0627  0.9368  0.0294
  197MOL0     H26554   3.063   4.849   7.995  0.6751 -1.0766  0.5371
  197MOL0     H26555   3.053   4.755   8.329  1.1947 -1.0767 -0.3963
  197MOL0     H26556   3.149   4.616   8.620  0.7623  0.5951 -1.1970
  197MOL0     H26557   3.043   4.756   8.562 -0.2145  1.0098  1.4964
  197MOL0     H26558   2.969   4.608   8.635 -0.2970  1.3939  1.0673
  197MOL0     H26559   2.976   3.974   8.447 -2.0010 -1.9358 -1.5284
  197MOL0     H26560   2.875   3.799   8.558  3.4008  0.0016 -2.1227
  197MOL0     H26561   2.781   3.622   8.705 -1.4667 -0.0849  0.4899
  197MOL0     H26562   2.934   3.653   8.763  0.3116 -0.2509  0.6274
  197MOL0     H26563   2.707   3.589   8.956  0.2455  3.4633  3.0830
  197MOL0     H26564   2.822   3.476   8.894  1.3680  1.7245  0.8439
  197MOL0     H26565   2.852   3.640   9.123 -0.8438 -0.3038  0.0374
  197MOL0     H26566   2.949   3.713   9.004 -0.0773 -1.2242  0.0026
  197MOL0     H26567   3.037   3.518   9.170 -1.2726  0.9928  0.6722
  197MOL0     H26568   2.931   3.401   9.097  1.8028 -2.2949 -1.3794
  197MOL0     H26569   3.131   3.559   8.939  0.7715 -0.7705 -0.7325
  197MOL0     H26570   3.052   3.401   8.909  2.2703  0.3816 -0.9481
  197MOL0     H26571   3.282   3.342   8.947  1.3181 -1.5463  1.5539
  197MOL0     H26572   3.300   3.424   9.098  2.9669 -2.6089 -1.1979
  197MOL0     H26573   3.101   3.200   9.042  0.4787 -0.2806  0.5357
  197MOL0     H26574   3.130   3.272   9.203  4.2741 -3.0567  3.1867
  197MOL0     H26575   3.355   3.145   9.046  0.2666  2.6976 -0.6128
  197MOL0     H26576   3.243   3.054   9.164  2.7329 -1.0236  0.0385
  197MOL0     H26577   2.815   4.032   8.909  3.8347 -2.8263  1.0459
  197MOL0     H26578   2.897   4.238   8.775  0.7117 -0.2870  0.1212
  197MOL0     H26579   3.054   4.267   8.300  1.6289  0.4400 -1.4891
  197MOL0     H26580   3.084   4.408   8.095  2.8373 -2.1699  1.5153
  197MOL0     H26581   3.239   4.999   9.130 -0.8217  0.1323 -1.6093
  197MOL0     H26582   3.463   4.927   9.228  1.8692  1.6113 -0.4965
  197MOL0     H26583   3.911   4.536   9.059 -0.9363 -1.0480  1.1702
  197MOL0     H26584   4.114   4.487   9.171  2.6405  0.3938  0.3387
  197MOL0     H26585   4.279   4.451   9.333 -3.4589  0.5730  0.7791
  197MOL0     H26586   4.393   4.559   9.423  0.0273  0.7088 -1.9185
  197MOL0     H26587   4.245   4.371   9.535 -0.4194 -0.4675 -3.4337
  197MOL0     H26588   4.120   4.488   9.504  0.9690  0.3743 -0.9577
  197MOL0     H26589   4.268   4.653   9.643 -0.0461 -0.3774  0.0198
  197MOL0     H26590   4.373   4.519   9.680  0.3744  2.9252  0.7880
  197MOL0     H26591   4.086   4.583   9.784 -0.0907 -0.4379  0.1915
  197MOL0     H26592   4.232   4.547   9.875 -0.3721  3.0794 -0.5672
  197MOL0     H26593   4.105   4.154   9.833  0.9815  0.3084 -2.1270
  197MOL0     H26594   4.083   4.853   9.388  0.4895  0.2124  0.0514
  197MOL0     H26595   3.873   4.919   9.276 -2.6477 -1.6341  0.0625
  198MOL0     O26596   9.292   2.520   7.743  0.0486 -0.1541  0.0578
  198MOL0     C26597   9.273   2.620   7.677  0.2449 -0.4278 -0.0472
  198MOL0     O26598   9.315   2.634   7.545 -0.0522  0.5232  0.0353
  198MOL0     C26599   9.388   2.533   7.474 -0.2419  0.1576  0.4747
  198MOL0     C26600   9.374   2.529   7.333  0.2697  0.5241 -0.1775
  198MOL0     C26601   9.452   2.443   7.263  0.3217  0.0724  0.1125
  198MOL0     C26602   9.552   2.358   7.315 -0.3323 -0.3125  0.0654
  198MOL0     O26603   9.622   2.282   7.228 -0.8086  0.2320  0.4414
  198MOL0     C26604   9.702   2.358   7.134 -0.4443  0.0715  0.4857
  198MOL0     C26605   9.802   2.448   7.201 -0.0453  0.3864  0.2532
  198MOL0     C26606   9.912   2.378   7.274 -1.4988  0.3194 -1.0876
  198MOL0     C26607  10.025   2.360   7.172 -0.1400  0.9987  0.1481
  198MOL0     C26608  10.144   2.281   7.235  0.9913  0.3286  0.4679
  198MOL0     C26609  10.118   2.127   7.227  0.1138 -0.1138  0.7536
  198MOL0     C26610  10.235   2.053   7.291 -0.2496  0.5290 -0.5159
  198MOL0     C26611  10.219   1.902   7.283  0.4949 -0.1071 -0.8847
  198MOL0     N26612  10.235   1.865   7.142  0.4178  0.0927 -0.6087
  198MOL0     C26613  10.344   1.876   7.055 -0.6875 -0.2864 -0.2220
  198MOL0     C26614  10.289   1.843   6.935  0.0237 -0.0964  0.1539
  198MOL0     C26615  10.355   1.847   6.806 -0.5122  0.4139  0.0011
  198MOL0     C26616  10.433   1.720   6.766 -0.4626  0.5957  1.0288
  198MOL0     C26617  10.485   1.729   6.614  0.0625  0.8797  0.5025
  198MOL0     C26618  10.380   1.702   6.516 -0.4882  0.5197 -0.8382
  198MOL0     O26619  10.434   1.677   6.384  0.5391 -0.6342  0.1520
  198MOL0     C26620  10.354   1.654   6.274  0.2494  0.3222  0.1919
  198MOL0     C26621  10.215   1.653   6.274  0.0642 -0.2086 -0.0452
  198MOL0     C26622  10.145   1.607   6.159 -0.0032  0.5434 -0.3808
  198MOL0     C26623   9.992   1.629   6.166  0.1208  0.3330 -0.8274
  198MOL0     C26624  10.208   1.537   6.044  0.6650  0.0856 -0.5182
  198MOL0     C26625  10.135   1.465   5.936 -0.2530  0.5592 -0.5667
  198MOL0     O26626  10.206   1.456   5.820 -0.8002  0.4501 -0.2734
  198MOL0     C26627  10.143   1.379   5.720 -1.0749  0.5965  0.5042
  198MOL0     C26628  10.113   1.453   5.603  0.0726 -0.0927  0.2251
  198MOL0     C26629  10.059   1.385   5.494  0.0106 -1.2048 -0.4902
  198MOL0     C26630  10.030   1.254   5.494 -0.3341 -0.1437 -1.2030
  198MOL0     O26631   9.998   1.185   5.383  0.4371  0.2471  0.0420
  198MOL0     C26632   9.869   1.215   5.336  0.2996 -0.4081 -0.4523
  198MOL0     C26633   9.835   1.081   5.270 -1.0230  0.0472  0.0608
  198MOL0     C26634   9.703   1.092   5.200 -0.2549 -0.5762 -0.1022
  198MOL0     C26635   9.632   0.956   5.170  0.2800 -0.0152 -0.4484
  198MOL0     C26636   9.544   0.955   5.037  0.1883  0.0804  0.5017
  198MOL0     C26637   9.449   1.065   5.049 -0.1760  0.5991  0.0008
  198MOL0     C26638   9.326   1.046   4.948  0.6068 -0.5982  0.1233
  198MOL0     C26639   9.368   1.020   4.809 -0.1790  0.5201  0.5602
  198MOL0    Cl26640   9.214   1.037   4.719 -0.2527 -0.2081  0.2927
  198MOL0     C26641  10.055   1.179   5.614 -0.3537 -0.0453  0.3463
  198MOL0     C26642  10.105   1.244   5.728  0.4041 -0.5684  0.7757
  198MOL0     O26643  10.022   1.418   5.951 -0.2976 -0.3043  0.4136
  198MOL0     C26644  10.348   1.545   6.054 -0.2861  0.3213  0.3523
  198MOL0     C26645  10.416   1.604   6.161  0.2130 -0.7377 -0.2018
  198MOL0     N26646  10.154   1.826   6.946 -0.8324 -0.1212  0.2851
  198MOL0     N26647  10.127   1.838   7.070 -0.1822  0.2137  0.5765
  198MOL0     C26648   9.562   2.355   7.452 -0.6568 -0.0923  0.0108
  198MOL0     C26649   9.477   2.437   7.536 -0.0101 -0.6361  0.2936
  198MOL0     C26650   9.203   2.731   7.738 -0.0176  0.0048  0.4562
  198MOL0     C26651   9.124   2.826   7.664 -0.2673 -0.0864 -0.2301
  198MOL0     C26652   9.061   2.924   7.742 -0.3782  0.4651  0.3612
  198MOL0     C26653   9.071   2.946   7.870 -0.1533 -0.0225  0.3642
  198MOL0     O26654   9.016   3.064   7.911 -0.0097 -0.1045  0.1876
  198MOL0     C26655   8.954   3.054   8.045  0.3858  0.5964  0.5559
  198MOL0     C26656   8.811   3.116   8.030  0.0065  0.2446 -0.7336
  198MOL0     C26657   8.703   3.021   7.974 -1.0215  0.3299 -0.4255
  198MOL0     C26658   8.619   3.075   7.865 -0.2910 -0.2064  0.3567
  198MOL0     C26659   8.692   3.126   7.749 -0.9898 -1.5322  0.1210
  198MOL0     C26660   8.773   3.174   7.665 -0.2487 -0.1854  0.8407
  198MOL0     C26661   9.150   2.855   7.945 -0.6952  0.1873 -1.0887
  198MOL0     C26662   9.215   2.753   7.883 -0.1370  0.2644  0.1890
  198MOL0     H26663   9.308   2.601   7.288 -1.0905 -0.2095  0.5628
  198MOL0     H26664   9.428   2.438   7.157 -0.2143 -0.8699  0.2625
  198MOL0     H26665   9.749   2.287   7.065 -0.6171 -1.7814  2.1815
  198MOL0     H26666   9.639   2.425   7.075 -1.2815  1.2137  2.6060
  198MOL0     H26667   9.835   2.525   7.131 -2.0965  4.1778  3.1002
  198MOL0     H26668   9.747   2.510   7.272 -2.6030  0.8650 -2.0038
  198MOL0     H26669   9.967   2.427   7.354  1.2340 -1.9525 -1.4111
  198MOL0     H26670   9.888   2.276   7.307  1.9292  0.0272  1.0713
  198MOL0     H26671   9.988   2.306   7.084  0.0792 -0.2117  0.7720
  198MOL0     H26672  10.072   2.451   7.134 -0.3418 -1.2370 -6.8321
  198MOL0     H26673  10.237   2.306   7.183  0.9277  0.4155  0.3965
  198MOL0     H26674  10.159   2.310   7.340 -1.7832 -2.5782  1.8403
  198MOL0     H26675  10.033   2.089   7.285 -0.0353 -0.4008  0.3507
  198MOL0     H26676  10.080   2.098   7.129 -1.9626 -1.5236  1.8980
  198MOL0     H26677  10.337   2.066   7.252  1.6961  0.0617  3.7594
  198MOL0     H26678  10.255   2.074   7.397  2.7044 -1.7367 -0.4547
  198MOL0     H26679  10.125   1.876   7.332  1.7127  2.8761  3.6346
  198MOL0     H26680  10.302   1.861   7.341  2.3274  3.3399 -0.8155
  198MOL0     H26681  10.450   1.891   7.072 -0.4642 -0.5810 -1.2554
  198MOL0     H26682  10.282   1.867   6.727 -0.3465 -0.1453 -0.3005
  198MOL0     H26683  10.427   1.930   6.814 -0.1677  0.0712  0.5337
  198MOL0     H26684  10.371   1.631   6.775  1.5004 -1.3888 -2.4366
  198MOL0     H26685  10.526   1.712   6.822 -0.2182 -0.6656  0.4722
  198MOL0     H26686  10.573   1.667   6.593 -0.3073  0.0007  1.4848
  198MOL0     H26687  10.526   1.827   6.588  0.1239  0.2338 -2.1658
  198MOL0     H26688  10.296   1.772   6.506 -2.7688 -2.1645 -2.1531
  198MOL0     H26689  10.334   1.605   6.539 -0.7737  0.6700 -0.7785
  198MOL0     H26690  10.164   1.688   6.363 -0.4571  1.5490 -0.9896
  198MOL0     H26691   9.946   1.531   6.185  4.1296 -0.9731  4.8863
  198MOL0     H26692   9.956   1.690   6.250 -0.5682 -2.2009  0.8478
  198MOL0     H26693   9.957   1.681   6.077 -0.2348  3.0583  0.7880
  198MOL0     H26694  10.140   1.559   5.605  1.0362 -0.3339  0.3726
  198MOL0     H26695  10.067   1.437   5.399  1.3205 -1.5619 -0.5931
  198MOL0     H26696   9.795   1.239   5.413 -1.0011  0.9721 -2.0322
  198MOL0     H26697   9.859   1.301   5.269  1.0276  0.4194  0.4719
  198MOL0     H26698   9.913   1.051   5.199 -1.0639 -2.3810  0.9272
  198MOL0     H26699   9.844   0.995   5.337  1.5627 -0.9497 -1.4293
  198MOL0     H26700   9.723   1.137   5.103  1.7222 -2.9463 -0.8978
  198MOL0     H26701   9.629   1.156   5.250  0.8407  0.5357  0.1311
  198MOL0     H26702   9.702   0.872   5.163  1.6787  0.9063  1.5799
  198MOL0     H26703   9.579   0.927   5.261 -0.2050 -1.4824 -1.1626
  198MOL0     H26704   9.493   0.859   5.032 -1.9276  1.1995 -0.5390
  198MOL0     H26705   9.600   0.970   4.944 -2.4724 -0.3737 -1.2506
  198MOL0     H26706   9.404   1.057   5.148  1.0122 -2.8504  0.3747
  198MOL0     H26707   9.497   1.162   5.031  1.6218  0.3887  2.9713
  198MOL0     H26708   9.273   1.142   4.946 -0.6540 -1.2649 -2.0379
  198MOL0     H26709   9.262   0.968   4.989 -0.0686  1.2298  2.8310
  198MOL0     H26710   9.406   0.919   4.792 -1.8596 -0.2226  0.9448
  198MOL0     H26711   9.438   1.100   4.783 -1.6013  1.1884 -1.3905
  198MOL0     H26712  10.034   1.073   5.619 -2.3648  0.2671 -0.2897
  198MOL0     H26713  10.124   1.192   5.822 -1.9515 -2.8342  0.1157
  198MOL0     H26714  10.409   1.511   5.971  1.3308 -0.4634  1.7869
  198MOL0     H26715  10.524   1.592   6.154  0.0555 -2.5779 -0.0755
  198MOL0     H26716   9.636   2.292   7.500 -0.9324 -0.6971 -0.3487
  198MOL0     H26717   9.486   2.426   7.643  0.4209 -1.3618  0.1893
  198MOL0     H26718   9.120   2.818   7.555 -0.6015  0.0036 -0.2269
  198MOL0     H26719   9.014   3.009   7.694 -0.2973 -0.1015 -0.7503
  198MOL0     H26720   8.941   2.956   8.093 -2.9820  0.7306  0.1636
  198MOL0     H26721   9.011   3.116   8.114 -0.8697  0.4121  1.8066
  198MOL0     H26722   8.814   3.212   7.978 -1.7129  0.6865 -0.0563
  198MOL0     H26723   8.778   3.149   8.128  0.4792  1.0329 -0.8341
  198MOL0     H26724   8.646   2.987   8.061 -0.9798  0.8189 -0.2026
  198MOL0     H26725   8.745   2.928   7.934 -0.7001  1.3976 -2.7532
  198MOL0     H26726   8.553   3.151   7.908 -0.3878 -0.3214  0.4122
  198MOL0     H26727   8.555   2.993   7.833  1.3768 -1.6754  0.6195
  198MOL0     H26728   8.840   3.201   7.586  0.5262 -0.5146  1.3836
  198MOL0     H26729   9.166   2.861   8.052 -0.5367  0.3019 -1.1184
  198MOL0     H26730   9.275   2.685   7.944  2.4703  0.9167 -1.4901
  199MOL0     O26731  10.544   2.100   6.660 -0.5262 -0.1539  0.2244
  199MOL0     C26732  10.584   2.154   6.560  0.2749 -0.6505  0.4314
  199MOL0     O26733  10.525   2.140   6.435 -0.0400 -0.3815 -0.9340
  199MOL0     C26734  10.395   2.098   6.414 -0.1812 -0.8957 -0.1179
  199MOL0     C26735  10.294   2.111   6.519 -0.1762 -0.3179  0.3253
  199MOL0     C26736  10.167   2.060   6.506  0.4564 -0.5570 -0.0007
  199MOL0     C26737  10.133   1.988   6.391 -0.3881 -0.3919  0.8655
  199MOL0     O26738  10.005   1.941   6.372  0.1078 -0.3704 -0.0507
  199MOL0     C26739   9.914   1.913   6.479 -0.7112 -0.1476  0.5188
  199MOL0     C26740   9.962   1.805   6.575 -0.1701  0.3601  0.5442
  199MOL0     C26741   9.858   1.782   6.695  0.4878 -0.3134  0.1711
  199MOL0     C26742   9.862   1.902   6.799 -0.3026  0.2441  0.3549
  199MOL0     C26743   9.780   1.857   6.916 -0.2293 -0.9305 -0.5603
  199MOL0     C26744   9.770   1.977   7.020  0.4380 -0.9640 -0.3662
  199MOL0     C26745   9.699   1.941   7.153  0.7619 -0.8565 -0.5987
  199MOL0     C26746   9.548   1.931   7.134  0.4646  0.1365 -0.5542
  199MOL0     N26747   9.484   1.856   7.240 -0.0394 -0.0567 -0.3325
  199MOL0     C26748   9.415   1.909   7.351 -1.3313  0.2887 -0.7971
  199MOL0     C26749   9.377   1.795   7.425 -0.1116 -0.2633 -0.3728
  199MOL0     C26750   9.292   1.784   7.557 -0.2983 -0.4026 -0.1928
  199MOL0     C26751   9.140   1.791   7.516  0.1045 -0.0338  0.2585
  199MOL0     C26752   9.046   1.816   7.640  0.5026 -0.4533  0.0311
  199MOL0     C26753   8.901   1.798   7.592  0.6792 -0.8439 -0.7303
  199MOL0     O26754   8.856   1.911   7.521 -0.7423 -0.3453 -0.9355
  199MOL0     C26755   8.729   1.914   7.473 -0.1000 -0.8440  0.5314
  199MOL0     C26756   8.699   2.005   7.371  0.6388  0.3088  0.5186
  199MOL0     C26757   8.582   2.003   7.303  0.0508  0.3232  0.0925
  199MOL0     C26758   8.567   2.112   7.196  0.2020  0.8412 -0.1050
  199MOL0     C26759   8.484   1.910   7.337  0.0258 -0.3882 -0.3685
  199MOL0     C26760   8.353   1.895   7.269  0.5940  0.7589 -0.4551
  199MOL0     O26761   8.336   1.962   7.153  0.3582  0.5588 -0.2548
  199MOL0     C26762   8.214   2.007   7.117 -0.2216 -0.8299 -0.7727
  199MOL0     C26763   8.102   2.035   7.207 -0.0625  0.0089  0.3631
  199MOL0     C26764   7.991   2.114   7.156  0.1502 -0.1530 -0.4099
  199MOL0     C26765   7.979   2.162   7.028  0.0498 -0.5505  0.5293
  199MOL0     O26766   7.864   2.234   6.995 -0.4177  0.2592 -0.4672
  199MOL0     C26767   7.834   2.261   6.855 -0.8605  0.5234 -0.3721
  199MOL0     C26768   7.696   2.301   6.846  0.3113  0.2061  0.4756
  199MOL0     C26769   7.603   2.181   6.816 -0.8261 -0.8497  0.1368
  199MOL0     C26770   7.480   2.228   6.722  0.2843 -0.0148 -0.6311
  199MOL0     C26771   7.429   2.109   6.634 -0.8213 -0.0951 -0.1574
  199MOL0     C26772   7.363   1.998   6.723 -0.5951  0.4828  0.4021
  199MOL0     C26773   7.354   1.864   6.648 -0.4059 -0.6137  0.8493
  199MOL0     C26774   7.341   1.744   6.751 -0.8268  0.2367  0.9991
  199MOL0    Cl26775   7.270   1.603   6.657  0.0556 -0.4894 -0.3682
  199MOL0     C26776   8.083   2.125   6.945  0.4983 -0.3294  0.0822
  199MOL0     C26777   8.198   2.056   6.986 -0.3485 -0.0244 -0.0880
  199MOL0     O26778   8.266   1.825   7.326 -0.7715 -0.3376  0.0016
  199MOL0     C26779   8.509   1.833   7.455  0.7876 -0.4920 -0.6233
  199MOL0     C26780   8.625   1.826   7.517 -1.0025  0.0585 -0.2619
  199MOL0     N26781   9.431   1.693   7.358 -0.8268  0.0005  0.5853
  199MOL0     N26782   9.497   1.726   7.257  0.1394 -0.3170 -0.0751
  199MOL0     C26783  10.228   1.984   6.283  0.1274 -0.1404  0.2544
  199MOL0     C26784  10.357   2.035   6.299 -0.1669 -0.4826  0.5005
  199MOL0     C26785  10.717   2.221   6.558 -0.1305  0.3767  0.1088
  199MOL0     C26786  10.784   2.241   6.438 -0.2449  0.1140  0.2318
  199MOL0     C26787  10.897   2.315   6.432 -0.8529  0.4232  0.2419
  199MOL0     C26788  10.952   2.370   6.551  1.0816  0.4276  0.0247
  199MOL0     O26789  11.071   2.428   6.532  0.6476 -0.0387 -0.1176
  199MOL0     C26790  11.115   2.516   6.636 -1.5006 -0.1820 -0.9309
  199MOL0     C26791  11.260   2.552   6.618  0.3563  0.2958  0.1989
  199MOL0     C26792  11.355   2.434   6.633  0.0193  0.7790 -0.6400
  199MOL0     C26793  11.496   2.485   6.648 -0.3663 -0.3817  0.9484
  199MOL0     C26794  11.599   2.382   6.650  0.6352  0.6142 -0.8576
  199MOL0     C26795  11.676   2.286   6.646  0.2537 -0.0798  0.0604
  199MOL0     C26796  10.877   2.355   6.669  0.7292 -0.6087  0.1047
  199MOL0     C26797  10.758   2.278   6.675 -0.9435  0.4099 -0.7841
  199MOL0     H26798  10.313   2.153   6.617 -0.9350 -2.9574  1.6886
  199MOL0     H26799  10.094   2.075   6.585 -1.9289 -2.1842 -1.7687
  199MOL0     H26800   9.891   2.004   6.535  0.8696  0.1847  0.6767
  199MOL0     H26801   9.829   1.886   6.416 -1.4164  0.8722  1.0032
  199MOL0     H26802   9.984   1.714   6.518  0.1082  1.6333 -1.4929
  199MOL0     H26803  10.061   1.824   6.617  0.7671 -3.6036  0.5147
  199MOL0     H26804   9.755   1.779   6.658 -0.2382  1.1816  1.9027
  199MOL0     H26805   9.876   1.680   6.729 -0.9618 -0.6582 -0.0378
  199MOL0     H26806   9.963   1.929   6.830 -0.1432  2.4053 -1.7377
  199MOL0     H26807   9.814   1.993   6.762 -1.4693 -0.3895  0.2621
  199MOL0     H26808   9.676   1.835   6.889 -2.2240  2.0178  3.6311
  199MOL0     H26809   9.830   1.774   6.967  1.4417 -0.0960 -0.7625
  199MOL0     H26810   9.872   2.008   7.044  0.2294 -1.9685  2.0857
  199MOL0     H26811   9.717   2.066   6.984  2.4868 -0.0100 -1.1630
  199MOL0     H26812   9.738   1.844   7.185  0.2937 -1.1606 -0.9251
  199MOL0     H26813   9.731   2.013   7.229  1.8094  0.9285 -2.6439
  199MOL0     H26814   9.530   1.880   7.039 -0.7020 -3.4907  1.4383
  199MOL0     H26815   9.487   2.021   7.122 -0.4834 -0.2360  1.1452
  199MOL0     H26816   9.394   2.014   7.371  0.3149  0.2728  1.2982
  199MOL0     H26817   9.320   1.701   7.623  0.3853 -0.2279 -0.2527
  199MOL0     H26818   9.325   1.875   7.608  1.5073 -0.7646 -0.6209
  199MOL0     H26819   9.109   1.696   7.471  0.8446  1.0819 -2.8679
  199MOL0     H26820   9.127   1.859   7.431  3.6581  0.0708 -0.3472
  199MOL0     H26821   9.057   1.917   7.680 -2.2351 -1.1560  3.0039
  199MOL0     H26822   9.062   1.748   7.725 -1.8751  3.6763  4.2358
  199MOL0     H26823   8.843   1.791   7.685  1.0131 -1.2022 -0.5438
  199MOL0     H26824   8.885   1.709   7.532 -0.7211 -0.9201 -0.2692
  199MOL0     H26825   8.775   2.077   7.342  0.0084  1.2496  1.1705
  199MOL0     H26826   8.558   2.060   7.101 -1.4364 -1.3316  1.1468
  199MOL0     H26827   8.482   2.177   7.220  1.1262  2.2884 -0.6207
  199MOL0     H26828   8.655   2.176   7.190  0.7439  0.3439  1.6832
  199MOL0     H26829   8.098   2.004   7.311  1.1190  0.9869  0.7126
  199MOL0     H26830   7.909   2.146   7.220  1.1764  1.0443  0.3366
  199MOL0     H26831   7.900   2.340   6.818 -2.0252  1.7340  0.0356
  199MOL0     H26832   7.855   2.171   6.797  1.1071  0.9123 -0.3454
  199MOL0     H26833   7.667   2.342   6.943  2.2281 -0.4240  1.3556
  199MOL0     H26834   7.685   2.380   6.770  0.4690  0.7379  0.9967
  199MOL0     H26835   7.569   2.153   6.916  0.0568 -0.5875  0.5278
  199MOL0     H26836   7.659   2.103   6.762 -0.3421 -1.3373  1.2978
  199MOL0     H26837   7.399   2.269   6.784 -0.0228 -0.7698 -0.5297
  199MOL0     H26838   7.505   2.312   6.656 -2.3269  1.0853 -0.3140
  199MOL0     H26839   7.510   2.067   6.574 -0.2279 -2.7361  2.2624
  199MOL0     H26840   7.358   2.151   6.563 -1.2372  3.8884  2.3215
  199MOL0     H26841   7.424   1.978   6.811  1.7722 -1.6500 -1.5798
  199MOL0     H26842   7.266   2.033   6.759 -0.1680  1.7406  0.3719
  199MOL0     H26843   7.436   1.860   6.575  0.3423  1.5863  1.4965
  199MOL0     H26844   7.264   1.857   6.586  1.1333 -1.1520 -1.4663
  199MOL0     H26845   7.284   1.763   6.843  0.9975 -1.2622  2.5280
  199MOL0     H26846   7.443   1.713   6.775  0.8333  2.2888 -2.6187
  199MOL0     H26847   8.079   2.137   6.837  0.1110 -2.5796 -0.2138
  199MOL0     H26848   8.285   2.053   6.922 -0.3008  1.4762 -0.1302
  199MOL0     H26849   8.432   1.768   7.495 -0.7021  1.8098  0.4366
  199MOL0     H26850   8.626   1.764   7.606  1.6783  0.4071  0.0420
  199MOL0     H26851  10.196   1.931   6.194  0.0045 -4.5378  2.6549
  199MOL0     H26852  10.423   2.025   6.214  3.6810  3.6421  2.5938
  199MOL0     H26853  10.747   2.212   6.340  0.4028  4.8212 -1.7228
  199MOL0     H26854  10.941   2.319   6.333 -2.4734  0.0130 -0.5252
  199MOL0     H26855  11.053   2.604   6.655 -2.4860 -0.4446 -2.7835
  199MOL0     H26856  11.114   2.463   6.732 -1.1205 -3.4083 -2.5750
  199MOL0     H26857  11.278   2.638   6.684 -0.1594  0.3683  0.2541
  199MOL0     H26858  11.260   2.592   6.516  0.8038 -0.6246 -0.1729
  199MOL0     H26859  11.361   2.365   6.549  2.3212  0.5883 -0.3825
  199MOL0     H26860  11.335   2.394   6.733  2.2598 -2.8654 -1.4853
  199MOL0     H26861  11.507   2.558   6.729 -0.1316  1.3061 -0.5581
  199MOL0     H26862  11.512   2.539   6.555 -2.3113 -0.7745  0.3281
  199MOL0     H26863  11.745   2.205   6.644 -0.3020 -0.5636 -2.2812
  199MOL0     H26864  10.919   2.401   6.758 -0.1454 -0.8051  0.6376
  199MOL0     H26865  10.706   2.273   6.770  3.5999 -0.3591  1.9626
  200MOL0     O26866   8.667   9.894   6.056  0.1268  0.0321 -0.2556
  200MOL0     C26867   8.677  10.013   6.047 -0.5296  0.5953 -0.4210
  200MOL0     O26868   8.801  10.087   6.052  0.3184  0.0498  0.5709
  200MOL0     C26869   8.914  10.024   6.014 -0.1409  0.0995  0.1694
  200MOL0     C26870   8.993  10.075   5.901  0.8151 -0.1216 -0.6872
  200MOL0     C26871   9.108  10.014   5.863  0.0295  0.3910  0.4515
  200MOL0     C26872   9.146   9.895   5.917 -0.7568  1.2185 -0.0907
  200MOL0     O26873   9.255   9.837   5.857  0.1765  0.8221  0.6211
  200MOL0     C26874   9.212   9.724   5.779  0.1730  0.1705  1.0737
  200MOL0     C26875   9.158   9.768   5.641 -0.5844 -0.0633  0.7039
  200MOL0     C26876   9.176   9.651   5.555  0.0776  0.1607 -0.3323
  200MOL0     C26877   9.100   9.530   5.602 -0.2665  0.2498 -0.1908
  200MOL0     C26878   9.137   9.393   5.528 -0.9735 -0.3680 -0.2731
  200MOL0     C26879   9.098   9.272   5.618  0.2199  0.1941 -0.5918
  200MOL0     C26880   8.952   9.274   5.649  0.8116 -0.1719  0.0644
  200MOL0     C26881   8.878   9.139   5.673 -0.6230 -1.1344 -0.8537
  200MOL0     N26882   8.900   9.088   5.809  0.1600  0.6144  0.1268
  200MOL0     C26883   8.853   9.145   5.928 -0.5297 -0.2182 -0.1644
  200MOL0     C26884   8.887   9.055   6.020  0.3777  0.0467 -0.2241
  200MOL0     C26885   8.877   9.073   6.165 -0.1396 -1.2216  0.1962
  200MOL0     C26886   8.989   9.134   6.244 -0.2936 -0.1818  0.0061
  200MOL0     C26887   9.123   9.077   6.220  0.3913  0.2028 -0.4660
  200MOL0     C26888   9.146   8.920   6.217 -0.5871 -0.3900  0.9697
  200MOL0     O26889   9.203   8.880   6.340 -0.1681 -0.0586 -0.3423
  200MOL0     C26890   9.328   8.834   6.348 -0.5295 -0.1021  0.1972
  200MOL0     C26891   9.351   8.721   6.421  0.8450 -0.3094 -1.5132
  200MOL0     C26892   9.482   8.677   6.444  0.8043  0.3446 -0.0138
  200MOL0     C26893   9.489   8.548   6.527  0.9212 -0.5014  0.3313
  200MOL0     C26894   9.592   8.742   6.388 -0.7070  0.0136 -0.3358
  200MOL0     C26895   9.736   8.693   6.397  0.2516  0.0665 -0.2388
  200MOL0     O26896   9.830   8.777   6.347 -1.3912  0.0166 -0.1527
  200MOL0     C26897   9.960   8.755   6.389 -0.6258 -0.2692 -0.1656
  200MOL0     C26898  10.007   8.713   6.514 -0.0545  0.7575  0.0260
  200MOL0     C26899  10.143   8.708   6.544  0.4228 -0.9167 -0.2389
  200MOL0     C26900  10.245   8.747   6.454  0.3858 -0.1469  0.3769
  200MOL0     O26901  10.368   8.746   6.509 -0.4625 -0.0788  0.4435
  200MOL0     C26902  10.478   8.743   6.416  0.1640 -0.1895  0.8277
  200MOL0     C26903  10.608   8.721   6.495 -0.4385  0.5173 -0.3001
  200MOL0     C26904  10.736   8.768   6.425  0.0014 -0.2004  0.0449
  200MOL0     C26905  10.868   8.730   6.498 -0.3276  0.1459 -0.7754
  200MOL0     C26906  10.916   8.841   6.586  0.0394  0.9325 -1.2626
  200MOL0     C26907  11.068   8.831   6.610  0.4893 -0.0792 -0.4800
  200MOL0     C26908  11.145   8.949   6.678  0.7128  0.4130 -0.6816
  200MOL0     C26909  11.149   9.083   6.603  0.0546  0.5180 -0.4201
  200MOL0    Cl26910  11.246   9.092   6.468 -0.5033 -0.2304  0.0794
  200MOL0     C26911  10.198   8.784   6.322  0.5347 -0.1174  0.2539
  200MOL0     C26912  10.061   8.788   6.290  0.5056 -0.0312 -0.6277
  200MOL0     O26913   9.752   8.573   6.434  0.5061 -0.6389 -0.1860
  200MOL0     C26914   9.567   8.864   6.327 -0.0366 -0.2729 -1.0234
  200MOL0     C26915   9.436   8.918   6.308 -0.3107 -0.0171  0.2635
  200MOL0     N26916   8.950   8.941   5.960 -0.5072 -0.2914  0.4562
  200MOL0     N26917   8.964   8.970   5.834 -0.1856  0.0325 -0.0531
  200MOL0     C26918   9.079   9.842   6.026  0.2928 -0.4788  0.8625
  200MOL0     C26919   8.963   9.907   6.076  0.2718  1.1643 -0.1244
  200MOL0     C26920   8.550  10.090   6.030 -1.0278 -0.4540 -0.1794
  200MOL0     C26921   8.565  10.225   5.999 -0.2153 -1.0121 -0.5020
  200MOL0     C26922   8.451  10.303   5.988  0.4623  0.0835 -0.0685
  200MOL0     C26923   8.326  10.243   6.003  0.8779 -0.1030 -0.0216
  200MOL0     O26924   8.226  10.335   5.980  0.1366 -0.4009 -0.4820
  200MOL0     C26925   8.092  10.293   5.989 -0.9337 -0.1834  0.0585
  200MOL0     C26926   7.994  10.398   5.945 -0.1387  0.0894 -0.4903
  200MOL0     C26927   7.863  10.351   6.003  0.2065 -0.1888  0.3103
  200MOL0     C26928   7.860  10.396   6.147 -0.2215  0.2622  0.0014
  200MOL0     C26929   7.756  10.322   6.223 -0.2406 -0.6687 -0.6045
  200MOL0     C26930   7.691  10.252   6.295  0.3368  0.1875 -0.1882
  200MOL0     C26931   8.309  10.105   6.017 -0.3139  0.1747  0.1174
  200MOL0     C26932   8.423  10.027   6.045 -0.2381 -0.2166  0.1385
  200MOL0     H26933   8.962  10.167   5.851  1.3789  1.0992  1.1211
  200MOL0     H26934   9.155  10.037   5.768 -0.9018 -1.3250 -0.4730
  200MOL0     H26935   9.293   9.654   5.757 -0.5641  0.4922 -3.7572
  200MOL0     H26936   9.133   9.675   5.837  0.1682  1.0231  1.8235
  200MOL0     H26937   9.058   9.810   5.659  0.6973  2.2369  2.9904
  200MOL0     H26938   9.219   9.845   5.592  0.6943 -0.9422  0.8738
  200MOL0     H26939   9.145   9.681   5.455  0.5047  0.7082 -0.3041
  200MOL0     H26940   9.285   9.640   5.554  0.2957  1.6183  1.5499
  200MOL0     H26941   9.103   9.523   5.712  2.1375 -1.0318 -0.2654
  200MOL0     H26942   8.995   9.546   5.575 -0.6475 -0.6623  0.6683
  200MOL0     H26943   9.085   9.393   5.432 -0.4595 -0.8171 -0.5566
  200MOL0     H26944   9.246   9.389   5.526 -0.8566  1.3329  0.5220
  200MOL0     H26945   9.105   9.179   5.561 -0.9813  1.1144 -2.3576
  200MOL0     H26946   9.162   9.256   5.704 -1.0536 -2.0248  0.0109
  200MOL0     H26947   8.939   9.330   5.743 -1.2226 -2.6220  1.3525
  200MOL0     H26948   8.897   9.327   5.571  0.8527  1.8539  1.3198
  200MOL0     H26949   8.924   9.071   5.600 -0.7193 -2.7812  0.5409
  200MOL0     H26950   8.771   9.158   5.660 -0.4276 -0.1483 -1.0559
  200MOL0     H26951   8.803   9.240   5.946  1.3226  1.0198 -1.2387
  200MOL0     H26952   8.788   9.134   6.184  0.2725 -0.6180  0.2288
  200MOL0     H26953   8.851   8.973   6.202  0.6857 -1.8966 -0.9973
  200MOL0     H26954   8.970   9.101   6.346 -0.0938 -3.7309 -0.9743
  200MOL0     H26955   8.994   9.242   6.229 -0.2010 -0.0685  0.8032
  200MOL0     H26956   9.188   9.112   6.301 -0.4935  0.4368  0.1541
  200MOL0     H26957   9.168   9.134   6.139  1.2021  0.6541  0.2924
  200MOL0     H26958   9.220   8.897   6.140 -0.4209  1.6201  0.4668
  200MOL0     H26959   9.055   8.860   6.204 -1.2369 -0.1175  3.6206
  200MOL0     H26960   9.261   8.680   6.467  0.6800  1.4455 -0.1590
  200MOL0     H26961   9.386   8.528   6.556  0.0724  0.6594 -1.6955
  200MOL0     H26962   9.530   8.477   6.455  2.5442 -0.7624  1.4392
  200MOL0     H26963   9.553   8.550   6.616  4.4327  2.5080 -1.9623
  200MOL0     H26964   9.929   8.688   6.585 -2.3316 -1.1482 -2.8896
  200MOL0     H26965  10.171   8.695   6.648  0.5700 -0.4847 -0.2241
  200MOL0     H26966  10.467   8.656   6.351 -1.8051 -0.3171  1.2644
  200MOL0     H26967  10.481   8.841   6.366 -1.0529  0.9460  2.8421
  200MOL0     H26968  10.601   8.783   6.585  1.5449 -1.3494  1.2473
  200MOL0     H26969  10.619   8.615   6.519 -2.7713  0.5165  1.2122
  200MOL0     H26970  10.716   8.875   6.428 -0.3633 -0.2995  1.9868
  200MOL0     H26971  10.729   8.729   6.323 -3.2140  0.5523 -0.1202
  200MOL0     H26972  10.836   8.654   6.570 -2.1368  2.8820  1.4946
  200MOL0     H26973  10.947   8.693   6.431  2.8847  0.0058  2.7284
  200MOL0     H26974  10.867   8.823   6.682 -1.6447 -0.3922 -2.3116
  200MOL0     H26975  10.885   8.936   6.541 -4.5455  0.0173 -0.5756
  200MOL0     H26976  11.090   8.733   6.653 -2.0385 -1.2056 -1.5980
  200MOL0     H26977  11.116   8.827   6.512  2.6741 -0.7654  0.5365
  200MOL0     H26978  11.244   8.927   6.721  0.7212  3.0475  0.8484
  200MOL0     H26979  11.080   8.964   6.765  1.3309 -1.2413  0.1100
  200MOL0     H26980  11.185   9.161   6.671  1.4568  0.2977 -0.8793
  200MOL0     H26981  11.048   9.123   6.589  0.1465  2.1567  2.6034
  200MOL0     H26982  10.274   8.819   6.253  0.6190 -0.4157  0.1934
  200MOL0     H26983  10.015   8.832   6.202 -0.4516 -1.8205 -1.0801
  200MOL0     H26984   9.650   8.921   6.286  0.6620 -0.3065  0.2674
  200MOL0     H26985   9.408   9.006   6.252 -0.8769  0.0820  0.6922
  200MOL0     H26986   9.100   9.746   6.073  0.9286  0.1255  1.8311
  200MOL0     H26987   8.900   9.854   6.147 -1.5868  1.2121 -1.6713
  200MOL0     H26988   8.657  10.280   5.986 -0.9629  0.3948 -0.0874
  200MOL0     H26989   8.460  10.404   5.949 -0.4322  0.5266  0.8525
  200MOL0     H26990   8.075  10.211   5.918 -2.3439  1.0115 -1.0655
  200MOL0     H26991   8.062  10.261   6.089 -1.3330  1.4308  0.4933
  200MOL0     H26992   7.992  10.401   5.836  0.9700 -2.6689 -0.6682
  200MOL0     H26993   8.021  10.497   5.982 -0.6497 -0.4816  1.5280
  200MOL0     H26994   7.855  10.243   5.998 -1.0091 -0.0599 -1.2513
  200MOL0     H26995   7.775  10.395   5.956 -0.0148  0.0240  0.9091
  200MOL0     H26996   7.829  10.500   6.142  0.3190  0.4303  0.1406
  200MOL0     H26997   7.959  10.398   6.193 -0.0688 -3.6166  0.2345
  200MOL0     H26998   7.637  10.200   6.371  0.9724  0.4313  0.4464
  200MOL0     H26999   8.211  10.059   6.016 -0.2359  0.0120 -0.3377
  200MOL0     H27000   8.411   9.921   6.062 -1.0395 -0.5078 -1.9176
  201MOL0     O27001   7.407   2.607   1.910  0.2557  0.1334  0.1067
  201MOL0     C27002   7.444   2.653   2.019 -0.5281  0.7249  1.2155
  201MOL0     O27003   7.514   2.768   2.029 -0.6491  0.0558  0.5742
  201MOL0     C27004   7.561   2.832   1.912  0.1051  0.5276 -0.8887
  201MOL0     C27005   7.689   2.803   1.856 -1.0164 -0.0266  0.8116
  201MOL0     C27006   7.723   2.867   1.734 -0.3479 -0.2041 -0.4355
  201MOL0     C27007   7.630   2.947   1.673  0.0150  0.1945 -0.5952
  201MOL0     O27008   7.672   3.008   1.554 -0.2475 -0.1111 -0.2130
  201MOL0     C27009   7.597   3.124   1.497 -0.3585  0.9734 -0.0316
  201MOL0     C27010   7.650   3.147   1.351  0.5859 -1.1556  0.8377
  201MOL0     C27011   7.603   3.278   1.287  0.2276  1.1141  0.5964
  201MOL0     C27012   7.704   3.399   1.310  0.2070 -0.0964  0.3908
  201MOL0     C27013   7.766   3.413   1.449  0.5953 -0.9750  0.7298
  201MOL0     C27014   7.869   3.527   1.443 -1.0313  0.4632 -0.3088
  201MOL0     C27015   7.978   3.536   1.555 -0.0926  0.0104  0.9200
  201MOL0     C27016   8.103   3.458   1.511 -0.5780 -0.5840 -0.7604
  201MOL0     N27017   8.086   3.314   1.538  0.9994  0.0282 -0.6802
  201MOL0     C27018   8.052   3.219   1.441  0.1436  0.2979 -0.3920
  201MOL0     C27019   8.081   3.103   1.502  0.3357 -0.3888  0.0201
  201MOL0     C27020   8.045   2.967   1.440 -0.5422  0.1414  0.0990
  201MOL0     C27021   8.178   2.921   1.378 -0.5559  0.1949 -0.1403
  201MOL0     C27022   8.156   2.798   1.278  0.1084  0.5124  0.1598
  201MOL0     C27023   8.287   2.735   1.254 -0.1253  0.5268  0.2940
  201MOL0     O27024   8.387   2.835   1.235 -0.0403  0.5770 -0.2921
  201MOL0     C27025   8.511   2.817   1.288  0.3255 -0.4156  0.0625
  201MOL0     C27026   8.552   2.876   1.409  0.4359 -0.5026  0.8290
  201MOL0     C27027   8.682   2.854   1.455 -1.2243 -0.0328 -0.4453
  201MOL0     C27028   8.716   2.911   1.592  0.1519  0.2909 -0.4839
  201MOL0     C27029   8.768   2.770   1.383  0.2375 -0.0963 -0.5324
  201MOL0     C27030   8.902   2.735   1.434  0.3982 -0.4398  0.2126
  201MOL0     O27031   8.953   2.609   1.403  0.4090  0.7202  0.2101
  201MOL0     C27032   9.086   2.579   1.418 -0.0435  0.5271  0.4534
  201MOL0     C27033   9.186   2.666   1.414 -0.3738 -0.1943 -0.6574
  201MOL0     C27034   9.321   2.615   1.430  0.2869 -0.2548  0.5496
  201MOL0     C27035   9.346   2.479   1.454 -0.1271 -0.2410  0.8465
  201MOL0     O27036   9.475   2.437   1.482 -0.0691  0.3753 -0.1430
  201MOL0     C27037   9.564   2.436   1.363 -0.1317  0.1950 -0.1395
  201MOL0     C27038   9.695   2.366   1.407 -0.6003 -0.8570  1.2521
  201MOL0     C27039   9.791   2.397   1.300 -0.8015  0.6608 -0.0043
  201MOL0     C27040   9.928   2.329   1.324  0.2451 -0.1573  0.4486
  201MOL0     C27041  10.033   2.351   1.219  0.0066 -0.3735  1.1935
  201MOL0     C27042  10.152   2.254   1.223 -0.8346  0.5690  0.4476
  201MOL0     C27043  10.256   2.281   1.115 -0.1100  0.8711 -0.7720
  201MOL0     C27044  10.368   2.179   1.109  0.3781 -0.2884 -0.5662
  201MOL0    Cl27045  10.440   2.169   1.268 -0.1502  0.4337  0.0415
  201MOL0     C27046   9.236   2.389   1.449  1.0242  0.2100 -0.5730
  201MOL0     C27047   9.103   2.440   1.435  0.2762 -0.6551  0.1035
  201MOL0     O27048   8.959   2.821   1.506 -0.1204 -0.0451  0.7420
  201MOL0     C27049   8.725   2.718   1.258 -0.7238 -0.5944 -0.0281
  201MOL0     C27050   8.596   2.739   1.216 -0.1744 -0.3214 -0.3540
  201MOL0     N27051   8.138   3.121   1.627 -0.1762 -0.0229 -0.8870
  201MOL0     N27052   8.151   3.249   1.643  0.2185  0.2763 -0.8951
  201MOL0     C27053   7.497   2.965   1.726 -0.8380  0.2832 -0.4402
  201MOL0     C27054   7.472   2.905   1.848  0.2577 -1.1328  0.4150
  201MOL0     C27055   7.389   2.577   2.136 -0.9156  0.2623  0.4301
  201MOL0     C27056   7.273   2.499   2.115  0.3000 -1.5905 -0.1518
  201MOL0     C27057   7.220   2.443   2.231  0.0536  0.1386 -0.3317
  201MOL0     C27058   7.276   2.459   2.353 -0.5143 -0.5985  0.0458
  201MOL0     O27059   7.215   2.406   2.466  0.1116  0.1295  0.2309
  201MOL0     C27060   7.141   2.275   2.461  0.3628 -0.8675 -0.3707
  201MOL0     C27061   7.226   2.178   2.549 -0.3060  0.4789  0.1251
  201MOL0     C27062   7.372   2.161   2.499 -0.1142  0.2330 -0.0781
  201MOL0     C27063   7.445   2.058   2.594 -0.4572 -0.5134 -0.1916
  201MOL0     C27064   7.467   2.118   2.728 -0.0882  0.0990 -0.4265
  201MOL0     C27065   7.473   2.184   2.830 -0.5834  0.6393 -0.8231
  201MOL0     C27066   7.386   2.543   2.374 -0.3417 -0.8574 -0.0084
  201MOL0     C27067   7.447   2.597   2.263  0.3685 -0.4329 -0.2573
  201MOL0     H27068   7.768   2.748   1.906 -0.4260 -1.1401 -1.2318
  201MOL0     H27069   7.827   2.859   1.702  0.6395  1.6977  1.9521
  201MOL0     H27070   7.489   3.110   1.498 -0.1113 -1.2589  0.4732
  201MOL0     H27071   7.606   3.213   1.560  0.5273  1.7615 -1.2307
  201MOL0     H27072   7.759   3.144   1.343  0.6346  1.7871 -1.6901
  201MOL0     H27073   7.613   3.068   1.286 -0.4691  0.4250 -0.5784
  201MOL0     H27074   7.592   3.257   1.181 -1.2785 -3.2160  1.4073
  201MOL0     H27075   7.503   3.291   1.329 -0.5950 -0.3115 -0.8324
  201MOL0     H27076   7.787   3.385   1.240 -0.3494  3.4962 -1.2516
  201MOL0     H27077   7.640   3.485   1.284 -2.2305 -0.7933  3.4395
  201MOL0     H27078   7.692   3.445   1.523  2.3392  1.7835  1.4291
  201MOL0     H27079   7.806   3.320   1.489 -0.2359 -1.2459  0.9549
  201MOL0     H27080   7.918   3.514   1.347  3.7300 -1.0476  2.0086
  201MOL0     H27081   7.819   3.622   1.425  0.0733  0.6525 -2.6208
  201MOL0     H27082   7.997   3.643   1.565  0.5890  0.1293 -1.2734
  201MOL0     H27083   7.944   3.492   1.649 -1.1895 -1.0333  0.0681
  201MOL0     H27084   8.186   3.488   1.576  0.0316 -2.2580 -0.7081
  201MOL0     H27085   8.135   3.477   1.408  4.6076  2.8750  1.0462
  201MOL0     H27086   8.008   3.226   1.342 -2.4231 -0.2354  0.6261
  201MOL0     H27087   8.023   2.892   1.517  0.3368 -0.6836 -0.4237
  201MOL0     H27088   7.966   2.973   1.365  1.4227 -0.5305 -2.1593
  201MOL0     H27089   8.229   2.882   1.466  2.1900 -1.0953 -2.1286
  201MOL0     H27090   8.225   3.009   1.333  1.3385  1.3398  3.6815
  201MOL0     H27091   8.121   2.837   1.182  0.4286 -0.0975 -0.2095
  201MOL0     H27092   8.082   2.727   1.316  3.3352 -2.2045  1.9427
  201MOL0     H27093   8.274   2.668   1.168  1.3537  1.6992 -0.9179
  201MOL0     H27094   8.317   2.673   1.339 -1.5868 -1.0894 -0.3173
  201MOL0     H27095   8.477   2.944   1.449  0.2149  0.8532 -1.6568
  201MOL0     H27096   8.726   2.832   1.667  0.4522 -1.1634 -2.0052
  201MOL0     H27097   8.806   2.973   1.598  0.3452 -0.0984  3.5720
  201MOL0     H27098   8.637   2.978   1.629  0.2177 -1.1303  2.6191
  201MOL0     H27099   9.170   2.773   1.404 -1.2717 -0.3519 -1.0145
  201MOL0     H27100   9.414   2.670   1.420  0.0262 -0.1156 -1.4005
  201MOL0     H27101   9.508   2.384   1.284  0.1731  2.4027 -1.9245
  201MOL0     H27102   9.583   2.534   1.320  0.9039 -1.6564 -4.4937
  201MOL0     H27103   9.719   2.402   1.507  2.5189 -1.4967  0.8355
  201MOL0     H27104   9.694   2.258   1.424  0.6999 -0.7647  2.0276
  201MOL0     H27105   9.809   2.505   1.292 -1.3328  1.0526  2.9845
  201MOL0     H27106   9.752   2.370   1.201 -1.0574  2.1741 -0.3444
  201MOL0     H27107   9.972   2.364   1.418  0.3390 -0.1054  0.3840
  201MOL0     H27108   9.898   2.224   1.316 -3.0898  0.6895  0.3933
  201MOL0     H27109  10.065   2.456   1.224 -0.4753 -0.1141 -0.4183
  201MOL0     H27110   9.982   2.337   1.123  2.8149  1.4275 -0.7500
  201MOL0     H27111  10.192   2.253   1.324  0.3484 -0.5567  0.0024
  201MOL0     H27112  10.125   2.149   1.208  1.8630  0.2081 -3.5421
  201MOL0     H27113  10.304   2.378   1.130  1.7002 -0.2331  1.2150
  201MOL0     H27114  10.205   2.285   1.018 -0.6328 -1.0094 -0.6159
  201MOL0     H27115  10.448   2.199   1.038 -0.6065  0.5270 -1.4784
  201MOL0     H27116  10.329   2.082   1.074 -1.0052 -0.5952  1.6135
  201MOL0     H27117   9.244   2.286   1.482  1.0413  0.0860 -0.9608
  201MOL0     H27118   9.012   2.382   1.437 -0.3331 -0.0018 -2.8754
  201MOL0     H27119   8.800   2.665   1.200  2.7482  1.8181  1.9353
  201MOL0     H27120   8.552   2.689   1.130 -0.3472 -3.2536  1.3508
  201MOL0     H27121   7.420   3.018   1.671 -2.6051 -1.7657 -0.0447
  201MOL0     H27122   7.372   2.920   1.887 -0.2369  0.5512 -1.4115
  201MOL0     H27123   7.232   2.485   2.015 -1.3913  4.4809 -0.7252
  201MOL0     H27124   7.120   2.399   2.228 -0.2422  0.6742  0.9422
  201MOL0     H27125   7.042   2.289   2.506 -0.7269 -1.4119 -2.4954
  201MOL0     H27126   7.119   2.244   2.359  2.8259 -2.1200 -0.5921
  201MOL0     H27127   7.177   2.082   2.531  3.2568 -1.2809 -1.0541
  201MOL0     H27128   7.217   2.210   2.654  2.5543  0.6748  0.3898
  201MOL0     H27129   7.411   2.262   2.491 -0.4010  0.7606  3.6757
  201MOL0     H27130   7.378   2.117   2.399  3.9093 -1.3372  0.6393
  201MOL0     H27131   7.541   2.044   2.542  0.2812  0.9191  0.7081
  201MOL0     H27132   7.396   1.961   2.591 -0.8726 -0.2926 -1.4327
  201MOL0     H27133   7.482   2.240   2.921  1.4806 -2.5824  1.1640
  201MOL0     H27134   7.435   2.565   2.468  1.5166 -0.6204 -0.9641
  201MOL0     H27135   7.527   2.670   2.272 -0.1646  0.1079  0.2327
  202MOL0     O27136   9.724   1.561   6.312 -0.1311 -0.6491 -0.3554
  202MOL0     C27137   9.661   1.500   6.218 -0.5375  0.5059  0.7440
  202MOL0     O27138   9.584   1.557   6.119 -0.3296 -0.0457 -0.4910
  202MOL0     C27139   9.576   1.698   6.102 -0.1218 -1.0147  0.0240
  202MOL0     C27140   9.659   1.794   6.149 -0.3424 -0.1624 -0.2354
  202MOL0     C27141   9.643   1.932   6.136 -1.2719  0.2291  0.2905
  202MOL0     C27142   9.547   1.980   6.051  0.2333  0.1475  0.0653
  202MOL0     O27143   9.560   2.118   6.034  0.3838 -0.2877  0.3068
  202MOL0     C27144   9.458   2.189   5.954 -0.1244 -0.1795 -0.7760
  202MOL0     C27145   9.481   2.340   5.971 -0.6661 -0.4939  0.1614
  202MOL0     C27146   9.617   2.374   5.926 -1.2414  0.1071  0.2167
  202MOL0     C27147   9.643   2.361   5.779  0.4671 -0.2272 -0.5245
  202MOL0     C27148   9.735   2.467   5.722 -0.0882 -0.2040 -0.1121
  202MOL0     C27149   9.654   2.601   5.708 -0.3393  0.2039 -0.0004
  202MOL0     C27150   9.741   2.703   5.631  0.6436 -0.6911  0.0974
  202MOL0     C27151   9.726   2.691   5.482  0.8186  0.0708  0.7616
  202MOL0     N27152   9.796   2.805   5.424 -0.5922  0.6093  1.0091
  202MOL0     C27153   9.926   2.808   5.362  0.3491 -0.3348 -0.3507
  202MOL0     C27154   9.926   2.919   5.279  0.6844 -0.4148  0.1667
  202MOL0     C27155  10.034   2.963   5.193  0.0146  0.8864  0.2183
  202MOL0     C27156  10.134   3.050   5.271  0.3380  0.9879 -0.3438
  202MOL0     C27157  10.257   3.109   5.188  0.9515 -0.1987 -0.6273
  202MOL0     C27158  10.196   3.227   5.104 -0.5228 -0.2905  0.0038
  202MOL0     O27159  10.292   3.268   5.007 -0.2042 -0.2537 -0.2183
  202MOL0     C27160  10.398   3.336   5.052 -0.1428  0.4380  0.0471
  202MOL0     C27161  10.390   3.455   5.132  0.2587  0.5976  0.6151
  202MOL0     C27162  10.501   3.513   5.181  0.0836  0.2179  0.1448
  202MOL0     C27163  10.473   3.648   5.260  0.5798  0.6009  0.0475
  202MOL0     C27164  10.633   3.461   5.135  0.3266  0.2637  0.2767
  202MOL0     C27165  10.759   3.528   5.183 -0.0200  0.0437  0.9629
  202MOL0     O27166  10.745   3.635   5.269 -0.6112 -0.0858  0.1525
  202MOL0     C27167  10.843   3.728   5.314 -0.9814  0.2619 -0.1171
  202MOL0     C27168  10.966   3.746   5.245  0.0487  0.1240 -0.5951
  202MOL0     C27169  11.049   3.847   5.288 -0.1237 -0.4135  0.2784
  202MOL0     C27170  11.025   3.923   5.400 -0.3860  0.4374 -1.2418
  202MOL0     O27171  11.131   4.004   5.437 -0.2015  0.2964  0.0876
  202MOL0     C27172  11.111   4.100   5.535 -0.4872 -0.1736  0.2093
  202MOL0     C27173  11.222   4.203   5.535  0.0592 -0.8304  0.2207
  202MOL0     C27174  11.202   4.300   5.416  0.4119  0.3233 -0.6662
  202MOL0     C27175  11.304   4.409   5.426 -0.2586  1.0805  0.3366
  202MOL0     C27176  11.339   4.457   5.289 -0.6820 -0.1779 -0.3929
  202MOL0     C27177  11.421   4.366   5.193  0.3433  0.7945 -1.0044
  202MOL0     C27178  11.413   4.409   5.048 -0.0841  0.3608 -0.0903
  202MOL0     C27179  11.537   4.368   4.965  0.2395  0.4751  0.8767
  202MOL0    Cl27180  11.678   4.487   4.985  0.1563 -0.0536  0.0087
  202MOL0     C27181  10.908   3.906   5.466  0.1708  0.2559 -0.3890
  202MOL0     C27182  10.819   3.814   5.419  0.2420  0.3379 -0.1519
  202MOL0     O27183  10.867   3.483   5.153 -0.5363 -0.1109 -0.1563
  202MOL0     C27184  10.637   3.348   5.050 -0.6580  0.5284  0.1861
  202MOL0     C27185  10.519   3.284   5.020  0.6544  0.4268  0.0461
  202MOL0     N27186   9.804   2.990   5.296  0.6224  0.6913  0.4349
  202MOL0     N27187   9.731   2.915   5.374 -0.5380  0.0587 -0.1774
  202MOL0     C27188   9.450   1.883   5.995 -0.5010 -0.2390 -0.0894
  202MOL0     C27189   9.470   1.747   6.028 -0.7185  0.1037 -1.7112
  202MOL0     C27190   9.669   1.346   6.223 -0.1747  0.5173  0.6486
  202MOL0     C27191   9.761   1.293   6.316  0.3379 -0.0277  0.5659
  202MOL0     C27192   9.766   1.153   6.335  0.8106  0.4114  0.0827
  202MOL0     C27193   9.700   1.064   6.247 -0.2474  0.4412 -0.3346
  202MOL0     O27194   9.721   0.925   6.239  0.3240 -0.4369 -0.8236
  202MOL0     C27195   9.848   0.880   6.275  0.9371  0.2766 -0.1909
  202MOL0     C27196   9.862   0.736   6.211 -0.3130  0.0386 -0.1357
  202MOL0     C27197   9.851   0.744   6.055 -0.8562 -0.2071  0.4287
  202MOL0     C27198   9.967   0.830   5.983  0.2023 -0.0923  0.6867
  202MOL0     C27199   9.913   0.965   5.978  0.7962  0.2631  0.3357
  202MOL0     C27200   9.895   1.090   5.973 -0.3513 -0.3572  0.1927
  202MOL0     C27201   9.617   1.120   6.152  0.2846  0.1039  0.4767
  202MOL0     C27202   9.592   1.259   6.146  0.5040  0.1901  0.7737
  202MOL0     H27203   9.749   1.756   6.196  1.3891  1.3668 -2.1144
  202MOL0     H27204   9.721   1.994   6.178 -0.7072  0.7316 -1.3929
  202MOL0     H27205   9.460   2.166   5.847 -2.1908 -0.3619 -0.8053
  202MOL0     H27206   9.358   2.164   5.990  0.6745 -2.2405  0.1763
  202MOL0     H27207   9.400   2.391   5.917 -1.6118 -1.3336  0.7400
  202MOL0     H27208   9.467   2.366   6.076  1.4892 -0.8891  0.5817
  202MOL0     H27209   9.634   2.479   5.951 -2.5038 -0.0875  2.0539
  202MOL0     H27210   9.698   2.320   5.976  0.9743 -0.0449 -3.2000
  202MOL0     H27211   9.695   2.266   5.766  2.1466  0.1638  2.4961
  202MOL0     H27212   9.550   2.358   5.721  0.5694 -0.3934 -0.6814
  202MOL0     H27213   9.824   2.487   5.783  1.0768 -3.0654 -0.7110
  202MOL0     H27214   9.767   2.434   5.623  0.1377  0.5351 -0.2939
  202MOL0     H27215   9.568   2.598   5.641  0.7940  1.8588 -1.6526
  202MOL0     H27216   9.620   2.647   5.800  0.5607  2.4390 -0.7096
  202MOL0     H27217   9.703   2.801   5.660 -0.9685 -2.2343  3.9303
  202MOL0     H27218   9.845   2.699   5.665  0.3097 -0.3877  1.1929
  202MOL0     H27219   9.623   2.689   5.446  1.5029 -0.4369 -1.3089
  202MOL0     H27220   9.763   2.593   5.450  2.5337  0.3867  1.6576
  202MOL0     H27221  10.001   2.730   5.374 -1.1135 -2.0005 -1.4165
  202MOL0     H27222  10.079   2.870   5.157 -3.1578  0.2533 -2.5246
  202MOL0     H27223   9.995   3.016   5.107 -0.2291 -1.2837 -1.0854
  202MOL0     H27224  10.171   2.971   5.338 -2.5815 -0.8603 -0.7569
  202MOL0     H27225  10.088   3.122   5.339 -1.0961 -0.9550  0.8567
  202MOL0     H27226  10.303   3.031   5.127  1.5508 -0.2846 -0.0707
  202MOL0     H27227  10.337   3.153   5.249  1.8180 -0.3028 -1.6717
  202MOL0     H27228  10.158   3.300   5.175  0.1275 -0.5747  0.6551
  202MOL0     H27229  10.110   3.200   5.042 -0.8366  0.5100  0.0815
  202MOL0     H27230  10.290   3.495   5.146 -2.0135 -3.5368 -1.7516
  202MOL0     H27231  10.497   3.632   5.366  0.3482  0.2503  0.0489
  202MOL0     H27232  10.527   3.735   5.222 -0.6363  2.6236  2.6268
  202MOL0     H27233  10.369   3.679   5.252  0.1583 -0.8919 -0.7375
  202MOL0     H27234  10.993   3.688   5.156  0.5377  0.9295 -0.9803
  202MOL0     H27235  11.130   3.871   5.220 -0.9623  1.6694 -0.0629
  202MOL0     H27236  11.021   4.155   5.506  0.5146  1.5514  0.2530
  202MOL0     H27237  11.099   4.047   5.630  2.7414 -1.3368  0.0871
  202MOL0     H27238  11.204   4.260   5.626 -2.0986 -1.2505  0.0980
  202MOL0     H27239  11.324   4.162   5.527 -0.4181 -1.7880 -1.7458
  202MOL0     H27240  11.098   4.333   5.419 -0.7356 -2.7699 -2.0070
  202MOL0     H27241  11.195   4.240   5.324 -1.2858  0.3270 -0.5650
  202MOL0     H27242  11.268   4.502   5.472 -2.0295  0.6596 -0.1103
  202MOL0     H27243  11.390   4.378   5.486 -2.2646  2.4006  4.2376
  202MOL0     H27244  11.400   4.546   5.307 -1.5358  0.5019 -0.7698
  202MOL0     H27245  11.248   4.487   5.235 -1.4195 -1.4441  0.0940
  202MOL0     H27246  11.525   4.368   5.225  0.3650 -3.0068 -0.2941
  202MOL0     H27247  11.392   4.261   5.207  1.4823  0.7961  2.0371
  202MOL0     H27248  11.412   4.518   5.045 -0.3652  0.4217  1.5691
  202MOL0     H27249  11.332   4.357   4.995 -0.0490 -0.3055  0.4950
  202MOL0     H27250  11.513   4.366   4.858  2.2274 -1.4513  0.3890
  202MOL0     H27251  11.564   4.267   4.997 -2.7094 -1.0974 -1.0810
  202MOL0     H27252  10.886   3.944   5.566  4.7002 -5.2921  3.3348
  202MOL0     H27253  10.721   3.806   5.464 -1.5062  0.0529 -3.6137
  202MOL0     H27254  10.726   3.300   5.012 -0.8530 -0.5213  1.0148
  202MOL0     H27255  10.519   3.200   4.950 -3.6086  2.5543 -2.9641
  202MOL0     H27256   9.369   1.917   5.932  1.3064  3.7772 -0.5204
  202MOL0     H27257   9.402   1.675   5.984  0.5851 -0.8621 -2.2246
  202MOL0     H27258   9.829   1.348   6.381  0.9953  0.4100 -0.4684
  202MOL0     H27259   9.814   1.108   6.422 -0.4549 -2.4697 -0.5950
  202MOL0     H27260   9.931   0.943   6.241  2.4506  0.2234  3.0164
  202MOL0     H27261   9.846   0.869   6.383 -2.4477 -1.0758 -0.2655
  202MOL0     H27262   9.793   0.660   6.249  1.3358 -1.7910 -0.6515
  202MOL0     H27263   9.958   0.692   6.242 -0.0963  0.1697 -0.6143
  202MOL0     H27264   9.758   0.783   6.013 -1.1099  0.2190  1.3506
  202MOL0     H27265   9.846   0.635   6.043  1.2578 -0.9066  4.2193
  202MOL0     H27266   9.988   0.805   5.879  0.0966  5.1845 -0.8945
  202MOL0     H27267  10.064   0.815   6.032  1.0724 -0.3868 -1.0328
  202MOL0     H27268   9.883   1.196   5.964 -1.8730 -0.6520 -2.0862
  202MOL0     H27269   9.552   1.058   6.091 -2.3203  3.2975 -0.2474
  202MOL0     H27270   9.519   1.305   6.080 -0.4951  2.4847  3.3004
  203MOL0     O27271   1.429   8.708   0.351  0.1262  0.8010  0.9712
  203MOL0     C27272   1.465   8.725   0.462  1.2504  0.1106 -0.1294
  203MOL0     O27273   1.438   8.634   0.563  0.5771  0.4798 -0.8331
  203MOL0     C27274   1.386   8.509   0.548  0.1697  0.4403 -0.5582
  203MOL0     C27275   1.344   8.427   0.656 -0.1132 -0.0486 -0.7629
  203MOL0     C27276   1.285   8.299   0.643 -0.1714 -0.1954  0.1325
  203MOL0     C27277   1.271   8.245   0.513  0.4470 -0.2391 -0.2421
  203MOL0     O27278   1.219   8.123   0.490 -0.2059  0.4339  0.2332
  203MOL0     C27279   1.161   8.034   0.592  0.6903 -0.9397  0.0575
  203MOL0     C27280   1.084   7.917   0.538  0.5561 -0.2006 -0.3784
  203MOL0     C27281   1.023   7.832   0.647  0.4966 -0.5818 -0.9313
  203MOL0     C27282   0.966   7.697   0.593  0.3512  0.5599  0.1929
  203MOL0     C27283   0.900   7.630   0.710  0.3101  0.8175  0.4147
  203MOL0     C27284   0.862   7.486   0.679 -1.0411  0.4142 -0.4789
  203MOL0     C27285   0.760   7.467   0.559  0.8132  0.2269 -0.0043
  203MOL0     C27286   0.650   7.553   0.563  0.8132  0.1944 -0.9160
  203MOL0     N27287   0.575   7.540   0.442 -0.5164  0.3631  0.8222
  203MOL0     C27288   0.437   7.525   0.428 -0.9968 -0.1045 -0.5691
  203MOL0     C27289   0.414   7.552   0.299  0.1129 -0.0023 -0.5287
  203MOL0     C27290   0.280   7.564   0.236 -0.3540  0.4821 -1.1292
  203MOL0     C27291   0.246   7.705   0.198  0.9268 -0.5936 -0.7776
  203MOL0     C27292   0.301   7.761   0.062 -0.4306  0.2356  0.1714
  203MOL0     C27293   0.225   7.887   0.025 -0.0546 -0.3157 -0.4327
  203MOL0     O27294   0.241   7.925  -0.110 -0.0060 -0.0518  0.1868
  203MOL0     C27295   0.321   8.036  -0.128  0.6280  0.7298  0.1578
  203MOL0     C27296   0.310   8.094  -0.262  0.7214 -0.0981 -0.4408
  203MOL0     C27297   0.368   8.209  -0.303  0.5892 -0.1341 -0.3424
  203MOL0     C27298   0.350   8.241  -0.449 -0.2402  0.3755  0.3559
  203MOL0     C27299   0.441   8.286  -0.208  0.6428 -0.4588  0.7614
  203MOL0     C27300   0.521   8.404  -0.251 -0.4216  0.1211 -0.2395
  203MOL0     O27301   0.623   8.433  -0.172  0.3804 -0.6342 -0.0630
  203MOL0     C27302   0.703   8.539  -0.204  0.1600 -0.1340  0.0415
  203MOL0     C27303   0.831   8.516  -0.233  0.1477  0.6328  1.0703
  203MOL0     C27304   0.909   8.635  -0.256 -0.7867  0.2661 -0.6258
  203MOL0     C27305   0.860   8.762  -0.253  0.5832 -0.7462  0.3672
  203MOL0     O27306   0.947   8.868  -0.282 -0.0936 -0.2855 -0.1938
  203MOL0     C27307   0.894   9.000  -0.303  0.3611  0.9795  0.2782
  203MOL0     C27308   1.005   9.094  -0.362  0.2683 -0.0255  0.0303
  203MOL0     C27309   1.035   9.056  -0.512 -0.5069 -0.0826 -0.1248
  203MOL0     C27310   1.169   9.094  -0.565  0.5240 -0.7332 -0.1006
  203MOL0     C27311   1.185   9.245  -0.558  0.1512 -0.0694 -0.2399
  203MOL0     C27312   1.317   9.297  -0.607  0.3308 -1.0796  0.0577
  203MOL0     C27313   1.326   9.443  -0.563  0.6035  0.5378  0.1345
  203MOL0     C27314   1.438   9.520  -0.632  0.1423  0.2003  0.0970
  203MOL0    Cl27315   1.438   9.689  -0.550  0.0467 -0.1395  0.2575
  203MOL0     C27316   0.722   8.773  -0.220  0.7410 -0.5473 -0.2381
  203MOL0     C27317   0.648   8.663  -0.188 -0.2501 -0.3445  0.0263
  203MOL0     O27318   0.469   8.479  -0.338  0.3430 -0.8809 -0.2283
  203MOL0     C27319   0.462   8.227  -0.081  0.3345  0.3731  0.1629
  203MOL0     C27320   0.410   8.100  -0.046  0.2758 -0.3091  0.1593
  203MOL0     N27321   0.531   7.570   0.230  0.7555 -0.3228  0.1464
  203MOL0     N27322   0.630   7.547   0.314  0.8598  1.4063 -0.1132
  203MOL0     C27323   1.316   8.322   0.405  0.4832  0.5543 -0.4281
  203MOL0     C27324   1.384   8.432   0.424  0.4102 -0.5285 -0.8507
  203MOL0     C27325   1.535   8.845   0.500  0.0095  0.0319 -0.3692
  203MOL0     C27326   1.568   8.865   0.634 -0.0175  0.1274  0.5938
  203MOL0     C27327   1.647   8.975   0.661 -0.3400 -0.0242  0.0473
  203MOL0     C27328   1.700   9.064   0.566 -1.2639 -0.5603  0.3561
  203MOL0     O27329   1.788   9.168   0.581  0.0506 -0.6399  0.5381
  203MOL0     C27330   1.797   9.217   0.713  0.3931 -0.1990 -0.1034
  203MOL0     C27331   1.888   9.337   0.716 -0.3976  0.2928 -0.3162
  203MOL0     C27332   1.825   9.465   0.665  0.3431 -0.1059 -0.9050
  203MOL0     C27333   1.919   9.584   0.677  0.5316  0.2576 -0.8893
  203MOL0     C27334   1.878   9.696   0.594  0.6888 -0.2257  0.6953
  203MOL0     C27335   1.837   9.791   0.519 -0.1160 -1.2312 -0.3603
  203MOL0     C27336   1.666   9.045   0.439 -0.2592 -1.0900 -0.4085
  203MOL0     C27337   1.583   8.936   0.400 -0.4228 -0.0532 -0.0668
  203MOL0     H27338   1.334   8.475   0.753 -1.4626 -0.6502 -0.5736
  203MOL0     H27339   1.258   8.246   0.734 -0.6551  3.2051  2.1686
  203MOL0     H27340   1.247   7.993   0.647  0.5924 -1.4627 -0.1821
  203MOL0     H27341   1.095   8.084   0.664  1.1639 -2.1351  1.3642
  203MOL0     H27342   1.005   7.951   0.471  1.1832  1.0797 -0.5129
  203MOL0     H27343   1.154   7.868   0.469  1.1728  1.5076 -1.0341
  203MOL0     H27344   1.106   7.813   0.716  1.7238 -0.7524 -2.3715
  203MOL0     H27345   0.948   7.898   0.690  0.3756 -0.9642 -0.5478
  203MOL0     H27346   0.888   7.709   0.518 -0.7094 -0.8175  1.0211
  203MOL0     H27347   1.047   7.637   0.550 -2.4810 -1.8099 -2.2525
  203MOL0     H27348   0.970   7.632   0.794 -2.8054 -0.1849  3.2019
  203MOL0     H27349   0.812   7.688   0.739 -0.9658 -1.3763  1.1051
  203MOL0     H27350   0.954   7.431   0.659 -1.4592 -2.1410  3.4741
  203MOL0     H27351   0.822   7.440   0.769  1.1600  0.3991  0.5684
  203MOL0     H27352   0.822   7.483   0.470  0.6845  1.3427  0.0963
  203MOL0     H27353   0.730   7.362   0.558  0.8932  0.1616  1.9157
  203MOL0     H27354   0.677   7.658   0.573 -0.2443  0.2983  1.8407
  203MOL0     H27355   0.577   7.532   0.642 -1.2813  2.2735 -2.1819
  203MOL0     H27356   0.358   7.512   0.501  0.9540 -1.9179  1.3838
  203MOL0     H27357   0.277   7.499   0.148 -2.4522 -1.6971  0.4179
  203MOL0     H27358   0.199   7.537   0.306 -1.1773  3.1373 -0.9652
  203MOL0     H27359   0.258   7.775   0.281 -2.8518 -0.8324  0.1679
  203MOL0     H27360   0.136   7.706   0.196  0.8743  0.6750  0.8728
  203MOL0     H27361   0.278   7.682  -0.010 -0.7035  0.0014  0.5118
  203MOL0     H27362   0.403   7.801   0.072 -0.2490 -0.7260  3.2782
  203MOL0     H27363   0.244   7.967   0.097 -1.0973 -1.4077  1.1230
  203MOL0     H27364   0.120   7.856   0.031  0.8987 -4.3900 -1.2584
  203MOL0     H27365   0.255   8.033  -0.333  1.1839 -1.8735  0.6712
  203MOL0     H27366   0.319   8.153  -0.506  1.2559 -1.9660  2.8918
  203MOL0     H27367   0.267   8.312  -0.451  1.1830  2.2141  1.8126
  203MOL0     H27368   0.439   8.290  -0.492 -0.4600  1.8114  1.4483
  203MOL0     H27369   0.865   8.413  -0.235 -0.1956  0.4864  2.0102
  203MOL0     H27370   1.012   8.605  -0.271 -0.8195 -0.3165  0.2222
  203MOL0     H27371   0.807   9.002  -0.369 -1.6390 -2.1720  2.5544
  203MOL0     H27372   0.864   9.048  -0.209 -1.2391  5.0932 -2.0752
  203MOL0     H27373   0.962   9.195  -0.354 -3.1990 -1.3681  0.0940
  203MOL0     H27374   1.091   9.075  -0.298  1.6704 -0.5358 -1.9012
  203MOL0     H27375   0.964   9.104  -0.579 -0.9473 -0.4173  0.0975
  203MOL0     H27376   1.027   8.948  -0.525 -1.0126  0.2182 -2.8580
  203MOL0     H27377   1.238   9.051  -0.492 -1.1601  0.1044  2.1083
  203MOL0     H27378   1.183   9.062  -0.669 -1.9443  2.5165 -1.6237
  203MOL0     H27379   1.159   9.279  -0.457  1.7334 -1.6770  0.7636
  203MOL0     H27380   1.115   9.291  -0.629  1.4278  4.4518  1.1002
  203MOL0     H27381   1.403   9.250  -0.559  1.6798  0.4995 -0.7208
  203MOL0     H27382   1.330   9.287  -0.715  0.9381 -0.9252  0.1134
  203MOL0     H27383   1.337   9.445  -0.454 -1.4619 -2.9811  0.5697
  203MOL0     H27384   1.226   9.484  -0.575  1.1885  2.0595  0.2542
  203MOL0     H27385   1.425   9.525  -0.740 -3.8080  2.0485  0.5006
  203MOL0     H27386   1.532   9.467  -0.616  1.2741  2.2568  0.5863
  203MOL0     H27387   0.658   8.858  -0.241  0.0721 -1.2868 -1.3136
  203MOL0     H27388   0.541   8.671  -0.177 -0.6497  2.4179 -3.8216
  203MOL0     H27389   0.539   8.259  -0.012  0.0797 -0.8663  1.0369
  203MOL0     H27390   0.441   8.040   0.039 -1.4090 -0.5554  0.6352
  203MOL0     H27391   1.309   8.279   0.305 -0.2808 -0.7192  0.1352
  203MOL0     H27392   1.432   8.464   0.332 -1.2221 -2.9262 -2.6618
  203MOL0     H27393   1.528   8.804   0.715  1.0326 -0.9780  0.3032
  203MOL0     H27394   1.683   8.984   0.763  1.1805 -0.3047 -0.4325
  203MOL0     H27395   1.701   9.242   0.759  0.2985 -0.5908 -0.0848
  203MOL0     H27396   1.850   9.147   0.778  2.4101  0.6118 -0.8054
  203MOL0     H27397   1.990   9.319   0.681  0.4001  1.8448  1.0443
  203MOL0     H27398   1.902   9.362   0.822 -1.4039 -4.2838  1.0865
  203MOL0     H27399   1.737   9.476   0.729  0.7481  0.5189 -0.4434
  203MOL0     H27400   1.802   9.461   0.558  3.0701  0.2434 -1.5755
  203MOL0     H27401   2.014   9.548   0.636  0.1435 -0.5661 -1.0773
  203MOL0     H27402   1.935   9.614   0.781 -4.8704 -0.4443  0.4176
  203MOL0     H27403   1.801   9.862   0.447  1.7813 -1.3924 -1.5407
  203MOL0     H27404   1.689   9.121   0.364 -1.6070  0.6147  0.8113
  203MOL0     H27405   1.564   8.923   0.294 -0.8318  1.6745 -0.2463
  204MOL0     O27406   9.733   4.472   0.602  0.6740  0.6772 -0.4376
  204MOL0     C27407   9.809   4.406   0.673  0.1278 -0.5316  0.1399
  204MOL0     O27408   9.815   4.272   0.680 -0.6050 -0.3852 -0.5173
  204MOL0     C27409   9.734   4.190   0.610  0.5460 -1.2040  0.5156
  204MOL0     C27410   9.717   4.196   0.469  0.0593 -0.6421  0.0810
  204MOL0     C27411   9.632   4.099   0.406 -0.0915 -0.5447 -0.3194
  204MOL0     C27412   9.587   3.986   0.479 -0.2882 -0.7918  1.4281
  204MOL0     O27413   9.521   3.881   0.413  0.8342 -0.5861 -0.1482
  204MOL0     C27414   9.585   3.835   0.296  0.5361 -1.1298  0.7115
  204MOL0     C27415   9.569   3.678   0.299  0.0288 -0.7067  0.1380
  204MOL0     C27416   9.664   3.633   0.413  1.2733 -0.1650  0.5505
  204MOL0     C27417   9.703   3.485   0.391  0.0480 -0.2658 -0.9924
  204MOL0     C27418   9.841   3.463   0.460  0.5501 -0.0759 -0.6057
  204MOL0     C27419   9.908   3.328   0.421  0.6099  0.0828  0.8055
  204MOL0     C27420   9.942   3.329   0.272  0.4934 -0.9137 -0.0102
  204MOL0     C27421  10.015   3.447   0.219 -1.3064 -0.2948  0.5173
  204MOL0     N27422  10.033   3.421   0.077 -0.5383  0.0512 -0.1225
  204MOL0     C27423   9.947   3.396  -0.027 -0.6528  0.0211 -0.9677
  204MOL0     C27424  10.028   3.338  -0.123  0.1836  1.2493  0.6560
  204MOL0     C27425  10.006   3.301  -0.267 -1.0196  0.0283 -0.2719
  204MOL0     C27426   9.994   3.422  -0.359 -0.5403  0.7524 -0.4403
  204MOL0     C27427   9.942   3.393  -0.500  0.5267 -1.0932 -0.7472
  204MOL0     C27428   9.948   3.522  -0.582 -0.6810 -0.2766 -0.0791
  204MOL0     O27429   9.873   3.636  -0.519 -0.1908  0.5123  0.7301
  204MOL0     C27430   9.738   3.648  -0.553  0.5397  0.7258 -0.5049
  204MOL0     C27431   9.648   3.539  -0.577  0.3749  0.8016  0.8208
  204MOL0     C27432   9.511   3.560  -0.598  0.7981  0.5186 -0.4870
  204MOL0     C27433   9.439   3.429  -0.605 -0.2180  0.7993  0.0112
  204MOL0     C27434   9.453   3.689  -0.602 -0.8334 -0.4345  1.3335
  204MOL0     C27435   9.309   3.714  -0.603  0.5859  0.6076 -1.1777
  204MOL0     O27436   9.268   3.821  -0.517 -0.0284  0.2949 -0.0800
  204MOL0     C27437   9.153   3.888  -0.545  0.3283 -0.0704 -0.1683
  204MOL0     C27438   9.100   3.950  -0.436 -0.2595 -0.6344 -0.4112
  204MOL0     C27439   8.972   4.010  -0.447  0.0249 -0.6083  0.2586
  204MOL0     C27440   8.906   4.019  -0.571 -0.5203 -0.4299  0.0501
  204MOL0     O27441   8.777   4.070  -0.552  0.3232 -0.3402  0.1535
  204MOL0     C27442   8.700   4.096  -0.661  0.2424  0.5195 -0.1247
  204MOL0     C27443   8.624   3.978  -0.714  1.0011  0.2721 -0.8310
  204MOL0     C27444   8.534   3.915  -0.604 -0.0072  0.3255 -0.4679
  204MOL0     C27445   8.590   3.812  -0.506 -0.1524 -0.4232 -0.9388
  204MOL0     C27446   8.480   3.747  -0.423 -0.4069 -0.3636  0.3992
  204MOL0     C27447   8.530   3.683  -0.295 -0.2653  0.2328  0.1045
  204MOL0     C27448   8.602   3.554  -0.324  0.1430 -0.1157  0.5453
  204MOL0     C27449   8.672   3.529  -0.196  0.6167  1.2900 -0.3912
  204MOL0    Cl27450   8.752   3.373  -0.205  0.0252  0.1045 -0.1435
  204MOL0     C27451   8.975   3.975  -0.689 -0.2506  0.4232 -0.5445
  204MOL0     C27452   9.096   3.906  -0.671  0.5163 -0.4032  0.1826
  204MOL0     O27453   9.231   3.652  -0.678 -0.2480 -0.0654  1.8019
  204MOL0     C27454   9.548   3.794  -0.585 -0.0824 -0.3093  0.1100
  204MOL0     C27455   9.682   3.774  -0.554 -0.1660  0.2876  0.1963
  204MOL0     N27456  10.159   3.321  -0.072  0.3803 -0.1015  0.4479
  204MOL0     N27457  10.154   3.372   0.043  0.0454 -0.6748  0.6541
  204MOL0     C27458   9.597   3.996   0.619  0.9110  0.2542  0.2082
  204MOL0     C27459   9.655   4.101   0.680  0.3750  1.0834 -0.0138
  204MOL0     C27460   9.914   4.479   0.746  0.2049  0.1032 -1.0229
  204MOL0     C27461   9.999   4.409   0.832 -0.0096  0.7929  0.5867
  204MOL0     C27462  10.104   4.466   0.905  0.1630  0.0676 -0.6165
  204MOL0     C27463  10.134   4.606   0.895 -0.9076 -0.3799 -0.3461
  204MOL0     O27464  10.237   4.665   0.978 -0.1256  0.2200 -0.0356
  204MOL0     C27465  10.284   4.793   0.926  0.4188 -0.1360 -0.8794
  204MOL0     C27466  10.418   4.831   1.004  0.6525  0.1615  0.1956
  204MOL0     C27467  10.476   4.956   0.936 -0.3052  0.5643 -0.0813
  204MOL0     C27468  10.599   5.014   1.004  0.2039  0.5189  0.3968
  204MOL0     C27469  10.639   5.126   0.916  0.0348  0.3234 -0.1042
  204MOL0     C27470  10.682   5.212   0.839  0.5244 -0.0821 -0.1338
  204MOL0     C27471  10.063   4.675   0.794 -0.1698 -0.5181  0.5561
  204MOL0     C27472   9.959   4.612   0.717 -0.3019 -0.6628  0.3698
  204MOL0     H27473   9.766   4.272   0.410  0.0737  0.1683  1.0904
  204MOL0     H27474   9.610   4.096   0.300  0.0963  0.4374 -0.3887
  204MOL0     H27475   9.534   3.875   0.208  1.8311 -4.3410 -1.6991
  204MOL0     H27476   9.688   3.867   0.274 -1.1181  2.7006 -2.8606
  204MOL0     H27477   9.466   3.651   0.322 -0.2253 -2.0899 -2.3060
  204MOL0     H27478   9.597   3.641   0.200 -2.2535  0.1587 -0.8872
  204MOL0     H27479   9.756   3.691   0.403 -0.5459  2.8508  0.0231
  204MOL0     H27480   9.624   3.645   0.514 -1.5542  2.9940 -0.7404
  204MOL0     H27481   9.625   3.414   0.419 -0.8791  0.3770 -1.8750
  204MOL0     H27482   9.728   3.468   0.285  2.1855  1.2875 -0.8127
  204MOL0     H27483   9.921   3.534   0.438  0.5209 -0.9994 -4.2662
  204MOL0     H27484   9.817   3.464   0.567  3.0967 -1.2857  0.0369
  204MOL0     H27485   9.995   3.321   0.487  1.5957 -1.6717 -0.5853
  204MOL0     H27486   9.854   3.236   0.447  2.3905 -1.4518 -0.6490
  204MOL0     H27487   9.998   3.236   0.260  1.4779 -1.2678  4.9654
  204MOL0     H27488   9.850   3.318   0.215  0.1103 -0.3975  0.4899
  204MOL0     H27489  10.116   3.453   0.260  1.1894 -0.3388 -4.7666
  204MOL0     H27490   9.966   3.545   0.228 -1.2068 -0.2612  0.6938
  204MOL0     H27491   9.845   3.432  -0.031 -0.0772  1.6589 -1.8343
  204MOL0     H27492  10.084   3.234  -0.304  2.3404  3.1798  0.5512
  204MOL0     H27493   9.906   3.257  -0.271 -0.7852 -0.4937 -0.3764
  204MOL0     H27494  10.096   3.463  -0.362 -0.0930 -0.3601 -2.6410
  204MOL0     H27495   9.916   3.484  -0.314 -0.3787 -0.0689  1.0422
  204MOL0     H27496   9.842   3.351  -0.484  0.7216 -0.9847  0.8538
  204MOL0     H27497  10.009   3.323  -0.551  5.7657  3.0950 -0.4870
  204MOL0     H27498   9.900   3.488  -0.674 -3.7752 -1.2703  1.7543
  204MOL0     H27499  10.048   3.554  -0.610 -0.8431  1.0764  0.7552
  204MOL0     H27500   9.681   3.436  -0.574 -1.6540  0.0136 -1.0656
  204MOL0     H27501   9.460   3.393  -0.707 -0.2719  1.2576 -0.1617
  204MOL0     H27502   9.474   3.355  -0.533  1.1737  0.6322 -0.7908
  204MOL0     H27503   9.333   3.445  -0.586  0.1300 -0.2853  3.5630
  204MOL0     H27504   9.166   3.938  -0.351 -0.7143 -1.4138 -0.1522
  204MOL0     H27505   8.929   4.039  -0.351 -2.2222 -2.2612 -0.1632
  204MOL0     H27506   8.623   4.165  -0.623 -2.6724 -1.1123 -2.5776
  204MOL0     H27507   8.750   4.143  -0.746 -0.4475  0.4969 -0.5578
  204MOL0     H27508   8.556   4.004  -0.795  0.6745  1.4456 -0.1933
  204MOL0     H27509   8.704   3.918  -0.759  0.9961  0.1010 -0.6163
  204MOL0     H27510   8.452   3.873  -0.664 -0.0655  1.2674 -1.0717
  204MOL0     H27511   8.480   3.985  -0.540 -2.0131 -0.9711 -0.6398
  204MOL0     H27512   8.643   3.729  -0.555  0.2043 -0.0885 -1.1250
  204MOL0     H27513   8.656   3.862  -0.435 -0.0820 -2.0025  0.1539
  204MOL0     H27514   8.415   3.684  -0.485 -1.3140  0.3885  0.5669
  204MOL0     H27515   8.405   3.821  -0.394 -1.0112 -0.1614 -1.5496
  204MOL0     H27516   8.585   3.764  -0.246 -0.6037  1.1728 -1.0105
  204MOL0     H27517   8.443   3.656  -0.234  1.9360 -3.5841  1.8482
  204MOL0     H27518   8.675   3.554  -0.405 -0.0256 -0.7747  0.3830
  204MOL0     H27519   8.529   3.476  -0.348  0.6100  0.2321 -2.3443
  204MOL0     H27520   8.595   3.528  -0.119 -0.0639  1.7611 -1.0465
  204MOL0     H27521   8.744   3.608  -0.172 -0.8694  2.2231  1.1628
  204MOL0     H27522   8.935   3.993  -0.789 -2.5232  2.2287  0.6001
  204MOL0     H27523   9.147   3.867  -0.759  0.6317 -2.6645  1.1894
  204MOL0     H27524   9.517   3.898  -0.583  0.6017 -0.0232 -1.7310
  204MOL0     H27525   9.739   3.866  -0.553  0.6834 -0.0683 -3.3176
  204MOL0     H27526   9.562   3.919   0.687  1.4473  0.0610  0.2686
  204MOL0     H27527   9.673   4.110   0.787  0.5982 -0.1834  0.0682
  204MOL0     H27528   9.974   4.305   0.847 -4.2188  1.6937  1.1099
  204MOL0     H27529  10.156   4.409   0.981 -0.9417  0.0058  0.1240
  204MOL0     H27530  10.316   4.797   0.822 -3.2694  0.0675 -2.1450
  204MOL0     H27531  10.209   4.869   0.949 -0.8535 -1.9800  1.5290
  204MOL0     H27532  10.503   4.763   0.993  1.2323  0.9661 -0.3850
  204MOL0     H27533  10.395   4.846   1.110  0.5914 -2.5397  0.6372
  204MOL0     H27534  10.401   5.034   0.919 -0.7213  0.3946  0.9260
  204MOL0     H27535  10.517   4.916   0.843  4.1443  4.6927 -0.2966
  204MOL0     H27536  10.675   4.936   1.014 -0.3089 -0.0650 -0.1351
  204MOL0     H27537  10.570   5.050   1.103 -0.1994 -2.2188  1.3594
  204MOL0     H27538  10.687   5.301   0.779 -1.0491 -2.2390 -3.8117
  204MOL0     H27539  10.076   4.783   0.787 -2.6229 -0.1853 -0.0838
  204MOL0     H27540   9.898   4.671   0.649  0.0321  1.4545  1.7939
  205MOL0     O27541   1.113   2.015   3.280  0.2041  0.7352  0.1140
  205MOL0     C27542   1.036   2.074   3.351  0.5766  0.3953 -0.0251
  205MOL0     O27543   1.072   2.144   3.465  0.0606 -0.1518 -0.3007
  205MOL0     C27544   1.197   2.123   3.519 -0.0594  0.1580  0.4585
  205MOL0     C27545   1.229   2.007   3.588 -0.1320  0.2625 -0.7033
  205MOL0     C27546   1.352   1.995   3.648  0.6276  0.5476 -0.0577
  205MOL0     C27547   1.443   2.100   3.656  0.0524  0.3480  0.7630
  205MOL0     O27548   1.559   2.073   3.713 -0.0290  0.5889 -0.1699
  205MOL0     C27549   1.659   2.170   3.695  0.5977 -0.5974 -0.3096
  205MOL0     C27550   1.777   2.127   3.779 -0.9118  0.4931  0.1564
  205MOL0     C27551   1.864   2.011   3.725 -0.2134  0.3857  1.0619
  205MOL0     C27552   1.794   1.873   3.723 -0.2381  0.6195 -0.9764
  205MOL0     C27553   1.887   1.758   3.687  0.1460  0.2528  0.2694
  205MOL0     C27554   1.851   1.614   3.738  0.5900 -0.9391  0.3169
  205MOL0     C27555   1.703   1.588   3.736 -0.2115  0.7057 -0.3859
  205MOL0     C27556   1.664   1.461   3.814  0.3284 -0.2812 -0.2621
  205MOL0     N27557   1.586   1.361   3.732  0.0149 -0.8619 -1.0380
  205MOL0     C27558   1.450   1.370   3.693 -0.4118 -0.1457  0.4084
  205MOL0     C27559   1.425   1.258   3.620  0.8462 -0.3253  0.2627
  205MOL0     C27560   1.291   1.228   3.544 -0.0488  0.7204 -0.8447
  205MOL0     C27561   1.177   1.204   3.645 -0.3093  0.4546  0.4739
  205MOL0     C27562   1.061   1.150   3.572 -0.0044  1.0939 -0.4691
  205MOL0     C27563   0.933   1.131   3.663 -1.0033  0.3055 -0.6301
  205MOL0     O27564   0.821   1.062   3.605  0.9988 -0.3807  1.0847
  205MOL0     C27565   0.702   1.067   3.666 -0.4071 -0.2030  0.1757
  205MOL0     C27566   0.666   0.970   3.754 -0.0661  0.4370  0.0290
  205MOL0     C27567   0.531   0.950   3.795 -0.1778 -0.8649  0.2894
  205MOL0     C27568   0.489   0.820   3.870 -0.7345  0.5123  0.5172
  205MOL0     C27569   0.432   1.040   3.737 -0.3493  0.6715 -0.4743
  205MOL0     C27570   0.277   1.039   3.767 -0.6023 -0.1880  0.5814
  205MOL0     O27571   0.204   1.125   3.685  0.5775  0.2678  0.0468
  205MOL0     C27572   0.061   1.129   3.670 -1.5222 -0.0093  0.3083
  205MOL0     C27573  -0.032   1.048   3.735  0.1330 -0.0596  0.1318
  205MOL0     C27574  -0.167   1.055   3.721  0.0017  0.8843 -0.3721
  205MOL0     C27575  -0.220   1.145   3.619  0.9520 -0.5963 -0.0638
  205MOL0     O27576  -0.354   1.151   3.581  0.7134  0.4631  0.4674
  205MOL0     C27577  -0.458   1.078   3.663 -0.9946  0.2093 -0.0429
  205MOL0     C27578  -0.603   1.122   3.621  0.4950 -0.0167  0.4116
  205MOL0     C27579  -0.711   1.016   3.655  0.0647  0.0433  0.5236
  205MOL0     C27580  -0.728   0.980   3.801 -0.2407 -1.2151 -0.2186
  205MOL0     C27581  -0.800   0.846   3.824 -0.2018  0.1407  0.6318
  205MOL0     C27582  -0.937   0.819   3.759  0.0546  0.7002 -0.8460
  205MOL0     C27583  -0.980   0.671   3.786 -0.2163  0.4525  0.3941
  205MOL0     C27584  -0.917   0.560   3.704  0.3684 -0.4534  0.1746
  205MOL0    Cl27585  -0.745   0.523   3.755 -0.4350  0.1793 -0.1637
  205MOL0     C27586  -0.127   1.218   3.546 -0.0835 -0.5366  0.2943
  205MOL0     C27587   0.013   1.209   3.567 -0.2269 -0.7228 -0.6005
  205MOL0     O27588   0.231   0.955   3.844 -0.4016  0.6444  0.0170
  205MOL0     C27589   0.472   1.138   3.644 -0.1127 -1.1075  0.2502
  205MOL0     C27590   0.604   1.155   3.616  0.8816 -0.2393  0.4484
  205MOL0     N27591   1.533   1.169   3.636 -0.6543  0.0354  0.1367
  205MOL0     N27592   1.624   1.234   3.701 -0.1113 -0.0319 -0.4624
  205MOL0     C27593   1.400   2.221   3.593  0.4796  1.2218 -0.2968
  205MOL0     C27594   1.280   2.231   3.528 -0.0190 -0.3198 -0.7263
  205MOL0     C27595   0.888   2.070   3.326 -0.2023  0.7315 -0.4413
  205MOL0     C27596   0.808   2.171   3.373  0.5833  0.0423 -0.1788
  205MOL0     C27597   0.670   2.149   3.371 -0.4784 -0.3011  0.6261
  205MOL0     C27598   0.610   2.031   3.308 -0.0220 -0.8504 -0.5111
  205MOL0     O27599   0.471   2.012   3.297  0.1670 -1.1373 -0.0009
  205MOL0     C27600   0.397   2.130   3.253 -0.1027 -0.7052 -0.2852
  205MOL0     C27601   0.276   2.085   3.172 -0.2019  0.6605  0.7674
  205MOL0     C27602   0.182   1.998   3.249 -0.7122 -0.2584  0.0320
  205MOL0     C27603   0.224   1.849   3.251 -0.8321  0.6932  0.7650
  205MOL0     C27604   0.172   1.793   3.122 -0.2899  0.7933  0.0721
  205MOL0     C27605   0.109   1.756   3.023  0.0424  0.4817  0.1250
  205MOL0     C27606   0.694   1.937   3.259 -0.4121  0.1546 -0.2222
  205MOL0     C27607   0.832   1.955   3.268  0.5360 -0.3333 -0.0990
  205MOL0     H27608   1.164   1.921   3.590  1.0621 -0.6952  2.3169
  205MOL0     H27609   1.383   1.898   3.686  0.7072  1.1845  1.6007
  205MOL0     H27610   1.694   2.175   3.592  1.0801  1.5697 -0.0843
  205MOL0     H27611   1.632   2.269   3.733 -1.0733 -0.6738 -1.1907
  205MOL0     H27612   1.833   2.212   3.819  0.0457 -0.9743  2.1570
  205MOL0     H27613   1.725   2.080   3.863 -3.0369 -0.2100 -1.4747
  205MOL0     H27614   1.898   2.045   3.627 -1.3153 -1.9226 -0.2041
  205MOL0     H27615   1.955   1.999   3.785  0.6331 -0.0697 -0.2701
  205MOL0     H27616   1.759   1.848   3.824  2.4080 -0.1722 -0.1536
  205MOL0     H27617   1.708   1.866   3.656 -0.1111  1.5055 -1.2446
  205MOL0     H27618   1.892   1.762   3.577  0.6248 -3.2876  0.0543
  205MOL0     H27619   1.986   1.784   3.726  0.0360  1.7736 -0.3942
  205MOL0     H27620   1.903   1.538   3.678 -0.3976 -0.9203 -0.6000
  205MOL0     H27621   1.883   1.611   3.842  0.0331 -1.9921  0.4719
  205MOL0     H27622   1.660   1.672   3.791 -2.6694 -0.4263 -0.4614
  205MOL0     H27623   1.661   1.588   3.635  1.0477  0.6086 -0.9302
  205MOL0     H27624   1.610   1.499   3.901  1.5329 -2.1907  1.4114
  205MOL0     H27625   1.753   1.407   3.847  0.7113  1.2879  1.4472
  205MOL0     H27626   1.384   1.451   3.719  0.2866  0.6547 -0.2618
  205MOL0     H27627   1.266   1.303   3.468  2.1297  2.4825  0.0697
  205MOL0     H27628   1.314   1.133   3.495 -0.8548 -0.3698  0.8037
  205MOL0     H27629   1.159   1.299   3.697  1.9107  0.7462  0.7951
  205MOL0     H27630   1.190   1.126   3.720 -4.2670 -1.0272 -0.1166
  205MOL0     H27631   1.083   1.048   3.540  1.0686  0.5452  1.7839
  205MOL0     H27632   1.030   1.217   3.491 -0.0561  0.1415 -1.2506
  205MOL0     H27633   0.910   1.230   3.702  1.0191  0.5154  0.1530
  205MOL0     H27634   0.963   1.070   3.749 -3.2982 -0.6372 -0.4234
  205MOL0     H27635   0.746   0.904   3.787 -0.6697 -0.3251 -0.0039
  205MOL0     H27636   0.417   0.834   3.950 -1.6906 -1.7660  0.1510
  205MOL0     H27637   0.437   0.754   3.800 -1.5614  0.9440  0.7206
  205MOL0     H27638   0.572   0.766   3.916  1.2780  1.2247 -2.0125
  205MOL0     H27639   0.006   0.993   3.820  2.7773  0.8837 -0.3406
  205MOL0     H27640  -0.233   0.985   3.772  2.1118 -1.0546 -0.1737
  205MOL0     H27641  -0.455   0.969   3.650  0.1215  0.4698 -2.4995
  205MOL0     H27642  -0.451   1.101   3.770 -1.2193  1.5538 -0.3017
  205MOL0     H27643  -0.622   1.219   3.668  3.5109  0.2988  1.2071
  205MOL0     H27644  -0.606   1.137   3.513 -0.7386 -2.2626  0.0678
  205MOL0     H27645  -0.684   0.931   3.592 -0.1402 -0.4157  1.0462
  205MOL0     H27646  -0.808   1.051   3.619 -0.2499 -1.1110  0.2011
  205MOL0     H27647  -0.632   0.974   3.852 -0.8764  0.5090  1.3173
  205MOL0     H27648  -0.784   1.060   3.851 -0.5707 -0.2064 -2.1088
  205MOL0     H27649  -0.806   0.819   3.930 -0.3124 -3.5850 -0.1799
  205MOL0     H27650  -0.731   0.772   3.782 -0.0394  0.9677 -0.6217
  205MOL0     H27651  -1.000   0.891   3.811 -1.8205 -0.7455 -1.0196
  205MOL0     H27652  -0.938   0.838   3.651 -0.2191 -0.4569 -1.0588
  205MOL0     H27653  -1.088   0.677   3.773 -0.4234  1.6106  2.3560
  205MOL0     H27654  -0.967   0.646   3.891 -1.7076  1.0246  0.7345
  205MOL0     H27655  -0.918   0.591   3.598  3.8184 -2.3368 -0.5323
  205MOL0     H27656  -0.985   0.474   3.712 -0.8148  0.4027 -0.2520
  205MOL0     H27657  -0.165   1.284   3.470 -1.1537  1.9774  2.8224
  205MOL0     H27658   0.089   1.258   3.508 -0.5490 -0.7772 -1.0686
  205MOL0     H27659   0.407   1.211   3.597  1.6464 -0.4115 -1.2364
  205MOL0     H27660   0.635   1.233   3.548 -1.1640  1.8374  1.7338
  205MOL0     H27661   1.466   2.307   3.590  1.0457  0.8684  1.1037
  205MOL0     H27662   1.250   2.327   3.488 -0.4463 -0.4011 -0.5985
  205MOL0     H27663   0.851   2.262   3.413 -0.1173 -0.5010  1.9382
  205MOL0     H27664   0.598   2.225   3.398  0.1136  0.5061  0.0069
  205MOL0     H27665   0.356   2.179   3.341 -1.7002  1.1664 -1.9562
  205MOL0     H27666   0.458   2.198   3.193  0.4288  2.7160  3.6833
  205MOL0     H27667   0.296   2.027   3.082  0.2039  0.7580  0.7920
  205MOL0     H27668   0.220   2.176   3.151 -0.1581  0.3895 -0.5875
  205MOL0     H27669   0.079   2.016   3.215 -0.3957  3.4230  0.5321
  205MOL0     H27670   0.184   2.036   3.352  1.1724  1.2629 -0.4931
  205MOL0     H27671   0.186   1.792   3.336  0.2740  2.3236  2.4387
  205MOL0     H27672   0.332   1.828   3.245 -1.7162 -5.1179 -1.0881
  205MOL0     H27673   0.053   1.722   2.939 -1.7667  1.4360  0.8917
  205MOL0     H27674   0.650   1.856   3.203 -2.6898  1.3744 -0.3247
  205MOL0     H27675   0.897   1.877   3.230  0.6356  0.0857 -0.8073
  206MOL0     O27676   9.277   1.982   6.311  0.4719 -0.7159 -0.2692
  206MOL0     C27677   9.216   1.886   6.269  0.9906  1.0663 -0.0536
  206MOL0     O27678   9.125   1.889   6.164 -0.0559  0.3162 -0.5867
  206MOL0     C27679   9.117   1.985   6.077 -0.3156  0.5233 -0.2323
  206MOL0     C27680   9.113   2.116   6.106 -0.3861  0.0832  0.0546
  206MOL0     C27681   9.066   2.212   6.012 -0.4332 -0.2635  0.9905
  206MOL0     C27682   9.029   2.172   5.880  0.7005  0.0637 -1.0790
  206MOL0     O27683   8.962   2.253   5.793 -0.3005  0.3968  0.6528
  206MOL0     C27684   8.899   2.368   5.832  0.5282 -0.2756  0.4462
  206MOL0     C27685   8.785   2.402   5.745 -0.2114  0.1405 -0.1996
  206MOL0     C27686   8.822   2.426   5.593  0.2883  0.0868  0.8297
  206MOL0     C27687   8.716   2.499   5.512  0.2135  0.4575 -0.1640
  206MOL0     C27688   8.765   2.511   5.365 -0.0126  0.1618  0.3844
  206MOL0     C27689   8.649   2.568   5.286  0.5004 -0.4053  0.8701
  206MOL0     C27690   8.694   2.646   5.158  0.3724 -0.7568  0.0968
  206MOL0     C27691   8.748   2.563   5.044  0.4738 -0.6059 -0.0817
  206MOL0     N27692   8.656   2.463   4.997 -1.1069  0.4711 -1.2091
  206MOL0     C27693   8.543   2.484   4.916  0.3587  0.5835  0.1493
  206MOL0     C27694   8.488   2.362   4.912 -0.7845 -0.0660  0.1435
  206MOL0     C27695   8.377   2.319   4.819  0.1362 -0.0193  0.0676
  206MOL0     C27696   8.240   2.298   4.892 -0.4980 -0.1623 -0.3654
  206MOL0     C27697   8.191   2.420   4.977  0.2587 -0.7047 -1.0061
  206MOL0     C27698   8.181   2.558   4.902 -0.1438  0.8297 -0.6568
  206MOL0     O27699   8.090   2.654   4.965  0.1789  0.0934 -0.0213
  206MOL0     C27700   8.129   2.703   5.091 -0.0108 -0.3294 -0.0023
  206MOL0     C27701   8.023   2.725   5.182  0.0278  0.7146  0.2098
  206MOL0     C27702   8.036   2.774   5.304 -0.8543  0.6312  0.2901
  206MOL0     C27703   7.904   2.793   5.387  0.5377 -0.7418 -0.2037
  206MOL0     C27704   8.174   2.796   5.344  0.5050 -0.1063 -0.0468
  206MOL0     C27705   8.208   2.826   5.481  0.3345 -0.6368 -0.9851
  206MOL0     O27706   8.334   2.792   5.528 -0.1948  0.3479  0.5898
  206MOL0     C27707   8.368   2.805   5.662 -0.2677  0.8410  0.0454
  206MOL0     C27708   8.286   2.767   5.777  0.5168  0.0108 -0.7999
  206MOL0     C27709   8.336   2.754   5.902 -0.2679  0.5680 -0.6511
  206MOL0     C27710   8.473   2.746   5.920 -0.0147 -0.8226  0.3918
  206MOL0     O27711   8.523   2.728   6.051 -0.4209  0.0678 -0.0468
  206MOL0     C27712   8.657   2.676   6.077  0.1581 -0.1219  0.7224
  206MOL0     C27713   8.675   2.631   6.221  0.3662 -1.2064  0.4769
  206MOL0     C27714   8.652   2.753   6.309 -0.6786 -0.5516 -0.0183
  206MOL0     C27715   8.727   2.745   6.449  0.7419 -0.6986 -0.6498
  206MOL0     C27716   8.715   2.875   6.525  0.0133 -1.0009  0.4105
  206MOL0     C27717   8.728   2.850   6.665 -0.4721 -0.1935 -0.8417
  206MOL0     C27718   8.868   2.802   6.706  0.4326 -0.0442 -0.7996
  206MOL0     C27719   8.899   2.794   6.864  0.3515  0.4235  1.8047
  206MOL0    Cl27720   9.065   2.731   6.894 -0.1315 -0.1303 -0.4731
  206MOL0     C27721   8.557   2.775   5.809 -0.3583  0.8903  0.5655
  206MOL0     C27722   8.510   2.804   5.687  0.1861 -0.0142 -0.7629
  206MOL0     O27723   8.132   2.901   5.540  0.5116  0.2184 -0.9165
  206MOL0     C27724   8.282   2.786   5.259  1.2389  0.2525 -0.2913
  206MOL0     C27725   8.255   2.746   5.133  0.5807  0.0775  0.7783
  206MOL0     N27726   8.561   2.278   4.994 -0.2455  1.0761 -0.1006
  206MOL0     N27727   8.663   2.335   5.040 -0.0368 -0.5423  0.1860
  206MOL0     C27728   9.046   2.039   5.847  0.7109  0.0767  0.0397
  206MOL0     C27729   9.084   1.943   5.944  0.3151  1.1433 -0.3786
  206MOL0     C27730   9.239   1.755   6.343 -0.8286 -0.7998  0.1513
  206MOL0     C27731   9.354   1.745   6.409 -0.4283  0.5718  0.8259
  206MOL0     C27732   9.403   1.634   6.464 -0.2297  1.0846  1.9709
  206MOL0     C27733   9.313   1.525   6.486 -0.0758  0.5086 -1.0470
  206MOL0     O27734   9.359   1.414   6.564 -0.0599 -0.2359  0.1121
  206MOL0     C27735   9.308   1.287   6.531 -0.5385  0.4657  0.2502
  206MOL0     C27736   9.396   1.225   6.419  0.1966 -0.3194 -1.0821
  206MOL0     C27737   9.336   1.096   6.367  0.1929  0.3298  0.3069
  206MOL0     C27738   9.342   0.970   6.451  0.4445  0.4520 -0.9264
  206MOL0     C27739   9.227   0.944   6.537 -0.2466 -0.1272 -0.2612
  206MOL0     C27740   9.126   0.917   6.597  0.5790  0.8652  0.1636
  206MOL0     C27741   9.185   1.528   6.414 -1.3803 -0.0782 -0.7696
  206MOL0     C27742   9.150   1.648   6.341 -0.0581  0.1116  0.5031
  206MOL0     H27743   9.122   2.139   6.211  0.5320  1.7912 -0.3701
  206MOL0     H27744   9.047   2.316   6.036  0.9308  0.5404 -1.0911
  206MOL0     H27745   8.844   2.351   5.925 -1.5201 -0.2563 -0.7065
  206MOL0     H27746   8.965   2.455   5.825 -0.8840  0.8624  0.7306
  206MOL0     H27747   8.707   2.325   5.738  2.6115 -3.0683  1.0148
  206MOL0     H27748   8.744   2.491   5.793  1.7655  0.0828  1.7393
  206MOL0     H27749   8.919   2.475   5.591  0.6718 -0.6359  1.4039
  206MOL0     H27750   8.840   2.327   5.549  0.1155  0.1371  0.6416
  206MOL0     H27751   8.626   2.438   5.504  0.1121  0.2324  2.0540
  206MOL0     H27752   8.688   2.597   5.551  2.0302  0.1225  2.1461
  206MOL0     H27753   8.844   2.586   5.354  0.4705 -0.5807 -1.7309
  206MOL0     H27754   8.804   2.413   5.335  0.9668 -0.1472  2.5395
  206MOL0     H27755   8.594   2.485   5.240 -2.2941  1.4902  0.4943
  206MOL0     H27756   8.586   2.634   5.347 -2.0816 -0.9673 -1.0291
  206MOL0     H27757   8.615   2.711   5.119  2.1770  0.4104 -1.7713
  206MOL0     H27758   8.766   2.719   5.197 -2.9155  1.3942  2.7566
  206MOL0     H27759   8.834   2.506   5.082  0.0796 -2.9922 -2.4631
  206MOL0     H27760   8.757   2.621   4.951 -1.3416  1.7683  1.1247
  206MOL0     H27761   8.523   2.573   4.858  3.7749  1.8475  0.6563
  206MOL0     H27762   8.377   2.390   4.735  0.2785  2.1285  1.7919
  206MOL0     H27763   8.409   2.222   4.780 -1.0618 -0.0936 -0.7823
  206MOL0     H27764   8.247   2.199   4.938  0.1056 -1.2227 -2.5870
  206MOL0     H27765   8.165   2.289   4.813  0.1131 -1.5878 -0.8052
  206MOL0     H27766   8.249   2.426   5.069 -1.0541 -1.3647 -0.1123
  206MOL0     H27767   8.088   2.396   5.004  0.5645 -0.3832  0.5183
  206MOL0     H27768   8.139   2.548   4.801 -2.5765 -0.7397  0.4273
  206MOL0     H27769   8.280   2.603   4.901  0.3149 -0.1542 -0.6781
  206MOL0     H27770   7.928   2.706   5.133 -0.7313  1.9081  1.1672
  206MOL0     H27771   7.928   2.760   5.489  0.5260 -0.3334 -0.0659
  206MOL0     H27772   7.870   2.896   5.402 -1.2162 -1.5084  1.4347
  206MOL0     H27773   7.824   2.733   5.344 -0.4310 -2.3539  3.4424
  206MOL0     H27774   8.181   2.761   5.751  0.5587 -1.2088 -0.7399
  206MOL0     H27775   8.269   2.739   5.986  1.7172  0.8187  1.0673
  206MOL0     H27776   8.683   2.588   6.018  4.9302  1.0510  0.6684
  206MOL0     H27777   8.732   2.746   6.038 -0.3174 -0.5250 -1.0091
  206MOL0     H27778   8.596   2.559   6.245 -1.8110  1.2911  1.2108
  206MOL0     H27779   8.774   2.590   6.241  1.1212  1.2942  2.3844
  206MOL0     H27780   8.546   2.771   6.328 -0.3078  3.0479 -0.4827
  206MOL0     H27781   8.684   2.842   6.252 -0.1324 -1.0555 -0.5151
  206MOL0     H27782   8.682   2.668   6.513  2.2394  0.6107  2.1272
  206MOL0     H27783   8.833   2.719   6.436  1.3366  0.9791  0.5756
  206MOL0     H27784   8.614   2.910   6.503  0.2157 -0.7909 -0.2239
  206MOL0     H27785   8.789   2.946   6.486  1.3401 -1.6634  1.6377
  206MOL0     H27786   8.713   2.943   6.721 -1.0059 -0.7361 -0.0685
  206MOL0     H27787   8.654   2.783   6.709 -0.5032  0.8252  0.7523
  206MOL0     H27788   8.940   2.872   6.663  2.1835 -1.8569 -0.9622
  206MOL0     H27789   8.890   2.709   6.653  0.5869  0.4452 -1.6025
  206MOL0     H27790   8.829   2.728   6.916  1.0884 -2.2287 -0.3134
  206MOL0     H27791   8.897   2.897   6.902 -1.7243  1.4198 -0.6976
  206MOL0     H27792   8.665   2.773   5.825 -0.0464  2.6986 -0.9586
  206MOL0     H27793   8.588   2.812   5.612  0.2418  0.3028 -0.6724
  206MOL0     H27794   8.384   2.814   5.280  1.0555 -0.0328  1.0705
  206MOL0     H27795   8.341   2.737   5.068 -0.7581 -0.0184 -1.0587
  206MOL0     H27796   9.030   2.023   5.741  0.4401  1.3711 -0.1299
  206MOL0     H27797   9.082   1.837   5.922 -1.2556  0.8779  0.8367
  206MOL0     H27798   9.429   1.822   6.394  1.1968 -1.1024 -0.0722
  206MOL0     H27799   9.505   1.615   6.497  0.4193 -2.5106 -1.3823
  206MOL0     H27800   9.321   1.218   6.615 -1.7998 -0.7727 -0.5290
  206MOL0     H27801   9.200   1.277   6.515 -0.6696 -3.1343  2.2378
  206MOL0     H27802   9.500   1.214   6.452 -0.0720  4.1541  2.2175
  206MOL0     H27803   9.396   1.291   6.332  2.8957  1.2077 -0.0536
  206MOL0     H27804   9.404   1.073   6.285 -0.8924  0.4946 -0.6645
  206MOL0     H27805   9.242   1.124   6.318 -1.8087 -0.8478  3.1677
  206MOL0     H27806   9.426   0.979   6.520 -2.8308  1.5400  3.3450
  206MOL0     H27807   9.351   0.881   6.388  0.1182  0.0191 -0.3770
  206MOL0     H27808   9.044   0.884   6.656 -1.7916  0.1166 -3.2661
  206MOL0     H27809   9.109   1.451   6.425  0.4369 -2.0289 -1.2646
  206MOL0     H27810   9.057   1.659   6.286  0.3369  1.6563  0.1011
  207MOL0     O27811  10.251   8.267   8.805  0.4785  0.3609 -0.2357
  207MOL0     C27812  10.175   8.368   8.800 -0.4167 -0.3048  0.3326
  207MOL0     O27813  10.214   8.492   8.764 -0.5068 -0.4766 -0.5299
  207MOL0     C27814  10.346   8.512   8.742  0.1823  0.0333 -0.9014
  207MOL0     C27815  10.398   8.512   8.617 -0.3705  0.0396  0.1138
  207MOL0     C27816  10.528   8.551   8.596  0.1463 -0.3481 -1.4168
  207MOL0     C27817  10.613   8.573   8.702  0.5966  0.0085  0.5800
  207MOL0     O27818  10.739   8.597   8.666  0.0620 -0.1992 -0.5790
  207MOL0     C27819  10.834   8.515   8.731 -0.6006 -0.1899  0.3756
  207MOL0     C27820  10.964   8.594   8.728 -0.3380  0.2306  0.3886
  207MOL0     C27821  10.954   8.707   8.828 -0.6154  1.4703  0.4115
  207MOL0     C27822  11.067   8.799   8.818 -0.5837  0.3581  0.6984
  207MOL0     C27823  11.201   8.729   8.832 -0.1635 -0.7722 -0.1410
  207MOL0     C27824  11.317   8.820   8.806 -0.5452  0.3199  0.3149
  207MOL0     C27825  11.454   8.754   8.854  0.4707  0.1400 -0.3250
  207MOL0     C27826  11.483   8.626   8.774 -0.0251  1.0343 -0.0457
  207MOL0     N27827  11.624   8.595   8.758 -0.0341 -0.0584  0.8214
  207MOL0     C27828  11.709   8.536   8.846 -0.7004 -0.0359  0.1432
  207MOL0     C27829  11.830   8.532   8.783 -0.2291  0.4361 -0.1684
  207MOL0     C27830  11.951   8.466   8.838  0.1855 -0.9959 -0.0562
  207MOL0     C27831  11.935   8.311   8.840 -0.5488  0.3481  0.2229
  207MOL0     C27832  12.072   8.252   8.872 -0.1481 -0.9016  0.3383
  207MOL0     C27833  12.174   8.232   8.761  0.0964 -0.2603 -0.3393
  207MOL0     O27834  12.129   8.126   8.665  0.0169 -0.2392 -0.0234
  207MOL0     C27835  12.192   8.100   8.549  0.6317  0.4218  0.5951
  207MOL0     C27836  12.128   8.015   8.458 -0.9906  0.6743 -0.2543
  207MOL0     C27837  12.177   7.994   8.329  0.7588 -0.2258  0.5084
  207MOL0     C27838  12.085   7.924   8.238 -0.0002  0.3185 -0.3493
  207MOL0     C27839  12.306   8.052   8.288 -0.0915  0.8710 -0.3543
  207MOL0     C27840  12.364   8.027   8.157  0.6449  0.9235 -0.1578
  207MOL0     O27841  12.337   7.913   8.086  0.1737  0.1962  0.5882
  207MOL0     C27842  12.399   7.895   7.960  0.0601  0.0636  0.4662
  207MOL0     C27843  12.533   7.889   7.936 -0.5984 -0.8129 -1.0925
  207MOL0     C27844  12.592   7.857   7.808 -0.5942  0.5494  0.3712
  207MOL0     C27845  12.505   7.849   7.701  0.2173  0.1051 -0.2030
  207MOL0     O27846  12.544   7.817   7.564 -0.1780  0.3519 -0.0553
  207MOL0     C27847  12.685   7.782   7.562  0.5046  0.9563 -0.1877
  207MOL0     C27848  12.709   7.750   7.406 -0.1509 -0.1872 -0.2334
  207MOL0     C27849  12.851   7.692   7.367 -0.6432 -0.6865 -0.2837
  207MOL0     C27850  12.965   7.788   7.390  0.2593  0.2927 -0.7228
  207MOL0     C27851  12.996   7.895   7.287 -0.2848  0.1473  0.0481
  207MOL0     C27852  13.101   7.987   7.339 -0.6769 -0.3520 -0.2207
  207MOL0     C27853  13.244   7.932   7.304 -0.0616 -0.1614 -0.0612
  207MOL0     C27854  13.349   8.039   7.316 -0.2419 -0.2617  0.5741
  207MOL0    Cl27855  13.378   8.054   7.487  0.1566 -0.4865 -0.2164
  207MOL0     C27856  12.364   7.864   7.719 -0.3674  0.0097  0.1569
  207MOL0     C27857  12.312   7.882   7.851 -0.4895 -0.5036  1.2131
  207MOL0     O27858  12.439   8.116   8.120  0.6345  1.3446  0.1715
  207MOL0     C27859  12.373   8.140   8.381  0.7230  0.2132  0.2369
  207MOL0     C27860  12.315   8.162   8.506  0.3440 -0.2498 -0.0924
  207MOL0     N27861  11.810   8.599   8.663  0.0465 -0.9298  0.3055
  207MOL0     N27862  11.684   8.631   8.645  0.6451  0.4527 -0.3551
  207MOL0     C27863  10.564   8.568   8.835  0.1918 -0.5938  0.9451
  207MOL0     C27864  10.427   8.539   8.854 -0.5242 -0.2425 -0.4257
  207MOL0     C27865  10.028   8.353   8.810 -0.6228  0.6150  0.3078
  207MOL0     C27866   9.966   8.226   8.824  0.3746 -0.1213 -0.1763
  207MOL0     C27867   9.831   8.211   8.827  0.2062  0.0900 -0.3585
  207MOL0     C27868   9.742   8.321   8.818  0.3447  0.8522 -0.2245
  207MOL0     O27869   9.610   8.296   8.834  0.3148 -0.4831 -0.0763
  207MOL0     C27870   9.519   8.384   8.901 -0.1628 -0.1538 -0.8089
  207MOL0     C27871   9.432   8.457   8.800 -0.6569  0.9491  0.1720
  207MOL0     C27872   9.338   8.565   8.844 -0.2158 -0.4012 -0.0875
  207MOL0     C27873   9.303   8.677   8.746 -0.0118  0.1607 -0.0593
  207MOL0     C27874   9.200   8.764   8.807  0.0420 -0.0811  0.1472
  207MOL0     C27875   9.124   8.852   8.851 -0.5610 -0.5856  0.3213
  207MOL0     C27876   9.802   8.449   8.813  0.4768  0.3929  0.3784
  207MOL0     C27877   9.939   8.466   8.820 -2.0846 -0.7346 -0.4093
  207MOL0     H27878  10.338   8.493   8.529  1.4692 -0.4679 -1.1102
  207MOL0     H27879  10.565   8.554   8.494 -0.8565 -2.0968 -1.8722
  207MOL0     H27880  10.813   8.479   8.833 -0.4206  0.6951  0.7285
  207MOL0     H27881  10.850   8.424   8.673 -0.2186  0.6760 -0.9144
  207MOL0     H27882  11.038   8.517   8.753 -1.5206 -0.2560  2.5641
  207MOL0     H27883  10.996   8.629   8.629  1.9724 -0.8183  0.6798
  207MOL0     H27884  10.860   8.762   8.814  0.0033  2.5772  0.4950
  207MOL0     H27885  10.952   8.658   8.926 -1.6851 -1.2897 -0.8708
  207MOL0     H27886  11.068   8.848   8.720  0.2103 -2.0086 -0.5396
  207MOL0     H27887  11.054   8.878   8.892  2.2352  1.1265  0.4749
  207MOL0     H27888  11.209   8.685   8.932 -1.4780 -0.3190  0.1857
  207MOL0     H27889  11.216   8.647   8.762  1.9528 -0.0156 -0.6402
  207MOL0     H27890  11.326   8.849   8.701  1.4229  2.4131  0.9815
  207MOL0     H27891  11.302   8.913   8.862  2.4982  0.7919  0.5249
  207MOL0     H27892  11.540   8.822   8.845  1.3476 -1.2184 -4.1653
  207MOL0     H27893  11.432   8.726   8.957 -5.4146 -2.7717 -1.9680
  207MOL0     H27894  11.446   8.632   8.672  1.4446  0.8854 -0.6097
  207MOL0     H27895  11.434   8.544   8.828 -1.3529  0.8860 -1.4320
  207MOL0     H27896  11.681   8.496   8.943  1.6228 -0.8923  0.5223
  207MOL0     H27897  12.037   8.510   8.786 -0.7066 -1.1022 -1.6920
  207MOL0     H27898  11.931   8.510   8.936  3.3489  2.2623 -0.6691
  207MOL0     H27899  11.902   8.258   8.750  1.3677  1.9803 -1.5337
  207MOL0     H27900  11.861   8.287   8.917 -0.4310 -0.8864 -0.0325
  207MOL0     H27901  12.055   8.152   8.914 -3.1366 -1.5615 -2.0430
  207MOL0     H27902  12.113   8.310   8.954  1.0521 -0.5979 -0.4548
  207MOL0     H27903  12.276   8.215   8.796 -0.4775 -1.1297  0.9959
  207MOL0     H27904  12.172   8.329   8.710 -1.2884 -1.3066 -2.3869
  207MOL0     H27905  12.032   7.970   8.482 -0.5106  1.1838  3.1981
  207MOL0     H27906  12.095   7.958   8.135 -2.6026  0.6733 -0.5526
  207MOL0     H27907  12.092   7.816   8.253  0.2448  0.7009  3.2751
  207MOL0     H27908  11.982   7.940   8.271 -0.3017 -0.5728 -0.8368
  207MOL0     H27909  12.595   7.906   8.023  0.8545  1.4460 -2.4515
  207MOL0     H27910  12.698   7.837   7.813 -0.9501 -1.4254  0.8432
  207MOL0     H27911  12.759   7.856   7.595  0.3104 -0.5090  4.0737
  207MOL0     H27912  12.703   7.693   7.622  2.1434  1.2957 -0.1223
  207MOL0     H27913  12.624   7.689   7.373 -0.4240  0.8831 -1.6409
  207MOL0     H27914  12.696   7.846   7.355  3.1462 -0.1742 -1.2629
  207MOL0     H27915  12.866   7.658   7.264 -0.1793 -1.6890  0.1021
  207MOL0     H27916  12.867   7.605   7.431  0.9818 -0.5352 -0.4542
  207MOL0     H27917  12.953   7.841   7.485  0.6478  3.0612 -2.1116
  207MOL0     H27918  13.047   7.716   7.395  0.5811  0.2870 -4.0424
  207MOL0     H27919  12.908   7.944   7.246  0.0265 -0.5487 -1.5231
  207MOL0     H27920  13.043   7.839   7.206 -0.9607  1.5170 -1.3462
  207MOL0     H27921  13.087   8.070   7.270  1.9385 -0.2410 -0.7166
  207MOL0     H27922  13.095   8.008   7.447  2.1629 -2.3236  0.4683
  207MOL0     H27923  13.239   7.894   7.202 -2.7005  2.3487 -1.0152
  207MOL0     H27924  13.267   7.846   7.367  1.1919 -0.8754 -1.4584
  207MOL0     H27925  13.309   8.126   7.263  0.4487 -1.7307 -2.5312
  207MOL0     H27926  13.435   8.004   7.258 -1.3925  1.1093 -2.1437
  207MOL0     H27927  12.309   7.843   7.628 -0.2892 -1.9288  0.5032
  207MOL0     H27928  12.206   7.891   7.870 -0.7934  2.2730 -1.1351
  207MOL0     H27929  12.461   8.195   8.348  0.0215  1.9836  1.1628
  207MOL0     H27930  12.367   8.231   8.572  1.5539 -2.4644  1.3998
  207MOL0     H27931  10.634   8.576   8.918 -0.6408  1.3284  1.5165
  207MOL0     H27932  10.397   8.531   8.958  2.4926 -1.2015  0.4790
  207MOL0     H27933  10.036   8.142   8.823 -0.1549 -0.6060  1.0617
  207MOL0     H27934   9.782   8.115   8.834  0.8934 -0.2662 -0.3601
  207MOL0     H27935   9.458   8.335   8.977  1.3914 -0.8169  0.0655
  207MOL0     H27936   9.570   8.464   8.955  2.4936 -0.7845 -2.1879
  207MOL0     H27937   9.369   8.381   8.753  0.1543  0.3470  0.0418
  207MOL0     H27938   9.496   8.505   8.726 -0.6056 -1.9403 -1.7885
  207MOL0     H27939   9.367   8.621   8.934  0.9015 -2.1147  0.6737
  207MOL0     H27940   9.245   8.516   8.876 -0.5665  0.9707  1.1095
  207MOL0     H27941   9.261   8.642   8.651 -0.1982 -1.0376  0.4457
  207MOL0     H27942   9.398   8.729   8.728  1.9267 -3.2484 -0.7129
  207MOL0     H27943   9.065   8.932   8.890 -0.9182  0.7320 -2.6833
  207MOL0     H27944   9.749   8.543   8.803 -1.7849 -0.7043  1.2416
  207MOL0     H27945   9.984   8.565   8.814  0.5947 -1.9401 -2.2262
  208MOL0     O27946   1.206   6.086   7.029 -0.0025  0.6634  0.5697
  208MOL0     C27947   1.163   5.987   7.091 -0.2493 -1.2069 -0.3005
  208MOL0     O27948   1.156   5.861   7.034  1.0319 -0.0792 -0.6091
  208MOL0     C27949   1.193   5.845   6.900  1.0416 -0.3241 -0.1964
  208MOL0     C27950   1.101   5.790   6.810 -0.0522  0.4486  0.1949
  208MOL0     C27951   1.143   5.771   6.680  0.4451  0.2412 -0.1378
  208MOL0     C27952   1.270   5.808   6.629  0.1949  0.1282 -0.5910
  208MOL0     O27953   1.296   5.790   6.492  0.5496  0.0851  0.1608
  208MOL0     C27954   1.413   5.835   6.435 -0.3686  0.4065  0.2470
  208MOL0     C27955   1.400   5.847   6.277 -0.2909  0.9167 -1.0831
  208MOL0     C27956   1.383   5.702   6.224  0.3087 -0.2309 -0.1689
  208MOL0     C27957   1.392   5.717   6.066  0.3099 -0.4723  0.3682
  208MOL0     C27958   1.381   5.577   6.009  0.2742  0.4476 -0.1734
  208MOL0     C27959   1.232   5.542   5.992  1.1394  0.0568 -0.3178
  208MOL0     C27960   1.199   5.412   5.929  0.3342  0.4542 -0.1161
  208MOL0     C27961   1.209   5.296   6.026  0.0383  0.3138 -0.1927
  208MOL0     N27962   1.088   5.217   6.032  0.5044 -0.0386  0.1312
  208MOL0     C27963   1.041   5.163   6.151 -0.0581  1.1857 -1.0695
  208MOL0     C27964   0.938   5.090   6.104 -0.1363 -0.0009  0.9300
  208MOL0     C27965   0.839   5.022   6.190 -0.2340 -0.2721 -0.4236
  208MOL0     C27966   0.820   4.876   6.162 -0.6250 -0.2176 -0.0062
  208MOL0     C27967   0.710   4.821   6.246  0.0504  0.4898  0.2520
  208MOL0     C27968   0.675   4.679   6.232 -0.1148  0.0457  0.2290
  208MOL0     O27969   0.774   4.601   6.294 -0.0647 -0.0747  0.3133
  208MOL0     C27970   0.738   4.483   6.355  0.3033  0.0765  0.1503
  208MOL0     C27971   0.843   4.425   6.426 -0.0326  0.2833  0.2038
  208MOL0     C27972   0.823   4.310   6.506  0.4242 -0.6442 -0.0802
  208MOL0     C27973   0.940   4.259   6.591  0.0507 -0.7106 -0.7084
  208MOL0     C27974   0.696   4.244   6.499 -0.3070  0.3690 -0.3688
  208MOL0     C27975   0.657   4.119   6.564 -0.1363  0.1307  0.0592
  208MOL0     O27976   0.526   4.098   6.588 -0.2729  0.0511 -0.5377
  208MOL0     C27977   0.472   3.975   6.640 -0.1526 -0.0148  0.0315
  208MOL0     C27978   0.357   3.993   6.720 -0.2985 -0.2221  0.7300
  208MOL0     C27979   0.287   3.893   6.780  0.6591  0.2823 -0.2650
  208MOL0     C27980   0.331   3.757   6.759 -0.5803 -0.1031 -0.3507
  208MOL0     O27981   0.241   3.656   6.787  0.0534 -0.6110 -0.2384
  208MOL0     C27982   0.286   3.524   6.840 -0.3511 -0.1879  0.3877
  208MOL0     C27983   0.173   3.424   6.877 -0.2887  0.7208  0.2495
  208MOL0     C27984   0.097   3.385   6.750  0.4988  0.1451 -0.1048
  208MOL0     C27985  -0.025   3.310   6.771  0.2173 -0.4083 -0.4107
  208MOL0     C27986  -0.081   3.280   6.637  0.8551 -0.1922  0.4112
  208MOL0     C27987  -0.208   3.198   6.620  0.7982 -0.4557 -0.7296
  208MOL0     C27988  -0.319   3.236   6.722  0.0207  0.6624 -0.8609
  208MOL0     C27989  -0.453   3.186   6.665  0.0021  0.6237  0.6156
  208MOL0    Cl27990  -0.492   3.008   6.656 -0.4499  0.0776 -0.1058
  208MOL0     C27991   0.457   3.738   6.700 -0.2443  1.0393 -0.4210
  208MOL0     C27992   0.529   3.849   6.644  0.8263  0.6446  0.4163
  208MOL0     O27993   0.751   4.038   6.585 -0.2284  0.1837 -0.5520
  208MOL0     C27994   0.591   4.299   6.416 -0.0214 -0.8632  0.3657
  208MOL0     C27995   0.615   4.419   6.345  0.0831  1.1881 -0.5976
  208MOL0     N27996   0.925   5.097   5.964  0.4007 -0.1921 -0.7457
  208MOL0     N27997   1.029   5.157   5.928 -0.6683 -0.2210  0.3146
  208MOL0     C27998   1.359   5.857   6.724  0.4333  0.0050  0.5699
  208MOL0     C27999   1.318   5.889   6.854  0.5496  0.2674 -0.1767
  208MOL0     C28000   1.119   6.017   7.230 -0.6472  0.6047 -0.3700
  208MOL0     C28001   1.096   5.904   7.308  0.9431  0.2350 -0.0064
  208MOL0     C28002   1.076   5.907   7.442  0.4150 -0.9993 -0.0444
  208MOL0     C28003   1.073   6.029   7.506 -0.5555 -0.9627 -0.1730
  208MOL0     O28004   1.062   6.048   7.647 -0.0711 -0.6167 -0.1128
  208MOL0     C28005   0.987   5.942   7.702  0.3458  0.4505 -0.1264
  208MOL0     C28006   0.957   5.965   7.852 -0.6040 -0.0740 -0.1692
  208MOL0     C28007   1.095   5.971   7.934 -0.2692 -0.6419  0.5315
  208MOL0     C28008   1.150   5.833   7.976 -0.4014  0.4910 -0.1625
  208MOL0     C28009   1.046   5.748   8.049 -0.5574  0.4912 -0.1753
  208MOL0     C28010   0.954   5.687   8.096  0.5161  0.1635  0.6594
  208MOL0     C28011   1.095   6.151   7.437 -0.2137  0.2127  0.5818
  208MOL0     C28012   1.117   6.145   7.299 -0.4414  0.0844  0.8016
  208MOL0     H28013   1.000   5.771   6.846 -0.3213  4.2610  1.9587
  208MOL0     H28014   1.069   5.726   6.614 -2.4189  1.4538  2.0418
  208MOL0     H28015   1.436   5.937   6.466  0.3575  0.3348 -0.0342
  208MOL0     H28016   1.495   5.764   6.450  0.0112  0.9046  0.5453
  208MOL0     H28017   1.316   5.908   6.245  0.5978  1.6794 -2.0218
  208MOL0     H28018   1.494   5.886   6.237 -1.2966  4.0460 -0.5933
  208MOL0     H28019   1.453   5.629   6.266  0.3602  0.6409  1.3658
  208MOL0     H28020   1.283   5.665   6.244  1.1447 -1.5029  2.0156
  208MOL0     H28021   1.303   5.778   6.044 -0.5561 -2.1671 -1.0385
  208MOL0     H28022   1.477   5.778   6.035  0.3465 -1.0656 -0.7440
  208MOL0     H28023   1.425   5.565   5.910  2.1304 -1.0003  0.7620
  208MOL0     H28024   1.425   5.499   6.072  0.2750  1.6093  1.3325
  208MOL0     H28025   1.179   5.557   6.087 -1.2596 -3.4544 -0.8880
  208MOL0     H28026   1.184   5.618   5.931 -1.5399 -0.5267  0.9113
  208MOL0     H28027   1.103   5.425   5.880  0.3060 -1.8521 -0.8044
  208MOL0     H28028   1.266   5.378   5.850 -2.5875 -1.5735 -1.8778
  208MOL0     H28029   1.236   5.344   6.121  0.7227  1.2429 -0.8298
  208MOL0     H28030   1.292   5.227   6.008  0.3776 -0.2177  2.8333
  208MOL0     H28031   1.072   5.175   6.255  2.1439 -1.3284 -1.3393
  208MOL0     H28032   0.874   5.036   6.293  1.6132 -0.4694 -0.9947
  208MOL0     H28033   0.738   5.064   6.180 -0.6943 -1.1515  0.3256
  208MOL0     H28034   0.910   4.816   6.179 -0.3229  0.6036  1.3948
  208MOL0     H28035   0.799   4.857   6.056 -1.1299  0.1048  0.0317
  208MOL0     H28036   0.618   4.863   6.207 -1.8198 -0.6838  3.0580
  208MOL0     H28037   0.706   4.843   6.353 -1.7733 -0.0446  0.3121
  208MOL0     H28038   0.669   4.650   6.127 -5.1838  0.5725  0.1199
  208MOL0     H28039   0.574   4.666   6.272  0.4124 -3.1342  0.8067
  208MOL0     H28040   0.937   4.478   6.428 -1.0255  2.1480  1.9628
  208MOL0     H28041   0.999   4.188   6.532  0.3639  0.3098 -1.6339
  208MOL0     H28042   1.009   4.339   6.619  0.6826 -1.4573 -0.0773
  208MOL0     H28043   0.907   4.207   6.682 -1.8835  2.2732  0.4689
  208MOL0     H28044   0.317   4.093   6.731 -0.1356 -0.2671  1.8164
  208MOL0     H28045   0.191   3.919   6.823  1.7123 -0.7054  2.9384
  208MOL0     H28046   0.358   3.467   6.781  1.0340 -0.3355  2.1379
  208MOL0     H28047   0.337   3.539   6.935  0.3149 -0.2526  0.0517
  208MOL0     H28048   0.215   3.336   6.926  0.5831  0.7293 -0.4650
  208MOL0     H28049   0.107   3.461   6.956 -0.4919  0.4073  0.2285
  208MOL0     H28050   0.159   3.337   6.673  0.2366  1.0010 -0.8644
  208MOL0     H28051   0.069   3.482   6.707  3.2331  1.1140  0.0939
  208MOL0     H28052   0.006   3.214   6.812  3.5568 -0.5600 -2.8943
  208MOL0     H28053  -0.094   3.372   6.829  1.4153  1.1170 -0.5652
  208MOL0     H28054  -0.005   3.226   6.580  0.5022 -2.9571  2.3571
  208MOL0     H28055  -0.096   3.382   6.600  0.1168  0.5853  2.6816
  208MOL0     H28056  -0.249   3.197   6.519  3.5148 -0.1999 -1.9122
  208MOL0     H28057  -0.173   3.096   6.638  3.6072  0.4817 -0.3842
  208MOL0     H28058  -0.311   3.344   6.732  1.9276  0.6295 -1.5142
  208MOL0     H28059  -0.296   3.187   6.817 -0.2299  0.0319 -1.1218
  208MOL0     H28060  -0.472   3.230   6.567 -1.4090 -1.5452 -0.1711
  208MOL0     H28061  -0.533   3.229   6.726  2.2434 -1.5239  5.6841
  208MOL0     H28062   0.497   3.639   6.685 -0.7564  0.3222  2.3507
  208MOL0     H28063   0.614   3.825   6.581 -0.6882 -0.5335 -1.3238
  208MOL0     H28064   0.499   4.242   6.410  0.1510 -1.0603 -0.5894
  208MOL0     H28065   0.535   4.449   6.277  0.3507  0.1454 -1.3954
  208MOL0     H28066   1.459   5.888   6.695  0.2426  1.6333  1.4735
  208MOL0     H28067   1.390   5.933   6.922 -0.9488  2.6369 -0.0193
  208MOL0     H28068   1.092   5.807   7.260 -1.1400 -0.3860  1.2795
  208MOL0     H28069   1.041   5.820   7.498 -2.4556 -0.4057 -0.7312
  208MOL0     H28070   0.905   5.904   7.640  0.9465 -3.2518  1.0762
  208MOL0     H28071   1.057   5.858   7.707 -0.6054 -0.4660 -1.5611
  208MOL0     H28072   0.885   5.893   7.892 -2.1927  0.7917 -1.3692
  208MOL0     H28073   0.925   6.068   7.866  1.1928  0.1633  3.8422
  208MOL0     H28074   1.057   6.026   8.020 -0.1081 -0.1361  0.2779
  208MOL0     H28075   1.174   6.028   7.886  0.3653  0.5421  2.8311
  208MOL0     H28076   1.226   5.858   8.051  1.7648 -0.1314 -2.0459
  208MOL0     H28077   1.202   5.780   7.896 -2.2543 -0.3111 -0.8935
  208MOL0     H28078   0.879   5.629   8.147  0.6552  0.4086  1.1455
  208MOL0     H28079   1.096   6.252   7.478  1.8349  1.2029 -1.6328
  208MOL0     H28080   1.153   6.233   7.248  1.8274 -2.0131 -1.5383
  209MOL0     O28081   8.544   5.242   7.429  0.0216  0.1000  0.6321
  209MOL0     C28082   8.589   5.138   7.468  1.0853 -0.6212 -0.1012
  209MOL0     O28083   8.558   5.095   7.594  0.4370  0.0454  0.2544
  209MOL0     C28084   8.478   5.173   7.672  0.1803  0.1859 -0.1944
  209MOL0     C28085   8.339   5.150   7.674 -0.2906  0.3503  0.0120
  209MOL0     C28086   8.254   5.235   7.744 -0.0868 -0.8924 -0.1502
  209MOL0     C28087   8.305   5.342   7.822 -0.4452  0.8652 -0.6621
  209MOL0     O28088   8.230   5.426   7.897  0.2576  0.2253  0.3340
  209MOL0     C28089   8.148   5.369   7.992 -0.4886  0.2081 -0.3034
  209MOL0     C28090   8.067   5.478   8.060 -1.1499 -0.4259  0.5281
  209MOL0     C28091   8.151   5.520   8.186  0.5552 -0.5462 -0.0076
  209MOL0     C28092   8.065   5.619   8.262 -0.7853 -0.8503 -0.4412
  209MOL0     C28093   8.119   5.638   8.411  0.4964 -0.5545  0.2410
  209MOL0     C28094   8.018   5.730   8.488  0.3986 -0.1091 -0.2415
  209MOL0     C28095   8.071   5.816   8.605  1.0037  0.0305 -0.1080
  209MOL0     C28096   8.113   5.731   8.717  0.4079  0.2377  0.7580
  209MOL0     N28097   8.129   5.816   8.831 -0.1759  0.1821 -0.0299
  209MOL0     C28098   8.250   5.835   8.888  0.1515  0.2199 -0.2655
  209MOL0     C28099   8.221   5.926   8.984 -0.8076 -0.7947  0.8636
  209MOL0     C28100   8.312   5.980   9.096  0.3153  0.7599  0.1780
  209MOL0     C28101   8.277   5.912   9.225  0.1648  0.6025  0.8621
  209MOL0     C28102   8.341   5.977   9.341  0.5089 -0.5053 -0.2672
  209MOL0     C28103   8.287   6.125   9.367 -0.2227 -0.5992  0.1473
  209MOL0     O28104   8.150   6.117   9.424 -0.4751  0.2938 -0.3664
  209MOL0     C28105   8.105   6.221   9.493 -0.9093  0.2560 -1.1308
  209MOL0     C28106   8.091   6.349   9.440 -0.3306 -0.9748  0.2352
  209MOL0     C28107   8.045   6.462   9.517 -0.9121  0.9654  0.5834
  209MOL0     C28108   8.048   6.597   9.450  0.5223  0.2772 -0.8839
  209MOL0     C28109   8.000   6.433   9.646  0.0556 -0.6440 -0.0058
  209MOL0     C28110   7.955   6.536   9.744  0.4138  0.5550 -0.8253
  209MOL0     O28111   7.989   6.661   9.717  0.4651 -0.0748 -0.0551
  209MOL0     C28112   7.940   6.765   9.795  0.5812 -0.5275 -0.0320
  209MOL0     C28113   7.981   6.789   9.923  0.0759 -0.2602 -1.3770
  209MOL0     C28114   7.907   6.876  10.012 -0.6407 -0.7570  0.5572
  209MOL0     C28115   7.797   6.950   9.969  0.0040 -1.0394 -0.5233
  209MOL0     O28116   7.711   7.025  10.051 -0.2244  0.0789  0.0151
  209MOL0     C28117   7.778   7.084  10.167  0.6020 -0.2505 -0.1567
  209MOL0     C28118   7.684   7.197  10.209 -0.3143 -1.3710  0.1260
  209MOL0     C28119   7.755   7.277  10.333  0.6788 -0.2393 -0.8107
  209MOL0     C28120   7.693   7.417  10.369 -0.0404 -0.5013 -0.5300
  209MOL0     C28121   7.571   7.411  10.461  0.3992  0.4299  0.0760
  209MOL0     C28122   7.476   7.540  10.449  0.3209  0.5368 -0.2934
  209MOL0     C28123   7.380   7.552  10.567 -0.2913  0.0143 -1.3030
  209MOL0     C28124   7.258   7.644  10.557  0.5242 -0.0466  0.9397
  209MOL0    Cl28125   7.158   7.587  10.415 -0.0346  0.2410  0.7979
  209MOL0     C28126   7.754   6.915   9.843  0.6737  0.3103 -0.2983
  209MOL0     C28127   7.822   6.828   9.762 -0.2204 -1.2593 -0.7833
  209MOL0     O28128   7.886   6.505   9.844  0.3280 -0.1111 -0.7722
  209MOL0     C28129   7.995   6.306   9.695  0.3783 -0.9495  0.2261
  209MOL0     C28130   8.057   6.203   9.623 -0.4054  0.2357 -0.5164
  209MOL0     N28131   8.090   5.967   8.982 -0.1331  0.1008 -0.4757
  209MOL0     N28132   8.038   5.894   8.887  1.2268 -0.0131  0.0494
  209MOL0     C28133   8.443   5.368   7.819 -0.3327 -1.1636 -0.0684
  209MOL0     C28134   8.526   5.281   7.738 -0.5416  0.7839 -0.6920
  209MOL0     C28135   8.664   5.045   7.388 -0.9531 -0.8433 -0.1113
  209MOL0     C28136   8.690   5.072   7.251 -0.1355 -0.6401 -0.6797
  209MOL0     C28137   8.762   4.975   7.170  0.7388  0.2452 -0.0750
  209MOL0     C28138   8.831   4.867   7.228 -0.6213 -0.2457 -0.1694
  209MOL0     O28139   8.915   4.801   7.135  0.1328  0.0617  0.5517
  209MOL0     C28140   9.009   4.708   7.176 -0.8422 -0.3396 -0.3621
  209MOL0     C28141   9.109   4.663   7.067 -0.6267 -0.1319 -0.0507
  209MOL0     C28142   9.202   4.788   7.042  0.5076  0.0893 -0.4645
  209MOL0     C28143   9.184   4.809   6.893  0.3262  0.3377  0.0328
  209MOL0     C28144   9.275   4.910   6.846 -0.6273  0.9261  0.1825
  209MOL0     C28145   9.337   5.001   6.809 -0.5417  0.4890  0.7875
  209MOL0     C28146   8.792   4.828   7.354 -1.2662  0.1661  0.3516
  209MOL0     C28147   8.716   4.917   7.428  0.6597 -0.1523 -0.0599
  209MOL0     H28148   8.279   5.086   7.611 -2.2692  0.4043  1.7169
  209MOL0     H28149   8.147   5.222   7.743 -0.0577 -1.2296  0.5894
  209MOL0     H28150   8.081   5.291   7.955 -1.7550  0.9278  0.4223
  209MOL0     H28151   8.214   5.313   8.060 -0.3448 -0.6016 -1.0918
  209MOL0     H28152   8.061   5.560   7.988  2.5859 -2.5999 -2.6721
  209MOL0     H28153   7.967   5.450   8.095 -0.7181 -0.8617  1.4614
  209MOL0     H28154   8.160   5.430   8.247  1.7810 -0.8444 -0.5926
  209MOL0     H28155   8.253   5.555   8.167  1.1843 -0.2569  3.2754
  209MOL0     H28156   8.065   5.716   8.211 -2.8563  1.0080  2.7181
  209MOL0     H28157   7.959   5.591   8.259 -0.6472 -1.7417  1.3893
  209MOL0     H28158   8.119   5.543   8.464 -2.3213 -0.0543  1.3619
  209MOL0     H28159   8.221   5.676   8.411  0.4248 -0.2119  2.6286
  209MOL0     H28160   7.974   5.804   8.420 -0.8406 -1.3894 -0.8877
  209MOL0     H28161   7.947   5.651   8.513  0.2696 -0.6537 -2.1983
  209MOL0     H28162   8.156   5.880   8.578  1.2494 -0.0692  0.4177
  209MOL0     H28163   7.994   5.886   8.639  1.5531  0.8212 -0.4415
  209MOL0     H28164   8.203   5.672   8.697 -1.2354 -2.4200  0.7345
  209MOL0     H28165   8.031   5.660   8.728  1.5809 -1.1811  0.5886
  209MOL0     H28166   8.342   5.781   8.866  0.4429  1.3154 -1.8710
  209MOL0     H28167   8.420   5.978   9.087  0.9427  1.0689  4.9429
  209MOL0     H28168   8.278   6.084   9.111 -2.4983  0.1832 -1.3731
  209MOL0     H28169   8.316   5.811   9.215 -0.5334  0.4722 -0.8013
  209MOL0     H28170   8.171   5.906   9.249 -0.9689  1.1362 -3.2953
  209MOL0     H28171   8.450   5.983   9.335  0.6092  1.0980  1.7406
  209MOL0     H28172   8.332   5.914   9.430  1.7371 -2.2051 -1.3054
  209MOL0     H28173   8.290   6.198   9.285  1.8068  3.8398  3.6554
  209MOL0     H28174   8.358   6.152   9.446 -1.1550 -0.7369  1.0562
  209MOL0     H28175   8.133   6.359   9.341  1.6821 -1.3442  0.9972
  209MOL0     H28176   8.108   6.668   9.508 -2.4867 -0.1317  3.2502
  209MOL0     H28177   8.078   6.580   9.347  1.2375  0.3821 -0.6968
  209MOL0     H28178   7.952   6.648   9.435  0.0735 -0.0033  0.8462
  209MOL0     H28179   8.066   6.734   9.962  0.8126  2.8357  1.9654
  209MOL0     H28180   7.948   6.871  10.113 -2.4083 -2.2180  1.2462
  209MOL0     H28181   7.794   7.021  10.255  0.7078  1.3866  1.0542
  209MOL0     H28182   7.877   7.121  10.138  0.7677 -0.5869 -0.0303
  209MOL0     H28183   7.687   7.274  10.131  1.6929 -0.6703  0.8300
  209MOL0     H28184   7.580   7.174  10.234 -0.6422 -0.2802 -0.1994
  209MOL0     H28185   7.864   7.286  10.324  0.5816  2.2968 -0.4614
  209MOL0     H28186   7.748   7.213  10.421 -1.2998  0.4672 -0.4013
  209MOL0     H28187   7.772   7.479  10.412 -1.3578  0.8505  0.0251
  209MOL0     H28188   7.677   7.478  10.280  0.2800  2.0803  1.0823
  209MOL0     H28189   7.594   7.396  10.567 -3.0746 -1.2431  0.7460
  209MOL0     H28190   7.524   7.317  10.431  1.6002  0.3946 -1.8962
  209MOL0     H28191   7.540   7.629  10.455 -2.3228  2.5594  0.0558
  209MOL0     H28192   7.430   7.545  10.350  3.1505  2.2028 -1.6731
  209MOL0     H28193   7.434   7.588  10.655 -2.0799  1.5152 -0.7454
  209MOL0     H28194   7.351   7.448  10.586  1.6094 -0.8092 -2.6180
  209MOL0     H28195   7.280   7.751  10.552  1.0065 -0.1980 -1.3347
  209MOL0     H28196   7.205   7.622  10.650  0.4131  0.6910  1.0537
  209MOL0     H28197   7.657   6.955   9.815  0.1873  0.2657  1.2408
  209MOL0     H28198   7.766   6.808   9.672 -0.7243 -1.0605 -0.5217
  209MOL0     H28199   7.965   6.277   9.795 -0.5979 -3.0721 -0.6142
  209MOL0     H28200   8.069   6.108   9.674  3.2533  0.5998 -0.4710
  209MOL0     H28201   8.482   5.457   7.867 -0.2118 -0.6005 -1.1719
  209MOL0     H28202   8.634   5.290   7.745 -0.4102 -1.5112  2.0242
  209MOL0     H28203   8.651   5.161   7.203 -0.4349 -0.5920 -0.3529
  209MOL0     H28204   8.762   4.998   7.064 -2.8750 -0.2944 -0.3176
  209MOL0     H28205   9.068   4.740   7.262 -0.5217  0.2807 -0.8034
  209MOL0     H28206   8.954   4.621   7.213  0.3048  0.5240  3.9652
  209MOL0     H28207   9.050   4.632   6.980  0.0780 -1.4077 -0.0894
  209MOL0     H28208   9.175   4.582   7.096  2.9023  2.3204 -0.5509
  209MOL0     H28209   9.302   4.754   7.072  0.7660  2.0183  1.0464
  209MOL0     H28210   9.178   4.879   7.097 -0.0741  0.5895 -1.5255
  209MOL0     H28211   9.086   4.854   6.875 -0.2701  0.9344  3.9796
  209MOL0     H28212   9.199   4.716   6.837  0.8081  0.9508 -0.8897
  209MOL0     H28213   9.400   5.081   6.775  3.1925 -2.6767 -0.4801
  209MOL0     H28214   8.829   4.735   7.397  2.1131  1.2734  0.1430
  209MOL0     H28215   8.708   4.898   7.534  2.3026  0.1625  0.1478
  210MOL0     O28216   6.912   0.665   4.303  0.6402 -0.4439  0.3172
  210MOL0     C28217   6.973   0.562   4.309  0.3403  0.1005  0.1308
  210MOL0     O28218   6.917   0.440   4.304 -0.0963 -0.5757  0.5258
  210MOL0     C28219   6.778   0.448   4.282  0.1911 -0.3277 -0.1700
  210MOL0     C28220   6.704   0.395   4.393  0.2375 -0.6832  0.1866
  210MOL0     C28221   6.565   0.387   4.389 -0.4136 -0.2432 -0.5674
  210MOL0     C28222   6.487   0.427   4.273 -0.3402  0.4341  0.0127
  210MOL0     O28223   6.354   0.401   4.267  0.2679  0.1810 -0.3523
  210MOL0     C28224   6.289   0.320   4.366  0.2827  0.5083 -0.4069
  210MOL0     C28225   6.144   0.297   4.342 -0.2662 -0.1555  0.3502
  210MOL0     C28226   6.088   0.159   4.382 -0.1394  0.5274  0.2701
  210MOL0     C28227   5.936   0.162   4.372 -0.5683  0.5518  0.0830
  210MOL0     C28228   5.863   0.020   4.380  0.1234  0.2161  0.2459
  210MOL0     C28229   5.715   0.026   4.407  0.0007  0.4387  0.5515
  210MOL0     C28230   5.652  -0.123   4.436 -0.4818 -0.6032  0.4209
  210MOL0     C28231   5.507  -0.091   4.479 -0.4339 -0.0875  0.5192
  210MOL0     N28232   5.405  -0.180   4.422  0.7686  1.3468  0.5042
  210MOL0     C28233   5.346  -0.281   4.497  0.8491  0.1836  0.1648
  210MOL0     C28234   5.260  -0.341   4.410 -0.3926 -0.0812  1.4511
  210MOL0     C28235   5.178  -0.469   4.436 -0.0654 -0.3991 -0.3610
  210MOL0     C28236   5.043  -0.423   4.495 -1.3996 -0.1686  0.5157
  210MOL0     C28237   4.969  -0.547   4.546 -0.5945 -0.2919  0.7896
  210MOL0     C28238   4.826  -0.533   4.585  0.2633 -0.5136  0.3361
  210MOL0     O28239   4.802  -0.411   4.659  0.3911 -0.0399 -0.3000
  210MOL0     C28240   4.669  -0.404   4.690  0.6569  0.2193 -1.3577
  210MOL0     C28241   4.575  -0.348   4.608 -0.1265  0.3711 -0.1686
  210MOL0     C28242   4.454  -0.300   4.641 -0.0705  0.0315 -1.0623
  210MOL0     C28243   4.360  -0.240   4.530 -0.0944  0.1598  0.1675
  210MOL0     C28244   4.413  -0.323   4.775 -0.0598  0.7410 -0.3017
  210MOL0     C28245   4.284  -0.290   4.835  0.0550  1.0258 -0.1843
  210MOL0     O28246   4.277  -0.292   4.972  0.7849  0.5011 -0.1060
  210MOL0     C28247   4.152  -0.268   5.031 -0.3801  0.8248  0.1392
  210MOL0     C28248   4.104  -0.145   5.035  1.7956 -0.4715  0.5966
  210MOL0     C28249   3.978  -0.115   5.095 -0.5896  0.0134 -0.5593
  210MOL0     C28250   3.913  -0.223   5.161 -0.5046  0.8729 -0.7937
  210MOL0     O28251   3.800  -0.208   5.245 -0.7900 -0.0243  0.5693
  210MOL0     C28252   3.756  -0.072   5.267 -0.4807  0.0434 -1.2981
  210MOL0     C28253   3.627  -0.082   5.351 -0.7583  1.1325  0.1991
  210MOL0     C28254   3.536   0.041   5.341 -0.4855  0.4888  0.0434
  210MOL0     C28255   3.413   0.040   5.430 -0.6856 -0.5093  0.0419
  210MOL0     C28256   3.454   0.093   5.573  0.2454 -0.2809  0.2647
  210MOL0     C28257   3.327   0.123   5.652 -0.0976 -0.7409 -0.3529
  210MOL0     C28258   3.355   0.155   5.795 -0.0481  1.4992 -0.0292
  210MOL0     C28259   3.230   0.118   5.880 -0.1892  0.3954  0.0793
  210MOL0    Cl28260   3.270   0.172   6.040 -0.3836  0.2846 -0.4145
  210MOL0     C28261   3.960  -0.358   5.156 -1.2685  0.6451  0.1829
  210MOL0     C28262   4.085  -0.378   5.083  0.3719  0.4003 -0.3631
  210MOL0     O28263   4.186  -0.274   4.763 -0.1324 -0.0182  0.7348
  210MOL0     C28264   4.501  -0.388   4.859  0.3132  1.1310  0.8962
  210MOL0     C28265   4.622  -0.428   4.821 -0.9969  0.0913  0.2934
  210MOL0     N28266   5.264  -0.270   4.291 -0.0902  0.2349 -0.4067
  210MOL0     N28267   5.358  -0.185   4.296  0.2941  0.8115  0.0105
  210MOL0     C28268   6.557   0.484   4.167  0.1650 -0.7714  1.3018
  210MOL0     C28269   6.703   0.498   4.176  0.1755 -0.2679  0.2582
  210MOL0     C28270   7.118   0.553   4.301  0.4933  0.1524 -0.2547
  210MOL0     C28271   7.179   0.460   4.208 -0.7021  0.7773 -1.0208
  210MOL0     C28272   7.316   0.479   4.174 -0.9637 -0.1909  0.6134
  210MOL0     C28273   7.395   0.570   4.245  1.0926 -0.0823 -0.2725
  210MOL0     O28274   7.520   0.582   4.204  0.3959  0.0685 -0.8836
  210MOL0     C28275   7.581   0.710   4.233  0.2163  0.3047 -0.2248
  210MOL0     C28276   7.731   0.698   4.191 -0.4523 -0.3830 -0.7377
  210MOL0     C28277   7.808   0.828   4.223  0.0535 -0.1068  0.0522
  210MOL0     C28278   7.957   0.818   4.227 -0.3286 -1.0056 -0.1987
  210MOL0     C28279   8.001   0.836   4.087  0.0605  0.1272  0.3256
  210MOL0     C28280   8.038   0.848   3.970 -0.2295  0.4779 -1.0582
  210MOL0     C28281   7.331   0.636   4.357  0.3151 -0.4843 -0.6738
  210MOL0     C28282   7.194   0.642   4.377 -0.4768  0.5695 -0.1087
  210MOL0     H28283   6.770   0.365   4.473 -0.6974 -0.6042  0.9980
  210MOL0     H28284   6.512   0.364   4.481 -1.6104 -0.0914 -1.1926
  210MOL0     H28285   6.331   0.219   4.369 -1.5391 -0.2709  2.5233
  210MOL0     H28286   6.297   0.363   4.466 -1.0149 -4.6228  2.2784
  210MOL0     H28287   6.092   0.374   4.399 -3.5104 -2.2652  0.4812
  210MOL0     H28288   6.127   0.307   4.234 -0.3447 -0.0210  0.3747
  210MOL0     H28289   6.132   0.089   4.310 -0.0021 -1.4032  2.1189
  210MOL0     H28290   6.125   0.130   4.481  0.8396  2.7402  0.5998
  210MOL0     H28291   5.893   0.239   4.436 -1.7882 -0.2151  0.2150
  210MOL0     H28292   5.912   0.207   4.275  0.6362 -1.5555 -1.2701
  210MOL0     H28293   5.874  -0.039   4.289 -0.0366  0.7207 -0.1061
  210MOL0     H28294   5.896  -0.048   4.459 -0.4838 -0.1239  0.2162
  210MOL0     H28295   5.707   0.082   4.500 -1.8790  1.4868 -0.1805
  210MOL0     H28296   5.654   0.076   4.331 -0.0633  0.2240  0.4597
  210MOL0     H28297   5.647  -0.192   4.352  1.8057 -0.4727  0.1112
  210MOL0     H28298   5.702  -0.174   4.519 -1.0351 -1.5580  0.1817
  210MOL0     H28299   5.486   0.006   4.434 -2.0818 -0.6139  0.0863
  210MOL0     H28300   5.504  -0.073   4.586 -0.6158  0.2628  0.4538
  210MOL0     H28301   5.354  -0.319   4.598  1.8223 -2.6552 -0.8872
  210MOL0     H28302   5.167  -0.522   4.340  1.8855  0.1576 -0.9446
  210MOL0     H28303   5.233  -0.527   4.510 -1.5949 -0.6107  0.6359
  210MOL0     H28304   4.982  -0.388   4.410  0.0574 -0.5607 -0.7295
  210MOL0     H28305   5.055  -0.345   4.571  0.2350 -0.2698  0.3865
  210MOL0     H28306   5.022  -0.583   4.635 -1.5194  0.4432  1.6770
  210MOL0     H28307   4.976  -0.622   4.467 -3.8869 -0.0145  0.0725
  210MOL0     H28308   4.796  -0.616   4.651  0.7360 -0.7581  0.2462
  210MOL0     H28309   4.761  -0.525   4.498  1.7096  0.5282 -0.6918
  210MOL0     H28310   4.611  -0.330   4.507 -1.5401  1.0607 -0.5755
  210MOL0     H28311   4.268  -0.298   4.525  0.3674 -0.5514 -0.4707
  210MOL0     H28312   4.335  -0.136   4.554 -2.0346 -0.9746  3.7717
  210MOL0     H28313   4.414  -0.228   4.435 -3.0985  1.0747 -1.5638
  210MOL0     H28314   4.150  -0.056   4.993 -1.6964  0.8707 -0.8171
  210MOL0     H28315   3.963  -0.010   5.115  1.2766  0.0557  0.8561
  210MOL0     H28316   3.835  -0.005   5.301  0.1313 -0.2361 -2.1423
  210MOL0     H28317   3.716  -0.033   5.173  0.1440  4.1412 -0.0684
  210MOL0     H28318   3.568  -0.168   5.316  1.7828 -0.5676 -0.2282
  210MOL0     H28319   3.668  -0.096   5.452  0.4841  0.2649 -0.3988
  210MOL0     H28320   3.492   0.033   5.241  0.3461 -2.5128 -0.1543
  210MOL0     H28321   3.601   0.128   5.355  0.0376  0.2091 -0.5795
  210MOL0     H28322   3.353   0.114   5.377  0.4589 -0.2186 -0.8871
  210MOL0     H28323   3.365  -0.058   5.424  0.3607 -0.9433 -2.8488
  210MOL0     H28324   3.513   0.185   5.574  0.7389 -0.5546  2.5871
  210MOL0     H28325   3.518   0.021   5.624  1.5011 -0.8899 -2.0625
  210MOL0     H28326   3.272   0.207   5.609  1.8193 -0.1152 -1.7026
  210MOL0     H28327   3.261   0.036   5.657  0.8322 -1.4075  0.6085
  210MOL0     H28328   3.370   0.263   5.807 -0.2809  1.5217  0.0527
  210MOL0     H28329   3.437   0.090   5.827 -2.0645 -0.8346  0.7361
  210MOL0     H28330   3.218   0.010   5.890  1.3954  0.4128  3.1557
  210MOL0     H28331   3.132   0.159   5.852  0.0985  0.4806 -0.8192
  210MOL0     H28332   3.903  -0.445   5.186  2.3978 -2.1861 -0.3251
  210MOL0     H28333   4.123  -0.478   5.065 -2.4501 -1.3566  2.3169
  210MOL0     H28334   4.478  -0.412   4.963 -0.8278 -0.3183  0.3501
  210MOL0     H28335   4.696  -0.464   4.891  1.4017  0.5133 -1.8757
  210MOL0     H28336   6.497   0.541   4.097  2.2038  0.6743  0.6356
  210MOL0     H28337   6.763   0.534   4.093  0.3981  0.9746  0.9242
  210MOL0     H28338   7.131   0.382   4.151  2.0195 -1.3900 -0.5683
  210MOL0     H28339   7.367   0.437   4.088  0.4012  3.2304 -0.3989
  210MOL0     H28340   7.543   0.793   4.172 -0.8545 -2.6179 -3.9165
  210MOL0     H28341   7.574   0.741   4.338  1.7366 -0.6482  0.1904
  210MOL0     H28342   7.735   0.687   4.082  0.4948  3.9481 -1.3388
  210MOL0     H28343   7.770   0.618   4.254 -1.5100  0.1715  0.6747
  210MOL0     H28344   7.770   0.873   4.315 -1.0771  3.6001 -2.0319
  210MOL0     H28345   7.781   0.902   4.147 -0.8025 -0.5725 -0.1202
  210MOL0     H28346   7.997   0.720   4.256  1.2328  0.0641  1.5027
  210MOL0     H28347   7.998   0.895   4.293 -0.5210 -0.0356 -1.1811
  210MOL0     H28348   8.079   0.852   3.871  2.9303 -0.4394  0.0802
  210MOL0     H28349   7.388   0.693   4.429  0.5422 -3.4319  1.7029
  210MOL0     H28350   7.157   0.712   4.452  2.9676  2.5213 -0.0455
  211MOL0     O28351   0.674   8.864  10.781 -0.4814 -0.1294  0.3036
  211MOL0     C28352   0.703   8.839  10.660 -0.4399  0.5111  0.6883
  211MOL0     O28353   0.610   8.824  10.557 -0.2856 -0.6151  0.1772
  211MOL0     C28354   0.477   8.857  10.575 -0.9140  0.0981  0.3156
  211MOL0     C28355   0.379   8.764  10.552  0.0466  0.6590 -0.7120
  211MOL0     C28356   0.248   8.803  10.579 -0.9789 -0.2621 -0.0769
  211MOL0     C28357   0.214   8.932  10.622  0.2977  0.1984 -0.5545
  211MOL0     O28358   0.095   8.968  10.675  0.3995 -0.8939 -0.6385
  211MOL0     C28359  -0.029   8.920  10.625 -0.4814 -0.3000  0.1385
  211MOL0     C28360  -0.062   8.979  10.483  0.5726 -0.4973 -0.3561
  211MOL0     C28361  -0.086   9.129  10.465  0.2100 -0.3790  0.2907
  211MOL0     C28362  -0.056   9.177  10.325  0.1012  0.8431 -1.0845
  211MOL0     C28363  -0.112   9.323  10.305 -0.0640  0.1363  0.6870
  211MOL0     C28364  -0.042   9.372  10.170 -0.2636  0.2603  0.3477
  211MOL0     C28365  -0.132   9.486  10.113  0.9065 -0.2299 -0.0464
  211MOL0     C28366  -0.095   9.525   9.971  0.1549  0.2711  0.0126
  211MOL0     N28367  -0.192   9.608   9.898  0.2718  0.4922  0.7045
  211MOL0     C28368  -0.271   9.712   9.945  0.4669 -0.2389 -0.3293
  211MOL0     C28369  -0.369   9.727   9.851  1.3707  0.5028 -0.8555
  211MOL0     C28370  -0.503   9.799   9.856  0.6940  0.2729 -0.6450
  211MOL0     C28371  -0.482   9.952   9.850  0.6801  0.5392  0.0002
  211MOL0     C28372  -0.439   9.999   9.708 -0.2004  0.6544 -0.8074
  211MOL0     C28373  -0.426  10.150   9.719  0.1291  0.7300 -0.0061
  211MOL0     O28374  -0.416  10.214   9.590 -0.9178  0.1796 -0.2326
  211MOL0     C28375  -0.527  10.254   9.530 -0.2872  0.1235  0.9666
  211MOL0     C28376  -0.509  10.365   9.443  0.0228  0.3519  0.1428
  211MOL0     C28377  -0.613  10.433   9.371  0.0133  0.1947 -1.0455
  211MOL0     C28378  -0.578  10.546   9.281 -0.0874  0.3267 -0.0709
  211MOL0     C28379  -0.744  10.396   9.415  0.6111 -0.4615  0.0732
  211MOL0     C28380  -0.862  10.445   9.345  0.0986  0.1471 -0.2226
  211MOL0     O28381  -0.988  10.419   9.394  1.3473  0.3450  0.3586
  211MOL0     C28382  -1.100  10.469   9.333  0.7187  0.2316  0.0538
  211MOL0     C28383  -1.143  10.412   9.208  0.6128 -1.4069  0.2953
  211MOL0     C28384  -1.263  10.450   9.151  0.5098 -0.2081  0.1398
  211MOL0     C28385  -1.334  10.557   9.201  0.0499  0.2541 -0.0088
  211MOL0     O28386  -1.444  10.599   9.126 -0.4712  0.1726  0.8889
  211MOL0     C28387  -1.496  10.729   9.158  0.2567  1.2456  0.1041
  211MOL0     C28388  -1.618  10.745   9.055 -0.4999  0.6857  0.4711
  211MOL0     C28389  -1.714  10.629   9.048  0.4591  0.3159  0.3887
  211MOL0     C28390  -1.692  10.545   8.922  0.0162  0.5644  0.0207
  211MOL0     C28391  -1.790  10.431   8.921  0.3205  0.1153 -0.0479
  211MOL0     C28392  -1.773  10.337   8.801 -0.5040  0.3179  0.6027
  211MOL0     C28393  -1.889  10.244   8.772  0.7386 -0.2394 -0.0767
  211MOL0     C28394  -1.862  10.092   8.790  0.2141  0.5128  0.2609
  211MOL0    Cl28395  -2.000   9.988   8.740  0.0957  0.1475  0.0131
  211MOL0     C28396  -1.281  10.625   9.316 -0.0647  1.4355 -0.3740
  211MOL0     C28397  -1.177  10.575   9.389  0.1638  0.5453 -0.4694
  211MOL0     O28398  -0.845  10.492   9.231  0.1715 -0.0948 -0.2155
  211MOL0     C28399  -0.767  10.292   9.511 -0.9837 -0.4000  0.5636
  211MOL0     C28400  -0.659  10.221   9.561 -0.3680  0.1743  0.2867
  211MOL0     N28401  -0.339   9.638   9.744  0.5562  0.1024 -0.1650
  211MOL0     N28402  -0.235   9.573   9.773 -0.7062 -0.1436  0.2259
  211MOL0     C28403   0.320   9.023  10.638 -0.8708 -0.2498 -0.1077
  211MOL0     C28404   0.448   8.986  10.620  0.7868 -0.4640  0.0713
  211MOL0     C28405   0.844   8.844  10.621  0.1462 -0.5605 -0.6402
  211MOL0     C28406   0.937   8.770  10.696 -0.0635 -0.3591 -0.4264
  211MOL0     C28407   1.071   8.771  10.661 -0.5073 -0.4028  0.2659
  211MOL0     C28408   1.120   8.849  10.553  0.1522  0.2294  0.4567
  211MOL0     O28409   1.257   8.846  10.533  0.6584 -0.1914  0.0082
  211MOL0     C28410   1.313   8.911  10.414 -1.2807  0.4950 -0.2715
  211MOL0     C28411   1.465   8.872  10.396  0.6543  0.4491 -0.2848
  211MOL0     C28412   1.523   8.930  10.256  0.2729 -0.1485 -0.5041
  211MOL0     C28413   1.564   9.082  10.266 -0.3376  0.3114  0.4901
  211MOL0     C28414   1.671   9.095  10.370 -0.6795 -0.1443  1.3643
  211MOL0     C28415   1.773   9.086  10.440 -0.7314 -0.2567 -0.5904
  211MOL0     C28416   1.026   8.916  10.472 -0.1429  0.1910 -0.4432
  211MOL0     C28417   0.891   8.921  10.516 -0.3736  0.7073  0.0765
  211MOL0     H28418   0.398   8.665  10.511 -2.7632 -0.0801 -0.4309
  211MOL0     H28419   0.175   8.723  10.571 -1.6513 -0.0643  2.8884
  211MOL0     H28420  -0.024   8.815  10.595 -0.4163 -0.0643 -0.7017
  211MOL0     H28421  -0.110   8.936  10.697  1.4613  0.9089  2.1912
  211MOL0     H28422   0.009   8.941  10.409  0.3286  1.4293 -1.6413
  211MOL0     H28423  -0.157   8.929  10.464 -0.4912  0.7274  1.4389
  211MOL0     H28424  -0.191   9.156  10.483  0.2171  0.2862 -0.5740
  211MOL0     H28425  -0.028   9.186  10.538 -1.3300  0.5076  0.8917
  211MOL0     H28426   0.051   9.165  10.309  0.3459  0.1885  0.7813
  211MOL0     H28427  -0.099   9.098  10.264 -0.8568  0.0120  0.5873
  211MOL0     H28428  -0.218   9.308  10.284 -0.3028  0.7064  1.4764
  211MOL0     H28429  -0.095   9.392  10.388 -0.5158  0.2346  0.7003
  211MOL0     H28430   0.065   9.392  10.173 -0.1434 -0.2543 -0.3302
  211MOL0     H28431  -0.035   9.290  10.098  2.2408  2.3007 -1.9892
  211MOL0     H28432  -0.238   9.459  10.110  0.5636  1.0932 -1.7726
  211MOL0     H28433  -0.134   9.577  10.173 -3.7180 -1.0564  1.4547
  211MOL0     H28434  -0.081   9.435   9.910 -2.2306 -0.9228  1.1126
  211MOL0     H28435  -0.007   9.590   9.977  0.7552 -0.6636  2.3049
  211MOL0     H28436  -0.268   9.752  10.046 -0.8294 -1.2201  0.1184
  211MOL0     H28437  -0.563   9.777   9.767  0.3108  2.4287 -0.9804
  211MOL0     H28438  -0.554   9.765   9.946  1.7587 -5.3508 -1.7863
  211MOL0     H28439  -0.415   9.990   9.928 -0.3653  1.8886  0.2752
  211MOL0     H28440  -0.578   9.995   9.879  1.5102  2.1552  0.4403
  211MOL0     H28441  -0.510   9.982   9.626 -1.6070  0.9840  0.3119
  211MOL0     H28442  -0.339   9.960   9.686 -1.3743 -2.0201 -1.8449
  211MOL0     H28443  -0.348  10.174   9.791 -1.3101 -2.5920  2.9528
  211MOL0     H28444  -0.518  10.180   9.770 -0.5893 -1.1384 -0.0995
  211MOL0     H28445  -0.404  10.391   9.439  0.3434 -0.9917 -1.7845
  211MOL0     H28446  -0.658  10.620   9.275 -3.2157 -2.8884 -3.5246
  211MOL0     H28447  -0.484  10.591   9.315 -0.5915  2.1058 -0.9346
  211MOL0     H28448  -0.585  10.504   9.180 -1.3578 -1.3326  0.6629
  211MOL0     H28449  -1.074  10.335   9.175  1.7310 -0.0752 -0.6177
  211MOL0     H28450  -1.287  10.395   9.060  0.4084  0.2436 -0.1104
  211MOL0     H28451  -1.529  10.739   9.262  1.0079 -1.5788  0.6877
  211MOL0     H28452  -1.426  10.810   9.135 -0.8807  2.1822 -0.1900
  211MOL0     H28453  -1.668  10.839   9.080  2.4090  3.7092 -3.4466
  211MOL0     H28454  -1.574  10.761   8.955 -0.8279 -3.0362 -0.4055
  211MOL0     H28455  -1.815  10.671   9.047 -0.0422 -0.4364  4.1843
  211MOL0     H28456  -1.713  10.556   9.131 -1.1477 -2.5957 -1.9531
  211MOL0     H28457  -1.716  10.605   8.834  1.8396  1.5530  0.1401
  211MOL0     H28458  -1.585  10.522   8.926  0.7220  3.5518  0.0888
  211MOL0     H28459  -1.889  10.476   8.913 -0.6949 -2.0620 -0.6544
  211MOL0     H28460  -1.773  10.372   9.012 -0.3589 -0.2043 -0.1165
  211MOL0     H28461  -1.755  10.397   8.711 -2.2481 -0.6728 -0.4708
  211MOL0     H28462  -1.684  10.276   8.819 -0.9509 -0.2179  1.0486
  211MOL0     H28463  -1.926  10.272   8.673 -0.0981  0.4961  0.4311
  211MOL0     H28464  -1.971  10.266   8.841  1.6026  3.2886  0.0593
  211MOL0     H28465  -1.833  10.076   8.895  0.2813 -0.0408  0.1601
  211MOL0     H28466  -1.781  10.061   8.724  0.5050 -0.2405  0.9528
  211MOL0     H28467  -1.343  10.705   9.355 -2.2593  0.2569 -1.2633
  211MOL0     H28468  -1.146  10.629   9.477 -1.9169 -0.2057  0.8119
  211MOL0     H28469  -0.867  10.270   9.546 -1.0225  1.4131  1.7518
  211MOL0     H28470  -0.684  10.143   9.632 -1.0153 -2.0396 -2.1997
  211MOL0     H28471   0.292   9.123  10.668 -0.3570 -0.9065  2.8824
  211MOL0     H28472   0.518   9.069  10.630 -1.1321  1.3104 -0.4165
  211MOL0     H28473   0.911   8.714  10.786 -0.5391 -3.0955 -2.1428
  211MOL0     H28474   1.146   8.731  10.729  1.7586  0.9079 -1.3162
  211MOL0     H28475   1.259   8.885  10.323 -1.3513 -0.6028  0.0685
  211MOL0     H28476   1.295   9.017  10.431 -0.8437  0.1476  2.9557
  211MOL0     H28477   1.476   8.763  10.395 -0.3378  0.3267  0.5696
  211MOL0     H28478   1.514   8.917  10.483 -5.5510  4.4270  1.7844
  211MOL0     H28479   1.448   8.922  10.178  0.4015  1.1074 -0.7770
  211MOL0     H28480   1.615   8.872  10.242 -0.2163 -1.2732  0.7792
  211MOL0     H28481   1.484   9.146  10.303  0.9544  1.2675  1.7476
  211MOL0     H28482   1.601   9.119  10.170  0.1336  0.0800  0.5804
  211MOL0     H28483   1.859   9.067  10.501  0.2996  0.4592 -1.7748
  211MOL0     H28484   1.065   8.974  10.388 -1.7810  0.4102 -1.0928
  211MOL0     H28485   0.816   8.980  10.464 -0.7936  0.6770  0.6435
  212MOL0     O28486   7.401  11.024   7.678 -0.1759 -0.1282 -1.1458
  212MOL0     C28487   7.355  11.108   7.598  0.7120 -0.0825 -0.2740
  212MOL0     O28488   7.416  11.155   7.480 -0.0035  0.6395  0.7392
  212MOL0     C28489   7.548  11.103   7.457 -0.4337 -0.7197 -0.1524
  212MOL0     C28490   7.584  11.070   7.326 -0.3086  0.3758  0.4787
  212MOL0     C28491   7.712  11.029   7.299 -0.9354 -0.0703  0.3974
  212MOL0     C28492   7.812  11.024   7.398  0.4515 -0.7149 -0.0832
  212MOL0     O28493   7.941  10.980   7.369  0.4436 -0.8218 -1.2625
  212MOL0     C28494   8.008  11.064   7.284 -0.4540  0.1962 -0.6551
  212MOL0     C28495   8.149  11.011   7.245 -0.3052  0.5682 -1.1077
  212MOL0     C28496   8.184  11.046   7.098 -0.1299  0.4476  0.3781
  212MOL0     C28497   8.325  11.012   7.059  0.3659 -0.4741 -0.2299
  212MOL0     C28498   8.368  11.077   6.932 -0.0845 -0.1252  0.1185
  212MOL0     C28499   8.508  11.027   6.881 -0.9940  0.1586  0.6269
  212MOL0     C28500   8.521  11.090   6.737 -0.2166  0.6007 -0.2498
  212MOL0     C28501   8.646  11.048   6.649  0.5521  0.4109  0.6563
  212MOL0     N28502   8.647  11.122   6.517 -0.2956 -0.4658 -0.1525
  212MOL0     C28503   8.557  11.100   6.417  0.1014  1.4373  0.5310
  212MOL0     C28504   8.603  11.168   6.315  0.5344  0.3234  0.5133
  212MOL0     C28505   8.542  11.157   6.177  1.0855  0.4258  0.1524
  212MOL0     C28506   8.645  11.092   6.086 -0.9104  0.3488 -0.0906
  212MOL0     C28507   8.575  11.068   5.944 -1.1485  0.9041 -0.1925
  212MOL0     C28508   8.672  11.014   5.831  0.3355  0.4457  0.0846
  212MOL0     O28509   8.803  11.074   5.814 -0.9586 -0.7128 -0.1911
  212MOL0     C28510   8.912  11.052   5.899 -0.7107  0.1062  0.3620
  212MOL0     C28511   9.023  11.134   5.903  0.6594  0.1863  0.2734
  212MOL0     C28512   9.130  11.108   5.978 -1.4251 -0.7221  0.1658
  212MOL0     C28513   9.245  11.191   5.945 -0.3164 -0.2441 -0.1195
  212MOL0     C28514   9.145  10.994   6.060 -0.3124 -0.8491 -0.2319
  212MOL0     C28515   9.255  10.969   6.154  0.3714  0.5262  0.9779
  212MOL0     O28516   9.287  11.068   6.231 -0.0273 -0.0148  0.2974
  212MOL0     C28517   9.380  11.071   6.333  0.2863 -0.1426  0.3393
  212MOL0     C28518   9.357  10.989   6.427  0.0870 -0.4070  0.1513
  212MOL0     C28519   9.441  10.981   6.535 -0.0561  0.0621  0.8428
  212MOL0     C28520   9.561  11.049   6.541  0.2813 -0.2400  0.5237
  212MOL0     O28521   9.635  11.031   6.657  0.4927  1.4137  0.1672
  212MOL0     C28522   9.757  11.101   6.668  0.5303 -0.9207 -0.5456
  212MOL0     C28523   9.880  11.027   6.605 -0.7433  0.1082 -0.0061
  212MOL0     C28524  10.007  11.099   6.648  0.9240 -0.4233 -0.0148
  212MOL0     C28525  10.122  11.001   6.654  0.6515 -0.1358 -0.0556
  212MOL0     C28526  10.250  11.065   6.696 -0.0978  0.0650  0.6675
  212MOL0     C28527  10.355  10.969   6.744  0.3253 -0.3763 -0.5673
  212MOL0     C28528  10.337  10.916   6.886 -0.9538 -0.3243 -0.2186
  212MOL0     C28529  10.419  10.791   6.900 -0.2001 -1.6575 -0.3487
  212MOL0    Cl28530  10.589  10.811   6.838 -0.2988 -0.1003 -0.2786
  212MOL0     C28531   9.597  11.128   6.423  0.5922 -0.4636  0.2923
  212MOL0     C28532   9.501  11.147   6.320  0.1043 -0.4449 -0.5531
  212MOL0     O28533   9.319  10.868   6.143 -0.3052 -0.4508  0.4970
  212MOL0     C28534   9.041  10.907   6.055 -0.0259 -0.3181 -0.9699
  212MOL0     C28535   8.924  10.935   5.981 -0.3425 -0.5067  0.3015
  212MOL0     N28536   8.713  11.242   6.358 -0.3742 -0.3944  0.7659
  212MOL0     N28537   8.736  11.220   6.479 -0.4269  0.4333 -1.0081
  212MOL0     C28538   7.786  11.083   7.521  1.0538 -0.6376 -0.1413
  212MOL0     C28539   7.655  11.127   7.544  0.6431 -0.6431 -0.6359
  212MOL0     C28540   7.219  11.153   7.621 -0.3808 -0.4966  0.8414
  212MOL0     C28541   7.125  11.172   7.515 -1.0354 -0.7425 -0.4369
  212MOL0     C28542   6.988  11.213   7.535  0.1448 -0.4728 -0.6399
  212MOL0     C28543   6.937  11.231   7.666  0.5647  0.0902  0.3300
  212MOL0     O28544   6.804  11.274   7.689 -0.2710 -0.3345 -0.1185
  212MOL0     C28545   6.701  11.216   7.604  0.9734  0.4645  0.8531
  212MOL0     C28546   6.565  11.243   7.667 -0.7518  0.0793  0.6496
  212MOL0     C28547   6.449  11.172   7.595 -0.2385  0.2642 -0.3314
  212MOL0     C28548   6.419  11.214   7.448 -0.1004  0.1104  0.4971
  212MOL0     C28549   6.280  11.175   7.417 -0.3217  0.1707 -0.0887
  212MOL0     C28550   6.168  11.139   7.391  0.9016 -0.4711  0.3290
  212MOL0     C28551   7.019  11.209   7.768  0.1556  0.7136 -0.1147
  212MOL0     C28552   7.160  11.172   7.746 -0.4317 -0.6736 -0.5263
  212MOL0     H28553   7.504  11.069   7.252 -1.4128  2.0418  1.5821
  212MOL0     H28554   7.728  11.002   7.195 -0.6155  2.2404 -0.2003
  212MOL0     H28555   7.959  11.067   7.186 -1.7410  0.2500 -0.0212
  212MOL0     H28556   8.022  11.168   7.317 -1.0510  0.7267 -1.9714
  212MOL0     H28557   8.228  11.048   7.310 -0.5868 -1.5326  0.5331
  212MOL0     H28558   8.146  10.902   7.255 -0.4940  0.6783  0.2161
  212MOL0     H28559   8.108  10.996   7.037  0.7956  0.7606 -1.0767
  212MOL0     H28560   8.175  11.155   7.097  2.6687  0.7557  1.0044
  212MOL0     H28561   8.395  11.040   7.138  0.9685  0.8125 -1.1788
  212MOL0     H28562   8.340  10.904   7.071 -0.5223 -0.6807 -0.8857
  212MOL0     H28563   8.284  11.059   6.865  0.1878 -0.5551 -0.1090
  212MOL0     H28564   8.382  11.183   6.953  1.2159  0.4251 -2.9348
  212MOL0     H28565   8.591  11.056   6.946 -1.3231 -2.3279  2.3177
  212MOL0     H28566   8.497  10.919   6.869 -2.4651  0.2623  0.9039
  212MOL0     H28567   8.427  11.060   6.689  0.0108  0.6370 -0.7217
  212MOL0     H28568   8.502  11.195   6.760 -2.4742 -0.2226  2.1348
  212MOL0     H28569   8.666  10.942   6.634  0.5744  0.2626  1.6628
  212MOL0     H28570   8.721  11.085   6.719  0.5092  2.0001 -0.0960
  212MOL0     H28571   8.474  11.030   6.420  0.6500  0.5431 -2.2918
  212MOL0     H28572   8.455  11.091   6.171  1.8580 -0.4654 -2.1398
  212MOL0     H28573   8.523  11.257   6.138  1.9640  0.5289 -0.0120
  212MOL0     H28574   8.666  11.001   6.143 -1.2632  1.7316  2.3591
  212MOL0     H28575   8.731  11.159   6.086 -0.4977 -0.0762  2.7742
  212MOL0     H28576   8.523  11.156   5.905 -3.3544 -0.8762 -1.5703
  212MOL0     H28577   8.499  10.992   5.965 -0.8618  1.8420  6.0934
  212MOL0     H28578   8.620  11.031   5.736  1.3140 -0.1480 -0.5756
  212MOL0     H28579   8.680  10.906   5.843  1.1865  0.5435  0.4521
  212MOL0     H28580   9.031  11.207   5.823  2.2286 -1.6636 -1.3610
  212MOL0     H28581   9.230  11.295   5.973  1.0763 -0.7001  2.7142
  212MOL0     H28582   9.334  11.153   5.997  0.0724  0.0520 -0.5684
  212MOL0     H28583   9.273  11.171   5.841  1.9613 -0.2151  0.4319
  212MOL0     H28584   9.264  10.932   6.428  0.1708 -0.5497 -0.1338
  212MOL0     H28585   9.409  10.913   6.614 -3.6039 -1.6079 -1.7257
  212MOL0     H28586   9.744  11.198   6.620  2.8999  1.8481  3.7770
  212MOL0     H28587   9.773  11.104   6.776 -3.5898 -0.0897  0.1939
  212MOL0     H28588   9.880  10.924   6.641 -0.7050 -0.1144 -0.6284
  212MOL0     H28589   9.876  11.014   6.496  2.7844 -4.4773  0.1103
  212MOL0     H28590   9.988  11.133   6.751  0.0175 -1.4882  0.1906
  212MOL0     H28591  10.026  11.185   6.583  0.7231 -0.8801 -0.6876
  212MOL0     H28592  10.098  10.927   6.732 -1.4429  0.3437 -0.1721
  212MOL0     H28593  10.138  10.951   6.558  3.6048 -1.1095  0.8286
  212MOL0     H28594  10.230  11.139   6.774  1.3684  0.2649  0.8923
  212MOL0     H28595  10.283  11.123   6.609 -0.9179  0.3630  0.5514
  212MOL0     H28596  10.350  10.884   6.676 -0.5874 -1.3079  0.6165
  212MOL0     H28597  10.448  11.027   6.742  0.9403 -0.9253  3.5327
  212MOL0     H28598  10.232  10.897   6.910 -0.2913 -4.6960  0.0625
  212MOL0     H28599  10.375  10.989   6.959 -0.2957 -3.2235  2.5554
  212MOL0     H28600  10.361  10.723   6.836 -3.2690  1.6073 -1.3456
  212MOL0     H28601  10.421  10.753   7.002 -0.6241 -1.5037 -0.2821
  212MOL0     H28602   9.690  11.184   6.420 -0.1907  0.8861  0.3167
  212MOL0     H28603   9.522  11.217   6.240  1.8974 -1.2709 -0.8588
  212MOL0     H28604   9.041  10.819   6.119 -0.2967 -0.8255 -1.6483
  212MOL0     H28605   8.841  10.865   5.985 -0.5122 -0.2696  0.9244
  212MOL0     H28606   7.869  11.088   7.591  0.2944  1.6261  0.6846
  212MOL0     H28607   7.635  11.185   7.633  0.6528 -1.8886  0.2084
  212MOL0     H28608   7.151  11.174   7.409  0.1947 -2.3913 -0.1998
  212MOL0     H28609   6.925  11.245   7.453 -3.7508  0.7018  2.5030
  212MOL0     H28610   6.703  11.261   7.504  1.1464  2.6424  1.7611
  212MOL0     H28611   6.719  11.109   7.599  1.6508  0.6002 -0.0649
  212MOL0     H28612   6.550  11.351   7.673 -1.1061  0.0765 -0.0511
  212MOL0     H28613   6.571  11.205   7.769  0.7731  0.8693  0.8825
  212MOL0     H28614   6.369  11.194   7.666  1.0491  0.7533  1.0144
  212MOL0     H28615   6.464  11.064   7.595 -1.6636 -0.0163  2.4245
  212MOL0     H28616   6.496  11.178   7.379  0.2235  1.6642 -0.0034
  212MOL0     H28617   6.429  11.323   7.443 -0.5981  0.1146 -1.2523
  212MOL0     H28618   6.064  11.132   7.367  1.2044 -2.4145 -0.6216
  212MOL0     H28619   6.982  11.209   7.871  0.6166  1.7226  0.0581
  212MOL0     H28620   7.229  11.149   7.827 -1.6553  0.9063  1.0405
  213MOL0     O28621   0.670   2.991   7.465  0.7339 -0.0264 -0.1014
  213MOL0     C28622   0.549   2.980   7.445  0.0947 -0.9349 -0.7428
  213MOL0     O28623   0.446   3.038   7.520 -1.0693  0.4188 -0.3581
  213MOL0     C28624   0.467   3.129   7.620 -0.1723  0.6645  0.1732
  213MOL0     C28625   0.570   3.223   7.623 -0.1015 -0.6837  0.4377
  213MOL0     C28626   0.588   3.293   7.738 -0.1221  0.2281  0.5573
  213MOL0     C28627   0.510   3.279   7.849  0.3012 -0.5048 -0.1719
  213MOL0     O28628   0.531   3.351   7.959  0.0525 -1.0704 -0.7439
  213MOL0     C28629   0.455   3.321   8.079 -1.0312 -0.9594 -0.1206
  213MOL0     C28630   0.500   3.422   8.188  0.2794  0.5502 -1.2419
  213MOL0     C28631   0.450   3.556   8.158 -0.5038 -0.5754  0.4739
  213MOL0     C28632   0.303   3.579   8.128 -0.3837 -0.1424  0.0290
  213MOL0     C28633   0.211   3.543   8.256  0.3855 -0.2147  0.1869
  213MOL0     C28634   0.066   3.581   8.235  0.6597  0.7616 -0.4507
  213MOL0     C28635   0.028   3.726   8.214  0.7880  0.5879 -0.3858
  213MOL0     C28636   0.059   3.821   8.318  0.1554 -0.9104 -1.0322
  213MOL0     N28637   0.011   3.794   8.455  1.0937  0.3875  0.5661
  213MOL0     C28638  -0.120   3.781   8.490 -0.0171 -0.3748  0.8817
  213MOL0     C28639  -0.119   3.750   8.623 -0.5920 -0.2246  0.4926
  213MOL0     C28640  -0.244   3.739   8.696 -0.4959 -0.1105 -0.1334
  213MOL0     C28641  -0.289   3.604   8.746 -0.4840 -0.0485 -0.3442
  213MOL0     C28642  -0.432   3.614   8.796  0.4496  0.1862  0.7511
  213MOL0     C28643  -0.468   3.483   8.876 -0.2681 -0.8517 -0.4471
  213MOL0     O28644  -0.608   3.497   8.903 -0.5565 -0.5439  0.6532
  213MOL0     C28645  -0.671   3.415   8.982 -0.9028  0.4365 -0.8003
  213MOL0     C28646  -0.790   3.456   9.033 -0.4454 -0.5391  0.7972
  213MOL0     C28647  -0.883   3.381   9.107 -0.2219 -0.0311 -0.1780
  213MOL0     C28648  -1.004   3.454   9.159  0.2792  0.3355 -0.2839
  213MOL0     C28649  -0.842   3.248   9.139  0.3667  0.3374 -0.1191
  213MOL0     C28650  -0.921   3.157   9.208 -0.2383  0.2855 -0.6895
  213MOL0     O28651  -0.866   3.051   9.261 -0.3322  0.0265 -0.4399
  213MOL0     C28652  -0.799   3.073   9.385  0.4847 -0.5503  0.5820
  213MOL0     C28653  -0.703   2.976   9.428  1.2585 -0.3094  0.4864
  213MOL0     C28654  -0.624   3.010   9.543  0.5118  0.5837 -0.5077
  213MOL0     C28655  -0.644   3.126   9.610  0.5928  0.0080 -0.0787
  213MOL0     O28656  -0.576   3.141   9.729  0.3671  0.3064  0.4295
  213MOL0     C28657  -0.443   3.172   9.698 -0.8487  0.5950  0.4343
  213MOL0     C28658  -0.386   3.246   9.819  0.7716  0.4030  0.6663
  213MOL0     C28659  -0.261   3.335   9.786 -0.5485 -0.4895  0.4218
  213MOL0     C28660  -0.231   3.431   9.901 -0.1311  0.1219 -0.2129
  213MOL0     C28661  -0.109   3.516   9.854  0.0087  0.7250 -0.5556
  213MOL0     C28662  -0.046   3.598   9.957  0.3196 -0.3759 -0.5719
  213MOL0     C28663  -0.145   3.721   9.999 -0.0082  0.1445 -0.2816
  213MOL0     C28664  -0.137   3.817   9.898  0.8370  0.3628 -0.4447
  213MOL0    Cl28665   0.022   3.889   9.903 -0.1307  0.1782  0.0657
  213MOL0     C28666  -0.745   3.214   9.586 -0.2047 -0.2883 -0.0756
  213MOL0     C28667  -0.816   3.196   9.467 -0.7199  0.1917  0.2484
  213MOL0     O28668  -1.039   3.176   9.218 -0.1837 -0.9728 -0.4227
  213MOL0     C28669  -0.718   3.200   9.081  0.2062 -0.4247  0.0594
  213MOL0     C28670  -0.643   3.280   8.998 -1.2037  0.5204  0.4701
  213MOL0     N28671   0.013   3.743   8.667  0.0821 -0.5158  0.9411
  213MOL0     N28672   0.089   3.763   8.561 -1.2219  0.3840  0.5213
  213MOL0     C28673   0.406   3.189   7.846 -0.1618 -0.8279  0.9392
  213MOL0     C28674   0.387   3.116   7.729  0.2393 -0.0620 -0.2473
  213MOL0     C28675   0.506   2.914   7.327 -0.6132  0.3152  1.0434
  213MOL0     C28676   0.600   2.878   7.220  0.4278  0.0380  0.0447
  213MOL0     C28677   0.553   2.804   7.106 -0.2991 -0.5450  0.2862
  213MOL0     C28678   0.417   2.782   7.088 -0.3964 -0.2184 -0.5719
  213MOL0     O28679   0.359   2.698   6.996  0.1028  0.6790  0.0697
  213MOL0     C28680   0.426   2.573   6.976 -0.0742  0.2612  0.4658
  213MOL0     C28681   0.382   2.448   7.069  0.6001 -0.0125 -0.4445
  213MOL0     C28682   0.230   2.457   7.100  0.4866  0.4356 -0.3720
  213MOL0     C28683   0.148   2.394   6.990 -0.2437 -0.1375 -0.6890
  213MOL0     C28684   0.157   2.253   6.980 -0.7202 -0.5236 -0.2870
  213MOL0     C28685   0.177   2.140   6.940  1.0202  0.3816  0.1180
  213MOL0     C28686   0.327   2.831   7.180 -0.0296  0.5184 -0.7390
  213MOL0     C28687   0.373   2.891   7.296 -1.0709  0.3003  0.2151
  213MOL0     H28688   0.639   3.239   7.541 -0.5842  0.4936  0.2456
  213MOL0     H28689   0.674   3.359   7.740  0.9835 -1.1038  3.9087
  213MOL0     H28690   0.346   3.331   8.069 -1.5590 -1.8805  3.3253
  213MOL0     H28691   0.484   3.223   8.118  2.1484 -0.1687 -0.2372
  213MOL0     H28692   0.448   3.395   8.281 -0.4234  0.4886 -1.6481
  213MOL0     H28693   0.606   3.422   8.213 -0.0314 -0.9665  0.3030
  213MOL0     H28694   0.481   3.615   8.245  1.4296 -2.1262  0.9069
  213MOL0     H28695   0.505   3.600   8.074  1.1296  0.6050  2.0855
  213MOL0     H28696   0.296   3.688   8.120  2.4752  0.1892  1.0900
  213MOL0     H28697   0.283   3.522   8.037  2.4402 -0.6126 -0.3864
  213MOL0     H28698   0.222   3.437   8.278 -2.2628 -0.1328  2.5351
  213MOL0     H28699   0.242   3.603   8.342 -3.3191  3.3890 -0.6599
  213MOL0     H28700   0.024   3.524   8.151 -1.5971  0.6301  0.7020
  213MOL0     H28701   0.008   3.533   8.314  0.1832  2.1649  0.0817
  213MOL0     H28702   0.073   3.760   8.120 -0.8075 -2.2000 -2.3016
  213MOL0     H28703  -0.079   3.738   8.196  0.5634 -0.7080  0.0332
  213MOL0     H28704   0.006   3.912   8.289  1.2836  0.0569 -0.1784
  213MOL0     H28705   0.167   3.836   8.330 -0.3826  0.9770  3.7402
  213MOL0     H28706  -0.197   3.795   8.414  3.8869 -1.4515 -3.7498
  213MOL0     H28707  -0.228   3.806   8.781  0.9792 -2.2393  1.3772
  213MOL0     H28708  -0.323   3.767   8.624  0.4666  1.0409 -0.7856
  213MOL0     H28709  -0.231   3.572   8.834  0.8041 -1.4883 -1.6505
  213MOL0     H28710  -0.267   3.525   8.674 -2.6762 -0.3968 -0.6840
  213MOL0     H28711  -0.508   3.632   8.720  2.2425  0.7359 -1.0108
  213MOL0     H28712  -0.442   3.697   8.867 -2.9328 -0.9224  1.7290
  213MOL0     H28713  -0.399   3.471   8.960 -1.2933  2.8320  1.1468
  213MOL0     H28714  -0.445   3.399   8.809  2.8863  2.2598 -3.7555
  213MOL0     H28715  -0.816   3.562   9.025 -1.5580 -0.6296  2.5177
  213MOL0     H28716  -1.093   3.394   9.139 -1.4894  2.6260  0.2633
  213MOL0     H28717  -0.999   3.465   9.267  0.0032  0.1803 -0.2535
  213MOL0     H28718  -1.018   3.558   9.129  0.5320 -0.0047 -1.6725
  213MOL0     H28719  -0.692   2.874   9.393  2.4825  0.0456 -0.2254
  213MOL0     H28720  -0.549   2.949   9.592  2.3541  3.3444  0.3321
  213MOL0     H28721  -0.388   3.085   9.660 -1.0967 -0.2903  2.0492
  213MOL0     H28722  -0.441   3.246   9.617  0.6348 -0.1211 -0.2205
  213MOL0     H28723  -0.469   3.303   9.862 -0.5144  0.3090 -1.5047
  213MOL0     H28724  -0.350   3.168   9.886 -0.0151  0.3734  1.0625
  213MOL0     H28725  -0.274   3.388   9.691  0.5426  1.1046  1.1336
  213MOL0     H28726  -0.175   3.269   9.774  1.8104  1.9951  2.5033
  213MOL0     H28727  -0.316   3.498   9.913  0.2215  0.7529 -1.1269
  213MOL0     H28728  -0.209   3.371   9.990  2.6727 -0.5414 -1.2316
  213MOL0     H28729  -0.134   3.566   9.760 -2.7781 -1.1479 -0.9532
  213MOL0     H28730  -0.026   3.447   9.838 -0.1590 -0.2532  2.1280
  213MOL0     H28731  -0.024   3.552  10.054  4.0247 -1.0051 -1.5519
  213MOL0     H28732   0.050   3.633   9.916 -0.1086  0.1326 -1.1720
  213MOL0     H28733  -0.108   3.763  10.093  0.0488  1.9132 -1.0495
  213MOL0     H28734  -0.251   3.702  10.019  0.2513  0.2746  1.3219
  213MOL0     H28735  -0.219   3.889   9.903 -1.0626 -1.7868  2.4277
  213MOL0     H28736  -0.145   3.768   9.800  2.2057  3.6908 -2.3669
  213MOL0     H28737  -0.770   3.297   9.651 -2.0038 -1.0756  0.3052
  213MOL0     H28738  -0.893   3.269   9.444 -0.4118  0.7618  1.0153
  213MOL0     H28739  -0.671   3.105   9.106  1.3208  0.6686  2.3554
  213MOL0     H28740  -0.557   3.230   8.956  1.0988  0.8569  4.2869
  213MOL0     H28741   0.322   3.190   7.915  0.0784  2.9697  1.4043
  213MOL0     H28742   0.296   3.056   7.721 -2.5539  3.5057  1.5391
  213MOL0     H28743   0.701   2.918   7.221 -0.1171  1.4829 -0.2357
  213MOL0     H28744   0.631   2.796   7.032 -0.7244  1.9724 -0.5296
  213MOL0     H28745   0.401   2.529   6.880  2.2064  2.8730 -1.4987
  213MOL0     H28746   0.535   2.577   6.967 -0.0978 -2.9180 -3.6343
  213MOL0     H28747   0.436   2.461   7.164  0.1242 -0.2970 -0.1304
  213MOL0     H28748   0.411   2.353   7.023  1.5417  0.3072 -0.5179
  213MOL0     H28749   0.195   2.561   7.099 -0.7788  0.0279 -0.5979
  213MOL0     H28750   0.202   2.413   7.196  0.2703 -0.5146 -0.8602
  213MOL0     H28751   0.177   2.441   6.896  1.1445  0.3492 -0.0468
  213MOL0     H28752   0.047   2.431   7.011  0.8358  2.3563  0.5119
  213MOL0     H28753   0.209   2.040   6.915  0.7138  0.5499 -0.9865
  213MOL0     H28754   0.219   2.833   7.168 -0.3122  2.5324  1.3290
  213MOL0     H28755   0.300   2.920   7.370 -0.4986  0.9908  0.5254
  214MOL0     O28756  10.516   3.522   6.479 -0.8024  0.4081  0.3735
  214MOL0     C28757  10.566   3.451   6.567 -0.6771  0.1876 -0.2711
  214MOL0     O28758  10.507   3.343   6.622  0.4032 -0.1347 -0.2436
  214MOL0     C28759  10.384   3.291   6.575  0.2441 -0.2102  0.2387
  214MOL0     C28760  10.370   3.156   6.598  0.2921  0.0736  0.8380
  214MOL0     C28761  10.257   3.082   6.553  0.0966 -0.2877  0.1444
  214MOL0     C28762  10.141   3.151   6.504  0.1784 -0.8342  0.7349
  214MOL0     O28763  10.021   3.083   6.499  0.1084 -0.2393  0.2534
  214MOL0     C28764   9.909   3.168   6.542  0.1611 -0.1458  0.6615
  214MOL0     C28765   9.789   3.091   6.596  0.3706 -0.1261  0.5494
  214MOL0     C28766   9.725   3.017   6.483  0.1443 -0.6542 -0.2210
  214MOL0     C28767   9.606   2.931   6.528  0.5273  0.3307  0.4932
  214MOL0     C28768   9.519   2.874   6.412 -0.2391  0.6154 -0.3978
  214MOL0     C28769   9.458   2.987   6.334 -0.5567 -0.3803  0.6498
  214MOL0     C28770   9.382   3.091   6.412  0.1108  0.0449  0.2385
  214MOL0     C28771   9.321   3.203   6.331  0.0697 -0.1950  1.0512
  214MOL0     N28772   9.195   3.169   6.255  0.4560 -0.2511 -0.5384
  214MOL0     C28773   9.182   3.165   6.117 -0.1370  0.4870 -0.0023
  214MOL0     C28774   9.057   3.120   6.098 -0.0231 -0.2421  0.4175
  214MOL0     C28775   8.980   3.113   5.968 -0.1719  0.3745  0.4511
  214MOL0     C28776   8.838   3.177   5.973  0.0665  0.2073 -0.5116
  214MOL0     C28777   8.786   3.221   5.834 -0.6103 -0.0179 -0.2017
  214MOL0     C28778   8.637   3.209   5.797 -0.0212 -0.0606  0.1538
  214MOL0     O28779   8.599   3.263   5.673  1.0160  0.1023 -0.2294
  214MOL0     C28780   8.467   3.290   5.646 -0.1332 -0.1737 -0.1342
  214MOL0     C28781   8.363   3.228   5.712  0.0155 -0.7714  0.6463
  214MOL0     C28782   8.230   3.236   5.670 -0.0065 -0.7970  0.9975
  214MOL0     C28783   8.132   3.157   5.746  0.0918 -0.2770  0.0844
  214MOL0     C28784   8.198   3.321   5.558  0.4416  0.1498 -0.2626
  214MOL0     C28785   8.067   3.347   5.507  1.3327 -1.0478  0.3868
  214MOL0     O28786   7.965   3.257   5.534  0.7200 -0.1007  0.1558
  214MOL0     C28787   7.844   3.264   5.466 -1.1825  0.1271 -0.4828
  214MOL0     C28788   7.821   3.307   5.339 -0.4422 -0.2859  0.2009
  214MOL0     C28789   7.686   3.297   5.285 -0.3440  0.1596  0.4171
  214MOL0     C28790   7.583   3.240   5.360 -0.2557  0.0103 -0.1562
  214MOL0     O28791   7.458   3.214   5.313 -0.9462 -0.3909  0.4312
  214MOL0     C28792   7.417   3.238   5.175 -0.3441  0.0700  0.3329
  214MOL0     C28793   7.377   3.384   5.161 -0.4788  0.0028 -0.0382
  214MOL0     C28794   7.304   3.416   5.030 -0.8304 -0.1424 -0.2811
  214MOL0     C28795   7.290   3.569   4.989 -0.5556 -0.2121 -0.1185
  214MOL0     C28796   7.412   3.639   4.949  0.2083 -0.4928  0.4855
  214MOL0     C28797   7.406   3.785   4.924  0.3694 -0.1876 -0.2365
  214MOL0     C28798   7.326   3.863   5.035  0.2155  0.1264 -0.3463
  214MOL0     C28799   7.391   3.846   5.170  0.3823 -0.9698  0.1356
  214MOL0    Cl28800   7.561   3.896   5.178  0.3651 -0.1496 -0.3475
  214MOL0     C28801   7.604   3.213   5.492 -0.0118  0.1398 -0.3942
  214MOL0     C28802   7.735   3.231   5.546  0.6440  0.6728 -0.1540
  214MOL0     O28803   8.052   3.456   5.459 -0.3042 -0.0186 -0.0159
  214MOL0     C28804   8.300   3.385   5.487  0.3632  0.9197  0.4841
  214MOL0     C28805   8.439   3.373   5.538  1.6385 -0.6092  0.9721
  214MOL0     N28806   8.998   3.089   6.215 -1.7666 -0.1033  0.5045
  214MOL0     N28807   9.081   3.119   6.313 -0.0482  0.2181 -0.2504
  214MOL0     C28808  10.149   3.290   6.477 -0.2001  0.6447 -0.2548
  214MOL0     C28809  10.265   3.354   6.527 -0.3405 -0.9679 -0.6550
  214MOL0     C28810  10.695   3.489   6.614  0.7835 -0.5711 -0.2429
  214MOL0     C28811  10.783   3.563   6.537  0.3919 -0.1371 -0.2830
  214MOL0     C28812  10.909   3.604   6.581 -1.3673 -0.4652  0.1005
  214MOL0     C28813  10.955   3.578   6.714 -1.0794 -0.3041  0.0602
  214MOL0     O28814  11.068   3.628   6.765 -0.1199 -0.0717 -0.1564
  214MOL0     C28815  11.151   3.722   6.695  0.3008 -1.0034  0.7639
  214MOL0     C28816  11.280   3.728   6.772 -0.9040  0.3597  0.6316
  214MOL0     C28817  11.399   3.775   6.678 -0.5264 -0.1916  0.7066
  214MOL0     C28818  11.398   3.914   6.630 -0.6780 -0.0023 -0.0546
  214MOL0     C28819  11.386   3.999   6.742 -0.5544 -1.2380  0.4643
  214MOL0     C28820  11.380   4.082   6.837  1.0786 -0.5507 -0.1009
  214MOL0     C28821  10.872   3.499   6.792  0.3263 -0.1667  0.4662
  214MOL0     C28822  10.740   3.458   6.745 -0.4920  0.0379  0.2537
  214MOL0     H28823  10.447   3.106   6.655 -0.9342 -1.6523  1.0499
  214MOL0     H28824  10.251   2.976   6.573  0.3779 -0.3703 -0.2002
  214MOL0     H28825   9.936   3.246   6.614 -0.9695  1.4526 -0.6075
  214MOL0     H28826   9.873   3.214   6.451  2.1155  0.3803  0.0955
  214MOL0     H28827   9.818   3.028   6.680  1.5161 -0.0487  0.2261
  214MOL0     H28828   9.717   3.160   6.642  2.3596  1.9359  0.7654
  214MOL0     H28829   9.690   3.094   6.414 -0.8576  1.8812  2.8882
  214MOL0     H28830   9.794   2.952   6.428  1.6224  0.6643  0.0268
  214MOL0     H28831   9.663   2.852   6.576 -1.3128 -1.9201 -0.8208
  214MOL0     H28832   9.546   2.984   6.602 -2.5885  0.2437 -1.7709
  214MOL0     H28833   9.593   2.834   6.343 -2.3264  0.6440 -2.8116
  214MOL0     H28834   9.445   2.799   6.440  0.6200 -0.3574 -0.7041
  214MOL0     H28835   9.537   3.034   6.274 -1.4198 -0.6083 -0.7099
  214MOL0     H28836   9.387   2.952   6.258  2.2719  3.0123 -4.0894
  214MOL0     H28837   9.295   3.049   6.463 -2.5353  0.4546 -3.5575
  214MOL0     H28838   9.446   3.145   6.483 -0.0005  0.6463 -0.1166
  214MOL0     H28839   9.406   3.253   6.284  0.1676 -1.2374  0.0826
  214MOL0     H28840   9.290   3.278   6.405  0.7303  1.0664  0.1025
  214MOL0     H28841   9.249   3.184   6.034 -1.0190 -1.8677 -1.3658
  214MOL0     H28842   9.044   3.156   5.890 -0.1003  0.5930  0.6278
  214MOL0     H28843   8.967   3.006   5.949 -1.0230  0.1377  2.1897
  214MOL0     H28844   8.850   3.269   6.030  1.7428 -1.9478  2.9225
  214MOL0     H28845   8.775   3.096   6.010 -1.0157 -0.6079 -3.7439
  214MOL0     H28846   8.840   3.155   5.765  0.4442 -1.8158  2.2126
  214MOL0     H28847   8.816   3.323   5.807 -2.0490  0.0454 -1.7323
  214MOL0     H28848   8.580   3.268   5.869  0.4591  0.0179  0.4689
  214MOL0     H28849   8.609   3.103   5.795  1.0793 -0.3840  1.0636
  214MOL0     H28850   8.374   3.155   5.791  1.9212 -1.8208 -0.5247
  214MOL0     H28851   8.170   3.096   5.828 -0.4031 -0.4721  0.1759
  214MOL0     H28852   8.057   3.224   5.790 -0.9364 -2.7981  2.5311
  214MOL0     H28853   8.082   3.087   5.678  0.3100  1.3455 -1.8565
  214MOL0     H28854   7.899   3.346   5.274 -0.4072  1.2415  1.0945
  214MOL0     H28855   7.675   3.326   5.181  0.7042  2.9458  0.9929
  214MOL0     H28856   7.492   3.224   5.097  0.1280  0.2506  0.7555
  214MOL0     H28857   7.336   3.171   5.142  0.0703 -0.8778  1.2026
  214MOL0     H28858   7.309   3.404   5.245  1.2960  0.7279  1.2977
  214MOL0     H28859   7.470   3.437   5.186  0.7893 -1.9557 -0.4210
  214MOL0     H28860   7.204   3.371   5.028 -0.3670 -1.1992 -0.7533
  214MOL0     H28861   7.355   3.365   4.948  0.4478  1.3346 -0.4431
  214MOL0     H28862   7.211   3.579   4.914 -0.7180  0.5061  0.1396
  214MOL0     H28863   7.259   3.619   5.081  0.2025  0.9221 -0.4678
  214MOL0     H28864   7.460   3.605   4.856 -1.4213  0.8192 -0.9129
  214MOL0     H28865   7.490   3.606   5.017  1.7747  0.2843 -0.8394
  214MOL0     H28866   7.508   3.822   4.924  0.2720  0.0804 -1.1411
  214MOL0     H28867   7.343   3.798   4.836 -1.6517 -1.8472  0.8612
  214MOL0     H28868   7.222   3.831   5.040 -0.0687  1.0262 -0.3239
  214MOL0     H28869   7.336   3.966   5.000 -2.1813 -0.4375 -3.0346
  214MOL0     H28870   7.394   3.739   5.189  0.9421 -0.6562  1.9527
  214MOL0     H28871   7.328   3.892   5.246 -0.1297  0.3522 -1.0360
  214MOL0     H28872   7.519   3.202   5.557  0.6753  1.0389  0.7002
  214MOL0     H28873   7.758   3.200   5.647  1.4979 -2.4265 -1.1929
  214MOL0     H28874   8.279   3.449   5.401  1.6657  0.0710 -0.5099
  214MOL0     H28875   8.508   3.436   5.483  0.4582 -0.4559 -0.3833
  214MOL0     H28876  10.071   3.353   6.435 -0.3762 -0.4800 -1.6850
  214MOL0     H28877  10.256   3.462   6.531 -1.0982 -0.9670 -2.0402
  214MOL0     H28878  10.744   3.594   6.441 -2.2762  0.8676  1.0164
  214MOL0     H28879  10.976   3.659   6.514  0.1175 -0.4550  1.5375
  214MOL0     H28880  11.174   3.697   6.591 -4.2297  1.0300 -0.9826
  214MOL0     H28881  11.102   3.819   6.695 -0.3116 -1.3119  0.0282
  214MOL0     H28882  11.314   3.634   6.815  0.4955 -0.4202 -1.9864
  214MOL0     H28883  11.278   3.793   6.860 -2.1644  0.4106  0.5931
  214MOL0     H28884  11.402   3.704   6.595  0.9763  1.0106 -0.3273
  214MOL0     H28885  11.492   3.757   6.733  0.1267 -3.4419 -1.2247
  214MOL0     H28886  11.319   3.930   6.556 -0.8821 -3.2836 -0.6621
  214MOL0     H28887  11.491   3.926   6.572  0.4682  0.1365  1.7492
  214MOL0     H28888  11.373   4.158   6.912  0.4953 -1.5044  0.8508
  214MOL0     H28889  10.896   3.484   6.897  0.2525  0.0724  0.5180
  214MOL0     H28890  10.676   3.397   6.809  0.3466 -1.3205 -0.1686
  215MOL0     O28891   5.910  11.447   4.010 -0.3093  0.0268  0.7245
  215MOL0     C28892   6.012  11.378   3.984  0.7185  0.2529  0.0947
  215MOL0     O28893   6.012  11.239   3.971  0.8700 -0.0313 -0.6177
  215MOL0     C28894   5.892  11.171   3.978  0.2176  0.1754 -0.4000
  215MOL0     C28895   5.804  11.155   4.089  0.2521  0.2172  0.0165
  215MOL0     C28896   5.693  11.079   4.073  0.9411  0.3038  0.2668
  215MOL0     C28897   5.659  11.017   3.954  0.4686  0.1740  0.4929
  215MOL0     O28898   5.539  10.942   3.954 -0.6522 -1.0292  0.3388
  215MOL0     C28899   5.410  11.012   3.971 -0.7106 -0.0066  0.3352
  215MOL0     C28900   5.323  10.912   4.041 -0.3885 -0.4440 -0.4742
  215MOL0     C28901   5.177  10.953   4.035  0.0422 -0.1965  0.3189
  215MOL0     C28902   5.081  10.835   4.083  0.3217  0.1060  0.4100
  215MOL0     C28903   4.944  10.893   4.109  1.1267 -0.6262  0.9946
  215MOL0     C28904   4.840  10.780   4.122  0.5102  0.4958 -0.1586
  215MOL0     C28905   4.705  10.859   4.148 -0.2154  0.4530  0.0151
  215MOL0     C28906   4.594  10.762   4.164 -0.2114  0.1975  0.2667
  215MOL0     N28907   4.557  10.727   4.303  0.6529 -0.4797  0.5319
  215MOL0     C28908   4.445  10.786   4.365  1.5157 -0.1036 -0.2559
  215MOL0     C28909   4.474  10.764   4.496 -0.0462 -0.6673  0.1388
  215MOL0     C28910   4.382  10.814   4.607  0.3895 -0.3057  0.1772
  215MOL0     C28911   4.262  10.723   4.615 -0.7330 -0.4126  0.2319
  215MOL0     C28912   4.223  10.717   4.759  0.7457 -0.4271  0.3882
  215MOL0     C28913   4.092  10.648   4.775 -0.8304 -0.2600 -0.0151
  215MOL0     O28914   4.051  10.678   4.909  0.4672  0.8478 -0.1665
  215MOL0     C28915   3.924  10.638   4.956  0.5770 -0.6541  0.3019
  215MOL0     C28916   3.886  10.683   5.090  0.9176  0.7786  0.7856
  215MOL0     C28917   3.756  10.650   5.137 -0.4215  0.2915 -0.5947
  215MOL0     C28918   3.728  10.708   5.272 -0.2426 -0.2246  0.7088
  215MOL0     C28919   3.669  10.548   5.078 -0.2704  0.1520  0.0225
  215MOL0     C28920   3.525  10.516   5.114  0.4896 -1.4257 -0.4507
  215MOL0     O28921   3.468  10.611   5.194 -0.4271 -0.2092  0.5668
  215MOL0     C28922   3.331  10.618   5.188 -0.4572  0.7627 -0.1585
  215MOL0     C28923   3.243  10.532   5.262 -0.8137 -0.0998 -0.2719
  215MOL0     C28924   3.108  10.568   5.283 -0.5009 -0.3374  0.6013
  215MOL0     C28925   3.054  10.695   5.240  0.3085  0.2940  0.8545
  215MOL0     O28926   2.921  10.732   5.250  0.8174 -0.2746 -0.0743
  215MOL0     C28927   2.809  10.648   5.285 -1.4924  0.9203  1.4079
  215MOL0     C28928   2.674  10.718   5.296  0.6240 -0.4953  0.5812
  215MOL0     C28929   2.672  10.837   5.396 -0.1254 -1.0674  0.0943
  215MOL0     C28930   2.642  10.782   5.539  0.3455 -0.1287 -0.3162
  215MOL0     C28931   2.582  10.898   5.623  0.0999  0.2236  0.7972
  215MOL0     C28932   2.625  10.885   5.774  0.7181 -0.3491 -0.4754
  215MOL0     C28933   2.620  11.023   5.856  0.2039 -0.5473 -0.9360
  215MOL0     C28934   2.587  10.995   6.006  0.7082  0.6150  1.1352
  215MOL0    Cl28935   2.410  10.948   6.009 -0.2480 -0.0826 -0.1143
  215MOL0     C28936   3.141  10.774   5.167 -0.0859  0.3495  0.8315
  215MOL0     C28937   3.276  10.743   5.153  0.4858 -0.0209 -0.0224
  215MOL0     O28938   3.464  10.430   5.054  0.6507  0.5350 -0.8138
  215MOL0     C28939   3.718  10.496   4.957 -0.5096 -0.1011 -0.8122
  215MOL0     C28940   3.839  10.543   4.892  0.0059 -0.1417  0.2587
  215MOL0     N28941   4.584  10.692   4.512  0.0422 -0.4038 -0.1419
  215MOL0     N28942   4.636  10.684   4.400  0.5018  0.8415 -0.2157
  215MOL0     C28943   5.744  11.025   3.843  0.4715  0.3417 -1.1366
  215MOL0     C28944   5.857  11.107   3.854 -1.2120  0.9123  0.6640
  215MOL0     C28945   6.150  11.438   3.989  0.3718  0.3499  1.4274
  215MOL0     C28946   6.252  11.357   3.954  0.2775  0.3679  1.8111
  215MOL0     C28947   6.382  11.406   3.954 -0.2833 -0.6208 -0.0173
  215MOL0     C28948   6.409  11.541   3.977 -0.2312  0.0707  0.1401
  215MOL0     O28949   6.539  11.562   4.002 -0.0385  0.8306  0.1487
  215MOL0     C28950   6.602  11.647   3.911 -0.3600 -0.3371  0.2831
  215MOL0     C28951   6.746  11.637   3.964  0.1127 -0.5011  0.9233
  215MOL0     C28952   6.851  11.689   3.861  0.3830 -1.2128  0.8577
  215MOL0     C28953   6.880  11.836   3.869 -0.0655  0.2595  0.1781
  215MOL0     C28954   6.967  11.879   3.764 -0.5666  0.5098  0.7553
  215MOL0     C28955   7.047  11.925   3.688  0.0225  0.2989 -0.1947
  215MOL0     C28956   6.298  11.626   4.013 -1.3230 -0.2039 -0.0154
  215MOL0     C28957   6.169  11.579   4.018  0.6724 -0.1313  0.5410
  215MOL0     H28958   5.825  11.214   4.178  1.5981 -0.8778  0.4684
  215MOL0     H28959   5.617  11.072   4.150  1.6479  1.7193  1.1336
  215MOL0     H28960   5.425  11.097   4.038  0.6501 -1.6883  2.3029
  215MOL0     H28961   5.374  11.054   3.877  0.8463 -1.5809 -1.0222
  215MOL0     H28962   5.344  10.821   3.984  0.7807  0.2959 -1.2822
  215MOL0     H28963   5.354  10.903   4.145 -0.8735  0.9110 -0.1895
  215MOL0     H28964   5.153  11.047   4.085 -4.9392 -0.1918 -1.5708
  215MOL0     H28965   5.150  10.974   3.932 -0.4121 -3.0146 -0.2303
  215MOL0     H28966   5.078  10.779   3.990  0.1577  4.0079 -2.1711
  215MOL0     H28967   5.120  10.778   4.169 -2.4594  1.8502  3.0303
  215MOL0     H28968   4.944  10.963   4.193  0.8657  0.2937  0.2499
  215MOL0     H28969   4.906  10.946   4.022 -1.0302  0.0515  2.2789
  215MOL0     H28970   4.848  10.713   4.037  0.2083  0.4210 -0.1317
  215MOL0     H28971   4.852  10.718   4.211 -1.6836  0.6465  0.3234
  215MOL0     H28972   4.724  10.913   4.241  3.6842 -2.2820  1.0278
  215MOL0     H28973   4.683  10.930   4.067 -0.3802  0.8702  0.4194
  215MOL0     H28974   4.620  10.669   4.113  3.7191  0.5386  1.3407
  215MOL0     H28975   4.505  10.797   4.111 -2.4283 -1.6578  2.5077
  215MOL0     H28976   4.353  10.829   4.327  1.8577  2.6831  1.7824
  215MOL0     H28977   4.435  10.813   4.703 -0.3961 -1.6709  0.6236
  215MOL0     H28978   4.343  10.915   4.592 -0.0454  0.4562  4.8214
  215MOL0     H28979   4.287  10.620   4.588  1.7560  0.6658 -1.9969
  215MOL0     H28980   4.194  10.759   4.538 -0.2208  2.4194  0.9954
  215MOL0     H28981   4.209  10.817   4.802 -0.3056 -1.0562  1.5883
  215MOL0     H28982   4.297  10.675   4.827  2.4474  2.1581  0.2930
  215MOL0     H28983   4.103  10.539   4.772 -4.5821 -0.7724 -3.1630
  215MOL0     H28984   4.020  10.673   4.697 -0.0348 -1.8480 -1.3261
  215MOL0     H28985   3.940  10.763   5.140  0.3527  0.1805  2.4063
  215MOL0     H28986   3.816  10.764   5.307  0.3442  0.9822 -2.3734
  215MOL0     H28987   3.641  10.774   5.263 -0.1551 -0.2355 -0.3604
  215MOL0     H28988   3.696  10.628   5.339 -0.0899 -1.6963 -0.8982
  215MOL0     H28989   3.287  10.437   5.286 -0.3870 -0.8472 -3.4831
  215MOL0     H28990   3.049  10.501   5.345 -1.9028 -0.6191 -0.9666
  215MOL0     H28991   2.795  10.564   5.217  0.7745 -0.4912  2.5711
  215MOL0     H28992   2.836  10.591   5.375 -1.4274 -2.4521 -0.5847
  215MOL0     H28993   2.660  10.763   5.198  0.8771 -0.0053  0.7665
  215MOL0     H28994   2.591  10.648   5.312  0.8196 -1.6199 -2.6643
  215MOL0     H28995   2.604  10.917   5.366  0.3570  0.3588  2.5435
  215MOL0     H28996   2.770  10.884   5.404 -0.9707  0.5848  1.6137
  215MOL0     H28997   2.566  10.703   5.540  0.0592  0.1519  0.4780
  215MOL0     H28998   2.735  10.748   5.585  0.1200  3.3821  3.2477
  215MOL0     H28999   2.474  10.902   5.609  0.2914 -1.1928 -1.6448
  215MOL0     H29000   2.618  10.995   5.587  1.2853 -0.7269 -0.6944
  215MOL0     H29001   2.559  10.806   5.809 -1.1755  0.5968 -1.7775
  215MOL0     H29002   2.728  10.850   5.785  0.0913 -2.0597  0.2568
  215MOL0     H29003   2.531  11.076   5.820  0.2786  0.5535  0.4390
  215MOL0     H29004   2.713  11.081   5.856 -0.0956  0.0641  2.0557
  215MOL0     H29005   2.568  11.093   6.052 -1.0351  2.0016 -2.2382
  215MOL0     H29006   2.660  10.932   6.058  0.3703 -0.4102  0.3949
  215MOL0     H29007   3.103  10.869   5.129  1.2180  0.2374 -0.8776
  215MOL0     H29008   3.343  10.822   5.120  2.0798 -1.3449 -0.1071
  215MOL0     H29009   3.662  10.411   4.921 -1.5758 -1.3806  3.3971
  215MOL0     H29010   3.859  10.484   4.802  1.3888  2.1940 -1.0631
  215MOL0     H29011   5.710  10.993   3.745 -0.3599 -1.6143 -0.2427
  215MOL0     H29012   5.922  11.122   3.768 -3.3165  0.4053 -1.1290
  215MOL0     H29013   6.236  11.258   3.912  0.6370  1.7502 -2.0566
  215MOL0     H29014   6.463  11.333   3.950 -0.1661 -0.8313  3.2446
  215MOL0     H29015   6.588  11.604   3.811  2.5570 -1.5043  0.2981
  215MOL0     H29016   6.560  11.747   3.924  1.0394 -0.1174  4.5790
  215MOL0     H29017   6.777  11.532   3.976  0.6539 -0.6458 -1.3668
  215MOL0     H29018   6.754  11.684   4.063  1.0632 -1.0905  1.1414
  215MOL0     H29019   6.828  11.667   3.756 -0.2959 -1.2174  1.0061
  215MOL0     H29020   6.953  11.653   3.875  0.5671 -1.2925 -0.5697
  215MOL0     H29021   6.941  11.854   3.957  0.1955  1.4859 -0.2228
  215MOL0     H29022   6.794  11.904   3.875  0.1388  0.5029  0.3519
  215MOL0     H29023   7.124  11.977   3.634 -0.6014 -0.1672 -1.5985
  215MOL0     H29024   6.310  11.729   4.045  0.0848 -0.5444  0.5978
  215MOL0     H29025   6.081  11.641   4.036 -1.1289 -1.5503 -2.4604
  216MOL0     O29026   2.711   4.398   3.707 -0.1348 -0.4129 -0.8531
  216MOL0     C29027   2.802   4.310   3.705 -0.6637  0.0988 -0.6401
  216MOL0     O29028   2.792   4.178   3.713 -0.3033 -0.1987 -0.0655
  216MOL0     C29029   2.658   4.127   3.733  0.2890  0.0319  0.3782
  216MOL0     C29030   2.622   4.070   3.852 -0.0239 -0.4829 -1.0724
  216MOL0     C29031   2.489   4.040   3.887  0.2513  0.7076  0.0293
  216MOL0     C29032   2.387   4.060   3.788  0.6485  0.4270 -0.2763
  216MOL0     O29033   2.254   4.034   3.817  0.6403 -0.2734  0.7586
  216MOL0     C29034   2.208   4.039   3.953  0.5645 -0.0619 -0.0556
  216MOL0     C29035   2.064   4.071   3.955 -0.3559  0.2652 -0.3033
  216MOL0     C29036   1.972   3.945   3.947 -0.0217  0.7347  0.4873
  216MOL0     C29037   1.827   3.983   3.920 -0.6266 -0.0086  0.0364
  216MOL0     C29038   1.772   4.066   4.035  0.9450 -0.0596 -0.7865
  216MOL0     C29039   1.626   4.102   4.038 -0.7223  0.4146 -0.1082
  216MOL0     C29040   1.590   4.152   3.894 -0.8246  0.1935 -0.2366
  216MOL0     C29041   1.447   4.224   3.894 -0.2788  0.0187 -0.1638
  216MOL0     N29042   1.330   4.132   3.916 -0.7380  0.1368  1.6893
  216MOL0     C29043   1.283   4.033   3.835  0.4720 -0.5057 -0.1426
  216MOL0     C29044   1.182   3.978   3.900  0.3099 -0.2776  0.1653
  216MOL0     C29045   1.100   3.857   3.856  0.5258 -0.4850 -0.5979
  216MOL0     C29046   1.157   3.729   3.917  0.3238 -0.5534 -0.4669
  216MOL0     C29047   1.133   3.728   4.065 -0.5434 -0.1966 -0.6875
  216MOL0     C29048   1.179   3.589   4.121 -0.1815  0.7879 -0.5562
  216MOL0     O29049   1.173   3.612   4.263 -0.8314  0.0659  0.2502
  216MOL0     C29050   1.224   3.518   4.348  0.4517 -0.8012  0.3514
  216MOL0     C29051   1.246   3.566   4.477 -0.4316  0.2961  0.2995
  216MOL0     C29052   1.316   3.489   4.570  0.0429  1.2667  0.9328
  216MOL0     C29053   1.354   3.556   4.698  0.3060  0.3977  0.4191
  216MOL0     C29054   1.368   3.354   4.532  0.3087  0.2619  0.4632
  216MOL0     C29055   1.455   3.268   4.610 -0.2140  0.3809  0.1749
  216MOL0     O29056   1.446   3.277   4.752 -0.4961 -0.9851 -0.2083
  216MOL0     C29057   1.528   3.212   4.837 -0.8707 -0.1218  0.0034
  216MOL0     C29058   1.487   3.191   4.968 -0.5417 -0.7511 -0.2119
  216MOL0     C29059   1.568   3.130   5.065  0.3208 -0.7946  0.5749
  216MOL0     C29060   1.697   3.080   5.033 -0.3834  0.6399 -0.2157
  216MOL0     O29061   1.767   3.013   5.130 -0.5247 -1.1459  0.2215
  216MOL0     C29062   1.896   2.953   5.096  0.8333  0.3953 -0.1990
  216MOL0     C29063   1.959   2.912   5.227 -0.2193 -0.5130  0.3486
  216MOL0     C29064   2.038   3.022   5.301  0.2744  0.3816  0.3277
  216MOL0     C29065   2.180   3.038   5.249 -0.0205  1.8009  0.6113
  216MOL0     C29066   2.237   3.163   5.317 -0.0329 -0.0426 -0.8423
  216MOL0     C29067   2.395   3.168   5.305  0.1375 -1.1366  0.1767
  216MOL0     C29068   2.432   3.308   5.349 -0.3079  0.0451  0.1501
  216MOL0     C29069   2.587   3.328   5.347  0.6625 -0.2556  0.4272
  216MOL0    Cl29070   2.651   3.325   5.520  0.5008  0.0691  0.0393
  216MOL0     C29071   1.744   3.104   4.903 -0.3704 -0.2555 -0.5564
  216MOL0     C29072   1.662   3.173   4.803  0.0093 -1.4614  0.7964
  216MOL0     O29073   1.524   3.185   4.550 -0.1025 -0.3055 -0.3997
  216MOL0     C29074   1.330   3.306   4.402 -0.1518 -0.6113  0.6772
  216MOL0     C29075   1.260   3.388   4.311 -0.0675  0.7755  0.0807
  216MOL0     N29076   1.154   4.055   4.009 -1.2169  0.3831  0.3516
  216MOL0     N29077   1.251   4.138   4.025 -0.4434 -0.2811 -0.7173
  216MOL0     C29078   2.427   4.100   3.663 -0.9881  0.4184  0.0477
  216MOL0     C29079   2.558   4.143   3.637  0.4345 -0.1493 -0.3073
  216MOL0     C29080   2.943   4.355   3.686 -0.1642  0.1225 -0.2976
  216MOL0     C29081   2.968   4.474   3.628  0.0735  0.4267  0.9754
  216MOL0     C29082   3.096   4.528   3.605  0.7058  0.8878 -0.4802
  216MOL0     C29083   3.203   4.452   3.648 -0.6271 -0.0530  0.6272
  216MOL0     O29084   3.328   4.510   3.637  1.0422 -0.6244  0.1395
  216MOL0     C29085   3.447   4.437   3.669  0.2851 -0.2822  0.3933
  216MOL0     C29086   3.560   4.540   3.639  0.6646 -0.5098 -0.6962
  216MOL0     C29087   3.694   4.466   3.661  0.0710 -0.5978  0.8181
  216MOL0     C29088   3.743   4.373   3.547 -0.2557 -0.1773 -0.8110
  216MOL0     C29089   3.711   4.236   3.581 -0.2039  1.1672 -0.6021
  216MOL0     C29090   3.669   4.123   3.607  0.6621 -0.0103 -0.9171
  216MOL0     C29091   3.186   4.332   3.718  0.0199  0.6376  0.7241
  216MOL0     C29092   3.056   4.289   3.736  0.6755 -0.4424 -0.0309
  216MOL0     H29093   2.699   4.048   3.925  0.9147  1.4671 -1.3893
  216MOL0     H29094   2.467   3.985   3.977  1.4912  0.3400  0.1300
  216MOL0     H29095   2.236   3.945   4.001  5.1004 -1.0627 -3.9534
  216MOL0     H29096   2.262   4.122   3.999  0.9875 -1.0151  1.2315
  216MOL0     H29097   2.040   4.119   4.050 -0.6102 -0.0661 -0.1960
  216MOL0     H29098   2.040   4.142   3.876 -0.8704 -0.5087 -0.8602
  216MOL0     H29099   2.008   3.891   3.859 -1.0804  1.7812 -0.6428
  216MOL0     H29100   1.974   3.880   4.035 -0.8590 -0.8734 -0.6334
  216MOL0     H29101   1.823   4.040   3.826 -2.8759 -1.4213 -0.7985
  216MOL0     H29102   1.778   3.887   3.902  0.7896 -0.8071  0.2479
  216MOL0     H29103   1.796   4.011   4.127  1.8874 -0.0262 -1.0040
  216MOL0     H29104   1.822   4.162   4.049  0.2429  0.1167  0.7904
  216MOL0     H29105   1.557   4.021   4.065  0.9464 -0.4406  1.8619
  216MOL0     H29106   1.610   4.182   4.111  2.5364 -0.6050  1.9032
  216MOL0     H29107   1.653   4.240   3.874 -1.6056  0.5338 -1.2891
  216MOL0     H29108   1.592   4.079   3.812 -0.3605 -0.3666  0.2611
  216MOL0     H29109   1.439   4.259   3.791  0.1107  0.0872 -0.1733
  216MOL0     H29110   1.451   4.301   3.971 -0.2544 -0.4408  0.3022
  216MOL0     H29111   1.328   4.003   3.741 -0.1314 -0.6629 -0.3889
  216MOL0     H29112   1.004   3.878   3.903  1.1839  2.6589 -0.4295
  216MOL0     H29113   1.088   3.860   3.748 -2.6571 -3.3380 -0.4867
  216MOL0     H29114   1.262   3.708   3.894  1.0421 -0.7538  2.5656
  216MOL0     H29115   1.105   3.646   3.867  1.0006 -0.6667 -1.0096
  216MOL0     H29116   1.030   3.761   4.084 -0.8294  0.2018 -2.6179
  216MOL0     H29117   1.202   3.797   4.113  1.5636 -1.1002 -2.2300
  216MOL0     H29118   1.281   3.563   4.094  0.7869  3.7505 -0.0641
  216MOL0     H29119   1.110   3.505   4.106  0.3297 -0.4083  2.7601
  216MOL0     H29120   1.231   3.673   4.494  2.7226  0.6093  1.8710
  216MOL0     H29121   1.456   3.531   4.727  0.1042 -1.9069 -0.6124
  216MOL0     H29122   1.320   3.659   4.708 -1.8561 -0.3914  1.9146
  216MOL0     H29123   1.288   3.512   4.773 -1.2025  0.7467 -0.6432
  216MOL0     H29124   1.388   3.232   4.986  0.0959  1.2330 -0.9633
  216MOL0     H29125   1.532   3.114   5.166 -2.1047  0.3145 -0.0252
  216MOL0     H29126   1.892   2.860   5.038 -0.0373  0.5120 -0.3348
  216MOL0     H29127   1.960   3.026   5.046 -0.7397  1.4787 -0.6895
  216MOL0     H29128   1.877   2.869   5.285 -0.9419 -1.1363 -1.0930
  216MOL0     H29129   2.026   2.826   5.220 -0.5712 -1.0321  2.5526
  216MOL0     H29130   2.044   3.001   5.408  0.7624 -1.4551 -0.0261
  216MOL0     H29131   1.981   3.113   5.281  1.8607  1.1890 -0.6935
  216MOL0     H29132   2.234   2.953   5.290 -2.4008  0.4843  1.1376
  216MOL0     H29133   2.174   3.040   5.140 -0.1359  2.4074  0.6230
  216MOL0     H29134   2.202   3.172   5.421 -0.4750 -1.0509 -0.8944
  216MOL0     H29135   2.187   3.253   5.280 -1.2985 -0.0797  0.6719
  216MOL0     H29136   2.432   3.089   5.372 -0.9875 -1.8643 -0.0338
  216MOL0     H29137   2.412   3.140   5.201 -4.1240 -2.4249 -0.3590
  216MOL0     H29138   2.390   3.334   5.447 -2.1760 -1.6832 -0.1124
  216MOL0     H29139   2.390   3.373   5.271  0.9757 -0.5134 -1.0532
  216MOL0     H29140   2.596   3.425   5.298 -4.6917  0.3274 -0.0101
  216MOL0     H29141   2.638   3.254   5.284  3.5639 -0.1928  2.5043
  216MOL0     H29142   1.849   3.087   4.881 -0.1416 -2.6663  1.9015
  216MOL0     H29143   1.709   3.184   4.706  0.6313  0.7468  1.3030
  216MOL0     H29144   1.354   3.202   4.384 -1.6884 -0.9840  0.6591
  216MOL0     H29145   1.239   3.360   4.208 -0.8151  1.9939 -0.1192
  216MOL0     H29146   2.343   4.113   3.596 -1.6579 -4.1701 -0.3672
  216MOL0     H29147   2.569   4.189   3.539 -4.4803 -0.5947 -1.3309
  216MOL0     H29148   2.885   4.527   3.583 -0.3222  2.0538  3.4269
  216MOL0     H29149   3.115   4.611   3.537 -1.5082  0.2501 -1.9899
  216MOL0     H29150   3.456   4.396   3.770  2.3520  1.8402  1.1757
  216MOL0     H29151   3.470   4.356   3.600  2.4904  0.3208  0.3384
  216MOL0     H29152   3.552   4.614   3.719  1.1896 -1.0238 -0.1679
  216MOL0     H29153   3.558   4.574   3.535  3.3624 -2.7754 -1.6131
  216MOL0     H29154   3.683   4.409   3.754 -0.1115  2.5239  2.8471
  216MOL0     H29155   3.773   4.538   3.682 -0.7285  1.0172 -1.3726
  216MOL0     H29156   3.852   4.381   3.550 -0.1994 -0.9231 -0.6438
  216MOL0     H29157   3.693   4.390   3.451 -0.7528  0.0457 -0.5169
  216MOL0     H29158   3.643   4.022   3.628 -0.7884  0.6549  0.7388
  216MOL0     H29159   3.273   4.283   3.762  0.5430  0.7240 -0.1945
  216MOL0     H29160   3.044   4.198   3.794 -0.6828 -1.0973 -1.2835
  217MOL0     O29161   8.226   1.415   6.572  0.6210 -0.5655 -0.7635
  217MOL0     C29162   8.343   1.413   6.587 -0.9006 -0.7405  0.1972
  217MOL0     O29163   8.416   1.321   6.651  0.3403  1.0135 -0.1957
  217MOL0     C29164   8.358   1.199   6.672  0.8554 -0.7623 -0.9473
  217MOL0     C29165   8.316   1.158   6.803  0.0608  0.6630 -0.8308
  217MOL0     C29166   8.266   1.030   6.829 -0.3512  0.6583 -1.6079
  217MOL0     C29167   8.245   0.934   6.721 -0.2192 -0.3015  0.1433
  217MOL0     O29168   8.180   0.819   6.752  0.1293  0.8121 -1.0453
  217MOL0     C29169   8.108   0.750   6.647  0.2308  0.4590 -0.4451
  217MOL0     C29170   8.038   0.629   6.708  0.7236 -0.3644  0.1657
  217MOL0     C29171   8.139   0.519   6.750 -0.0734 -0.0823  0.8050
  217MOL0     C29172   8.075   0.403   6.838 -0.1531 -1.8299 -0.4239
  217MOL0     C29173   7.966   0.321   6.776 -0.2782  0.2686 -0.1094
  217MOL0     C29174   7.877   0.249   6.876 -0.1190 -0.6118  0.4023
  217MOL0     C29175   7.738   0.332   6.889 -1.0904 -0.0867 -0.9031
  217MOL0     C29176   7.670   0.269   7.005  0.2023  0.1691 -0.2786
  217MOL0     N29177   7.544   0.324   7.022 -0.9130  0.2047 -0.3856
  217MOL0     C29178   7.505   0.436   7.104  0.3006  0.4623 -0.1300
  217MOL0     C29179   7.374   0.448   7.081 -0.2250 -0.1278 -0.4613
  217MOL0     C29180   7.293   0.546   7.160 -0.3718 -0.0948 -0.2076
  217MOL0     C29181   7.160   0.472   7.194 -1.1750 -0.4628  0.0225
  217MOL0     C29182   7.036   0.549   7.247  0.0314  0.3548  0.3112
  217MOL0     C29183   7.066   0.675   7.333 -0.0869 -0.5293 -0.3631
  217MOL0     O29184   6.960   0.778   7.350  0.1480  0.1330  0.2186
  217MOL0     C29185   6.850   0.741   7.422 -1.2979 -0.5710 -0.0345
  217MOL0     C29186   6.848   0.656   7.525  0.0913  0.1564 -0.1492
  217MOL0     C29187   6.724   0.629   7.592  0.6227  0.5038  1.1498
  217MOL0     C29188   6.730   0.512   7.693 -0.1064 -0.1853  0.4349
  217MOL0     C29189   6.607   0.701   7.544  0.0310  0.3912  0.2689
  217MOL0     C29190   6.468   0.667   7.601  0.3584  0.1949 -0.2384
  217MOL0     O29191   6.373   0.748   7.566 -0.1498 -0.0217 -0.3916
  217MOL0     C29192   6.273   0.735   7.652  0.8025 -0.4179  0.9213
  217MOL0     C29193   6.277   0.781   7.787 -0.1011  1.0825 -0.8727
  217MOL0     C29194   6.160   0.784   7.863  1.2820  0.1718 -0.2476
  217MOL0     C29195   6.030   0.773   7.807 -0.5091 -0.0047 -0.1935
  217MOL0     O29196   5.922   0.831   7.879 -0.0631  0.1306 -0.0698
  217MOL0     C29197   5.796   0.771   7.869 -0.1933 -0.2098 -0.5079
  217MOL0     C29198   5.725   0.836   7.988 -0.2627  0.6489 -0.9598
  217MOL0     C29199   5.753   0.745   8.104  0.6676 -0.2978  0.3444
  217MOL0     C29200   5.708   0.787   8.242 -0.1939  0.8165 -0.1559
  217MOL0     C29201   5.745   0.683   8.345  0.3291 -0.3499 -0.0706
  217MOL0     C29202   5.895   0.689   8.366  0.2017 -0.0484  0.6620
  217MOL0     C29203   5.946   0.571   8.446 -0.5574 -0.1467  0.1299
  217MOL0     C29204   5.943   0.437   8.378 -0.8654 -0.5517 -0.7148
  217MOL0    Cl29205   6.045   0.305   8.433 -0.2466 -0.0055 -0.1431
  217MOL0     C29206   6.026   0.713   7.678 -0.0711  0.5764 -0.7408
  217MOL0     C29207   6.147   0.701   7.602  0.7437 -0.0762 -0.0062
  217MOL0     O29208   6.451   0.567   7.666  0.2727 -0.7149  0.2411
  217MOL0     C29209   6.616   0.810   7.459  0.7658  0.5928 -0.0347
  217MOL0     C29210   6.735   0.822   7.397  0.0429  0.6561 -0.1056
  217MOL0     N29211   7.337   0.351   6.985  0.2781  0.5571  0.2407
  217MOL0     N29212   7.437   0.270   6.955 -0.0900  0.4358 -0.5850
  217MOL0     C29213   8.270   0.988   6.593 -0.3854  0.3865  0.5629
  217MOL0     C29214   8.328   1.114   6.564  0.9046 -0.3338  0.6079
  217MOL0     C29215   8.416   1.532   6.546 -0.2936 -0.3007  0.4534
  217MOL0     C29216   8.376   1.604   6.431 -0.3687 -0.0713  0.1761
  217MOL0     C29217   8.450   1.714   6.390 -0.0460 -0.7132 -0.2305
  217MOL0     C29218   8.556   1.766   6.465 -0.4713  0.4237 -1.0865
  217MOL0     O29219   8.622   1.884   6.444 -0.7613 -0.2631 -0.1965
  217MOL0     C29220   8.536   2.004   6.426 -0.6701 -1.0733 -0.0111
  217MOL0     C29221   8.615   2.086   6.320  0.1574  1.0841  0.0509
  217MOL0     C29222   8.533   2.218   6.293 -0.3773 -0.2491 -0.6368
  217MOL0     C29223   8.392   2.197   6.235 -0.2727  0.4718 -0.7362
  217MOL0     C29224   8.370   2.307   6.146  0.9509  0.0277 -0.0592
  217MOL0     C29225   8.365   2.384   6.052 -0.5990  0.8407  0.4473
  217MOL0     C29226   8.606   1.682   6.566 -0.1426 -0.6616 -1.0032
  217MOL0     C29227   8.532   1.568   6.611 -0.1303 -1.5670  0.2372
  217MOL0     H29228   8.339   1.209   6.897  3.4288 -2.6422  0.3744
  217MOL0     H29229   8.251   1.005   6.933  2.0748 -0.1474 -1.3798
  217MOL0     H29230   8.032   0.812   6.598 -2.7004 -2.9945 -0.7192
  217MOL0     H29231   8.178   0.716   6.571 -0.1095  0.8211 -0.9325
  217MOL0     H29232   7.980   0.662   6.794  0.4918  1.7523 -0.7312
  217MOL0     H29233   7.965   0.600   6.631  2.1885  1.8343 -2.2038
  217MOL0     H29234   8.191   0.482   6.661  0.6807  1.3557  0.6228
  217MOL0     H29235   8.222   0.562   6.807 -0.3052 -0.1232  1.1777
  217MOL0     H29236   8.149   0.341   6.890 -0.4004  0.1524  2.5441
  217MOL0     H29237   8.028   0.459   6.919 -4.2012 -2.6704 -1.9608
  217MOL0     H29238   7.913   0.382   6.703 -1.4059 -3.5206 -2.7972
  217MOL0     H29239   8.007   0.245   6.708 -0.5762  0.6361 -0.7117
  217MOL0     H29240   7.854   0.145   6.853  2.6219 -1.0721 -0.7179
  217MOL0     H29241   7.933   0.246   6.970  1.3600  0.5556 -0.3958
  217MOL0     H29242   7.756   0.436   6.918  1.8939 -1.1308  1.4945
  217MOL0     H29243   7.686   0.325   6.793  1.0066  2.6848 -2.4046
  217MOL0     H29244   7.736   0.290   7.090  0.5594 -0.5579 -0.3718
  217MOL0     H29245   7.652   0.162   7.004 -0.9706  0.3493 -0.4284
  217MOL0     H29246   7.569   0.510   7.150  0.4739  0.8197 -0.9251
  217MOL0     H29247   7.338   0.589   7.250 -1.7146  1.0420 -0.0419
  217MOL0     H29248   7.271   0.630   7.094 -2.0613 -3.4153 -4.3987
  217MOL0     H29249   7.192   0.408   7.277  0.2402 -1.3333 -1.1396
  217MOL0     H29250   7.123   0.405   7.116 -1.5739  0.5984 -0.7258
  217MOL0     H29251   6.963   0.485   7.298 -1.5819 -0.5053 -2.8198
  217MOL0     H29252   6.984   0.597   7.163 -0.2084 -0.2647  0.0987
  217MOL0     H29253   7.145   0.729   7.281  0.7806 -1.7855 -0.3903
  217MOL0     H29254   7.105   0.647   7.432 -2.3813  0.0260  0.7709
  217MOL0     H29255   6.940   0.608   7.555  0.6549  1.4635  0.3226
  217MOL0     H29256   6.713   0.547   7.795 -2.2877  1.2621 -0.3470
  217MOL0     H29257   6.666   0.426   7.670 -0.8341  0.8091 -1.5736
  217MOL0     H29258   6.835   0.483   7.692  0.8840  3.0209  0.0335
  217MOL0     H29259   6.370   0.809   7.836 -0.5016 -1.5636  1.6748
  217MOL0     H29260   6.158   0.818   7.966  2.0763 -0.6650  0.0561
  217MOL0     H29261   5.747   0.808   7.778 -2.6003 -3.5402 -0.7332
  217MOL0     H29262   5.781   0.663   7.865 -1.1659 -0.0507 -2.4630
  217MOL0     H29263   5.774   0.931   8.009 -0.5779  0.5023  0.4858
  217MOL0     H29264   5.617   0.839   7.971 -0.4345 -0.6707 -0.2719
  217MOL0     H29265   5.862   0.733   8.100  0.3967 -3.8694  0.6500
  217MOL0     H29266   5.700   0.651   8.086 -0.2056  0.4323 -1.1495
  217MOL0     H29267   5.758   0.883   8.258  3.5326 -0.1486 -4.2713
  217MOL0     H29268   5.600   0.797   8.257 -1.3074 -5.5890 -1.1606
  217MOL0     H29269   5.708   0.584   8.316  0.3429  0.0549 -1.5430
  217MOL0     H29270   5.688   0.711   8.434 -3.4509 -1.2168 -1.9991
  217MOL0     H29271   5.946   0.691   8.270 -0.5353 -1.5899  0.2091
  217MOL0     H29272   5.914   0.775   8.431 -2.4536  0.8491  0.3688
  217MOL0     H29273   5.890   0.566   8.540  2.0383  0.3371  1.8095
  217MOL0     H29274   6.047   0.599   8.475 -2.0914  3.0006  3.0755
  217MOL0     H29275   5.960   0.456   8.271  0.2144  0.8346 -0.3305
  217MOL0     H29276   5.846   0.391   8.394 -0.3670 -0.6349  3.1122
  217MOL0     H29277   5.930   0.692   7.632 -1.5139 -0.7060  2.5626
  217MOL0     H29278   6.143   0.661   7.501  0.6508  0.5039 -0.2384
  217MOL0     H29279   6.531   0.873   7.435 -2.4395 -2.9300  1.0415
  217MOL0     H29280   6.747   0.910   7.336  0.3228  1.0576  0.5195
  217MOL0     H29281   8.248   0.919   6.512 -0.6567 -0.2279  1.1590
  217MOL0     H29282   8.357   1.144   6.464 -1.2307  1.9659  0.5833
  217MOL0     H29283   8.290   1.570   6.375  1.7931 -1.6429 -2.4229
  217MOL0     H29284   8.414   1.766   6.303  0.4526  0.1202  0.0482
  217MOL0     H29285   8.436   1.981   6.390 -0.0803 -0.6635 -2.0141
  217MOL0     H29286   8.535   2.057   6.522  1.7491  2.2477 -1.5877
  217MOL0     H29287   8.615   2.022   6.231  1.6178 -2.4274  2.3315
  217MOL0     H29288   8.716   2.119   6.347  1.0189  1.8811 -3.6936
  217MOL0     H29289   8.599   2.273   6.226  0.1298  1.5467  1.2214
  217MOL0     H29290   8.527   2.274   6.388 -2.0244  0.0915 -0.9022
  217MOL0     H29291   8.318   2.207   6.314  1.0178  1.8675  0.3627
  217MOL0     H29292   8.381   2.108   6.173  0.0300  1.2831 -2.0064
  217MOL0     H29293   8.382   2.468   5.987  0.6511  0.5843  0.4202
  217MOL0     H29294   8.691   1.722   6.620  0.2072  0.6052 -2.4216
  217MOL0     H29295   8.571   1.522   6.701  2.2546 -1.2225 -0.5442
  218MOL0     O29296   1.339   9.010   5.232 -0.3624  0.5205 -0.3441
  218MOL0     C29297   1.352   8.889   5.225  0.2661  0.8739 -0.2409
  218MOL0     O29298   1.255   8.799   5.248  0.1872 -0.5403 -0.3070
  218MOL0     C29299   1.127   8.835   5.230 -0.3709 -0.4905  0.5631
  218MOL0     C29300   1.036   8.796   5.315  0.9460 -0.7701  0.4972
  218MOL0     C29301   0.904   8.796   5.277 -0.2315 -0.4996 -1.0124
  218MOL0     C29302   0.864   8.835   5.148  0.1929 -0.4019  0.2526
  218MOL0     O29303   0.723   8.834   5.123  0.8140  0.7606  0.1972
  218MOL0     C29304   0.663   8.854   5.000  0.2647  0.0223 -0.1097
  218MOL0     C29305   0.526   8.789   4.974 -0.6983  0.0841  0.4308
  218MOL0     C29306   0.426   8.847   5.072 -0.0997  0.3376 -0.7051
  218MOL0     C29307   0.300   8.785   5.036 -0.8924 -0.0827  0.2611
  218MOL0     C29308   0.187   8.823   5.135  0.5589 -0.8399  0.3688
  218MOL0     C29309   0.053   8.781   5.085 -0.8045  0.0026  0.6062
  218MOL0     C29310  -0.035   8.780   5.208  0.0734  0.4272 -0.5263
  218MOL0     C29311  -0.043   8.635   5.268 -0.0978  0.6118  0.2667
  218MOL0     N29312  -0.133   8.621   5.379 -0.0897  0.4727  0.2094
  218MOL0     C29313  -0.262   8.674   5.394 -0.3267  0.6574 -0.1487
  218MOL0     C29314  -0.294   8.646   5.524  0.7137 -0.0185 -0.1597
  218MOL0     C29315  -0.418   8.698   5.601  0.1867  0.1213 -0.1866
  218MOL0     C29316  -0.514   8.583   5.644  0.0360 -0.1774 -0.6292
  218MOL0     C29317  -0.662   8.634   5.662  0.4408  0.0618  0.6061
  218MOL0     C29318  -0.755   8.527   5.724  0.2277  0.6096  0.1698
  218MOL0     O29319  -0.817   8.464   5.605 -0.1951 -0.1345 -0.4222
  218MOL0     C29320  -0.913   8.366   5.626 -0.3597  0.5291 -0.6043
  218MOL0     C29321  -0.975   8.340   5.747  0.1080  1.0320 -0.7806
  218MOL0     C29322  -1.073   8.243   5.758 -0.0849  0.4884  0.2401
  218MOL0     C29323  -1.139   8.199   5.886  0.3246  0.1062  0.3962
  218MOL0     C29324  -1.107   8.169   5.644 -0.1960 -0.0206 -0.5963
  218MOL0     C29325  -1.217   8.062   5.643  0.2666 -0.6072 -0.7685
  218MOL0     O29326  -1.188   7.969   5.540  0.2327 -0.3945 -0.2725
  218MOL0     C29327  -1.297   7.911   5.481  0.0413  0.7735 -0.1777
  218MOL0     C29328  -1.410   7.980   5.443 -0.4576  0.3138 -0.1499
  218MOL0     C29329  -1.505   7.929   5.361 -0.4172  0.4094 -0.0774
  218MOL0     C29330  -1.495   7.800   5.306  0.4180  0.2959  0.4957
  218MOL0     O29331  -1.589   7.746   5.218 -0.0466  0.7161  0.0820
  218MOL0     C29332  -1.726   7.801   5.222  0.2505  0.0817  1.1710
  218MOL0     C29333  -1.826   7.709   5.143  0.1269  0.3737  0.3485
  218MOL0     C29334  -1.762   7.670   5.006  0.2403 -0.3845  0.3489
  218MOL0     C29335  -1.704   7.534   4.983  0.7997  0.4463  0.2423
  218MOL0     C29336  -1.660   7.505   4.835  0.5828  0.4880 -0.5849
  218MOL0     C29337  -1.780   7.494   4.735 -0.1987  0.3242  0.6385
  218MOL0     C29338  -1.742   7.436   4.596 -0.3078 -0.0910  0.9345
  218MOL0     C29339  -1.859   7.398   4.502 -0.6202 -0.8626  0.5216
  218MOL0    Cl29340  -1.914   7.559   4.435  0.5281 -0.2605  0.0776
  218MOL0     C29341  -1.384   7.724   5.347  0.1094 -0.5647  0.2580
  218MOL0     C29342  -1.291   7.774   5.444 -0.3342 -0.4281 -0.1705
  218MOL0     O29343  -1.327   8.076   5.703  0.2284  0.1060  0.3176
  218MOL0     C29344  -1.039   8.191   5.522 -0.3850  0.3129 -0.4528
  218MOL0     C29345  -0.944   8.289   5.522  0.8907 -0.7732  0.4345
  218MOL0     N29346  -0.192   8.576   5.584  0.4279  0.0308 -0.4889
  218MOL0     N29347  -0.098   8.551   5.497 -0.2042 -0.2383  0.1151
  218MOL0     C29348   0.957   8.892   5.061 -0.4003  0.3539 -0.5692
  218MOL0     C29349   1.091   8.878   5.095 -0.0727  0.2172 -0.0623
  218MOL0     C29350   1.486   8.836   5.189 -0.2392  0.1592  0.1168
  218MOL0     C29351   1.517   8.699   5.204  0.3749 -0.3821  1.0277
  218MOL0     C29352   1.650   8.653   5.184  0.4104 -0.5934  0.2904
  218MOL0     C29353   1.753   8.742   5.148  0.5059 -0.4220 -0.2105
  218MOL0     O29354   1.886   8.711   5.138 -0.4538 -1.1083 -0.0127
  218MOL0     C29355   1.933   8.583   5.145 -0.3095  1.0272 -0.3259
  218MOL0     C29356   2.090   8.572   5.126  0.4407 -0.4061 -0.1675
  218MOL0     C29357   2.158   8.441   5.171  0.1394 -0.9932 -0.2282
  218MOL0     C29358   2.119   8.398   5.314  0.3695  0.0487  0.4364
  218MOL0     C29359   2.233   8.319   5.372  0.3836 -0.8653 -0.3210
  218MOL0     C29360   2.326   8.255   5.425  0.4452  0.1850 -0.0561
  218MOL0     C29361   1.728   8.870   5.125 -0.7548  0.4230 -0.5280
  218MOL0     C29362   1.596   8.916   5.142 -0.0682  0.1669 -0.4595
  218MOL0     H29363   1.073   8.758   5.410 -1.0450 -0.0039  1.6342
  218MOL0     H29364   0.834   8.767   5.355  1.2928 -1.0974  0.1785
  218MOL0     H29365   0.658   8.961   4.978 -1.7513 -0.5077 -2.8048
  218MOL0     H29366   0.728   8.829   4.915  0.1676  0.4796 -0.3190
  218MOL0     H29367   0.492   8.816   4.873  0.7510  1.1524  0.1975
  218MOL0     H29368   0.541   8.681   4.985 -0.9027 -0.1516 -1.2094
  218MOL0     H29369   0.454   8.818   5.174  0.9990 -0.4591 -1.2193
  218MOL0     H29370   0.414   8.956   5.068  0.7390  0.4247 -1.0118
  218MOL0     H29371   0.277   8.814   4.933  2.6816  1.0706 -0.3258
  218MOL0     H29372   0.310   8.676   5.036 -1.1559 -0.1240  1.8459
  218MOL0     H29373   0.200   8.765   5.227 -0.3048 -1.3758  0.1566
  218MOL0     H29374   0.199   8.928   5.165  3.3031 -0.5814 -1.3205
  218MOL0     H29375   0.022   8.854   5.009  1.2082 -1.8660 -2.2499
  218MOL0     H29376   0.052   8.681   5.041  0.9979 -0.0147  0.5306
  218MOL0     H29377  -0.012   8.860   5.278 -1.0947 -0.4779  0.9418
  218MOL0     H29378  -0.132   8.802   5.161 -0.6729 -2.7996 -0.7440
  218MOL0     H29379   0.057   8.608   5.305  1.1016  2.1023 -1.7178
  218MOL0     H29380  -0.073   8.564   5.190 -2.9803  2.1521 -0.1764
  218MOL0     H29381  -0.308   8.735   5.318  1.4554  0.8713 -1.1161
  218MOL0     H29382  -0.397   8.762   5.687 -2.4835  0.8191  0.0380
  218MOL0     H29383  -0.480   8.759   5.534  1.0855 -0.1066 -1.2521
  218MOL0     H29384  -0.472   8.553   5.740  0.5341 -0.1960 -0.8514
  218MOL0     H29385  -0.507   8.502   5.571 -0.6137 -0.7791 -0.0400
  218MOL0     H29386  -0.705   8.670   5.568 -2.4845 -2.2804  0.8998
  218MOL0     H29387  -0.668   8.728   5.719 -1.5457  0.8803 -0.8380
  218MOL0     H29388  -0.838   8.572   5.780  1.0529  0.2764  1.6981
  218MOL0     H29389  -0.699   8.451   5.779  1.0133 -0.2606 -1.7184
  218MOL0     H29390  -0.956   8.390   5.842  1.9202 -2.5840  0.9741
  218MOL0     H29391  -1.240   8.241   5.892  0.1076  0.4554 -3.1746
  218MOL0     H29392  -1.157   8.093   5.904 -2.4860  0.5154  0.5455
  218MOL0     H29393  -1.090   8.240   5.974  3.0974 -0.9744 -0.5465
  218MOL0     H29394  -1.420   8.081   5.483  0.0370  0.8686 -1.3736
  218MOL0     H29395  -1.584   8.003   5.347 -0.5443 -0.0122 -1.8216
  218MOL0     H29396  -1.766   7.817   5.322 -1.3487  2.7482  0.1966
  218MOL0     H29397  -1.728   7.900   5.177  0.7440  0.1750  1.3417
  218MOL0     H29398  -1.853   7.627   5.210  3.0451 -0.1412  1.0222
  218MOL0     H29399  -1.923   7.759   5.128 -0.3366  0.1493  2.3018
  218MOL0     H29400  -1.685   7.747   4.995 -1.8354  1.8290  0.5439
  218MOL0     H29401  -1.836   7.678   4.926 -0.7546 -0.1122  1.2834
  218MOL0     H29402  -1.609   7.538   5.038  1.3734  0.6850 -0.7370
  218MOL0     H29403  -1.776   7.458   5.014 -0.2026  1.0258 -0.6135
  218MOL0     H29404  -1.593   7.419   4.835 -0.9960 -0.8944  2.0902
  218MOL0     H29405  -1.593   7.586   4.803 -1.3949  3.1117  1.4297
  218MOL0     H29406  -1.857   7.434   4.785 -1.1565 -2.1875 -3.4458
  218MOL0     H29407  -1.818   7.596   4.728 -0.1833  0.1953 -1.9652
  218MOL0     H29408  -1.689   7.346   4.629 -0.1140 -0.1910  0.3542
  218MOL0     H29409  -1.677   7.507   4.546 -1.5914 -0.6229 -1.6643
  218MOL0     H29410  -1.946   7.354   4.553 -3.8475  1.9029 -2.0930
  218MOL0     H29411  -1.828   7.328   4.424  1.5337  0.1238  0.4198
  218MOL0     H29412  -1.391   7.625   5.304 -1.6266  1.1647 -3.9601
  218MOL0     H29413  -1.214   7.714   5.491 -0.2910  0.1376  0.5031
  218MOL0     H29414  -1.056   8.138   5.429 -1.5910  0.4991 -0.3587
  218MOL0     H29415  -0.892   8.328   5.435  2.0232  3.1780  2.6199
  218MOL0     H29416   0.928   8.927   4.962  0.0825 -0.5689 -1.0448
  218MOL0     H29417   1.164   8.916   5.025 -2.0920  3.0921 -0.7671
  218MOL0     H29418   1.439   8.633   5.238  1.7412 -1.9783  1.2238
  218MOL0     H29419   1.677   8.548   5.196  0.0479 -0.7583 -0.3041
  218MOL0     H29420   1.918   8.542   5.245  1.2272 -0.1549 -0.5380
  218MOL0     H29421   1.883   8.511   5.079 -0.2111  2.2443 -1.7923
  218MOL0     H29422   2.113   8.658   5.190  0.6094  4.1878 -5.6210
  218MOL0     H29423   2.122   8.606   5.027 -1.9456  2.7774  0.0117
  218MOL0     H29424   2.265   8.458   5.156 -0.3745  2.5353 -0.7825
  218MOL0     H29425   2.128   8.355   5.111  1.3380 -0.2954 -1.9128
  218MOL0     H29426   2.025   8.344   5.296  0.1655  1.1835 -2.4355
  218MOL0     H29427   2.096   8.488   5.371 -2.2320 -0.7262  0.7357
  218MOL0     H29428   2.405   8.204   5.475  0.1521 -1.6047 -1.2867
  218MOL0     H29429   1.804   8.946   5.109  1.1157 -1.3960 -0.5443
  218MOL0     H29430   1.579   9.022   5.126 -0.6301 -0.0984 -1.8018
  219MOL0     O29431   6.891   6.636   9.387  0.1754  0.0137 -0.6555
  219MOL0     C29432   6.953   6.738   9.360  0.2302 -0.8669  0.4320
  219MOL0     O29433   6.982   6.779   9.232 -0.3374  0.6110  0.5393
  219MOL0     C29434   6.956   6.687   9.128 -0.5821 -0.6682 -0.9058
  219MOL0     C29435   6.941   6.740   8.999 -0.0925 -0.5206 -0.4658
  219MOL0     C29436   6.922   6.662   8.885  0.6980 -0.0997 -0.1563
  219MOL0     C29437   6.921   6.527   8.901 -0.0431  0.1737  0.7935
  219MOL0     O29438   6.907   6.459   8.790  0.1197  0.6133  0.0163
  219MOL0     C29439   6.772   6.407   8.768 -0.3081 -0.6613 -0.1308
  219MOL0     C29440   6.766   6.383   8.613 -0.7836  0.3798  0.4195
  219MOL0     C29441   6.632   6.332   8.574  0.3457 -0.0506  0.0437
  219MOL0     C29442   6.625   6.280   8.426  0.9152  0.0103 -0.4735
  219MOL0     C29443   6.645   6.398   8.339  0.0033 -0.7107  0.4037
  219MOL0     C29444   6.634   6.363   8.199  0.8275  0.1093  0.9454
  219MOL0     C29445   6.654   6.469   8.088  0.6687  0.3837  0.3919
  219MOL0     C29446   6.645   6.412   7.947 -0.3778  0.4482 -0.0469
  219MOL0     N29447   6.777   6.372   7.905  0.2471  0.2723 -0.1842
  219MOL0     C29448   6.865   6.288   7.958  0.7190  0.6488  0.3217
  219MOL0     C29449   6.984   6.305   7.900 -0.8974  0.2547  0.3970
  219MOL0     C29450   7.113   6.226   7.924 -0.8006 -0.0660  0.1462
  219MOL0     C29451   7.215   6.317   7.992 -0.1258  0.2483 -0.1269
  219MOL0     C29452   7.343   6.238   8.018 -0.1747 -0.7880 -0.3317
  219MOL0     C29453   7.466   6.337   8.054  0.6140 -0.6269  0.1365
  219MOL0     O29454   7.576   6.277   8.127  0.6718 -0.0958  0.6781
  219MOL0     C29455   7.661   6.190   8.056  0.8750  0.4859  1.0712
  219MOL0     C29456   7.672   6.182   7.919 -1.1623  0.0253  0.1374
  219MOL0     C29457   7.774   6.112   7.852 -0.2363  0.0352 -0.3576
  219MOL0     C29458   7.783   6.131   7.702  1.1342 -0.2720 -0.5988
  219MOL0     C29459   7.860   6.027   7.928 -0.0580  0.2635  0.2315
  219MOL0     C29460   7.967   5.939   7.869  0.3484  0.6028  0.6394
  219MOL0     O29461   8.013   5.955   7.742 -0.9338 -0.5060  0.9472
  219MOL0     C29462   8.082   5.853   7.664  0.6180 -0.6656 -0.8206
  219MOL0     C29463   8.112   5.893   7.536 -0.7101  0.0679 -0.6808
  219MOL0     C29464   8.170   5.802   7.444  1.2060 -0.2638  0.4210
  219MOL0     C29465   8.183   5.663   7.485 -0.6949  0.6709 -0.4589
  219MOL0     O29466   8.230   5.588   7.385 -0.1383 -1.0407 -0.0925
  219MOL0     C29467   8.230   5.443   7.395 -0.4828 -0.3558  0.0767
  219MOL0     C29468   8.160   5.379   7.277 -0.1347 -0.2052 -1.0118
  219MOL0     C29469   8.239   5.409   7.146  0.0560  0.2146 -0.3269
  219MOL0     C29470   8.387   5.371   7.140 -0.6423 -0.5992 -0.0650
  219MOL0     C29471   8.436   5.353   6.994  0.6870 -0.1606  0.0772
  219MOL0     C29472   8.562   5.281   6.978 -0.3068  0.1780 -0.3771
  219MOL0     C29473   8.603   5.282   6.828  0.2869 -0.2367 -0.0756
  219MOL0     C29474   8.713   5.193   6.808 -0.9152  0.0888 -0.2752
  219MOL0    Cl29475   8.849   5.236   6.914  0.3245 -0.0892 -0.1469
  219MOL0     C29476   8.156   5.628   7.619 -0.4367 -0.1606 -0.4389
  219MOL0     C29477   8.108   5.725   7.709  0.1038  0.3923 -0.5970
  219MOL0     O29478   7.993   5.840   7.942  0.4393 -0.2417 -0.3145
  219MOL0     C29479   7.834   6.025   8.068  0.0373  0.0391  0.5518
  219MOL0     C29480   7.743   6.106   8.131  1.0954 -0.5222 -0.0956
  219MOL0     N29481   6.968   6.412   7.822  0.1096  0.6007 -0.2624
  219MOL0     N29482   6.843   6.441   7.811  0.3459  0.3093  0.6219
  219MOL0     C29483   6.946   6.465   9.016  0.8445  0.0643 -0.4406
  219MOL0     C29484   6.964   6.546   9.133  0.1787 -0.5494  0.3125
  219MOL0     C29485   6.988   6.825   9.475  0.6261 -0.4594  0.4765
  219MOL0     C29486   6.997   6.967   9.463 -0.5165  0.1404  1.2029
  219MOL0     C29487   7.038   7.054   9.567 -0.3583 -0.4091  0.1540
  219MOL0     C29488   7.054   7.002   9.698 -0.3573 -0.5094  0.6184
  219MOL0     O29489   7.076   7.090   9.799 -0.0910 -0.2360  0.0287
  219MOL0     C29490   7.049   7.057   9.939  0.7922  0.9441 -0.1763
  219MOL0     C29491   7.164   7.003  10.009 -0.4570 -0.2177  0.1256
  219MOL0     C29492   7.299   7.062   9.974  0.4617 -0.3455 -0.5633
  219MOL0     C29493   7.318   7.201  10.014 -0.1928 -0.0707 -0.4212
  219MOL0     C29494   7.323   7.217  10.161  0.0236  1.0031  0.3153
  219MOL0     C29495   7.317   7.239  10.276  0.0113 -0.1208  0.5183
  219MOL0     C29496   7.039   6.861   9.711  0.1399 -0.6656  0.0269
  219MOL0     C29497   7.014   6.776   9.604  0.1923 -0.5158 -0.2550
  219MOL0     H29498   6.943   6.849   8.999  0.1928 -0.4949  1.2534
  219MOL0     H29499   6.904   6.706   8.788  1.1930  0.2589 -0.0853
  219MOL0     H29500   6.768   6.308   8.813  0.3685  0.2310  2.0396
  219MOL0     H29501   6.695   6.478   8.801  0.9376  0.3637  0.6783
  219MOL0     H29502   6.782   6.479   8.565 -0.4762 -0.5274 -1.3548
  219MOL0     H29503   6.842   6.310   8.585 -2.9836 -0.9757 -2.5546
  219MOL0     H29504   6.605   6.253   8.644 -2.2537 -0.6093 -1.4609
  219MOL0     H29505   6.560   6.412   8.595 -0.3498 -0.6750  0.0442
  219MOL0     H29506   6.698   6.200   8.411  2.2048  0.8000  1.1990
  219MOL0     H29507   6.527   6.236   8.409 -0.5327  1.7019  2.5409
  219MOL0     H29508   6.575   6.476   8.371 -0.8995 -1.5954  0.6196
  219MOL0     H29509   6.748   6.436   8.352  0.1562 -1.1526  0.4822
  219MOL0     H29510   6.685   6.271   8.167 -1.2135 -0.4942 -0.8487
  219MOL0     H29511   6.528   6.335   8.193  0.7965  0.1481  1.3202
  219MOL0     H29512   6.578   6.547   8.086 -0.4237 -0.6184 -1.9429
  219MOL0     H29513   6.758   6.505   8.092  2.5714 -4.2025 -1.0193
  219MOL0     H29514   6.599   6.487   7.881  2.8632  1.3138 -1.5622
  219MOL0     H29515   6.576   6.327   7.950 -2.1069  1.7003  4.5970
  219MOL0     H29516   6.836   6.209   8.026 -0.7302 -1.2772 -2.3251
  219MOL0     H29517   7.096   6.143   7.992  1.0420  1.2952  2.4090
  219MOL0     H29518   7.150   6.188   7.828  1.3351 -2.5457  1.8253
  219MOL0     H29519   7.182   6.365   8.085 -0.6704 -0.2003 -0.0867
  219MOL0     H29520   7.239   6.402   7.928 -0.9294  1.0207  0.5840
  219MOL0     H29521   7.363   6.198   7.918 -3.9700 -2.6417 -0.5170
  219MOL0     H29522   7.332   6.161   8.095 -0.0754  1.4729  2.0771
  219MOL0     H29523   7.423   6.412   8.122  1.0934 -0.2186 -0.0049
  219MOL0     H29524   7.499   6.386   7.961 -0.6580 -0.4840 -0.2579
  219MOL0     H29525   7.626   6.256   7.854  0.3924  0.1625 -0.8836
  219MOL0     H29526   7.786   6.032   7.657  0.2426 -2.4360  3.5753
  219MOL0     H29527   7.711   6.204   7.662 -0.4785 -1.1711  0.5053
  219MOL0     H29528   7.879   6.182   7.692  1.6439 -0.9981  0.3328
  219MOL0     H29529   8.097   5.993   7.496 -1.7308 -0.7328 -2.4003
  219MOL0     H29530   8.187   5.843   7.345 -0.2758  3.2560  1.4745
  219MOL0     H29531   8.335   5.413   7.402 -0.7814 -1.6114 -0.5325
  219MOL0     H29532   8.169   5.412   7.480 -0.0181  0.4368  0.7135
  219MOL0     H29533   8.151   5.270   7.288  1.6133 -0.3315 -0.3739
  219MOL0     H29534   8.055   5.408   7.267 -0.6072  0.6830  3.9315
  219MOL0     H29535   8.234   5.517   7.127 -1.7643  0.9984  3.5548
  219MOL0     H29536   8.185   5.348   7.074 -2.4318  0.3128  1.3172
  219MOL0     H29537   8.450   5.449   7.183  0.2547 -1.1994 -0.2522
  219MOL0     H29538   8.408   5.282   7.201 -2.1127 -3.4193 -3.3115
  219MOL0     H29539   8.438   5.447   6.939  0.1584  0.0538  0.4214
  219MOL0     H29540   8.361   5.289   6.946 -0.4355  1.5794 -0.5753
  219MOL0     H29541   8.634   5.332   7.042 -1.1108  0.1167  0.6089
  219MOL0     H29542   8.539   5.179   7.012 -1.7427  0.5648 -0.1431
  219MOL0     H29543   8.621   5.386   6.799 -0.6723  0.5627  1.9650
  219MOL0     H29544   8.527   5.237   6.764  1.8378 -1.8189 -0.8765
  219MOL0     H29545   8.760   5.211   6.711 -0.3993 -2.6203 -0.5966
  219MOL0     H29546   8.683   5.088   6.813  0.1840 -0.4949 -3.4188
  219MOL0     H29547   8.169   5.522   7.639 -0.0877 -0.7499 -3.2550
  219MOL0     H29548   8.083   5.684   7.807 -0.9266  3.6609  0.6293
  219MOL0     H29549   7.894   5.956   8.126 -0.5837 -1.0707 -0.0805
  219MOL0     H29550   7.738   6.108   8.239  2.0489  1.8660 -0.0478
  219MOL0     H29551   6.956   6.357   9.029 -0.9975  0.0925  2.1879
  219MOL0     H29552   6.998   6.495   9.222  0.0728 -3.3496 -1.1408
  219MOL0     H29553   6.968   7.013   9.369  0.9932  0.0574  0.6718
  219MOL0     H29554   7.049   7.160   9.548 -3.7844 -0.0549 -0.5012
  219MOL0     H29555   7.006   7.151   9.976 -1.0123  1.6278 -3.5870
  219MOL0     H29556   6.972   6.980   9.950 -0.3115  1.9335 -0.6484
  219MOL0     H29557   7.161   6.894  10.002 -0.1166 -0.1805 -0.7816
  219MOL0     H29558   7.150   7.018  10.117  2.1844  0.7662  0.3912
  219MOL0     H29559   7.317   7.060   9.866 -0.2439  0.7998 -0.7060
  219MOL0     H29560   7.385   7.011  10.019  1.8998  2.7529  0.4728
  219MOL0     H29561   7.249   7.273   9.968  0.8139  0.0386 -1.8322
  219MOL0     H29562   7.415   7.223   9.969 -0.1666  0.3273 -0.1767
  219MOL0     H29563   7.301   7.250  10.381 -1.6702 -0.5661  0.3386
  219MOL0     H29564   7.061   6.821   9.810 -0.1850 -0.9961 -0.0336
  219MOL0     H29565   7.018   6.669   9.618 -3.1054 -0.8674 -1.0629
  220MOL0     O29566   4.988   3.490   7.837 -0.2544  0.4133 -0.5553
  220MOL0     C29567   5.008   3.371   7.804 -0.2176  0.3900 -0.2852
  220MOL0     O29568   4.926   3.301   7.713  0.7738 -0.0518 -0.2568
  220MOL0     C29569   4.802   3.346   7.679  0.1310  0.2646 -0.8373
  220MOL0     C29570   4.702   3.379   7.782 -0.2904 -0.5507 -0.0841
  220MOL0     C29571   4.568   3.403   7.728  0.4964  0.6354  0.4103
  220MOL0     C29572   4.539   3.401   7.585 -0.6390 -0.1591 -0.0913
  220MOL0     O29573   4.415   3.423   7.556 -0.3071 -0.8624 -0.2741
  220MOL0     C29574   4.388   3.441   7.413 -0.3472  0.7416 -0.5674
  220MOL0     C29575   4.255   3.526   7.415 -0.4547  0.6588 -0.4641
  220MOL0     C29576   4.190   3.553   7.274 -0.1883 -0.6733  0.6083
  220MOL0     C29577   4.035   3.519   7.267 -0.0738  0.0371  0.5329
  220MOL0     C29578   3.943   3.639   7.241  0.2879  0.5035 -0.2629
  220MOL0     C29579   3.953   3.663   7.094  0.8855  0.8044 -0.2022
  220MOL0     C29580   3.846   3.771   7.050 -0.3368  1.2348  0.7098
  220MOL0     C29581   3.831   3.761   6.901  0.6527 -1.0704 -0.3589
  220MOL0     N29582   3.740   3.873   6.851  0.4826  0.3143 -0.5134
  220MOL0     C29583   3.608   3.856   6.801 -0.1282 -0.1241 -0.5836
  220MOL0     C29584   3.590   3.966   6.729 -0.1019 -0.8393 -0.3741
  220MOL0     C29585   3.472   3.994   6.638  0.4895 -0.9051 -0.3451
  220MOL0     C29586   3.526   4.048   6.503  1.0763 -1.0853 -0.6395
  220MOL0     C29587   3.631   3.948   6.432 -0.1676 -0.0708 -1.1680
  220MOL0     C29588   3.744   4.033   6.360  0.2060  0.1761 -1.0173
  220MOL0     O29589   3.837   3.940   6.305 -0.3399 -0.0569 -0.4055
  220MOL0     C29590   3.951   3.913   6.378  0.8161  0.2276  0.0866
  220MOL0     C29591   4.067   3.911   6.300 -0.5871 -0.6022  0.2579
  220MOL0     C29592   4.185   3.865   6.353 -1.3237 -0.5362 -0.1836
  220MOL0     C29593   4.297   3.873   6.253  0.1373  0.1024  0.7763
  220MOL0     C29594   4.189   3.812   6.484 -0.1222  0.1560  0.2147
  220MOL0     C29595   4.320   3.778   6.551 -0.2818 -0.1317  0.5008
  220MOL0     O29596   4.429   3.744   6.475  0.4328 -0.2184 -0.5436
  220MOL0     C29597   4.548   3.724   6.536 -0.2557  0.3821 -0.3577
  220MOL0     C29598   4.582   3.594   6.587 -1.4800 -0.6928 -0.0844
  220MOL0     C29599   4.722   3.585   6.629  0.8752 -0.1906 -0.7523
  220MOL0     C29600   4.812   3.687   6.631  0.2053 -0.3021 -0.7350
  220MOL0     O29601   4.949   3.680   6.675  0.1832  0.1560  0.7153
  220MOL0     C29602   5.004   3.558   6.728 -0.4825 -0.4951 -1.7791
  220MOL0     C29603   5.149   3.586   6.758  0.1628 -0.8343 -0.5594
  220MOL0     C29604   5.226   3.467   6.793  0.6416  0.3782 -0.4528
  220MOL0     C29605   5.368   3.497   6.823 -0.2526  0.5897  0.1878
  220MOL0     C29606   5.433   3.378   6.893  0.5542  0.6480 -0.2310
  220MOL0     C29607   5.580   3.406   6.913 -0.3598 -1.3145  0.0713
  220MOL0     C29608   5.654   3.287   6.974 -0.2158  0.0631 -0.2622
  220MOL0     C29609   5.801   3.324   6.967  0.7822 -0.4547  0.3929
  220MOL0    Cl29610   5.865   3.295   6.795 -0.2775 -0.2729 -0.1418
  220MOL0     C29611   4.766   3.814   6.600 -0.3562 -0.4678  0.0381
  220MOL0     C29612   4.639   3.828   6.537 -0.2971  0.2263  0.8025
  220MOL0     O29613   4.318   3.773   6.674 -0.0838  0.1715  0.7686
  220MOL0     C29614   4.070   3.813   6.557 -0.0873  1.4128 -0.4983
  220MOL0     C29615   3.951   3.864   6.509 -0.0894  1.0211 -0.4789
  220MOL0     N29616   3.696   4.048   6.750  0.6951 -0.9380  0.4634
  220MOL0     N29617   3.793   3.995   6.830  0.5194 -0.3600 -0.3943
  220MOL0     C29618   4.645   3.379   7.501 -0.8939 -0.4993  0.5663
  220MOL0     C29619   4.771   3.356   7.544 -0.2284  0.5318  0.8395
  220MOL0     C29620   5.129   3.301   7.858 -0.3638  0.0163  0.4656
  220MOL0     C29621   5.215   3.375   7.945  0.0369  0.5364  0.2012
  220MOL0     C29622   5.342   3.317   7.985  0.4532  0.2380  0.3901
  220MOL0     C29623   5.371   3.185   7.944 -0.5941  0.9033 -1.0678
  220MOL0     O29624   5.494   3.149   7.976 -0.1146  0.8046  0.0381
  220MOL0     C29625   5.522   3.009   7.969 -0.1275  0.7967 -0.0920
  220MOL0     C29626   5.611   2.963   7.851 -0.8660  0.6176 -0.0224
  220MOL0     C29627   5.689   3.077   7.778  0.2757  0.1627  0.1662
  220MOL0     C29628   5.593   3.183   7.714  0.6902  0.0894  0.3295
  220MOL0     C29629   5.649   3.226   7.585  0.5508  0.0402  0.4318
  220MOL0     C29630   5.688   3.269   7.479 -0.4573  0.8018  0.0356
  220MOL0     C29631   5.279   3.118   7.862 -0.8908 -1.0671 -0.6189
  220MOL0     C29632   5.161   3.173   7.813  0.5242 -0.7698 -1.4522
  220MOL0     H29633   4.712   3.385   7.890  1.2389  2.8275 -0.2889
  220MOL0     H29634   4.480   3.410   7.791 -1.5464  4.0544 -2.4838
  220MOL0     H29635   4.473   3.475   7.354  0.0346  0.9636  0.0976
  220MOL0     H29636   4.364   3.349   7.358  1.6913  0.9440 -1.8817
  220MOL0     H29637   4.187   3.469   7.478  0.6751 -1.5864 -1.1877
  220MOL0     H29638   4.265   3.628   7.454 -2.0672  0.7369 -0.1807
  220MOL0     H29639   4.198   3.658   7.248 -1.5222 -0.0028  2.5893
  220MOL0     H29640   4.243   3.496   7.197 -0.5121  0.3089 -0.3502
  220MOL0     H29641   4.004   3.440   7.198 -2.6358  0.3540  1.2083
  220MOL0     H29642   4.000   3.485   7.365 -1.6412 -0.2680 -0.1022
  220MOL0     H29643   3.841   3.613   7.270  0.1786  2.2243  1.0562
  220MOL0     H29644   3.968   3.728   7.300  3.8908 -0.9167  0.5928
  220MOL0     H29645   4.051   3.685   7.052  1.7621 -2.6685 -0.2750
  220MOL0     H29646   3.931   3.571   7.039 -2.7066 -0.8383  3.4834
  220MOL0     H29647   3.752   3.747   7.099  1.6668  4.2707  7.1685
  220MOL0     H29648   3.898   3.861   7.084  1.6952  1.2339 -2.0275
  220MOL0     H29649   3.774   3.672   6.872  0.3285 -0.3432 -2.0613
  220MOL0     H29650   3.932   3.754   6.859  0.3217 -2.7026 -0.9620
  220MOL0     H29651   3.544   3.772   6.828 -0.8059  1.4331  3.4184
  220MOL0     H29652   3.395   3.916   6.641 -0.5303  0.0766 -0.1430
  220MOL0     H29653   3.423   4.081   6.683 -0.4971 -1.9518  0.6609
  220MOL0     H29654   3.557   4.151   6.523 -2.4371 -0.4928  3.0236
  220MOL0     H29655   3.441   4.064   6.435  0.6380  1.8002  0.4658
  220MOL0     H29656   3.583   3.882   6.359  0.4265 -1.4319 -0.3646
  220MOL0     H29657   3.669   3.875   6.503  1.6000 -2.3972 -4.2330
  220MOL0     H29658   3.796   4.096   6.433 -0.0998 -2.4402  1.6778
  220MOL0     H29659   3.701   4.098   6.283  2.0409  1.5818 -0.9151
  220MOL0     H29660   4.059   3.936   6.195 -1.7532  0.3705  0.5517
  220MOL0     H29661   4.319   3.769   6.227  0.1272  0.3582 -0.3139
  220MOL0     H29662   4.271   3.930   6.163  2.2428 -1.7092 -1.1255
  220MOL0     H29663   4.385   3.918   6.301 -1.0327  0.0324  3.0877
  220MOL0     H29664   4.524   3.503   6.597  0.5605 -2.0450  0.1280
  220MOL0     H29665   4.758   3.484   6.647 -0.1389 -0.3207  0.7592
  220MOL0     H29666   4.956   3.520   6.819  0.8050 -0.1927 -0.9436
  220MOL0     H29667   4.996   3.482   6.650 -1.4211 -0.8395 -1.3582
  220MOL0     H29668   5.188   3.634   6.668 -1.0287 -1.2365 -1.3236
  220MOL0     H29669   5.159   3.650   6.847 -1.8936  2.8630 -2.7300
  220MOL0     H29670   5.217   3.390   6.715 -3.3477  1.9431 -1.7617
  220MOL0     H29671   5.170   3.426   6.877 -2.9864  0.8406 -2.4584
  220MOL0     H29672   5.412   3.515   6.724 -0.7083 -2.2507 -0.6333
  220MOL0     H29673   5.375   3.589   6.882  0.7440  1.1210 -0.7214
  220MOL0     H29674   5.434   3.286   6.834  1.2577  1.1698 -1.0450
  220MOL0     H29675   5.375   3.365   6.985 -3.2295 -4.5744 -2.8223
  220MOL0     H29676   5.620   3.439   6.817  1.0504 -0.2439  0.9720
  220MOL0     H29677   5.600   3.495   6.975 -1.0887 -0.6778 -0.5866
  220MOL0     H29678   5.647   3.194   6.916 -0.7018 -0.2537  0.2910
  220MOL0     H29679   5.621   3.276   7.077 -1.6265  2.9852 -0.2939
  220MOL0     H29680   5.861   3.266   7.038  2.7237 -0.1979 -0.9415
  220MOL0     H29681   5.812   3.431   6.984  0.0370 -0.2571 -0.3233
  220MOL0     H29682   4.827   3.903   6.613 -2.4245  0.9327  0.7354
  220MOL0     H29683   4.608   3.923   6.496  0.6639  0.0272 -0.4337
  220MOL0     H29684   4.074   3.775   6.658 -1.5989 -1.7228 -1.4753
  220MOL0     H29685   3.857   3.847   6.560  0.3860 -2.4984 -0.5347
  220MOL0     H29686   4.633   3.366   7.394  1.9924 -2.0924  0.3260
  220MOL0     H29687   4.846   3.342   7.466 -0.1147 -3.3353  1.4225
  220MOL0     H29688   5.193   3.479   7.968 -2.7820 -0.1553  1.0157
  220MOL0     H29689   5.409   3.377   8.046 -0.2710  0.4672  0.9752
  220MOL0     H29690   5.579   2.986   8.060 -2.2851  3.6280  2.1913
  220MOL0     H29691   5.434   2.944   7.973 -0.2935  1.0046 -0.3615
  220MOL0     H29692   5.552   2.911   7.775 -0.6420  1.8966 -1.1038
  220MOL0     H29693   5.683   2.891   7.891 -1.0584  1.3108  1.6446
  220MOL0     H29694   5.735   3.012   7.703 -1.5706  1.0367 -1.8251
  220MOL0     H29695   5.772   3.127   7.829 -0.1068  0.6881  0.2801
  220MOL0     H29696   5.588   3.265   7.786  0.4018  0.9740 -0.6749
  220MOL0     H29697   5.496   3.136   7.699  0.5084 -0.3995  2.6300
  220MOL0     H29698   5.729   3.299   7.385  2.2009  0.5518  1.0322
  220MOL0     H29699   5.295   3.020   7.818 -0.1824  0.5161 -4.2692
  220MOL0     H29700   5.092   3.125   7.745 -0.8913  0.3626 -0.8712
  221MOL0     O29701   2.935   2.820   0.641 -0.9542  0.5840  0.5477
  221MOL0     C29702   3.053   2.841   0.655 -0.1356 -0.2219  0.0589
  221MOL0     O29703   3.147   2.741   0.670  0.6706 -0.5080  0.1487
  221MOL0     C29704   3.122   2.607   0.676  0.3965 -0.6270 -0.0891
  221MOL0     C29705   3.029   2.540   0.601 -0.8522 -0.5578 -0.4292
  221MOL0     C29706   3.040   2.403   0.598 -0.0321 -0.2811 -0.2526
  221MOL0     C29707   3.143   2.332   0.663  0.7564  0.4844 -0.5175
  221MOL0     O29708   3.159   2.196   0.668  0.4749 -0.0231  0.2208
  221MOL0     C29709   3.085   2.121   0.565  0.6230  1.0719 -0.4868
  221MOL0     C29710   2.961   2.049   0.611 -0.3158 -0.0952  0.2426
  221MOL0     C29711   2.932   2.032   0.760 -0.2498 -0.0661  0.0276
  221MOL0     C29712   2.807   1.942   0.784 -0.3973 -0.8600 -0.1406
  221MOL0     C29713   2.675   2.008   0.739  1.1454 -0.7613 -0.0689
  221MOL0     C29714   2.561   1.911   0.763  0.7147 -0.8110 -0.8284
  221MOL0     C29715   2.439   1.986   0.778 -0.2855  0.4020 -0.7423
  221MOL0     C29716   2.317   1.903   0.750 -0.6015 -0.2227 -0.3944
  221MOL0     N29717   2.196   1.981   0.773 -0.2687 -0.0722 -0.6452
  221MOL0     C29718   2.134   2.058   0.679 -0.3006  0.5361 -0.1941
  221MOL0     C29719   2.015   2.093   0.733 -0.3065  0.4162  0.0363
  221MOL0     C29720   1.892   2.159   0.660 -0.6793  0.4025  0.8381
  221MOL0     C29721   1.926   2.301   0.610  0.6934  0.5480  0.5524
  221MOL0     C29722   1.809   2.363   0.529  0.0472 -0.1092 -0.2442
  221MOL0     C29723   1.846   2.511   0.510 -0.2405  0.5611 -0.2303
  221MOL0     O29724   1.949   2.525   0.408 -0.0888 -0.2688 -0.3854
  221MOL0     C29725   2.025   2.636   0.403 -0.4584  1.1551  0.7026
  221MOL0     C29726   2.142   2.612   0.340  0.0730 -0.6472  0.1994
  221MOL0     C29727   2.230   2.721   0.311  0.3506  0.4910 -0.0036
  221MOL0     C29728   2.352   2.694   0.223  1.1685 -0.4052 -0.5407
  221MOL0     C29729   2.195   2.856   0.342  0.9708  1.4392 -0.3383
  221MOL0     C29730   2.278   2.972   0.322  0.4025 -0.2031 -0.3347
  221MOL0     O29731   2.211   3.080   0.304 -0.7789 -0.6573  0.7583
  221MOL0     C29732   2.269   3.198   0.258  0.3861  0.4113 -0.0250
  221MOL0     C29733   2.255   3.245   0.127 -0.8176  0.3030  0.6269
  221MOL0     C29734   2.300   3.376   0.086 -0.7905  0.2221 -0.0144
  221MOL0     C29735   2.364   3.450   0.184 -0.1639 -0.6637  0.2756
  221MOL0     O29736   2.416   3.574   0.156 -0.8513 -0.0169 -0.2121
  221MOL0     C29737   2.553   3.600   0.171  0.0605  0.6750  0.6179
  221MOL0     C29738   2.604   3.727   0.111 -0.5276 -0.1167  0.5442
  221MOL0     C29739   2.571   3.744  -0.029 -0.1146 -0.5121  0.1964
  221MOL0     C29740   2.631   3.869  -0.107  0.4520 -0.5674  0.5505
  221MOL0     C29741   2.601   3.865  -0.261  0.5120 -0.2869 -0.4546
  221MOL0     C29742   2.691   3.962  -0.344  0.1250  0.1031  0.2154
  221MOL0     C29743   2.635   3.997  -0.475 -0.5602  0.9452  0.9448
  221MOL0     C29744   2.697   4.121  -0.537 -0.1288  0.5292 -0.5228
  221MOL0    Cl29745   2.594   4.173  -0.669  0.3784 -0.0007  0.2025
  221MOL0     C29746   2.389   3.394   0.308 -0.0009 -0.0226 -0.3638
  221MOL0     C29747   2.336   3.269   0.349  0.0946  1.0334  0.1217
  221MOL0     O29748   2.403   2.960   0.320 -0.2129  0.2480 -0.0639
  221MOL0     C29749   2.072   2.871   0.408 -0.4414  1.3077 -0.8201
  221MOL0     C29750   1.981   2.768   0.431  0.0210  0.9193  0.2751
  221MOL0     N29751   2.004   2.040   0.852  0.0157  0.8895 -0.5176
  221MOL0     N29752   2.113   1.972   0.883  0.7454 -0.2881  0.5310
  221MOL0     C29753   3.234   2.414   0.743  0.2123  0.4520  0.2139
  221MOL0     C29754   3.224   2.546   0.753  0.1442  0.2684  0.8002
  221MOL0     C29755   3.103   2.977   0.646 -0.3887  0.0038 -0.3492
  221MOL0     C29756   3.235   3.005   0.621  0.2758  0.5027  0.4524
  221MOL0     C29757   3.276   3.137   0.604 -0.2893  1.0128  0.3068
  221MOL0     C29758   3.188   3.244   0.637  1.0540 -0.0742 -0.5256
  221MOL0     O29759   3.238   3.370   0.628 -0.2042 -0.3447 -0.5622
  221MOL0     C29760   3.243   3.393   0.488 -0.7864  0.0448  0.8058
  221MOL0     C29761   3.288   3.541   0.456 -0.8868 -0.3152  0.9874
  221MOL0     C29762   3.315   3.540   0.302  0.0956  0.2362  0.4170
  221MOL0     C29763   3.354   3.681   0.255  0.3052 -0.2263  0.5403
  221MOL0     C29764   3.398   3.687   0.110 -0.0732 -0.7200  0.3631
  221MOL0     C29765   3.440   3.706  -0.005 -0.6942 -0.5620  0.1849
  221MOL0     C29766   3.057   3.219   0.672 -0.0392 -0.3327 -0.4009
  221MOL0     C29767   3.018   3.084   0.667 -0.4675 -0.1213 -0.2746
  221MOL0     H29768   2.960   2.590   0.533 -0.0732 -1.3468 -1.8337
  221MOL0     H29769   2.959   2.341   0.560  1.1684 -2.0743 -0.0077
  221MOL0     H29770   3.068   2.169   0.468 -0.2453 -1.4645 -1.6678
  221MOL0     H29771   3.155   2.040   0.542 -0.2450  0.6075 -1.5286
  221MOL0     H29772   2.876   2.107   0.572  0.6614  0.8088 -0.6089
  221MOL0     H29773   2.956   1.947   0.573  0.0444 -0.2347  0.5602
  221MOL0     H29774   3.021   1.985   0.803  0.0339 -0.3131 -0.8125
  221MOL0     H29775   2.929   2.124   0.819 -1.0466 -1.0989  1.6701
  221MOL0     H29776   2.831   1.855   0.722  0.7702 -0.9911  0.4661
  221MOL0     H29777   2.801   1.912   0.889  0.9925 -1.2582 -0.1600
  221MOL0     H29778   2.667   2.091   0.810  0.8633 -1.0393  0.2303
  221MOL0     H29779   2.675   2.044   0.636  0.6805 -2.0382 -0.5313
  221MOL0     H29780   2.567   1.838   0.682  0.6327  0.1112 -1.6763
  221MOL0     H29781   2.576   1.856   0.856  1.2637  1.2499  0.3633
  221MOL0     H29782   2.426   2.027   0.879 -0.8621 -0.1962 -0.5657
  221MOL0     H29783   2.434   2.072   0.711  1.6035  3.1097  2.2822
  221MOL0     H29784   2.311   1.809   0.806 -0.6512  1.3303  2.3448
  221MOL0     H29785   2.309   1.878   0.644 -0.1141  1.2112 -0.7919
  221MOL0     H29786   2.182   2.067   0.582  1.9682 -0.3268  0.7889
  221MOL0     H29787   1.884   2.090   0.576 -0.4374 -0.2519  1.3403
  221MOL0     H29788   1.812   2.146   0.733 -1.4598 -1.0697 -0.2287
  221MOL0     H29789   2.019   2.302   0.553  0.0417  0.8277 -0.5207
  221MOL0     H29790   1.948   2.370   0.692 -0.2880  3.5971 -1.5888
  221MOL0     H29791   1.716   2.348   0.584 -1.4285  1.1834 -2.2516
  221MOL0     H29792   1.801   2.328   0.425  4.6762  2.8704 -1.9057
  221MOL0     H29793   1.864   2.561   0.606 -0.3219  2.7696 -1.3037
  221MOL0     H29794   1.751   2.554   0.476  0.6219  1.5265 -1.5251
  221MOL0     H29795   2.165   2.513   0.303 -1.4448 -0.6266 -0.8684
  221MOL0     H29796   2.341   2.593   0.184  1.4568 -1.5345  2.0676
  221MOL0     H29797   2.362   2.768   0.143 -3.4310 -1.6633 -2.6178
  221MOL0     H29798   2.437   2.707   0.291 -2.0879  1.1674  3.6459
  221MOL0     H29799   2.218   3.175   0.053  1.9364 -0.8263  0.1727
  221MOL0     H29800   2.278   3.408  -0.015  0.4168  0.0942 -0.3263
  221MOL0     H29801   2.565   3.590   0.279 -0.0013 -1.0657  0.4939
  221MOL0     H29802   2.608   3.517   0.124 -0.7662 -0.3759  1.4546
  221MOL0     H29803   2.562   3.809   0.171  0.9705  0.7628  0.4206
  221MOL0     H29804   2.712   3.719   0.120 -0.7998 -3.4992  2.1135
  221MOL0     H29805   2.462   3.748  -0.033 -0.6874 -1.2125  6.2215
  221MOL0     H29806   2.596   3.650  -0.079  1.4797 -1.8801  3.2566
  221MOL0     H29807   2.585   3.958  -0.064 -0.3261 -0.3340 -0.7244
  221MOL0     H29808   2.738   3.886  -0.091 -0.1399  3.3335  1.3592
  221MOL0     H29809   2.495   3.892  -0.268  1.0956  2.5255  0.3579
  221MOL0     H29810   2.614   3.765  -0.304 -2.3357 -0.9847  0.0814
  221MOL0     H29811   2.690   4.048  -0.276  1.4377 -0.0693  0.4832
  221MOL0     H29812   2.792   3.926  -0.366 -0.3683  0.5674 -3.3271
  221MOL0     H29813   2.526   3.998  -0.477 -0.6065 -1.1732 -0.3859
  221MOL0     H29814   2.670   3.913  -0.535 -0.6227 -0.4601  2.7856
  221MOL0     H29815   2.790   4.086  -0.583 -0.3164  0.2368 -0.6847
  221MOL0     H29816   2.718   4.205  -0.470 -0.4052  0.1027  0.1106
  221MOL0     H29817   2.447   3.453   0.379  0.5430 -2.1021  1.0176
  221MOL0     H29818   2.342   3.218   0.445 -4.0605  1.4315  0.7681
  221MOL0     H29819   2.044   2.972   0.438 -0.6003  0.3495  2.8018
  221MOL0     H29820   1.878   2.781   0.464  0.3962 -0.2146  2.0852
  221MOL0     H29821   3.321   2.371   0.791  0.1882  2.5854  2.3588
  221MOL0     H29822   3.304   2.601   0.802  0.4516  1.2711 -0.7434
  221MOL0     H29823   3.313   2.932   0.600  1.7866  1.4668  2.3732
  221MOL0     H29824   3.380   3.164   0.584 -0.3687  1.5834  0.6328
  221MOL0     H29825   3.315   3.320   0.452  1.6037  0.0064  5.0186
  221MOL0     H29826   3.145   3.378   0.442  0.1327 -0.5326 -1.0206
  221MOL0     H29827   3.389   3.561   0.494  0.3317  0.2586 -2.2425
  221MOL0     H29828   3.217   3.620   0.484 -0.8558  1.6860 -3.6398
  221MOL0     H29829   3.216   3.516   0.261  0.5573  0.5209 -0.9051
  221MOL0     H29830   3.392   3.465   0.282  0.9708  1.3366 -0.4506
  221MOL0     H29831   3.438   3.713   0.317 -1.4807  0.0624  2.9238
  221MOL0     H29832   3.283   3.762   0.267 -0.8338 -0.6008 -2.5897
  221MOL0     H29833   3.473   3.706  -0.106  2.7769 -1.0945  1.2033
  221MOL0     H29834   2.992   3.300   0.705 -0.3324 -1.6796  2.6396
  221MOL0     H29835   2.917   3.052   0.687 -1.2893  2.1157 -0.5202
  222MOL0     O29836   0.460   4.818  10.783  0.3375  0.5182  0.4120
  222MOL0     C29837   0.567   4.797  10.734 -0.3914  0.8344  0.4711
  222MOL0     O29838   0.670   4.749  10.796  0.5257  0.6352  0.3136
  222MOL0     C29839   0.672   4.702  10.924  0.0506 -0.4016  0.4984
  222MOL0     C29840   0.791   4.713  10.993  0.8117 -0.2035  0.3080
  222MOL0     C29841   0.814   4.665  11.121  0.4609 -1.4042  0.5732
  222MOL0     C29842   0.708   4.624  11.203  0.9679 -0.1245 -0.2707
  222MOL0     O29843   0.716   4.559  11.330  1.1712 -0.4485 -0.1475
  222MOL0     C29844   0.840   4.559  11.384 -0.9296  0.1101 -0.7783
  222MOL0     C29845   0.840   4.504  11.529 -0.8593  0.0848 -0.4585
  222MOL0     C29846   0.766   4.368  11.526 -0.1574  0.0214 -0.0180
  222MOL0     C29847   0.623   4.359  11.559 -0.0184  0.5997 -0.6472
  222MOL0     C29848   0.596   4.362  11.713 -1.2002  0.0759 -0.7711
  222MOL0     C29849   0.446   4.353  11.743 -0.1284 -1.1650  0.7381
  222MOL0     C29850   0.395   4.213  11.723 -0.1622 -1.2212 -0.1016
  222MOL0     C29851   0.255   4.194  11.772 -0.2421 -0.4459 -0.7530
  222MOL0     N29852   0.194   4.086  11.706  0.6563 -0.5541  0.6201
  222MOL0     C29853   0.161   4.081  11.571 -0.8351  1.1384 -0.1116
  222MOL0     C29854   0.109   3.954  11.558  0.3208 -0.3781 -0.4731
  222MOL0     C29855   0.064   3.863  11.442 -0.1764 -0.2590  0.0947
  222MOL0     C29856   0.022   3.944  11.314 -0.6891  0.6594  0.0731
  222MOL0     C29857   0.016   3.859  11.176 -0.3968  0.0652  0.7901
  222MOL0     C29858   0.012   3.951  11.052  0.1505 -0.8144 -0.9349
  222MOL0     O29859  -0.123   4.003  11.037 -0.0771  0.2655  0.4589
  222MOL0     C29860  -0.157   4.041  10.913  0.1525 -0.9283  0.0624
  222MOL0     C29861  -0.199   4.176  10.888  0.2890 -0.1007 -0.4607
  222MOL0     C29862  -0.222   4.226  10.755  0.4051 -0.3172 -0.1682
  222MOL0     C29863  -0.269   4.363  10.740  0.9456 -0.6869  0.3500
  222MOL0     C29864  -0.211   4.123  10.651  0.6162 -0.2778  0.5347
  222MOL0     C29865  -0.229   4.154  10.508 -1.2614  0.3032 -0.9836
  222MOL0     O29866  -0.209   4.057  10.416  0.6580 -0.7126 -0.1552
  222MOL0     C29867  -0.218   4.094  10.289  0.5341 -0.1103  0.5070
  222MOL0     C29868  -0.342   4.135  10.234  0.3500 -0.2334 -0.5902
  222MOL0     C29869  -0.340   4.180  10.098 -0.2470  0.8042 -0.4029
  222MOL0     C29870  -0.226   4.181  10.018 -0.3055 -0.4958 -0.4164
  222MOL0     O29871  -0.230   4.228   9.890 -0.4248 -0.2303  0.7442
  222MOL0     C29872  -0.170   4.146   9.784 -0.3399 -0.5260  0.5912
  222MOL0     C29873  -0.218   4.202   9.644 -0.1665 -0.5468  0.4035
  222MOL0     C29874  -0.176   4.349   9.616 -0.4985  0.3041  0.7664
  222MOL0     C29875  -0.211   4.388   9.467 -0.1501 -0.0377 -0.0408
  222MOL0     C29876  -0.196   4.539   9.439  1.1007  0.0348 -0.8178
  222MOL0     C29877  -0.255   4.584   9.304 -0.2694 -0.0097 -0.6569
  222MOL0     C29878  -0.409   4.571   9.297  0.4633  0.4132 -0.2414
  222MOL0     C29879  -0.468   4.624   9.164  0.5132 -0.0918 -0.7801
  222MOL0    Cl29880  -0.426   4.791   9.135  0.3499  0.2112  0.1481
  222MOL0     C29881  -0.110   4.116  10.071 -1.5572 -0.2855  0.2340
  222MOL0     C29882  -0.109   4.077  10.201 -0.2627 -0.6965 -0.4324
  222MOL0     O29883  -0.266   4.266  10.486 -0.2786 -0.9386 -0.0780
  222MOL0     C29884  -0.173   3.989  10.680 -0.5612  0.1661 -0.2162
  222MOL0     C29885  -0.154   3.944  10.813 -0.5857 -0.5207  0.5271
  222MOL0     N29886   0.122   3.893  11.674  0.9501  1.4106  0.1272
  222MOL0     N29887   0.174   3.964  11.764  0.5863  0.0989 -0.4031
  222MOL0     C29888   0.580   4.617  11.140  0.3653  0.2427 -0.3862
  222MOL0     C29889   0.564   4.656  11.004 -0.2403 -0.2051 -0.6531
  222MOL0     C29890   0.595   4.841  10.593 -0.6557  0.1462 -0.6805
  222MOL0     C29891   0.493   4.892  10.514  0.2747  0.0801  0.0335
  222MOL0     C29892   0.505   4.934  10.378 -0.6778  0.0981 -0.4709
  222MOL0     C29893   0.629   4.946  10.323 -0.3868 -0.1305 -0.2051
  222MOL0     O29894   0.657   5.009  10.203 -0.7870 -0.0650  0.0883
  222MOL0     C29895   0.563   5.068  10.114  0.1422 -0.0326  0.0059
  222MOL0     C29896   0.533   5.002   9.977 -0.1898 -0.2419  0.4481
  222MOL0     C29897   0.455   4.868   9.995 -0.0596  0.4879 -0.0853
  222MOL0     C29898   0.298   4.873   9.990 -0.2527  0.1413  0.1317
  222MOL0     C29899   0.267   4.915   9.850 -0.4784  0.6719 -0.9286
  222MOL0     C29900   0.226   4.956   9.743 -0.0860 -0.4179  0.0918
  222MOL0     C29901   0.744   4.907  10.403 -0.0745 -0.2549 -0.2248
  222MOL0     C29902   0.730   4.868  10.544 -0.9938  0.7327 -0.0101
  222MOL0     H29903   0.884   4.757  10.960  0.4017 -0.7685 -1.7310
  222MOL0     H29904   0.916   4.668  11.157  1.7024  1.0896 -2.5780
  222MOL0     H29905   0.903   4.487  11.330  0.8527  1.0911 -0.0913
  222MOL0     H29906   0.882   4.660  11.381  0.0931 -0.2891 -0.4348
  222MOL0     H29907   0.944   4.493  11.561 -0.5244  1.8865 -0.8437
  222MOL0     H29908   0.795   4.574  11.600 -1.6212  1.2725 -2.0421
  222MOL0     H29909   0.774   4.338  11.421 -0.4250 -0.1595  0.0120
  222MOL0     H29910   0.822   4.300  11.590  0.0824 -0.4362 -0.7084
  222MOL0     H29911   0.569   4.440  11.508 -0.7196  1.3790  1.2556
  222MOL0     H29912   0.576   4.269  11.518 -2.7243 -0.2821  3.7104
  222MOL0     H29913   0.640   4.275  11.763 -0.2309  0.0962 -1.5502
  222MOL0     H29914   0.647   4.448  11.760 -0.3577 -0.9707  0.3097
  222MOL0     H29915   0.436   4.384  11.847 -0.4258 -1.8946  0.9255
  222MOL0     H29916   0.390   4.415  11.672 -1.4448 -3.3707 -0.2488
  222MOL0     H29917   0.399   4.201  11.615 -0.7408 -0.1552 -0.2491
  222MOL0     H29918   0.455   4.140  11.779  4.0958  1.4833 -0.6841
  222MOL0     H29919   0.196   4.286  11.768 -1.6272 -1.1965  1.2131
  222MOL0     H29920   0.253   4.174  11.879  1.1163  1.3421 -0.3530
  222MOL0     H29921   0.167   4.154  11.491 -2.7000  0.7016 -0.6885
  222MOL0     H29922   0.144   3.791  11.425 -0.7371 -1.4303  2.0783
  222MOL0     H29923  -0.020   3.803  11.479 -1.2437  1.0691 -0.0958
  222MOL0     H29924   0.103   4.017  11.300  0.3219  0.0319  2.1756
  222MOL0     H29925  -0.071   3.996  11.338 -1.6417 -0.1700 -1.6797
  222MOL0     H29926  -0.067   3.787  11.175 -0.5673  0.2333  1.7090
  222MOL0     H29927   0.109   3.801  11.170 -0.1816  0.5434 -2.6827
  222MOL0     H29928   0.054   3.906  10.961  0.5115  1.8609 -2.1866
  222MOL0     H29929   0.074   4.040  11.062 -0.3731 -0.4788 -0.6451
  222MOL0     H29930  -0.220   4.247  10.967 -0.5889 -1.2426  0.3774
  222MOL0     H29931  -0.376   4.358  10.718  0.8632 -1.3875  0.8765
  222MOL0     H29932  -0.266   4.422  10.832  2.2322 -0.2438  0.0451
  222MOL0     H29933  -0.205   4.402  10.660  2.4378 -1.1218  1.2901
  222MOL0     H29934  -0.428   4.157  10.296  0.6749  0.8458 -0.5010
  222MOL0     H29935  -0.427   4.233  10.061 -1.4472 -1.3715 -0.8666
  222MOL0     H29936  -0.061   4.148   9.789 -0.2309  3.2128 -0.1212
  222MOL0     H29937  -0.218   4.048   9.789  0.9555 -1.1496  1.3053
  222MOL0     H29938  -0.166   4.140   9.570  2.3630 -1.2600  2.6319
  222MOL0     H29939  -0.326   4.201   9.630 -0.1959 -2.9832  0.3616
  222MOL0     H29940  -0.069   4.365   9.635 -0.7572  1.4118  1.3986
  222MOL0     H29941  -0.230   4.417   9.682  2.5757  0.9430  2.8610
  222MOL0     H29942  -0.143   4.339   9.397  0.2730  0.0348  0.3168
  222MOL0     H29943  -0.314   4.358   9.444 -0.4676  2.2672 -1.9014
  222MOL0     H29944  -0.087   4.546   9.424  1.1986 -0.1073 -0.1737
  222MOL0     H29945  -0.236   4.595   9.523 -3.5899 -3.7495 -0.1614
  222MOL0     H29946  -0.231   4.691   9.294 -4.5548  1.0763 -1.3806
  222MOL0     H29947  -0.214   4.522   9.224 -2.3879  0.0520 -1.8605
  222MOL0     H29948  -0.458   4.623   9.380  1.7201 -0.5264  1.1408
  222MOL0     H29949  -0.442   4.466   9.299 -1.8796  1.0917  0.6286
  222MOL0     H29950  -0.577   4.619   9.161  0.2429  3.7290 -2.7047
  222MOL0     H29951  -0.431   4.572   9.075 -0.3787  1.4113 -2.0699
  222MOL0     H29952  -0.028   4.110  10.001  1.0249 -1.3926  3.1529
  222MOL0     H29953  -0.019   4.029  10.240 -0.4255 -2.1541 -1.7282
  222MOL0     H29954  -0.179   3.910  10.605 -2.0403 -3.2164  3.1216
  222MOL0     H29955  -0.142   3.839  10.840  1.2867 -1.0432 -1.9720
  222MOL0     H29956   0.509   4.571  11.207  0.0482 -0.1255 -0.9643
  222MOL0     H29957   0.477   4.646  10.940 -0.5033 -0.9898 -0.1833
  222MOL0     H29958   0.401   4.883  10.572 -0.0551  1.6913 -0.1942
  222MOL0     H29959   0.422   4.970  10.318 -0.2535  1.2281 -0.4096
  222MOL0     H29960   0.477   5.106  10.169  1.3171  0.1970  1.7844
  222MOL0     H29961   0.603   5.160  10.072  0.1819 -0.4400 -0.8631
  222MOL0     H29962   0.624   4.984   9.919 -1.2039  1.0781 -1.6716
  222MOL0     H29963   0.476   5.069   9.913  2.9779  1.1215 -1.1491
  222MOL0     H29964   0.476   4.825  10.093  0.3034 -0.7067 -0.6696
  222MOL0     H29965   0.481   4.791   9.921  1.4391  1.6529 -0.8187
  222MOL0     H29966   0.254   4.946  10.058 -1.3028 -1.6135  1.4344
  222MOL0     H29967   0.256   4.772   9.997 -0.8147  0.4252  1.0367
  222MOL0     H29968   0.182   5.003   9.657  2.3244 -0.2823 -1.1410
  222MOL0     H29969   0.842   4.940  10.372 -0.5372  2.6399  1.0588
  222MOL0     H29970   0.814   4.865  10.612 -1.9363 -0.6003  1.1540
  223MOL0     O29971  11.307   9.089   4.943  0.3741  0.1459 -0.0881
  223MOL0     C29972  11.345   9.190   5.006 -0.0834  0.6059 -0.6911
  223MOL0     O29973  11.259   9.284   5.054 -0.2912 -0.0667  0.1985
  223MOL0     C29974  11.126   9.261   5.066 -0.1695 -0.1412  0.7787
  223MOL0     C29975  11.087   9.226   5.189 -0.1160  1.0133 -0.7749
  223MOL0     C29976  10.948   9.216   5.221 -0.7939 -0.4125  0.3494
  223MOL0     C29977  10.859   9.223   5.115 -0.3220 -0.4722  0.9845
  223MOL0     O29978  10.724   9.216   5.141  0.4442  0.1742  0.9439
  223MOL0     C29979  10.647   9.349   5.132 -0.9593 -0.3178 -0.1585
  223MOL0     C29980  10.515   9.344   5.197  0.8276  0.1499  0.7742
  223MOL0     C29981  10.434   9.254   5.098  0.2729  0.6193 -0.1122
  223MOL0     C29982  10.296   9.218   5.152 -0.4955  0.1594  1.0937
  223MOL0     C29983  10.214   9.145   5.042 -0.0007 -0.7381 -0.7576
  223MOL0     C29984  10.266   8.996   5.017  0.3797  0.3506  0.2389
  223MOL0     C29985  10.169   8.933   4.900  0.3180  0.1349 -0.5245
  223MOL0     C29986  10.037   8.875   4.963 -0.3790  0.1373  0.2197
  223MOL0     N29987   9.922   8.931   4.891 -0.2255 -0.5797  0.1107
  223MOL0     C29988   9.833   9.023   4.951 -0.2443 -0.0498 -0.3760
  223MOL0     C29989   9.730   9.033   4.869  0.1042 -0.4652 -0.0258
  223MOL0     C29990   9.607   9.114   4.877  0.8867 -0.2886 -0.4986
  223MOL0     C29991   9.614   9.228   4.781 -0.5770  0.0593  0.4010
  223MOL0     C29992   9.705   9.338   4.837 -0.0227 -0.8188  0.0202
  223MOL0     C29993   9.772   9.432   4.734  0.0661  1.2146 -0.7482
  223MOL0     O29994   9.899   9.471   4.772  0.2125 -0.3885  0.1384
  223MOL0     C29995  10.011   9.400   4.727 -0.2727  0.3530  0.1212
  223MOL0     C29996  10.014   9.271   4.678  0.3282 -0.3815 -0.4888
  223MOL0     C29997  10.133   9.215   4.636 -0.1393 -0.6432  0.1399
  223MOL0     C29998  10.126   9.076   4.564 -0.0625  0.1449 -0.3553
  223MOL0     C29999  10.253   9.283   4.647 -1.0396  1.1407  0.5914
  223MOL0     C30000  10.381   9.233   4.609 -0.6726  1.4682 -0.1857
  223MOL0     O30001  10.467   9.206   4.704 -0.4768 -1.1145 -1.0109
  223MOL0     C30002  10.587   9.142   4.667  0.5189  0.0397 -0.4764
  223MOL0     C30003  10.606   9.002   4.655  0.2317  0.0204 -0.0738
  223MOL0     C30004  10.735   8.946   4.623  0.0711 -0.3187 -0.3703
  223MOL0     C30005  10.840   9.033   4.609 -0.6871 -0.2177 -0.1085
  223MOL0     O30006  10.960   8.978   4.562  0.2391  0.5867  0.3471
  223MOL0     C30007  11.091   9.040   4.582  0.1484 -0.7564 -0.2453
  223MOL0     C30008  11.204   8.946   4.542  0.6894 -0.4529  0.2815
  223MOL0     C30009  11.340   8.970   4.623  0.1817 -0.5758  0.1071
  223MOL0     C30010  11.450   8.906   4.545 -0.2034 -0.7372  0.1412
  223MOL0     C30011  11.460   8.757   4.566 -0.5407 -0.8920 -0.1938
  223MOL0     C30012  11.529   8.744   4.711  0.1612  0.2107  0.0949
  223MOL0     C30013  11.588   8.604   4.742 -0.2283  0.2041  0.4043
  223MOL0     C30014  11.684   8.546   4.641 -0.1922 -0.9428 -0.0484
  223MOL0    Cl30015  11.745   8.384   4.690  0.2300  0.0273 -0.3189
  223MOL0     C30016  10.831   9.168   4.633  0.5712 -0.5065  1.5874
  223MOL0     C30017  10.707   9.224   4.660  0.4479  0.5458 -0.4728
  223MOL0     O30018  10.402   9.207   4.484  0.4616  0.0174 -0.4105
  223MOL0     C30019  10.255   9.409   4.698 -0.9022  0.4790 -0.2799
  223MOL0     C30020  10.134   9.462   4.738 -0.3478 -1.1182  0.3477
  223MOL0     N30021   9.757   8.948   4.765  0.7693 -0.7914 -1.2988
  223MOL0     N30022   9.873   8.890   4.776 -0.2783  0.3659  0.2538
  223MOL0     C30023  10.902   9.269   4.990 -0.0193  0.4485  0.2067
  223MOL0     C30024  11.035   9.287   4.962 -1.3229 -1.0298  1.0090
  223MOL0     C30025  11.487   9.211   5.012 -0.0608 -0.4217  0.4178
  223MOL0     C30026  11.543   9.283   5.121  0.5284 -0.0034  0.5874
  223MOL0     C30027  11.679   9.291   5.147 -0.9039  0.3883  0.4825
  223MOL0     C30028  11.769   9.248   5.047  0.8606 -0.2745 -0.2648
  223MOL0     O30029  11.905   9.236   5.056 -0.0513  0.6777  0.0284
  223MOL0     C30030  11.971   9.327   5.153 -0.1491 -0.2794  0.5841
  223MOL0     C30031  12.128   9.311   5.135 -0.1381  0.3935  0.2839
  223MOL0     C30032  12.189   9.390   5.242  0.4143 -0.1767  0.3664
  223MOL0     C30033  12.335   9.431   5.205  0.3986  0.1645  0.7785
  223MOL0     C30034  12.416   9.495   5.314  0.0097  0.9165 -0.0247
  223MOL0     C30035  12.466   9.549   5.411 -0.8609  0.8540 -0.3391
  223MOL0     C30036  11.712   9.169   4.938 -0.2694 -0.8094 -0.3329
  223MOL0     C30037  11.573   9.167   4.916  0.1502 -0.5646 -0.6319
  223MOL0     H30038  11.160   9.218   5.270 -2.7561  1.0040  1.7744
  223MOL0     H30039  10.920   9.176   5.318  1.1470 -3.1786 -0.1341
  223MOL0     H30040  10.719   9.421   5.171 -2.6215  0.9740  0.6689
  223MOL0     H30041  10.635   9.379   5.027  0.7221 -2.1417 -0.9340
  223MOL0     H30042  10.519   9.292   5.294 -1.9156 -1.3237  0.1877
  223MOL0     H30043  10.477   9.446   5.207 -2.9707 -0.9688 -0.6948
  223MOL0     H30044  10.428   9.312   5.005  4.0112  1.6787  0.1415
  223MOL0     H30045  10.494   9.165   5.078  0.6932  1.2469 -1.8176
  223MOL0     H30046  10.297   9.151   5.239 -1.5067 -0.7906  0.4128
  223MOL0     H30047  10.251   9.314   5.177 -0.0175  0.8595 -0.5775
  223MOL0     H30048  10.109   9.134   5.069 -0.3440  0.8780 -1.3364
  223MOL0     H30049  10.225   9.200   4.947  1.3226  2.7977  1.2640
  223MOL0     H30050  10.366   8.999   4.973  0.5654  2.1589  0.7266
  223MOL0     H30051  10.278   8.937   5.108  0.9878  0.9384  0.5485
  223MOL0     H30052  10.137   9.004   4.823 -2.3755  0.5518  0.8593
  223MOL0     H30053  10.226   8.856   4.847  1.5335  2.4795 -2.8257
  223MOL0     H30054  10.041   8.890   5.071  0.2293 -0.8932  0.3537
  223MOL0     H30055  10.022   8.767   4.966 -0.8536  0.2224  1.7353
  223MOL0     H30056   9.854   9.068   5.048 -3.4866  0.2813  0.2699
  223MOL0     H30057   9.518   9.056   4.850 -0.3337 -0.5122  3.3995
  223MOL0     H30058   9.582   9.143   4.979 -0.6425 -0.6049 -0.7570
  223MOL0     H30059   9.517   9.278   4.775 -1.3097 -1.5051 -2.6699
  223MOL0     H30060   9.649   9.193   4.683  0.8839  1.2470  0.4503
  223MOL0     H30061   9.786   9.286   4.889  3.8488  3.2257 -1.4171
  223MOL0     H30062   9.639   9.390   4.907 -0.0391 -2.9370  1.6992
  223MOL0     H30063   9.715   9.526   4.731 -0.2621  1.0525  0.2476
  223MOL0     H30064   9.787   9.378   4.640 -3.3329  0.1862 -0.8618
  223MOL0     H30065   9.925   9.208   4.686  0.5195 -0.5029  0.8174
  223MOL0     H30066  10.190   9.002   4.614  2.6633  0.8693 -2.5068
  223MOL0     H30067  10.021   9.047   4.556 -0.5125  1.5553  0.1573
  223MOL0     H30068  10.169   9.091   4.464  2.6612 -0.7462  0.5856
  223MOL0     H30069  10.518   8.941   4.673 -0.9298  2.0544  1.5132
  223MOL0     H30070  10.741   8.839   4.604  0.7381 -0.3794  0.1655
  223MOL0     H30071  11.102   9.128   4.518 -1.8715 -1.2228 -1.3277
  223MOL0     H30072  11.097   9.059   4.690 -0.4883 -0.4621 -0.2536
  223MOL0     H30073  11.172   8.843   4.563 -3.6027 -0.0027 -2.7128
  223MOL0     H30074  11.222   8.961   4.435 -1.0081  1.6970  0.2294
  223MOL0     H30075  11.328   8.923   4.721 -0.9837 -1.3689 -0.4025
  223MOL0     H30076  11.357   9.077   4.637 -0.1839 -0.4126 -0.6734
  223MOL0     H30077  11.445   8.932   4.439  1.9090  1.1598  0.4240
  223MOL0     H30078  11.538   8.965   4.574 -0.0391 -0.1710 -1.4059
  223MOL0     H30079  11.528   8.724   4.487  0.9206 -1.4362  1.2264
  223MOL0     H30080  11.361   8.713   4.573 -0.6416 -0.4473  1.8776
  223MOL0     H30081  11.612   8.814   4.722 -1.2723  1.7117  2.2141
  223MOL0     H30082  11.462   8.767   4.795 -0.3425  0.1356 -0.2804
  223MOL0     H30083  11.509   8.528   4.742  0.8591 -0.9430  1.0401
  223MOL0     H30084  11.632   8.603   4.842  0.7879 -0.6575 -0.0408
  223MOL0     H30085  11.767   8.618   4.636  1.0193 -2.1948  1.0226
  223MOL0     H30086  11.643   8.540   4.540 -2.2044 -1.2810  0.7588
  223MOL0     H30087  10.915   9.230   4.603 -1.4250  0.4903 -2.6873
  223MOL0     H30088  10.707   9.328   4.692 -0.0377  0.6578 -0.8322
  223MOL0     H30089  10.349   9.458   4.720 -1.2487  1.2171 -0.4041
  223MOL0     H30090  10.146   9.559   4.785  2.0319 -2.1932  2.1737
  223MOL0     H30091  10.829   9.275   4.910  0.7611  0.9406 -0.4755
  223MOL0     H30092  11.067   9.316   4.863 -0.3172 -1.2801  1.2423
  223MOL0     H30093  11.473   9.326   5.192 -0.9876 -0.9900 -0.2550
  223MOL0     H30094  11.731   9.334   5.231  1.4391 -0.7556 -0.2942
  223MOL0     H30095  11.933   9.427   5.130 -1.6169 -0.3779  2.3244
  223MOL0     H30096  11.937   9.299   5.253  1.2660  0.8009  1.3914
  223MOL0     H30097  12.173   9.322   5.036  0.7518 -3.2994  0.1376
  223MOL0     H30098  12.155   9.206   5.152  4.4767  1.4107  0.4588
  223MOL0     H30099  12.190   9.331   5.334 -1.0933 -0.2590  0.3430
  223MOL0     H30100  12.131   9.482   5.251  2.1219  1.3139 -2.3013
  223MOL0     H30101  12.335   9.504   5.123 -0.0151  2.4898  2.7399
  223MOL0     H30102  12.385   9.339   5.171  1.1934  1.5474 -2.0894
  223MOL0     H30103  12.520   9.584   5.496 -1.2185  1.0767 -0.2016
  223MOL0     H30104  11.779   9.117   4.870  2.9085  0.3323  1.7145
  223MOL0     H30105  11.526   9.111   4.836 -2.1523  1.7558 -1.0419
  224MOL0     O30106   1.856   6.847   8.895 -0.7309  0.2089 -0.4777
  224MOL0     C30107   1.970   6.817   8.929  0.3085 -0.0670  0.4607
  224MOL0     O30108   2.008   6.700   8.958  0.4420  0.1285 -0.4528
  224MOL0     C30109   1.945   6.593   8.905  0.5317  0.9711 -0.1382
  224MOL0     C30110   2.030   6.524   8.814 -0.2064 -0.4621  0.5746
  224MOL0     C30111   1.985   6.408   8.750  0.8765 -0.0003 -0.3437
  224MOL0     C30112   1.856   6.360   8.789  0.2430  1.6582 -0.0011
  224MOL0     O30113   1.791   6.249   8.730  0.5245  0.6248  0.0027
  224MOL0     C30114   1.856   6.219   8.603  0.2585  0.9498  0.3138
  224MOL0     C30115   1.779   6.097   8.559  0.5599 -0.1441 -0.4076
  224MOL0     C30116   1.777   5.979   8.650 -0.3257  0.2799  0.3439
  224MOL0     C30117   1.918   5.917   8.667  0.3923 -0.6203 -0.3785
  224MOL0     C30118   1.916   5.773   8.721  0.4676 -0.0972 -0.0268
  224MOL0     C30119   2.062   5.719   8.722  0.1674 -0.8353 -0.3152
  224MOL0     C30120   2.084   5.581   8.784 -0.0874  0.4266  0.3628
  224MOL0     C30121   2.085   5.589   8.937  0.6144 -0.2448  0.7201
  224MOL0     N30122   2.212   5.653   8.980  0.1158  0.2777 -0.5088
  224MOL0     C30123   2.237   5.699   9.114  0.7057  0.2659 -0.4365
  224MOL0     C30124   2.367   5.721   9.119 -0.6368  0.5653 -0.6091
  224MOL0     C30125   2.443   5.772   9.244 -0.7630 -0.5053 -0.1353
  224MOL0     C30126   2.445   5.666   9.358 -0.6911  0.4968  0.6758
  224MOL0     C30127   2.543   5.711   9.467  0.7245  0.1058  0.6914
  224MOL0     C30128   2.516   5.672   9.614  0.1074  0.6108  0.7092
  224MOL0     O30129   2.597   5.754   9.699 -0.0024  0.4740 -0.0627
  224MOL0     C30130   2.711   5.687   9.727 -0.1456 -0.4583  0.6418
  224MOL0     C30131   2.829   5.739   9.674  0.3041  0.1985  0.2613
  224MOL0     C30132   2.954   5.686   9.697  0.8263  0.2401  0.3480
  224MOL0     C30133   3.068   5.751   9.634 -0.3006 -0.7760  0.0681
  224MOL0     C30134   2.956   5.558   9.766  0.2611 -0.4920 -0.1012
  224MOL0     C30135   3.073   5.479   9.792  0.3259  0.1729  0.1587
  224MOL0     O30136   3.196   5.535   9.787  0.1242 -0.0709 -0.2103
  224MOL0     C30137   3.293   5.456   9.845 -0.1213  0.0433  0.4127
  224MOL0     C30138   3.375   5.395   9.759 -0.2615 -0.4149 -0.1183
  224MOL0     C30139   3.493   5.341   9.792 -0.3351  0.7178 -1.2217
  224MOL0     C30140   3.529   5.342   9.930 -0.3157 -0.7822 -0.3133
  224MOL0     O30141   3.647   5.292   9.978  0.2405  0.1430  0.3990
  224MOL0     C30142   3.716   5.173   9.922  1.0891 -0.9598  0.3873
  224MOL0     C30143   3.827   5.154  10.025 -0.7155  0.0749 -0.4530
  224MOL0     C30144   3.943   5.255  10.033  0.2854  0.0339  0.8551
  224MOL0     C30145   4.060   5.249   9.932 -0.1425 -0.7286 -0.4998
  224MOL0     C30146   4.155   5.365   9.939  0.2679  0.3255 -0.1548
  224MOL0     C30147   4.283   5.359   9.853 -0.1069 -0.2616  0.1985
  224MOL0     C30148   4.410   5.412   9.919  0.7665 -0.0362  0.7479
  224MOL0     C30149   4.516   5.470   9.828  0.0744 -0.5732  0.2454
  224MOL0    Cl30150   4.580   5.344   9.720 -0.2551  0.1640 -0.1482
  224MOL0     C30151   3.448   5.410  10.022  0.4876 -0.2605 -0.4894
  224MOL0     C30152   3.327   5.467   9.981 -0.8088 -0.0635 -0.8967
  224MOL0     O30153   3.061   5.357   9.784  0.1669 -0.9635  0.4945
  224MOL0     C30154   2.848   5.508   9.827  0.2596  0.4530  0.1841
  224MOL0     C30155   2.718   5.569   9.803 -0.4639  0.0886 -0.8500
  224MOL0     N30156   2.426   5.674   8.995  0.1985 -0.1045 -0.5549
  224MOL0     N30157   2.329   5.615   8.931  0.0593 -0.8396 -0.0675
  224MOL0     C30158   1.774   6.419   8.883  0.1170 -0.3213 -0.3466
  224MOL0     C30159   1.822   6.542   8.941  0.1887  0.1944  0.4770
  224MOL0     C30160   2.066   6.935   8.927 -0.5978  0.8660  0.1902
  224MOL0     C30161   2.200   6.914   8.964  0.9982 -0.3442  0.6337
  224MOL0     C30162   2.280   7.025   8.966 -1.0994  0.2422 -0.0630
  224MOL0     C30163   2.241   7.153   8.934 -0.4490 -0.2971 -0.0583
  224MOL0     O30164   2.341   7.257   8.937 -0.1109  0.9934  0.3446
  224MOL0     C30165   2.320   7.385   8.858  0.6653  0.2237 -0.1929
  224MOL0     C30166   2.279   7.505   8.941  0.1022  1.1375 -0.5830
  224MOL0     C30167   2.279   7.634   8.866  0.2601 -0.4476 -0.5707
  224MOL0     C30168   2.278   7.751   8.964  0.2416  0.6914 -0.6118
  224MOL0     C30169   2.418   7.785   9.002  0.4094  0.1612 -0.2765
  224MOL0     C30170   2.524   7.831   9.031  0.2703 -1.3275  1.2202
  224MOL0     C30171   2.111   7.166   8.902  0.3079  0.1545  0.5478
  224MOL0     C30172   2.021   7.062   8.894 -1.3770  0.6765 -0.0903
  224MOL0     H30173   2.127   6.566   8.789 -0.7585 -0.1640 -1.1603
  224MOL0     H30174   2.065   6.358   8.695  4.0541  3.7910  0.4122
  224MOL0     H30175   1.848   6.299   8.530 -4.7303  1.6163  1.2092
  224MOL0     H30176   1.962   6.192   8.595 -0.0467  0.1781 -1.7942
  224MOL0     H30177   1.676   6.133   8.555  0.1107 -0.7866  2.6606
  224MOL0     H30178   1.799   6.056   8.460 -0.1713  0.1001 -0.6633
  224MOL0     H30179   1.742   6.014   8.748 -0.6746 -0.1731  0.3888
  224MOL0     H30180   1.713   5.897   8.615  0.7470  0.1640 -1.4404
  224MOL0     H30181   1.961   5.905   8.567  1.6563  0.9192 -0.0545
  224MOL0     H30182   1.971   5.990   8.728 -3.2006  0.6386  1.5698
  224MOL0     H30183   1.877   5.766   8.823 -2.7112 -1.1107 -1.1996
  224MOL0     H30184   1.857   5.700   8.664  2.6536 -2.3576  0.4116
  224MOL0     H30185   2.116   5.704   8.628  4.5100 -3.1619  2.2163
  224MOL0     H30186   2.117   5.794   8.778 -1.1021 -0.7264  0.8391
  224MOL0     H30187   2.006   5.509   8.757  1.2111 -0.9731  0.2164
  224MOL0     H30188   2.182   5.539   8.759  0.0198 -0.9443  2.7544
  224MOL0     H30189   2.082   5.490   8.985 -2.9262 -0.8372 -0.3736
  224MOL0     H30190   1.986   5.628   8.962 -1.0701 -3.0713 -0.8578
  224MOL0     H30191   2.163   5.713   9.192  2.3536  1.4033  1.0180
  224MOL0     H30192   2.541   5.793   9.200 -1.2282  0.9490 -0.5118
  224MOL0     H30193   2.397   5.866   9.274  1.6158  0.4924  0.5762
  224MOL0     H30194   2.481   5.578   9.306 -1.2667  0.2889  0.6161
  224MOL0     H30195   2.343   5.645   9.391 -0.4434  0.0710  1.1768
  224MOL0     H30196   2.551   5.820   9.460  2.4373 -0.1027 -1.6227
  224MOL0     H30197   2.637   5.665   9.435 -0.2863 -0.3306 -1.8489
  224MOL0     H30198   2.525   5.564   9.629  0.9925  0.5835  0.0816
  224MOL0     H30199   2.414   5.704   9.638 -0.8990 -0.7491 -1.4760
  224MOL0     H30200   2.827   5.836   9.624  0.6618 -0.8459 -1.8660
  224MOL0     H30201   3.152   5.760   9.705 -1.3641 -1.4251  1.4552
  224MOL0     H30202   3.102   5.686   9.553 -1.2612 -2.9390  1.2988
  224MOL0     H30203   3.036   5.850   9.601  1.8115 -0.8580 -2.5678
  224MOL0     H30204   3.340   5.398   9.656 -0.4529  1.6475 -0.0293
  224MOL0     H30205   3.549   5.283   9.719 -0.7296 -2.9311  1.0692
  224MOL0     H30206   3.644   5.091   9.927 -2.8294  2.2133  1.7224
  224MOL0     H30207   3.760   5.198   9.825  1.2995  0.4260  0.8137
  224MOL0     H30208   3.785   5.152  10.126  1.3744 -1.9925  0.4637
  224MOL0     H30209   3.877   5.057  10.014  0.4997 -0.1269  4.4634
  224MOL0     H30210   3.982   5.236  10.133  2.3849  0.6625  0.2145
  224MOL0     H30211   3.893   5.353  10.028 -3.7040 -1.8450  0.1703
  224MOL0     H30212   4.123   5.162   9.951  0.4477  0.3160  3.1971
  224MOL0     H30213   4.024   5.244   9.829  1.6058  0.2470 -1.2086
  224MOL0     H30214   4.183   5.379  10.044  0.1603  0.0979 -0.0972
  224MOL0     H30215   4.101   5.458   9.917 -1.6197 -0.6760  0.0578
  224MOL0     H30216   4.301   5.256   9.822  1.0337  0.0444 -0.2318
  224MOL0     H30217   4.267   5.424   9.767  3.8646  0.4785 -0.1728
  224MOL0     H30218   4.460   5.339   9.983  1.2691 -1.4035 -1.1085
  224MOL0     H30219   4.379   5.490   9.989 -1.3900  1.1264 -1.3449
  224MOL0     H30220   4.593   5.508   9.896  0.0208 -1.5234  0.8558
  224MOL0     H30221   4.466   5.537   9.758  0.9347 -1.5837 -1.3944
  224MOL0     H30222   3.483   5.404  10.124 -2.3887  2.9468  0.9173
  224MOL0     H30223   3.269   5.519  10.056 -3.8902 -0.5766 -2.7453
  224MOL0     H30224   2.835   5.415   9.881 -1.4927 -0.4982 -1.7163
  224MOL0     H30225   2.635   5.523   9.855  0.8643  0.0951  1.4138
  224MOL0     H30226   1.679   6.376   8.914  0.2654 -1.7668 -1.7420
  224MOL0     H30227   1.754   6.597   9.005 -0.7229 -0.0399 -0.2566
  224MOL0     H30228   2.233   6.812   8.985  0.0269 -0.7716  0.1216
  224MOL0     H30229   2.381   7.009   9.004 -1.2019  0.7104  0.4211
  224MOL0     H30230   2.412   7.404   8.801  0.9355  3.4481  1.0917
  224MOL0     H30231   2.245   7.379   8.779  0.1694  1.2887  0.1766
  224MOL0     H30232   2.350   7.500   9.024  1.2216 -0.2343 -1.5719
  224MOL0     H30233   2.180   7.483   8.982 -0.3559  2.2485 -1.0886
  224MOL0     H30234   2.190   7.636   8.802 -0.3830 -1.2782  0.2693
  224MOL0     H30235   2.369   7.641   8.804  0.3436 -0.2920 -0.4329
  224MOL0     H30236   2.223   7.734   9.057  1.1315  0.4001 -0.1256
  224MOL0     H30237   2.230   7.837   8.918  0.9861  1.6358  0.3291
  224MOL0     H30238   2.625   7.859   9.055  0.1079  1.3274 -0.6669
  224MOL0     H30239   2.085   7.267   8.874  3.1109  1.1327  1.1625
  224MOL0     H30240   1.915   7.069   8.869 -2.2929 -3.8823  1.5381
  225MOL0     O30241   8.808   6.612  10.730  0.0939 -0.0826  0.8416
  225MOL0     C30242   8.860   6.509  10.689  0.2092 -0.2329  0.1026
  225MOL0     O30243   8.891   6.478  10.559  0.4674 -0.4694  0.0537
  225MOL0     C30244   8.870   6.566  10.450  0.0068  0.1265  0.4113
  225MOL0     C30245   8.775   6.674  10.448  0.3314  0.6654  0.2736
  225MOL0     C30246   8.750   6.752  10.332  0.5584 -0.7002 -1.2329
  225MOL0     C30247   8.833   6.739  10.219  0.1936  0.1480 -0.2523
  225MOL0     O30248   8.815   6.821  10.106 -0.2645  0.1315  0.2374
  225MOL0     C30249   8.707   6.920  10.088  0.8113 -1.2642 -0.8498
  225MOL0     C30250   8.760   7.059  10.139  0.6073 -0.0630 -0.1239
  225MOL0     C30251   8.698   7.181  10.060 -1.3225  0.0303  0.5470
  225MOL0     C30252   8.798   7.290  10.006  0.3222  0.2838 -0.4796
  225MOL0     C30253   8.728   7.392   9.920 -0.6071  0.5283 -0.2569
  225MOL0     C30254   8.795   7.518   9.882 -0.0485 -0.4450  0.2387
  225MOL0     C30255   8.920   7.500   9.788 -0.7898  0.3063  0.0083
  225MOL0     C30256   9.014   7.612   9.821  0.4299 -0.5213 -0.3251
  225MOL0     N30257   8.975   7.740   9.754  0.2617  0.7050 -0.7018
  225MOL0     C30258   8.900   7.834   9.807 -0.2301  0.1747  0.5170
  225MOL0     C30259   8.903   7.935   9.714 -0.3623 -0.0514 -0.1125
  225MOL0     C30260   8.835   8.066   9.720 -1.1598 -0.3611 -0.3205
  225MOL0     C30261   8.686   8.066   9.731  0.1780  0.6304 -0.0326
  225MOL0     C30262   8.639   8.207   9.749  0.4748  0.5295 -0.0868
  225MOL0     C30263   8.499   8.189   9.795 -0.0262  0.4438  0.1481
  225MOL0     O30264   8.468   8.328   9.804 -0.2397  0.2384  0.3988
  225MOL0     C30265   8.348   8.351   9.868  0.0926 -0.0513  0.0197
  225MOL0     C30266   8.239   8.273   9.848 -0.0418 -0.3472  0.8451
  225MOL0     C30267   8.116   8.312   9.903 -0.5527 -0.2288  1.0530
  225MOL0     C30268   8.002   8.229   9.862 -0.8206  0.5277  0.0581
  225MOL0     C30269   8.099   8.431   9.976 -0.0770 -0.3777  0.0172
  225MOL0     C30270   7.974   8.482  10.034  0.0206  1.1464 -0.8523
  225MOL0     O30271   7.880   8.385  10.065 -0.0342  0.6026  0.8129
  225MOL0     C30272   7.777   8.406  10.141 -0.3455 -0.2068 -0.2518
  225MOL0     C30273   7.646   8.373  10.096 -0.3290  0.6170  0.0365
  225MOL0     C30274   7.531   8.400  10.169  0.1502  0.3026  0.9228
  225MOL0     C30275   7.544   8.470  10.284  0.9466  0.4053  0.0172
  225MOL0     O30276   7.445   8.511  10.365  0.3733  0.7082 -0.1444
  225MOL0     C30277   7.309   8.478  10.325 -0.2075 -0.1793 -0.0580
  225MOL0     C30278   7.223   8.523  10.440  0.1957 -0.6715 -0.6102
  225MOL0     C30279   7.084   8.456  10.455  0.1992  0.2448  0.3911
  225MOL0     C30280   6.970   8.558  10.424 -0.0422 -0.2729 -0.4226
  225MOL0     C30281   6.942   8.664  10.528 -0.2520 -0.4488 -0.8380
  225MOL0     C30282   6.840   8.768  10.494  0.3426 -1.1031 -0.5176
  225MOL0     C30283   6.700   8.703  10.480  1.8763  0.0110  0.3360
  225MOL0     C30284   6.585   8.809  10.482 -0.4230  0.2106  0.8134
  225MOL0    Cl30285   6.545   8.805  10.654 -0.1384  0.2928  0.0305
  225MOL0     C30286   7.666   8.512  10.333  0.5460  0.6458  1.4081
  225MOL0     C30287   7.783   8.476  10.268 -0.1491 -0.8812  1.2608
  225MOL0     O30288   7.979   8.590  10.097 -0.9823  0.4745 -0.4584
  225MOL0     C30289   8.215   8.504   9.997 -0.3041 -0.1567  0.5138
  225MOL0     C30290   8.339   8.474   9.932  0.7364 -0.5739  0.3276
  225MOL0     N30291   8.963   7.891   9.598  0.2311 -0.4153  0.2208
  225MOL0     N30292   9.009   7.770   9.624 -0.1662 -1.0914  0.0997
  225MOL0     C30293   8.934   6.646  10.227  0.5859 -0.1839 -0.9249
  225MOL0     C30294   8.943   6.550  10.335 -0.3102 -0.1167 -0.2260
  225MOL0     C30295   8.907   6.418  10.794  0.4507 -0.4363  0.0834
  225MOL0     C30296   8.911   6.277  10.772  0.3036  0.2158 -0.1049
  225MOL0     C30297   8.953   6.201  10.878 -0.7933 -0.2246  0.0578
  225MOL0     C30298   9.004   6.248  11.001 -0.9983 -0.7939  0.0566
  225MOL0     O30299   9.051   6.177  11.113  0.7818 -0.1476  0.8930
  225MOL0     C30300   9.055   6.035  11.098  0.0854 -0.2371 -0.5724
  225MOL0     C30301   9.154   5.977  11.012 -1.1372  0.8867  0.2481
  225MOL0     C30302   9.152   5.828  11.001  0.1753  0.3598 -0.1515
  225MOL0     C30303   9.196   5.766  11.136  0.2736 -0.6140  0.8895
  225MOL0     C30304   9.246   5.627  11.126  0.0313  0.4632  0.0425
  225MOL0     C30305   9.291   5.520  11.108 -0.4983  0.3801 -0.4098
  225MOL0     C30306   9.002   6.391  11.013  0.6113  0.1921  0.4289
  225MOL0     C30307   8.946   6.477  10.915  0.7503 -0.0131  0.5962
  225MOL0     H30308   8.697   6.670  10.524 -1.4804 -0.8849 -1.5385
  225MOL0     H30309   8.664   6.817  10.334  2.1101  1.4301  0.6133
  225MOL0     H30310   8.688   6.924   9.981  0.9632 -1.1837 -0.8745
  225MOL0     H30311   8.620   6.884  10.142 -0.3569  2.8846  0.4268
  225MOL0     H30312   8.752   7.076  10.247  1.8490  2.2231 -0.3297
  225MOL0     H30313   8.869   7.059  10.126  0.5305 -0.3223 -0.7965
  225MOL0     H30314   8.644   7.144   9.973 -1.3068  1.6769 -0.1937
  225MOL0     H30315   8.612   7.221  10.115 -3.8840  1.6011 -4.0794
  225MOL0     H30316   8.853   7.342  10.085  1.5673 -0.2034 -0.9990
  225MOL0     H30317   8.870   7.236   9.943 -0.2080  1.0909 -1.8167
  225MOL0     H30318   8.682   7.350   9.830 -2.6544  0.2614  0.8544
  225MOL0     H30319   8.642   7.423   9.981 -1.6842 -0.3349 -1.2813
  225MOL0     H30320   8.721   7.570   9.821  1.3340  0.6221 -0.5946
  225MOL0     H30321   8.824   7.567   9.976  1.4545  4.0298 -2.2462
  225MOL0     H30322   8.977   7.408   9.806 -1.2778 -0.2745 -1.3111
  225MOL0     H30323   8.900   7.502   9.681  1.8749 -1.1014 -0.6025
  225MOL0     H30324   9.111   7.584   9.779  1.2927 -2.4874  2.6371
  225MOL0     H30325   9.027   7.633   9.927 -0.6405  1.1148 -0.4846
  225MOL0     H30326   8.852   7.836   9.905 -0.3255  3.1730  0.4968
  225MOL0     H30327   8.876   8.104   9.813 -3.8268 -1.8714  1.6108
  225MOL0     H30328   8.863   8.125   9.632 -1.8819  0.2000 -0.1807
  225MOL0     H30329   8.670   8.008   9.822 -0.6376  0.7823 -0.0783
  225MOL0     H30330   8.634   8.014   9.650 -0.6856 -1.9567  2.0420
  225MOL0     H30331   8.638   8.258   9.653 -0.3137  0.3330 -0.1890
  225MOL0     H30332   8.694   8.264   9.825  1.3077  2.3349 -1.9532
  225MOL0     H30333   8.495   8.133   9.890  3.1405 -2.5675 -1.2469
  225MOL0     H30334   8.440   8.137   9.720  0.9777  1.2262 -1.2278
  225MOL0     H30335   8.235   8.175   9.802  0.9110 -0.2593  0.5734
  225MOL0     H30336   8.020   8.145   9.795  0.8808  2.6332 -2.2910
  225MOL0     H30337   7.971   8.178   9.954 -1.0987 -0.3609 -0.5204
  225MOL0     H30338   7.920   8.281   9.811 -1.8266  0.1664  1.2509
  225MOL0     H30339   7.632   8.323  10.000 -0.3462 -0.7230  0.7115
  225MOL0     H30340   7.433   8.373  10.131  1.6182 -3.5309 -0.6704
  225MOL0     H30341   7.274   8.528  10.234 -1.9115 -0.1704  0.5581
  225MOL0     H30342   7.310   8.369  10.315  0.0109 -0.6505  3.6518
  225MOL0     H30343   7.274   8.488  10.530 -3.8976  0.6998  2.5869
  225MOL0     H30344   7.223   8.632  10.447 -1.6368 -0.6487 -0.4999
  225MOL0     H30345   7.073   8.418  10.557 -0.2933 -0.3743  0.1114
  225MOL0     H30346   7.092   8.368  10.391  0.1327 -0.3743  1.2195
  225MOL0     H30347   6.995   8.605  10.328 -0.4307 -2.7114 -1.7964
  225MOL0     H30348   6.880   8.500  10.402 -2.6521  2.7076  1.4571
  225MOL0     H30349   7.037   8.714  10.552 -0.9072  0.2000  0.5329
  225MOL0     H30350   6.916   8.611  10.621 -0.0386 -0.0169 -0.5285
  225MOL0     H30351   6.850   8.848  10.568  0.8444  0.2453 -1.9926
  225MOL0     H30352   6.869   8.804  10.395 -1.7723  0.5974 -0.5803
  225MOL0     H30353   6.673   8.625  10.552 -0.8218  0.1213 -0.4324
  225MOL0     H30354   6.698   8.636  10.393  0.8803 -1.7044  1.5953
  225MOL0     H30355   6.497   8.763  10.436 -0.9749 -0.6618  2.6232
  225MOL0     H30356   6.612   8.906  10.439  4.1481 -1.4162 -0.6497
  225MOL0     H30357   7.671   8.559  10.431 -2.9751  1.6049  1.2473
  225MOL0     H30358   7.879   8.497  10.315 -0.7923  1.9573  1.4452
  225MOL0     H30359   8.205   8.596  10.054 -3.5128 -1.1373  1.7407
  225MOL0     H30360   8.423   8.543   9.927 -0.1707  0.4729 -1.8929
  225MOL0     H30361   9.007   6.637  10.147  0.6252 -1.3508 -0.7807
  225MOL0     H30362   9.021   6.474  10.330  0.6313  0.8983 -1.6505
  225MOL0     H30363   8.880   6.241  10.674 -1.1853  2.0799 -0.3955
  225MOL0     H30364   8.932   6.097  10.855 -1.4212 -0.6707  2.4287
  225MOL0     H30365   9.080   6.010  11.201  0.4568  0.6997 -0.4243
  225MOL0     H30366   8.955   6.005  11.065 -0.9800  3.4954 -1.2041
  225MOL0     H30367   9.255   6.002  11.047 -0.9018  0.9167 -0.4377
  225MOL0     H30368   9.140   6.020  10.913 -2.0098  0.1620  0.0428
  225MOL0     H30369   9.231   5.802  10.931  0.4445  0.7410  0.0055
  225MOL0     H30370   9.058   5.792  10.958  0.1979  2.7757 -2.5046
  225MOL0     H30371   9.108   5.770  11.202 -1.7036  1.0003 -1.6473
  225MOL0     H30372   9.275   5.831  11.174  1.9254 -1.9074 -0.2086
  225MOL0     H30373   9.337   5.429  11.075 -0.8403  0.6105 -1.5617
  225MOL0     H30374   9.017   6.440  11.109  1.6727 -1.3409  1.0980
  225MOL0     H30375   8.935   6.584  10.932 -0.8282  0.1248 -1.0472
  226MOL0     O30376   0.116   1.831   8.731 -0.0951 -0.0457 -0.2068
  226MOL0     C30377   0.200   1.809   8.821  0.0275 -0.0366 -0.5488
  226MOL0     O30378   0.327   1.858   8.828  0.1227 -0.0195 -0.1574
  226MOL0     C30379   0.372   1.947   8.729 -0.7322  0.0451 -0.5916
  226MOL0     C30380   0.415   2.080   8.763  0.0105 -0.2381  0.1977
  226MOL0     C30381   0.472   2.175   8.661  1.1632  0.1109 -0.6860
  226MOL0     C30382   0.468   2.141   8.533 -0.1535  0.2421 -0.5299
  226MOL0     O30383   0.507   2.245   8.452 -0.1256  0.3652  0.3913
  226MOL0     C30384   0.491   2.223   8.304 -0.3943 -0.1259 -0.4807
  226MOL0     C30385   0.591   2.305   8.234 -0.3283  0.4332 -0.5192
  226MOL0     C30386   0.739   2.264   8.269 -0.1106  0.0172 -0.2416
  226MOL0     C30387   0.859   2.329   8.204  0.9127  0.2732  0.3131
  226MOL0     C30388   0.895   2.478   8.242  0.3811 -0.0554  0.0532
  226MOL0     C30389   1.023   2.506   8.157  0.0627 -0.2725  0.0094
  226MOL0     C30390   1.092   2.635   8.182 -0.4648 -0.7156  0.0566
  226MOL0     C30391   1.242   2.638   8.132 -0.4082  0.6332 -0.9891
  226MOL0     N30392   1.256   2.643   7.984 -0.5095  0.1311  0.4159
  226MOL0     C30393   1.238   2.543   7.896  0.2791 -0.1236  0.5070
  226MOL0     C30394   1.258   2.596   7.771 -0.4078 -0.4059 -0.7994
  226MOL0     C30395   1.238   2.529   7.641  0.0037  0.4202  0.4268
  226MOL0     C30396   1.180   2.621   7.544 -0.1668 -0.2575 -0.0251
  226MOL0     C30397   1.043   2.677   7.573 -0.1787  0.6137 -0.2942
  226MOL0     C30398   0.989   2.767   7.459  0.6466 -0.0013 -0.3058
  226MOL0     O30399   0.967   2.691   7.341 -0.1725  0.3018  0.7769
  226MOL0     C30400   0.862   2.601   7.325  0.2024  0.8491 -0.8710
  226MOL0     C30401   0.733   2.619   7.383 -0.5187  0.5543  0.5902
  226MOL0     C30402   0.637   2.511   7.383 -0.3250 -0.3416  0.0311
  226MOL0     C30403   0.504   2.541   7.456 -0.1728 -0.0091 -0.3626
  226MOL0     C30404   0.655   2.389   7.312  0.7688 -0.3690  0.0805
  226MOL0     C30405   0.574   2.262   7.319 -0.6812 -1.9526 -0.4352
  226MOL0     O30406   0.634   2.143   7.299  0.3138  0.1996  0.0489
  226MOL0     C30407   0.542   2.038   7.283 -0.0189 -0.6976  0.0984
  226MOL0     C30408   0.511   1.963   7.395  0.7258  0.1682 -0.2107
  226MOL0     C30409   0.414   1.865   7.397  0.4102  0.7560  0.1066
  226MOL0     C30410   0.336   1.842   7.282 -0.0597  0.7735 -0.0088
  226MOL0     O30411   0.241   1.751   7.287 -0.0501 -0.0633  0.3611
  226MOL0     C30412   0.163   1.731   7.173 -0.3435  0.0435 -0.1346
  226MOL0     C30413   0.045   1.634   7.182  0.6398 -0.7135  0.0891
  226MOL0     C30414  -0.060   1.661   7.286 -0.5208  0.8429 -0.2264
  226MOL0     C30415  -0.095   1.543   7.379 -0.3290  1.0627  0.6336
  226MOL0     C30416   0.005   1.520   7.488 -1.4670  0.5975 -0.1759
  226MOL0     C30417   0.016   1.617   7.599 -0.5174 -0.4644  0.8060
  226MOL0     C30418   0.139   1.592   7.692 -0.0416  0.5141  0.6499
  226MOL0     C30419   0.126   1.667   7.832 -0.7909 -0.3262  0.3019
  226MOL0    Cl30420   0.274   1.630   7.924 -0.1684  0.3329 -0.5660
  226MOL0     C30421   0.358   1.918   7.167  0.3392 -0.2973 -0.8528
  226MOL0     C30422   0.468   2.010   7.166  0.7745 -0.5914  0.1300
  226MOL0     O30423   0.459   2.287   7.354  0.5342  0.0796 -0.2922
  226MOL0     C30424   0.788   2.379   7.239  0.1032 -0.3690 -0.0450
  226MOL0     C30425   0.888   2.480   7.250  0.8114 -0.9247  0.4103
  226MOL0     N30426   1.293   2.731   7.788 -0.7951  0.4961  0.4248
  226MOL0     N30427   1.290   2.755   7.912  0.1297  0.2344  0.7183
  226MOL0     C30428   0.420   2.011   8.496 -0.7809  1.1301 -0.1528
  226MOL0     C30429   0.380   1.915   8.591  0.8643  0.4080 -0.1644
  226MOL0     C30430   0.161   1.723   8.938  0.3799  0.2848 -0.1334
  226MOL0     C30431   0.032   1.677   8.944  0.0490 -0.3056 -0.0771
  226MOL0     C30432  -0.019   1.589   9.043  0.7425  0.2654  0.7913
  226MOL0     C30433   0.069   1.559   9.145  0.4421  0.9615  0.3439
  226MOL0     O30434   0.023   1.468   9.244 -0.3637  0.2478 -0.3293
  226MOL0     C30435   0.047   1.500   9.383  0.0661  1.0213 -0.0963
  226MOL0     C30436  -0.016   1.638   9.426  0.2920  0.0974 -0.2405
  226MOL0     C30437  -0.150   1.682   9.364  0.3705 -0.1792  0.3613
  226MOL0     C30438  -0.269   1.700   9.464  1.0152 -0.5762 -0.4148
  226MOL0     C30439  -0.363   1.805   9.416  0.2695 -0.0571  0.3973
  226MOL0     C30440  -0.436   1.898   9.373  1.0154  0.0157 -0.1313
  226MOL0     C30441   0.197   1.609   9.150 -0.7706  0.9949  0.4557
  226MOL0     C30442   0.238   1.685   9.041  0.3570  0.0421 -0.3750
  226MOL0     H30443   0.414   2.114   8.866  0.2038  0.4480 -0.0179
  226MOL0     H30444   0.489   2.277   8.694  1.0163  0.5587 -1.9308
  226MOL0     H30445   0.493   2.117   8.274 -0.2292 -0.1506 -0.3820
  226MOL0     H30446   0.389   2.253   8.280 -0.7177 -0.6235  0.2029
  226MOL0     H30447   0.579   2.298   8.126 -2.0776 -0.3652 -0.3136
  226MOL0     H30448   0.573   2.409   8.262 -1.2520  0.1699 -0.0827
  226MOL0     H30449   0.760   2.255   8.376  0.7620 -1.2360 -0.4994
  226MOL0     H30450   0.726   2.165   8.225  0.7622  0.7819 -2.3658
  226MOL0     H30451   0.943   2.267   8.237  0.5618  0.8341  2.3929
  226MOL0     H30452   0.845   2.317   8.096  0.9714  1.6728  0.1290
  226MOL0     H30453   0.815   2.547   8.215  0.4840 -0.1241 -0.4425
  226MOL0     H30454   0.907   2.475   8.350  1.7742 -5.8626  0.0602
  226MOL0     H30455   1.094   2.427   8.184  0.5810  0.6185  1.3306
  226MOL0     H30456   1.008   2.500   8.049 -0.0893  2.9908 -0.2265
  226MOL0     H30457   1.043   2.709   8.119 -0.5291 -0.0793  0.8383
  226MOL0     H30458   1.088   2.660   8.288  1.9918  0.2519 -0.0056
  226MOL0     H30459   1.298   2.552   8.172  0.6562  1.9827  0.5488
  226MOL0     H30460   1.298   2.723   8.172  1.4579 -1.5547  1.4406
  226MOL0     H30461   1.218   2.437   7.910  2.8858 -0.4380  2.6828
  226MOL0     H30462   1.326   2.481   7.597  0.1191  1.7499 -0.9039
  226MOL0     H30463   1.171   2.445   7.660 -0.2628  0.5311 -0.0106
  226MOL0     H30464   1.179   2.571   7.447 -0.6120 -1.1019  0.3990
  226MOL0     H30465   1.247   2.707   7.552 -2.6810  1.8062  0.1639
  226MOL0     H30466   1.056   2.733   7.666  0.6798  2.5350 -1.5071
  226MOL0     H30467   0.976   2.592   7.589  1.9214 -0.9341  0.7403
  226MOL0     H30468   1.059   2.847   7.435 -0.4908  0.4042 -2.4973
  226MOL0     H30469   0.902   2.817   7.502  0.5793 -0.8008  0.5310
  226MOL0     H30470   0.695   2.711   7.428 -1.1189  0.8233 -0.4315
  226MOL0     H30471   0.484   2.459   7.527 -0.3852 -1.3363 -1.8877
  226MOL0     H30472   0.518   2.624   7.525  0.4624  0.2925 -0.8475
  226MOL0     H30473   0.422   2.571   7.389  0.8401  2.1599 -0.7048
  226MOL0     H30474   0.575   1.987   7.479  1.9252  2.6665 -1.6964
  226MOL0     H30475   0.390   1.822   7.493 -1.8047  1.8792  0.1144
  226MOL0     H30476   0.124   1.830   7.147  2.4343  1.3278  0.2821
  226MOL0     H30477   0.230   1.713   7.088  0.1329  5.4975 -1.2708
  226MOL0     H30478  -0.009   1.670   7.094 -1.4191  3.5158  2.7166
  226MOL0     H30479   0.077   1.530   7.192 -2.9060 -1.8813  0.8126
  226MOL0     H30480  -0.154   1.696   7.241 -0.4580 -0.4486 -1.4326
  226MOL0     H30481  -0.015   1.739   7.350  0.6136  0.7384 -0.8743
  226MOL0     H30482  -0.186   1.563   7.436 -2.0923 -0.2771 -1.5461
  226MOL0     H30483  -0.100   1.451   7.319  0.8227  0.3921  1.5275
  226MOL0     H30484   0.104   1.504   7.444  0.4460  3.3309  2.7184
  226MOL0     H30485  -0.023   1.423   7.530 -3.8769  0.7305 -1.2889
  226MOL0     H30486   0.024   1.720   7.565 -1.8566 -0.5969  0.0429
  226MOL0     H30487  -0.066   1.606   7.670  0.4954 -1.6048  1.8742
  226MOL0     H30488   0.228   1.614   7.633 -1.3010 -2.7124 -2.9085
  226MOL0     H30489   0.147   1.488   7.726  0.1429  0.7871  1.4556
  226MOL0     H30490   0.046   1.620   7.890  1.3844 -3.6960  0.8661
  226MOL0     H30491   0.103   1.773   7.818 -0.4910 -0.3059 -0.0415
  226MOL0     H30492   0.313   1.905   7.069 -1.2320 -1.2225 -0.0482
  226MOL0     H30493   0.495   2.069   7.078  1.9312 -0.5862  0.4702
  226MOL0     H30494   0.820   2.297   7.176 -0.9942 -1.3511  0.6171
  226MOL0     H30495   0.978   2.457   7.195 -0.9229 -1.8982 -2.2051
  226MOL0     H30496   0.409   1.980   8.393 -0.1198  4.1042 -1.2146
  226MOL0     H30497   0.362   1.813   8.560  0.6677  0.3992 -0.0219
  226MOL0     H30498  -0.040   1.717   8.872  1.8671  0.3579 -1.6265
  226MOL0     H30499  -0.121   1.552   9.046  0.7561  0.2740  3.9040
  226MOL0     H30500   0.008   1.425   9.452 -1.4530  1.4850 -0.4017
  226MOL0     H30501   0.152   1.527   9.391  0.1815  1.4626 -2.3482
  226MOL0     H30502   0.055   1.721   9.418 -1.1774  1.3262 -1.2329
  226MOL0     H30503  -0.030   1.630   9.534  1.3851 -1.1159 -0.1642
  226MOL0     H30504  -0.180   1.617   9.281 -1.0695 -0.1580  0.8388
  226MOL0     H30505  -0.126   1.781   9.323  3.8727 -0.6863  0.8756
  226MOL0     H30506  -0.240   1.739   9.562  2.2723  0.2996 -1.1066
  226MOL0     H30507  -0.326   1.608   9.481  1.3325 -0.4078  1.8663
  226MOL0     H30508  -0.496   1.967   9.318 -0.5343 -3.4123 -3.2037
  226MOL0     H30509   0.262   1.585   9.233  0.0659 -0.7669 -0.6366
  226MOL0     H30510   0.340   1.720   9.052 -0.1508  1.5673 -0.3357
  227MOL0     O30511  10.427   2.688   9.110  0.2319 -1.0430 -0.1408
  227MOL0     C30512  10.372   2.585   9.150 -0.3777 -0.9424  0.1307
  227MOL0     O30513  10.250   2.584   9.227 -0.9401 -0.1662  0.1805
  227MOL0     C30514  10.208   2.691   9.300 -0.2663  0.2918  0.5230
  227MOL0     C30515  10.297   2.790   9.352  0.1252 -0.5368 -0.0419
  227MOL0     C30516  10.242   2.887   9.442  0.0878  0.9933  0.3069
  227MOL0     C30517  10.101   2.888   9.460 -1.4709 -0.6485 -0.0712
  227MOL0     O30518  10.063   2.982   9.546  0.1813 -0.8468 -0.3745
  227MOL0     C30519  10.094   3.118   9.519  1.2209  0.4305 -0.6446
  227MOL0     C30520   9.974   3.201   9.560  0.8253  0.5895  0.8199
  227MOL0     C30521   9.868   3.149   9.457  0.1001 -0.6328 -0.4087
  227MOL0     C30522   9.757   3.243   9.448  0.0897  0.2168 -0.4968
  227MOL0     C30523   9.660   3.226   9.338  1.3541  0.3513 -0.0329
  227MOL0     C30524   9.559   3.105   9.357  0.1319 -0.6749  0.4673
  227MOL0     C30525   9.466   3.100   9.235 -0.2034  0.0061 -0.0606
  227MOL0     C30526   9.357   3.206   9.247  0.0118 -1.3320  0.1648
  227MOL0     N30527   9.255   3.207   9.138 -0.0569 -0.1186  0.2302
  227MOL0     C30528   9.254   3.277   9.021  0.6117 -0.4396 -0.0360
  227MOL0     C30529   9.138   3.240   8.959 -0.3840  0.9765  1.2445
  227MOL0     C30530   9.073   3.308   8.843  0.3689 -0.3402  0.2524
  227MOL0     C30531   8.957   3.382   8.910 -0.7658 -0.3829 -0.1948
  227MOL0     C30532   8.834   3.375   8.822  0.0398 -0.0303  0.1472
  227MOL0     C30533   8.715   3.416   8.885  0.4151 -0.8940 -0.2745
  227MOL0     O30534   8.618   3.466   8.784 -0.2526  0.3533 -0.6764
  227MOL0     C30535   8.497   3.398   8.774 -0.3615  0.1130 -0.3109
  227MOL0     C30536   8.389   3.470   8.796 -0.1675 -0.7017 -0.2947
  227MOL0     C30537   8.266   3.418   8.787  0.7133  0.1790 -0.0066
  227MOL0     C30538   8.144   3.509   8.815  0.2028  0.4312 -0.2630
  227MOL0     C30539   8.258   3.276   8.756 -0.0500  0.4800 -0.9484
  227MOL0     C30540   8.128   3.208   8.752  0.4001 -0.0420 -0.7479
  227MOL0     O30541   8.039   3.243   8.663 -0.4688 -1.3665  0.2053
  227MOL0     C30542   7.937   3.157   8.636 -0.2794  0.2821 -0.5814
  227MOL0     C30543   7.960   3.017   8.617 -0.0787  0.0317 -0.4576
  227MOL0     C30544   7.852   2.932   8.597  0.7875 -0.7196  0.0304
  227MOL0     C30545   7.719   2.980   8.602 -0.2651  1.3418  0.9348
  227MOL0     O30546   7.609   2.902   8.573 -0.7985  0.6321  1.0277
  227MOL0     C30547   7.624   2.765   8.531 -0.9439 -0.3596  0.0367
  227MOL0     C30548   7.489   2.691   8.506  0.0796  0.7444  0.4273
  227MOL0     C30549   7.486   2.595   8.377 -1.3627  0.7277 -0.2223
  227MOL0     C30550   7.477   2.683   8.251  0.2516 -0.6387  0.1689
  227MOL0     C30551   7.485   2.593   8.134  0.1281  0.5825 -0.0934
  227MOL0     C30552   7.473   2.672   8.007  0.6333  0.6168  0.6404
  227MOL0     C30553   7.326   2.725   7.966 -0.0501  0.5937 -0.0407
  227MOL0     C30554   7.305   2.821   7.853  0.4968 -0.9894  0.0270
  227MOL0    Cl30555   7.366   2.739   7.707  0.1374 -0.4303 -0.1854
  227MOL0     C30556   7.703   3.125   8.620 -0.7627  0.9787 -0.3525
  227MOL0     C30557   7.807   3.207   8.631  0.6515  0.3290 -0.2175
  227MOL0     O30558   8.113   3.111   8.833  0.3344 -0.9376  0.2787
  227MOL0     C30559   8.373   3.204   8.727 -0.5005  0.0137  0.5396
  227MOL0     C30560   8.497   3.265   8.735 -0.4917 -1.2891 -0.1609
  227MOL0     N30561   9.082   3.135   9.043  0.2365 -0.0472 -0.1084
  227MOL0     N30562   9.161   3.115   9.144 -0.2894  0.3324  0.8436
  227MOL0     C30563  10.015   2.802   9.399  0.4420  1.0126 -0.2272
  227MOL0     C30564  10.070   2.698   9.330 -0.1405  0.7000 -0.3733
  227MOL0     C30565  10.430   2.455   9.127 -0.3531  0.0453  0.2800
  227MOL0     C30566  10.518   2.420   9.028  0.0548 -0.6851 -0.0087
  227MOL0     C30567  10.567   2.289   9.017 -0.5559  0.3331  0.6326
  227MOL0     C30568  10.516   2.182   9.094 -0.5700 -0.7648  0.1762
  227MOL0     O30569  10.563   2.054   9.088  0.4011  0.2180  0.9315
  227MOL0     C30570  10.644   2.015   8.976 -1.1852  0.0990  0.2146
  227MOL0     C30571  10.706   1.873   9.007  0.5801 -0.3253 -0.6927
  227MOL0     C30572  10.853   1.858   8.971  0.4717  0.7265  0.0436
  227MOL0     C30573  10.851   1.823   8.826 -0.0775  0.8577 -0.3614
  227MOL0     C30574  10.838   1.677   8.802  0.9225  0.6349  0.2637
  227MOL0     C30575  10.817   1.558   8.786  0.6617 -0.3084  0.2027
  227MOL0     C30576  10.438   2.217   9.201  0.2295 -0.2964  0.1833
  227MOL0     C30577  10.402   2.352   9.220 -0.2449  0.6143 -0.4482
  227MOL0     H30578  10.402   2.794   9.327 -0.0275 -0.2991 -0.6643
  227MOL0     H30579  10.311   2.953   9.492  0.4383  0.8670 -0.0013
  227MOL0     H30580  10.184   3.145   9.575 -0.2249  4.8409 -0.0751
  227MOL0     H30581  10.118   3.134   9.413  0.1395  2.1541 -0.6693
  227MOL0     H30582   9.955   3.181   9.666  2.7028 -0.5694  0.9726
  227MOL0     H30583   9.991   3.309   9.555  0.0529  0.6906 -0.0546
  227MOL0     H30584   9.913   3.143   9.358  0.7958 -1.1574 -0.0653
  227MOL0     H30585   9.830   3.052   9.488 -2.5997  1.0806  2.1781
  227MOL0     H30586   9.699   3.250   9.540  1.8790  0.6210  0.6589
  227MOL0     H30587   9.789   3.347   9.431 -0.6503  0.3649 -1.0059
  227MOL0     H30588   9.605   3.320   9.339  2.1809  0.8372  0.2160
  227MOL0     H30589   9.719   3.225   9.246  0.8543  1.7807 -0.3896
  227MOL0     H30590   9.614   3.011   9.364  1.2366 -0.8069 -5.4444
  227MOL0     H30591   9.503   3.119   9.451  0.8446  2.3142  0.5634
  227MOL0     H30592   9.531   3.117   9.150  0.0170 -0.9321 -0.0863
  227MOL0     H30593   9.416   3.003   9.228  2.5118 -1.4220 -0.9518
  227MOL0     H30594   9.397   3.307   9.237 -5.1604  0.9604 -0.2667
  227MOL0     H30595   9.294   3.207   9.336 -0.5973  0.2837 -0.2577
  227MOL0     H30596   9.330   3.345   8.986  2.0442 -2.3004 -0.6966
  227MOL0     H30597   9.141   3.374   8.788 -1.8016  0.2496 -1.8876
  227MOL0     H30598   9.040   3.238   8.766 -1.0759  1.8582 -1.2396
  227MOL0     H30599   8.984   3.486   8.934 -1.2996 -0.9634  3.3612
  227MOL0     H30600   8.942   3.346   9.012 -0.9922  0.3889  0.0583
  227MOL0     H30601   8.822   3.276   8.778 -1.2702 -0.6460  1.7829
  227MOL0     H30602   8.851   3.444   8.739 -2.0887  0.8313  0.3630
  227MOL0     H30603   8.732   3.505   8.946 -0.6957 -1.0936  0.3549
  227MOL0     H30604   8.670   3.336   8.945 -0.3737  1.6294  2.7577
  227MOL0     H30605   8.389   3.576   8.821  3.2972 -0.9970  1.5403
  227MOL0     H30606   8.103   3.543   8.720 -0.8615  2.1475  0.7452
  227MOL0     H30607   8.074   3.457   8.882  1.4410  0.7261  1.3139
  227MOL0     H30608   8.180   3.589   8.880  1.5017  0.3636 -0.8847
  227MOL0     H30609   8.060   2.976   8.622 -0.4626 -0.8551  0.4882
  227MOL0     H30610   7.883   2.831   8.572  0.2047 -0.5408 -1.5246
  227MOL0     H30611   7.680   2.767   8.436 -3.0770  0.2637 -1.2782
  227MOL0     H30612   7.675   2.714   8.613 -1.4989 -0.2517  0.4463
  227MOL0     H30613   7.463   2.629   8.592 -1.7161 -0.0437 -0.6299
  227MOL0     H30614   7.408   2.764   8.493 -0.8552 -0.2944  0.2612
  227MOL0     H30615   7.404   2.523   8.373  0.5063 -1.5851  0.2268
  227MOL0     H30616   7.573   2.528   8.378 -0.3506  2.0063  1.2534
  227MOL0     H30617   7.383   2.739   8.256  0.4037 -0.3776  0.1117
  227MOL0     H30618   7.558   2.756   8.250  2.8044 -3.1384  2.8920
  227MOL0     H30619   7.408   2.516   8.133 -0.2253  0.8888 -2.6535
  227MOL0     H30620   7.581   2.541   8.132 -0.2679 -0.2114 -2.9546
  227MOL0     H30621   7.545   2.754   8.020 -1.5691  2.6639  0.5579
  227MOL0     H30622   7.497   2.625   7.911  0.7433 -0.3122  1.1120
  227MOL0     H30623   7.280   2.780   8.049  0.4789  1.2023 -0.1399
  227MOL0     H30624   7.265   2.638   7.940  0.1995  0.5732 -0.5646
  227MOL0     H30625   7.358   2.914   7.874 -0.6994 -0.6719  1.8928
  227MOL0     H30626   7.200   2.852   7.840  1.4815  2.4498 -0.6352
  227MOL0     H30627   7.601   3.160   8.611 -1.2443 -0.8631 -4.0165
  227MOL0     H30628   7.778   3.312   8.637  0.2810  0.3335 -1.5977
  227MOL0     H30629   8.384   3.098   8.709  3.2251  0.1404  1.1650
  227MOL0     H30630   8.586   3.205   8.726  0.3917  0.2321 -2.3264
  227MOL0     H30631   9.907   2.791   9.405  0.7143 -1.9285  1.0775
  227MOL0     H30632  10.014   2.609   9.302  0.4011 -1.8589  5.2804
  227MOL0     H30633  10.552   2.493   8.954  1.7144 -1.0826  0.3283
  227MOL0     H30634  10.646   2.268   8.946 -1.7179 -1.0252 -0.3244
  227MOL0     H30635  10.586   2.011   8.883  2.1184  1.0745 -2.0841
  227MOL0     H30636  10.731   2.078   8.956 -0.5675 -1.0922 -1.0219
  227MOL0     H30637  10.637   1.804   8.958  0.3928 -1.1255  0.6432
  227MOL0     H30638  10.697   1.859   9.115  1.2237  1.5034 -0.3737
  227MOL0     H30639  10.904   1.774   9.019 -1.3587  0.7676  2.2089
  227MOL0     H30640  10.908   1.952   8.986  1.7259  0.0028  0.1620
  227MOL0     H30641  10.949   1.856   8.792  1.7654 -4.0841 -0.6205
  227MOL0     H30642  10.773   1.882   8.776  0.0285 -0.5168 -2.2409
  227MOL0     H30643  10.802   1.454   8.763  0.3475 -0.0226 -0.9843
  227MOL0     H30644  10.391   2.140   9.262  1.8104 -1.0636  0.4839
  227MOL0     H30645  10.320   2.369   9.288 -0.9451  2.1330 -1.6111
  228MOL0     O30646   2.426   6.506   5.023  0.3930  0.6573 -0.0624
  228MOL0     C30647   2.487   6.517   4.919  0.8810  0.1167  0.3270
  228MOL0     O30648   2.621   6.501   4.903 -0.2463 -0.6888 -0.2446
  228MOL0     C30649   2.691   6.427   4.995 -0.5256 -1.5331 -0.0217
  228MOL0     C30650   2.821   6.475   5.012 -0.4746 -0.1671  0.1720
  228MOL0     C30651   2.912   6.401   5.092 -0.0547 -0.3366  0.4621
  228MOL0     C30652   2.883   6.276   5.139  0.5745  0.3540 -0.1090
  228MOL0     O30653   2.985   6.196   5.183  0.0653  0.5309 -0.0318
  228MOL0     C30654   2.953   6.065   5.223  0.8173  0.1712 -0.1529
  228MOL0     C30655   3.082   5.979   5.241 -0.0801  0.0661 -0.5333
  228MOL0     C30656   3.134   5.968   5.391  0.1124 -0.6973  0.0993
  228MOL0     C30657   3.239   5.856   5.414 -0.2776 -0.3532 -0.3071
  228MOL0     C30658   3.311   5.889   5.539 -0.2644  0.4169 -0.6832
  228MOL0     C30659   3.226   5.882   5.669 -0.4219 -0.1917 -0.6419
  228MOL0     C30660   3.123   5.771   5.691 -0.0942 -0.7996  0.4932
  228MOL0     C30661   3.035   5.816   5.812  0.2954  0.5309 -0.5349
  228MOL0     N30662   2.946   5.923   5.761 -0.1262 -0.0200 -0.2161
  228MOL0     C30663   2.828   5.889   5.692 -0.1615 -0.4256  0.8493
  228MOL0     C30664   2.778   6.008   5.662 -0.2205 -1.0624 -0.6100
  228MOL0     C30665   2.653   6.027   5.593  0.3835 -0.4058 -0.0619
  228MOL0     C30666   2.581   6.154   5.641 -0.1584 -0.3111 -0.5622
  228MOL0     C30667   2.459   6.183   5.566  0.2617  0.6171  0.4518
  228MOL0     C30668   2.364   6.060   5.577 -0.1338 -0.2220  0.0180
  228MOL0     O30669   2.228   6.086   5.514 -0.7137  0.2388  0.8932
  228MOL0     C30670   2.134   6.153   5.578 -0.3778  0.2005  0.2565
  228MOL0     C30671   2.000   6.162   5.524 -0.2700  0.0243  0.2980
  228MOL0     C30672   1.894   6.227   5.595 -0.8946  0.4135 -0.2068
  228MOL0     C30673   1.754   6.223   5.537 -0.0877 -0.8220  0.1937
  228MOL0     C30674   1.920   6.279   5.721  0.5314 -0.3048 -0.5442
  228MOL0     C30675   1.818   6.369   5.794  0.0896  0.0441 -0.7494
  228MOL0     O30676   1.827   6.363   5.936 -0.0150 -0.1916  0.2522
  228MOL0     C30677   1.734   6.436   6.008  0.8732  0.4781  0.0543
  228MOL0     C30678   1.722   6.575   5.991 -0.1426  0.3408  0.0626
  228MOL0     C30679   1.637   6.659   6.058  0.8593 -0.2337 -0.6826
  228MOL0     C30680   1.563   6.601   6.160  0.0756  0.6237 -0.6191
  228MOL0     O30681   1.457   6.649   6.238  1.3634  0.3015 -0.3455
  228MOL0     C30682   1.420   6.793   6.207  0.6134 -0.7612 -0.2108
  228MOL0     C30683   1.325   6.853   6.318  0.1660 -1.0573  0.2737
  228MOL0     C30684   1.190   6.789   6.315  1.1330  1.3089  0.0829
  228MOL0     C30685   1.117   6.830   6.440  0.1371 -0.3788 -0.1668
  228MOL0     C30686   1.010   6.734   6.497  0.1595  0.2691 -0.3186
  228MOL0     C30687   0.869   6.723   6.430 -0.5304 -0.8170  0.0457
  228MOL0     C30688   0.800   6.855   6.389  0.0068  0.8446 -0.0102
  228MOL0     C30689   0.648   6.844   6.416  0.2016  1.2032 -0.0095
  228MOL0    Cl30690   0.574   6.705   6.312  0.0573  0.0836 -0.2779
  228MOL0     C30691   1.576   6.455   6.186 -0.0044 -0.2714 -0.2889
  228MOL0     C30692   1.668   6.382   6.120 -0.5346  0.6972  0.0533
  228MOL0     O30693   1.733   6.436   5.729  0.1375  0.4287 -0.2927
  228MOL0     C30694   2.048   6.261   5.778  0.3196  0.0908  0.9340
  228MOL0     C30695   2.155   6.194   5.710  0.9151  0.4496 -0.5474
  228MOL0     N30696   2.864   6.111   5.706 -0.7428  0.5726 -0.7611
  228MOL0     N30697   2.963   6.056   5.765  0.0340 -0.0852  0.1787
  228MOL0     C30698   2.755   6.228   5.112  0.7469  0.0947  0.0474
  228MOL0     C30699   2.658   6.304   5.046  0.2176 -0.5627  0.3241
  228MOL0     C30700   2.406   6.563   4.802 -0.2444 -0.7794  0.5150
  228MOL0     C30701   2.461   6.586   4.673 -1.3618 -0.1502  0.0123
  228MOL0     C30702   2.393   6.641   4.574 -0.4622  0.1371  0.0867
  228MOL0     C30703   2.254   6.648   4.579 -0.6308 -0.0755 -0.4055
  228MOL0     O30704   2.177   6.674   4.473 -0.5282 -0.5256  0.3367
  228MOL0     C30705   2.229   6.683   4.332 -0.7348  0.4069  0.0754
  228MOL0     C30706   2.108   6.654   4.235 -0.7400 -0.3231  0.0016
  228MOL0     C30707   2.155   6.654   4.089 -0.8652 -0.7003  0.2760
  228MOL0     C30708   2.209   6.791   4.034  0.4451 -0.0351 -1.0884
  228MOL0     C30709   2.095   6.880   4.009 -0.2957  0.3898 -0.5089
  228MOL0     C30710   2.000   6.949   3.978 -0.6918 -0.4525 -0.0354
  228MOL0     C30711   2.192   6.597   4.694 -0.4880 -0.7330  0.3629
  228MOL0     C30712   2.267   6.566   4.807  0.0641  0.1841  0.4592
  228MOL0     H30713   2.850   6.572   4.971 -1.0753  0.8541  2.0248
  228MOL0     H30714   3.010   6.439   5.121  0.0271 -0.4864  0.3880
  228MOL0     H30715   2.887   6.064   5.310 -0.4804 -1.1321 -1.1060
  228MOL0     H30716   2.901   6.013   5.142  0.1164 -1.4247  1.2558
  228MOL0     H30717   3.065   5.874   5.216  3.1361 -0.9226  0.8819
  228MOL0     H30718   3.166   6.012   5.179 -0.0118 -1.9725 -1.6322
  228MOL0     H30719   3.170   6.067   5.422  1.9445 -1.0622 -0.7450
  228MOL0     H30720   3.048   5.949   5.456 -2.0797 -1.1441 -2.7486
  228MOL0     H30721   3.192   5.758   5.411 -0.8281 -0.0898 -0.5273
  228MOL0     H30722   3.297   5.854   5.321 -0.2851 -1.4036 -0.2975
  228MOL0     H30723   3.403   5.830   5.548 -0.5071  0.2982  1.2527
  228MOL0     H30724   3.354   5.989   5.540 -0.9686  0.7245 -0.9382
  228MOL0     H30725   3.289   5.887   5.759 -2.8663  3.4166  1.1194
  228MOL0     H30726   3.181   5.981   5.678 -0.2996 -0.1045 -0.9491
  228MOL0     H30727   3.059   5.763   5.603 -1.5249  2.8606  1.0361
  228MOL0     H30728   3.183   5.682   5.712 -2.2993 -2.0326  2.0057
  228MOL0     H30729   3.090   5.855   5.897 -2.2162  3.2014  0.0285
  228MOL0     H30730   2.977   5.734   5.856  2.5456 -0.6165  0.4419
  228MOL0     H30731   2.789   5.791   5.667 -0.1107  0.3089 -2.5456
  228MOL0     H30732   2.672   6.042   5.487 -1.0843  0.3790 -0.2360
  228MOL0     H30733   2.588   5.940   5.606 -0.3646  0.4973  3.0876
  228MOL0     H30734   2.647   6.240   5.626 -0.4843  0.0498  0.0208
  228MOL0     H30735   2.554   6.149   5.747 -1.7439 -2.7646 -1.0094
  228MOL0     H30736   2.473   6.199   5.459 -0.4164 -2.9868 -0.3267
  228MOL0     H30737   2.411   6.274   5.604  0.9984  1.8092 -1.3967
  228MOL0     H30738   2.352   6.014   5.675 -2.7318  0.1905 -0.0409
  228MOL0     H30739   2.406   5.973   5.526  0.8554 -1.1099  2.2062
  228MOL0     H30740   1.984   6.124   5.423 -2.0704 -0.4023  0.7181
  228MOL0     H30741   1.765   6.187   5.434 -4.0355 -2.3135  0.1264
  228MOL0     H30742   1.697   6.142   5.583 -0.0623 -1.0562 -0.1811
  228MOL0     H30743   1.696   6.315   5.532  0.0570 -0.7869 -1.2532
  228MOL0     H30744   1.770   6.629   5.910  0.3714  1.0111  0.8066
  228MOL0     H30745   1.645   6.765   6.037  0.4056 -0.1812 -0.5976
  228MOL0     H30746   1.510   6.855   6.195 -0.1740  0.7644  1.3041
  228MOL0     H30747   1.370   6.802   6.110 -0.9735 -0.1262  0.6225
  228MOL0     H30748   1.377   6.840   6.414  0.3644 -4.1149 -0.1366
  228MOL0     H30749   1.309   6.960   6.305 -0.2662 -1.0551  0.7948
  228MOL0     H30750   1.194   6.680   6.316 -3.1925  0.8968 -2.3547
  228MOL0     H30751   1.135   6.815   6.224  4.8804  2.0254 -2.1904
  228MOL0     H30752   1.195   6.827   6.517  1.7861 -2.4060 -1.8006
  228MOL0     H30753   1.078   6.931   6.423  0.1575 -0.3357  0.0436
  228MOL0     H30754   0.986   6.776   6.595  0.0038 -0.9448  0.1914
  228MOL0     H30755   1.058   6.639   6.522 -0.7390  0.2676  1.6030
  228MOL0     H30756   0.893   6.670   6.337 -1.1216 -0.8839 -0.0720
  228MOL0     H30757   0.797   6.669   6.492 -1.1389 -2.2912 -1.8125
  228MOL0     H30758   0.817   6.869   6.282  0.5301 -1.2184 -0.2452
  228MOL0     H30759   0.845   6.940   6.442  0.5057 -0.1814  1.2802
  228MOL0     H30760   0.590   6.935   6.397  0.4008  1.2869 -0.2209
  228MOL0     H30761   0.626   6.808   6.517 -0.1060 -1.8133 -1.0503
  228MOL0     H30762   1.529   6.424   6.279  0.8594  0.6029  0.4653
  228MOL0     H30763   1.678   6.277   6.147 -0.1220  1.0466  1.3033
  228MOL0     H30764   2.058   6.297   5.880 -0.5873 -1.3274  1.5622
  228MOL0     H30765   2.246   6.180   5.767  2.0221 -1.7905 -2.6954
  228MOL0     H30766   2.714   6.132   5.142 -1.3925  1.3852  1.4568
  228MOL0     H30767   2.552   6.279   5.041  0.2347 -1.3946  2.8040
  228MOL0     H30768   2.570   6.580   4.674 -1.4403 -2.6419  0.9369
  228MOL0     H30769   2.441   6.686   4.488  0.1742 -3.4751 -1.6122
  228MOL0     H30770   2.269   6.783   4.315 -0.7946  0.2979 -0.7185
  228MOL0     H30771   2.309   6.614   4.304 -1.2943  0.2822 -1.3108
  228MOL0     H30772   2.033   6.730   4.259  0.6567  1.4385 -0.9462
  228MOL0     H30773   2.060   6.560   4.263 -0.7675 -0.7811 -1.5200
  228MOL0     H30774   2.077   6.618   4.021 -0.9698 -1.5769  0.8547
  228MOL0     H30775   2.249   6.598   4.087  0.1739  0.8246  2.2511
  228MOL0     H30776   2.263   6.767   3.942  2.0632 -1.7195  0.2277
  228MOL0     H30777   2.273   6.838   4.110 -1.4553  0.3790  0.3592
  228MOL0     H30778   1.907   6.998   3.954 -1.7635 -3.3178 -2.4111
  228MOL0     H30779   2.085   6.613   4.691 -0.2297  1.2451  0.4596
  228MOL0     H30780   2.214   6.548   4.899 -1.3734 -0.7294 -0.5102
  229MOL0     O30781  10.045   0.271   2.605  0.1618  0.2470  0.2893
  229MOL0     C30782  10.061   0.328   2.714 -0.4009 -0.3272  0.3108
  229MOL0     O30783   9.958   0.360   2.794  0.0358 -0.2334  0.2598
  229MOL0     C30784   9.823   0.349   2.740 -0.9091 -0.1913 -0.0127
  229MOL0     C30785   9.729   0.262   2.802 -0.7868  0.0815  1.1020
  229MOL0     C30786   9.602   0.262   2.745  0.2346  0.2022 -0.5452
  229MOL0     C30787   9.561   0.350   2.647  0.0481  0.0656  0.0266
  229MOL0     O30788   9.432   0.350   2.596  0.6362 -0.5350 -0.0247
  229MOL0     C30789   9.422   0.360   2.457 -0.5720  0.0701  0.5098
  229MOL0     C30790   9.274   0.338   2.414  0.1874  0.1031  0.4396
  229MOL0     C30791   9.213   0.199   2.450  0.4727 -0.0308  0.7256
  229MOL0     C30792   9.280   0.078   2.374 -0.0910  0.1413 -0.7330
  229MOL0     C30793   9.211  -0.056   2.388 -0.2252 -0.2052  0.2554
  229MOL0     C30794   9.281  -0.165   2.305 -0.5433  0.4606  0.4390
  229MOL0     C30795   9.247  -0.312   2.357 -0.6473 -1.0194 -0.1154
  229MOL0     C30796   9.318  -0.424   2.285  1.2505 -0.2160 -1.1571
  229MOL0     N30797   9.249  -0.548   2.296 -0.0755  0.1998 -0.3584
  229MOL0     C30798   9.274  -0.652   2.387 -0.1924  0.6345 -1.0989
  229MOL0     C30799   9.169  -0.734   2.366 -0.3426  0.4814 -0.3737
  229MOL0     C30800   9.148  -0.854   2.448 -0.4769  0.0612 -0.3253
  229MOL0     C30801   9.144  -0.989   2.385  0.0764 -0.2945  0.4403
  229MOL0     C30802   9.276  -1.025   2.320 -0.2279 -0.4234 -0.8102
  229MOL0     C30803   9.254  -1.151   2.233  0.5820 -0.4644 -0.7002
  229MOL0     O30804   9.385  -1.209   2.210  0.0214 -0.3255 -0.1939
  229MOL0     C30805   9.391  -1.304   2.110 -0.0236 -0.0284 -0.7640
  229MOL0     C30806   9.487  -1.287   2.019 -1.3871  0.0240 -0.0423
  229MOL0     C30807   9.509  -1.381   1.914  0.5124 -0.0010 -0.6167
  229MOL0     C30808   9.634  -1.361   1.826 -0.0989 -0.3267 -0.1209
  229MOL0     C30809   9.422  -1.498   1.902 -0.3117  0.1846 -0.6438
  229MOL0     C30810   9.436  -1.602   1.790  0.1736 -0.6040  0.5358
  229MOL0     O30811   9.368  -1.719   1.818  0.5983  0.2595 -0.0522
  229MOL0     C30812   9.401  -1.826   1.738  0.1453 -0.2629 -0.1930
  229MOL0     C30813   9.529  -1.856   1.702 -0.3261 -0.1354 -0.8165
  229MOL0     C30814   9.557  -1.965   1.608  0.5812 -0.1173  0.4484
  229MOL0     C30815   9.448  -2.039   1.551 -0.6189 -0.4215 -0.8888
  229MOL0     O30816   9.478  -2.150   1.472  0.5547  0.0173 -0.1399
  229MOL0     C30817   9.376  -2.197   1.390  0.8458 -0.0707 -0.2774
  229MOL0     C30818   9.446  -2.303   1.302 -0.7440  0.5304 -0.3815
  229MOL0     C30819   9.445  -2.438   1.375  0.4193  0.1307 -0.7938
  229MOL0     C30820   9.461  -2.558   1.282 -0.6523  0.0891  0.5120
  229MOL0     C30821   9.458  -2.693   1.359  0.0678  0.1735  0.5344
  229MOL0     C30822   9.591  -2.708   1.435 -0.2402 -0.6129  0.2808
  229MOL0     C30823   9.603  -2.845   1.516 -0.0699  0.2918 -0.1526
  229MOL0     C30824   9.745  -2.902   1.532 -0.8054 -0.4365  0.1996
  229MOL0    Cl30825   9.853  -2.770   1.609 -0.4123  0.2055  0.0669
  229MOL0     C30826   9.317  -2.001   1.588 -0.3528 -0.2407  0.0189
  229MOL0     C30827   9.299  -1.899   1.674 -0.1077 -0.5781 -0.8215
  229MOL0     O30828   9.498  -1.577   1.681 -0.3360 -0.6304  0.2320
  229MOL0     C30829   9.317  -1.510   1.998 -0.1098  0.3944 -0.4413
  229MOL0     C30830   9.300  -1.411   2.098  0.7376  0.2267 -0.2823
  229MOL0     N30831   9.095  -0.689   2.262 -0.1379  0.2505  0.3399
  229MOL0     N30832   9.144  -0.580   2.214 -0.2453  0.2407  0.2236
  229MOL0     C30833   9.664   0.444   2.594  0.2398  0.0556  0.6116
  229MOL0     C30834   9.798   0.443   2.641 -0.4358 -1.1203  0.0683
  229MOL0     C30835  10.196   0.359   2.764 -0.1225  0.3300 -0.1248
  229MOL0     C30836  10.212   0.435   2.883 -0.1066 -0.3480  0.2076
  229MOL0     C30837  10.331   0.471   2.936  0.3054  1.1416 -0.1067
  229MOL0     C30838  10.450   0.429   2.878 -0.2582  0.6413 -0.7126
  229MOL0     O30839  10.568   0.462   2.946 -0.5245 -0.2392  0.1333
  229MOL0     C30840  10.692   0.448   2.874 -0.0660 -0.1349  0.1836
  229MOL0     C30841  10.800   0.466   2.983  0.1397 -0.2153 -0.5369
  229MOL0     C30842  10.905   0.352   2.994 -1.1348 -0.4566 -0.1031
  229MOL0     C30843  11.017   0.355   2.886  0.1543  0.3438  0.6425
  229MOL0     C30844  11.119   0.448   2.939  0.6160  0.5066  0.4840
  229MOL0     C30845  11.185   0.540   2.979  0.0620  1.1057 -1.9217
  229MOL0     C30846  10.443   0.349   2.761 -0.1020  0.2640 -0.4946
  229MOL0     C30847  10.318   0.317   2.706  0.4480  0.0646  0.5565
  229MOL0     H30848   9.747   0.193   2.884  2.7284  0.7922  1.0654
  229MOL0     H30849   9.531   0.189   2.783  1.0151  0.2919  1.1871
  229MOL0     H30850   9.449   0.463   2.432 -1.7886 -0.1444 -2.0450
  229MOL0     H30851   9.490   0.287   2.412  1.9535  1.9499  1.0607
  229MOL0     H30852   9.215   0.421   2.453 -3.7611 -1.2466 -2.0597
  229MOL0     H30853   9.272   0.353   2.306  3.2925  0.7447  0.3726
  229MOL0     H30854   9.225   0.180   2.557  0.2595  0.3564  0.8192
  229MOL0     H30855   9.108   0.204   2.422  0.2710  0.4366  1.5332
  229MOL0     H30856   9.277   0.100   2.267 -0.4774 -1.0180 -0.9785
  229MOL0     H30857   9.383   0.068   2.412 -1.2077 -0.3669  2.5477
  229MOL0     H30858   9.212  -0.084   2.494 -0.4445 -5.9598 -0.9245
  229MOL0     H30859   9.107  -0.056   2.356  0.2155 -1.3431 -1.3375
  229MOL0     H30860   9.248  -0.156   2.201 -0.3601 -0.2892  0.3060
  229MOL0     H30861   9.388  -0.150   2.289 -0.7194 -1.3492 -3.7441
  229MOL0     H30862   9.299  -0.310   2.453  0.7867 -1.2618 -0.8563
  229MOL0     H30863   9.145  -0.349   2.366  0.1168 -2.9090  1.8674
  229MOL0     H30864   9.417  -0.430   2.332  0.2715  1.6742  1.3503
  229MOL0     H30865   9.329  -0.396   2.179  2.4061 -0.0794 -1.0189
  229MOL0     H30866   9.360  -0.658   2.454 -1.2199  0.2097  0.2311
  229MOL0     H30867   9.231  -0.863   2.519  1.9308 -0.8215 -3.0306
  229MOL0     H30868   9.055  -0.842   2.504 -0.6690  1.4447 -0.8919
  229MOL0     H30869   9.069  -0.989   2.305 -1.7477  0.6963  2.0412
  229MOL0     H30870   9.115  -1.068   2.455 -1.6806  0.7973  1.0506
  229MOL0     H30871   9.347  -1.037   2.402 -2.5456  3.8698  2.2355
  229MOL0     H30872   9.315  -0.953   2.247  1.3888 -0.6217 -0.1855
  229MOL0     H30873   9.193  -1.115   2.149  0.3424  0.5316 -0.1162
  229MOL0     H30874   9.194  -1.227   2.285 -0.8753  0.5731 -0.7876
  229MOL0     H30875   9.570  -1.217   2.027  1.8729 -3.3365 -1.3047
  229MOL0     H30876   9.721  -1.323   1.880  0.1340 -3.0549  1.6758
  229MOL0     H30877   9.663  -1.465   1.806  1.9032  0.3645 -1.0051
  229MOL0     H30878   9.628  -1.307   1.731  2.5524 -0.3937 -0.4028
  229MOL0     H30879   9.608  -1.798   1.748 -0.8912  0.3513 -0.4377
  229MOL0     H30880   9.657  -1.984   1.569 -0.1745  0.5642 -2.0277
  229MOL0     H30881   9.291  -2.236   1.447 -2.1646  2.7621 -2.4385
  229MOL0     H30882   9.350  -2.113   1.325 -0.1438 -0.1279  0.0205
  229MOL0     H30883   9.387  -2.302   1.210 -1.9107 -3.6431  0.1226
  229MOL0     H30884   9.553  -2.290   1.282 -0.7022  1.5921  0.4210
  229MOL0     H30885   9.350  -2.446   1.428  0.9366  0.4661  0.2121
  229MOL0     H30886   9.528  -2.432   1.446  0.3388 -0.8865 -0.6034
  229MOL0     H30887   9.377  -2.557   1.212  0.1469 -0.6166 -0.4710
  229MOL0     H30888   9.557  -2.550   1.230  0.0927  0.4815  1.8872
  229MOL0     H30889   9.453  -2.767   1.279 -1.0458  2.0149 -1.1899
  229MOL0     H30890   9.364  -2.700   1.415  0.4057  1.4635  1.2887
  229MOL0     H30891   9.668  -2.700   1.357 -1.9950 -0.3816 -1.4944
  229MOL0     H30892   9.610  -2.628   1.507 -0.1806  1.9251 -2.3775
  229MOL0     H30893   9.545  -2.920   1.461  0.2695  1.1308 -1.7078
  229MOL0     H30894   9.553  -2.840   1.613  1.2725 -3.3119  0.9142
  229MOL0     H30895   9.786  -2.940   1.438  1.7727  3.1853 -0.3797
  229MOL0     H30896   9.735  -2.988   1.599  1.8772 -1.7128 -0.8905
  229MOL0     H30897   9.234  -2.066   1.564 -1.2059  1.7596 -2.9500
  229MOL0     H30898   9.195  -1.894   1.704  0.9856 -0.7705  3.5551
  229MOL0     H30899   9.246  -1.592   2.001 -0.0664  0.3615 -0.3249
  229MOL0     H30900   9.216  -1.436   2.163  2.8934 -0.9854  2.2439
  229MOL0     H30901   9.645   0.507   2.508  2.6725 -0.9487 -0.7476
  229MOL0     H30902   9.874   0.504   2.592  0.3790 -3.0511 -1.1973
  229MOL0     H30903  10.123   0.465   2.938 -0.6456 -1.8942  0.2384
  229MOL0     H30904  10.357   0.527   3.025  2.2191  0.0120  0.1182
  229MOL0     H30905  10.697   0.345   2.839 -1.7224 -0.6990  1.5080
  229MOL0     H30906  10.702   0.512   2.785  0.8610  0.2914  0.5727
  229MOL0     H30907  10.748   0.456   3.079 -2.8276 -0.1664 -2.0106
  229MOL0     H30908  10.848   0.560   2.957  3.2247 -1.5223 -0.0352
  229MOL0     H30909  10.845   0.260   2.998 -0.0636 -1.1940 -0.4442
  229MOL0     H30910  10.962   0.352   3.087  0.3990 -0.0907 -1.0013
  229MOL0     H30911  10.972   0.371   2.788 -1.2728 -1.0946  1.0174
  229MOL0     H30912  11.070   0.260   2.879  2.0634  1.0239  3.7256
  229MOL0     H30913  11.243   0.626   3.006  0.8726 -0.2122  0.8075
  229MOL0     H30914  10.530   0.304   2.715 -0.7808  0.0035 -1.5673
  229MOL0     H30915  10.322   0.265   2.611 -1.1556  4.4616 -2.1787
  230MOL0     O30916   1.167  11.347   2.654 -0.2908 -0.4691 -0.0389
  230MOL0     C30917   1.203  11.325   2.764 -0.1191  0.1201  0.0194
  230MOL0     O30918   1.242  11.204   2.801 -0.4957  0.5563  0.4066
  230MOL0     C30919   1.201  11.082   2.755  0.5510  0.3038 -0.5045
  230MOL0     C30920   1.089  11.043   2.680  0.4238 -0.0017 -0.1220
  230MOL0     C30921   1.050  10.913   2.672 -0.3312  0.9107  1.4577
  230MOL0     C30922   1.132  10.811   2.717 -0.0011  0.7461 -0.5815
  230MOL0     O30923   1.085  10.681   2.691  0.3394 -0.4232 -0.0405
  230MOL0     C30924   1.181  10.577   2.672  0.2325  0.0632 -0.7935
  230MOL0     C30925   1.143  10.486   2.552 -0.0122 -0.6596  0.1957
  230MOL0     C30926   1.252  10.405   2.490 -0.6397 -0.2147 -0.1322
  230MOL0     C30927   1.187  10.300   2.399  1.1971 -0.8462  0.3748
  230MOL0     C30928   1.288  10.213   2.321  0.0930 -0.7280 -0.4286
  230MOL0     C30929   1.226  10.113   2.220  0.2079  0.1216  1.1994
  230MOL0     C30930   1.332  10.062   2.125  0.2381 -0.0485 -0.2679
  230MOL0     C30931   1.281   9.948   2.043 -0.5697  0.8785  0.4620
  230MOL0     N30932   1.251   9.825   2.127  0.3692 -0.5913  0.0098
  230MOL0     C30933   1.331   9.762   2.222  0.4653 -0.3788  0.1668
  230MOL0     C30934   1.278   9.638   2.250  0.7954 -1.0062 -0.0020
  230MOL0     C30935   1.316   9.538   2.358  0.0021  0.5741 -0.3837
  230MOL0     C30936   1.453   9.477   2.331 -0.3349 -0.2893 -0.5840
  230MOL0     C30937   1.528   9.448   2.464 -0.0144 -0.8733  0.2772
  230MOL0     C30938   1.653   9.379   2.441  0.1779 -0.6824 -0.0856
  230MOL0     O30939   1.744   9.465   2.355 -1.0400  0.8851  0.1788
  230MOL0     C30940   1.881   9.460   2.398  0.7025 -0.9342 -0.5054
  230MOL0     C30941   1.968   9.365   2.352  0.6190 -0.1748  0.3262
  230MOL0     C30942   2.098   9.352   2.402  0.2284 -0.9632  0.0407
  230MOL0     C30943   2.182   9.252   2.324 -0.3919 -0.4230  0.0913
  230MOL0     C30944   2.147   9.455   2.487  0.1590 -0.6384  0.2467
  230MOL0     C30945   2.292   9.460   2.529  0.6202 -1.0355  0.0578
  230MOL0     O30946   2.345   9.575   2.587  0.3213 -0.1725  0.2601
  230MOL0     C30947   2.480   9.569   2.604  0.7657 -1.0055 -0.3832
  230MOL0     C30948   2.577   9.570   2.499  0.3094 -0.7449 -0.2520
  230MOL0     C30949   2.716   9.546   2.529 -0.6628  0.2552 -0.5049
  230MOL0     C30950   2.755   9.546   2.662  0.2359 -1.4619  0.4328
  230MOL0     O30951   2.886   9.544   2.704  0.4825 -0.7322  0.6624
  230MOL0     C30952   2.989   9.561   2.608  0.1910  0.8315  0.5488
  230MOL0     C30953   3.115   9.602   2.684  0.3943 -0.6111 -0.6175
  230MOL0     C30954   3.233   9.619   2.589 -0.0316  0.3397 -0.5874
  230MOL0     C30955   3.339   9.700   2.661  0.4932 -0.4690  0.3443
  230MOL0     C30956   3.468   9.728   2.574 -0.0457 -0.1174 -0.3994
  230MOL0     C30957   3.439   9.838   2.480 -0.0406  0.5369  0.3743
  230MOL0     C30958   3.559   9.885   2.399  0.2545  0.4244  0.5182
  230MOL0     C30959   3.546  10.014   2.334  0.4359 -0.2415  0.2238
  230MOL0    Cl30960   3.416   9.998   2.202 -0.5877 -0.2225  0.3692
  230MOL0     C30961   2.654   9.545   2.761 -1.3482  0.5281 -0.1987
  230MOL0     C30962   2.520   9.555   2.740 -1.4082 -0.1540  0.6737
  230MOL0     O30963   2.357   9.356   2.517 -0.6766  0.0240  0.1755
  230MOL0     C30964   2.061   9.548   2.537 -0.3527 -0.2531 -0.7172
  230MOL0     C30965   1.928   9.556   2.491 -0.5212  0.3025 -0.8382
  230MOL0     N30966   1.167   9.622   2.170 -1.2199 -0.4532  0.9584
  230MOL0     N30967   1.156   9.731   2.096  0.2371 -0.2542  0.8841
  230MOL0     C30968   1.255  10.841   2.770 -0.5210  0.0476  0.2819
  230MOL0     C30969   1.291  10.978   2.792  0.5814 -0.4290  0.1543
  230MOL0     C30970   1.185  11.427   2.858 -0.9423  0.1869 -0.5805
  230MOL0     C30971   1.187  11.564   2.826 -0.7246  0.1513 -0.5449
  230MOL0     C30972   1.123  11.654   2.913  0.5621  0.1639 -0.1291
  230MOL0     C30973   1.078  11.617   3.038 -1.2538 -0.0608 -0.8375
  230MOL0     O30974   1.030  11.702   3.139 -0.2656  0.3391  0.7173
  230MOL0     C30975   1.053  11.842   3.128 -0.2077 -0.0141  0.2999
  230MOL0     C30976   1.164  11.876   3.228 -0.7460  0.6939 -0.7005
  230MOL0     C30977   1.295  11.785   3.216 -0.0639 -0.7855  0.6542
  230MOL0     C30978   1.411  11.844   3.284  0.2054  0.9240 -0.7161
  230MOL0     C30979   1.393  11.901   3.418 -0.0079  0.1422 -0.2168
  230MOL0     C30980   1.384  11.950   3.533 -0.7331  0.4981 -0.3551
  230MOL0     C30981   1.084  11.483   3.073  0.3599  0.8032 -0.6167
  230MOL0     C30982   1.133  11.380   2.985 -0.4851  0.1381  0.0692
  230MOL0     H30983   1.030  11.130   2.653 -2.1221 -1.4582  0.4336
  230MOL0     H30984   0.957  10.895   2.619  1.0315  2.7508 -1.9073
  230MOL0     H30985   1.270  10.629   2.637 -1.1595  2.5989 -0.8267
  230MOL0     H30986   1.197  10.518   2.763 -2.4908 -0.2865 -0.4324
  230MOL0     H30987   1.066  10.415   2.583  0.3806 -1.3000 -0.2827
  230MOL0     H30988   1.092  10.551   2.480  0.1219 -0.3728  0.3582
  230MOL0     H30989   1.322  10.468   2.435 -0.5767 -0.3009 -0.1505
  230MOL0     H30990   1.306  10.345   2.563 -2.0056  1.2378  2.2132
  230MOL0     H30991   1.132  10.232   2.466  1.8880 -0.7125  1.0938
  230MOL0     H30992   1.109  10.346   2.338  2.1235  1.1545  0.6483
  230MOL0     H30993   1.362  10.271   2.265  0.1561 -1.6104 -1.2895
  230MOL0     H30994   1.360  10.157   2.381  1.1635  1.6982  0.7171
  230MOL0     H30995   1.178  10.035   2.280 -2.5578  1.7642  1.2945
  230MOL0     H30996   1.144  10.157   2.163 -0.1921  0.4475  2.0188
  230MOL0     H30997   1.372  10.150   2.074  1.0838  0.0100  0.4695
  230MOL0     H30998   1.411  10.020   2.187 -0.3872  1.3578  1.6083
  230MOL0     H30999   1.363   9.916   1.978 -0.8827 -2.9166  1.6965
  230MOL0     H31000   1.194   9.981   1.986 -0.8977 -2.3484 -1.1848
  230MOL0     H31001   1.424   9.801   2.262  0.4378 -1.7883  1.6998
  230MOL0     H31002   1.318   9.599   2.448 -4.1495 -1.0662  1.0694
  230MOL0     H31003   1.239   9.464   2.384  0.4941 -0.4794 -1.7699
  230MOL0     H31004   1.522   9.539   2.273 -1.3504 -1.0974 -2.7628
  230MOL0     H31005   1.437   9.385   2.274  2.6183 -0.0296 -2.0122
  230MOL0     H31006   1.460   9.389   2.526 -1.0941  0.9332  0.8994
  230MOL0     H31007   1.539   9.543   2.516  0.4030 -0.6316 -0.2467
  230MOL0     H31008   1.623   9.288   2.389 -1.0320 -1.2538  1.5309
  230MOL0     H31009   1.700   9.357   2.537 -0.3612  2.9659  1.2023
  230MOL0     H31010   1.907   9.298   2.293 -1.4082  3.1363 -1.6633
  230MOL0     H31011   2.114   9.186   2.269 -1.4424  0.8120 -0.1375
  230MOL0     H31012   2.255   9.304   2.261  0.1474 -3.6589 -2.2119
  230MOL0     H31013   2.242   9.183   2.383  0.0279 -0.2191 -0.0945
  230MOL0     H31014   2.562   9.561   2.392  1.7828  0.1782 -0.5815
  230MOL0     H31015   2.792   9.547   2.452 -1.2614 -1.5605 -1.1775
  230MOL0     H31016   3.011   9.466   2.558 -1.5746  1.9674 -2.6522
  230MOL0     H31017   2.964   9.628   2.526 -3.2541 -3.1951 -2.1179
  230MOL0     H31018   3.097   9.697   2.733 -2.3908 -0.6523 -1.4064
  230MOL0     H31019   3.151   9.536   2.764 -1.7009  1.6919  2.4383
  230MOL0     H31020   3.206   9.673   2.497  2.3301 -0.7156 -1.9987
  230MOL0     H31021   3.277   9.523   2.562  1.8260  0.6154  1.2419
  230MOL0     H31022   3.296   9.793   2.700  2.9420 -0.4318  3.3215
  230MOL0     H31023   3.369   9.639   2.746 -0.8753 -1.5636  0.0731
  230MOL0     H31024   3.490   9.632   2.527  0.2407 -0.9028  1.2387
  230MOL0     H31025   3.548   9.755   2.643 -1.2451 -1.5741  1.6821
  230MOL0     H31026   3.363   9.810   2.406  2.2977 -0.4416 -1.7873
  230MOL0     H31027   3.404   9.920   2.544 -0.3175  1.1573 -0.5610
  230MOL0     H31028   3.603   9.814   2.329  0.3433  0.6584  0.3368
  230MOL0     H31029   3.640   9.907   2.470  2.4429 -2.7749 -0.7739
  230MOL0     H31030   3.641  10.044   2.289  1.0280 -2.0125  0.2427
  230MOL0     H31031   3.520  10.089   2.410 -0.8323 -0.8939  0.4573
  230MOL0     H31032   2.699   9.564   2.858 -0.1865  3.2247 -1.1504
  230MOL0     H31033   2.451   9.556   2.823 -1.2705  5.2417  1.0691
  230MOL0     H31034   2.087   9.611   2.621 -0.7832 -1.1342  0.1001
  230MOL0     H31035   1.872   9.639   2.532  0.2654  3.2163 -4.9999
  230MOL0     H31036   1.317  10.759   2.804  0.3396  0.2731 -0.7126
  230MOL0     H31037   1.373  11.000   2.859  0.9535  1.1305 -0.7581
  230MOL0     H31038   1.225  11.597   2.730 -1.9671  0.3173 -1.0006
  230MOL0     H31039   1.113  11.760   2.890 -0.1585  0.1222 -0.0444
  230MOL0     H31040   1.083  11.884   3.032 -1.3210  0.4536  0.1384
  230MOL0     H31041   0.963  11.898   3.154  0.4882 -0.0378  3.1655
  230MOL0     H31042   1.125  11.858   3.328  2.4373  0.4863  0.6284
  230MOL0     H31043   1.196  11.980   3.218  1.0891  0.0971 -1.5815
  230MOL0     H31044   1.326  11.789   3.112 -1.6009 -2.6852  0.0633
  230MOL0     H31045   1.284  11.681   3.248 -0.7132 -1.7009 -2.2584
  230MOL0     H31046   1.439  11.923   3.214  1.2375  0.9761 -0.2581
  230MOL0     H31047   1.487  11.766   3.288  0.1422  0.8398 -1.1979
  230MOL0     H31048   1.382  11.983   3.635  4.4221 -2.0259  0.9542
  230MOL0     H31049   1.031  11.465   3.166  1.0975  0.4426 -0.2591
  230MOL0     H31050   1.106  11.276   3.003 -0.7232  0.2533  0.3893
  231MOL0     O31051   1.822   8.359   5.894 -0.7865  0.0601 -0.2901
  231MOL0     C31052   1.880   8.344   5.786 -1.0348  0.7021  0.4276
  231MOL0     O31053   1.885   8.428   5.685 -0.9420  0.3280  0.4797
  231MOL0     C31054   1.840   8.555   5.694 -0.1842 -0.5952 -0.3827
  231MOL0     C31055   1.772   8.602   5.592 -0.2971 -0.1595 -0.3781
  231MOL0     C31056   1.722   8.730   5.586  0.0699  0.3325 -0.7831
  231MOL0     C31057   1.760   8.821   5.685  0.4409 -0.7880  0.9528
  231MOL0     O31058   1.736   8.956   5.679 -0.1731 -0.6445 -0.1686
  231MOL0     C31059   1.619   9.002   5.606  0.1060  0.3941 -0.1080
  231MOL0     C31060   1.659   9.052   5.465 -0.3448  0.3644 -0.3976
  231MOL0     C31061   1.715   9.198   5.460 -1.2597  0.2818 -0.0722
  231MOL0     C31062   1.695   9.277   5.319  0.9800  0.2382  0.1065
  231MOL0     C31063   1.826   9.352   5.289  0.1085 -0.6585 -1.0625
  231MOL0     C31064   1.823   9.448   5.167 -0.4576 -0.3401 -0.3648
  231MOL0     C31065   1.748   9.576   5.215 -0.0541 -0.3580 -0.2658
  231MOL0     C31066   1.845   9.670   5.292  0.7395 -0.6993  1.5748
  231MOL0     N31067   1.791   9.810   5.287 -0.0493 -0.1782 -0.5755
  231MOL0     C31068   1.754   9.887   5.397  0.0060  0.1580 -0.6233
  231MOL0     C31069   1.705  10.008   5.350 -0.4613  0.6511  0.5832
  231MOL0     C31070   1.691  10.148   5.421 -0.2988 -0.4218 -0.6060
  231MOL0     C31071   1.599  10.133   5.539  0.3678  0.2632 -0.0228
  231MOL0     C31072   1.559  10.271   5.607  0.1356  0.2728 -0.0508
  231MOL0     C31073   1.430  10.242   5.691 -0.9686 -0.4364  0.7996
  231MOL0     O31074   1.329  10.232   5.588 -0.2946 -0.9710  0.4385
  231MOL0     C31075   1.196  10.208   5.621 -0.9726  1.7185 -0.5960
  231MOL0     C31076   1.152  10.223   5.750  0.5758 -0.9469 -0.3332
  231MOL0     C31077   1.016  10.211   5.794 -0.3334 -0.8521 -0.4261
  231MOL0     C31078   0.990  10.246   5.935  0.0721  0.5017 -0.0413
  231MOL0     C31079   0.923  10.180   5.699 -1.2070  1.2473 -0.0715
  231MOL0     C31080   0.778  10.163   5.718 -0.1300 -0.1187  1.0467
  231MOL0     O31081   0.707  10.084   5.626 -0.1728 -0.4862 -0.2563
  231MOL0     C31082   0.573  10.071   5.626 -0.1286  0.2050 -0.5989
  231MOL0     C31083   0.494  10.189   5.643 -0.7454  0.1084 -0.1943
  231MOL0     C31084   0.357  10.178   5.675 -0.6982 -0.3714 -0.5875
  231MOL0     C31085   0.291  10.055   5.658  0.3606 -0.0260  0.4911
  231MOL0     O31086   0.156  10.060   5.668 -0.2383  0.0110  0.0134
  231MOL0     C31087   0.079   9.953   5.618 -0.2725 -0.5925 -0.4831
  231MOL0     C31088  -0.064   9.992   5.661 -0.2573  0.2145 -0.0043
  231MOL0     C31089  -0.134  10.088   5.565  0.3472 -1.5060 -0.7229
  231MOL0     C31090  -0.214  10.018   5.448  0.9233  0.3386  0.8004
  231MOL0     C31091  -0.261  10.131   5.358 -0.4593 -0.1543 -0.6916
  231MOL0     C31092  -0.311  10.073   5.221  0.1076 -0.2433 -0.9559
  231MOL0     C31093  -0.292  10.193   5.115  0.6497  0.3472  0.4441
  231MOL0     C31094  -0.345  10.154   4.975 -0.3733 -0.5902  0.5280
  231MOL0    Cl31095  -0.511  10.095   4.991  0.2567 -0.3351 -0.4625
  231MOL0     C31096   0.372   9.937   5.638  0.5944 -0.5526  0.1819
  231MOL0     C31097   0.515   9.944   5.636 -0.4088 -0.3836  0.2374
  231MOL0     O31098   0.718  10.223   5.807 -0.3698 -1.1285  0.1481
  231MOL0     C31099   0.967  10.163   5.562  0.2104  0.2617 -0.2405
  231MOL0     C31100   1.098  10.187   5.528  0.1880 -0.3321  0.0791
  231MOL0     N31101   1.711   9.987   5.211 -0.0182  1.2162 -0.3595
  231MOL0     N31102   1.775   9.879   5.178 -0.7111 -0.1527  1.2877
  231MOL0     C31103   1.830   8.771   5.797  0.1698  0.1032  0.4476
  231MOL0     C31104   1.868   8.637   5.804  0.0783  0.0583  0.7733
  231MOL0     C31105   1.953   8.206   5.776  0.7123 -0.1393  0.1727
  231MOL0     C31106   1.983   8.149   5.655  0.4616 -0.2399 -0.1432
  231MOL0     C31107   2.053   8.025   5.660 -0.4733 -0.1646  0.5360
  231MOL0     C31108   2.080   7.960   5.776 -0.6379  0.4733  0.1146
  231MOL0     O31109   2.149   7.840   5.757  0.2882 -0.2009 -0.6981
  231MOL0     C31110   2.266   7.808   5.833 -0.9599  0.5696 -0.2347
  231MOL0     C31111   2.321   7.671   5.771 -0.4496  0.3313  0.0442
  231MOL0     C31112   2.407   7.699   5.652 -0.1422 -0.8143 -0.1050
  231MOL0     C31113   2.504   7.589   5.621 -0.4152  0.2769  0.2887
  231MOL0     C31114   2.620   7.643   5.546  1.0241 -0.3226  0.9520
  231MOL0     C31115   2.711   7.689   5.487 -0.1181  0.5742  0.6577
  231MOL0     C31116   2.045   8.026   5.899  0.6013  0.7880  0.7227
  231MOL0     C31117   1.987   8.144   5.895  0.0841  0.1239 -0.0378
  231MOL0     H31118   1.762   8.533   5.508  1.5361 -0.6110 -0.2743
  231MOL0     H31119   1.672   8.764   5.496 -0.5799 -0.2293 -0.6481
  231MOL0     H31120   1.541   8.925   5.612  2.2055 -1.9898 -1.3250
  231MOL0     H31121   1.581   9.093   5.652 -3.2266 -1.3655  0.9259
  231MOL0     H31122   1.708   8.980   5.399  0.0964  0.6270 -0.3555
  231MOL0     H31123   1.571   9.049   5.400 -1.0610  0.0992  0.5643
  231MOL0     H31124   1.694   9.262   5.545  1.0991  0.4098  0.5074
  231MOL0     H31125   1.821   9.169   5.454 -1.2095  0.5728 -0.7775
  231MOL0     H31126   1.674   9.202   5.243 -0.6069 -2.1535  2.7093
  231MOL0     H31127   1.605   9.340   5.327  2.1147  2.7813 -3.9368
  231MOL0     H31128   1.865   9.402   5.379  3.1410 -2.5959 -1.1718
  231MOL0     H31129   1.902   9.276   5.269  1.5757  0.5403 -0.2344
  231MOL0     H31130   1.927   9.469   5.140 -0.5331 -2.4332 -2.5968
  231MOL0     H31131   1.776   9.407   5.077 -2.3908 -0.0757  0.4685
  231MOL0     H31132   1.706   9.634   5.131 -5.3286 -2.1627  0.7604
  231MOL0     H31133   1.659   9.552   5.274 -0.0567 -1.5937 -0.7475
  231MOL0     H31134   1.934   9.676   5.229 -1.6775 -0.7548 -2.2090
  231MOL0     H31135   1.865   9.635   5.393  3.4041 -0.8627  1.0483
  231MOL0     H31136   1.771   9.860   5.500  0.5044  2.5230 -0.0356
  231MOL0     H31137   1.786  10.188   5.458 -2.9743  3.9293  2.4885
  231MOL0     H31138   1.652  10.216   5.345  0.3903  0.1772 -0.4365
  231MOL0     H31139   1.623  10.058   5.615  0.5080  0.2494 -0.0791
  231MOL0     H31140   1.506  10.093   5.498  0.6976  0.5021 -1.0486
  231MOL0     H31141   1.530  10.357   5.546 -4.1301 -1.2294 -0.5022
  231MOL0     H31142   1.649  10.295   5.664  3.8473 -4.1679 -3.3017
  231MOL0     H31143   1.412  10.320   5.766 -2.2779  1.0880 -1.0276
  231MOL0     H31144   1.436  10.142   5.735  1.4987 -0.8293 -0.2612
  231MOL0     H31145   1.215  10.266   5.827 -0.5552  0.7907 -0.3194
  231MOL0     H31146   1.033  10.343   5.962  0.4480  0.3276 -0.0051
  231MOL0     H31147   0.882  10.252   5.955 -0.0247 -0.1889 -0.3089
  231MOL0     H31148   1.040  10.168   5.994 -0.4753 -2.0697 -2.7231
  231MOL0     H31149   0.543  10.285   5.657  0.8585 -0.9178  1.9978
  231MOL0     H31150   0.291  10.257   5.708 -4.4179 -3.0115 -1.1264
  231MOL0     H31151   0.088   9.933   5.511 -3.3226 -0.7165 -0.8211
  231MOL0     H31152   0.107   9.859   5.666 -0.9020 -0.3552  0.3799
  231MOL0     H31153  -0.121   9.901   5.681  3.2492 -2.5538 -1.4944
  231MOL0     H31154  -0.048  10.031   5.762 -3.0584 -0.7145  0.8840
  231MOL0     H31155  -0.064  10.162   5.524 -0.5289 -0.5532 -0.5447
  231MOL0     H31156  -0.198  10.152   5.625  1.4273 -2.8352  2.0240
  231MOL0     H31157  -0.134   9.962   5.398  0.6324  1.0871 -0.5540
  231MOL0     H31158  -0.295   9.950   5.478  1.3858 -1.0860 -0.9966
  231MOL0     H31159  -0.176  10.198   5.340 -1.6937  2.4356  2.1393
  231MOL0     H31160  -0.344  10.189   5.402  0.2633  1.5588 -1.4913
  231MOL0     H31161  -0.247   9.988   5.197 -1.1329 -1.7894  0.9100
  231MOL0     H31162  -0.414  10.038   5.226 -0.0457  0.1665 -1.1545
  231MOL0     H31163  -0.186  10.215   5.102  0.6282  0.4034  0.3671
  231MOL0     H31164  -0.348  10.284   5.139 -0.5300  0.9096 -3.6897
  231MOL0     H31165  -0.286  10.071   4.934  0.7333  0.4302 -0.0351
  231MOL0     H31166  -0.348  10.238   4.905 -2.2809 -1.5231 -0.5939
  231MOL0     H31167   0.329   9.839   5.624  1.8509 -1.3688  1.6785
  231MOL0     H31168   0.584   9.863   5.613 -0.3733 -0.0443 -0.9215
  231MOL0     H31169   0.891  10.151   5.486 -1.9530 -0.7354  1.9442
  231MOL0     H31170   1.118  10.175   5.422 -3.8188 -1.0644 -0.7779
  231MOL0     H31171   1.878   8.839   5.866  2.7789 -0.7524 -0.4036
  231MOL0     H31172   1.934   8.597   5.881 -0.8363  0.4253  1.7603
  231MOL0     H31173   1.944   8.200   5.567 -3.1046 -1.0924  0.7957
  231MOL0     H31174   2.087   7.981   5.566 -3.8564 -0.9045 -0.5094
  231MOL0     H31175   2.340   7.889   5.822 -0.0913 -0.2868 -0.9135
  231MOL0     H31176   2.241   7.800   5.939  0.7271  1.3639  0.2663
  231MOL0     H31177   2.230   7.619   5.742  0.2074 -1.5720  1.2157
  231MOL0     H31178   2.360   7.606   5.850 -2.4319 -1.9678 -0.7407
  231MOL0     H31179   2.463   7.793   5.661  0.4320 -1.0962 -0.6630
  231MOL0     H31180   2.342   7.723   5.567 -1.2772  0.8653  1.1690
  231MOL0     H31181   2.465   7.508   5.558  0.3481  0.8601 -0.9590
  231MOL0     H31182   2.538   7.542   5.714  1.4251  1.0907  0.0579
  231MOL0     H31183   2.791   7.729   5.427  2.1958 -2.4430  1.4221
  231MOL0     H31184   2.076   7.971   5.987  1.7639  0.6188  0.2217
  231MOL0     H31185   1.955   8.193   5.986 -2.1110  3.7902 -2.4875
  232MOL0     O31186   8.551   2.190   4.345 -0.0637 -0.3561  0.2723
  232MOL0     C31187   8.557   2.192   4.468 -0.6108  0.9292  1.0583
  232MOL0     O31188   8.476   2.138   4.558  1.2383 -0.4590  0.0501
  232MOL0     C31189   8.364   2.068   4.508  0.2727  0.2146 -0.1181
  232MOL0     C31190   8.267   2.122   4.421 -0.2474  0.1973  0.5418
  232MOL0     C31191   8.175   2.042   4.364  0.4660  0.5905 -0.3696
  232MOL0     C31192   8.157   1.911   4.410  0.1269 -0.2564  0.8220
  232MOL0     O31193   8.050   1.834   4.377 -0.3942  0.3562  0.5595
  232MOL0     C31194   7.926   1.900   4.367 -0.7566 -0.9840 -0.9505
  232MOL0     C31195   7.836   1.794   4.311 -0.3443 -0.6500  0.2581
  232MOL0     C31196   7.704   1.847   4.249  0.3649  1.2305  0.8110
  232MOL0     C31197   7.609   1.729   4.210 -0.3743 -0.8385  0.4988
  232MOL0     C31198   7.503   1.787   4.112 -0.2973 -0.4870  0.1169
  232MOL0     C31199   7.400   1.675   4.101  0.2818 -0.2282  0.5885
  232MOL0     C31200   7.274   1.711   4.007 -0.0944  0.6165 -0.3425
  232MOL0     C31201   7.308   1.707   3.856  0.6848  0.1391  0.3825
  232MOL0     N31202   7.184   1.721   3.772 -0.2461 -1.0189 -0.8178
  232MOL0     C31203   7.094   1.818   3.788 -0.2381 -0.0076 -0.2049
  232MOL0     C31204   6.987   1.780   3.703 -1.1024 -0.1994  0.5785
  232MOL0     C31205   6.851   1.848   3.701  0.5886  0.1525 -0.1047
  232MOL0     C31206   6.844   1.897   3.558 -0.2892 -0.4853  0.7552
  232MOL0     C31207   6.711   1.957   3.526  0.9668  0.1701  0.0585
  232MOL0     C31208   6.595   1.855   3.538 -0.0275  0.4856 -0.6160
  232MOL0     O31209   6.474   1.913   3.489  0.4304  0.4638  0.2690
  232MOL0     C31210   6.376   1.844   3.429 -0.0474  0.3633 -0.2092
  232MOL0     C31211   6.279   1.927   3.372  0.2604  0.3384  0.1028
  232MOL0     C31212   6.153   1.875   3.319  0.0753 -0.0024  0.9640
  232MOL0     C31213   6.062   1.983   3.262  0.1305  0.0561 -0.6863
  232MOL0     C31214   6.136   1.735   3.315 -0.4019 -0.5900  1.1889
  232MOL0     C31215   6.020   1.682   3.267  0.2226  0.3293  1.2587
  232MOL0     O31216   5.905   1.724   3.320 -0.0105 -0.4509  0.8532
  232MOL0     C31217   5.792   1.676   3.262 -0.4866  0.3322  1.0078
  232MOL0     C31218   5.740   1.730   3.145  0.5897 -0.5423 -0.2315
  232MOL0     C31219   5.616   1.687   3.093  0.3412 -0.3599 -0.5780
  232MOL0     C31220   5.548   1.581   3.152 -0.8055  0.6385 -0.7223
  232MOL0     O31221   5.426   1.535   3.110 -0.0398  0.0947 -0.6774
  232MOL0     C31222   5.353   1.604   3.012  1.3556 -0.9177  0.1938
  232MOL0     C31223   5.226   1.529   2.968  0.0293  0.4551  0.0372
  232MOL0     C31224   5.161   1.605   2.856  0.7487 -0.5381 -0.3693
  232MOL0     C31225   5.160   1.526   2.727  0.1555  0.8512 -0.5061
  232MOL0     C31226   5.057   1.582   2.639 -0.3535  0.6018 -0.2276
  232MOL0     C31227   5.001   1.482   2.533 -0.6931  0.1888 -0.8490
  232MOL0     C31228   4.936   1.560   2.426 -0.2317 -0.6562  0.4166
  232MOL0     C31229   4.852   1.490   2.325  0.8174  0.0135 -0.0847
  232MOL0    Cl31230   4.710   1.421   2.401  0.0475  0.2743  0.1141
  232MOL0     C31231   5.603   1.524   3.267  0.4461 -0.3420  0.1628
  232MOL0     C31232   5.719   1.570   3.319 -0.6113 -0.6139 -0.7738
  232MOL0     O31233   6.026   1.595   3.189  0.2268  0.7754  0.3254
  232MOL0     C31234   6.230   1.652   3.376  0.7268 -0.2512 -0.0987
  232MOL0     C31235   6.347   1.709   3.439 -0.6201  0.2198 -0.4863
  232MOL0     N31236   7.035   1.677   3.624 -0.1770 -0.3789 -0.8207
  232MOL0     N31237   7.150   1.642   3.675  0.6713  0.3241  0.3240
  232MOL0     C31238   8.242   1.855   4.496 -1.1752  0.4141  0.3900
  232MOL0     C31239   8.351   1.930   4.542 -0.3428  0.1426 -0.2990
  232MOL0     C31240   8.685   2.247   4.508  0.0477  0.2944  0.1278
  232MOL0     C31241   8.730   2.243   4.642 -0.7798  0.0401  0.2005
  232MOL0     C31242   8.857   2.312   4.674  0.3792  0.4634  0.2187
  232MOL0     C31243   8.930   2.379   4.578  0.1425 -0.4483 -0.4378
  232MOL0     O31244   9.043   2.434   4.628  0.0729 -0.1201  0.1699
  232MOL0     C31245   9.119   2.523   4.545 -0.4560  0.0041 -0.5360
  232MOL0     C31246   9.271   2.533   4.585 -0.0167 -0.3008 -0.0133
  232MOL0     C31247   9.290   2.544   4.741  0.0077 -0.0236  0.3412
  232MOL0     C31248   9.422   2.609   4.792 -0.2559  0.1189  0.2900
  232MOL0     C31249   9.416   2.753   4.783 -0.9253  0.1734 -0.2989
  232MOL0     C31250   9.412   2.870   4.774  0.5936 -0.9712  0.5448
  232MOL0     C31251   8.878   2.393   4.447 -0.4493 -0.1863 -0.0697
  232MOL0     C31252   8.763   2.321   4.415 -0.2276  0.3898 -0.1328
  232MOL0     H31253   8.249   2.227   4.402 -1.6880 -0.4295 -2.1059
  232MOL0     H31254   8.104   2.084   4.294 -2.7455  0.9304  2.7682
  232MOL0     H31255   7.885   1.931   4.464  1.6754  1.4192 -0.5985
  232MOL0     H31256   7.929   1.984   4.297 -1.8721 -0.6867 -0.6646
  232MOL0     H31257   7.897   1.747   4.233  1.8944  3.2909 -0.6296
  232MOL0     H31258   7.827   1.715   4.386  2.8563 -1.0375  0.4144
  232MOL0     H31259   7.646   1.918   4.309 -0.9296  0.9908 -0.1173
  232MOL0     H31260   7.733   1.904   4.160 -1.3163 -1.4680 -1.6535
  232MOL0     H31261   7.667   1.650   4.162  1.8735  0.8410  0.2495
  232MOL0     H31262   7.560   1.687   4.298  3.8484 -1.1414  2.9969
  232MOL0     H31263   7.456   1.876   4.155 -2.7764 -1.1071 -1.1588
  232MOL0     H31264   7.539   1.810   4.012 -1.0316 -2.9629 -0.7924
  232MOL0     H31265   7.451   1.591   4.054 -1.4861 -2.2347  2.0881
  232MOL0     H31266   7.357   1.636   4.194 -2.5249  1.5178  0.1779
  232MOL0     H31267   7.192   1.642   4.027  1.3078 -0.7532  0.9944
  232MOL0     H31268   7.241   1.812   4.035  1.7791  1.0837  0.3486
  232MOL0     H31269   7.356   1.618   3.815 -0.9129  0.1728 -1.7675
  232MOL0     H31270   7.373   1.790   3.826  2.2591 -1.6093 -1.2525
  232MOL0     H31271   7.085   1.902   3.856  0.0381 -0.0830 -0.0731
  232MOL0     H31272   6.772   1.775   3.723  1.0804 -0.7378 -1.1795
  232MOL0     H31273   6.844   1.931   3.772 -0.3390 -0.9521  1.1804
  232MOL0     H31274   6.852   1.812   3.490 -0.1276  0.1104  0.0187
  232MOL0     H31275   6.923   1.972   3.547 -0.7153  0.4486  3.3206
  232MOL0     H31276   6.707   2.001   3.426 -3.2078  1.0810  0.4372
  232MOL0     H31277   6.688   2.026   3.608 -3.4815 -0.6124 -0.2451
  232MOL0     H31278   6.582   1.818   3.640  1.3089 -0.6845 -0.8399
  232MOL0     H31279   6.623   1.774   3.470 -2.0725 -1.6259  0.8913
  232MOL0     H31280   6.312   2.029   3.358 -0.8580  0.7253  0.1770
  232MOL0     H31281   6.117   2.038   3.185 -2.2567  1.0568 -1.8032
  232MOL0     H31282   5.990   1.937   3.194  0.4699 -1.5536 -0.0126
  232MOL0     H31283   6.037   2.055   3.340 -1.2869 -1.8703  0.7434
  232MOL0     H31284   5.799   1.809   3.100 -0.9264  1.6158  1.3514
  232MOL0     H31285   5.583   1.747   3.009  1.2366  1.5441  0.3584
  232MOL0     H31286   5.319   1.693   3.066  2.8949 -0.1643 -0.0373
  232MOL0     H31287   5.409   1.640   2.926  0.0156  1.6367  0.3035
  232MOL0     H31288   5.255   1.426   2.945 -0.2913  0.7855 -2.0557
  232MOL0     H31289   5.154   1.525   3.051 -0.3094  1.0177 -0.2207
  232MOL0     H31290   5.207   1.702   2.835 -1.3622  0.5617 -0.1936
  232MOL0     H31291   5.054   1.608   2.882  1.4978 -0.7385  3.2911
  232MOL0     H31292   5.258   1.534   2.681  0.2684  0.7847 -0.2798
  232MOL0     H31293   5.135   1.422   2.750  0.4655  0.5385 -1.5501
  232MOL0     H31294   5.100   1.664   2.580  2.7883 -0.8880 -0.2543
  232MOL0     H31295   4.971   1.625   2.689 -0.3885  0.1735  0.0807
  232MOL0     H31296   5.085   1.425   2.493  2.8145  2.9359  1.9649
  232MOL0     H31297   4.932   1.414   2.585  0.5446 -0.0838  0.4855
  232MOL0     H31298   5.010   1.617   2.368 -1.6497  1.3565  0.4530
  232MOL0     H31299   4.872   1.638   2.470 -2.0633 -1.3098 -0.9337
  232MOL0     H31300   4.905   1.410   2.274 -0.1695  0.2163 -1.4864
  232MOL0     H31301   4.824   1.566   2.252 -0.6259  2.3571  2.6785
  232MOL0     H31302   5.540   1.448   3.312  2.8804 -3.9507 -2.0162
  232MOL0     H31303   5.756   1.550   3.419 -1.5109  2.2340  0.2442
  232MOL0     H31304   6.211   1.545   3.372  0.0659 -0.1858  0.9563
  232MOL0     H31305   6.427   1.651   3.483  0.0698  1.2021 -0.4049
  232MOL0     H31306   8.233   1.752   4.527 -0.7206 -0.2890 -1.6393
  232MOL0     H31307   8.433   1.887   4.599  1.0276 -0.2161 -2.4419
  232MOL0     H31308   8.682   2.201   4.730  1.6212 -1.4663  0.8823
  232MOL0     H31309   8.900   2.285   4.770  4.5350  2.1319 -0.9084
  232MOL0     H31310   9.124   2.485   4.443  0.1507  0.9991 -0.8931
  232MOL0     H31311   9.070   2.621   4.544 -0.5161  0.1691  3.1874
  232MOL0     H31312   9.327   2.610   4.531 -2.3281  1.8728  0.4577
  232MOL0     H31313   9.328   2.443   4.561  1.5743 -0.5726  4.0146
  232MOL0     H31314   9.285   2.442   4.778  0.5904  1.5911  5.6742
  232MOL0     H31315   9.213   2.596   4.798  1.6994  1.3571  1.4882
  232MOL0     H31316   9.511   2.566   4.746 -2.1613 -0.6069 -3.0083
  232MOL0     H31317   9.422   2.587   4.899 -4.3209 -0.9696  0.2391
  232MOL0     H31318   9.408   2.976   4.759  1.2112 -1.0207  0.0121
  232MOL0     H31319   8.918   2.454   4.367 -1.8923  0.9243  0.0145
  232MOL0     H31320   8.729   2.344   4.315 -1.6316  2.4785  0.7533
  233MOL0     O31321  10.254   9.368   2.362  1.1198 -0.4324 -1.0600
  233MOL0     C31322  10.183   9.468   2.371  0.9468  0.3336  0.4464
  233MOL0     O31323  10.046   9.462   2.358 -0.2809 -0.7725  0.0721
  233MOL0     C31324   9.979   9.343   2.352 -0.1191 -0.2233  1.0719
  233MOL0     C31325   9.899   9.312   2.236 -0.7385 -1.6069 -0.6019
  233MOL0     C31326   9.820   9.196   2.240 -0.7469 -0.0529  1.0200
  233MOL0     C31327   9.846   9.095   2.342  0.4406  0.2545  0.4444
  233MOL0     O31328   9.774   8.980   2.343  0.3383 -0.2640  0.3011
  233MOL0     C31329   9.673   8.959   2.236 -0.3315  0.3105 -0.7908
  233MOL0     C31330   9.640   8.809   2.240 -0.7384 -1.2810 -0.0104
  233MOL0     C31331   9.578   8.762   2.374 -0.1518  0.5899  0.0186
  233MOL0     C31332   9.565   8.617   2.394  0.6168 -0.3026  0.3148
  233MOL0     C31333   9.535   8.594   2.546  0.4491 -0.6747 -0.2027
  233MOL0     C31334   9.519   8.441   2.583 -0.9930 -0.0271 -0.0044
  233MOL0     C31335   9.466   8.421   2.728 -0.1378  0.2575  1.8054
  233MOL0     C31336   9.444   8.275   2.755  0.0484 -0.9967  0.4856
  233MOL0     N31337   9.342   8.246   2.854 -0.0357 -0.2637  1.0637
  233MOL0     C31338   9.212   8.286   2.879 -0.3018 -0.2446  0.6594
  233MOL0     C31339   9.167   8.200   2.963 -0.3374  0.4355 -0.2861
  233MOL0     C31340   9.037   8.210   3.030  0.3010 -0.6508  0.1912
  233MOL0     C31341   9.068   8.269   3.168  0.1979 -0.5568  0.3576
  233MOL0     C31342   8.965   8.223   3.281 -0.3523  0.0803  0.4575
  233MOL0     C31343   8.831   8.301   3.278 -0.3671 -0.2509 -0.2655
  233MOL0     O31344   8.866   8.443   3.272 -0.4336  0.2008  0.7743
  233MOL0     C31345   8.931   8.506   3.372  0.1121 -1.0551  0.5143
  233MOL0     C31346   9.003   8.624   3.346  0.6487  0.8091 -0.7348
  233MOL0     C31347   9.058   8.703   3.443 -0.1577 -1.0192 -1.0394
  233MOL0     C31348   9.116   8.839   3.418 -0.3246  0.1977 -0.1665
  233MOL0     C31349   9.053   8.655   3.573  1.0280 -0.4259 -0.3911
  233MOL0     C31350   9.113   8.741   3.681  0.0484  0.4705 -0.9992
  233MOL0     O31351   9.226   8.709   3.751 -0.7765  1.0526 -0.6379
  233MOL0     C31352   9.293   8.597   3.700 -0.1686 -0.1110 -0.6687
  233MOL0     C31353   9.388   8.624   3.606 -0.0481  0.7083  0.6956
  233MOL0     C31354   9.452   8.513   3.542  0.3912  0.3855 -0.1384
  233MOL0     C31355   9.432   8.383   3.585 -0.4892 -0.2123  0.0399
  233MOL0     O31356   9.511   8.277   3.551  0.4783 -0.5537 -0.8494
  233MOL0     C31357   9.495   8.194   3.442  0.7859 -0.1928 -0.0488
  233MOL0     C31358   9.614   8.231   3.351  0.2168 -0.0270  0.5125
  233MOL0     C31359   9.612   8.155   3.218 -0.1431  0.4151  0.7213
  233MOL0     C31360   9.755   8.156   3.146  0.1041  0.1651  0.3357
  233MOL0     C31361   9.736   8.132   2.993 -0.2858  0.2508 -0.8413
  233MOL0     C31362   9.861   8.087   2.925 -0.9087  0.2366  0.0535
  233MOL0     C31363   9.920   7.951   2.960  0.0352  0.2700 -0.1315
  233MOL0     C31364  10.040   7.920   2.861 -0.2702  0.1055  1.0925
  233MOL0    Cl31365  10.005   7.899   2.682  0.2671 -0.2328 -0.0952
  233MOL0     C31366   9.338   8.359   3.687  0.4548  0.5584  0.1419
  233MOL0     C31367   9.272   8.468   3.750 -0.5505  0.3910  0.9667
  233MOL0     O31368   9.046   8.842   3.704  0.9364  0.6173  0.3113
  233MOL0     C31369   8.991   8.537   3.600 -0.4468  0.3419  0.3094
  233MOL0     C31370   8.940   8.463   3.501 -0.5724 -0.2661 -0.0754
  233MOL0     N31371   9.259   8.102   2.988 -0.3155  0.5792 -0.8843
  233MOL0     N31372   9.363   8.134   2.925  0.2465 -0.1341 -0.0172
  233MOL0     C31373   9.926   9.127   2.443 -0.2724  0.3426  0.6922
  233MOL0     C31374   9.993   9.246   2.450  1.3463  0.1971 -0.7075
  233MOL0     C31375  10.260   9.588   2.405  0.0885  0.3432  0.0375
  233MOL0     C31376  10.188   9.715   2.411 -0.1859  0.0095  1.1226
  233MOL0     C31377  10.256   9.828   2.431 -1.1824 -0.2635  0.0557
  233MOL0     C31378  10.395   9.823   2.436  0.9453  0.4183 -0.2693
  233MOL0     O31379  10.473   9.933   2.446 -0.0157  0.7313  0.2583
  233MOL0     C31380  10.517   9.983   2.323  0.9862 -0.2762 -0.1336
  233MOL0     C31381  10.412  10.093   2.281  0.3600 -0.6310 -0.6211
  233MOL0     C31382  10.459  10.180   2.160  0.3657 -0.3028  0.2161
  233MOL0     C31383  10.355  10.278   2.118 -0.1155  0.0123 -0.6854
  233MOL0     C31384  10.350  10.394   2.208 -0.9148 -0.0081 -0.5612
  233MOL0     C31385  10.354  10.485   2.288 -0.5291 -0.5837 -0.1298
  233MOL0     C31386  10.464   9.702   2.434  0.1766 -0.1795  0.0548
  233MOL0     C31387  10.399   9.583   2.435  0.4539  0.5964 -0.5120
  233MOL0     H31388   9.889   9.390   2.161  0.9187 -0.1893  0.5763
  233MOL0     H31389   9.755   9.178   2.155 -4.0815 -4.0330  3.9608
  233MOL0     H31390   9.582   9.019   2.241 -0.4321  0.5264 -3.6998
  233MOL0     H31391   9.717   8.977   2.137 -1.5936  2.2066 -1.0580
  233MOL0     H31392   9.566   8.795   2.162 -1.0235 -1.1009  0.2253
  233MOL0     H31393   9.727   8.748   2.215 -0.1332 -0.3222 -0.3262
  233MOL0     H31394   9.642   8.809   2.449  0.9129 -1.1806  0.2569
  233MOL0     H31395   9.481   8.812   2.381  1.1726  3.1724  1.1168
  233MOL0     H31396   9.497   8.571   2.321  0.4448  0.6039 -0.1063
  233MOL0     H31397   9.661   8.573   2.367 -1.5540 -4.0845 -2.1303
  233MOL0     H31398   9.616   8.641   2.602 -1.2123  0.2046  1.5887
  233MOL0     H31399   9.445   8.652   2.570  0.8916 -0.0285 -0.0707
  233MOL0     H31400   9.460   8.381   2.513  0.0651 -1.6226  0.4367
  233MOL0     H31401   9.623   8.409   2.578 -0.7370  0.8889 -1.1228
  233MOL0     H31402   9.530   8.468   2.803  0.9542  0.2844  0.8864
  233MOL0     H31403   9.373   8.479   2.732  0.8848  1.9704  1.6990
  233MOL0     H31404   9.527   8.209   2.782 -0.5724 -0.5287  4.0609
  233MOL0     H31405   9.422   8.225   2.661 -1.9341 -0.5722  0.6777
  233MOL0     H31406   9.166   8.378   2.847  0.4221 -0.6830 -1.8024
  233MOL0     H31407   8.979   8.286   2.977  3.4661  1.2259 -0.8223
  233MOL0     H31408   8.987   8.113   3.025  1.4142 -1.2128 -0.5382
  233MOL0     H31409   9.087   8.377   3.163 -1.3346 -0.1339  2.4079
  233MOL0     H31410   9.161   8.223   3.203 -0.1641 -1.2375  0.4437
  233MOL0     H31411   9.014   8.214   3.378 -0.9035 -0.1202  0.7266
  233MOL0     H31412   8.941   8.119   3.259 -1.0741 -0.3403  2.9356
  233MOL0     H31413   8.766   8.276   3.362  2.5733 -0.5073  2.0833
  233MOL0     H31414   8.779   8.280   3.184 -2.5711 -2.0348  1.2197
  233MOL0     H31415   8.987   8.668   3.248 -3.6670  0.5102 -0.3271
  233MOL0     H31416   9.205   8.865   3.476  1.8291 -0.9391 -2.7547
  233MOL0     H31417   9.148   8.839   3.314  1.7688  1.0548  0.4255
  233MOL0     H31418   9.041   8.911   3.451  0.1143  0.9369 -0.7854
  233MOL0     H31419   9.403   8.727   3.576 -1.6835  1.0176  0.8525
  233MOL0     H31420   9.519   8.523   3.457  0.7540  0.5003  0.1588
  233MOL0     H31421   9.513   8.089   3.464  1.3256 -0.1696 -0.3677
  233MOL0     H31422   9.405   8.210   3.382  0.5033 -1.4797  0.0065
  233MOL0     H31423   9.617   8.336   3.322  0.3881 -0.0087  0.5921
  233MOL0     H31424   9.711   8.215   3.399  0.7718 -0.0591 -0.5781
  233MOL0     H31425   9.533   8.193   3.153 -1.1040 -0.0351  1.5929
  233MOL0     H31426   9.579   8.053   3.240 -0.5376 -0.3672 -2.9063
  233MOL0     H31427   9.809   8.250   3.160 -2.1468  1.8530 -1.5376
  233MOL0     H31428   9.826   8.087   3.192  1.1382  1.2320  0.4045
  233MOL0     H31429   9.697   8.226   2.953 -1.6678 -0.5927 -1.5472
  233MOL0     H31430   9.658   8.056   2.982 -2.7109  2.4986 -0.4171
  233MOL0     H31431   9.857   8.094   2.816 -1.1230 -5.0196 -0.5087
  233MOL0     H31432   9.935   8.162   2.955  1.4351 -2.0001  0.2398
  233MOL0     H31433   9.840   7.878   2.945 -0.6013  0.4801  1.9185
  233MOL0     H31434   9.943   7.943   3.067 -1.6054  1.4638  0.3485
  233MOL0     H31435  10.096   7.836   2.903  1.9732  1.4026  0.8635
  233MOL0     H31436  10.107   8.004   2.880  0.0359  0.0743  0.2195
  233MOL0     H31437   9.330   8.256   3.720  0.2160 -0.3564 -2.5760
  233MOL0     H31438   9.206   8.457   3.835  0.0946  1.5260  1.6455
  233MOL0     H31439   8.984   8.499   3.702 -1.0338 -1.1069 -0.2374
  233MOL0     H31440   8.887   8.374   3.533  2.4308 -1.8070  0.9766
  233MOL0     H31441   9.940   9.045   2.514  0.5486 -0.8592 -0.7854
  233MOL0     H31442  10.044   9.255   2.545 -2.0256 -1.9295  1.5055
  233MOL0     H31443  10.082   9.725   2.388 -0.7075 -0.5398  3.1140
  233MOL0     H31444  10.211   9.925   2.445  0.5350  0.1888  3.3800
  233MOL0     H31445  10.612  10.038   2.329  0.7276  0.1591  0.0523
  233MOL0     H31446  10.511   9.904   2.248 -2.3880 -0.7886  0.5033
  233MOL0     H31447  10.402  10.157   2.369 -1.1436 -1.2709 -0.2988
  233MOL0     H31448  10.318  10.042   2.258  0.0773 -1.2508  1.6841
  233MOL0     H31449  10.476  10.098   2.090  4.9824  0.2973  0.3424
  233MOL0     H31450  10.561  10.217   2.173  1.0777 -1.7554 -0.8806
  233MOL0     H31451  10.256  10.236   2.099 -0.8880  1.3626  0.1999
  233MOL0     H31452  10.394  10.318   2.024  4.6316 -0.6996  0.6882
  233MOL0     H31453  10.352  10.567   2.358  0.9326 -1.6453  1.2283
  233MOL0     H31454  10.572   9.700   2.431  0.2907  0.4046 -4.9324
  233MOL0     H31455  10.444   9.485   2.445 -1.2458 -0.1072  0.6405
  234MOL0     O31456   8.271   9.384   7.338 -0.4376 -0.0352  0.0239
  234MOL0     C31457   8.343   9.418   7.429 -0.5382 -0.7081  0.2538
  234MOL0     O31458   8.418   9.532   7.437 -0.2375 -0.5223 -0.6239
  234MOL0     C31459   8.388   9.632   7.353  0.2531 -0.1199 -0.2644
  234MOL0     C31460   8.464   9.644   7.233 -0.2420  1.2266 -0.7369
  234MOL0     C31461   8.425   9.728   7.126  0.4508 -0.2221 -0.1351
  234MOL0     C31462   8.306   9.806   7.143 -0.2437 -0.5348  0.4876
  234MOL0     O31463   8.240   9.868   7.041 -0.2831  0.2416  0.1140
  234MOL0     C31464   8.303   9.933   6.932 -0.4656  0.7360 -0.2293
  234MOL0     C31465   8.206  10.023   6.864 -0.0828  0.2629 -0.0446
  234MOL0     C31466   8.078   9.964   6.811  0.2919  0.7169 -0.4342
  234MOL0     C31467   8.093   9.860   6.703  0.5523  0.8512 -0.3286
  234MOL0     C31468   7.964   9.796   6.651  0.4961 -0.2726 -1.0106
  234MOL0     C31469   7.864   9.886   6.583  0.3269  0.0633  0.0204
  234MOL0     C31470   7.744   9.797   6.523  0.2169 -0.2834 -0.1790
  234MOL0     C31471   7.611   9.872   6.519 -0.1606 -0.5173 -0.3629
  234MOL0     N31472   7.504   9.790   6.466  0.2805  1.0989  0.7311
  234MOL0     C31473   7.378   9.789   6.522  0.3383  1.2802  0.9383
  234MOL0     C31474   7.306   9.716   6.427  0.8784 -0.4292  0.5960
  234MOL0     C31475   7.167   9.694   6.418  0.3458  0.7165 -0.5381
  234MOL0     C31476   7.129   9.549   6.370 -0.5240  0.4468  0.3917
  234MOL0     C31477   7.211   9.437   6.461  0.4565  0.3959  0.9569
  234MOL0     C31478   7.149   9.301   6.418  0.7606  0.3123 -0.0654
  234MOL0     O31479   7.197   9.184   6.481 -0.0284 -0.0350  0.0366
  234MOL0     C31480   7.152   9.063   6.438  0.7079 -0.1544  0.5451
  234MOL0     C31481   7.094   9.036   6.312  0.2310 -1.3913  0.0407
  234MOL0     C31482   7.019   8.912   6.289  0.2035 -0.2948 -0.0112
  234MOL0     C31483   6.939   8.911   6.166  0.0141  0.0606  0.0896
  234MOL0     C31484   7.016   8.809   6.384  0.0171 -0.2238  0.3420
  234MOL0     C31485   6.926   8.688   6.387 -0.5424 -0.3502 -0.0074
  234MOL0     O31486   6.890   8.631   6.512  0.0606 -0.8730 -0.2144
  234MOL0     C31487   6.793   8.537   6.500 -1.6958  0.6175 -0.3691
  234MOL0     C31488   6.835   8.410   6.454  0.0127  0.1387  0.4156
  234MOL0     C31489   6.742   8.304   6.460  0.1025 -0.0421 -0.9300
  234MOL0     C31490   6.608   8.322   6.505 -0.2499  0.8698  0.3408
  234MOL0     O31491   6.516   8.219   6.507 -0.5411 -0.8884  0.2075
  234MOL0     C31492   6.555   8.117   6.606 -0.6057  0.4009  0.4128
  234MOL0     C31493   6.483   8.134   6.738 -0.2352 -0.1743  0.1333
  234MOL0     C31494   6.506   8.014   6.836  0.9584 -0.7348  0.5566
  234MOL0     C31495   6.549   8.065   6.975 -0.2820 -0.3228  0.2495
  234MOL0     C31496   6.630   7.951   7.033  0.4999  0.5964 -0.5683
  234MOL0     C31497   6.664   7.979   7.188 -0.5818 -0.2357  0.1101
  234MOL0     C31498   6.758   7.880   7.250  0.1525 -0.4748  0.0317
  234MOL0     C31499   6.904   7.859   7.195 -0.4286 -0.3476 -0.8218
  234MOL0    Cl31500   6.996   8.011   7.161  0.0570 -0.1689 -0.4212
  234MOL0     C31501   6.566   8.456   6.533  0.6385  0.3882 -0.6437
  234MOL0     C31502   6.659   8.556   6.533  0.1147  0.2058  0.0241
  234MOL0     O31503   6.909   8.627   6.279 -0.0931 -0.6926  1.6086
  234MOL0     C31504   7.106   8.831   6.496  0.9511  0.1914  0.6255
  234MOL0     C31505   7.155   8.952   6.528  0.4431 -0.1043  0.7488
  234MOL0     N31506   7.386   9.674   6.323 -0.6185 -0.9244 -0.3552
  234MOL0     N31507   7.505   9.717   6.346  0.8139 -0.8568  0.8220
  234MOL0     C31508   8.235   9.800   7.266  0.3250 -0.1230 -0.5141
  234MOL0     C31509   8.267   9.710   7.360  0.1505  0.8097  0.2312
  234MOL0     C31510   8.366   9.326   7.537  0.0491  0.2272 -0.1506
  234MOL0     C31511   8.446   9.361   7.650 -0.0309 -0.0556 -0.1588
  234MOL0     C31512   8.469   9.276   7.752 -0.7507 -0.0485 -0.0472
  234MOL0     C31513   8.414   9.143   7.753  0.9372 -0.1834  1.1415
  234MOL0     O31514   8.446   9.046   7.842  0.2917  0.1318  0.7102
  234MOL0     C31515   8.539   9.077   7.941  0.2344 -0.4783  0.1821
  234MOL0     C31516   8.596   8.959   8.016  0.2061  0.0333 -0.5838
  234MOL0     C31517   8.697   8.882   7.929  0.0766  0.0747 -0.1005
  234MOL0     C31518   8.729   8.744   7.992 -0.6240 -0.4954  0.4155
  234MOL0     C31519   8.811   8.778   8.109 -0.4126 -0.1085 -0.1770
  234MOL0     C31520   8.894   8.809   8.198 -0.1210  0.4210  0.0614
  234MOL0     C31521   8.327   9.113   7.641  0.0584 -0.1979 -0.2667
  234MOL0     C31522   8.312   9.200   7.528 -0.1039 -0.9363  0.1858
  234MOL0     H31523   8.550   9.579   7.234 -0.6335  0.6803 -1.4903
  234MOL0     H31524   8.478   9.720   7.032 -1.6120  1.3809 -1.5218
  234MOL0     H31525   8.384   9.993   6.975 -1.7169 -0.0344  3.5808
  234MOL0     H31526   8.343   9.860   6.862 -0.3314  0.9319 -0.3577
  234MOL0     H31527   8.180  10.096   6.942 -1.3094 -1.0670  0.8301
  234MOL0     H31528   8.258  10.078   6.785 -0.2732 -0.4393 -0.6611
  234MOL0     H31529   8.021   9.925   6.896  1.3257  0.4210  0.1394
  234MOL0     H31530   8.020  10.047   6.769 -0.8357  0.4921  0.6133
  234MOL0     H31531   8.151   9.900   6.619  1.1679 -2.0525 -1.4353
  234MOL0     H31532   8.144   9.773   6.745 -3.4168 -0.8145  1.4766
  234MOL0     H31533   7.990   9.728   6.570  1.1475 -1.4235  0.1368
  234MOL0     H31534   7.916   9.744   6.735 -2.8802  0.5449 -2.2744
  234MOL0     H31535   7.822   9.960   6.651 -0.9320 -0.7660  0.1728
  234MOL0     H31536   7.911   9.940   6.500  1.1580  2.4781  1.9468
  234MOL0     H31537   7.770   9.764   6.422  1.9666 -2.2801  0.8388
  234MOL0     H31538   7.723   9.705   6.578  1.2084 -0.8482 -0.7145
  234MOL0     H31539   7.619   9.972   6.475 -0.7114 -1.3823 -2.5766
  234MOL0     H31540   7.584   9.872   6.625  1.8635  0.0914  0.1941
  234MOL0     H31541   7.337   9.824   6.616 -2.2566 -0.8635  0.7206
  234MOL0     H31542   7.118   9.716   6.513  2.3530 -0.3304  0.7954
  234MOL0     H31543   7.144   9.775   6.348 -1.2974 -0.0034 -0.8926
  234MOL0     H31544   7.146   9.542   6.262 -1.0845  2.0470  0.1653
  234MOL0     H31545   7.021   9.536   6.384 -0.4566  1.2895  1.8825
  234MOL0     H31546   7.202   9.458   6.568 -0.0100 -0.9645  1.2033
  234MOL0     H31547   7.319   9.443   6.451  0.7391 -0.8812  2.8443
  234MOL0     H31548   7.168   9.283   6.312 -0.1709 -3.5160  0.2934
  234MOL0     H31549   7.041   9.319   6.423  0.7580  1.9272 -3.1767
  234MOL0     H31550   7.112   9.114   6.239 -1.9775  2.1232  2.9122
  234MOL0     H31551   6.935   9.009   6.119 -2.9484  0.1870  0.3816
  234MOL0     H31552   6.978   8.832   6.102  2.3163  0.7752  0.5179
  234MOL0     H31553   6.834   8.887   6.186  0.4667 -1.2553  1.0631
  234MOL0     H31554   6.940   8.390   6.437 -0.1969  0.7635 -1.8427
  234MOL0     H31555   6.788   8.210   6.432 -0.0120  0.3509 -2.4994
  234MOL0     H31556   6.526   8.022   6.561  0.6497 -0.4455  1.3214
  234MOL0     H31557   6.662   8.113   6.628 -0.7015 -3.2169  0.8812
  234MOL0     H31558   6.510   8.227   6.787  1.6370 -0.8774  0.5407
  234MOL0     H31559   6.379   8.139   6.706  0.9147  0.9958 -3.9794
  234MOL0     H31560   6.585   7.948   6.799  0.8247 -0.7001  0.2017
  234MOL0     H31561   6.416   7.952   6.840  0.5083 -0.1185  0.1379
  234MOL0     H31562   6.603   8.159   6.983 -1.4304  0.2057  2.9553
  234MOL0     H31563   6.462   8.081   7.040  0.5556  0.7780  1.1221
  234MOL0     H31564   6.722   7.951   6.973  1.2629 -1.6200  0.4958
  234MOL0     H31565   6.580   7.854   7.034  1.9084 -0.1593 -0.7268
  234MOL0     H31566   6.706   8.080   7.193 -0.7263 -0.1736  0.0867
  234MOL0     H31567   6.579   7.982   7.256  0.8495 -1.4047  2.0457
  234MOL0     H31568   6.704   7.785   7.257 -5.2079  2.0888 -0.9010
  234MOL0     H31569   6.769   7.910   7.355 -2.6754 -0.0168  0.2829
  234MOL0     H31570   6.897   7.807   7.099 -2.8538 -2.1224  0.1985
  234MOL0     H31571   6.949   7.792   7.269 -2.7104 -0.0845  0.8923
  234MOL0     H31572   6.458   8.466   6.545  0.3584 -0.6673 -1.9343
  234MOL0     H31573   6.621   8.655   6.558 -3.0607 -0.0302 -3.1619
  234MOL0     H31574   7.117   8.750   6.567  0.6803  1.4365  2.1450
  234MOL0     H31575   7.207   8.957   6.624  3.6184  0.0957 -0.8432
  234MOL0     H31576   8.147   9.862   7.284 -0.5914 -1.6396  0.4237
  234MOL0     H31577   8.219   9.684   7.455 -0.1559  2.2337  0.4861
  234MOL0     H31578   8.462   9.467   7.666  0.0603  0.2727 -2.1224
  234MOL0     H31579   8.528   9.317   7.833  1.1654 -0.3136 -1.2539
  234MOL0     H31580   8.626   9.134   7.906  0.8390 -2.3228 -1.5298
  234MOL0     H31581   8.486   9.140   8.013 -3.4449  0.6005 -3.1128
  234MOL0     H31582   8.512   8.896   8.046  0.5564  0.1606  0.7266
  234MOL0     H31583   8.641   8.997   8.108 -2.2701  3.6329 -0.6798
  234MOL0     H31584   8.783   8.947   7.911  0.7454 -0.5756  0.6586
  234MOL0     H31585   8.649   8.871   7.831  3.0421  0.1752 -1.6939
  234MOL0     H31586   8.796   8.694   7.922 -1.4099  0.1140 -0.8079
  234MOL0     H31587   8.644   8.682   8.023 -2.4237  0.5290 -2.1493
  234MOL0     H31588   8.960   8.801   8.282 -1.8416  3.7320  1.9249
  234MOL0     H31589   8.272   9.019   7.634  0.5449 -0.4943 -0.1117
  234MOL0     H31590   8.251   9.171   7.443  1.8079  1.4059 -2.1760
  235MOL0     O31591   6.825   8.657   7.554  0.2772 -0.1581  0.0463
  235MOL0     C31592   6.764   8.625   7.454 -0.9184 -0.8483  0.4679
  235MOL0     O31593   6.768   8.698   7.336 -0.0044  0.3878 -0.2134
  235MOL0     C31594   6.818   8.823   7.313  0.5686  0.7750  0.1650
  235MOL0     C31595   6.948   8.860   7.344  0.1358  0.2864 -0.6129
  235MOL0     C31596   6.980   8.995   7.332  0.7368 -0.4542  0.0770
  235MOL0     C31597   6.899   9.081   7.266  0.3492  0.2343 -0.0120
  235MOL0     O31598   6.950   9.200   7.239  0.2706 -0.3250 -0.3028
  235MOL0     C31599   6.859   9.316   7.247  0.1244  0.0316  0.1219
  235MOL0     C31600   6.791   9.318   7.379 -0.7578  0.0983  0.0299
  235MOL0     C31601   6.705   9.436   7.405  0.0058 -0.8624 -0.6003
  235MOL0     C31602   6.774   9.560   7.462 -0.8880 -0.0765  0.5895
  235MOL0     C31603   6.683   9.681   7.457 -0.1308  0.6451 -0.3732
  235MOL0     C31604   6.570   9.658   7.559  0.3186  0.5987  0.5072
  235MOL0     C31605   6.525   9.795   7.625 -0.3756  0.6609  0.1332
  235MOL0     C31606   6.414   9.776   7.734  0.4550  0.3841  0.1527
  235MOL0     N31607   6.430   9.881   7.831  0.3413  0.7861  1.0197
  235MOL0     C31608   6.520   9.885   7.937 -0.7113  1.0843  0.2630
  235MOL0     C31609   6.459   9.928   8.043 -0.1891 -0.4554 -0.0858
  235MOL0     C31610   6.509   9.947   8.183  0.2355 -0.1260 -0.5191
  235MOL0     C31611   6.590  10.076   8.202  1.3131 -0.3131  0.3167
  235MOL0     C31612   6.493  10.194   8.216  0.3787 -0.2922 -1.0616
  235MOL0     C31613   6.573  10.329   8.227 -0.2032  1.0083  1.1836
  235MOL0     O31614   6.492  10.436   8.262  0.0996 -0.5693 -1.0651
  235MOL0     C31615   6.533  10.563   8.230 -0.1590 -0.4744 -0.0280
  235MOL0     C31616   6.673  10.590   8.216  0.0340  0.7488  1.1157
  235MOL0     C31617   6.725  10.717   8.184 -0.4384 -0.6283 -0.3844
  235MOL0     C31618   6.871  10.740   8.170 -0.9187  0.3260  0.2921
  235MOL0     C31619   6.623  10.819   8.172 -0.9449 -0.1107  0.2545
  235MOL0     C31620   6.646  10.947   8.124 -0.1016  0.6204  0.5402
  235MOL0     O31621   6.628  11.059   8.208  0.0992  0.2618  0.0661
  235MOL0     C31622   6.611  11.176   8.141 -0.7915  0.4417 -0.6112
  235MOL0     C31623   6.488  11.221   8.115 -0.1183 -0.5304  1.2833
  235MOL0     C31624   6.466  11.347   8.040 -0.4791  0.1152 -0.1736
  235MOL0     C31625   6.582  11.414   7.992  0.1045 -1.0059  0.0902
  235MOL0     O31626   6.556  11.523   7.904 -0.8564  0.0429  0.2280
  235MOL0     C31627   6.651  11.630   7.885  0.0016  0.8734  1.3205
  235MOL0     C31628   6.660  11.729   7.995 -0.1063 -0.1185  0.1683
  235MOL0     C31629   6.520  11.763   8.048  0.7506  0.2168  0.1705
  235MOL0     C31630   6.513  11.863   8.158  0.3912 -0.0356  0.1311
  235MOL0     C31631   6.361  11.892   8.191 -1.1944  0.1496 -0.6213
  235MOL0     C31632   6.337  12.026   8.257  0.3620  0.4323  0.6336
  235MOL0     C31633   6.354  12.015   8.407  0.4420  0.5551 -0.6743
  235MOL0     C31634   6.387  12.150   8.470 -0.1535 -0.3354 -0.7901
  235MOL0    Cl31635   6.288  12.283   8.400 -0.9228 -0.0070  0.3460
  235MOL0     C31636   6.707  11.363   8.025  0.1128 -0.3298  0.0045
  235MOL0     C31637   6.719  11.250   8.111  0.5654 -0.5755 -0.5185
  235MOL0     O31638   6.685  10.951   8.009 -0.4614 -0.6112 -0.6354
  235MOL0     C31639   6.489  10.797   8.194 -0.4131  0.4014  0.4922
  235MOL0     C31640   6.442  10.665   8.213 -1.0187 -0.0172 -0.1486
  235MOL0     N31641   6.344   9.983   7.998 -0.0255  0.0740 -0.3755
  235MOL0     N31642   6.323   9.950   7.878 -0.6232  0.3514  0.6475
  235MOL0     C31643   6.774   9.039   7.219  0.2027 -0.6268 -0.4828
  235MOL0     C31644   6.736   8.907   7.246  0.3999 -0.0854 -0.4288
  235MOL0     C31645   6.699   8.494   7.439 -0.2335 -0.2694  0.1760
  235MOL0     C31646   6.705   8.397   7.541 -0.4431  0.0220 -0.4388
  235MOL0     C31647   6.649   8.267   7.519  0.0744 -0.1751  0.3974
  235MOL0     C31648   6.553   8.248   7.419  1.0165  0.6330  0.1258
  235MOL0     O31649   6.470   8.143   7.391  0.5992 -0.4972 -0.0028
  235MOL0     C31650   6.472   8.037   7.501  0.1198  0.3736  0.8740
  235MOL0     C31651   6.402   8.071   7.630 -0.7611  0.3382 -0.6199
  235MOL0     C31652   6.262   8.093   7.596  0.4342 -0.0918  0.0164
  235MOL0     C31653   6.181   8.130   7.726  0.3500 -0.2965  0.4880
  235MOL0     C31654   6.056   8.197   7.685  0.1778 -0.2146  0.1250
  235MOL0     C31655   5.968   8.261   7.635  0.9434  0.1044  0.2437
  235MOL0     C31656   6.523   8.356   7.337  0.2325 -0.5166 -0.3578
  235MOL0     C31657   6.607   8.471   7.338  0.0439  0.4301  0.0103
  235MOL0     H31658   7.025   8.794   7.383  0.0382 -0.3783 -1.5195
  235MOL0     H31659   7.079   9.028   7.362 -0.0874  1.6209  0.7097
  235MOL0     H31660   6.912   9.411   7.236 -2.8243  1.7284 -0.3579
  235MOL0     H31661   6.791   9.324   7.162  1.3036  0.4152 -0.8168
  235MOL0     H31662   6.719   9.236   7.378 -0.8856  0.1639  1.4726
  235MOL0     H31663   6.866   9.307   7.459 -0.7409  2.0043  0.3194
  235MOL0     H31664   6.666   9.468   7.307  2.3760 -0.9304 -1.6490
  235MOL0     H31665   6.615   9.412   7.463 -1.2371  2.4436 -0.9169
  235MOL0     H31666   6.809   9.537   7.563 -2.4786 -1.6063  0.8331
  235MOL0     H31667   6.863   9.582   7.401 -1.1798 -0.4785  0.0105
  235MOL0     H31668   6.738   9.769   7.492  1.2618 -0.1831 -0.4161
  235MOL0     H31669   6.642   9.700   7.358 -1.5956 -2.0800 -0.3851
  235MOL0     H31670   6.486   9.609   7.508  1.4329 -0.9030  0.0585
  235MOL0     H31671   6.605   9.589   7.636 -1.4351 -0.5231  0.3606
  235MOL0     H31672   6.602   9.863   7.663 -0.6462  1.1962 -0.2663
  235MOL0     H31673   6.473   9.843   7.542  0.0008  1.4319  0.3363
  235MOL0     H31674   6.426   9.687   7.797  0.4439  1.1212  1.2121
  235MOL0     H31675   6.312   9.793   7.699  0.2481  3.0352  1.8314
  235MOL0     H31676   6.618   9.839   7.927  0.4036  3.6949 -2.3036
  235MOL0     H31677   6.424   9.938   8.251 -0.1215  0.4395 -0.8827
  235MOL0     H31678   6.567   9.858   8.209 -0.5761 -0.4361  0.2626
  235MOL0     H31679   6.641  10.089   8.106 -0.7904  0.5157 -0.7550
  235MOL0     H31680   6.652  10.076   8.292  1.3625  0.7618  0.2906
  235MOL0     H31681   6.437  10.195   8.310 -2.9083  0.2588 -2.8684
  235MOL0     H31682   6.416  10.193   8.138 -0.4049 -1.2753 -0.3086
  235MOL0     H31683   6.619  10.341   8.128 -0.6471  1.7481  1.0575
  235MOL0     H31684   6.658  10.323   8.296  1.0051  0.9664 -0.2343
  235MOL0     H31685   6.751  10.516   8.232 -0.4626  0.0774  0.5370
  235MOL0     H31686   6.893  10.836   8.218  0.7576 -0.3991  1.0474
  235MOL0     H31687   6.938  10.665   8.213  0.3315  0.3335 -1.5441
  235MOL0     H31688   6.890  10.751   8.063 -2.1628  1.7935  0.1860
  235MOL0     H31689   6.408  11.150   8.134 -0.3683 -0.8530 -0.7263
  235MOL0     H31690   6.365  11.366   8.006 -1.1866  1.4615  2.3809
  235MOL0     H31691   6.749  11.607   7.841  0.1433  1.3527  1.3786
  235MOL0     H31692   6.605  11.685   7.803 -2.3534 -1.4931  0.9513
  235MOL0     H31693   6.727  11.691   8.073  2.2925  3.8558  0.2818
  235MOL0     H31694   6.706  11.819   7.953  2.3279 -1.5506 -0.4369
  235MOL0     H31695   6.482  11.672   8.095 -1.2721  1.0932  0.3022
  235MOL0     H31696   6.459  11.802   7.966  0.7252  2.1419  1.0387
  235MOL0     H31697   6.552  11.823   8.252  1.4645 -1.3327 -0.8331
  235MOL0     H31698   6.572  11.951   8.128  2.5526 -1.1522  0.8963
  235MOL0     H31699   6.317  11.815   8.255 -1.1326  0.9181  0.3865
  235MOL0     H31700   6.301  11.899   8.100 -1.9869 -0.4376 -0.1618
  235MOL0     H31701   6.408  12.097   8.214  1.5473 -1.4534 -0.7391
  235MOL0     H31702   6.241  12.077   8.244  1.8596  3.7800  1.7916
  235MOL0     H31703   6.431  11.940   8.430 -1.5598 -1.6661 -0.8401
  235MOL0     H31704   6.260  11.980   8.451  0.2817 -0.1544 -1.5436
  235MOL0     H31705   6.492  12.172   8.450  0.1899 -1.9668 -0.9110
  235MOL0     H31706   6.382  12.155   8.579 -3.6119 -1.0868 -0.8052
  235MOL0     H31707   6.794  11.417   7.990 -0.4276  1.9256  1.9182
  235MOL0     H31708   6.817  11.207   8.132  0.6198 -1.5451 -2.4545
  235MOL0     H31709   6.417  10.878   8.192  0.0155  0.7821 -0.7470
  235MOL0     H31710   6.335  10.648   8.217 -0.9663 -0.4509 -0.5425
  235MOL0     H31711   6.697   9.098   7.169 -1.8670 -1.9636  0.9743
  235MOL0     H31712   6.636   8.872   7.223  0.6505  0.3028 -2.2222
  235MOL0     H31713   6.761   8.407   7.634 -1.1671 -3.0609  0.4620
  235MOL0     H31714   6.666   8.185   7.588 -2.1063 -1.6699 -0.7230
  235MOL0     H31715   6.433   7.943   7.463  0.4064 -0.0449  1.6034
  235MOL0     H31716   6.572   8.008   7.535  0.9825  0.4414 -1.4688
  235MOL0     H31717   6.436   8.170   7.663 -0.4006  0.0832 -0.2349
  235MOL0     H31718   6.429   7.983   7.688  5.3457 -2.0204 -5.7374
  235MOL0     H31719   6.223   8.002   7.550 -1.8482  1.3852 -1.1371
  235MOL0     H31720   6.260   8.164   7.513 -2.7594 -0.3370 -0.2350
  235MOL0     H31721   6.233   8.202   7.789  2.3308 -1.2870  0.0570
  235MOL0     H31722   6.154   8.047   7.791  0.7363  0.2515  1.3580
  235MOL0     H31723   5.876   8.303   7.599  0.8146  0.2709  0.7572
  235MOL0     H31724   6.445   8.345   7.263  0.9006  1.1716 -1.3547
  235MOL0     H31725   6.585   8.555   7.273  1.3674  0.6124 -0.2485
  236MOL0     O31726   1.162   7.901   8.405  0.0780  0.6676  0.4109
  236MOL0     C31727   1.160   7.834   8.507 -0.3035  0.0582  0.1351
  236MOL0     O31728   1.252   7.849   8.614  0.6246  0.8929  0.3981
  236MOL0     C31729   1.338   7.963   8.619  0.1391  0.4065  0.8591
  236MOL0     C31730   1.285   8.093   8.645  0.3631 -0.4579 -0.1062
  236MOL0     C31731   1.377   8.198   8.657  0.7437  0.6519 -0.6117
  236MOL0     C31732   1.511   8.184   8.645  0.0846 -0.2471  0.6607
  236MOL0     O31733   1.594   8.290   8.670  0.2643 -0.6261  0.0386
  236MOL0     C31734   1.669   8.345   8.564  0.6768  0.2901  0.0159
  236MOL0     C31735   1.762   8.463   8.625 -0.0529  0.7353  1.0594
  236MOL0     C31736   1.835   8.436   8.759  0.0395 -0.3844 -0.1896
  236MOL0     C31737   1.888   8.564   8.833  0.5074 -0.1525 -1.3349
  236MOL0     C31738   1.764   8.657   8.888  0.1588  0.0819 -0.3125
  236MOL0     C31739   1.804   8.799   8.929  0.6122 -0.7480  0.7796
  236MOL0     C31740   1.934   8.803   9.016 -0.0430 -0.9711  0.1103
  236MOL0     C31741   1.944   8.939   9.087 -0.5162 -0.1174  0.3634
  236MOL0     N31742   2.077   8.962   9.150 -0.4536 -0.1341  0.2199
  236MOL0     C31743   2.186   9.020   9.085 -0.7286  0.6313  0.2192
  236MOL0     C31744   2.271   9.060   9.183 -0.2852  0.2439  0.3611
  236MOL0     C31745   2.387   9.157   9.170  0.2114  0.0802  0.8372
  236MOL0     C31746   2.514   9.075   9.161  0.4497  0.6338 -0.1390
  236MOL0     C31747   2.626   9.163   9.110  0.9332  0.1161  0.0168
  236MOL0     C31748   2.647   9.282   9.197 -0.5114 -0.5629 -0.2289
  236MOL0     O31749   2.650   9.249   9.336  0.0574 -0.5352 -0.2610
  236MOL0     C31750   2.668   9.358   9.413  0.7122  0.2775 -0.3054
  236MOL0     C31751   2.627   9.332   9.544 -0.5291  0.4057 -0.2030
  236MOL0     C31752   2.642   9.422   9.644 -0.1721 -0.1865 -0.4880
  236MOL0     C31753   2.603   9.367   9.777  0.3882  0.2139 -0.2687
  236MOL0     C31754   2.676   9.558   9.617  0.0950 -0.4539 -0.1647
  236MOL0     C31755   2.697   9.672   9.716 -0.0638  0.9055 -0.5190
  236MOL0     O31756   2.677   9.640   9.846  0.1332  0.0183 -0.1920
  236MOL0     C31757   2.672   9.738   9.945 -0.1055  0.6191  0.4646
  236MOL0     C31758   2.624   9.866   9.928 -0.4975  0.2732  0.1746
  236MOL0     C31759   2.630   9.958  10.038 -0.0281  0.4603 -0.4864
  236MOL0     C31760   2.653   9.909  10.169  0.2485 -0.7572 -1.2067
  236MOL0     O31761   2.649   9.997  10.284  1.1593 -0.6336 -0.5764
  236MOL0     C31762   2.578  10.114  10.253 -0.0924  0.0962 -0.0703
  236MOL0     C31763   2.542  10.158  10.391 -1.1028  0.8560  1.0217
  236MOL0     C31764   2.447  10.065  10.470  0.5756 -0.0116  0.4717
  236MOL0     C31765   2.350  10.160  10.548 -0.1904 -0.9350 -0.7430
  236MOL0     C31766   2.234  10.090  10.633  0.1319 -0.5490  0.6601
  236MOL0     C31767   2.161  10.189  10.725 -0.3564 -0.4794 -0.1550
  236MOL0     C31768   2.097  10.114  10.832  0.6000 -0.5724  0.0258
  236MOL0     C31769   2.023  10.214  10.925  0.2088 -0.7321 -0.1473
  236MOL0    Cl31770   1.885  10.279  10.828  0.1450 -0.2878 -0.3275
  236MOL0     C31771   2.697   9.779  10.181 -0.5448 -0.4650 -0.6396
  236MOL0     C31772   2.712   9.691  10.076 -0.4859  0.0253  0.3407
  236MOL0     O31773   2.731   9.784   9.676 -0.2592  0.2629 -0.8380
  236MOL0     C31774   2.717   9.589   9.484  0.1094 -0.4437 -0.3495
  236MOL0     C31775   2.723   9.488   9.384  0.6817 -0.3947 -0.6450
  236MOL0     N31776   2.209   9.035   9.306  0.7620  0.3959  0.0828
  236MOL0     N31777   2.091   8.973   9.284  0.2699 -0.5320  0.0400
  236MOL0     C31778   1.562   8.065   8.612 -0.6180 -0.6119 -0.2231
  236MOL0     C31779   1.478   7.952   8.595  0.9467 -0.8316 -0.0066
  236MOL0     C31780   1.080   7.714   8.510 -0.7587 -0.8952 -1.0909
  236MOL0     C31781   1.091   7.638   8.629  0.5398  0.7797 -0.0372
  236MOL0     C31782   0.993   7.544   8.647 -0.0534 -0.0715  0.0992
  236MOL0     C31783   0.907   7.508   8.549  0.2116 -0.6932  0.6700
  236MOL0     O31784   0.816   7.417   8.585  0.1067 -0.3040 -0.1190
  236MOL0     C31785   0.702   7.411   8.492 -0.1375 -0.6532  0.5373
  236MOL0     C31786   0.597   7.322   8.558 -0.1104 -0.6005  0.1845
  236MOL0     C31787   0.554   7.369   8.698 -0.1063  0.4840  0.4157
  236MOL0     C31788   0.398   7.351   8.716  0.3212  0.2455  0.3714
  236MOL0     C31789   0.344   7.442   8.820 -0.4225 -0.0971  0.2158
  236MOL0     C31790   0.305   7.521   8.904  0.1313  0.7360 -0.2880
  236MOL0     C31791   0.922   7.567   8.422  0.5470  0.8030  0.9737
  236MOL0     C31792   0.997   7.684   8.407 -0.2575 -0.6798 -0.1611
  236MOL0     H31793   1.178   8.101   8.658  0.1384  0.0397 -1.8810
  236MOL0     H31794   1.340   8.299   8.670  2.8809  1.2226  1.8290
  236MOL0     H31795   1.737   8.265   8.532  0.6664 -1.0690  3.1163
  236MOL0     H31796   1.607   8.387   8.484 -0.5882 -1.7443 -0.1497
  236MOL0     H31797   1.830   8.495   8.546 -0.4206  1.2091  0.9257
  236MOL0     H31798   1.692   8.547   8.633 -0.5340  0.6494 -1.3815
  236MOL0     H31799   1.770   8.396   8.837  0.7493  1.5528  1.5051
  236MOL0     H31800   1.917   8.363   8.755 -0.4611 -0.9041 -1.1862
  236MOL0     H31801   1.959   8.533   8.910  3.2249  1.7914 -2.8657
  236MOL0     H31802   1.946   8.610   8.752  0.0026  0.3384 -1.4224
  236MOL0     H31803   1.684   8.664   8.815 -0.9413 -2.5521  0.5299
  236MOL0     H31804   1.715   8.618   8.978 -1.6051  1.1127 -0.7810
  236MOL0     H31805   1.824   8.852   8.835 -0.1239 -1.0148  0.4691
  236MOL0     H31806   1.723   8.839   8.991 -0.1414  3.2808 -2.3538
  236MOL0     H31807   1.928   8.726   9.094  0.8155  1.0577  2.3140
  236MOL0     H31808   2.022   8.788   8.953  3.0141  1.0463  3.4885
  236MOL0     H31809   1.865   8.942   9.162  0.6964  0.5995  1.6557
  236MOL0     H31810   1.934   9.022   9.017 -3.1211 -0.5810  0.0843
  236MOL0     H31811   2.211   9.035   8.981  1.2017  0.9017  0.6893
  236MOL0     H31812   2.374   9.221   9.083  0.8290 -0.5177  0.2941
  236MOL0     H31813   2.384   9.221   9.259 -0.6442 -0.2997  1.1005
  236MOL0     H31814   2.505   9.003   9.079 -4.9767  2.4757 -1.6156
  236MOL0     H31815   2.538   9.029   9.257  0.5985  0.2731 -0.3473
  236MOL0     H31816   2.614   9.204   9.010  2.4495 -1.8046 -1.0450
  236MOL0     H31817   2.722   9.112   9.099  0.9272 -0.0670  0.7407
  236MOL0     H31818   2.570   9.357   9.175  0.6549  0.6478 -0.3361
  236MOL0     H31819   2.743   9.318   9.158 -1.2215  2.0426  0.1878
  236MOL0     H31820   2.592   9.232   9.569  1.9551 -0.2196  1.0616
  236MOL0     H31821   2.533   9.284   9.766  0.9409 -0.1753 -0.9396
  236MOL0     H31822   2.692   9.329   9.827 -0.1702  0.8761  1.2762
  236MOL0     H31823   2.561   9.445   9.841  0.2414 -1.1236  1.3288
  236MOL0     H31824   2.591   9.903   9.831  0.3107 -0.4100 -0.3703
  236MOL0     H31825   2.604  10.060  10.010 -2.0394 -0.3314 -1.6922
  236MOL0     H31826   2.634  10.188  10.196  0.1917  0.2774  0.4363
  236MOL0     H31827   2.479  10.096  10.211 -0.8033 -0.9566  1.9028
  236MOL0     H31828   2.625  10.190  10.456  0.3806  2.7281 -1.6188
  236MOL0     H31829   2.492  10.255  10.391 -1.7133  0.6723  4.1370
  236MOL0     H31830   2.496   9.997  10.540  1.6596 -2.0159 -2.0749
  236MOL0     H31831   2.388   9.996  10.408  2.1715 -0.2752 -0.8271
  236MOL0     H31832   2.413  10.213  10.620 -1.4441 -0.9790  0.4137
  236MOL0     H31833   2.296  10.229  10.482 -0.9344 -0.2808  0.5074
  236MOL0     H31834   2.276  10.005  10.686 -1.6720 -2.3579 -0.6613
  236MOL0     H31835   2.167  10.044  10.560  1.6889  0.0979 -1.2762
  236MOL0     H31836   2.237  10.250  10.776 -1.0533  0.3998 -0.1457
  236MOL0     H31837   2.095  10.254  10.667 -1.4850 -1.2397  0.2614
  236MOL0     H31838   2.172  10.067  10.897  0.2154 -1.1026  0.0969
  236MOL0     H31839   2.030  10.041  10.785  0.2718  0.1557 -0.6589
  236MOL0     H31840   2.092  10.295  10.948 -0.0649 -0.3815 -0.5441
  236MOL0     H31841   1.980  10.166  11.014  1.8070 -0.6589  0.6895
  236MOL0     H31842   2.704   9.743  10.283 -0.8499  0.3687 -0.3151
  236MOL0     H31843   2.747   9.588  10.079 -5.1175 -1.9448 -1.9523
  236MOL0     H31844   2.763   9.685   9.465  0.3247 -0.1411  1.4865
  236MOL0     H31845   2.747   9.510   9.281 -0.2282 -1.6432 -1.1553
  236MOL0     H31846   1.670   8.058   8.615 -0.6994 -1.6540  0.2982
  236MOL0     H31847   1.531   7.861   8.570 -4.3539 -4.1566 -0.8081
  236MOL0     H31848   1.161   7.652   8.711 -0.2627 -2.3060  1.3339
  236MOL0     H31849   0.985   7.494   8.743 -0.3604 -0.6889 -0.2405
  236MOL0     H31850   0.655   7.509   8.481  0.3877 -0.0377  3.1684
  236MOL0     H31851   0.735   7.370   8.396 -0.8675 -1.1485  0.4941
  236MOL0     H31852   0.646   7.225   8.552  0.6077 -0.2884  0.8672
  236MOL0     H31853   0.505   7.319   8.498  0.1337 -1.1207 -0.1726
  236MOL0     H31854   0.585   7.472   8.719  3.1092  0.1471 -1.8434
  236MOL0     H31855   0.612   7.311   8.772  3.8770  1.8332 -1.3481
  236MOL0     H31856   0.371   7.250   8.750  2.1088 -0.3868  0.0478
  236MOL0     H31857   0.340   7.380   8.628 -1.1466  2.4350  1.9608
  236MOL0     H31858   0.272   7.594   8.975 -0.3382 -0.7994  1.1391
  236MOL0     H31859   0.861   7.530   8.340 -0.9096 -2.4796  3.3619
  236MOL0     H31860   1.012   7.743   8.317  0.5283 -1.7497 -0.7470
  237MOL0     O31861   9.515   7.613   8.390 -0.0541 -0.4747 -0.4701
  237MOL0     C31862   9.445   7.704   8.355 -0.3159 -0.0570  0.4395
  237MOL0     O31863   9.481   7.842   8.365  0.8908  0.3803 -0.1640
  237MOL0     C31864   9.618   7.862   8.369  0.4822  0.8632 -0.4400
  237MOL0     C31865   9.719   7.792   8.306 -0.0449  0.2545 -0.4646
  237MOL0     C31866   9.853   7.836   8.314  0.1095  0.0346 -0.1776
  237MOL0     C31867   9.894   7.948   8.386  0.1970 -0.2019  0.6824
  237MOL0     O31868  10.014   8.001   8.386  0.6437  0.5348  0.6878
  237MOL0     C31869  10.102   7.940   8.487 -0.5476 -0.0966  0.1230
  237MOL0     C31870  10.250   7.952   8.452 -0.3557 -0.1619  1.5066
  237MOL0     C31871  10.310   8.098   8.470  0.6683  0.0248 -0.3563
  237MOL0     C31872  10.450   8.128   8.401  0.0497 -0.6079  0.1620
  237MOL0     C31873  10.444   8.199   8.264 -0.0029  1.2397 -0.2063
  237MOL0     C31874  10.576   8.257   8.212 -0.9859  1.0073  0.0124
  237MOL0     C31875  10.549   8.303   8.069 -0.6979 -0.2575 -0.3986
  237MOL0     C31876  10.655   8.403   8.021  0.0319 -1.5263 -0.1550
  237MOL0     N31877  10.642   8.536   8.067 -0.6920 -0.1895  0.3186
  237MOL0     C31878  10.669   8.654   7.999 -0.6159 -0.5184  0.4553
  237MOL0     C31879  10.659   8.754   8.081  0.7224  0.1920  0.2479
  237MOL0     C31880  10.655   8.896   8.033 -0.2676 -0.5453 -0.5237
  237MOL0     C31881  10.512   8.947   8.006  0.3021 -0.3463  0.9768
  237MOL0     C31882  10.396   8.939   8.115 -0.3907 -1.2072  0.5282
  237MOL0     C31883  10.448   8.994   8.249  0.1808  0.0280  0.7751
  237MOL0     O31884  10.336   9.043   8.325  0.5881 -0.1284 -0.0497
  237MOL0     C31885  10.238   8.952   8.366 -0.0367 -0.2908  0.4616
  237MOL0     C31886  10.119   9.012   8.402  0.0792  0.1145 -1.0741
  237MOL0     C31887  10.009   8.945   8.451  0.2552  0.5114  0.4285
  237MOL0     C31888   9.883   9.021   8.473 -0.4967  0.4295 -0.0882
  237MOL0     C31889  10.020   8.806   8.469 -0.7415  2.0814  0.2574
  237MOL0     C31890   9.905   8.730   8.525 -0.3028 -0.9361  1.2297
  237MOL0     O31891   9.853   8.653   8.424  0.4446 -0.1825 -0.1805
  237MOL0     C31892   9.733   8.601   8.439  0.5246  0.4229 -0.9521
  237MOL0     C31893   9.617   8.676   8.414  0.0677 -0.1967  0.1436
  237MOL0     C31894   9.485   8.618   8.419 -0.1439 -0.3153  0.2064
  237MOL0     C31895   9.467   8.484   8.448 -0.3447  0.2654  0.3294
  237MOL0     O31896   9.330   8.441   8.440 -0.3665 -0.7901 -0.2123
  237MOL0     C31897   9.300   8.302   8.441 -0.5968 -0.1596  0.2690
  237MOL0     C31898   9.145   8.286   8.449 -0.2405 -0.1737 -0.1209
  237MOL0     C31899   9.080   8.370   8.337 -0.3808 -0.0021 -0.2027
  237MOL0     C31900   8.940   8.309   8.340 -0.0979 -0.0783  0.6839
  237MOL0     C31901   8.856   8.381   8.235 -0.0132  0.1470 -0.7961
  237MOL0     C31902   8.722   8.312   8.228 -0.4042  1.2617 -1.0535
  237MOL0     C31903   8.614   8.366   8.133  0.3826 -0.0709 -0.3236
  237MOL0     C31904   8.536   8.483   8.202 -0.7492  0.0062  0.0449
  237MOL0    Cl31905   8.438   8.427   8.329 -0.4198 -0.0601 -0.0329
  237MOL0     C31906   9.588   8.405   8.466 -0.6534 -0.8290 -0.7424
  237MOL0     C31907   9.718   8.466   8.465  0.6738  0.3368 -0.1889
  237MOL0     O31908   9.859   8.755   8.635 -0.0795  0.3283  0.2211
  237MOL0     C31909  10.131   8.738   8.430  0.8699  0.1524  0.0523
  237MOL0     C31910  10.246   8.810   8.373  1.5240 -0.4343 -0.4229
  237MOL0     N31911  10.634   8.706   8.205 -0.2676 -0.3804 -0.0988
  237MOL0     N31912  10.627   8.576   8.196 -0.1226 -0.0468  0.3069
  237MOL0     C31913   9.796   8.024   8.451 -0.4373  0.4318 -0.6576
  237MOL0     C31914   9.659   7.987   8.430  0.4704  0.5595 -0.2475
  237MOL0     C31915   9.302   7.689   8.362 -0.1586 -0.3996 -0.5254
  237MOL0     C31916   9.217   7.779   8.292  0.1786 -0.7396  0.4870
  237MOL0     C31917   9.074   7.751   8.286  0.1207 -0.0353 -0.5499
  237MOL0     C31918   9.016   7.639   8.356 -0.0260  0.1164  1.0186
  237MOL0     O31919   8.880   7.628   8.344  0.4775  0.2385 -0.0658
  237MOL0     C31920   8.808   7.535   8.436  0.4414  0.3305  0.4232
  237MOL0     C31921   8.663   7.585   8.411  0.2520  0.3361  0.2293
  237MOL0     C31922   8.555   7.562   8.521 -0.3330  1.0373 -1.0696
  237MOL0     C31923   8.541   7.419   8.541  0.2527  0.7296  0.6789
  237MOL0     C31924   8.425   7.385   8.622  0.8482  0.1114 -0.3886
  237MOL0     C31925   8.317   7.373   8.682 -0.2285  0.3061 -0.0515
  237MOL0     C31926   9.101   7.549   8.409 -0.3417  0.3101  0.7069
  237MOL0     C31927   9.240   7.576   8.424 -0.1461  0.1746 -0.6587
  237MOL0     H31928   9.697   7.707   8.242 -0.4273 -1.2280  1.5136
  237MOL0     H31929   9.921   7.779   8.251 -1.4506 -1.6041 -0.4534
  237MOL0     H31930  10.096   7.977   8.589 -3.1469 -4.2076  1.7375
  237MOL0     H31931  10.077   7.834   8.497  1.2030 -0.4022  1.7678
  237MOL0     H31932  10.314   7.890   8.515  1.3258  1.7422  1.8058
  237MOL0     H31933  10.264   7.920   8.349 -0.5734  1.6741  0.8596
  237MOL0     H31934  10.234   8.169   8.436  0.6654  0.7441  1.0768
  237MOL0     H31935  10.340   8.096   8.575  0.5411  0.4533 -0.3116
  237MOL0     H31936  10.491   8.206   8.466 -1.8734 -2.0701  3.3546
  237MOL0     H31937  10.509   8.036   8.401 -0.3833 -0.9348  2.4756
  237MOL0     H31938  10.415   8.134   8.181  1.9967 -0.9176  0.6934
  237MOL0     H31939  10.370   8.279   8.280 -0.2865  1.2122 -1.2657
  237MOL0     H31940  10.600   8.343   8.275 -2.1738  1.8064 -0.5744
  237MOL0     H31941  10.648   8.175   8.206 -0.3785  1.5881 -0.7646
  237MOL0     H31942  10.562   8.215   8.006  2.4978 -1.3604  1.5198
  237MOL0     H31943  10.448   8.340   8.054 -1.0709  1.7897  4.9595
  237MOL0     H31944  10.647   8.418   7.913 -0.8140  1.0678  0.2018
  237MOL0     H31945  10.757   8.368   8.041  0.3783 -0.8519 -0.7179
  237MOL0     H31946  10.683   8.659   7.891 -2.5916 -0.1296  0.1776
  237MOL0     H31947  10.712   8.956   8.105 -0.5774 -2.3578  1.3356
  237MOL0     H31948  10.713   8.897   7.941  1.4159  0.6696  0.4761
  237MOL0     H31949  10.479   8.893   7.917 -3.5540 -1.3756  2.8036
  237MOL0     H31950  10.521   9.055   7.988  1.9177 -0.5317  0.5534
  237MOL0     H31951  10.368   8.833   8.119 -0.6147 -1.1810 -0.2135
  237MOL0     H31952  10.302   8.992   8.096 -1.1071 -1.7293  2.3806
  237MOL0     H31953  10.513   9.078   8.225  1.2325 -0.6087  1.2963
  237MOL0     H31954  10.508   8.922   8.307  0.7182  0.6917  1.0607
  237MOL0     H31955  10.111   9.120   8.391 -2.2597  0.7317  3.9473
  237MOL0     H31956   9.856   9.010   8.578  2.2089  2.5272  0.9524
  237MOL0     H31957   9.888   9.127   8.446  3.3829 -0.1350 -2.4481
  237MOL0     H31958   9.806   8.982   8.405  0.2264 -1.2326  0.0007
  237MOL0     H31959   9.633   8.782   8.402 -1.8718  0.1651  0.4375
  237MOL0     H31960   9.401   8.679   8.387 -0.6686 -3.0108 -4.3483
  237MOL0     H31961   9.321   8.266   8.340 -0.3113  2.5406 -0.7037
  237MOL0     H31962   9.344   8.241   8.521  0.7372 -1.8350 -1.6372
  237MOL0     H31963   9.126   8.179   8.436 -1.5576 -0.0508  0.6430
  237MOL0     H31964   9.101   8.325   8.541 -0.3267 -1.8738  0.5903
  237MOL0     H31965   9.117   8.371   8.235  0.7372  5.6232 -0.0421
  237MOL0     H31966   9.078   8.474   8.369  0.7158 -0.6187  2.1533
  237MOL0     H31967   8.944   8.203   8.311 -3.6243 -0.1580  0.0107
  237MOL0     H31968   8.897   8.323   8.439  1.0170  1.1803  1.0135
  237MOL0     H31969   8.900   8.373   8.135  0.6064 -0.0986 -0.5096
  237MOL0     H31970   8.843   8.486   8.261  0.8763 -0.3564  2.0197
  237MOL0     H31971   8.733   8.208   8.196  0.7586  1.1941 -0.4889
  237MOL0     H31972   8.680   8.302   8.329  0.3590 -2.3980 -0.9476
  237MOL0     H31973   8.546   8.289   8.097 -2.1758  0.5722  2.6237
  237MOL0     H31974   8.664   8.400   8.042 -2.9084  0.1447 -2.1984
  237MOL0     H31975   8.474   8.546   8.137 -0.0186  0.7819  0.0681
  237MOL0     H31976   8.600   8.557   8.252 -2.4369  0.6284  1.3845
  237MOL0     H31977   9.584   8.300   8.493 -2.6676  0.0078  2.8503
  237MOL0     H31978   9.812   8.413   8.468  0.2637 -0.3962  0.0300
  237MOL0     H31979  10.134   8.634   8.462 -1.2261  0.1742  0.4871
  237MOL0     H31980  10.328   8.760   8.322 -0.9544 -2.6510 -2.6178
  237MOL0     H31981   9.829   8.112   8.504  2.2717 -1.3588  0.8676
  237MOL0     H31982   9.592   8.054   8.482  2.5886  3.9494 -1.6036
  237MOL0     H31983   9.258   7.854   8.225 -2.7081  0.0171 -0.6080
  237MOL0     H31984   9.009   7.817   8.229  1.0862  0.7911 -0.7493
  237MOL0     H31985   8.815   7.429   8.407  2.7139  0.5535 -0.0400
  237MOL0     H31986   8.837   7.545   8.541 -0.2003  1.5882  0.4923
  237MOL0     H31987   8.630   7.557   8.311 -1.1816 -0.7943  0.9700
  237MOL0     H31988   8.677   7.694   8.413 -1.8422  0.6615  1.9805
  237MOL0     H31989   8.461   7.601   8.482 -0.0483  1.7515 -1.0524
  237MOL0     H31990   8.571   7.614   8.616  4.1246  1.0791 -1.6357
  237MOL0     H31991   8.629   7.386   8.597 -0.5137 -0.5165  1.2164
  237MOL0     H31992   8.528   7.366   8.446 -2.9397 -2.0852  2.4423
  237MOL0     H31993   8.228   7.359   8.740  1.5678  1.4570  3.2063
  237MOL0     H31994   9.057   7.458   8.448 -1.6186  0.7642  0.3444
  237MOL0     H31995   9.293   7.499   8.479  1.5363  2.0819  0.5077
  238MOL0     O31996   9.867   5.779   0.629  0.3736  0.0057  0.2601
  238MOL0     C31997   9.814   5.765   0.522  0.7796 -0.3373 -0.1833
  238MOL0     O31998   9.681   5.779   0.499 -0.4930 -0.7412  0.3184
  238MOL0     C31999   9.611   5.833   0.604 -0.3442 -0.3316  0.3277
  238MOL0     C32000   9.523   5.755   0.685 -1.4340 -0.3148  0.0532
  238MOL0     C32001   9.439   5.818   0.777  0.2139  0.4706 -0.3893
  238MOL0     C32002   9.450   5.958   0.801  0.7916  0.6471  0.1660
  238MOL0     O32003   9.374   6.012   0.897 -0.1291 -0.2199  0.3683
  238MOL0     C32004   9.445   6.038   1.017  0.8258 -0.4066  0.5742
  238MOL0     C32005   9.468   6.191   1.047 -0.1011  0.0058 -0.9510
  238MOL0     C32006   9.529   6.213   1.193  0.4871  1.2243 -0.1528
  238MOL0     C32007   9.574   6.357   1.230 -0.9711 -0.5627  1.2519
  238MOL0     C32008   9.636   6.364   1.372  0.8426 -0.9579 -0.4481
  238MOL0     C32009   9.734   6.254   1.406 -0.5107  0.8901  0.4549
  238MOL0     C32010   9.808   6.272   1.542  1.0580  0.3649  0.3110
  238MOL0     C32011   9.891   6.147   1.583  0.1286 -0.3548 -0.6206
  238MOL0     N32012   9.815   6.024   1.613 -0.0777  0.0649  0.7807
  238MOL0     C32013   9.722   6.007   1.709  0.4957  0.0189 -0.6525
  238MOL0     C32014   9.667   5.885   1.682 -0.0368  0.8350 -0.2739
  238MOL0     C32015   9.554   5.823   1.761 -0.6744  0.9946 -0.1091
  238MOL0     C32016   9.588   5.803   1.902 -0.4245  0.6427  0.2393
  238MOL0     C32017   9.477   5.805   1.997  0.2990  0.0377 -0.0240
  238MOL0     C32018   9.384   5.932   2.007 -0.0409  0.4504 -0.4664
  238MOL0     O32019   9.462   6.053   1.996  0.2786 -0.2615  0.7946
  238MOL0     C32020   9.398   6.170   2.016  0.5069 -0.0549 -0.2626
  238MOL0     C32021   9.261   6.182   2.049 -0.1153  0.5691 -0.2068
  238MOL0     C32022   9.206   6.304   2.070 -0.2552  0.2520 -1.3771
  238MOL0     C32023   9.072   6.309   2.135 -0.4228  0.5690 -0.9653
  238MOL0     C32024   9.285   6.420   2.043  0.2433 -0.2151 -0.0677
  238MOL0     C32025   9.220   6.551   2.067  0.0120  0.1398 -0.2319
  238MOL0     O32026   9.167   6.616   1.957  0.1281 -0.6212 -0.2437
  238MOL0     C32027   9.112   6.746   1.967  0.2202  1.5786 -0.7750
  238MOL0     C32028   9.031   6.800   2.067  1.0084  0.5745 -0.2757
  238MOL0     C32029   8.975   6.922   2.058  0.0653 -0.0955 -0.1328
  238MOL0     C32030   8.982   6.988   1.941 -0.1401  0.1543 -0.0844
  238MOL0     O32031   8.916   7.106   1.911  0.2261 -0.2667 -0.4164
  238MOL0     C32032   8.798   7.145   1.971  0.2070 -0.4138 -0.8939
  238MOL0     C32033   8.688   7.043   1.941  0.5342  0.0372 -0.5452
  238MOL0     C32034   8.672   7.013   1.790 -0.3645  0.1550 -0.2926
  238MOL0     C32035   8.640   7.135   1.707 -0.6307  0.3798 -0.7107
  238MOL0     C32036   8.712   7.110   1.578 -0.5390 -0.7894 -1.0520
  238MOL0     C32037   8.637   7.023   1.476 -0.3563 -0.2342 -0.6850
  238MOL0     C32038   8.727   6.977   1.354  1.0951  0.3409  0.3088
  238MOL0     C32039   8.676   6.849   1.282 -0.5729 -0.1731 -0.2261
  238MOL0    Cl32040   8.532   6.874   1.194 -0.1039 -0.0643 -0.3865
  238MOL0     C32041   9.062   6.940   1.836 -0.1472 -0.2878 -0.0038
  238MOL0     C32042   9.128   6.817   1.856 -0.4813 -0.0346 -0.1037
  238MOL0     O32043   9.238   6.599   2.180 -0.2842  0.3211  0.3017
  238MOL0     C32044   9.417   6.413   1.997 -0.8055  0.0733  0.2174
  238MOL0     C32045   9.474   6.282   1.982  0.3474 -0.4934  0.0289
  238MOL0     N32046   9.755   5.821   1.595 -0.4992 -0.7811  0.8483
  238MOL0     N32047   9.833   5.914   1.547 -1.0116  0.4695 -0.2160
  238MOL0     C32048   9.533   6.029   0.722  0.1206 -0.3318  0.2558
  238MOL0     C32049   9.597   5.978   0.607 -0.4569  1.1540 -0.0028
  238MOL0     C32050   9.901   5.738   0.412  0.2958  0.3177  0.3668
  238MOL0     C32051   9.850   5.713   0.278  0.5797 -0.2568  0.5180
  238MOL0     C32052   9.934   5.699   0.177 -0.7432 -0.1706 -0.2609
  238MOL0     C32053  10.075   5.700   0.193  0.5246 -0.1585  1.2966
  238MOL0     O32054  10.147   5.673   0.082 -1.0455 -0.0680  0.4336
  238MOL0     C32055  10.288   5.702   0.082  0.0841 -0.3003 -0.5524
  238MOL0     C32056  10.379   5.588   0.117 -0.6025  0.4467  1.4507
  238MOL0     C32057  10.523   5.630   0.132  0.4061  0.1902  0.2260
  238MOL0     C32058  10.608   5.604   0.006 -0.0231 -0.4956  0.4296
  238MOL0     C32059  10.590   5.718  -0.091 -0.2480 -0.7682  0.7367
  238MOL0     C32060  10.581   5.819  -0.166 -0.0313 -0.2071 -0.4458
  238MOL0     C32061  10.128   5.712   0.324 -0.4239  0.8628 -0.0411
  238MOL0     C32062  10.041   5.746   0.425 -0.7654  0.6895  0.2702
  238MOL0     H32063   9.535   5.648   0.682 -1.1419 -0.2677 -0.4085
  238MOL0     H32064   9.360   5.764   0.829  0.0237  1.9483  0.9226
  238MOL0     H32065   9.390   5.993   1.100  2.6166  0.5037  2.3656
  238MOL0     H32066   9.547   5.998   1.010  1.1536  0.5197 -0.1641
  238MOL0     H32067   9.535   6.231   0.971  1.0085  0.9196  0.4579
  238MOL0     H32068   9.366   6.229   1.051 -0.3062 -0.4490 -1.7129
  238MOL0     H32069   9.457   6.185   1.270 -1.1286  0.0751 -1.9917
  238MOL0     H32070   9.619   6.150   1.196  1.1101  2.0899 -0.3109
  238MOL0     H32071   9.649   6.396   1.161 -1.3203 -0.9640  0.6390
  238MOL0     H32072   9.487   6.423   1.240 -0.5426 -0.0858  2.0153
  238MOL0     H32073   9.696   6.455   1.367 -1.2031  0.4128 -1.5306
  238MOL0     H32074   9.558   6.372   1.448  2.5990  0.1572  1.3429
  238MOL0     H32075   9.683   6.158   1.418  0.1173  0.4422 -0.3712
  238MOL0     H32076   9.803   6.236   1.323 -3.5172 -1.5758 -1.7323
  238MOL0     H32077   9.877   6.356   1.548  2.0324 -0.4565  0.8582
  238MOL0     H32078   9.735   6.292   1.621  2.5686  2.7544  1.2205
  238MOL0     H32079   9.948   6.160   1.675 -2.5287  2.4570  0.8331
  238MOL0     H32080   9.967   6.135   1.506  0.7658  1.3432 -0.2973
  238MOL0     H32081   9.687   6.067   1.792  3.4666  0.1655  0.6202
  238MOL0     H32082   9.478   5.901   1.756 -0.6029  1.6199  4.3352
  238MOL0     H32083   9.534   5.729   1.708  2.3031  0.4856 -0.5233
  238MOL0     H32084   9.659   5.879   1.938 -3.1558  2.0276  3.2392
  238MOL0     H32085   9.638   5.706   1.897 -2.0915 -0.2512  0.3796
  238MOL0     H32086   9.520   5.790   2.097  2.2022 -2.2553 -1.0871
  238MOL0     H32087   9.408   5.720   1.995 -0.7842  0.8902  0.3115
  238MOL0     H32088   9.321   5.918   2.095  1.0238 -0.1087  0.2353
  238MOL0     H32089   9.306   5.930   1.931  0.6393  1.9058 -1.2645
  238MOL0     H32090   9.190   6.100   2.054 -0.6651  0.8901 -2.0630
  238MOL0     H32091   9.069   6.374   2.223  1.7864 -1.5237  0.7646
  238MOL0     H32092   8.996   6.338   2.062 -1.2587 -0.4769 -0.5372
  238MOL0     H32093   9.037   6.211   2.166 -0.3230  0.0450 -2.4365
  238MOL0     H32094   9.010   6.740   2.155 -5.0932  0.0919 -1.6003
  238MOL0     H32095   8.917   6.957   2.143 -3.6753  0.7916 -2.8175
  238MOL0     H32096   8.806   7.151   2.080  1.8276 -2.2997 -0.8466
  238MOL0     H32097   8.766   7.239   1.925  0.8454 -0.5250 -1.5879
  238MOL0     H32098   8.708   6.953   2.000  2.8293  1.6726  1.3717
  238MOL0     H32099   8.597   7.091   1.980  0.8712 -0.2131  0.5961
  238MOL0     H32100   8.591   6.939   1.781 -0.4387  0.3400 -1.3495
  238MOL0     H32101   8.766   6.965   1.760 -1.6867 -1.9035 -1.4269
  238MOL0     H32102   8.532   7.144   1.689 -0.5112 -0.4383 -1.9640
  238MOL0     H32103   8.675   7.223   1.763 -1.0520 -1.4774  2.7306
  238MOL0     H32104   8.812   7.073   1.603 -1.3547 -1.2942  1.7896
  238MOL0     H32105   8.738   7.203   1.526  0.5588 -1.5689 -1.9599
  238MOL0     H32106   8.596   6.932   1.521 -0.3140 -0.7678 -1.6819
  238MOL0     H32107   8.551   7.083   1.447  0.5212  1.2425 -0.2982
  238MOL0     H32108   8.831   6.965   1.386  1.2083 -0.5759 -0.3752
  238MOL0     H32109   8.740   7.052   1.276  0.6441 -0.0675 -0.1647
  238MOL0     H32110   8.665   6.768   1.354  2.9429  1.0593  1.9521
  238MOL0     H32111   8.761   6.816   1.222  0.4046 -0.4124  1.2546
  238MOL0     H32112   9.069   7.004   1.749 -2.9837 -0.7383 -0.6771
  238MOL0     H32113   9.196   6.777   1.782  2.6122 -1.2343  3.1059
  238MOL0     H32114   9.474   6.503   1.976  1.4319 -0.9829  1.3824
  238MOL0     H32115   9.574   6.272   1.940  0.3642 -2.9046  0.4972
  238MOL0     H32116   9.540   6.136   0.738  1.3425 -0.0928 -1.5833
  238MOL0     H32117   9.638   6.046   0.534 -0.3590 -0.6441 -1.6955
  238MOL0     H32118   9.746   5.708   0.250  0.8749 -0.3366 -0.6176
  238MOL0     H32119   9.897   5.688   0.076  2.1478 -2.2568 -1.2052
  238MOL0     H32120  10.313   5.751  -0.013 -0.3383  0.3788 -0.3196
  238MOL0     H32121  10.302   5.775   0.162 -0.0670 -2.0053  1.1089
  238MOL0     H32122  10.376   5.515   0.035 -2.1503  0.7016  1.2506
  238MOL0     H32123  10.342   5.534   0.204  0.6032 -1.1031  1.0400
  238MOL0     H32124  10.559   5.565   0.212  0.6672  0.8898  0.6860
  238MOL0     H32125  10.541   5.734   0.158  1.7513 -0.0227  0.1908
  238MOL0     H32126  10.576   5.510  -0.039  2.6024 -1.3451  0.1686
  238MOL0     H32127  10.712   5.593   0.039 -0.0829  2.1697  1.7859
  238MOL0     H32128  10.572   5.892  -0.243  0.4687  1.7042  1.2073
  238MOL0     H32129  10.232   5.716   0.354 -1.0000  4.2425  1.9987
  238MOL0     H32130  10.098   5.773   0.513  0.5225 -1.4981  0.1627
  239MOL0     O32131   5.346   3.831   3.574 -0.3441  0.1014 -0.3359
  239MOL0     C32132   5.396   3.735   3.525  0.4879 -0.6198  1.0117
  239MOL0     O32133   5.349   3.667   3.420  0.0894 -0.3570  0.1606
  239MOL0     C32134   5.232   3.720   3.363 -0.3897 -0.7653  0.1074
  239MOL0     C32135   5.241   3.786   3.239 -0.1274 -0.3943  0.9435
  239MOL0     C32136   5.122   3.817   3.171  0.3596 -0.5559  0.5364
  239MOL0     C32137   4.998   3.794   3.239  0.4883 -0.4102 -1.1312
  239MOL0     O32138   4.872   3.826   3.192  0.2790 -0.0589  0.0527
  239MOL0     C32139   4.864   3.919   3.083 -0.4682 -0.0833 -0.1672
  239MOL0     C32140   4.714   3.937   3.054 -0.4070  0.5483 -0.8978
  239MOL0     C32141   4.641   3.799   3.037  0.2934 -0.7036  0.2127
  239MOL0     C32142   4.547   3.786   2.910 -1.3579  0.3937 -0.0227
  239MOL0     C32143   4.478   3.651   2.882 -0.1082  0.0988 -0.2298
  239MOL0     C32144   4.461   3.624   2.729  0.5219 -0.0116  0.1590
  239MOL0     C32145   4.363   3.723   2.651 -0.0851 -0.1704  0.3604
  239MOL0     C32146   4.215   3.717   2.700 -0.6921 -0.8476 -0.0926
  239MOL0     N32147   4.113   3.730   2.590 -0.3878 -0.0121  0.5193
  239MOL0     C32148   4.103   3.838   2.508  0.4023  0.0589  0.3886
  239MOL0     C32149   3.981   3.823   2.442 -0.0387 -0.3214 -0.2343
  239MOL0     C32150   3.934   3.927   2.349 -0.9137 -0.1861 -0.4427
  239MOL0     C32151   3.790   3.950   2.401  0.8651 -0.5005  0.3176
  239MOL0     C32152   3.773   4.014   2.538  0.3173  0.4450 -0.9035
  239MOL0     C32153   3.626   4.032   2.562 -0.0745 -0.4592  0.6604
  239MOL0     O32154   3.610   4.101   2.686 -0.0906  0.1881 -0.0332
  239MOL0     C32155   3.503   4.060   2.761  0.4154  0.3227 -0.9131
  239MOL0     C32156   3.517   4.076   2.901 -0.1995  0.9664  0.1680
  239MOL0     C32157   3.435   4.034   2.995  0.7642  0.0097 -0.2720
  239MOL0     C32158   3.483   4.031   3.151 -0.2757 -0.9491  0.6497
  239MOL0     C32159   3.320   3.960   2.948  0.1091  0.7871 -0.2744
  239MOL0     C32160   3.218   3.896   3.032  0.3627  0.2820 -0.4491
  239MOL0     O32161   3.105   3.858   2.971  0.1334  0.2996 -1.3861
  239MOL0     C32162   3.012   3.782   3.044  0.2774 -0.3432 -0.5539
  239MOL0     C32163   3.037   3.665   3.111  0.6457  0.6719  0.3203
  239MOL0     C32164   2.945   3.592   3.183 -0.6020 -0.1162  0.4146
  239MOL0     C32165   2.811   3.628   3.180 -0.1626  0.1670 -0.2795
  239MOL0     O32166   2.729   3.560   3.265  0.6203 -0.4472  0.1696
  239MOL0     C32167   2.600   3.623   3.296  0.3453  0.1716  0.4724
  239MOL0     C32168   2.551   3.563   3.422 -0.6902 -0.9574 -0.2058
  239MOL0     C32169   2.642   3.617   3.536 -0.3288 -0.9444 -0.0390
  239MOL0     C32170   2.644   3.531   3.664 -0.0264  0.3536  0.5290
  239MOL0     C32171   2.633   3.590   3.798  0.0684  0.5924 -0.3699
  239MOL0     C32172   2.497   3.660   3.833 -0.3547  0.9534 -0.1670
  239MOL0     C32173   2.396   3.561   3.887  0.5434 -0.2538 -0.5626
  239MOL0     C32174   2.258   3.622   3.916  0.5903 -0.9711  0.0740
  239MOL0    Cl32175   2.197   3.632   3.748 -0.2846 -0.2246 -0.1243
  239MOL0     C32176   2.776   3.730   3.098 -0.1456 -0.3665  0.2644
  239MOL0     C32177   2.869   3.816   3.040 -0.2325  0.5496  0.2036
  239MOL0     O32178   3.245   3.879   3.153 -0.8305 -0.2138 -0.0339
  239MOL0     C32179   3.298   3.947   2.816 -0.0782  0.8879  1.1276
  239MOL0     C32180   3.382   4.000   2.720 -0.2525 -0.2148 -0.4851
  239MOL0     N32181   3.915   3.712   2.490  0.1318 -0.0053  0.1947
  239MOL0     N32182   3.995   3.656   2.581  1.2216 -1.2662  0.2241
  239MOL0     C32183   4.999   3.731   3.366  0.4435 -0.0468  0.0676
  239MOL0     C32184   5.119   3.694   3.431  0.1272  0.0043  0.6970
  239MOL0     C32185   5.522   3.700   3.582 -0.1962  1.2062  0.4174
  239MOL0     C32186   5.582   3.775   3.677 -0.9747 -0.2260 -0.7004
  239MOL0     C32187   5.716   3.741   3.725  0.6626  0.7220  0.1303
  239MOL0     C32188   5.785   3.627   3.677  0.2207 -0.6872  1.1849
  239MOL0     O32189   5.910   3.590   3.720 -0.5304  0.1251 -0.5742
  239MOL0     C32190   5.986   3.658   3.820 -0.8686 -0.5658 -0.4499
  239MOL0     C32191   6.112   3.576   3.854  0.9599 -0.3235 -0.7109
  239MOL0     C32192   6.218   3.664   3.917 -0.1000  0.4158 -1.0093
  239MOL0     C32193   6.339   3.563   3.949  0.4238 -0.5196 -0.2198
  239MOL0     C32194   6.411   3.503   3.836  1.5226  0.4028  0.6008
  239MOL0     C32195   6.473   3.448   3.753 -0.0309 -0.0751  0.1561
  239MOL0     C32196   5.724   3.560   3.574  0.5696 -0.0037  0.0528
  239MOL0     C32197   5.596   3.589   3.521  0.4467  0.5721 -0.1697
  239MOL0     H32198   5.341   3.797   3.198 -0.0718 -0.1477  1.1435
  239MOL0     H32199   5.121   3.861   3.072 -0.4694 -2.0448 -0.1472
  239MOL0     H32200   4.898   4.020   3.108 -0.5218 -0.4245  1.3593
  239MOL0     H32201   4.913   3.873   2.997  1.7698  0.0554  0.9631
  239MOL0     H32202   4.665   3.985   3.139 -1.4127 -1.5469 -0.2298
  239MOL0     H32203   4.697   3.999   2.965  0.4161  0.8500 -0.8567
  239MOL0     H32204   4.715   3.720   3.025 -0.1446 -0.9105 -1.5015
  239MOL0     H32205   4.592   3.774   3.132  3.4380  4.0878  3.5373
  239MOL0     H32206   4.470   3.865   2.912 -2.6951 -0.4531 -4.9738
  239MOL0     H32207   4.603   3.810   2.819  0.8364  1.0831  1.4387
  239MOL0     H32208   4.515   3.561   2.933  2.2223  1.7046  1.0804
  239MOL0     H32209   4.379   3.659   2.928 -0.2409  0.6875 -0.6096
  239MOL0     H32210   4.557   3.620   2.678  2.1052 -0.3134  2.9397
  239MOL0     H32211   4.412   3.527   2.717 -1.8037  0.8904  1.5472
  239MOL0     H32212   4.409   3.822   2.656  3.2733 -1.2266 -3.4908
  239MOL0     H32213   4.373   3.706   2.543  2.7974 -0.8712  0.6457
  239MOL0     H32214   4.202   3.793   2.778 -1.2998 -0.1878 -0.8218
  239MOL0     H32215   4.196   3.617   2.741 -2.2036 -1.0079 -1.1114
  239MOL0     H32216   4.178   3.917   2.505 -0.3945  0.8127 -1.5738
  239MOL0     H32217   3.990   4.021   2.358 -0.6420 -0.5208  2.2835
  239MOL0     H32218   3.947   3.894   2.246  1.7690 -1.8461  0.3239
  239MOL0     H32219   3.741   3.853   2.400 -1.1918  0.4842  0.2189
  239MOL0     H32220   3.734   4.017   2.335 -2.0853 -2.0468  1.1175
  239MOL0     H32221   3.832   4.103   2.561  1.5554 -1.1662  3.2540
  239MOL0     H32222   3.799   3.945   2.619 -1.8638  2.6382  1.8939
  239MOL0     H32223   3.565   3.942   2.550 -2.0198  0.8931 -0.2665
  239MOL0     H32224   3.593   4.098   2.481 -3.2071 -2.2976  0.2614
  239MOL0     H32225   3.612   4.124   2.920  0.2761  0.0485  0.2009
  239MOL0     H32226   3.580   4.076   3.174  1.6308 -3.4003 -1.8908
  239MOL0     H32227   3.405   4.079   3.210  0.4297  0.4828  0.4679
  239MOL0     H32228   3.479   3.926   3.182  0.2218 -0.6164  1.8715
  239MOL0     H32229   3.137   3.622   3.114  1.1342  1.8085  0.7174
  239MOL0     H32230   2.974   3.498   3.229  0.5422 -2.0871 -3.7430
  239MOL0     H32231   2.612   3.731   3.310  0.4832  0.5143 -1.9331
  239MOL0     H32232   2.532   3.605   3.213  0.6550  1.5754 -0.1105
  239MOL0     H32233   2.450   3.599   3.444  0.4067  0.8170  2.4937
  239MOL0     H32234   2.574   3.456   3.415  0.3111 -1.0644  3.0835
  239MOL0     H32235   2.636   3.722   3.565  0.4158 -1.3457  1.7289
  239MOL0     H32236   2.748   3.611   3.508  0.6631  0.1731  3.0461
  239MOL0     H32237   2.571   3.451   3.651 -0.8671  1.3736 -1.3813
  239MOL0     H32238   2.743   3.484   3.665 -1.6695 -3.5731  2.4313
  239MOL0     H32239   2.707   3.669   3.814  1.7792 -1.4542  2.9003
  239MOL0     H32240   2.650   3.506   3.865  2.1705 -1.4941 -3.2693
  239MOL0     H32241   2.510   3.737   3.910 -0.3800  2.5822 -1.7392
  239MOL0     H32242   2.451   3.687   3.738 -1.0158 -2.6628 -1.0391
  239MOL0     H32243   2.433   3.527   3.984 -1.5713  0.8156  0.6906
  239MOL0     H32244   2.379   3.484   3.811 -1.5434  0.1302 -0.5497
  239MOL0     H32245   2.256   3.722   3.959 -0.4534  1.8578 -5.5584
  239MOL0     H32246   2.192   3.556   3.974  0.1675 -0.3940  0.2584
  239MOL0     H32247   2.670   3.753   3.089 -0.1091  0.9486  2.5053
  239MOL0     H32248   2.845   3.911   2.994  2.0087  0.4034 -1.4496
  239MOL0     H32249   3.203   3.905   2.785 -2.2139  4.8096  1.6124
  239MOL0     H32250   3.342   3.985   2.620  1.4350 -3.2923 -0.8383
  239MOL0     H32251   4.901   3.737   3.411  0.2352  0.9690 -0.4954
  239MOL0     H32252   5.117   3.640   3.525 -0.5357  0.6685  1.0749
  239MOL0     H32253   5.538   3.864   3.721  1.6755  1.1838 -0.6599
  239MOL0     H32254   5.764   3.800   3.802 -0.0675  0.4499  0.7983
  239MOL0     H32255   6.005   3.762   3.790 -1.0255 -0.2951  0.3588
  239MOL0     H32256   5.924   3.668   3.909 -2.0808 -0.1537 -1.3157
  239MOL0     H32257   6.141   3.517   3.767 -1.2879  1.5741 -2.8918
  239MOL0     H32258   6.086   3.512   3.939  2.4189 -0.2095 -0.1519
  239MOL0     H32259   6.176   3.708   4.008 -0.8554 -0.7358 -0.7790
  239MOL0     H32260   6.249   3.739   3.844  0.4710  0.3051 -0.8826
  239MOL0     H32261   6.309   3.479   4.013  1.9940 -0.4583  0.6446
  239MOL0     H32262   6.419   3.618   4.000  0.6834 -1.5428  0.5180
  239MOL0     H32263   6.517   3.377   3.686  0.1328 -0.7897  0.9928
  239MOL0     H32264   5.782   3.479   3.532  3.4455  0.7538  2.2417
  239MOL0     H32265   5.568   3.513   3.450  3.6075 -1.9231  1.0156
  240MOL0     O32266   5.256   4.745   2.250  0.3096 -0.2153  0.8410
  240MOL0     C32267   5.261   4.642   2.186 -0.5986  0.3702 -0.5267
  240MOL0     O32268   5.376   4.575   2.134  0.8502  0.9543  0.7677
  240MOL0     C32269   5.509   4.614   2.150 -0.4448 -0.4766 -0.5399
  240MOL0     C32270   5.551   4.687   2.270  0.1404  0.7516 -0.1963
  240MOL0     C32271   5.687   4.719   2.290  0.7202  0.1544  0.1555
  240MOL0     C32272   5.781   4.710   2.188 -0.2358 -0.9459 -0.3811
  240MOL0     O32273   5.906   4.762   2.203 -0.1121 -0.6008  0.1673
  240MOL0     C32274   6.003   4.725   2.098  0.0664  0.2244  0.4047
  240MOL0     C32275   6.145   4.747   2.139  1.1586  0.8299 -0.0871
  240MOL0     C32276   6.171   4.887   2.143 -0.2627 -0.3174 -0.2660
  240MOL0     C32277   6.321   4.926   2.172  0.7965 -0.2822 -1.0410
  240MOL0     C32278   6.341   5.077   2.192  0.0855 -0.2407  0.5165
  240MOL0     C32279   6.334   5.150   2.057  0.2876  0.0237  0.8117
  240MOL0     C32280   6.347   5.304   2.074 -1.3298  0.3083 -0.0781
  240MOL0     C32281   6.299   5.396   1.956  0.3061  0.8257 -0.1860
  240MOL0     N32282   6.163   5.369   1.915  0.2440 -0.0523  0.0519
  240MOL0     C32283   6.054   5.350   1.992 -0.1981 -0.6132 -0.1965
  240MOL0     C32284   5.964   5.316   1.904 -0.6279 -0.5668  0.7188
  240MOL0     C32285   5.826   5.269   1.937  0.5453  0.4417  0.2961
  240MOL0     C32286   5.825   5.130   1.983  0.2037  1.0583  0.5131
  240MOL0     C32287   5.678   5.091   2.007 -0.1378 -0.5208  0.1138
  240MOL0     C32288   5.583   5.104   1.889 -0.0042  0.2468 -1.0042
  240MOL0     O32289   5.483   5.004   1.898  0.2887 -0.2670  0.3785
  240MOL0     C32290   5.383   5.006   1.803 -0.0917  0.2992  0.9291
  240MOL0     C32291   5.286   4.909   1.821  0.7495 -0.3674  0.7145
  240MOL0     C32292   5.165   4.900   1.737 -0.0739 -0.6931  0.3296
  240MOL0     C32293   5.072   4.790   1.781 -0.0582  0.1302  0.1903
  240MOL0     C32294   5.150   5.002   1.634  0.6079  0.5729  0.2051
  240MOL0     C32295   5.013   5.024   1.569  0.9789  0.4610 -0.6538
  240MOL0     O32296   4.980   5.157   1.545  0.2941  0.5874  0.9064
  240MOL0     C32297   4.855   5.193   1.503 -0.6341  0.4482 -0.2897
  240MOL0     C32298   4.803   5.323   1.539  0.2783 -0.8141 -0.6787
  240MOL0     C32299   4.675   5.367   1.499 -0.2468  0.0136  0.3563
  240MOL0     C32300   4.594   5.287   1.418 -1.3844  0.2001 -0.2422
  240MOL0     O32301   4.479   5.337   1.378  0.5819 -0.8112  0.0658
  240MOL0     C32302   4.421   5.321   1.250 -0.9058  0.3620 -0.4325
  240MOL0     C32303   4.301   5.406   1.216 -0.1698  0.1836 -0.2119
  240MOL0     C32304   4.343   5.557   1.229 -0.0874  0.5326 -0.6071
  240MOL0     C32305   4.310   5.606   1.370 -0.4706  0.7271  0.8898
  240MOL0     C32306   4.357   5.751   1.389 -0.6259 -0.2046 -0.0803
  240MOL0     C32307   4.345   5.783   1.534  0.7443 -0.3819 -0.1352
  240MOL0     C32308   4.420   5.913   1.574 -1.3573 -1.5552  0.1930
  240MOL0     C32309   4.394   5.929   1.721 -0.1977 -0.6431 -0.1331
  240MOL0    Cl32310   4.435   6.100   1.764  0.0087 -0.1459 -0.4496
  240MOL0     C32311   4.639   5.159   1.380 -0.6857 -0.2158  0.2692
  240MOL0     C32312   4.763   5.111   1.422  0.3486 -0.2995  0.0171
  240MOL0     O32313   4.944   4.924   1.535 -0.7642 -0.0915 -0.2669
  240MOL0     C32314   5.247   5.097   1.619 -0.1321 -0.0972 -0.7762
  240MOL0     C32315   5.368   5.100   1.695  0.1403  0.2695 -0.1564
  240MOL0     N32316   6.011   5.324   1.778 -0.4548  0.0448  0.0337
  240MOL0     N32317   6.133   5.361   1.782 -0.4214 -0.2005  0.8758
  240MOL0     C32318   5.738   4.653   2.072 -0.5834  0.2477  0.2337
  240MOL0     C32319   5.614   4.601   2.056  0.5955  0.2697 -0.0541
  240MOL0     C32320   5.142   4.567   2.148  1.0182 -0.7202  0.2157
  240MOL0     C32321   5.019   4.625   2.171  0.4867 -0.5940 -0.2835
  240MOL0     C32322   4.906   4.560   2.131  0.3677 -0.3250 -0.5673
  240MOL0     C32323   4.908   4.444   2.060 -0.4296 -0.0765 -1.6151
  240MOL0     O32324   4.798   4.367   2.024 -0.4179  1.3076  0.1403
  240MOL0     C32325   4.689   4.368   2.115 -0.6131  0.4350  0.0842
  240MOL0     C32326   4.625   4.238   2.082  0.1984 -1.1757  0.5407
  240MOL0     C32327   4.572   4.241   1.935  0.1159  0.3520  0.0186
  240MOL0     C32328   4.481   4.123   1.895 -0.0809 -0.5251 -0.0533
  240MOL0     C32329   4.360   4.113   1.973 -0.4442  0.6925 -0.6434
  240MOL0     C32330   4.258   4.118   2.034  0.2031  1.2025 -0.1464
  240MOL0     C32331   5.031   4.391   2.032 -0.8180  0.3050 -0.2516
  240MOL0     C32332   5.148   4.444   2.078 -0.8617 -0.7775 -0.3049
  240MOL0     H32333   5.479   4.692   2.351  1.6048 -0.5782  1.2574
  240MOL0     H32334   5.715   4.754   2.389  3.4004 -0.2385 -0.3858
  240MOL0     H32335   5.995   4.618   2.079 -1.9486  0.3038  0.5544
  240MOL0     H32336   5.981   4.777   2.004  1.4517  4.1616  2.0221
  240MOL0     H32337   6.164   4.699   2.236  0.6600  0.5820 -0.1075
  240MOL0     H32338   6.211   4.706   2.062  1.2787  0.5728  0.1463
  240MOL0     H32339   6.153   4.937   2.047 -0.0708  1.3767  0.5435
  240MOL0     H32340   6.109   4.935   2.219  0.6029  1.6388 -0.7185
  240MOL0     H32341   6.349   4.864   2.258 -2.2739 -0.6509 -0.1864
  240MOL0     H32342   6.381   4.888   2.088  0.9676  1.9377 -1.9899
  240MOL0     H32343   6.270   5.118   2.265  2.2909  3.1540  0.9758
  240MOL0     H32344   6.440   5.091   2.236 -0.4064 -1.3180  2.0666
  240MOL0     H32345   6.415   5.113   1.994  1.1751 -1.9037  2.9510
  240MOL0     H32346   6.246   5.118   2.000  0.4181 -0.0240  0.6349
  240MOL0     H32347   6.299   5.327   2.170 -0.1273 -0.1612  0.6746
  240MOL0     H32348   6.454   5.324   2.085 -0.7739 -2.1821 -0.3572
  240MOL0     H32349   6.354   5.356   1.870 -0.9519  2.1064 -1.6437
  240MOL0     H32350   6.312   5.502   1.979 -1.3014  1.0116 -0.0040
  240MOL0     H32351   6.049   5.346   2.100 -1.0696 -2.6065 -0.2818
  240MOL0     H32352   5.786   5.341   2.008  0.7686  3.5672 -2.4959
  240MOL0     H32353   5.767   5.275   1.845 -1.5741 -0.3319  1.5408
  240MOL0     H32354   5.878   5.143   2.077  0.2264  2.9811  0.2711
  240MOL0     H32355   5.859   5.057   1.909 -0.6508  0.5402  0.6118
  240MOL0     H32356   5.646   5.153   2.091  1.0402  0.8760 -0.4239
  240MOL0     H32357   5.680   4.985   2.036 -1.0706 -0.1320  1.6950
  240MOL0     H32358   5.635   5.084   1.795  2.1796  0.7275  0.0461
  240MOL0     H32359   5.534   5.201   1.895  1.2244  0.8700 -0.7196
  240MOL0     H32360   5.287   4.847   1.910 -2.1988 -0.2148  0.9435
  240MOL0     H32361   4.982   4.833   1.827 -0.1306 -1.1360  1.2843
  240MOL0     H32362   5.039   4.737   1.691  0.5447  0.5598 -0.2977
  240MOL0     H32363   5.121   4.720   1.850 -1.2040  0.5810  1.5026
  240MOL0     H32364   4.851   5.398   1.601 -0.5641  0.5211 -1.6137
  240MOL0     H32365   4.636   5.463   1.532 -2.0719 -0.9339  1.1155
  240MOL0     H32366   4.496   5.330   1.171  0.0900  0.3956  0.4955
  240MOL0     H32367   4.382   5.219   1.249 -1.4273  0.4597  2.4158
  240MOL0     H32368   4.272   5.386   1.112 -0.8473 -0.3975  0.0821
  240MOL0     H32369   4.222   5.395   1.291 -1.1058  0.4394 -1.1216
  240MOL0     H32370   4.311   5.616   1.143 -0.1741  0.0396 -0.9166
  240MOL0     H32371   4.451   5.566   1.216 -0.0844  2.8033  0.6350
  240MOL0     H32372   4.202   5.594   1.379 -0.4209 -0.3974  0.2214
  240MOL0     H32373   4.357   5.528   1.432  4.0466  1.2857 -1.3780
  240MOL0     H32374   4.304   5.815   1.317 -0.7786 -1.8945 -1.5398
  240MOL0     H32375   4.465   5.746   1.368 -0.6549 -1.0037 -0.0420
  240MOL0     H32376   4.238   5.795   1.549  0.9299 -0.6195  1.5135
  240MOL0     H32377   4.385   5.702   1.595 -2.8445 -2.5560 -0.4084
  240MOL0     H32378   4.393   6.003   1.519 -0.1795 -0.6881  0.9845
  240MOL0     H32379   4.526   5.895   1.553 -0.9754  0.0347  0.6722
  240MOL0     H32380   4.459   5.869   1.786  3.2515  1.0854 -1.7491
  240MOL0     H32381   4.293   5.907   1.755  0.2776  0.2369  2.0415
  240MOL0     H32382   4.577   5.095   1.317 -2.6210  2.5087 -0.8064
  240MOL0     H32383   4.809   5.022   1.379  3.3447  0.9754  0.3240
  240MOL0     H32384   5.241   5.174   1.543 -1.1703  1.3192  0.6814
  240MOL0     H32385   5.443   5.177   1.681  3.2873 -2.2661  1.5139
  240MOL0     H32386   5.806   4.624   1.993 -1.2001 -5.0083  1.2455
  240MOL0     H32387   5.585   4.547   1.967  1.1335 -4.2878  2.2456
  240MOL0     H32388   4.999   4.727   2.202 -4.4997 -1.5748  0.6544
  240MOL0     H32389   4.814   4.611   2.157 -0.2900 -1.3239 -0.8761
  240MOL0     H32390   4.715   4.369   2.221 -3.0705  2.3415  0.7605
  240MOL0     H32391   4.627   4.452   2.083  0.1578  0.0583 -2.7055
  240MOL0     H32392   4.541   4.231   2.151  0.8323 -0.8015  1.3699
  240MOL0     H32393   4.687   4.150   2.102 -0.1498 -1.5324  0.0856
  240MOL0     H32394   4.649   4.251   1.859  0.7526  0.3515  0.6577
  240MOL0     H32395   4.514   4.334   1.928  0.4749  0.5445 -0.4279
  240MOL0     H32396   4.538   4.030   1.907  1.5764  0.5701  0.8445
  240MOL0     H32397   4.465   4.121   1.787  2.1921 -0.7449 -0.4517
  240MOL0     H32398   4.173   4.145   2.094 -0.8544 -1.3395 -0.3518
  240MOL0     H32399   5.010   4.307   1.967  0.8998 -0.4516  0.1110
  240MOL0     H32400   5.239   4.387   2.064 -1.0198 -2.2956  3.5936
  241MOL0     O32401   6.000   7.987   4.698  0.0967 -0.6025  0.2153
  241MOL0     C32402   5.945   8.066   4.616  0.2229 -0.8317 -0.1332
  241MOL0     O32403   6.009   8.155   4.537  0.5519 -0.8175  0.2184
  241MOL0     C32404   6.144   8.180   4.557  0.3204  1.2513 -0.5118
  241MOL0     C32405   6.224   8.183   4.443 -0.4732  0.6626  0.0537
  241MOL0     C32406   6.358   8.217   4.455  0.5365 -0.1061 -0.3526
  241MOL0     C32407   6.419   8.236   4.580  0.0935 -1.0305 -0.7093
  241MOL0     O32408   6.554   8.260   4.587  0.7278 -0.0820 -0.2613
  241MOL0     C32409   6.590   8.394   4.624 -0.6353 -0.2833  0.2173
  241MOL0     C32410   6.718   8.402   4.701  0.4525 -0.3138 -0.0119
  241MOL0     C32411   6.822   8.306   4.658  0.1510 -0.6150 -0.5446
  241MOL0     C32412   6.930   8.294   4.761 -0.3807 -0.9319  0.4627
  241MOL0     C32413   7.004   8.182   4.712  0.4277 -0.2852  0.4511
  241MOL0     C32414   7.124   8.149   4.792  0.2139  0.8575  0.0649
  241MOL0     C32415   7.180   8.007   4.783  0.0850  1.5119 -0.0917
  241MOL0     C32416   7.317   7.990   4.853  0.1280 -0.3626 -0.3072
  241MOL0     N32417   7.300   7.941   4.993  0.0227 -0.8519 -0.0875
  241MOL0     C32418   7.346   7.824   5.034 -0.2116  0.8408  0.4453
  241MOL0     C32419   7.309   7.815   5.164 -0.0653 -0.0005 -0.3252
  241MOL0     C32420   7.314   7.689   5.243 -0.6138  0.2309 -0.4279
  241MOL0     C32421   7.439   7.592   5.228  0.7616  0.1800 -1.0313
  241MOL0     C32422   7.575   7.644   5.280  0.1724  0.5007  0.3889
  241MOL0     C32423   7.633   7.764   5.203 -0.4089  1.1054  0.7981
  241MOL0     O32424   7.650   7.723   5.067  0.4070  0.4206 -0.7193
  241MOL0     C32425   7.653   7.817   4.971 -0.9749  0.0576  0.8739
  241MOL0     C32426   7.625   7.780   4.844  0.5211 -0.0608  0.2085
  241MOL0     C32427   7.632   7.861   4.728 -0.4496 -0.3078 -0.6321
  241MOL0     C32428   7.627   7.796   4.582  0.1991  0.2402 -0.1053
  241MOL0     C32429   7.659   7.993   4.756  0.9106 -0.2046  0.5294
  241MOL0     C32430   7.659   8.084   4.648 -1.0000 -0.3060 -0.5208
  241MOL0     O32431   7.745   8.059   4.541  0.3420 -0.6738 -0.2423
  241MOL0     C32432   7.744   8.134   4.428  0.1920  0.0823 -0.5722
  241MOL0     C32433   7.863   8.151   4.352  0.3118 -0.4030  0.3255
  241MOL0     C32434   7.868   8.250   4.247 -0.2431  0.2428  0.3504
  241MOL0     C32435   7.753   8.298   4.190  0.5431  0.2078  0.6193
  241MOL0     O32436   7.761   8.364   4.072  0.5024  0.6829 -0.4827
  241MOL0     C32437   7.666   8.315   3.977  0.5958  0.3335 -0.1188
  241MOL0     C32438   7.702   8.190   3.897 -0.1767 -0.5626  0.4369
  241MOL0     C32439   7.846   8.181   3.831 -0.1634 -0.5934  0.3099
  241MOL0     C32440   7.960   8.160   3.938  0.2026  0.1315 -0.3007
  241MOL0     C32441   8.063   8.064   3.872  0.0957  0.5215  0.1054
  241MOL0     C32442   8.140   8.115   3.750 -0.0869  0.1812 -0.1598
  241MOL0     C32443   8.172   8.012   3.637  0.1427  0.0057 -1.1440
  241MOL0     C32444   8.290   8.050   3.554 -0.1951  0.6740 -0.5697
  241MOL0    Cl32445   8.309   8.228   3.529 -0.0081 -0.2340  0.1426
  241MOL0     C32446   7.634   8.286   4.264  1.0077 -0.4258 -0.2665
  241MOL0     C32447   7.631   8.202   4.375 -0.0712  0.1364 -0.4423
  241MOL0     O32448   7.582   8.181   4.653 -0.1544 -0.9281  0.2847
  241MOL0     C32449   7.669   8.046   4.883 -0.3923  0.3421  0.0233
  241MOL0     C32450   7.662   7.955   4.990 -0.0581  0.0947 -1.7156
  241MOL0     N32451   7.241   7.930   5.206 -0.4904  0.0450  0.1452
  241MOL0     N32452   7.235   7.997   5.094  0.6408  0.1269  0.2565
  241MOL0     C32453   6.340   8.248   4.699 -0.1492  0.1344 -0.5275
  241MOL0     C32454   6.199   8.209   4.687 -0.3705 -0.2141 -0.4346
  241MOL0     C32455   5.800   8.068   4.597 -0.7164  0.2161 -0.6468
  241MOL0     C32456   5.727   8.132   4.489 -0.4274 -0.3941  0.6297
  241MOL0     C32457   5.588   8.119   4.475  0.1489  0.5440  0.8419
  241MOL0     C32458   5.518   8.043   4.567 -0.0101  0.4893  0.7992
  241MOL0     O32459   5.380   8.048   4.557 -0.1395  0.2230  0.4997
  241MOL0     C32460   5.302   8.046   4.678 -0.2564  0.2260  0.0951
  241MOL0     C32461   5.281   8.176   4.750  0.0149  0.1455 -0.5989
  241MOL0     C32462   5.216   8.288   4.660 -0.3270  0.1548  0.0899
  241MOL0     C32463   5.194   8.413   4.734  0.6731 -0.6230  0.3600
  241MOL0     C32464   5.116   8.410   4.864 -0.0661  0.5141  0.2267
  241MOL0     C32465   5.049   8.419   4.962  0.0063 -0.4340  0.2566
  241MOL0     C32466   5.587   7.967   4.665  0.0824 -0.0365  0.9909
  241MOL0     C32467   5.725   7.976   4.677  0.2573 -0.4724  0.4030
  241MOL0     H32468   6.178   8.170   4.346 -1.8885 -2.2414  0.9690
  241MOL0     H32469   6.416   8.229   4.364 -0.4602 -1.9981 -1.2932
  241MOL0     H32470   6.602   8.453   4.533  2.8967 -1.5931 -0.3441
  241MOL0     H32471   6.509   8.443   4.678 -1.8224  1.8150 -3.1762
  241MOL0     H32472   6.761   8.502   4.706  0.4527 -0.3556  1.0802
  241MOL0     H32473   6.688   8.383   4.804  0.2568 -0.3806 -0.0811
  241MOL0     H32474   6.775   8.208   4.648  0.6029 -0.9861  0.7867
  241MOL0     H32475   6.862   8.339   4.562  1.9777  1.3623  0.8067
  241MOL0     H32476   6.994   8.382   4.750 -0.4866 -0.8291  0.6479
  241MOL0     H32477   6.889   8.273   4.860 -1.8436 -1.2897 -0.1834
  241MOL0     H32478   6.944   8.091   4.702  1.5133 -0.9018 -0.8030
  241MOL0     H32479   7.044   8.200   4.612 -1.0531  0.7201  0.0010
  241MOL0     H32480   7.198   8.218   4.749  0.8051 -2.2613 -4.5817
  241MOL0     H32481   7.096   8.174   4.895 -1.2933  2.8022 -0.7577
  241MOL0     H32482   7.101   7.959   4.841  2.4984 -0.7084  1.6055
  241MOL0     H32483   7.187   7.969   4.681 -0.2189 -1.3590  0.8638
  241MOL0     H32484   7.372   8.085   4.851 -0.1095 -0.2260 -0.3521
  241MOL0     H32485   7.371   7.911   4.801 -0.0424  0.4474 -1.7844
  241MOL0     H32486   7.398   7.746   4.978 -0.1200  1.3791 -0.2346
  241MOL0     H32487   7.292   7.722   5.345 -2.1922 -0.1748 -0.6122
  241MOL0     H32488   7.224   7.639   5.206 -3.2887  4.8054 -0.8461
  241MOL0     H32489   7.450   7.543   5.131  2.5887 -3.1908  0.6984
  241MOL0     H32490   7.416   7.504   5.289  2.4444 -0.9588 -1.9603
  241MOL0     H32491   7.654   7.568   5.283 -1.2908 -1.3445 -2.6150
  241MOL0     H32492   7.552   7.666   5.384 -1.6621 -1.4814  0.4753
  241MOL0     H32493   7.734   7.788   5.240  0.9809 -2.1484 -0.5012
  241MOL0     H32494   7.566   7.849   5.216  2.4983  3.4934  1.4202
  241MOL0     H32495   7.603   7.674   4.830 -2.2638  0.2535  1.5083
  241MOL0     H32496   7.557   7.857   4.525 -0.7560 -0.2749  0.4995
  241MOL0     H32497   7.726   7.792   4.535 -0.4032 -2.7105 -1.3616
  241MOL0     H32498   7.592   7.693   4.577 -0.5585  0.4980 -0.2472
  241MOL0     H32499   7.952   8.108   4.398  1.8430 -0.7711 -2.7568
  241MOL0     H32500   7.969   8.277   4.215 -1.1818  1.8746 -1.4266
  241MOL0     H32501   7.562   8.301   4.008 -0.4490 -1.2709 -3.6994
  241MOL0     H32502   7.666   8.396   3.904  0.6816  0.7867  0.3829
  241MOL0     H32503   7.694   8.102   3.961  2.4969 -0.6060  0.8304
  241MOL0     H32504   7.628   8.172   3.819 -1.5551 -3.1148  2.2018
  241MOL0     H32505   7.866   8.270   3.771  0.4340 -0.2806  0.9643
  241MOL0     H32506   7.830   8.102   3.757  0.3419  2.8609 -3.9812
  241MOL0     H32507   8.009   8.250   3.976 -0.7893 -0.2250  1.9470
  241MOL0     H32508   7.913   8.103   4.019 -0.7134 -0.3017 -1.1166
  241MOL0     H32509   8.007   7.975   3.840 -1.2589  0.7648  1.6459
  241MOL0     H32510   8.135   8.023   3.944  2.5513 -1.9807 -3.4293
  241MOL0     H32511   8.074   8.193   3.711 -3.6604 -2.8225 -0.7310
  241MOL0     H32512   8.240   8.147   3.781  0.3754 -2.8516  1.9451
  241MOL0     H32513   8.085   8.001   3.572  1.0806 -0.3136 -2.3817
  241MOL0     H32514   8.197   7.915   3.681 -0.9454  0.1420 -0.1840
  241MOL0     H32515   8.277   7.999   3.458 -0.1846 -0.1647 -0.1318
  241MOL0     H32516   8.384   8.015   3.598 -0.4576  1.4019  0.6042
  241MOL0     H32517   7.541   8.336   4.240 -1.3767 -3.2032  2.3910
  241MOL0     H32518   7.536   8.184   4.425 -0.3800 -0.9273 -1.4006
  241MOL0     H32519   7.697   8.150   4.901  1.4407 -0.5102  2.7900
  241MOL0     H32520   7.694   8.001   5.083 -0.2792  0.4959 -1.8365
  241MOL0     H32521   6.385   8.265   4.796 -1.0493 -1.3082  0.1720
  241MOL0     H32522   6.147   8.199   4.782 -0.1364  0.3247 -0.2410
  241MOL0     H32523   5.766   8.214   4.429 -1.6459  0.2944  0.7457
  241MOL0     H32524   5.535   8.164   4.392  2.5698  0.7038 -0.7414
  241MOL0     H32525   5.200   8.019   4.647  0.0712  2.0904 -3.0170
  241MOL0     H32526   5.335   7.964   4.742 -1.1792 -1.4667 -1.4918
  241MOL0     H32527   5.380   8.204   4.786 -0.2187  2.0224 -1.3237
  241MOL0     H32528   5.217   8.159   4.837 -0.2288  3.1962 -0.0905
  241MOL0     H32529   5.120   8.262   4.614 -0.9184  2.4668 -0.0641
  241MOL0     H32530   5.270   8.316   4.569  0.5334 -0.2785  0.4506
  241MOL0     H32531   5.142   8.486   4.671 -0.0308 -0.7841  0.7468
  241MOL0     H32532   5.287   8.464   4.762 -1.0925  3.1435  0.0412
  241MOL0     H32533   4.988   8.443   5.047 -0.8526 -0.5925 -0.3041
  241MOL0     H32534   5.531   7.902   4.733 -2.2964  2.8357  1.9897
  241MOL0     H32535   5.772   7.918   4.756 -0.4485 -0.5131  0.8009
  242MOL0     O32536   6.896  10.993   0.559 -0.1942 -0.0719  0.6926
  242MOL0     C32537   6.904  10.894   0.628 -0.2472 -0.4975  0.0211
  242MOL0     O32538   6.914  10.894   0.760  0.5345 -0.3122  0.0103
  242MOL0     C32539   6.904  11.022   0.815  0.1979  0.5156 -0.2080
  242MOL0     C32540   6.785  11.067   0.876  0.2704  1.1518  0.0059
  242MOL0     C32541   6.782  11.187   0.947  0.5629  0.0188  0.4472
  242MOL0     C32542   6.899  11.262   0.954  0.7995 -0.3743  0.1972
  242MOL0     O32543   6.909  11.383   1.013 -1.1507  0.7698 -0.0816
  242MOL0     C32544   6.797  11.472   1.005  0.6978  0.3643 -0.4791
  242MOL0     C32545   6.714  11.481   1.138 -0.7427 -1.0099  0.8544
  242MOL0     C32546   6.609  11.598   1.115 -0.1388  0.1424 -0.5101
  242MOL0     C32547   6.513  11.602   1.239 -0.1200 -0.0799  0.3040
  242MOL0     C32548   6.433  11.729   1.245 -0.2648 -0.2971 -0.6929
  242MOL0     C32549   6.329  11.746   1.133 -0.7959  0.0024 -0.6008
  242MOL0     C32550   6.187  11.784   1.186 -1.0085  0.7952  0.1132
  242MOL0     C32551   6.080  11.756   1.082 -0.2740  1.2081 -0.1902
  242MOL0     N32552   5.952  11.822   1.117 -0.3051  1.3473  0.2770
  242MOL0     C32553   5.931  11.956   1.141  0.1491  0.6896  0.8435
  242MOL0     C32554   5.809  11.962   1.191 -0.0073  0.4195 -0.1751
  242MOL0     C32555   5.734  12.073   1.262  0.2151  0.1398  0.2471
  242MOL0     C32556   5.822  12.196   1.252  0.2789 -0.1529 -0.0843
  242MOL0     C32557   5.757  12.329   1.291  0.1192  0.7782 -0.1239
  242MOL0     C32558   5.771  12.365   1.439 -0.0394  0.6781 -0.2808
  242MOL0     O32559   5.896  12.432   1.451  0.4715 -0.8453 -0.7653
  242MOL0     C32560   5.951  12.458   1.574 -0.1931 -0.3868  0.1955
  242MOL0     C32561   6.046  12.560   1.584 -0.1272 -0.3092  0.2411
  242MOL0     C32562   6.127  12.589   1.699  0.0121 -0.1626 -0.2729
  242MOL0     C32563   6.230  12.705   1.694  0.0077  0.0275 -0.1877
  242MOL0     C32564   6.100  12.516   1.821  0.1291  0.3452 -0.3335
  242MOL0     C32565   6.180  12.544   1.955 -0.2841  0.2420  0.5929
  242MOL0     O32566   6.184  12.669   2.014  0.2261 -0.0042  0.3713
  242MOL0     C32567   6.263  12.700   2.119 -0.3205 -0.6902  0.3196
  242MOL0     C32568   6.220  12.800   2.213  0.0516 -0.0531  0.6103
  242MOL0     C32569   6.286  12.846   2.324  0.2553 -0.7844  0.3931
  242MOL0     C32570   6.409  12.788   2.347 -0.1413 -0.8342  0.3758
  242MOL0     O32571   6.488  12.825   2.456  0.9273  0.3585 -0.1955
  242MOL0     C32572   6.503  12.966   2.457  0.3867 -1.0388  0.5427
  242MOL0     C32573   6.561  13.009   2.590  0.3763  0.0971 -0.7239
  242MOL0     C32574   6.712  12.985   2.609 -0.0050  1.0124  0.3742
  242MOL0     C32575   6.754  12.835   2.611 -0.5325 -0.6900  0.5052
  242MOL0     C32576   6.894  12.819   2.663  0.0473 -0.1244 -0.1231
  242MOL0     C32577   6.919  12.793   2.809  0.6418 -0.1123 -0.6818
  242MOL0     C32578   6.926  12.643   2.849 -0.7618  0.3445 -0.0668
  242MOL0     C32579   7.076  12.613   2.871 -0.5340  0.6323 -0.2695
  242MOL0    Cl32580   7.169  12.621   2.724 -0.4719  0.1277  0.3808
  242MOL0     C32581   6.450  12.678   2.266  0.0709 -0.6848 -0.1245
  242MOL0     C32582   6.382  12.637   2.150 -1.4790 -0.0504 -0.3763
  242MOL0     O32583   6.244  12.446   1.996  0.1738 -0.2948 -0.6370
  242MOL0     C32584   6.024  12.402   1.806  1.0575 -0.6424 -1.0598
  242MOL0     C32585   5.955  12.373   1.691 -0.4394  0.2562  0.2090
  242MOL0     N32586   5.755  11.832   1.187 -0.8086  0.4111 -0.2477
  242MOL0     N32587   5.846  11.750   1.146  0.2165  0.1515 -0.2039
  242MOL0     C32588   7.015  11.220   0.887  0.2699 -0.2633 -0.3576
  242MOL0     C32589   7.014  11.103   0.812 -0.0258  1.1448 -0.1530
  242MOL0     C32590   6.925  10.762   0.573  0.7069  0.8428 -0.7591
  242MOL0     C32591   6.920  10.745   0.431  0.2851  0.3979  0.3225
  242MOL0     C32592   6.927  10.625   0.360  1.2917 -0.0677  0.2920
  242MOL0     C32593   6.933  10.506   0.441 -0.4195 -0.0700  0.4629
  242MOL0     O32594   6.931  10.392   0.370 -0.0182  0.2674 -0.0287
  242MOL0     C32595   6.912  10.279   0.445  0.9547  0.8467  0.7611
  242MOL0     C32596   6.882  10.163   0.349  0.4136 -0.2002  0.5913
  242MOL0     C32597   6.837  10.032   0.421  0.7448 -0.3098  0.1308
  242MOL0     C32598   6.916   9.986   0.531 -0.7450 -0.2930 -0.2469
  242MOL0     C32599   7.060   9.985   0.502 -0.5377 -0.0572  0.3919
  242MOL0     C32600   7.176   9.972   0.476  0.2736 -0.1821  0.6469
  242MOL0     C32601   6.933  10.522   0.583  0.2621  0.4474 -0.2087
  242MOL0     C32602   6.935  10.645   0.651 -1.1991 -0.0446 -0.6982
  242MOL0     H32603   6.692  11.012   0.866  1.0388 -0.0183 -1.1642
  242MOL0     H32604   6.692  11.224   0.994 -0.9043 -1.5706 -0.9353
  242MOL0     H32605   6.835  11.574   0.991  1.0910  0.5947  1.8154
  242MOL0     H32606   6.735  11.452   0.918 -0.3581  1.0829  0.0904
  242MOL0     H32607   6.662  11.386   1.153 -4.5953  0.9856  1.2974
  242MOL0     H32608   6.777  11.503   1.224  0.7655 -0.6899 -0.2878
  242MOL0     H32609   6.663  11.692   1.113  0.5971 -0.1664  2.0061
  242MOL0     H32610   6.553  11.580   1.022  0.8627  1.4215 -1.3894
  242MOL0     H32611   6.456  11.509   1.245 -2.7223  1.3751 -0.3724
  242MOL0     H32612   6.582  11.596   1.324  1.4878 -1.7753 -1.0331
  242MOL0     H32613   6.394  11.740   1.347 -1.2169 -2.5143 -0.7740
  242MOL0     H32614   6.499  11.816   1.237 -0.1107 -0.5955 -3.3401
  242MOL0     H32615   6.371  11.812   1.057 -1.7168  3.5013  1.6941
  242MOL0     H32616   6.323  11.644   1.092 -0.8967 -0.0577 -0.4358
  242MOL0     H32617   6.169  11.727   1.278  1.2970 -1.0837 -0.4980
  242MOL0     H32618   6.194  11.890   1.209 -1.9424  0.7251  0.8020
  242MOL0     H32619   6.072  11.648   1.063 -0.1398  1.4942 -2.1041
  242MOL0     H32620   6.122  11.792   0.987  0.5305 -0.3365 -0.4538
  242MOL0     H32621   6.014  12.026   1.133  2.6830 -2.1715  0.0654
  242MOL0     H32622   5.638  12.093   1.214  0.1756 -1.8400 -0.5698
  242MOL0     H32623   5.714  12.044   1.365  0.5502 -0.1960  0.2204
  242MOL0     H32624   5.860  12.205   1.150  2.3423  0.1393  0.6520
  242MOL0     H32625   5.903  12.169   1.321  0.1193  2.7039  1.4058
  242MOL0     H32626   5.650  12.330   1.272  0.2163 -2.1584 -1.3941
  242MOL0     H32627   5.808  12.403   1.228  0.8229 -0.9097 -1.6620
  242MOL0     H32628   5.786  12.276   1.500 -0.8869  0.0330 -0.9876
  242MOL0     H32629   5.690  12.428   1.478 -0.7614 -0.0141 -0.6395
  242MOL0     H32630   6.073  12.610   1.491  1.6181  0.1769  0.9686
  242MOL0     H32631   6.176  12.784   1.747 -0.5206  1.1236 -2.2469
  242MOL0     H32632   6.315  12.678   1.757 -2.4120 -4.1753  1.7775
  242MOL0     H32633   6.255  12.728   1.590 -1.3482  0.2950 -0.4746
  242MOL0     H32634   6.120  12.834   2.188 -0.3280 -1.3603  0.2595
  242MOL0     H32635   6.249  12.910   2.403  0.9463 -0.4776  0.4701
  242MOL0     H32636   6.564  12.997   2.372 -4.2786 -1.0071 -3.2613
  242MOL0     H32637   6.408  13.019   2.444  0.9846  0.7178  2.8245
  242MOL0     H32638   6.540  13.115   2.607 -0.9583 -0.2765  0.0156
  242MOL0     H32639   6.510  12.950   2.666  2.3891 -2.8227 -1.4355
  242MOL0     H32640   6.742  13.007   2.712  0.5252 -1.2554  0.7649
  242MOL0     H32641   6.782  13.030   2.538  4.1818 -2.8175  1.6079
  242MOL0     H32642   6.689  12.779   2.679 -2.0441 -2.3363 -2.0981
  242MOL0     H32643   6.743  12.785   2.514  0.2452  1.1601 -0.5784
  242MOL0     H32644   6.958  12.902   2.633  0.8718 -1.0246 -0.9200
  242MOL0     H32645   6.938  12.738   2.605 -2.3314  0.3823 -2.8281
  242MOL0     H32646   7.012  12.835   2.850  0.7007 -2.5422  1.9611
  242MOL0     H32647   6.843  12.848   2.867 -0.2198  0.5873 -2.4179
  242MOL0     H32648   6.896  12.570   2.773 -0.1185 -0.7600  0.7137
  242MOL0     H32649   6.862  12.619   2.935  1.0624 -2.5342  0.6217
  242MOL0     H32650   7.077  12.510   2.908  1.3856  1.2271  1.4947
  242MOL0     H32651   7.122  12.672   2.950 -0.1134 -2.1992  1.7595
  242MOL0     H32652   6.547  12.633   2.287  0.3431 -0.5023 -0.9533
  242MOL0     H32653   6.448  12.576   2.090  1.9176  1.9466  1.0207
  242MOL0     H32654   6.002  12.333   1.886 -0.7932 -1.1263 -1.9222
  242MOL0     H32655   5.897  12.281   1.693  2.7356 -1.9184  1.7965
  242MOL0     H32656   7.100  11.288   0.877 -0.7235  1.0247 -0.3512
  242MOL0     H32657   7.105  11.083   0.756  1.5240  2.0288  1.9326
  242MOL0     H32658   6.910  10.832   0.367  1.0536  0.1182 -0.1807
  242MOL0     H32659   6.913  10.622   0.253 -1.3360 -0.4790  0.5864
  242MOL0     H32660   6.995  10.257   0.513 -0.2195 -2.3243  1.3565
  242MOL0     H32661   6.816  10.295   0.495  1.6860  3.4097  1.4928
  242MOL0     H32662   6.972  10.156   0.287  0.4924  3.6812  0.0221
  242MOL0     H32663   6.800  10.189   0.282  0.2890  1.9118  1.4833
  242MOL0     H32664   6.843   9.953   0.346  0.8272  1.2419 -1.5620
  242MOL0     H32665   6.733  10.031   0.455  0.5134 -0.7672 -0.5661
  242MOL0     H32666   6.877   9.888   0.560  1.2024 -1.6396 -1.8761
  242MOL0     H32667   6.902  10.052   0.617 -1.8768 -2.3459  1.2419
  242MOL0     H32668   7.279   9.960   0.451  0.0990  3.0781 -2.3485
  242MOL0     H32669   6.930  10.435   0.648  0.6558  0.1825 -0.5407
  242MOL0     H32670   6.939  10.639   0.759  1.1130  1.4340 -0.6295
  243MOL0     O32671   7.974   0.786   4.533  0.1012 -0.1712  0.0036
  243MOL0     C32672   8.043   0.826   4.628 -0.0874  0.1990 -0.5221
  243MOL0     O32673   8.015   0.911   4.733 -0.0232 -0.3596  0.6238
  243MOL0     C32674   7.904   1.000   4.710  0.1962  0.0881  0.3225
  243MOL0     C32675   7.805   0.997   4.607  0.2875  0.4245 -0.1301
  243MOL0     C32676   7.687   1.078   4.621  0.3579 -0.4393 -0.3363
  243MOL0     C32677   7.674   1.170   4.722 -0.5096  0.7732 -0.4539
  243MOL0     O32678   7.580   1.264   4.721 -0.4761  0.4121  0.3960
  243MOL0     C32679   7.445   1.225   4.758  0.1670  0.2734  0.4522
  243MOL0     C32680   7.361   1.349   4.784  0.6372 -0.2903 -0.0830
  243MOL0     C32681   7.244   1.305   4.871 -0.9457 -0.3880  0.7429
  243MOL0     C32682   7.160   1.433   4.899  0.2025  0.3537  0.7517
  243MOL0     C32683   7.032   1.409   4.985 -0.1039  0.6384 -0.2539
  243MOL0     C32684   6.930   1.319   4.920 -0.6560  0.8187 -0.5924
  243MOL0     C32685   6.806   1.297   5.002 -0.4861  0.3149 -0.1410
  243MOL0     C32686   6.826   1.219   5.132  0.2114 -0.5289 -0.0937
  243MOL0     N32687   6.762   1.276   5.250  0.3179 -0.1682  0.6505
  243MOL0     C32688   6.622   1.294   5.265 -0.4174  1.4141 -0.3571
  243MOL0     C32689   6.605   1.352   5.382 -0.0007 -0.1848 -0.5640
  243MOL0     C32690   6.474   1.387   5.443 -0.9999  0.4945 -0.9641
  243MOL0     C32691   6.440   1.540   5.474  0.0170  1.0741  0.1521
  243MOL0     C32692   6.428   1.629   5.351 -0.1205 -1.0963 -0.1629
  243MOL0     C32693   6.397   1.771   5.402  0.3158 -0.4944 -0.2710
  243MOL0     O32694   6.280   1.790   5.476 -0.2143  0.9631 -0.0245
  243MOL0     C32695   6.154   1.818   5.420  0.8842  0.8582  0.1348
  243MOL0     C32696   6.034   1.805   5.500 -1.0475 -0.6042 -0.1906
  243MOL0     C32697   5.910   1.836   5.450  0.1208  0.3053 -0.3084
  243MOL0     C32698   5.790   1.852   5.546  0.1186 -0.5386 -0.4108
  243MOL0     C32699   5.896   1.862   5.314 -0.0175  1.0884  1.1716
  243MOL0     C32700   5.766   1.896   5.243 -0.4658  1.0714 -0.5647
  243MOL0     O32701   5.776   1.950   5.116 -0.7850 -0.0475 -0.1625
  243MOL0     C32702   5.668   1.989   5.044  0.5130 -0.2518  0.3963
  243MOL0     C32703   5.578   2.089   5.097 -0.8327 -0.2433  0.8134
  243MOL0     C32704   5.471   2.134   5.022 -0.7847  0.3120  0.5911
  243MOL0     C32705   5.444   2.081   4.892  0.1637 -0.2729 -0.7101
  243MOL0     O32706   5.342   2.107   4.804  0.0005  0.3450  0.0780
  243MOL0     C32707   5.234   2.194   4.864  0.1838 -0.3302  0.7578
  243MOL0     C32708   5.109   2.163   4.781 -0.2949 -0.4067 -0.5406
  243MOL0     C32709   5.006   2.271   4.811 -0.7013  0.6765 -0.6455
  243MOL0     C32710   4.863   2.248   4.744 -0.1189  0.1355  0.0202
  243MOL0     C32711   4.775   2.367   4.757 -0.3492 -0.1460 -0.1469
  243MOL0     C32712   4.760   2.430   4.900 -0.2871  0.2699 -0.0192
  243MOL0     C32713   4.664   2.538   4.893  0.3157 -0.2946  0.8473
  243MOL0     C32714   4.698   2.626   5.009 -0.3130 -0.6075  1.1691
  243MOL0    Cl32715   4.816   2.748   4.959  0.2958 -0.1029 -0.3465
  243MOL0     C32716   5.524   1.979   4.851  0.0273  1.0510  0.5401
  243MOL0     C32717   5.638   1.934   4.913  0.1529 -0.4617  0.4132
  243MOL0     O32718   5.659   1.900   5.304  0.0119  0.1176 -0.4112
  243MOL0     C32719   6.016   1.885   5.234  0.2804  0.0361 -0.5451
  243MOL0     C32720   6.139   1.861   5.290  0.2910 -0.0453  0.1994
  243MOL0     N32721   6.736   1.362   5.445 -0.0654  0.0313 -0.6100
  243MOL0     N32722   6.822   1.316   5.362  0.0813 -0.6464  1.0443
  243MOL0     C32723   7.774   1.179   4.819  0.0651  0.3013 -0.7298
  243MOL0     C32724   7.882   1.095   4.813  0.3360 -0.7281  0.1189
  243MOL0     C32725   8.175   0.752   4.651  0.2210 -0.3810  0.8913
  243MOL0     C32726   8.225   0.664   4.561  0.0270  1.0393  0.0098
  243MOL0     C32727   8.346   0.594   4.577 -0.2679  0.3579 -0.0740
  243MOL0     C32728   8.421   0.612   4.703  0.5180 -1.4267 -0.6654
  243MOL0     O32729   8.535   0.552   4.742  0.0020 -0.2873 -0.3407
  243MOL0     C32730   8.563   0.428   4.675 -0.0132  0.8281  0.2993
  243MOL0     C32731   8.665   0.351   4.755  0.4134 -0.8398 -0.3627
  243MOL0     C32732   8.721   0.236   4.673 -0.6924 -0.0333 -0.4057
  243MOL0     C32733   8.806   0.142   4.761 -0.3847 -1.0231  0.0192
  243MOL0     C32734   8.864   0.046   4.664  0.0582 -0.1754  0.2640
  243MOL0     C32735   8.899  -0.036   4.581  0.3418  0.5971  0.2622
  243MOL0     C32736   8.371   0.706   4.790 -0.2922  0.0793 -0.5810
  243MOL0     C32737   8.247   0.771   4.765 -0.3100  0.4446 -0.3463
  243MOL0     H32738   7.808   0.956   4.506  2.3873  1.5922 -0.6004
  243MOL0     H32739   7.599   1.056   4.561 -3.3244  1.5074  3.8035
  243MOL0     H32740   7.401   1.155   4.687 -0.2303  0.4089  0.5649
  243MOL0     H32741   7.448   1.173   4.854 -6.4963 -0.3238  0.7453
  243MOL0     H32742   7.424   1.422   4.835 -0.4623 -0.6251  1.8229
  243MOL0     H32743   7.323   1.399   4.695 -2.7552  1.7568  2.3184
  243MOL0     H32744   7.183   1.228   4.823 -0.2882  0.6071 -1.8511
  243MOL0     H32745   7.277   1.277   4.972  0.9691  3.3365  1.3010
  243MOL0     H32746   7.232   1.513   4.921  1.3162  0.2516 -2.0259
  243MOL0     H32747   7.126   1.478   4.805  0.1330  2.1068  1.5706
  243MOL0     H32748   7.069   1.362   5.076 -1.6602  1.0527  0.6373
  243MOL0     H32749   6.990   1.497   5.034  2.1520  0.4409  2.2586
  243MOL0     H32750   6.900   1.360   4.823 -0.3246  0.4705 -0.8450
  243MOL0     H32751   6.971   1.219   4.905  1.3607  0.9580  2.9129
  243MOL0     H32752   6.764   1.393   5.030  0.8611  0.0897  3.1057
  243MOL0     H32753   6.742   1.234   4.939  0.8736 -3.1068  1.6387
  243MOL0     H32754   6.932   1.204   5.153 -0.0532 -2.3867  0.0648
  243MOL0     H32755   6.785   1.118   5.124  0.6668 -0.6697 -0.8650
  243MOL0     H32756   6.539   1.251   5.210 -2.3762  1.0616  2.6207
  243MOL0     H32757   6.394   1.355   5.375 -2.4716  3.0269 -0.5902
  243MOL0     H32758   6.470   1.329   5.536  1.8768 -1.6581 -2.0347
  243MOL0     H32759   6.526   1.575   5.532  1.2849 -0.4014 -0.7519
  243MOL0     H32760   6.352   1.547   5.538 -1.0010  0.7862 -1.1693
  243MOL0     H32761   6.360   1.582   5.279 -0.3095 -2.2913  0.7558
  243MOL0     H32762   6.523   1.627   5.298 -0.1521  0.2822 -0.2993
  243MOL0     H32763   6.408   1.848   5.326  0.6495  0.5746  0.8277
  243MOL0     H32764   6.482   1.803   5.463 -0.2485 -1.1909  0.9161
  243MOL0     H32765   6.040   1.763   5.600 -0.2332 -1.1135 -0.4462
  243MOL0     H32766   5.763   1.958   5.552  3.6245  0.7022 -2.8989
  243MOL0     H32767   5.699   1.800   5.516  0.9372 -2.1385 -0.2192
  243MOL0     H32768   5.826   1.809   5.640 -1.9029  0.6184  0.9904
  243MOL0     H32769   5.611   2.123   5.195  0.8095 -3.7109  1.5983
  243MOL0     H32770   5.411   2.213   5.065 -0.8492 -0.0657  1.2081
  243MOL0     H32771   5.212   2.174   4.969 -1.9156 -0.1144  0.4029
  243MOL0     H32772   5.265   2.298   4.855  0.4269  0.0492  4.4497
  243MOL0     H32773   5.141   2.156   4.676  2.0723 -2.3898  0.2319
  243MOL0     H32774   5.074   2.062   4.801 -1.1147 -0.5213 -2.3089
  243MOL0     H32775   5.044   2.368   4.777 -1.5914  0.9509 -0.8864
  243MOL0     H32776   4.984   2.263   4.918 -1.4305  1.3985 -0.7376
  243MOL0     H32777   4.872   2.233   4.636  1.6843 -1.4960  0.3350
  243MOL0     H32778   4.813   2.161   4.787 -1.6872 -0.3498 -2.5541
  243MOL0     H32779   4.679   2.347   4.709 -0.1658  0.2337 -0.6824
  243MOL0     H32780   4.820   2.450   4.702 -1.8183  1.3416  0.7985
  243MOL0     H32781   4.720   2.348   4.960 -0.0838  0.6970  0.7016
  243MOL0     H32782   4.858   2.465   4.932  0.4632 -0.5378 -1.2973
  243MOL0     H32783   4.561   2.505   4.906  0.1846  0.0230  0.6257
  243MOL0     H32784   4.676   2.594   4.800  0.7187 -0.0952  1.0129
  243MOL0     H32785   4.727   2.579   5.104  2.2451 -1.7314 -0.0535
  243MOL0     H32786   4.610   2.688   5.026 -0.2870  0.6127 -2.4296
  243MOL0     H32787   5.502   1.952   4.748  0.9508  1.5577  0.2011
  243MOL0     H32788   5.703   1.853   4.879  0.1395 -0.6389  0.8126
  243MOL0     H32789   6.017   1.925   5.134  3.4853 -0.6804 -0.8889
  243MOL0     H32790   6.228   1.881   5.231  0.5404  4.7193  1.7517
  243MOL0     H32791   7.767   1.250   4.900 -1.5476 -0.4796 -0.1534
  243MOL0     H32792   7.967   1.094   4.879 -0.6170 -1.6443  1.3764
  243MOL0     H32793   8.176   0.637   4.468  0.8922 -0.0603 -0.1539
  243MOL0     H32794   8.375   0.529   4.495 -5.2004 -0.1171 -1.7868
  243MOL0     H32795   8.471   0.370   4.663  0.7897 -0.3770 -0.2511
  243MOL0     H32796   8.607   0.452   4.578 -1.4326  2.5534  0.0276
  243MOL0     H32797   8.608   0.330   4.846 -4.3221 -2.9869 -3.3893
  243MOL0     H32798   8.754   0.410   4.779  1.1487 -1.1434 -2.1735
  243MOL0     H32799   8.770   0.272   4.582 -2.2627  1.4863 -0.7274
  243MOL0     H32800   8.634   0.176   4.646 -0.0303 -2.9607  3.2033
  243MOL0     H32801   8.734   0.091   4.826  0.1093 -0.4237  1.0604
  243MOL0     H32802   8.878   0.202   4.818 -0.6527  1.0381 -1.6625
  243MOL0     H32803   8.948  -0.108   4.519 -1.1499 -0.8500  0.6791
  243MOL0     H32804   8.411   0.730   4.888 -2.2568 -3.2643  1.2168
  243MOL0     H32805   8.203   0.823   4.849 -0.7361 -0.5529  0.0653
  244MOL0     O32806   7.694  10.744   8.290 -0.0457 -0.0436 -0.3073
  244MOL0     C32807   7.703  10.737   8.410 -0.6317  0.1845  0.1641
  244MOL0     O32808   7.797  10.799   8.482  0.0094  0.0873  0.9045
  244MOL0     C32809   7.902  10.879   8.419  0.4774 -0.1619  0.0877
  244MOL0     C32810   7.963  10.840   8.296  0.4382 -0.5801 -0.2864
  244MOL0     C32811   8.075  10.890   8.252 -0.1481  0.5859  0.4754
  244MOL0     C32812   8.125  11.005   8.316 -0.5798  0.0996 -0.0777
  244MOL0     O32813   8.233  11.064   8.265  0.2496  0.1386 -0.4154
  244MOL0     C32814   8.292  11.183   8.330 -0.5884  0.3805 -0.2571
  244MOL0     C32815   8.434  11.201   8.262  0.0029 -0.2620  0.1748
  244MOL0     C32816   8.540  11.100   8.319 -0.0826  0.9273  0.2247
  244MOL0     C32817   8.677  11.111   8.250  0.8151  0.2670 -0.0011
  244MOL0     C32818   8.735  10.972   8.234  0.1831 -0.2153 -0.2689
  244MOL0     C32819   8.863  10.971   8.148  0.6969  0.1278 -1.2476
  244MOL0     C32820   8.938  10.839   8.168  0.6490 -0.6302 -1.0214
  244MOL0     C32821   9.030  10.814   8.053 -0.5544  0.2603  0.1445
  244MOL0     N32822   9.123  10.707   8.086  0.1661 -0.5019  0.2235
  244MOL0     C32823   9.249  10.727   8.140 -0.3873  0.1866  0.6398
  244MOL0     C32824   9.311  10.605   8.120 -0.7641  1.5621  0.2851
  244MOL0     C32825   9.454  10.585   8.167 -0.0480 -0.4678 -0.3551
  244MOL0     C32826   9.487  10.433   8.202 -0.1570 -0.3628 -0.3713
  244MOL0     C32827   9.413  10.364   8.328 -0.2832 -0.5260  0.3732
  244MOL0     C32828   9.380  10.464   8.450 -0.9635  0.7982  0.6659
  244MOL0     O32829   9.267  10.408   8.529 -0.1883  0.1568 -0.1818
  244MOL0     C32830   9.260  10.455   8.656  1.2436 -0.2274 -0.1308
  244MOL0     C32831   9.180  10.393   8.752 -0.6269  0.2918 -0.2298
  244MOL0     C32832   9.169  10.435   8.883  0.2566 -0.0929 -0.2098
  244MOL0     C32833   9.097  10.338   8.973 -0.5428  0.1311 -0.1329
  244MOL0     C32834   9.239  10.549   8.931 -0.2399 -0.0001 -0.0582
  244MOL0     C32835   9.222  10.599   9.071  0.4528  0.5157 -0.0427
  244MOL0     O32836   9.233  10.736   9.087 -0.7017 -0.0290 -0.9352
  244MOL0     C32837   9.232  10.791   9.209  0.3296 -0.8150 -0.8388
  244MOL0     C32838   9.286  10.753   9.335 -0.5924  0.9325 -0.9148
  244MOL0     C32839   9.268  10.822   9.454  0.0811  0.2112 -0.4130
  244MOL0     C32840   9.205  10.945   9.450  0.0639 -0.1086 -0.4122
  244MOL0     O32841   9.212  11.028   9.562 -0.0215 -0.1493  0.4372
  244MOL0     C32842   9.080  11.047   9.624  0.2230  0.6993 -0.6914
  244MOL0     C32843   9.089  11.095   9.764  0.8106  0.0731 -0.5647
  244MOL0     C32844   9.181  11.026   9.862 -0.0115  0.1973  0.8468
  244MOL0     C32845   9.174  10.871   9.865 -0.2167  0.4839 -0.0323
  244MOL0     C32846   9.216  10.824  10.009  0.0874  0.3867  0.6924
  244MOL0     C32847   9.370  10.814  10.040  0.8978  0.5815 -0.0330
  244MOL0     C32848   9.416  10.677   9.983 -0.3898 -0.1148  0.2653
  244MOL0     C32849   9.558  10.652   9.995 -0.8377  0.1957  0.4193
  244MOL0    Cl32850   9.605  10.515   9.894  0.0309 -0.1348 -0.4609
  244MOL0     C32851   9.169  11.001   9.332  0.4389  0.1104  0.2828
  244MOL0     C32852   9.170  10.920   9.217  0.0926  0.0975  0.4408
  244MOL0     O32853   9.197  10.520   9.167  0.2741 -0.4717  0.4490
  244MOL0     C32854   9.314  10.622   8.839  0.0987 -1.3787 -0.3335
  244MOL0     C32855   9.323  10.573   8.706  0.9906  0.0396  0.0593
  244MOL0     N32856   9.205  10.517   8.082  0.3061 -0.3182  1.0811
  244MOL0     N32857   9.096  10.582   8.050 -0.8224  0.3168  0.2480
  244MOL0     C32858   8.069  11.048   8.438  0.9338 -0.0932  0.1618
  244MOL0     C32859   7.962  10.977   8.498 -0.3228 -0.2839 -1.0070
  244MOL0     C32860   7.602  10.659   8.487  0.1868 -0.4878  0.5757
  244MOL0     C32861   7.491  10.601   8.429  0.8080 -0.5369 -0.0963
  244MOL0     C32862   7.398  10.525   8.513  0.0155 -0.3388  0.4774
  244MOL0     C32863   7.406  10.507   8.652 -0.1298  0.3018  0.9620
  244MOL0     O32864   7.320  10.417   8.709  0.1248 -0.4922  0.0606
  244MOL0     C32865   7.270  10.465   8.835  0.2525  0.6384 -1.1901
  244MOL0     C32866   7.144  10.557   8.815  0.1386  0.4884  0.5356
  244MOL0     C32867   7.025  10.486   8.729  1.1080 -0.4906 -0.2216
  244MOL0     C32868   6.911  10.601   8.698 -0.7154 -0.3822 -0.0455
  244MOL0     C32869   6.812  10.558   8.606  0.5272 -0.3273 -0.2918
  244MOL0     C32870   6.719  10.519   8.536  0.1587 -0.4188 -0.0055
  244MOL0     C32871   7.512  10.580   8.711  0.2617 -0.8102  0.0053
  244MOL0     C32872   7.605  10.648   8.629  0.1758  0.3780 -0.1650
  244MOL0     H32873   7.920  10.763   8.233  1.4035 -1.3630 -0.0164
  244MOL0     H32874   8.129  10.852   8.166  3.0431 -0.2474  2.6724
  244MOL0     H32875   8.238  11.275   8.307 -0.0249  2.0323  4.0739
  244MOL0     H32876   8.313  11.166   8.436 -0.7029 -3.0953 -0.6624
  244MOL0     H32877   8.424  11.194   8.153  1.2686  0.2777  0.0126
  244MOL0     H32878   8.471  11.296   8.301 -2.3324 -0.5359  3.4517
  244MOL0     H32879   8.553  11.114   8.427 -0.8084  1.2654  0.2752
  244MOL0     H32880   8.506  10.997   8.300  0.3118  0.9737 -0.7756
  244MOL0     H32881   8.677  11.157   8.150  1.0637  0.0612 -0.0978
  244MOL0     H32882   8.743  11.168   8.316  3.2383 -1.5709 -0.6789
  244MOL0     H32883   8.747  10.924   8.331 -1.5823 -0.2098 -0.0204
  244MOL0     H32884   8.660  10.909   8.185 -0.4943 -0.9966  1.6943
  244MOL0     H32885   8.842  10.996   8.044 -1.1125  3.5717 -0.1955
  244MOL0     H32886   8.929  11.052   8.179  2.9412 -1.6490 -1.1074
  244MOL0     H32887   9.002  10.843   8.257  1.9052 -2.3099 -1.7878
  244MOL0     H32888   8.853  10.772   8.182  0.9512 -1.3268 -2.3625
  244MOL0     H32889   9.087  10.900   8.017  0.6781  0.2178  1.8501
  244MOL0     H32890   8.970  10.787   7.966 -0.3839  0.6206 -0.0878
  244MOL0     H32891   9.305  10.804   8.191  2.4633 -0.2784 -1.5193
  244MOL0     H32892   9.524  10.627   8.095 -0.7070  1.5757  0.1207
  244MOL0     H32893   9.470  10.646   8.257 -0.4162 -0.1096 -0.5302
  244MOL0     H32894   9.595  10.436   8.220 -0.3308  0.9157  0.5645
  244MOL0     H32895   9.481  10.370   8.113  1.1856 -0.5951 -0.3184
  244MOL0     H32896   9.482  10.287   8.364  3.3740  1.1437 -2.4322
  244MOL0     H32897   9.318  10.327   8.288 -1.6527  3.0816 -0.0792
  244MOL0     H32898   9.352  10.565   8.419  1.1345  1.1102 -0.4448
  244MOL0     H32899   9.474  10.484   8.504 -1.2357  1.6171  0.8560
  244MOL0     H32900   9.132  10.303   8.715  0.0923 -0.5481  0.8047
  244MOL0     H32901   9.148  10.312   9.066 -0.5231 -0.9853 -0.4410
  244MOL0     H32902   9.009  10.388   9.013  1.4570  3.1265  0.8895
  244MOL0     H32903   9.065  10.249   8.918 -0.9167 -0.1384  0.5025
  244MOL0     H32904   9.344  10.662   9.347 -1.1462  0.7269  0.4245
  244MOL0     H32905   9.316  10.781   9.543  2.0916  0.4008 -1.3501
  244MOL0     H32906   9.021  11.123   9.572 -3.4712 -0.6105  1.2004
  244MOL0     H32907   9.035  10.947   9.620  0.0232  0.6446  1.4393
  244MOL0     H32908   9.125  11.199   9.763  1.5393 -0.1687  0.1047
  244MOL0     H32909   8.988  11.099   9.806  1.0609 -1.4414  0.2273
  244MOL0     H32910   9.158  11.063   9.962 -1.1211  2.6733 -0.2437
  244MOL0     H32911   9.286  11.051   9.841  0.4018 -2.9070 -1.6245
  244MOL0     H32912   9.069  10.848   9.844 -0.1223 -1.6629  1.5232
  244MOL0     H32913   9.230  10.819   9.787  1.7128 -2.1698  2.8479
  244MOL0     H32914   9.182  10.720  10.022  2.1683 -0.1380  2.5857
  244MOL0     H32915   9.161  10.879  10.087 -3.6376 -0.2617 -1.2171
  244MOL0     H32916   9.413  10.908  10.004 -2.8102  2.3240 -0.3802
  244MOL0     H32917   9.375  10.808  10.149  0.5629 -1.3874 -0.0995
  244MOL0     H32918   9.392  10.674   9.877 -1.7946  0.8262  0.5192
  244MOL0     H32919   9.367  10.592  10.030  2.6426 -1.1264  1.8699
  244MOL0     H32920   9.570  10.628  10.101 -0.9759 -1.6961  0.0388
  244MOL0     H32921   9.620  10.732   9.953 -2.1340  0.6068 -0.7890
  244MOL0     H32922   9.141  11.105   9.316 -3.5392 -1.1178 -2.3693
  244MOL0     H32923   9.139  10.959   9.121  1.0172 -1.3164 -0.4775
  244MOL0     H32924   9.379  10.705   8.865 -1.5680  0.4646 -1.7929
  244MOL0     H32925   9.396  10.626   8.645 -0.4668  1.3731 -0.5753
  244MOL0     H32926   8.103  11.141   8.484 -0.1969  1.0389 -1.1864
  244MOL0     H32927   7.919  11.008   8.592 -1.3158 -0.6529 -1.3263
  244MOL0     H32928   7.454  10.605   8.327 -5.5642 -1.1679  1.7438
  244MOL0     H32929   7.308  10.488   8.466 -1.0988  2.1078  0.4939
  244MOL0     H32930   7.242  10.382   8.901  0.3279  0.6393 -1.1563
  244MOL0     H32931   7.343  10.510   8.902 -0.0197 -1.8064  0.8830
  244MOL0     H32932   7.173  10.649   8.763  0.6767 -1.4424 -2.8837
  244MOL0     H32933   7.122  10.586   8.918  1.9079  3.3059  0.2280
  244MOL0     H32934   6.995  10.407   8.798  0.8896 -0.5360 -0.3662
  244MOL0     H32935   7.059  10.441   8.635  3.0863 -1.1619  0.7625
  244MOL0     H32936   6.964  10.695   8.677 -3.7260  2.1410  2.6367
  244MOL0     H32937   6.852  10.623   8.787 -1.1300 -2.4776  0.2583
  244MOL0     H32938   6.635  10.480   8.483 -2.7932  1.2964  3.0481
  244MOL0     H32939   7.550  10.583   8.813  2.1109 -3.5080 -0.5053
  244MOL0     H32940   7.684  10.699   8.682  1.4779 -1.0577 -0.6165
  245MOL0     O32941   8.689   6.739   6.223  0.0041 -0.5203 -0.0594
  245MOL0     C32942   8.753   6.757   6.332  0.8207  0.2441  0.5359
  245MOL0     O32943   8.870   6.826   6.345  0.2890 -0.3509 -0.6909
  245MOL0     C32944   8.936   6.865   6.233  0.3505 -0.2777 -1.0741
  245MOL0     C32945   8.888   6.975   6.176 -0.0773  0.3543 -0.1472
  245MOL0     C32946   8.958   7.042   6.085 -0.3190 -0.0678  0.3605
  245MOL0     C32947   9.082   6.984   6.039 -0.3843 -0.5058 -0.9065
  245MOL0     O32948   9.156   7.053   5.946  0.7346 -0.3993  0.8725
  245MOL0     C32949   9.260   6.975   5.878 -0.5531 -0.0507 -0.7693
  245MOL0     C32950   9.301   7.063   5.757 -1.1516 -0.8650 -0.3948
  245MOL0     C32951   9.403   7.172   5.796 -0.5690 -0.1946  0.4369
  245MOL0     C32952   9.545   7.113   5.827  0.3841  0.3189  0.2703
  245MOL0     C32953   9.617   7.061   5.696  0.2364 -0.4432  0.2766
  245MOL0     C32954   9.764   7.023   5.723 -0.1790  0.4274  0.7427
  245MOL0     C32955   9.836   6.981   5.590 -0.1098  1.2256  0.1371
  245MOL0     C32956   9.858   6.829   5.596  0.1236 -0.1495 -0.4928
  245MOL0     N32957   9.909   6.769   5.476 -0.1172 -1.7508 -0.3109
  245MOL0     C32958  10.009   6.814   5.395  0.6401  1.2033  0.0627
  245MOL0     C32959  10.045   6.694   5.327  0.1219 -0.5247  0.6348
  245MOL0     C32960  10.169   6.688   5.238 -0.7733 -0.2692  0.0706
  245MOL0     C32961  10.161   6.588   5.126  0.4150 -0.2791  0.4091
  245MOL0     C32962  10.248   6.624   5.004  0.8993  0.9867 -0.2252
  245MOL0     C32963  10.390   6.634   5.030 -0.1891 -0.5010  0.1645
  245MOL0     O32964  10.446   6.703   4.922  0.2848 -0.0470 -0.6850
  245MOL0     C32965  10.578   6.723   4.909  0.9121 -0.4149 -0.8002
  245MOL0     C32966  10.667   6.734   5.018  0.3167 -1.2975 -0.1197
  245MOL0     C32967  10.802   6.745   4.988 -1.3769 -0.4676  0.1716
  245MOL0     C32968  10.887   6.757   5.109  0.0760  1.1707 -0.5069
  245MOL0     C32969  10.855   6.735   4.857 -0.3856  0.2128 -0.5256
  245MOL0     C32970  10.998   6.741   4.831  0.6384  0.7943  0.3426
  245MOL0     O32971  11.033   6.663   4.718  0.0569  0.7334  0.8338
  245MOL0     C32972  11.165   6.675   4.669 -0.3719 -0.0960  0.5764
  245MOL0     C32973  11.228   6.791   4.644 -0.9830  0.3665 -0.4628
  245MOL0     C32974  11.375   6.789   4.618  0.2881 -0.1170  0.6921
  245MOL0     C32975  11.435   6.664   4.593 -0.8064  0.0430 -0.1469
  245MOL0     O32976  11.566   6.632   4.548  0.1094 -0.7893  0.0028
  245MOL0     C32977  11.662   6.733   4.528  0.5097 -0.2332 -0.3784
  245MOL0     C32978  11.804   6.673   4.510 -0.4775  0.3421 -0.1631
  245MOL0     C32979  11.831   6.541   4.588 -0.4246 -0.6332  0.3706
  245MOL0     C32980  11.971   6.482   4.554 -0.3321  0.1218 -0.1321
  245MOL0     C32981  12.009   6.356   4.637  0.6390 -0.5069  0.2980
  245MOL0     C32982  11.951   6.232   4.566 -0.2313  0.0824 -0.6087
  245MOL0     C32983  11.950   6.105   4.654  0.7167 -0.0540  0.5456
  245MOL0     C32984  11.837   6.004   4.603  0.4038 -0.1087  0.1061
  245MOL0    Cl32985  11.889   5.838   4.631  0.8708 -0.0121  0.3052
  245MOL0     C32986  11.358   6.550   4.584 -0.9047 -0.3460  0.4166
  245MOL0     C32987  11.222   6.557   4.621 -0.1797 -0.7679  0.4780
  245MOL0     O32988  11.075   6.815   4.890  0.1193 -0.6764  0.1200
  245MOL0     C32989  10.764   6.738   4.753  1.0038  1.2832  0.6324
  245MOL0     C32990  10.623   6.731   4.775 -0.0486  0.1036 -0.2882
  245MOL0     N32991   9.944   6.603   5.345 -0.0468 -0.4820 -1.4239
  245MOL0     N32992   9.865   6.654   5.433 -0.2595 -0.0096 -0.9555
  245MOL0     C32993   9.133   6.866   6.103 -0.2909  0.0379  0.2885
  245MOL0     C32994   9.061   6.807   6.208 -0.7009  0.1896  0.3527
  245MOL0     C32995   8.683   6.716   6.455  0.5807 -0.2880 -0.2689
  245MOL0     C32996   8.547   6.690   6.458 -0.0523  0.5754  0.0653
  245MOL0     C32997   8.477   6.658   6.569 -0.5122 -0.4205 -0.2066
  245MOL0     C32998   8.543   6.636   6.687  0.5483  0.3364 -0.3062
  245MOL0     O32999   8.486   6.579   6.801  0.0782  0.3592  0.1279
  245MOL0     C33000   8.382   6.652   6.867 -0.7243 -0.6803  0.7623
  245MOL0     C33001   8.456   6.758   6.945  0.2854  1.2025 -0.1681
  245MOL0     C33002   8.362   6.845   7.021 -0.0935 -0.0454 -0.5316
  245MOL0     C33003   8.324   6.798   7.166 -0.4286  0.0421  0.0786
  245MOL0     C33004   8.450   6.818   7.244  1.1383  0.0527 -0.1713
  245MOL0     C33005   8.553   6.821   7.311  0.7478  1.1061 -0.3212
  245MOL0     C33006   8.680   6.642   6.677 -0.4778  0.1876 -0.8500
  245MOL0     C33007   8.757   6.685   6.567  0.2766 -0.0903  0.9157
  245MOL0     H33008   8.791   7.014   6.206  0.3262  1.0306  0.3081
  245MOL0     H33009   8.915   7.135   6.050 -1.7175 -0.3207  1.2868
  245MOL0     H33010   9.343   6.948   5.944 -0.8928 -0.6500 -0.5773
  245MOL0     H33011   9.221   6.881   5.838  0.8042 -0.7738 -0.4893
  245MOL0     H33012   9.338   7.001   5.674 -0.1660  0.7338 -1.1976
  245MOL0     H33013   9.219   7.121   5.714 -0.3251  2.5125  2.1665
  245MOL0     H33014   9.406   7.241   5.711 -3.8052 -1.9747 -1.2792
  245MOL0     H33015   9.381   7.226   5.889 -1.2598  0.6623 -0.2011
  245MOL0     H33016   9.617   7.190   5.856  3.0561 -2.2533  1.0066
  245MOL0     H33017   9.554   7.041   5.909  1.7149 -2.6376 -2.2380
  245MOL0     H33018   9.558   6.982   5.649 -0.1590  0.9942 -1.8186
  245MOL0     H33019   9.607   7.144   5.625 -1.5714 -1.3204 -0.5506
  245MOL0     H33020   9.815   7.110   5.766 -2.6045  2.9898 -1.2363
  245MOL0     H33021   9.755   6.934   5.786 -0.5827  0.8230  1.2515
  245MOL0     H33022   9.778   7.008   5.500 -0.9745 -1.5672 -0.2681
  245MOL0     H33023   9.936   7.025   5.585  0.7065  0.1482  4.0862
  245MOL0     H33024   9.762   6.778   5.611  1.0474 -2.7840 -2.6445
  245MOL0     H33025   9.927   6.803   5.677  0.6296 -5.0925 -2.1408
  245MOL0     H33026  10.061   6.908   5.410 -0.8757  1.7926  2.1532
  245MOL0     H33027  10.184   6.787   5.194  0.1726  1.3461  3.6493
  245MOL0     H33028  10.258   6.655   5.293 -0.7287  0.9521  0.7563
  245MOL0     H33029  10.059   6.595   5.086  0.5468 -0.1830  0.0884
  245MOL0     H33030  10.172   6.489   5.171 -3.2423 -2.4559 -2.8706
  245MOL0     H33031  10.211   6.721   4.967 -2.1279 -0.7115 -2.0348
  245MOL0     H33032  10.228   6.554   4.923 -0.1662 -0.0602  0.9134
  245MOL0     H33033  10.425   6.530   5.038 -0.9721 -0.6203  2.8232
  245MOL0     H33034  10.406   6.694   5.120 -3.3780  0.2568  0.3296
  245MOL0     H33035  10.627   6.736   5.118 -1.9382 -0.2822 -0.9958
  245MOL0     H33036  10.953   6.843   5.096  1.3926  0.2086 -0.4088
  245MOL0     H33037  10.838   6.763   5.206  1.7573  1.0916  0.3751
  245MOL0     H33038  10.951   6.669   5.118 -1.6775 -0.0913  0.2002
  245MOL0     H33039  11.172   6.883   4.660 -1.5256 -0.5415  4.3580
  245MOL0     H33040  11.437   6.877   4.606 -1.2741  1.3299  2.5992
  245MOL0     H33041  11.627   6.781   4.437 -2.3933 -0.4593  0.4987
  245MOL0     H33042  11.661   6.809   4.607  0.4850 -0.1683 -0.4418
  245MOL0     H33043  11.823   6.657   4.403  1.0072  1.2154 -0.0539
  245MOL0     H33044  11.877   6.750   4.536  1.3975  0.3676 -4.5172
  245MOL0     H33045  11.753   6.472   4.554 -1.7026  0.5322  0.8792
  245MOL0     H33046  11.816   6.561   4.695 -3.7947 -0.4351 -0.0420
  245MOL0     H33047  11.994   6.471   4.448 -1.4871 -2.1917 -0.2255
  245MOL0     H33048  12.042   6.556   4.592 -0.0301 -0.6568  0.8639
  245MOL0     H33049  11.983   6.368   4.742 -2.5816 -1.8576 -0.2383
  245MOL0     H33050  12.116   6.333   4.627  0.9081  0.3189  1.2063
  245MOL0     H33051  11.849   6.256   4.535 -0.7215 -0.8093  0.2823
  245MOL0     H33052  12.017   6.220   4.479 -1.2142 -2.4047 -1.0956
  245MOL0     H33053  11.951   6.136   4.759  0.5860  2.8846 -0.2320
  245MOL0     H33054  12.044   6.053   4.633 -0.5820 -2.1860 -0.2820
  245MOL0     H33055  11.816   6.023   4.498  1.4679  3.3600  0.4135
  245MOL0     H33056  11.747   6.034   4.658 -0.0442 -1.3346  0.0830
  245MOL0     H33057  11.406   6.464   4.539  1.6692 -0.3041  2.7647
  245MOL0     H33058  11.161   6.469   4.607  0.8673 -1.5129  0.5230
  245MOL0     H33059  10.797   6.748   4.650 -0.5173 -1.0750 -0.1590
  245MOL0     H33060  10.556   6.734   4.690 -1.0261  0.9530  0.4817
  245MOL0     H33061   9.225   6.812   6.083 -0.8497 -1.8422  2.4430
  245MOL0     H33062   9.107   6.733   6.272  1.5163  1.0013 -0.2284
  245MOL0     H33063   8.502   6.714   6.363  1.0948 -2.2611 -1.3274
  245MOL0     H33064   8.370   6.645   6.554 -0.1055 -1.1569 -3.0439
  245MOL0     H33065   8.306   6.691   6.799  0.0394 -0.0991  0.2196
  245MOL0     H33066   8.335   6.583   6.937 -0.6313  0.9121  2.4517
  245MOL0     H33067   8.515   6.825   6.882  3.7614 -0.1355  1.3897
  245MOL0     H33068   8.518   6.705   7.018  1.3973  0.3121 -1.6937
  245MOL0     H33069   8.262   6.854   6.977 -0.6935  1.1900  0.9630
  245MOL0     H33070   8.401   6.946   7.034  0.8237 -0.4959  0.3537
  245MOL0     H33071   8.303   6.691   7.161  0.4260 -0.1456  0.3170
  245MOL0     H33072   8.240   6.844   7.218 -0.5718 -1.2148  0.9841
  245MOL0     H33073   8.644   6.837   7.367  1.4051 -2.2017 -0.2605
  245MOL0     H33074   8.739   6.605   6.760  0.7265  3.6485  0.0113
  245MOL0     H33075   8.864   6.705   6.568 -0.0621  1.9845  0.4595
  246MOL0     O33076   1.872   5.507   9.815 -0.0093  0.0244 -0.5126
  246MOL0     C33077   1.967   5.584   9.801 -0.5700 -0.6352  0.8247
  246MOL0     O33078   2.007   5.646   9.692 -0.0116 -0.0759  0.7542
  246MOL0     C33079   1.924   5.651   9.583 -0.6286 -0.0774  0.0944
  246MOL0     C33080   1.917   5.761   9.505  1.0966 -0.7550  0.2223
  246MOL0     C33081   1.847   5.772   9.387  0.2469 -0.0381 -0.3691
  246MOL0     C33082   1.798   5.659   9.330 -0.9842  1.0813 -0.1398
  246MOL0     O33083   1.743   5.682   9.204  0.2939  0.4355  0.1822
  246MOL0     C33084   1.629   5.608   9.177  0.5357  0.5476  0.3509
  246MOL0     C33085   1.608   5.583   9.024  0.0435 -0.7334 -0.3228
  246MOL0     C33086   1.537   5.698   8.962 -0.3234 -0.6381  0.4238
  246MOL0     C33087   1.526   5.682   8.809 -0.1951 -0.1349 -0.1461
  246MOL0     C33088   1.451   5.802   8.757 -0.2894 -0.8383 -0.1022
  246MOL0     C33089   1.410   5.799   8.613 -0.1044 -0.9481 -0.8038
  246MOL0     C33090   1.338   5.938   8.578 -0.8586  0.4987 -0.3182
  246MOL0     C33091   1.272   5.929   8.442 -0.2609 -0.7305  0.7268
  246MOL0     N33092   1.370   5.923   8.335 -0.3496  0.5161 -0.4730
  246MOL0     C33093   1.380   5.813   8.246  0.1230 -0.1071 -0.0307
  246MOL0     C33094   1.494   5.848   8.168  0.2103  0.1652  0.6722
  246MOL0     C33095   1.575   5.769   8.077  0.1634  0.3050  0.4781
  246MOL0     C33096   1.611   5.636   8.154  0.1158 -0.5871 -0.5711
  246MOL0     C33097   1.724   5.558   8.074 -1.1590 -0.1167  0.4173
  246MOL0     C33098   1.808   5.474   8.160  0.4016  0.5635 -0.5011
  246MOL0     O33099   1.725   5.375   8.222  0.1521 -0.3558 -0.0121
  246MOL0     C33100   1.726   5.375   8.363 -0.3231 -0.5743  0.6235
  246MOL0     C33101   1.619   5.355   8.449  0.2000  0.5431  0.4442
  246MOL0     C33102   1.624   5.324   8.579  0.1595 -0.0877  0.3861
  246MOL0     C33103   1.494   5.299   8.657 -0.9865  0.4337 -0.1347
  246MOL0     C33104   1.749   5.333   8.646  0.4261 -0.1733  1.4173
  246MOL0     C33105   1.768   5.309   8.792 -1.2990  0.0054  0.3018
  246MOL0     O33106   1.722   5.187   8.852  0.0803  0.3721 -0.8499
  246MOL0     C33107   1.759   5.158   8.982  0.1214  0.7184  0.4131
  246MOL0     C33108   1.884   5.190   9.039  0.2693  0.0179 -0.1345
  246MOL0     C33109   1.900   5.151   9.176 -0.2103  0.4085  0.2470
  246MOL0     C33110   1.796   5.074   9.240 -0.3061  0.2360 -0.2254
  246MOL0     O33111   1.792   5.041   9.373 -0.6105 -0.6416 -0.1948
  246MOL0     C33112   1.877   5.103   9.472 -0.4881 -0.2502 -0.0294
  246MOL0     C33113   1.806   5.082   9.604 -0.1431  0.2895 -0.1889
  246MOL0     C33114   1.885   5.141   9.720 -1.2091 -1.0747 -1.2002
  246MOL0     C33115   1.793   5.163   9.842 -0.9984  0.6194  0.2784
  246MOL0     C33116   1.877   5.194   9.975  0.6080 -0.2320  1.2984
  246MOL0     C33117   1.788   5.263  10.078 -0.0286  0.9834 -0.4641
  246MOL0     C33118   1.858   5.278  10.209  0.0004  0.9596 -0.6324
  246MOL0     C33119   1.764   5.319  10.325  0.6967  0.7964  0.7336
  246MOL0    Cl33120   1.693   5.472  10.319  0.0374  0.3569 -0.0273
  246MOL0     C33121   1.672   5.035   9.174 -0.5882  0.0551  0.0818
  246MOL0     C33122   1.662   5.080   9.044 -0.1184 -0.6186 -0.3570
  246MOL0     O33123   1.811   5.405   8.850 -0.2442 -0.1256 -0.0345
  246MOL0     C33124   1.866   5.345   8.564 -0.6343  0.3233 -0.1025
  246MOL0     C33125   1.852   5.371   8.423 -2.0595  0.3150 -0.0574
  246MOL0     N33126   1.529   5.981   8.191  0.0219 -0.2788 -0.2259
  246MOL0     N33127   1.449   6.030   8.291  0.8806  0.4235  0.7543
  246MOL0     C33128   1.826   5.536   9.392  0.7294 -0.2862 -0.4500
  246MOL0     C33129   1.893   5.535   9.514 -0.0522 -0.0382 -0.3002
  246MOL0     C33130   2.046   5.635   9.913  0.2493 -0.3371  0.0462
  246MOL0     C33131   2.000   5.614  10.046 -0.5318  0.4233  0.7255
  246MOL0     C33132   2.066   5.683  10.155 -0.2988 -0.8407 -0.3247
  246MOL0     C33133   2.181   5.760  10.139  0.5464 -0.3290 -0.0002
  246MOL0     O33134   2.223   5.831  10.250 -0.0576  0.3388  0.1508
  246MOL0     C33135   2.362   5.814  10.283  0.1977 -0.1138 -0.2692
  246MOL0     C33136   2.385   5.797  10.434  0.5993  0.6226  0.5144
  246MOL0     C33137   2.384   5.932  10.509 -0.4108  0.3778 -0.7539
  246MOL0     C33138   2.366   5.918  10.670 -0.2496  0.1140  0.0052
  246MOL0     C33139   2.325   6.043  10.724  0.4789 -0.0394  0.4091
  246MOL0     C33140   2.292   6.157  10.760  0.8675 -0.2191 -0.5447
  246MOL0     C33141   2.240   5.761  10.009  0.4732  0.0953 -0.6136
  246MOL0     C33142   2.170   5.703   9.897 -0.8642  1.1617  0.5714
  246MOL0     H33143   1.948   5.859   9.542 -2.1641  0.9487 -1.1285
  246MOL0     H33144   1.823   5.868   9.344  1.0256 -0.5104 -1.9402
  246MOL0     H33145   1.616   5.514   9.231  0.7015  1.8576  2.7809
  246MOL0     H33146   1.549   5.674   9.212  1.6989  1.5246  1.2447
  246MOL0     H33147   1.702   5.565   8.971 -0.1995 -0.7633 -0.7387
  246MOL0     H33148   1.554   5.488   9.013  0.0569 -0.9424  1.1107
  246MOL0     H33149   1.435   5.694   9.001 -0.2523 -1.3160  0.5551
  246MOL0     H33150   1.574   5.796   8.995  0.0978 -1.1393  1.4840
  246MOL0     H33151   1.627   5.672   8.769 -0.2682  3.6887 -1.7358
  246MOL0     H33152   1.469   5.596   8.773 -2.1163  0.8807  0.3667
  246MOL0     H33153   1.365   5.822   8.822  1.0397  0.0398  1.4595
  246MOL0     H33154   1.528   5.878   8.771 -0.1720 -1.3646  2.8001
  246MOL0     H33155   1.496   5.781   8.549  0.7884 -0.0769  0.1028
  246MOL0     H33156   1.335   5.719   8.606  1.4134 -2.6025  0.7730
  246MOL0     H33157   1.264   5.962   8.654 -2.4975 -1.6783 -1.0958
  246MOL0     H33158   1.404   6.025   8.573 -0.7310  0.4915  1.0297
  246MOL0     H33159   1.199   6.009   8.427  1.2133  0.4690 -0.2992
  246MOL0     H33160   1.217   5.835   8.430 -0.7836 -0.2220 -1.0242
  246MOL0     H33161   1.313   5.729   8.227 -0.9876  0.4484  1.2856
  246MOL0     H33162   1.522   5.736   7.987  2.2609 -0.5028 -0.5299
  246MOL0     H33163   1.667   5.818   8.044  1.6902 -2.3742  0.4772
  246MOL0     H33164   1.516   5.584   8.163 -0.8835  1.1513 -0.5985
  246MOL0     H33165   1.650   5.666   8.252  1.6565  2.8787 -2.0601
  246MOL0     H33166   1.790   5.624   8.017 -1.0412 -0.7658 -0.2179
  246MOL0     H33167   1.681   5.487   8.001  0.5888 -1.2950  0.4630
  246MOL0     H33168   1.867   5.532   8.231  0.8781 -3.1842  2.4863
  246MOL0     H33169   1.877   5.416   8.097  0.7363  0.1624  0.2120
  246MOL0     H33170   1.520   5.345   8.406 -0.0686 -0.6455  1.2829
  246MOL0     H33171   1.427   5.227   8.609 -0.4370 -0.3152  0.1922
  246MOL0     H33172   1.511   5.265   8.760 -1.3889  1.5724  0.3267
  246MOL0     H33173   1.437   5.388   8.683 -1.7051 -0.4759  1.6191
  246MOL0     H33174   1.952   5.250   8.980 -0.0840 -0.5132 -1.1073
  246MOL0     H33175   1.988   5.193   9.224  1.6974 -0.5070 -2.2292
  246MOL0     H33176   1.974   5.054   9.481 -0.5989 -0.4924 -0.1449
  246MOL0     H33177   1.896   5.210   9.457 -2.2223  0.2357  0.9818
  246MOL0     H33178   1.710   5.133   9.595  0.1852  1.3420  1.6452
  246MOL0     H33179   1.779   4.977   9.620 -2.0225  0.6187 -0.9524
  246MOL0     H33180   1.930   5.237   9.697 -0.2603 -0.7257  1.7174
  246MOL0     H33181   1.968   5.072   9.737  1.9750  2.9806  1.6571
  246MOL0     H33182   1.736   5.254   9.821 -1.6915  0.2507  0.5244
  246MOL0     H33183   1.724   5.082   9.869 -0.8231  0.9744  1.8692
  246MOL0     H33184   1.961   5.259   9.949  1.3545 -1.8927 -0.8492
  246MOL0     H33185   1.928   5.104  10.010  2.7677  0.2543 -0.3630
  246MOL0     H33186   1.741   5.352  10.034 -1.6193  0.0240 -0.7929
  246MOL0     H33187   1.721   5.177  10.093  2.4070 -1.7347 -3.7827
  246MOL0     H33188   1.931   5.359  10.199 -3.3318  4.2870 -0.2687
  246MOL0     H33189   1.904   5.185  10.244  1.8674  2.0495 -0.0151
  246MOL0     H33190   1.806   5.298  10.424 -0.8866 -0.6605  1.1499
  246MOL0     H33191   1.690   5.238  10.324  0.1499  1.1264  3.8973
  246MOL0     H33192   1.585   4.989   9.221 -2.6092  0.1315 -3.2607
  246MOL0     H33193   1.581   5.042   8.982 -1.6480 -0.2081  1.2939
  246MOL0     H33194   1.967   5.341   8.603 -0.2890  1.6409 -0.8156
  246MOL0     H33195   1.943   5.374   8.364 -1.7488 -0.6155  0.3512
  246MOL0     H33196   1.796   5.448   9.335  1.1427  1.5946 -3.8242
  246MOL0     H33197   1.926   5.450   9.573  0.2550  0.9037  0.9443
  246MOL0     H33198   1.905   5.565  10.061 -0.5632  0.6636  1.3350
  246MOL0     H33199   2.007   5.686  10.246  0.1865  0.2005 -0.0216
  246MOL0     H33200   2.395   5.722  10.234  0.4937  0.1176 -0.5150
  246MOL0     H33201   2.419   5.898  10.240  1.0610  0.0580  1.1604
  246MOL0     H33202   2.480   5.745  10.449 -1.0917 -2.9448 -0.0555
  246MOL0     H33203   2.301   5.739  10.473 -0.1451  1.3816  0.0731
  246MOL0     H33204   2.302   5.997  10.478 -2.1782 -1.5169 -0.2921
  246MOL0     H33205   2.479   5.982  10.489  0.7303 -1.6217 -0.6774
  246MOL0     H33206   2.467   5.884  10.695 -0.6493 -1.0837  0.0348
  246MOL0     H33207   2.295   5.846  10.711  0.9889 -0.0955  1.9037
  246MOL0     H33208   2.292   6.251  10.811  0.5980 -1.0347  1.0076
  246MOL0     H33209   2.321   5.827   9.978  0.3483 -0.7981 -3.0121
  246MOL0     H33210   2.222   5.700   9.801 -1.5794 -4.5245  0.0643
  247MOL0     O33211   7.688   0.507   1.506 -0.0820 -0.0225  0.1416
  247MOL0     C33212   7.566   0.529   1.482 -1.9705  0.0193  0.3408
  247MOL0     O33213   7.476   0.436   1.459  0.4785  0.8775  0.0881
  247MOL0     C33214   7.501   0.304   1.482  0.2488  0.2428 -0.6415
  247MOL0     C33215   7.555   0.267   1.612  0.1571  0.2003  0.4099
  247MOL0     C33216   7.567   0.131   1.641  0.7632 -0.1829 -0.6416
  247MOL0     C33217   7.546   0.029   1.550  0.4402 -0.2729  0.9256
  247MOL0     O33218   7.549  -0.099   1.584  0.4789 -0.3820  0.2203
  247MOL0     C33219   7.588  -0.146   1.712  0.1569 -0.6843  0.4814
  247MOL0     C33220   7.617  -0.292   1.711  0.4951 -1.2230  0.5221
  247MOL0     C33221   7.726  -0.325   1.615 -0.1380  0.1163  0.0735
  247MOL0     C33222   7.790  -0.467   1.643  0.4236 -0.2671  0.0368
  247MOL0     C33223   7.719  -0.591   1.592  0.2030 -0.3013  0.5188
  247MOL0     C33224   7.679  -0.582   1.438  0.1267  0.2912  0.1542
  247MOL0     C33225   7.643  -0.728   1.394 -0.6295  0.1074  0.2260
  247MOL0     C33226   7.645  -0.741   1.241 -0.1465  0.1640  0.4276
  247MOL0     N33227   7.645  -0.887   1.231 -0.2582 -0.2945  0.1807
  247MOL0     C33228   7.743  -0.979   1.245 -0.5787 -0.4594 -0.2792
  247MOL0     C33229   7.690  -1.098   1.216 -0.8660  0.3248 -0.8005
  247MOL0     C33230   7.777  -1.227   1.214  0.3002  0.0222  0.0003
  247MOL0     C33231   7.912  -1.218   1.281 -0.0427 -0.2896 -0.3490
  247MOL0     C33232   8.013  -1.151   1.191  0.3516 -0.2259  1.2821
  247MOL0     C33233   8.137  -1.089   1.252 -0.4973  0.3695  0.3491
  247MOL0     O33234   8.093  -0.984   1.335  0.6279  0.2481  0.2979
  247MOL0     C33235   8.172  -0.872   1.335  0.4864 -0.0804  0.2551
  247MOL0     C33236   8.100  -0.752   1.336 -0.1533  0.3685  0.3052
  247MOL0     C33237   8.159  -0.627   1.326 -0.3736  0.2884 -0.3175
  247MOL0     C33238   8.063  -0.504   1.330 -0.6078  0.1716  0.1428
  247MOL0     C33239   8.303  -0.622   1.315 -0.6629 -0.6293  1.0337
  247MOL0     C33240   8.368  -0.494   1.304  0.3071 -1.3357 -0.2970
  247MOL0     O33241   8.487  -0.480   1.225 -0.1212  0.9493  0.0828
  247MOL0     C33242   8.557  -0.362   1.221 -0.6873  0.7978  0.4829
  247MOL0     C33243   8.700  -0.378   1.217  0.9257 -0.4170  0.6043
  247MOL0     C33244   8.775  -0.266   1.175  0.3169 -1.2851 -0.2624
  247MOL0     C33245   8.716  -0.144   1.147 -0.5223 -0.7078 -0.0694
  247MOL0     O33246   8.805  -0.043   1.119 -0.0838  0.7159 -0.1893
  247MOL0     C33247   8.783   0.034   1.005  1.1349  0.1743  0.3592
  247MOL0     C33248   8.898   0.007   0.903 -1.1138 -0.2493  0.0023
  247MOL0     C33249   9.020   0.064   0.977  0.1016 -0.7656 -1.0876
  247MOL0     C33250   9.153   0.038   0.900  0.3950  0.4037  0.0824
  247MOL0     C33251   9.256   0.150   0.937  0.0911 -0.0027 -0.2064
  247MOL0     C33252   9.375   0.130   0.839  0.0573  0.1355  0.3409
  247MOL0     C33253   9.482   0.231   0.877  0.0366  0.5165 -0.3062
  247MOL0     C33254   9.620   0.215   0.825  0.4626  0.0299  1.3375
  247MOL0    Cl33255   9.605   0.160   0.654  0.0351 -0.3853  0.1170
  247MOL0     C33256   8.578  -0.121   1.172 -0.6251 -0.3297 -0.1352
  247MOL0     C33257   8.501  -0.234   1.206 -0.5235 -0.9314 -0.2364
  247MOL0     O33258   8.338  -0.404   1.386  0.1265 -0.3921 -0.7763
  247MOL0     C33259   8.374  -0.736   1.309  0.8375 -0.0845  0.6379
  247MOL0     C33260   8.312  -0.860   1.321  0.3018 -0.1930 -0.8408
  247MOL0     N33261   7.560  -1.078   1.187 -0.3726 -0.4035  0.9026
  247MOL0     N33262   7.526  -0.954   1.201 -0.4915  0.6708  0.1448
  247MOL0     C33263   7.521   0.071   1.417  0.2060  1.3741 -0.0293
  247MOL0     C33264   7.494   0.203   1.383 -0.3239 -0.4259  0.3449
  247MOL0     C33265   7.537   0.668   1.439  0.6241 -0.6680  0.5923
  247MOL0     C33266   7.634   0.763   1.416 -1.0285  0.4317  1.1805
  247MOL0     C33267   7.599   0.897   1.397 -0.3546  0.3552  0.5768
  247MOL0     C33268   7.465   0.940   1.405  0.1690  0.1555  0.0738
  247MOL0     O33269   7.420   1.066   1.405  0.0273 -0.0052 -1.2841
  247MOL0     C33270   7.507   1.170   1.363  0.0408 -0.2973  0.3674
  247MOL0     C33271   7.562   1.161   1.220 -0.5446 -0.2844 -0.3387
  247MOL0     C33272   7.660   1.278   1.202  0.2882 -0.0009  1.2242
  247MOL0     C33273   7.721   1.281   1.059  0.0021 -0.1217 -0.6997
  247MOL0     C33274   7.811   1.168   1.031 -0.3076 -0.5616  0.8643
  247MOL0     C33275   7.887   1.073   1.029 -0.0106 -0.1754  0.9559
  247MOL0     C33276   7.375   0.841   1.439 -0.5265  0.0539 -0.2393
  247MOL0     C33277   7.402   0.706   1.449 -1.0639  0.6924  0.3137
  247MOL0     H33278   7.574   0.350   1.680  1.4997  0.4089 -0.1932
  247MOL0     H33279   7.601   0.117   1.743 -0.1328  4.9394  0.6244
  247MOL0     H33280   7.668  -0.085   1.754 -1.3976  1.9989 -0.2080
  247MOL0     H33281   7.514  -0.135   1.791 -1.9403  1.9367 -1.6399
  247MOL0     H33282   7.650  -0.325   1.810 -0.8231 -1.6606  0.8334
  247MOL0     H33283   7.520  -0.337   1.691 -1.3421  1.3624  2.8605
  247MOL0     H33284   7.691  -0.310   1.513 -3.5089 -1.7821  0.7767
  247MOL0     H33285   7.810  -0.261   1.641  0.4134 -1.2972  2.0431
  247MOL0     H33286   7.892  -0.454   1.604  0.2744  2.4201  0.3090
  247MOL0     H33287   7.802  -0.476   1.751 -3.7463  0.6627  0.7348
  247MOL0     H33288   7.785  -0.677   1.604  3.3137  1.6095 -1.5168
  247MOL0     H33289   7.634  -0.605   1.659  0.0859  2.4664  1.0810
  247MOL0     H33290   7.593  -0.514   1.434  0.5664  0.7889 -1.0518
  247MOL0     H33291   7.754  -0.545   1.368 -0.5482 -2.1918 -2.0156
  247MOL0     H33292   7.723  -0.789   1.438  0.9331  2.5903  1.0709
  247MOL0     H33293   7.548  -0.758   1.439  0.2209 -0.1833  1.9081
  247MOL0     H33294   7.733  -0.703   1.189  0.6277  0.4774  1.9024
  247MOL0     H33295   7.559  -0.703   1.185 -2.0346 -1.0750  2.3126
  247MOL0     H33296   7.842  -0.959   1.283 -1.3947  0.3449  1.5295
  247MOL0     H33297   7.723  -1.307   1.265  2.6247 -0.9303  1.1269
  247MOL0     H33298   7.784  -1.261   1.111 -0.3771  1.3407 -0.5041
  247MOL0     H33299   7.952  -1.319   1.296  0.6192 -0.4076 -2.5552
  247MOL0     H33300   7.896  -1.166   1.376 -3.7500 -3.1059  0.8040
  247MOL0     H33301   7.969  -1.075   1.125  0.4932 -0.3603  1.0305
  247MOL0     H33302   8.055  -1.219   1.116 -0.4298  2.1796 -1.5650
  247MOL0     H33303   8.192  -1.051   1.165  0.8413 -1.3191  0.4026
  247MOL0     H33304   8.204  -1.160   1.300 -0.7929  0.7563  1.3538
  247MOL0     H33305   7.993  -0.766   1.345  0.3254 -2.2839  4.5144
  247MOL0     H33306   8.070  -0.443   1.421 -2.6892  2.8302 -1.3208
  247MOL0     H33307   8.099  -0.440   1.249 -1.9464  2.2868  1.1323
  247MOL0     H33308   7.958  -0.518   1.305 -0.9809  3.1379 -0.2945
  247MOL0     H33309   8.760  -0.463   1.248  1.2504 -0.5082 -0.2531
  247MOL0     H33310   8.883  -0.283   1.170  0.2744 -1.4721 -0.5661
  247MOL0     H33311   8.691   0.004   0.954 -0.3735 -0.2109  3.0685
  247MOL0     H33312   8.776   0.138   1.037 -1.6578 -0.1180  1.0174
  247MOL0     H33313   8.892  -0.102   0.890 -2.6588 -0.3068  0.9602
  247MOL0     H33314   8.884   0.060   0.809  1.6120  0.3768 -0.1290
  247MOL0     H33315   9.037   0.019   1.076  3.3885 -4.3039 -3.0042
  247MOL0     H33316   9.006   0.172   0.985  2.7811 -0.4422  0.4735
  247MOL0     H33317   9.184  -0.059   0.940 -0.7301  1.1137  2.8728
  247MOL0     H33318   9.124   0.057   0.796  0.1792  4.8662  0.7764
  247MOL0     H33319   9.296   0.129   1.037  1.1637  1.9282 -0.1864
  247MOL0     H33320   9.214   0.251   0.939  0.4505  0.1639 -0.7980
  247MOL0     H33321   9.415   0.029   0.850  0.4503  0.3584  0.9988
  247MOL0     H33322   9.355   0.152   0.734  3.9069  0.4519 -0.4611
  247MOL0     H33323   9.499   0.241   0.985 -1.0391 -0.5203 -0.0287
  247MOL0     H33324   9.438   0.327   0.848 -1.0367  0.4773  1.0723
  247MOL0     H33325   9.683   0.143   0.879  2.7858  0.4040 -0.6595
  247MOL0     H33326   9.671   0.312   0.822  2.3818 -0.9286  0.8398
  247MOL0     H33327   8.549  -0.017   1.156  0.1580 -0.2160 -0.8875
  247MOL0     H33328   8.394  -0.214   1.207 -0.7361 -1.9636 -0.8059
  247MOL0     H33329   8.481  -0.737   1.293  0.7512  0.5400  0.0246
  247MOL0     H33330   8.380  -0.945   1.324  3.0198  1.8465  0.6790
  247MOL0     H33331   7.510  -0.005   1.340 -0.5319 -0.0577  1.4213
  247MOL0     H33332   7.485   0.226   1.277 -1.1274 -0.2341  0.4493
  247MOL0     H33333   7.737   0.728   1.421 -0.7174  1.4243  1.9628
  247MOL0     H33334   7.686   0.962   1.399 -0.8448  1.0756 -0.5557
  247MOL0     H33335   7.441   1.258   1.370 -0.5945 -0.9003  3.2369
  247MOL0     H33336   7.583   1.186   1.440 -0.2683  2.1458  0.2632
  247MOL0     H33337   7.479   1.175   1.149  0.2857  2.2346 -0.9094
  247MOL0     H33338   7.606   1.063   1.196 -1.5589 -0.7044 -0.5371
  247MOL0     H33339   7.733   1.282   1.283  0.4310 -0.0275  1.0981
  247MOL0     H33340   7.623   1.380   1.217  2.8621  0.7999  2.7054
  247MOL0     H33341   7.778   1.373   1.043  2.3085 -1.4155 -0.3411
  247MOL0     H33342   7.634   1.280   0.993 -0.4154 -0.2413 -0.1569
  247MOL0     H33343   7.964   1.002   1.005  0.3125  1.0721 -2.1380
  247MOL0     H33344   7.271   0.867   1.453  0.0528  1.6697  1.4027
  247MOL0     H33345   7.324   0.634   1.473 -1.7603  1.3342  0.0258
  248MOL0     O33346  10.600   5.883   9.035 -0.2638  0.4030  0.4737
  248MOL0     C33347  10.569   5.784   9.099 -0.0326  0.6591  0.3850
  248MOL0     O33348  10.461   5.772   9.188  0.0873  0.2853  0.1596
  248MOL0     C33349  10.413   5.879   9.256 -0.4506 -0.2192 -0.6300
  248MOL0     C33350  10.478   6.005   9.274 -0.4374  1.2190 -0.2752
  248MOL0     C33351  10.411   6.107   9.334  0.5461  0.8067  0.1928
  248MOL0     C33352  10.274   6.092   9.375 -1.1252 -0.4557  0.3010
  248MOL0     O33353  10.220   6.207   9.434 -0.2208 -0.0070  0.0756
  248MOL0     C33354  10.076   6.216   9.456 -0.0855  0.9650  0.8146
  248MOL0     C33355  10.042   6.354   9.494 -0.0219 -0.4823 -0.9514
  248MOL0     C33356  10.112   6.458   9.406 -0.1822  0.8634  0.2312
  248MOL0     C33357  10.089   6.604   9.442 -0.0323 -0.2193  0.0052
  248MOL0     C33358   9.943   6.643   9.400  0.6344 -0.1908  0.8192
  248MOL0     C33359   9.943   6.692   9.257  0.9419 -0.1598  0.2985
  248MOL0     C33360   9.796   6.719   9.227 -0.3210 -0.1209  0.5715
  248MOL0     C33361   9.775   6.782   9.087  0.0531 -0.8826  0.2655
  248MOL0     N33362   9.641   6.798   9.028 -0.4081 -0.9365  0.0562
  248MOL0     C33363   9.565   6.685   9.024  0.2146 -0.8441  0.8503
  248MOL0     C33364   9.448   6.726   8.961  0.2032 -0.0685 -0.1633
  248MOL0     C33365   9.342   6.637   8.923  0.2881  0.1080  0.1008
  248MOL0     C33366   9.399   6.541   8.809  0.5873  0.4238  0.4214
  248MOL0     C33367   9.327   6.405   8.808 -0.5426  0.1660 -0.2519
  248MOL0     C33368   9.176   6.397   8.808 -0.6375  0.4177  1.1771
  248MOL0     O33369   9.133   6.266   8.797  0.1517  0.1622 -0.4372
  248MOL0     C33370   9.042   6.217   8.881  0.6240 -0.5479 -0.5145
  248MOL0     C33371   8.916   6.274   8.899 -0.0183 -0.0056 -0.6058
  248MOL0     C33372   8.819   6.217   8.984  0.0674  0.3858  0.2943
  248MOL0     C33373   8.674   6.276   8.975 -0.0466 -0.0807 -0.6705
  248MOL0     C33374   8.851   6.091   9.050 -0.2419 -0.5287  0.2556
  248MOL0     C33375   8.761   6.034   9.142  0.7958  0.5823 -0.8018
  248MOL0     O33376   8.797   5.905   9.181  0.7821 -0.5779  0.3783
  248MOL0     C33377   8.734   5.852   9.282 -0.3474 -0.1269 -0.4743
  248MOL0     C33378   8.689   5.916   9.402  1.2159 -0.2256  0.6043
  248MOL0     C33379   8.611   5.841   9.498  0.3119 -0.5876  0.0161
  248MOL0     C33380   8.594   5.707   9.488 -0.0927 -0.4177 -0.0714
  248MOL0     O33381   8.534   5.622   9.578 -0.0389  0.5374 -0.3161
  248MOL0     C33382   8.491   5.651   9.708 -0.3806 -0.6759 -0.1934
  248MOL0     C33383   8.369   5.739   9.735 -0.3532  0.1599  0.1894
  248MOL0     C33384   8.249   5.681   9.664 -0.4803  0.4758  0.6688
  248MOL0     C33385   8.118   5.740   9.725  0.6065 -0.7333 -0.0069
  248MOL0     C33386   8.000   5.723   9.630 -0.0075  0.1478  0.0042
  248MOL0     C33387   7.868   5.763   9.704 -0.6974  0.1575  0.4178
  248MOL0     C33388   7.760   5.707   9.614  0.6632 -0.0832 -0.2352
  248MOL0     C33389   7.622   5.698   9.676 -0.9499 -0.4248  0.4352
  248MOL0    Cl33390   7.521   5.630   9.554  0.2041  0.1605  0.2672
  248MOL0     C33391   8.661   5.647   9.385  0.0289  0.5260 -0.1119
  248MOL0     C33392   8.734   5.716   9.288 -0.0317  0.0613  0.8478
  248MOL0     O33393   8.674   6.107   9.189 -0.1229 -0.0001 -0.0283
  248MOL0     C33394   8.980   6.028   9.032 -0.4977  0.1516  0.1734
  248MOL0     C33395   9.066   6.093   8.939 -0.5084  0.2586  0.2260
  248MOL0     N33396   9.457   6.854   8.918  0.6984  0.0580 -0.6876
  248MOL0     N33397   9.574   6.900   8.964  0.0205 -0.4033 -0.1602
  248MOL0     C33398  10.222   5.966   9.380  0.5314  1.0075  0.6459
  248MOL0     C33399  10.290   5.860   9.322 -0.7630  0.7589  0.8710
  248MOL0     C33400  10.641   5.660   9.078 -0.7049  0.1352  0.0803
  248MOL0     C33401  10.721   5.635   8.965 -0.0793 -0.0238 -0.3490
  248MOL0     C33402  10.785   5.510   8.952  1.0446 -0.6035 -0.5031
  248MOL0     C33403  10.762   5.407   9.035  0.9620  0.5033 -0.0969
  248MOL0     O33404  10.831   5.293   9.035 -0.5099  0.8196  0.6324
  248MOL0     C33405  10.781   5.218   8.923 -0.0185 -1.1025  0.2830
  248MOL0     C33406  10.872   5.097   8.903  0.2113  0.4541  0.4035
  248MOL0     C33407  11.023   5.125   8.899  0.0943  0.1480 -0.0782
  248MOL0     C33408  11.060   5.251   8.821 -0.1162  0.4604 -0.6949
  248MOL0     C33409  11.201   5.277   8.843  0.1445  0.0887 -0.6654
  248MOL0     C33410  11.314   5.309   8.877  0.3583 -0.1131 -0.5018
  248MOL0     C33411  10.675   5.427   9.141  0.0297 -1.0813  0.4415
  248MOL0     C33412  10.616   5.552   9.160  0.6237 -0.4659  0.4578
  248MOL0     H33413  10.580   6.014   9.240 -0.2591 -2.3914 -1.1022
  248MOL0     H33414  10.478   6.192   9.343  3.1802 -1.1578  0.2051
  248MOL0     H33415  10.029   6.202   9.358  2.9612  0.2663 -0.6748
  248MOL0     H33416  10.040   6.152   9.537  0.7716 -2.6024 -1.3910
  248MOL0     H33417   9.933   6.361   9.493 -0.0668 -0.7835 -3.1037
  248MOL0     H33418  10.073   6.373   9.597 -1.6373 -0.8861 -0.3495
  248MOL0     H33419  10.220   6.440   9.408  0.2536  3.0211  3.1773
  248MOL0     H33420  10.080   6.449   9.302 -0.7386  2.6657  0.2277
  248MOL0     H33421  10.099   6.613   9.551  2.0723  0.6463 -0.2014
  248MOL0     H33422  10.157   6.681   9.403 -3.7200  2.4555 -1.7076
  248MOL0     H33423   9.861   6.570   9.401 -0.7680  1.1638 -1.6946
  248MOL0     H33424   9.902   6.724   9.460 -1.2524 -0.8768  0.5270
  248MOL0     H33425  10.005   6.782   9.251 -1.7317  1.8485  0.7609
  248MOL0     H33426   9.988   6.629   9.180  1.1892  1.5181 -0.9716
  248MOL0     H33427   9.733   6.630   9.241 -0.7175  0.2729  1.3494
  248MOL0     H33428   9.752   6.783   9.304 -2.1685  2.0138 -2.0351
  248MOL0     H33429   9.831   6.725   9.012  4.1401  2.9873 -0.0583
  248MOL0     H33430   9.829   6.877   9.083  2.5559 -2.2560 -1.2291
  248MOL0     H33431   9.598   6.589   9.062  0.3185 -1.8277 -1.5915
  248MOL0     H33432   9.307   6.585   9.012  0.2857  1.4998  0.9531
  248MOL0     H33433   9.259   6.701   8.890  1.2944  1.2364 -0.2917
  248MOL0     H33434   9.503   6.511   8.824 -0.1160 -1.3729  2.2474
  248MOL0     H33435   9.388   6.595   8.714  1.5590  0.9608  0.6060
  248MOL0     H33436   9.360   6.347   8.895  0.3055  2.2142  0.8683
  248MOL0     H33437   9.361   6.350   8.720  2.2299  3.2577 -1.2969
  248MOL0     H33438   9.155   6.457   8.719  2.1422 -0.1286  0.0267
  248MOL0     H33439   9.137   6.446   8.897  2.1566  0.6270  2.3871
  248MOL0     H33440   8.899   6.367   8.846 -2.9956  0.6442  1.2380
  248MOL0     H33441   8.658   6.328   9.070  1.6739  0.7515 -0.8019
  248MOL0     H33442   8.664   6.354   8.899  1.4737  2.3530  1.4689
  248MOL0     H33443   8.594   6.201   8.968 -0.7670  0.7741 -1.9805
  248MOL0     H33444   8.696   6.022   9.425  3.5973 -0.4592  1.1984
  248MOL0     H33445   8.565   5.888   9.584 -1.0598 -2.4348  0.3467
  248MOL0     H33446   8.485   5.549   9.748  3.1343 -2.3180 -3.1923
  248MOL0     H33447   8.576   5.700   9.758 -2.0219 -0.5872  2.7080
  248MOL0     H33448   8.350   5.727   9.842 -3.3702 -0.5572 -0.3336
  248MOL0     H33449   8.400   5.842   9.717 -2.0996  0.2519 -3.2403
  248MOL0     H33450   8.243   5.572   9.672  1.2587  0.4968  4.9221
  248MOL0     H33451   8.256   5.717   9.561  0.1195 -0.6414  0.3064
  248MOL0     H33452   8.100   5.690   9.821 -0.5523 -0.3919 -0.0319
  248MOL0     H33453   8.138   5.847   9.740 -0.7958 -0.3665 -0.5719
  248MOL0     H33454   7.993   5.617   9.606  1.5005 -0.2309  1.0745
  248MOL0     H33455   8.021   5.789   9.545  6.1958  4.4070  3.9402
  248MOL0     H33456   7.864   5.726   9.807 -1.7484 -1.1908 -0.0771
  248MOL0     H33457   7.857   5.871   9.706  1.4522  0.4993 -1.9433
  248MOL0     H33458   7.778   5.606   9.578 -1.2571 -0.6511  0.3105
  248MOL0     H33459   7.757   5.769   9.523 -1.8152 -1.3715 -1.1232
  248MOL0     H33460   7.593   5.802   9.696 -0.2679 -0.7828  4.0159
  248MOL0     H33461   7.624   5.635   9.765  1.5247 -0.3713  0.4769
  248MOL0     H33462   8.659   5.539   9.390 -0.5118  0.5543  3.8791
  248MOL0     H33463   8.788   5.661   9.212  0.5638  1.3601  0.3147
  248MOL0     H33464   9.007   5.941   9.091 -1.2823 -1.0942 -1.2408
  248MOL0     H33465   9.165   6.049   8.929 -0.3181  0.6975  0.1527
  248MOL0     H33466  10.127   5.948   9.428 -0.3143 -1.6212 -1.7565
  248MOL0     H33467  10.239   5.764   9.323 -0.6418  0.6833  0.0882
  248MOL0     H33468  10.736   5.711   8.890  1.8407  1.7246  1.6620
  248MOL0     H33469  10.845   5.502   8.862 -0.5070 -0.4348 -1.5774
  248MOL0     H33470  10.673   5.197   8.932  0.2082 -1.5006  2.7658
  248MOL0     H33471  10.788   5.281   8.834 -0.6614 -0.7599  0.4675
  248MOL0     H33472  10.843   5.052   8.808  1.5774 -1.5257  0.8518
  248MOL0     H33473  10.852   5.033   8.989  2.2587 -0.0744  0.5381
  248MOL0     H33474  11.080   5.047   8.848  1.0223  1.8501 -1.7601
  248MOL0     H33475  11.057   5.139   9.002 -1.7959  1.4441  0.4200
  248MOL0     H33476  11.016   5.337   8.874 -2.4930  0.1072 -1.9566
  248MOL0     H33477  11.017   5.254   8.720 -2.6623 -1.8484  0.2209
  248MOL0     H33478  11.416   5.337   8.891  0.2533  0.7641 -1.3954
  248MOL0     H33479  10.647   5.346   9.208 -2.2746 -1.2591 -0.6264
  248MOL0     H33480  10.551   5.567   9.246 -0.1150  1.2795 -0.3438
  249MOL0     O33481   9.687   0.511   6.494  0.2483  0.7250 -0.1163
  249MOL0     C33482   9.645   0.462   6.600 -0.1613 -0.9157  1.0361
  249MOL0     O33483   9.730   0.415   6.693 -0.2185  0.2591 -0.1118
  249MOL0     C33484   9.870   0.438   6.691 -0.0669 -0.2661 -0.9421
  249MOL0     C33485   9.949   0.459   6.574  0.3780  0.4258 -0.5252
  249MOL0     C33486  10.079   0.490   6.573 -0.0141  0.8345  1.1335
  249MOL0     C33487  10.150   0.488   6.691  0.3450 -0.2711  0.3960
  249MOL0     O33488  10.279   0.519   6.688  0.1372 -0.8522 -0.3170
  249MOL0     C33489  10.356   0.409   6.738  1.3890  0.1582  0.2819
  249MOL0     C33490  10.500   0.419   6.680  0.3830  0.2666 -0.0959
  249MOL0     C33491  10.515   0.437   6.521  0.7950 -0.4507  0.6457
  249MOL0     C33492  10.653   0.398   6.469 -0.9510  0.4230 -0.1259
  249MOL0     C33493  10.662   0.332   6.334  0.0891  0.9438  0.7872
  249MOL0     C33494  10.633   0.430   6.223  1.3774 -0.0555 -0.0267
  249MOL0     C33495  10.684   0.389   6.078  0.6229  0.2266 -0.2720
  249MOL0     C33496  10.609   0.483   5.975 -0.4551  0.9355  0.5348
  249MOL0     N33497  10.460   0.467   5.969  0.5208  0.3991 -0.2453
  249MOL0     C33498  10.398   0.361   5.906  0.1897 -0.0573  1.1469
  249MOL0     C33499  10.267   0.380   5.924  0.0843  0.4434  0.0947
  249MOL0     C33500  10.154   0.288   5.891 -0.0412  0.5753 -0.4816
  249MOL0     C33501  10.122   0.188   6.006 -0.5122  0.0194 -0.5979
  249MOL0     C33502   9.982   0.137   5.992 -0.5914  0.1838  0.1191
  249MOL0     C33503   9.871   0.230   6.051 -0.1214  0.9416  0.5872
  249MOL0     O33504   9.752   0.148   6.045  0.2039 -0.1400  0.1594
  249MOL0     C33505   9.639   0.208   6.100 -0.2737  0.0112 -0.2991
  249MOL0     C33506   9.529   0.139   6.064 -0.1818  0.1012 -0.4947
  249MOL0     C33507   9.401   0.189   6.104  0.5745  0.1163  0.6139
  249MOL0     C33508   9.284   0.116   6.051 -0.2678  0.9121  0.9195
  249MOL0     C33509   9.397   0.301   6.187 -0.3389 -0.1750 -0.0602
  249MOL0     C33510   9.269   0.365   6.217 -0.0599  1.0294 -0.4387
  249MOL0     O33511   9.271   0.499   6.198  0.5008  0.2443  0.0577
  249MOL0     C33512   9.177   0.585   6.236  0.8400 -0.2014 -0.0661
  249MOL0     C33513   9.059   0.552   6.315 -0.6961 -0.4619 -0.1097
  249MOL0     C33514   8.960   0.650   6.354  0.4217  0.4194 -0.7744
  249MOL0     C33515   8.971   0.779   6.313 -0.3772 -0.4972  0.6778
  249MOL0     O33516   8.884   0.881   6.338 -0.3176 -0.3498  0.4191
  249MOL0     C33517   8.760   0.865   6.404 -0.2422  0.1305  0.0516
  249MOL0     C33518   8.691   0.996   6.406  0.7574 -0.1150 -0.0276
  249MOL0     C33519   8.781   1.123   6.415 -1.2021  0.0278 -0.4660
  249MOL0     C33520   8.686   1.237   6.426 -0.5299  0.3274  0.8675
  249MOL0     C33521   8.776   1.365   6.439  0.3072  0.4691  0.6825
  249MOL0     C33522   8.806   1.402   6.291 -0.3958 -0.4818 -0.2708
  249MOL0     C33523   8.688   1.498   6.258 -1.0022 -0.3031  0.3130
  249MOL0     C33524   8.676   1.513   6.107  0.0886 -0.2335  0.2203
  249MOL0    Cl33525   8.643   1.359   6.022  0.2251 -0.4951 -0.5288
  249MOL0     C33526   9.090   0.813   6.245 -0.3870 -0.3877  0.1808
  249MOL0     C33527   9.195   0.726   6.210 -0.5144  0.1443  0.9373
  249MOL0     O33528   9.172   0.293   6.243  0.0575 -0.2922  0.5070
  249MOL0     C33529   9.511   0.362   6.229 -0.6519 -0.6201  0.0758
  249MOL0     C33530   9.634   0.318   6.187  0.0025 -1.0172 -0.7069
  249MOL0     N33531  10.248   0.500   5.981 -0.1654 -1.2742  1.0784
  249MOL0     N33532  10.365   0.557   6.009 -0.2190  0.0782 -0.3219
  249MOL0     C33533  10.073   0.471   6.811  0.3493  0.3733 -0.6520
  249MOL0     C33534   9.937   0.445   6.813 -0.8979  0.0017  0.2660
  249MOL0     C33535   9.503   0.464   6.637  0.5084 -0.4328 -0.3495
  249MOL0     C33536   9.466   0.388   6.749  0.6793 -0.8216  0.2640
  249MOL0     C33537   9.335   0.399   6.801 -0.1637 -0.2350 -0.0834
  249MOL0     C33538   9.246   0.486   6.739 -0.5860 -0.2028 -0.2497
  249MOL0     O33539   9.123   0.508   6.794 -0.7203  0.1579 -0.3922
  249MOL0     C33540   9.083   0.446   6.917  0.2017 -1.6284 -0.0838
  249MOL0     C33541   8.942   0.497   6.973 -0.2126  0.6199  0.2543
  249MOL0     C33542   8.971   0.615   7.073 -0.9012  0.2098 -0.2906
  249MOL0     C33543   9.015   0.738   6.987  0.5828 -0.6037  0.1221
  249MOL0     C33544   9.016   0.857   7.072 -0.0219  0.1972 -0.9413
  249MOL0     C33545   9.022   0.967   7.132 -0.3048  1.1733 -0.7853
  249MOL0     C33546   9.273   0.551   6.622  0.1875 -0.2214  0.6462
  249MOL0     C33547   9.405   0.544   6.572 -0.3651  0.2390  0.4027
  249MOL0     H33548   9.900   0.448   6.477  1.1143 -4.9079 -0.5969
  249MOL0     H33549  10.124   0.521   6.479  2.6662 -2.4584  1.1372
  249MOL0     H33550  10.352   0.403   6.847 -0.6201 -0.5231  0.2164
  249MOL0     H33551  10.311   0.318   6.697  1.1527  0.7028 -0.6941
  249MOL0     H33552  10.545   0.506   6.729  0.9732 -0.6847  1.1239
  249MOL0     H33553  10.559   0.327   6.689 -0.1641 -0.2683 -1.7817
  249MOL0     H33554  10.436   0.374   6.479  0.7309 -0.4646  0.7861
  249MOL0     H33555  10.502   0.542   6.495  1.5489 -0.0606  1.7436
  249MOL0     H33556  10.718   0.486   6.470 -0.2513 -0.0885  0.6222
  249MOL0     H33557  10.699   0.322   6.533  0.1659  0.6335 -0.6743
  249MOL0     H33558  10.762   0.290   6.325 -1.1491 -1.9764 -0.4197
  249MOL0     H33559  10.591   0.250   6.323  0.6901 -0.0135  3.5220
  249MOL0     H33560  10.528   0.460   6.224  0.7194 -2.1387 -1.1458
  249MOL0     H33561  10.686   0.523   6.246  2.8394 -1.0747  0.8920
  249MOL0     H33562  10.793   0.393   6.078  0.6398 -0.1617 -0.4732
  249MOL0     H33563  10.659   0.284   6.060  1.8390 -0.6312  2.5102
  249MOL0     H33564  10.657   0.475   5.877 -0.2013 -1.4753  0.8112
  249MOL0     H33565  10.641   0.588   5.985 -1.3460  1.5728 -2.3810
  249MOL0     H33566  10.440   0.280   5.847  1.0031  2.4144 -1.9255
  249MOL0     H33567  10.066   0.342   5.855 -2.3072 -2.5526 -0.0134
  249MOL0     H33568  10.183   0.234   5.801  1.7015  2.5644 -1.2095
  249MOL0     H33569  10.127   0.240   6.102  1.2401 -0.0186 -0.6335
  249MOL0     H33570  10.194   0.108   6.025  0.4315  0.2065 -3.0051
  249MOL0     H33571   9.976   0.045   6.051  2.0113 -0.0995  0.0634
  249MOL0     H33572   9.975   0.121   5.885 -2.2947  0.1259  0.2123
  249MOL0     H33573   9.845   0.314   5.986 -2.5145 -0.7362 -0.7880
  249MOL0     H33574   9.896   0.252   6.155 -1.2777 -1.7794  1.5335
  249MOL0     H33575   9.544   0.056   5.997 -0.1982 -1.3962  1.2717
  249MOL0     H33576   9.305   0.032   5.985  0.0858  2.2537 -0.7402
  249MOL0     H33577   9.215   0.080   6.128 -0.7024 -2.2244 -0.7779
  249MOL0     H33578   9.220   0.184   5.994 -0.1689 -0.2372 -0.6495
  249MOL0     H33579   9.040   0.449   6.344 -0.3094 -0.2254  1.0572
  249MOL0     H33580   8.876   0.618   6.414 -0.1692  1.1094 -1.2206
  249MOL0     H33581   8.706   0.780   6.361  0.2453  0.3858 -1.0802
  249MOL0     H33582   8.785   0.814   6.497 -0.1374 -5.8903 -2.8335
  249MOL0     H33583   8.642   1.011   6.310  0.5808 -1.1164 -0.1051
  249MOL0     H33584   8.616   0.990   6.485 -1.5428  3.9120 -1.6164
  249MOL0     H33585   8.862   1.132   6.342  0.6696  0.7267  1.5723
  249MOL0     H33586   8.839   1.115   6.508 -2.1236 -0.4028  0.0819
  249MOL0     H33587   8.633   1.243   6.331  0.6093 -4.7706 -0.3751
  249MOL0     H33588   8.626   1.250   6.516 -1.3928  1.2563  0.1777
  249MOL0     H33589   8.866   1.346   6.499 -1.0113 -1.3012  2.1883
  249MOL0     H33590   8.728   1.445   6.496 -2.6291  1.5574 -2.8835
  249MOL0     H33591   8.904   1.450   6.291  0.3642 -1.9095  1.6837
  249MOL0     H33592   8.821   1.312   6.232  0.6257  1.0986 -2.5821
  249MOL0     H33593   8.712   1.594   6.306 -0.3700  0.2946 -1.1467
  249MOL0     H33594   8.595   1.452   6.290 -0.0840 -2.8835 -0.5125
  249MOL0     H33595   8.766   1.569   6.079  0.4752 -0.7782  0.3645
  249MOL0     H33596   8.592   1.578   6.079  0.3520 -1.1890 -3.2603
  249MOL0     H33597   9.125   0.913   6.225 -0.6642 -0.4740 -0.7950
  249MOL0     H33598   9.290   0.756   6.167  0.3022 -1.5546  1.5074
  249MOL0     H33599   9.520   0.462   6.271  0.1181  1.7964 -5.0804
  249MOL0     H33600   9.726   0.365   6.220 -0.7633 -0.6253  0.9566
  249MOL0     H33601  10.120   0.472   6.909 -1.5751  0.2131  0.3171
  249MOL0     H33602   9.889   0.419   6.907 -0.6758 -0.9351  0.1301
  249MOL0     H33603   9.535   0.318   6.796 -0.9090 -2.8011 -0.2103
  249MOL0     H33604   9.310   0.353   6.896 -0.9453  2.4990  1.1354
  249MOL0     H33605   9.077   0.337   6.914 -0.1782 -1.7216  2.3587
  249MOL0     H33606   9.163   0.467   6.990 -1.4378 -2.1558  1.9582
  249MOL0     H33607   8.911   0.402   7.017 -0.5427 -0.6252 -2.4420
  249MOL0     H33608   8.887   0.529   6.884  0.4267  1.3774  0.1258
  249MOL0     H33609   9.037   0.589   7.156 -0.0283 -1.5772 -1.4749
  249MOL0     H33610   8.881   0.647   7.126 -0.3785 -1.4084  1.6999
  249MOL0     H33611   8.943   0.759   6.908  0.3512  0.7050  0.6560
  249MOL0     H33612   9.117   0.727   6.948  1.1053  1.0969  0.9362
  249MOL0     H33613   9.016   1.067   7.169  1.5902  1.3024 -0.7451
  249MOL0     H33614   9.195   0.619   6.589  0.8062 -0.4890 -1.5446
  249MOL0     H33615   9.430   0.591   6.478  2.3177 -3.6781 -1.0936
  250MOL0     O33616   1.527  10.384   1.459  0.1912 -0.4983 -0.0128
  250MOL0     C33617   1.417  10.441   1.433 -0.3319  0.5129  0.9469
  250MOL0     O33618   1.314  10.483   1.524 -0.2557  0.9475  0.2118
  250MOL0     C33619   1.325  10.472   1.656 -0.5278 -0.0119 -1.0074
  250MOL0     C33620   1.299  10.585   1.732 -0.6840  0.2369 -0.7883
  250MOL0     C33621   1.319  10.586   1.872  0.2942 -0.3115 -0.2561
  250MOL0     C33622   1.359  10.481   1.940 -0.1708  1.1193 -0.3283
  250MOL0     O33623   1.398  10.467   2.075  0.2159 -0.9058  0.3413
  250MOL0     C33624   1.437  10.589   2.142  0.8243 -0.4697 -0.5577
  250MOL0     C33625   1.577  10.639   2.117  0.5291 -0.3563 -0.1466
  250MOL0     C33626   1.664  10.696   2.235 -0.4865 -0.0638 -1.0539
  250MOL0     C33627   1.636  10.846   2.254  0.2247 -0.3968  0.4874
  250MOL0     C33628   1.656  10.880   2.408 -0.3638 -0.2831  0.3102
  250MOL0     C33629   1.790  10.822   2.466  0.4343 -0.5766  0.4973
  250MOL0     C33630   1.920  10.899   2.413  0.4314  0.1704 -0.5499
  250MOL0     C33631   2.046  10.844   2.471  0.1365  0.3575 -0.5901
  250MOL0     N33632   2.160  10.908   2.403  0.6401 -0.2135 -0.3858
  250MOL0     C33633   2.204  10.879   2.274 -0.4031 -0.6095 -0.4632
  250MOL0     C33634   2.314  10.954   2.257 -0.2331 -0.2349  0.3382
  250MOL0     C33635   2.391  10.957   2.137 -0.7879 -0.8461  0.0606
  250MOL0     C33636   2.309  10.939   2.002 -0.5311  0.5521 -0.8110
  250MOL0     C33637   2.391  10.993   1.884 -0.3538 -0.1809 -0.1738
  250MOL0     C33638   2.312  11.057   1.776 -0.4797 -0.2160  0.5550
  250MOL0     O33639   2.400  11.125   1.685 -0.4769 -0.0692  0.3255
  250MOL0     C33640   2.428  11.062   1.566  0.0769 -0.2953 -1.3048
  250MOL0     C33641   2.558  11.040   1.529  0.2102  0.2946 -0.1664
  250MOL0     C33642   2.595  11.005   1.401 -0.6601 -1.0541  0.6106
  250MOL0     C33643   2.745  10.988   1.381 -0.4427 -0.5227  0.3670
  250MOL0     C33644   2.498  11.002   1.299  0.0104  0.4820 -1.1540
  250MOL0     C33645   2.528  10.985   1.153  0.6147  0.2693  0.2437
  250MOL0     O33646   2.655  10.934   1.112 -0.2798  0.2906 -0.0652
  250MOL0     C33647   2.692  10.900   0.985  0.0930  0.1019  0.2247
  250MOL0     C33648   2.822  10.936   0.948 -0.1291 -0.0504  0.3217
  250MOL0     C33649   2.853  10.927   0.805 -0.0369  0.3185  0.5853
  250MOL0     C33650   2.773  10.864   0.712  0.5404  0.0979  0.1875
  250MOL0     O33651   2.797  10.853   0.574  0.0383 -0.4051 -0.1824
  250MOL0     C33652   2.936  10.839   0.528 -1.1408 -0.3764  0.4916
  250MOL0     C33653   3.016  10.720   0.577  0.2909  0.3518  0.2544
  250MOL0     C33654   2.959  10.587   0.539 -0.0334 -0.4368 -1.5290
  250MOL0     C33655   2.982  10.552   0.385  1.3079  0.7839 -0.6180
  250MOL0     C33656   2.836  10.540   0.328  0.0987 -0.5691 -0.9919
  250MOL0     C33657   2.857  10.505   0.188 -0.4258  0.0222  0.4755
  250MOL0     C33658   2.930  10.375   0.160 -0.2459 -0.2305 -0.0818
  250MOL0     C33659   2.922  10.320   0.011  0.4165 -0.5100 -0.6723
  250MOL0    Cl33660   2.763  10.317  -0.073 -0.0109  0.0556 -0.3722
  250MOL0     C33661   2.656  10.806   0.754 -0.4604 -0.1773 -0.5184
  250MOL0     C33662   2.608  10.838   0.885  0.0568  0.1001 -0.4825
  250MOL0     O33663   2.445  11.020   1.066  0.1445 -0.3974  0.4363
  250MOL0     C33664   2.362  11.021   1.332  0.6067 -0.5608  0.1374
  250MOL0     C33665   2.328  11.055   1.469  0.4402  0.0252  0.4136
  250MOL0     N33666   2.341  11.023   2.365 -0.2253  0.0908 -1.1382
  250MOL0     N33667   2.245  11.001   2.459  0.2550  0.0504 -0.1852
  250MOL0     C33668   1.388  10.367   1.866 -0.3752  1.0145  0.0821
  250MOL0     C33669   1.372  10.355   1.726  0.7721  0.2883 -0.5824
  250MOL0     C33670   1.378  10.455   1.289 -0.2098 -0.1900  0.0945
  250MOL0     C33671   1.274  10.548   1.255 -0.2802 -0.7793  0.1673
  250MOL0     C33672   1.233  10.553   1.119 -0.4378  0.0390 -1.4681
  250MOL0     C33673   1.308  10.482   1.016  0.1541 -0.7906 -1.1309
  250MOL0     O33674   1.261  10.513   0.888  0.8260  0.2996  0.4595
  250MOL0     C33675   1.339  10.474   0.774 -0.4777 -0.0396  0.3744
  250MOL0     C33676   1.299  10.545   0.650  0.8203 -0.3352  0.1856
  250MOL0     C33677   1.151  10.520   0.632  0.4020  0.3433  0.6179
  250MOL0     C33678   1.106  10.518   0.488  1.0159  1.1411  0.3071
  250MOL0     C33679   0.965  10.578   0.476  0.3280 -0.8977  0.8292
  250MOL0     C33680   0.866  10.650   0.470 -0.7991  0.2464 -0.2284
  250MOL0     C33681   1.409  10.391   1.048 -0.2044 -0.4963  0.6095
  250MOL0     C33682   1.449  10.385   1.181  0.7677  0.0646  0.1456
  250MOL0     H33683   1.283  10.675   1.675 -0.0688  1.0755  0.3212
  250MOL0     H33684   1.291  10.673   1.931  0.9350 -0.9199  0.9952
  250MOL0     H33685   1.369  10.672   2.121  0.6678  0.0352  1.7610
  250MOL0     H33686   1.423  10.557   2.245  0.9956 -0.7578 -0.6230
  250MOL0     H33687   1.620  10.551   2.070 -1.7416 -1.3965 -0.4016
  250MOL0     H33688   1.568  10.715   2.038  1.0165  0.4461  0.5496
  250MOL0     H33689   1.640  10.631   2.320 -0.9990  0.6200 -0.6633
  250MOL0     H33690   1.770  10.699   2.210 -0.5408  1.6034 -1.1726
  250MOL0     H33691   1.698  10.917   2.198 -1.1840  1.8488  1.6453
  250MOL0     H33692   1.536  10.861   2.213  0.7031 -1.0517 -1.0025
  250MOL0     H33693   1.663  10.989   2.417 -1.9990 -0.2653  1.7170
  250MOL0     H33694   1.575  10.836   2.465 -1.6937  1.5299 -0.0778
  250MOL0     H33695   1.771  10.840   2.572 -2.5605  2.9378 -0.3903
  250MOL0     H33696   1.795  10.715   2.447  1.9308 -0.6770  1.3691
  250MOL0     H33697   1.917  10.889   2.304  1.7567  1.1310 -0.7023
  250MOL0     H33698   1.915  11.007   2.430  2.5967  0.4332 -1.2207
  250MOL0     H33699   2.066  10.737   2.466  0.0933  0.3104  0.1473
  250MOL0     H33700   2.051  10.865   2.578  4.4982 -0.9535 -0.3527
  250MOL0     H33701   2.154  10.826   2.193 -0.5946 -1.1761  0.0205
  250MOL0     H33702   2.431  11.059   2.143 -0.7292 -0.9322  1.4143
  250MOL0     H33703   2.478  10.890   2.139  1.5815  1.6779 -3.6942
  250MOL0     H33704   2.212  10.988   2.007 -0.3454  0.8055  0.6107
  250MOL0     H33705   2.294  10.830   1.996  1.7454  0.1558 -0.3480
  250MOL0     H33706   2.454  10.911   1.849 -0.1657  0.8486 -2.3757
  250MOL0     H33707   2.459  11.070   1.919 -2.0263  0.0796  2.8570
  250MOL0     H33708   2.251  11.136   1.821  0.8540  0.8408  0.5595
  250MOL0     H33709   2.249  10.982   1.726  1.6709 -0.5934 -1.8171
  250MOL0     H33710   2.634  11.054   1.605  1.3547  0.5436 -1.3249
  250MOL0     H33711   2.754  10.896   1.323 -2.1683 -0.2341 -0.4217
  250MOL0     H33712   2.781  11.072   1.320 -3.8179  0.7078 -0.1780
  250MOL0     H33713   2.798  10.970   1.475  0.8842  2.6042  0.3730
  250MOL0     H33714   2.878  10.984   1.028  0.7870  0.1187 -0.3993
  250MOL0     H33715   2.952  10.950   0.766 -0.9173  0.2755 -1.8767
  250MOL0     H33716   2.920  10.833   0.420 -2.3290  0.6999  0.5779
  250MOL0     H33717   2.981  10.936   0.550 -1.0614  0.1004 -1.5451
  250MOL0     H33718   3.114  10.739   0.533 -0.6233  3.7885 -0.6176
  250MOL0     H33719   3.027  10.726   0.686 -1.3238  1.5592  0.4018
  250MOL0     H33720   2.855  10.580   0.571  0.4944  1.6338  0.9276
  250MOL0     H33721   3.018  10.523   0.605  1.6848  4.0143  1.7451
  250MOL0     H33722   3.048  10.618   0.328  1.6595 -1.3918 -2.8753
  250MOL0     H33723   3.034  10.456   0.392 -0.9824 -0.7162 -2.6979
  250MOL0     H33724   2.783  10.636   0.333 -0.2817 -0.7531 -1.4758
  250MOL0     H33725   2.783  10.467   0.389 -1.4364  1.2123 -0.0761
  250MOL0     H33726   2.761  10.506   0.136  0.1713 -0.0772 -0.6722
  250MOL0     H33727   2.894  10.593   0.135 -1.5780  0.5158  0.4697
  250MOL0     H33728   2.893  10.294   0.223  1.0391  0.5045  1.6872
  250MOL0     H33729   3.036  10.398   0.176 -0.7262  1.8706  0.3870
  250MOL0     H33730   2.968  10.223  -0.006  1.1041 -0.1972 -0.6399
  250MOL0     H33731   2.978  10.401  -0.037 -1.9564  1.6157 -0.0834
  250MOL0     H33732   2.603  10.745   0.681 -2.6414  0.0453  0.7887
  250MOL0     H33733   2.505  10.815   0.907 -0.8757  3.7810 -0.3071
  250MOL0     H33734   2.280  11.011   1.261  1.4624 -4.4791 -0.4827
  250MOL0     H33735   2.227  11.093   1.481  1.4211  3.5339 -1.2371
  250MOL0     H33736   1.432  10.285   1.922  0.1706  0.9364 -0.4483
  250MOL0     H33737   1.404  10.264   1.676  0.6254 -0.1704  0.1545
  250MOL0     H33738   1.215  10.603   1.327 -2.3648 -2.9832  0.2632
  250MOL0     H33739   1.147  10.615   1.096 -0.2986  1.5287  1.5449
  250MOL0     H33740   1.443  10.509   0.778 -0.5639  0.0931  2.1975
  250MOL0     H33741   1.334  10.367   0.750 -3.5027 -0.3623  1.9728
  250MOL0     H33742   1.355  10.508   0.563  0.8293 -0.2106  0.1377
  250MOL0     H33743   1.297  10.654   0.647 -0.5737 -0.3401  0.3467
  250MOL0     H33744   1.092  10.598   0.682 -0.1195  0.7696 -0.6265
  250MOL0     H33745   1.124  10.425   0.679 -0.3428  0.3884  0.2932
  250MOL0     H33746   1.106  10.417   0.447 -3.0718  0.2655  1.9301
  250MOL0     H33747   1.166  10.583   0.423 -2.2350  1.0489 -3.1146
  250MOL0     H33748   0.783  10.716   0.485 -0.5183  0.1550  2.0947
  250MOL0     H33749   1.457  10.322   0.979 -1.9646 -1.1906  0.0061
  250MOL0     H33750   1.527  10.316   1.212  1.4937  1.1888  0.8768
  251MOL0     O33751   3.848   3.067   5.851 -0.7121  0.1817 -0.3409
  251MOL0     C33752   3.914   3.162   5.889 -0.0275  0.2212  0.1287
  251MOL0     O33753   3.870   3.285   5.930 -0.4532 -0.0710 -0.2323
  251MOL0     C33754   3.752   3.317   5.873  0.8382 -0.7122 -0.1562
  251MOL0     C33755   3.749   3.378   5.750  0.0634  0.7637  0.7678
  251MOL0     C33756   3.627   3.401   5.687  0.0250 -0.5567  0.8377
  251MOL0     C33757   3.510   3.363   5.751  1.1080 -0.8342  0.1599
  251MOL0     O33758   3.389   3.385   5.686  0.3325  0.0212  0.3868
  251MOL0     C33759   3.268   3.371   5.756 -0.1198  0.2130 -0.0140
  251MOL0     C33760   3.157   3.426   5.677 -0.9339  0.7495  0.9286
  251MOL0     C33761   3.115   3.352   5.550 -0.2660 -0.1005 -0.1584
  251MOL0     C33762   2.990   3.418   5.486  0.4729  0.2358 -0.0605
  251MOL0     C33763   2.994   3.572   5.445 -0.4981  0.5712  0.1777
  251MOL0     C33764   2.859   3.606   5.386 -0.7693 -1.1428  0.1902
  251MOL0     C33765   2.863   3.741   5.289  0.3966  0.5160 -0.8757
  251MOL0     C33766   2.821   3.859   5.380  0.3289  0.3258  0.0885
  251MOL0     N33767   2.684   3.845   5.428  0.4278 -0.0898  0.7910
  251MOL0     C33768   2.581   3.792   5.359  0.7040  0.3431 -0.1476
  251MOL0     C33769   2.479   3.767   5.441 -0.5382 -0.6455 -1.1527
  251MOL0     C33770   2.345   3.700   5.415  0.3554  0.5853  0.8433
  251MOL0     C33771   2.238   3.805   5.409 -0.1858  0.1064 -0.3200
  251MOL0     C33772   2.104   3.743   5.453  0.4277 -0.6453  0.5105
  251MOL0     C33773   1.983   3.828   5.419  0.5703  0.0743  0.6267
  251MOL0     O33774   1.942   3.817   5.271 -0.4323  0.4771  0.0312
  251MOL0     C33775   1.821   3.778   5.235  0.0627  0.6301 -0.0943
  251MOL0     C33776   1.815   3.685   5.138  0.1834  0.9375  0.0662
  251MOL0     C33777   1.690   3.621   5.100  0.8353  0.3924  1.0596
  251MOL0     C33778   1.691   3.538   4.969  0.1092  0.0250  0.5535
  251MOL0     C33779   1.573   3.650   5.178 -0.7706 -0.0978  0.4375
  251MOL0     C33780   1.438   3.597   5.160  0.2577 -0.4431 -0.4127
  251MOL0     O33781   1.369   3.570   5.269  0.0257 -0.6981  0.5107
  251MOL0     C33782   1.248   3.507   5.264  0.1958 -0.1701 -0.8619
  251MOL0     C33783   1.148   3.535   5.365  0.1430  0.6854  0.5470
  251MOL0     C33784   1.023   3.467   5.375 -0.1257  0.3586 -0.6470
  251MOL0     C33785   1.001   3.353   5.289 -0.4076 -0.2876 -0.8097
  251MOL0     O33786   0.883   3.285   5.268 -0.2792  0.3281 -1.1115
  251MOL0     C33787   0.778   3.301   5.357 -0.4002 -0.3587 -0.2170
  251MOL0     C33788   0.682   3.185   5.335  0.0081  0.3654  0.2552
  251MOL0     C33789   0.547   3.211   5.416 -0.1768  0.4629 -0.6441
  251MOL0     C33790   0.443   3.103   5.403 -0.0644 -0.0955 -0.3774
  251MOL0     C33791   0.309   3.137   5.461  1.2487  0.0832 -0.5305
  251MOL0     C33792   0.216   3.015   5.450  0.2156 -0.2678 -0.5528
  251MOL0     C33793   0.150   3.000   5.311  0.3556  0.8681  0.5708
  251MOL0     C33794   0.055   2.880   5.303 -0.5626  0.1552 -0.4132
  251MOL0    Cl33795  -0.062   2.865   5.430  0.3080 -0.0504  0.0931
  251MOL0     C33796   1.097   3.336   5.194  0.6371  0.3735  0.3434
  251MOL0     C33797   1.213   3.403   5.174 -0.8946  1.4180 -0.5083
  251MOL0     O33798   1.405   3.573   5.045  0.0398 -0.5971  0.1944
  251MOL0     C33799   1.579   3.744   5.274 -0.4689  0.5812 -0.2966
  251MOL0     C33800   1.703   3.799   5.311  0.3374  0.1559 -0.0553
  251MOL0     N33801   2.529   3.813   5.566  0.6318  0.1760  0.9079
  251MOL0     N33802   2.645   3.861   5.557  0.0531 -0.0501 -0.1323
  251MOL0     C33803   3.514   3.299   5.875 -0.4717 -0.2916 -0.2625
  251MOL0     C33804   3.636   3.282   5.939 -0.1275  0.5350  0.6063
  251MOL0     C33805   4.053   3.137   5.920  1.3228  0.3845 -0.1946
  251MOL0     C33806   4.148   3.234   5.940 -0.6309  0.0707 -0.2947
  251MOL0     C33807   4.278   3.204   5.992 -0.4982  0.0851  0.2990
  251MOL0     C33808   4.311   3.074   6.031 -0.1475 -0.5138  0.4047
  251MOL0     O33809   4.432   3.020   6.063 -0.0291  0.2458  0.0705
  251MOL0     C33810   4.552   3.107   6.057  0.3492  0.3025 -0.5643
  251MOL0     C33811   4.669   3.048   6.144  0.0431 -0.2717  0.0942
  251MOL0     C33812   4.816   3.082   6.098  0.8279  0.3040  0.6319
  251MOL0     C33813   4.919   3.007   6.173  0.0472  0.5874 -0.2504
  251MOL0     C33814   4.902   2.856   6.164 -0.8099 -0.2781  0.1051
  251MOL0     C33815   4.902   2.738   6.150  0.2847  0.0508  0.5782
  251MOL0     C33816   4.212   2.973   6.017  0.6066  0.3262  0.2717
  251MOL0     C33817   4.079   3.005   5.968 -0.5821 -0.3690  0.5153
  251MOL0     H33818   3.841   3.403   5.699 -1.0491  0.2961 -1.6381
  251MOL0     H33819   3.606   3.456   5.596 -3.5797 -0.3402  1.6559
  251MOL0     H33820   3.254   3.263   5.769 -0.3219  0.1262 -0.9224
  251MOL0     H33821   3.262   3.425   5.851  2.0900  2.4073 -1.0032
  251MOL0     H33822   3.069   3.440   5.740 -2.3296  0.4753 -0.8808
  251MOL0     H33823   3.185   3.530   5.654  1.3145 -0.2935 -1.5475
  251MOL0     H33824   3.194   3.361   5.475  0.9880 -0.9455  1.0277
  251MOL0     H33825   3.104   3.246   5.572 -3.7406 -0.2314 -1.8170
  251MOL0     H33826   2.959   3.353   5.404  2.1159 -1.2883  0.4819
  251MOL0     H33827   2.902   3.409   5.551 -0.0262  0.3955 -0.6958
  251MOL0     H33828   3.007   3.632   5.536 -0.4091  0.2165  0.3986
  251MOL0     H33829   3.084   3.586   5.385  1.4501 -2.1241  2.2344
  251MOL0     H33830   2.826   3.521   5.325  0.5082 -0.2016 -1.9228
  251MOL0     H33831   2.785   3.610   5.467 -0.9831  2.1227 -0.0490
  251MOL0     H33832   2.964   3.767   5.257  1.4911  0.4324  2.2492
  251MOL0     H33833   2.795   3.719   5.206 -1.9255  3.9073 -0.1165
  251MOL0     H33834   2.827   3.955   5.328  4.2342 -0.1950 -0.7151
  251MOL0     H33835   2.882   3.870   5.469 -0.3291  2.9976  0.3064
  251MOL0     H33836   2.580   3.754   5.258 -0.3015  0.7942 -0.3201
  251MOL0     H33837   2.341   3.643   5.322  0.0037 -1.3200  1.9740
  251MOL0     H33838   2.324   3.637   5.503  2.2096 -0.4964  0.5554
  251MOL0     H33839   2.227   3.853   5.312  1.7419  2.9480  0.7506
  251MOL0     H33840   2.260   3.875   5.490  1.0131 -0.7001  0.0768
  251MOL0     H33841   2.107   3.733   5.562  3.4210 -0.8034  0.5001
  251MOL0     H33842   2.097   3.648   5.399  1.4946 -1.5928  1.9495
  251MOL0     H33843   1.994   3.937   5.426 -0.3124  0.4081 -2.0161
  251MOL0     H33844   1.906   3.792   5.489  1.4685 -1.9999  0.6115
  251MOL0     H33845   1.896   3.666   5.069 -0.8814 -1.0826 -0.7291
  251MOL0     H33846   1.661   3.599   4.884  2.1031 -2.4251 -2.1017
  251MOL0     H33847   1.791   3.495   4.959  0.5859  0.5504  2.6583
  251MOL0     H33848   1.627   3.449   4.973 -1.3604  0.9425 -1.1993
  251MOL0     H33849   1.173   3.617   5.430  2.4242  2.7979 -2.7234
  251MOL0     H33850   0.957   3.513   5.448  0.5592  2.8419 -1.5001
  251MOL0     H33851   0.808   3.308   5.462 -2.4729  0.6997  0.3596
  251MOL0     H33852   0.727   3.395   5.332 -0.5694  0.5487  3.0886
  251MOL0     H33853   0.660   3.181   5.228 -1.1766 -0.8849  0.5154
  251MOL0     H33854   0.726   3.086   5.350  1.3049  0.6519 -1.3914
  251MOL0     H33855   0.497   3.302   5.382 -0.4698 -0.2746 -2.3028
  251MOL0     H33856   0.558   3.236   5.522 -1.3915 -2.2061  0.1848
  251MOL0     H33857   0.434   3.085   5.296 -0.1267  0.0623 -0.3979
  251MOL0     H33858   0.484   3.017   5.457  1.0943  0.1676 -0.8138
  251MOL0     H33859   0.267   3.222   5.405 -1.8944 -0.6732  0.4773
  251MOL0     H33860   0.302   3.162   5.567 -0.4893 -0.5532 -0.4717
  251MOL0     H33861   0.263   2.924   5.488  1.5072  0.3688 -0.5401
  251MOL0     H33862   0.134   3.044   5.516 -1.0322 -0.8745 -1.7972
  251MOL0     H33863   0.224   2.979   5.233 -2.6936 -4.4287 -1.4259
  251MOL0     H33864   0.105   3.099   5.298 -0.9669  0.2213  0.0018
  251MOL0     H33865   0.128   2.798   5.300  1.6530  2.0523 -1.1761
  251MOL0     H33866   0.001   2.873   5.208 -0.8695  1.4703 -0.3502
  251MOL0     H33867   1.073   3.248   5.136 -3.0824  1.3366  0.1514
  251MOL0     H33868   1.291   3.369   5.107  2.4797  2.5762  2.5629
  251MOL0     H33869   1.491   3.776   5.329 -0.2608  1.9809 -0.7267
  251MOL0     H33870   1.701   3.878   5.385  2.8694 -0.7991  1.1476
  251MOL0     H33871   3.422   3.271   5.926 -1.8182  0.8141 -1.9576
  251MOL0     H33872   3.647   3.235   6.037 -1.3461  0.4746  0.7284
  251MOL0     H33873   4.133   3.340   5.922 -1.1096 -0.0568 -0.6717
  251MOL0     H33874   4.356   3.278   6.000 -1.5254  1.0326  2.2550
  251MOL0     H33875   4.584   3.102   5.953 -0.5946 -1.3306 -0.7954
  251MOL0     H33876   4.527   3.212   6.075  4.2826  1.4499 -0.6504
  251MOL0     H33877   4.653   2.940   6.145 -0.4218 -0.2252 -1.3383
  251MOL0     H33878   4.652   3.082   6.247 -0.0715 -2.1481  0.7338
  251MOL0     H33879   4.837   3.190   6.100  4.7120 -0.2001 -1.9919
  251MOL0     H33880   4.823   3.047   5.995  1.4762 -3.1711  1.7223
  251MOL0     H33881   4.911   3.031   6.280 -0.5095 -1.8576  0.3308
  251MOL0     H33882   5.016   3.042   6.139  1.7287 -2.3001  1.1758
  251MOL0     H33883   4.917   2.632   6.138 -0.4984 -0.3528  2.7085
  251MOL0     H33884   4.236   2.877   6.061  1.3580  0.0787 -0.6463
  251MOL0     H33885   3.999   2.932   5.974  0.5804 -1.7593 -0.1167
  252MOL0     O33886   1.408   0.025   4.239  0.0996  1.2989 -0.3080
  252MOL0     C33887   1.408  -0.085   4.297 -0.7240 -1.1691 -0.2937
  252MOL0     O33888   1.516  -0.170   4.307  0.0996  0.5122 -0.9664
  252MOL0     C33889   1.598  -0.171   4.202 -0.0350  0.2033  0.2447
  252MOL0     C33890   1.558  -0.185   4.064 -0.0990  0.8687  0.6626
  252MOL0     C33891   1.652  -0.202   3.953  0.2623  0.8017  0.2454
  252MOL0     C33892   1.792  -0.194   3.983 -0.0632  0.2045  0.8127
  252MOL0     O33893   1.888  -0.190   3.883  0.0891 -0.1739  0.1609
  252MOL0     C33894   1.856  -0.219   3.746 -1.6386 -0.1893 -0.7076
  252MOL0     C33895   1.990  -0.236   3.672 -0.8729  0.0237  0.6840
  252MOL0     C33896   2.055  -0.101   3.633 -0.0918 -0.7949 -0.5813
  252MOL0     C33897   2.181  -0.131   3.555 -0.3431 -0.3142 -0.3132
  252MOL0     C33898   2.233   0.002   3.494 -0.0282 -0.0618 -0.0747
  252MOL0     C33899   2.287   0.100   3.595 -0.3208  0.2039  0.3589
  252MOL0     C33900   2.410   0.067   3.677  0.2537 -0.0245  0.5094
  252MOL0     C33901   2.458   0.190   3.753  0.0396  0.4994 -0.3837
  252MOL0     N33902   2.563   0.144   3.849  1.1069 -0.5089  0.2729
  252MOL0     C33903   2.558   0.141   3.991 -0.2253  0.5186  0.4065
  252MOL0     C33904   2.691   0.134   4.035  0.5517 -0.1394  0.5686
  252MOL0     C33905   2.749   0.125   4.173 -0.7152  0.6417 -0.0248
  252MOL0     C33906   2.806   0.252   4.230 -0.0798 -1.1584 -0.3717
  252MOL0     C33907   2.913   0.218   4.333 -0.3555 -0.0335  0.5680
  252MOL0     C33908   2.956   0.344   4.406 -0.7656 -0.6661  0.2031
  252MOL0     O33909   3.045   0.306   4.508  0.1149 -0.5488  0.2474
  252MOL0     C33910   3.110   0.404   4.572  0.8259 -0.6668 -0.6819
  252MOL0     C33911   3.224   0.446   4.526 -0.4311 -0.4356 -0.1394
  252MOL0     C33912   3.303   0.553   4.594 -0.3005  0.6366  0.4447
  252MOL0     C33913   3.431   0.589   4.532  0.8832 -0.3174  0.0942
  252MOL0     C33914   3.249   0.619   4.708 -0.1598  0.4859  0.8720
  252MOL0     C33915   3.319   0.705   4.798  0.4465 -1.0228 -0.0434
  252MOL0     O33916   3.248   0.743   4.906  0.4455 -0.0905 -0.0755
  252MOL0     C33917   3.303   0.771   5.026  0.9623  0.6515  0.3672
  252MOL0     C33918   3.430   0.736   5.081  0.2617 -0.7890  0.2984
  252MOL0     C33919   3.455   0.762   5.219  0.2563  0.3846  0.3066
  252MOL0     C33920   3.369   0.846   5.296  0.5879 -0.4994 -0.1078
  252MOL0     O33921   3.399   0.891   5.425  0.8454  0.8951 -0.3357
  252MOL0     C33922   3.537   0.891   5.471  0.1628  0.1438  0.4098
  252MOL0     C33923   3.557   0.995   5.581  0.5535 -0.1396 -0.6309
  252MOL0     C33924   3.501   0.937   5.714 -0.2525  0.1637 -0.3393
  252MOL0     C33925   3.467   1.044   5.816  0.5068  0.1924  0.8201
  252MOL0     C33926   3.342   1.119   5.767 -0.4272  0.9367 -0.6986
  252MOL0     C33927   3.256   1.169   5.876  1.0103 -0.3616 -0.4807
  252MOL0     C33928   3.120   1.212   5.816  0.6413  0.0696  0.3114
  252MOL0     C33929   3.048   1.313   5.917 -0.5482  0.4957  0.9792
  252MOL0    Cl33930   3.144   1.474   5.954 -0.4686 -0.1285  0.0475
  252MOL0     C33931   3.249   0.888   5.241  0.0022  0.9967 -0.3760
  252MOL0     C33932   3.218   0.849   5.109  0.2740  0.6054  0.0980
  252MOL0     O33933   3.427   0.755   4.773 -0.4543 -0.4678  0.1100
  252MOL0     C33934   3.127   0.568   4.749  0.0526 -0.6495 -0.3608
  252MOL0     C33935   3.047   0.465   4.683 -0.1746 -0.3090  0.0064
  252MOL0     N33936   2.771   0.126   3.917  0.5573  0.7106 -0.0739
  252MOL0     N33937   2.697   0.135   3.813  0.1864  0.9624 -0.4836
  252MOL0     C33938   1.831  -0.174   4.112 -0.2168 -0.9591 -0.7668
  252MOL0     C33939   1.735  -0.167   4.217  0.3738 -0.2767  0.2882
  252MOL0     C33940   1.297  -0.100   4.388  0.0664  0.0910  0.0680
  252MOL0     C33941   1.200  -0.002   4.417  0.9592  0.1930 -0.0257
  252MOL0     C33942   1.090  -0.024   4.505  0.1370 -0.1724 -0.3038
  252MOL0     C33943   1.068  -0.147   4.564 -0.0822 -0.2892 -0.0951
  252MOL0     O33944   0.972  -0.174   4.649 -0.5348  0.2818 -0.0133
  252MOL0     C33945   0.842  -0.129   4.605 -0.9753 -0.0758 -0.1102
  252MOL0     C33946   0.751  -0.248   4.611 -0.0894  1.0866  0.3344
  252MOL0     C33947   0.627  -0.214   4.689  0.1056 -0.5325  0.8519
  252MOL0     C33948   0.543  -0.101   4.631 -0.0921 -0.3203  0.2588
  252MOL0     C33949   0.429  -0.079   4.718 -0.0898 -0.3119 -0.0774
  252MOL0     C33950   0.321  -0.057   4.781  0.4237 -0.1104  0.0917
  252MOL0     C33951   1.172  -0.245   4.539  0.1954 -0.2548 -0.1544
  252MOL0     C33952   1.289  -0.220   4.459 -0.4186  0.6579 -0.0709
  252MOL0     H33953   1.453  -0.197   4.042 -0.6916  4.5189  0.8712
  252MOL0     H33954   1.600  -0.214   3.859  1.2207 -2.6570  0.0019
  252MOL0     H33955   1.810  -0.318   3.748 -0.7064 -0.6847 -1.9733
  252MOL0     H33956   1.786  -0.145   3.707 -1.0348  0.5003 -0.5116
  252MOL0     H33957   2.068  -0.300   3.714  1.7501  0.3243 -3.1479
  252MOL0     H33958   1.967  -0.283   3.576 -0.3122  1.0810  0.0065
  252MOL0     H33959   1.989  -0.032   3.580 -1.4520 -0.0813  1.9008
  252MOL0     H33960   2.087  -0.062   3.730 -0.8789  0.5220 -0.8376
  252MOL0     H33961   2.259  -0.176   3.617  0.3061 -2.5150 -2.5288
  252MOL0     H33962   2.149  -0.198   3.474 -2.2100  1.7253 -1.3593
  252MOL0     H33963   2.312  -0.030   3.426  1.5972  4.5544 -0.7439
  252MOL0     H33964   2.157   0.054   3.435  0.5188  0.9059  0.0385
  252MOL0     H33965   2.318   0.184   3.532 -0.1457 -1.3911 -1.8231
  252MOL0     H33966   2.205   0.132   3.659 -2.7370 -2.9217 -0.8746
  252MOL0     H33967   2.386  -0.017   3.743  1.4693  0.2406  1.3398
  252MOL0     H33968   2.497   0.025   3.626  3.0323  1.7910  3.3659
  252MOL0     H33969   2.375   0.228   3.814 -0.2084 -0.5622 -0.0340
  252MOL0     H33970   2.492   0.266   3.683  0.6927 -0.9600 -1.7004
  252MOL0     H33971   2.480   0.150   4.065  1.6346 -0.6427  2.6518
  252MOL0     H33972   2.677   0.067   4.231  0.8502 -3.2061 -1.6120
  252MOL0     H33973   2.829   0.051   4.178 -1.3199  0.0485  1.8556
  252MOL0     H33974   2.718   0.312   4.257  0.6797  0.3154 -1.0452
  252MOL0     H33975   2.856   0.314   4.155 -1.5294  1.6903  0.8323
  252MOL0     H33976   3.003   0.177   4.286 -0.6881  0.0916 -0.1820
  252MOL0     H33977   2.888   0.144   4.410 -1.6953 -2.4213 -2.0112
  252MOL0     H33978   2.872   0.400   4.449  1.7675  4.2049 -0.4391
  252MOL0     H33979   2.991   0.414   4.329  1.8962 -0.6044  1.3847
  252MOL0     H33980   3.273   0.396   4.442 -2.3532 -3.0057  0.1382
  252MOL0     H33981   3.517   0.598   4.599  2.1084  2.0136 -1.6681
  252MOL0     H33982   3.459   0.515   4.456 -0.9948 -1.7833  0.7357
  252MOL0     H33983   3.423   0.684   4.478  2.1871 -2.2982 -4.0297
  252MOL0     H33984   3.504   0.691   5.016 -1.6364  1.3535 -3.6596
  252MOL0     H33985   3.557   0.740   5.250  0.7394 -1.4522 -2.2883
  252MOL0     H33986   3.576   0.792   5.495  2.6538  0.2740 -2.5699
  252MOL0     H33987   3.598   0.922   5.386 -3.5251 -1.4986 -3.2038
  252MOL0     H33988   3.663   1.012   5.603  0.2265  0.9230  0.2413
  252MOL0     H33989   3.507   1.090   5.560  2.3241  2.1158  3.9503
  252MOL0     H33990   3.575   0.871   5.760  2.1575  4.0211  1.7789
  252MOL0     H33991   3.412   0.879   5.686 -1.8291  0.7591  2.9370
  252MOL0     H33992   3.436   0.992   5.907 -1.3612  2.9654  1.8980
  252MOL0     H33993   3.551   1.110   5.840 -0.9796  1.9239  1.4994
  252MOL0     H33994   3.283   1.049   5.708 -2.0749  1.9646 -0.3228
  252MOL0     H33995   3.380   1.198   5.701  0.9188  0.0788 -0.9814
  252MOL0     H33996   3.248   1.089   5.950 -1.0376 -0.6367 -0.9445
  252MOL0     H33997   3.300   1.253   5.931 -0.5846 -0.6119  1.2814
  252MOL0     H33998   3.054   1.127   5.796  3.3610 -2.0240 -0.5511
  252MOL0     H33999   3.142   1.263   5.722  4.5638 -1.2842  0.2711
  252MOL0     H34000   3.042   1.254   6.009 -0.0827  0.8353  1.2292
  252MOL0     H34001   2.950   1.355   5.891 -0.1217  1.3513  0.7228
  252MOL0     H34002   3.186   0.965   5.285 -3.2140 -0.9173 -1.3341
  252MOL0     H34003   3.125   0.887   5.066 -0.0006 -1.3349 -1.1906
  252MOL0     H34004   3.068   0.611   4.830 -0.8092 -1.9177 -0.2897
  252MOL0     H34005   2.948   0.438   4.717 -0.3947  0.0370 -0.3482
  252MOL0     H34006   1.937  -0.175   4.138 -0.0269 -1.8075 -1.5397
  252MOL0     H34007   1.760  -0.175   4.323  0.3413 -3.9674  0.1472
  252MOL0     H34008   1.208   0.098   4.374 -0.4325  0.3698  0.0779
  252MOL0     H34009   1.029   0.061   4.534 -2.0607 -0.5068 -3.4182
  252MOL0     H34010   0.820  -0.055   4.683 -0.1240 -2.1912  2.2922
  252MOL0     H34011   0.839  -0.089   4.504 -1.3757 -1.3790 -0.6305
  252MOL0     H34012   0.794  -0.338   4.655 -0.4269 -1.3775 -3.8922
  252MOL0     H34013   0.730  -0.290   4.513 -2.2821  1.3300  0.6470
  252MOL0     H34014   0.666  -0.183   4.786 -2.3400  1.4286  1.3006
  252MOL0     H34015   0.565  -0.305   4.693 -2.4966  1.1809  2.1076
  252MOL0     H34016   0.525  -0.116   4.524  1.5013 -1.3116  0.0930
  252MOL0     H34017   0.600  -0.007   4.633  1.9075 -1.1737 -4.2585
  252MOL0     H34018   0.233  -0.024   4.832 -1.2660  0.7373 -3.0848
  252MOL0     H34019   1.159  -0.341   4.587 -2.3878  0.2305  0.2600
  252MOL0     H34020   1.357  -0.301   4.436  0.4882  0.6004  2.4943
  253MOL0     O34021   1.935   2.797   5.870 -0.6381  0.5004 -0.6295
  253MOL0     C34022   1.983   2.886   5.796  0.0962  0.3800  0.5817
  253MOL0     O34023   1.911   2.957   5.703 -0.2652  0.0742  0.0960
  253MOL0     C34024   1.793   2.909   5.644 -0.3594 -0.8396  0.1344
  253MOL0     C34025   1.692   2.829   5.698  0.2433  0.1200 -0.2321
  253MOL0     C34026   1.575   2.803   5.618  0.1753 -0.6943  0.2772
  253MOL0     C34027   1.555   2.859   5.487  0.1879  1.0356 -0.8063
  253MOL0     O34028   1.437   2.831   5.427 -0.1435 -0.0836  0.8360
  253MOL0     C34029   1.432   2.790   5.284  0.0811 -0.6464  0.1182
  253MOL0     C34030   1.281   2.791   5.259 -0.4741 -0.4307  0.2132
  253MOL0     C34031   1.247   2.743   5.117  1.0720  0.2103  0.0495
  253MOL0     C34032   1.091   2.730   5.107 -0.1811 -0.3061 -0.0045
  253MOL0     C34033   1.021   2.866   5.086  0.3516 -0.2713  0.6963
  253MOL0     C34034   0.876   2.846   5.107 -0.9012  0.3410  0.1636
  253MOL0     C34035   0.794   2.953   5.029 -0.4868  0.1293  0.2357
  253MOL0     C34036   0.797   2.943   4.877 -0.2825 -1.0672 -0.6819
  253MOL0     N34037   0.796   2.804   4.834 -0.1378  0.7498 -0.2477
  253MOL0     C34038   0.700   2.709   4.868  0.0649  0.0649 -0.0660
  253MOL0     C34039   0.748   2.604   4.804  0.4173 -0.6805  0.0736
  253MOL0     C34040   0.677   2.477   4.805  0.8425  0.7810 -0.6131
  253MOL0     C34041   0.667   2.412   4.945 -0.2244 -0.3191 -0.0689
  253MOL0     C34042   0.583   2.289   4.934  0.3021 -0.6589  0.4162
  253MOL0     C34043   0.544   2.238   5.068  0.1406 -0.4518  0.1164
  253MOL0     O34044   0.422   2.158   5.064  0.0315  0.8605 -0.2802
  253MOL0     C34045   0.382   2.079   5.163  0.1185  0.1935 -0.1089
  253MOL0     C34046   0.465   2.044   5.271 -0.4017  0.0891  0.2791
  253MOL0     C34047   0.422   1.942   5.359 -0.0555  0.0762  0.6967
  253MOL0     C34048   0.533   1.892   5.452 -0.0696  0.1200 -0.4926
  253MOL0     C34049   0.280   1.910   5.365 -0.6012  0.8922  0.8542
  253MOL0     C34050   0.220   1.819   5.462  0.2147 -0.3030 -0.6449
  253MOL0     O34051   0.289   1.796   5.585 -0.7319 -0.2247 -0.4147
  253MOL0     C34052   0.200   1.796   5.695 -0.3939 -0.0233 -1.8759
  253MOL0     C34053   0.082   1.720   5.707 -0.4568  0.7225 -0.6686
  253MOL0     C34054   0.016   1.729   5.822  0.4772 -0.1262 -0.2882
  253MOL0     C34055   0.064   1.793   5.933  0.7248 -0.6040 -0.5628
  253MOL0     O34056  -0.022   1.789   6.037  0.2739  0.3200 -0.6744
  253MOL0     C34057   0.037   1.803   6.168 -0.2268 -0.3527  0.0384
  253MOL0     C34058  -0.062   1.767   6.270 -0.0099  0.2211 -0.3629
  253MOL0     C34059  -0.008   1.806   6.408  0.0167  0.3559 -0.0473
  253MOL0     C34060  -0.119   1.834   6.511  0.4597 -0.5011  0.5818
  253MOL0     C34061  -0.077   1.924   6.627 -0.5373 -0.3695 -0.1317
  253MOL0     C34062  -0.194   1.970   6.701  0.3914  0.2017 -0.0479
  253MOL0     C34063  -0.159   2.071   6.816 -0.3126  0.1476  0.1803
  253MOL0     C34064  -0.291   2.150   6.860  0.3676  0.7647  0.3541
  253MOL0    Cl34065  -0.244   2.297   6.940  0.3539 -0.4085  0.4230
  253MOL0     C34066   0.189   1.861   5.931  0.3954  0.0689  0.1755
  253MOL0     C34067   0.251   1.868   5.813 -0.1651  0.2973  0.8513
  253MOL0     O34068   0.128   1.760   5.422  0.0148 -0.0079  0.4921
  253MOL0     C34069   0.202   1.956   5.259  0.6680  0.9580  0.9707
  253MOL0     C34070   0.253   2.032   5.152 -0.7701 -0.3649 -0.4803
  253MOL0     N34071   0.866   2.629   4.738  0.1622  0.1211 -0.4560
  253MOL0     N34072   0.897   2.752   4.757  0.2592  0.0864 -0.6954
  253MOL0     C34073   1.651   2.950   5.445 -0.7265 -0.3858  0.6054
  253MOL0     C34074   1.763   2.974   5.521  0.4328 -0.7397  0.4249
  253MOL0     C34075   2.128   2.913   5.806 -0.6343 -0.2514  0.5480
  253MOL0     C34076   2.213   2.843   5.887  0.5289  0.1100 -0.4012
  253MOL0     C34077   2.349   2.879   5.902 -0.3351  0.3118  0.2669
  253MOL0     C34078   2.410   2.987   5.835  1.0084 -0.0934 -0.2278
  253MOL0     O34079   2.547   3.006   5.860 -0.1757 -0.4696  0.3199
  253MOL0     C34080   2.619   3.114   5.797  0.0615  0.0127  0.7610
  253MOL0     C34081   2.731   3.146   5.905  0.5014 -0.1515  0.2173
  253MOL0     C34082   2.859   3.061   5.899  0.6266  0.1855  0.2121
  253MOL0     C34083   2.993   3.133   5.955 -0.8613 -0.6635 -0.2290
  253MOL0     C34084   3.106   3.040   5.927 -0.3352  0.1922 -0.1709
  253MOL0     C34085   3.200   2.960   5.913 -0.2070  0.1259 -0.1226
  253MOL0     C34086   2.328   3.065   5.751 -0.0922 -0.2691 -0.1938
  253MOL0     C34087   2.188   3.024   5.733  0.6290  0.0457  0.4567
  253MOL0     H34088   1.701   2.797   5.801  2.5809  0.4628 -0.2643
  253MOL0     H34089   1.501   2.741   5.666 -0.7604  0.7082  0.7195
  253MOL0     H34090   1.474   2.864   5.215  1.2396 -1.3818  0.0067
  253MOL0     H34091   1.480   2.692   5.271  1.2121 -0.4201  2.2105
  253MOL0     H34092   1.253   2.714   5.331  0.3161  0.8019  1.9283
  253MOL0     H34093   1.232   2.886   5.283 -1.0025 -0.4618 -0.7181
  253MOL0     H34094   1.283   2.829   5.060  2.4631 -0.2361  0.2149
  253MOL0     H34095   1.306   2.653   5.096  1.3389 -0.2270  2.4292
  253MOL0     H34096   1.065   2.669   5.020 -0.8133  0.8331 -0.6258
  253MOL0     H34097   1.061   2.675   5.197 -1.7380 -2.1898 -1.5885
  253MOL0     H34098   1.054   2.934   5.165 -0.5356 -0.7004  1.4586
  253MOL0     H34099   1.058   2.910   4.993  2.0915 -0.6674  1.1581
  253MOL0     H34100   0.844   2.746   5.077 -0.9059 -0.0848  1.5280
  253MOL0     H34101   0.852   2.844   5.214  1.1457 -0.8768  0.6529
  253MOL0     H34102   0.693   2.943   5.070 -0.5462  0.9028  0.2812
  253MOL0     H34103   0.830   3.053   5.052 -2.3304  1.1641 -1.0836
  253MOL0     H34104   0.893   2.981   4.839  0.8092 -1.2186  1.7596
  253MOL0     H34105   0.716   3.001   4.831  0.1244  2.5761  2.6510
  253MOL0     H34106   0.601   2.724   4.912 -0.0481  2.1647 -0.9199
  253MOL0     H34107   0.577   2.476   4.760  0.8532 -1.2323 -0.6501
  253MOL0     H34108   0.739   2.419   4.736  0.2351 -0.0048 -0.5102
  253MOL0     H34109   0.628   2.482   5.019  0.3844 -0.3918  0.3266
  253MOL0     H34110   0.771   2.389   4.973 -0.0375 -2.3314 -2.1623
  253MOL0     H34111   0.643   2.215   4.880  0.1893  0.5432 -1.4709
  253MOL0     H34112   0.491   2.312   4.880 -0.3884  0.9759  2.2177
  253MOL0     H34113   0.518   2.323   5.132  0.1986  0.2599 -0.7749
  253MOL0     H34114   0.630   2.187   5.112 -2.5134 -4.9373  0.6840
  253MOL0     H34115   0.571   2.069   5.266 -1.0884  3.1701 -1.8672
  253MOL0     H34116   0.522   1.948   5.546  0.4590  0.4205 -0.6055
  253MOL0     H34117   0.520   1.788   5.483 -0.2645  0.8713  2.2523
  253MOL0     H34118   0.631   1.896   5.405  0.1589 -3.5237 -0.5944
  253MOL0     H34119   0.036   1.659   5.630 -1.1889  0.2947  0.0924
  253MOL0     H34120  -0.077   1.672   5.824  1.4114 -1.7298 -0.3391
  253MOL0     H34121   0.125   1.740   6.186 -0.1351  0.1923  1.7450
  253MOL0     H34122   0.071   1.904   6.193 -0.4464 -0.2503 -0.0787
  253MOL0     H34123  -0.159   1.810   6.243 -1.3989 -2.5358 -0.1687
  253MOL0     H34124  -0.084   1.660   6.265  0.3722  0.2138 -2.6007
  253MOL0     H34125   0.062   1.889   6.397 -0.5700  1.0394  1.2915
  253MOL0     H34126   0.050   1.718   6.438  1.9511  1.5095 -0.2086
  253MOL0     H34127  -0.196   1.882   6.449  2.6173  0.8830 -1.1801
  253MOL0     H34128  -0.158   1.742   6.555 -1.7338  0.2319  0.3129
  253MOL0     H34129  -0.024   2.009   6.582  0.0116 -1.4804 -1.6310
  253MOL0     H34130  -0.008   1.882   6.701 -0.3335  2.4423  1.4293
  253MOL0     H34131  -0.270   2.007   6.633  1.4530 -0.3460 -1.5775
  253MOL0     H34132  -0.245   1.886   6.749 -0.6481 -0.1245 -1.6827
  253MOL0     H34133  -0.088   2.143   6.774 -0.1908 -0.6509 -1.0466
  253MOL0     H34134  -0.113   2.020   6.901 -0.2015 -0.6429 -0.3400
  253MOL0     H34135  -0.350   2.086   6.926  1.7135 -3.4266 -2.1488
  253MOL0     H34136  -0.335   2.177   6.763  2.8607  0.3472 -0.9820
  253MOL0     H34137   0.240   1.900   6.019 -0.3330  2.0509 -0.2367
  253MOL0     H34138   0.346   1.920   5.819 -1.1203  2.1255  0.9293
  253MOL0     H34139   0.099   1.923   5.254  0.9387  0.1432  0.5587
  253MOL0     H34140   0.191   2.056   5.067 -2.6329  0.6171  1.0823
  253MOL0     H34141   1.636   3.007   5.354  0.9525  0.2064  0.6617
  253MOL0     H34142   1.829   3.055   5.492 -1.2563  1.0832  1.4133
  253MOL0     H34143   2.184   2.759   5.949  1.0796 -1.1406 -1.7994
  253MOL0     H34144   2.414   2.823   5.968  2.9164 -1.1478 -3.7403
  253MOL0     H34145   2.665   3.097   5.699  0.6628 -1.4486  1.2617
  253MOL0     H34146   2.556   3.202   5.784  2.4108  1.7270  0.3532
  253MOL0     H34147   2.683   3.126   6.001 -2.2062 -4.4462 -1.7389
  253MOL0     H34148   2.753   3.253   5.892 -1.6222  0.9215  4.0666
  253MOL0     H34149   2.878   3.024   5.798  0.9016 -0.7389  0.5837
  253MOL0     H34150   2.847   2.968   5.957 -0.6649 -1.1995 -2.1449
  253MOL0     H34151   2.970   3.142   6.062 -2.3604  3.0072 -0.7291
  253MOL0     H34152   3.005   3.237   5.925 -1.0837 -0.1586  1.3375
  253MOL0     H34153   3.272   2.882   5.908  0.0153  0.3312 -0.1664
  253MOL0     H34154   2.365   3.134   5.675 -1.3965 -1.3477 -1.8707
  253MOL0     H34155   2.125   3.083   5.665  1.3394 -1.0378 -1.2079
  254MOL0     O34156   7.854   4.248   3.595  0.5145  0.1693 -0.3335
  254MOL0     C34157   7.769   4.158   3.628 -0.6769 -0.7626 -0.1868
  254MOL0     O34158   7.789   4.026   3.602 -0.3012 -0.3426 -0.1583
  254MOL0     C34159   7.894   3.991   3.529  0.4561  0.0889  0.6331
  254MOL0     C34160   8.010   3.924   3.571 -0.8792 -0.4570  0.3503
  254MOL0     C34161   8.121   3.895   3.494  0.1608 -0.1946  0.0134
  254MOL0     C34162   8.110   3.926   3.351 -0.4235 -0.2884 -0.4731
  254MOL0     O34163   8.191   3.888   3.241  0.0934 -0.1471  0.7615
  254MOL0     C34164   8.322   3.836   3.260 -0.5935 -0.9120 -0.4938
  254MOL0     C34165   8.322   3.681   3.296  0.2910  0.2264 -0.5668
  254MOL0     C34166   8.451   3.612   3.267  0.5242  0.2459  0.2751
  254MOL0     C34167   8.566   3.677   3.349 -0.1452  1.5572 -0.0349
  254MOL0     C34168   8.707   3.612   3.356  0.4976  0.2198  0.6736
  254MOL0     C34169   8.768   3.604   3.213  0.2170  0.3313  0.6283
  254MOL0     C34170   8.921   3.606   3.215 -0.9089 -0.3045 -0.4288
  254MOL0     C34171   8.974   3.483   3.301  0.1263 -0.4841 -0.8951
  254MOL0     N34172   9.118   3.496   3.288  0.3566  0.4725  0.1148
  254MOL0     C34173   9.185   3.449   3.177  0.6193 -0.4156 -0.6659
  254MOL0     C34174   9.312   3.490   3.195 -0.1785  1.1597  0.1678
  254MOL0     C34175   9.425   3.487   3.091  0.2441  0.9939  0.4776
  254MOL0     C34176   9.416   3.612   3.011  0.4409  0.1258  0.8156
  254MOL0     C34177   9.527   3.611   2.911 -0.1771  0.4251  0.0377
  254MOL0     C34178   9.502   3.729   2.821 -0.2677  0.5173  0.6476
  254MOL0     O34179   9.572   3.724   2.691  0.1464 -0.5671 -0.2486
  254MOL0     C34180   9.535   3.811   2.588 -0.0345  1.1276 -0.7690
  254MOL0     C34181   9.460   3.924   2.603 -0.1513  0.0589 -0.2817
  254MOL0     C34182   9.420   4.008   2.494  0.7748 -0.2636 -0.6758
  254MOL0     C34183   9.306   4.102   2.523 -1.2003  0.3160  1.1310
  254MOL0     C34184   9.477   3.981   2.366  0.5472 -0.0450 -1.3621
  254MOL0     C34185   9.452   4.079   2.258  0.3143 -0.3382  0.1882
  254MOL0     O34186   9.419   4.209   2.295 -0.3234 -0.3712 -0.1648
  254MOL0     C34187   9.432   4.311   2.203  0.1162  0.1412 -0.4156
  254MOL0     C34188   9.559   4.339   2.144 -0.6835  1.0046  0.0067
  254MOL0     C34189   9.567   4.456   2.071 -0.3766 -0.0469  0.3275
  254MOL0     C34190   9.470   4.534   2.035 -0.4846  0.6554  0.5440
  254MOL0     O34191   9.512   4.627   1.945 -0.4480 -0.1299  0.3075
  254MOL0     C34192   9.434   4.745   1.957  0.1011 -0.0019 -0.5546
  254MOL0     C34193   9.504   4.848   1.866 -0.2496  0.1439 -0.8497
  254MOL0     C34194   9.643   4.890   1.908 -0.0280  0.5747  0.6712
  254MOL0     C34195   9.683   5.004   1.816  0.7580  0.0840 -0.0944
  254MOL0     C34196   9.830   5.032   1.818  0.3619 -0.4808 -0.1210
  254MOL0     C34197   9.872   5.174   1.766 -0.2389 -0.3079 -0.5882
  254MOL0     C34198  10.021   5.198   1.752  0.1749  1.5821  0.0903
  254MOL0     C34199  10.094   5.163   1.882 -0.3858 -0.4197 -0.6057
  254MOL0    Cl34200  10.257   5.232   1.864 -0.7086 -0.1805 -0.1032
  254MOL0     C34201   9.342   4.502   2.090  0.9731 -0.3599  0.4085
  254MOL0     C34202   9.317   4.388   2.165  0.7060 -0.0273  0.5270
  254MOL0     O34203   9.473   4.045   2.148 -0.0687 -0.0245 -0.2137
  254MOL0     C34204   9.561   3.863   2.345  0.4913 -0.4664  0.4332
  254MOL0     C34205   9.579   3.777   2.455 -0.4275 -0.0128  0.0269
  254MOL0     N34206   9.317   3.558   3.320 -0.0765 -1.0002  1.1807
  254MOL0     N34207   9.204   3.554   3.374 -0.0323  0.1691  0.4935
  254MOL0     C34208   7.992   3.995   3.311  0.3039  0.7868  0.3191
  254MOL0     C34209   7.883   4.015   3.390  0.1549 -0.3010  0.0417
  254MOL0     C34210   7.646   4.197   3.703 -0.1442  0.4041 -1.0583
  254MOL0     C34211   7.614   4.337   3.720 -0.3146  0.4845  1.2575
  254MOL0     C34212   7.493   4.371   3.767  0.3326 -0.3903 -0.0154
  254MOL0     C34213   7.401   4.279   3.816 -0.2326 -0.0554  0.7859
  254MOL0     O34214   7.288   4.332   3.871 -0.4779  0.1657  1.0235
  254MOL0     C34215   7.254   4.295   4.009  0.2666  0.0446  0.6949
  254MOL0     C34216   7.281   4.429   4.082  0.3977 -1.0354  0.4660
  254MOL0     C34217   7.177   4.547   4.034  0.1700 -0.3508 -0.5366
  254MOL0     C34218   7.200   4.687   4.101 -0.4113 -0.1551 -0.2175
  254MOL0     C34219   7.111   4.790   4.053  0.6747  0.1355  0.1401
  254MOL0     C34220   7.031   4.875   4.022 -0.7848 -0.3863  0.2235
  254MOL0     C34221   7.433   4.143   3.801  0.0634  0.0179  0.3244
  254MOL0     C34222   7.548   4.096   3.740  0.3980 -0.2120  0.6612
  254MOL0     H34223   8.024   3.881   3.670  1.7465 -0.7783 -0.0736
  254MOL0     H34224   8.217   3.848   3.511  1.3318  1.1713 -2.2558
  254MOL0     H34225   8.379   3.849   3.167  2.5424 -1.1253  1.2524
  254MOL0     H34226   8.380   3.884   3.340 -0.5590 -1.3025 -0.2789
  254MOL0     H34227   8.288   3.663   3.398 -0.0186 -2.8037 -1.0972
  254MOL0     H34228   8.253   3.639   3.222 -1.3268  0.9937  0.4731
  254MOL0     H34229   8.456   3.505   3.290  0.3709  0.3728  0.9268
  254MOL0     H34230   8.477   3.617   3.161  2.5518  2.3994  0.7845
  254MOL0     H34231   8.578   3.775   3.301  1.0124  0.0553 -3.0584
  254MOL0     H34232   8.525   3.693   3.450  0.2210  1.7493  0.0852
  254MOL0     H34233   8.760   3.667   3.434  2.3635 -0.7987  0.1713
  254MOL0     H34234   8.692   3.512   3.398  1.4353  1.1747  3.4727
  254MOL0     H34235   8.722   3.520   3.161 -4.8661  2.6424  0.7082
  254MOL0     H34236   8.740   3.695   3.158 -1.1182 -0.3283  0.1842
  254MOL0     H34237   8.960   3.601   3.112 -1.8601 -1.7770 -0.7491
  254MOL0     H34238   8.939   3.698   3.271  0.2781 -0.8939  0.1958
  254MOL0     H34239   8.932   3.389   3.263 -1.2340 -1.9244  3.5809
  254MOL0     H34240   8.960   3.497   3.408  0.0423  2.1267 -1.1742
  254MOL0     H34241   9.153   3.399   3.086 -0.7150 -0.9023  0.0461
  254MOL0     H34242   9.517   3.473   3.150 -1.7135 -2.8611  3.0529
  254MOL0     H34243   9.427   3.395   3.033 -1.2405  0.3080  1.4716
  254MOL0     H34244   9.417   3.698   3.079 -0.8903  1.8844 -1.2498
  254MOL0     H34245   9.322   3.609   2.955 -0.1834 -1.2389  1.8865
  254MOL0     H34246   9.520   3.517   2.856 -3.0148  1.4319 -1.5636
  254MOL0     H34247   9.624   3.619   2.961  0.0034  3.6617 -0.5827
  254MOL0     H34248   9.538   3.816   2.878  0.0074  1.7645 -1.3183
  254MOL0     H34249   9.394   3.739   2.806 -0.5194  0.8144  2.4550
  254MOL0     H34250   9.406   3.946   2.695 -3.0661 -0.0591 -1.8582
  254MOL0     H34251   9.241   4.082   2.608 -1.0518  0.0361  1.1812
  254MOL0     H34252   9.326   4.208   2.540  0.9368  0.6260 -2.2284
  254MOL0     H34253   9.238   4.093   2.438  0.6217 -1.8118 -0.2314
  254MOL0     H34254   9.642   4.273   2.168 -2.6826 -1.0129  1.8287
  254MOL0     H34255   9.668   4.472   2.034 -0.9954  0.5810 -1.2110
  254MOL0     H34256   9.333   4.724   1.921 -0.9993  0.2792  2.1640
  254MOL0     H34257   9.438   4.791   2.056  0.8523 -1.6454  0.2126
  254MOL0     H34258   9.507   4.810   1.763  2.1790  0.1244 -0.8308
  254MOL0     H34259   9.444   4.939   1.855  2.4409  2.1753  0.3564
  254MOL0     H34260   9.713   4.806   1.911  2.2462  2.1439 -2.4668
  254MOL0     H34261   9.634   4.924   2.011  0.3942 -0.1920  0.9666
  254MOL0     H34262   9.662   4.973   1.713 -4.3252  1.5684  0.2286
  254MOL0     H34263   9.617   5.089   1.835 -0.2461 -0.6725 -0.0900
  254MOL0     H34264   9.894   4.958   1.768  1.4851 -0.8031  1.7070
  254MOL0     H34265   9.860   5.018   1.922  0.5926 -0.3272 -0.1654
  254MOL0     H34266   9.823   5.184   1.668  1.1098  0.5292 -1.2121
  254MOL0     H34267   9.831   5.253   1.829 -2.7456 -2.6277  0.9144
  254MOL0     H34268  10.044   5.303   1.733 -2.1747  1.7424 -2.4939
  254MOL0     H34269  10.051   5.133   1.669 -1.0524 -0.0964  0.8991
  254MOL0     H34270  10.105   5.058   1.911 -2.9938 -0.2684  1.3489
  254MOL0     H34271  10.051   5.216   1.968  0.4131  0.1875 -0.5685
  254MOL0     H34272   9.256   4.566   2.078  0.8858 -0.8186 -1.7470
  254MOL0     H34273   9.216   4.373   2.201  0.4948  0.3072  0.0917
  254MOL0     H34274   9.606   3.839   2.249 -1.2442  0.9999 -0.8190
  254MOL0     H34275   9.652   3.698   2.439  2.0073  2.2315 -0.6944
  254MOL0     H34276   7.977   4.020   3.206  0.7493 -2.6051 -0.6866
  254MOL0     H34277   7.794   4.058   3.344  1.7766  1.2246 -1.8547
  254MOL0     H34278   7.693   4.403   3.687 -0.4920 -0.3549 -1.0284
  254MOL0     H34279   7.462   4.471   3.796 -1.5274 -0.9588  0.1076
  254MOL0     H34280   7.153   4.253   4.020  0.0950 -0.1722 -1.2955
  254MOL0     H34281   7.314   4.225   4.067  0.6181  1.7580  2.4966
  254MOL0     H34282   7.384   4.462   4.069 -0.4582  1.5913 -0.2685
  254MOL0     H34283   7.271   4.411   4.190  1.7716 -0.8490  0.6411
  254MOL0     H34284   7.078   4.514   4.067 -0.2352 -0.5331 -1.8662
  254MOL0     H34285   7.172   4.550   3.924  0.8389 -2.5562 -0.6716
  254MOL0     H34286   7.303   4.722   4.085 -0.2910  0.8925  2.3684
  254MOL0     H34287   7.189   4.684   4.210 -0.6589 -1.0389 -0.2592
  254MOL0     H34288   6.955   4.949   4.037 -0.6284  0.2978 -2.0196
  254MOL0     H34289   7.372   4.060   3.837 -0.6304  0.7468  0.8593
  254MOL0     H34290   7.568   3.990   3.732 -1.4714 -0.5632  0.2914
  255MOL0     O34291   7.870   0.978   0.175 -0.3180  0.7783  0.2186
  255MOL0     C34292   7.862   0.972   0.054  0.2345 -0.6397 -0.1443
  255MOL0     O34293   7.938   0.906  -0.029 -0.5232 -0.0335 -0.4029
  255MOL0     C34294   7.970   0.777   0.008 -0.4827  0.4003  1.1908
  255MOL0     C34295   7.881   0.675   0.031  0.1630  0.3243  0.7586
  255MOL0     C34296   7.925   0.547   0.060  0.6901 -0.9850 -0.8439
  255MOL0     C34297   8.059   0.507   0.054  0.9112 -0.0792  0.2723
  255MOL0     O34298   8.102   0.377   0.065 -0.4419 -0.7953  0.8647
  255MOL0     C34299   8.076   0.311  -0.065 -0.7916  0.5803 -0.3364
  255MOL0     C34300   8.133   0.167  -0.065  1.1511 -0.3099 -0.1254
  255MOL0     C34301   8.052   0.073   0.026 -0.5349 -0.0209  0.2219
  255MOL0     C34302   8.099  -0.066   0.015 -0.6325  0.3907 -0.5685
  255MOL0     C34303   7.990  -0.158   0.082  0.6793 -1.0242  0.6749
  255MOL0     C34304   8.040  -0.299   0.029  0.0132 -0.0082  0.4670
  255MOL0     C34305   7.954  -0.430   0.078 -0.0993  1.0102 -0.1738
  255MOL0     C34306   8.002  -0.544  -0.007  0.8247  0.3001 -0.0876
  255MOL0     N34307   8.135  -0.587   0.036 -0.6011  0.0227 -0.5357
  255MOL0     C34308   8.252  -0.560  -0.027  0.0281 -0.0834 -0.1898
  255MOL0     C34309   8.350  -0.617   0.039  0.5603 -0.2271 -0.0826
  255MOL0     C34310   8.489  -0.614  -0.000 -0.4348 -0.7459 -0.3622
  255MOL0     C34311   8.550  -0.754  -0.017 -0.5953  0.2628  0.3321
  255MOL0     C34312   8.691  -0.737  -0.100 -0.1074  0.9021 -0.1292
  255MOL0     C34313   8.751  -0.874  -0.146 -0.5057  0.6526 -1.0763
  255MOL0     O34314   8.791  -0.934  -0.016  0.1195  0.1783 -0.0788
  255MOL0     C34315   8.865  -1.054  -0.011 -0.1165 -0.1275 -0.0635
  255MOL0     C34316   8.896  -1.111  -0.132  0.3679  0.4355  0.0089
  255MOL0     C34317   8.986  -1.210  -0.151  0.9140  0.5866  0.0941
  255MOL0     C34318   9.000  -1.286  -0.281  0.2779  0.3422 -0.8895
  255MOL0     C34319   9.048  -1.263  -0.038 -0.2649  0.7932 -0.1405
  255MOL0     C34320   9.140  -1.382  -0.045 -0.4233 -0.4076 -0.1804
  255MOL0     O34321   9.143  -1.460   0.074 -0.4432  0.6125  0.4026
  255MOL0     C34322   9.237  -1.559   0.079 -0.0955  0.6573  1.4084
  255MOL0     C34323   9.208  -1.689   0.048  0.5164 -0.4302 -0.2997
  255MOL0     C34324   9.303  -1.788   0.065  0.0072  0.9801 -0.1510
  255MOL0     C34325   9.433  -1.763   0.123 -0.0566  0.5829 -0.3104
  255MOL0     O34326   9.527  -1.868   0.140 -0.3864 -0.3399  0.3136
  255MOL0     C34327   9.579  -1.914   0.018  0.4006  1.4408 -0.0352
  255MOL0     C34328   9.651  -2.050   0.030  0.0250 -0.7080 -0.7179
  255MOL0     C34329   9.734  -2.045   0.162  0.1836 -0.4363  0.7829
  255MOL0     C34330   9.716  -2.175   0.237  0.0282  0.0441 -0.6948
  255MOL0     C34331   9.808  -2.187   0.353 -0.9249  0.0068 -0.6345
  255MOL0     C34332   9.768  -2.306   0.436  0.0887 -0.0530 -0.7207
  255MOL0     C34333   9.760  -2.442   0.371  0.0039 -0.3210  0.7054
  255MOL0     C34334   9.878  -2.484   0.294  0.0896 -0.0727  0.9306
  255MOL0    Cl34335  10.024  -2.495   0.398  0.2822 -0.7662 -0.1684
  255MOL0     C34336   9.454  -1.630   0.176  0.0085  0.2272 -0.2945
  255MOL0     C34337   9.358  -1.530   0.149  0.6450 -0.1822  0.5670
  255MOL0     O34338   9.215  -1.392  -0.142  0.5691  0.4513 -0.3182
  255MOL0     C34339   9.015  -1.212   0.089 -0.2904  0.1335 -0.0808
  255MOL0     C34340   8.930  -1.104   0.099 -0.0756 -0.7218  0.0547
  255MOL0     N34341   8.293  -0.683   0.141  0.2708 -0.2400 -0.5129
  255MOL0     N34342   8.165  -0.664   0.146 -0.0588  1.0639 -0.5431
  255MOL0     C34343   8.156   0.602   0.031  0.5228  0.5100 -0.0034
  255MOL0     C34344   8.112   0.737   0.005 -0.0227 -0.0618  0.8955
  255MOL0     C34345   7.746   1.057   0.001 -0.6153 -0.5517 -0.6533
  255MOL0     C34346   7.632   1.101   0.077 -0.0592 -0.6085  0.8662
  255MOL0     C34347   7.527   1.175   0.024 -1.2927 -0.9350 -0.1813
  255MOL0     C34348   7.516   1.176  -0.117 -0.1043 -0.5516  0.1580
  255MOL0     O34349   7.405   1.238  -0.175 -0.0882 -0.4712  0.6686
  255MOL0     C34350   7.306   1.137  -0.214  0.0924 -1.0291 -0.9511
  255MOL0     C34351   7.210   1.213  -0.308 -0.1101  0.2996 -0.6400
  255MOL0     C34352   7.098   1.112  -0.353  1.3132 -0.2515 -0.5388
  255MOL0     C34353   6.980   1.177  -0.440 -0.8158  0.8245 -0.4211
  255MOL0     C34354   6.917   1.295  -0.376  0.5122 -1.0163  1.0585
  255MOL0     C34355   6.856   1.397  -0.339 -0.4734 -0.7042  0.5041
  255MOL0     C34356   7.632   1.136  -0.193 -1.2339  0.3347 -0.0349
  255MOL0     C34357   7.744   1.078  -0.134 -0.2596  0.1288  0.5541
  255MOL0     H34358   7.773   0.679   0.045  0.3057 -2.2760  3.4424
  255MOL0     H34359   7.861   0.463   0.086  0.9213 -0.3660  2.1513
  255MOL0     H34360   7.969   0.304  -0.088 -0.4137  0.3303 -2.1287
  255MOL0     H34361   8.119   0.353  -0.156 -2.4548  0.8043 -1.0661
  255MOL0     H34362   8.143   0.121  -0.164 -1.5909  0.6143 -0.9485
  255MOL0     H34363   8.233   0.171  -0.022 -0.3700 -0.7410  3.9088
  255MOL0     H34364   8.058   0.114   0.128 -0.4622  2.2941 -0.6521
  255MOL0     H34365   7.951   0.087  -0.012 -0.2050  2.3898  0.0527
  255MOL0     H34366   8.090  -0.080  -0.093  4.1128  2.3978 -1.5291
  255MOL0     H34367   8.203  -0.085   0.045 -0.8899 -2.2766 -1.1277
  255MOL0     H34368   7.997  -0.145   0.191  0.5861  1.5574  0.4495
  255MOL0     H34369   7.893  -0.120   0.048  1.1208 -0.0833  0.4359
  255MOL0     H34370   8.021  -0.286  -0.077 -0.4494  2.5719  0.7981
  255MOL0     H34371   8.147  -0.320   0.034  0.3759  1.4178 -0.6198
  255MOL0     H34372   7.970  -0.454   0.184 -2.7671 -0.7837 -0.0752
  255MOL0     H34373   7.846  -0.424   0.067 -0.2138 -2.2112 -1.9848
  255MOL0     H34374   7.997  -0.512  -0.112 -3.8132  0.4469 -0.0423
  255MOL0     H34375   7.934  -0.630  -0.001  0.0331  0.7545 -1.9100
  255MOL0     H34376   8.267  -0.502  -0.118  3.5184 -1.2545 -0.4917
  255MOL0     H34377   8.508  -0.570  -0.098  1.5587 -2.3493 -0.7755
  255MOL0     H34378   8.543  -0.554   0.074 -1.0910  0.1630 -0.6012
  255MOL0     H34379   8.494  -0.831  -0.068  3.7575 -3.3807  0.4240
  255MOL0     H34380   8.570  -0.797   0.082  1.4224 -2.4788 -1.1565
  255MOL0     H34381   8.761  -0.679  -0.039 -0.8304  0.2204  1.4232
  255MOL0     H34382   8.684  -0.672  -0.187  0.4457 -0.0179 -0.8717
  255MOL0     H34383   8.829  -0.849  -0.219 -0.1376  1.8966 -0.2877
  255MOL0     H34384   8.682  -0.939  -0.201  1.6284 -0.0732 -3.0797
  255MOL0     H34385   8.847  -1.079  -0.224 -1.6126 -1.4735  0.3237
  255MOL0     H34386   9.097  -1.249  -0.316  0.4976  2.1758  1.4355
  255MOL0     H34387   9.005  -1.395  -0.276 -1.0859  0.3175  0.3512
  255MOL0     H34388   8.922  -1.256  -0.351  0.3118  2.1916 -0.1829
  255MOL0     H34389   9.109  -1.717   0.014 -1.2927 -0.3709  4.3103
  255MOL0     H34390   9.279  -1.888   0.032 -0.3659  1.1521 -0.3983
  255MOL0     H34391   9.500  -1.925  -0.056 -0.7396 -0.8886  1.4195
  255MOL0     H34392   9.658  -1.845  -0.013  0.8378  1.1674  0.4479
  255MOL0     H34393   9.575  -2.130   0.030  1.6871 -2.4071 -2.5187
  255MOL0     H34394   9.712  -2.076  -0.057  1.5957  2.3785 -0.6631
  255MOL0     H34395   9.728  -1.959   0.229  5.0052 -0.0653  1.0878
  255MOL0     H34396   9.838  -2.029   0.131 -0.3691  1.0747 -0.3922
  255MOL0     H34397   9.612  -2.171   0.271  0.4752  4.0460  0.7854
  255MOL0     H34398   9.732  -2.260   0.171  2.7300  1.3417 -1.8691
  255MOL0     H34399   9.804  -2.100   0.419  0.8332 -1.3107  1.3342
  255MOL0     H34400   9.907  -2.208   0.313 -0.9199  1.1871 -1.2741
  255MOL0     H34401   9.832  -2.309   0.525  1.0399  2.4508 -1.2183
  255MOL0     H34402   9.668  -2.284   0.474  0.8771  1.7314  0.5069
  255MOL0     H34403   9.675  -2.441   0.303 -1.8992  1.3232  2.9571
  255MOL0     H34404   9.741  -2.514   0.451 -1.4372 -0.3293  0.3778
  255MOL0     H34405   9.904  -2.411   0.217  1.1715 -0.7784  0.6070
  255MOL0     H34406   9.853  -2.582   0.252  4.3399 -1.5998  1.4884
  255MOL0     H34407   9.544  -1.607   0.233  0.6823  1.7825 -1.8927
  255MOL0     H34408   9.367  -1.429   0.187 -1.2708  0.2277  0.0504
  255MOL0     H34409   9.070  -1.244   0.176  1.8936  2.4822 -0.4732
  255MOL0     H34410   8.912  -1.057   0.195 -2.3246 -0.0574 -0.6059
  255MOL0     H34411   8.254   0.564   0.003 -0.8245 -4.1243  0.6824
  255MOL0     H34412   8.185   0.816  -0.011 -1.9748  1.4335 -1.2826
  255MOL0     H34413   7.614   1.068   0.179 -1.3968 -4.5425 -0.4370
  255MOL0     H34414   7.441   1.209   0.081 -0.7665  3.1605 -1.4907
  255MOL0     H34415   7.361   1.059  -0.267  0.7524 -1.1970 -0.0457
  255MOL0     H34416   7.262   1.077  -0.133  3.8749  0.2585  2.3974
  255MOL0     H34417   7.260   1.255  -0.396 -0.2992  0.8093 -0.5113
  255MOL0     H34418   7.171   1.293  -0.244  2.1858  1.3058 -0.4096
  255MOL0     H34419   7.047   1.066  -0.268 -1.3202 -0.4146 -2.0997
  255MOL0     H34420   7.142   1.035  -0.417 -1.4823 -0.4628 -2.3855
  255MOL0     H34421   6.915   1.095  -0.472  0.8013 -2.1075  3.0502
  255MOL0     H34422   7.022   1.222  -0.530  1.4009  3.4589  1.7658
  255MOL0     H34423   6.832   1.489  -0.290 -2.8452  0.4141 -2.4746
  255MOL0     H34424   7.632   1.147  -0.301 -0.6477 -4.6121 -0.7690
  255MOL0     H34425   7.828   1.045  -0.195  1.3909  1.6874  1.8621
  256MOL0     O34426   6.221   7.618  10.809 -0.1080 -0.3097  0.1308
  256MOL0     C34427   6.250   7.602  10.696 -0.6844 -0.4381 -0.2870
  256MOL0     O34428   6.195   7.670  10.588  0.1278 -0.7665  0.2817
  256MOL0     C34429   6.104   7.770  10.625  0.1542  1.5733 -0.6136
  256MOL0     C34430   5.972   7.728  10.635  0.7675 -0.5083  0.8325
  256MOL0     C34431   5.873   7.826  10.687 -0.4926 -0.6127 -0.1072
  256MOL0     C34432   5.910   7.952  10.734 -0.2320  0.5138  0.0420
  256MOL0     O34433   5.827   8.057  10.782 -1.6591 -0.0624  0.6102
  256MOL0     C34434   5.696   8.038  10.764  0.0830 -0.7018  0.2658
  256MOL0     C34435   5.627   8.168  10.793  0.8993 -0.2085  0.0196
  256MOL0     C34436   5.495   8.175  10.710 -0.7545  0.2290  0.9342
  256MOL0     C34437   5.405   8.299  10.755  0.0089 -0.1309 -0.5291
  256MOL0     C34438   5.264   8.262  10.799 -0.6159 -0.1406  0.1231
  256MOL0     C34439   5.263   8.200  10.944  0.0376  0.2557  0.1682
  256MOL0     C34440   5.119   8.168  11.006 -0.0851  0.4348  0.8321
  256MOL0     C34441   5.066   8.042  10.942  0.3280  0.5812  0.3637
  256MOL0     N34442   4.990   8.074  10.816 -0.0462  0.2838 -0.3941
  256MOL0     C34443   4.902   8.178  10.798  0.0662 -0.3253  0.1161
  256MOL0     C34444   4.804   8.148  10.706  0.7910 -0.3691 -0.5395
  256MOL0     C34445   4.690   8.239  10.666  0.2342  0.6436  0.2608
  256MOL0     C34446   4.566   8.158  10.600 -0.5097 -0.3230 -0.0750
  256MOL0     C34447   4.576   8.165  10.448 -0.9849  0.1216 -1.1968
  256MOL0     C34448   4.460   8.109  10.381 -0.3295  0.5643  0.1112
  256MOL0     O34449   4.346   8.193  10.391  0.6848 -0.3709 -0.7406
  256MOL0     C34450   4.239   8.173  10.301 -0.3288 -0.0989 -1.6820
  256MOL0     C34451   4.227   8.078  10.199  0.7334 -0.1021 -0.0531
  256MOL0     C34452   4.127   8.065  10.101 -1.3302 -0.1167  0.4146
  256MOL0     C34453   4.154   7.967   9.989  0.7034  0.2743  0.0212
  256MOL0     C34454   4.007   8.141  10.121 -0.2741 -0.4121 -0.6169
  256MOL0     C34455   3.892   8.136  10.038  0.5090  0.4549 -0.1272
  256MOL0     O34456   3.784   8.206  10.077 -0.6372  0.1523  0.8167
  256MOL0     C34457   3.680   8.222   9.989 -0.3639  0.2586  0.9599
  256MOL0     C34458   3.547   8.208  10.039 -0.0655 -0.4478  0.8871
  256MOL0     C34459   3.440   8.221   9.950  0.3772 -0.5779 -0.1886
  256MOL0     C34460   3.451   8.261   9.813 -0.9479 -0.8077  0.3556
  256MOL0     O34461   3.332   8.280   9.750  0.7568  0.5972  0.3640
  256MOL0     C34462   3.332   8.284   9.602  0.9565  0.5547 -0.0848
  256MOL0     C34463   3.336   8.427   9.543 -0.6483 -0.2674  0.9539
  256MOL0     C34464   3.367   8.420   9.390  0.4837 -0.2796 -0.5237
  256MOL0     C34465   3.406   8.557   9.347 -0.5124  0.5304  0.4162
  256MOL0     C34466   3.557   8.576   9.317 -0.4634  0.5381 -0.6157
  256MOL0     C34467   3.624   8.493   9.205 -0.8124  1.0749  0.2598
  256MOL0     C34468   3.532   8.470   9.084  0.5179 -0.2144 -0.3383
  256MOL0     C34469   3.603   8.408   8.971  0.0664 -0.1930  0.3476
  256MOL0    Cl34470   3.494   8.380   8.829  0.1187 -0.0322 -0.0729
  256MOL0     C34471   3.587   8.285   9.770  1.1035 -0.8790  0.3608
  256MOL0     C34472   3.699   8.252   9.853  0.5384  0.5664  0.9010
  256MOL0     O34473   3.896   8.074   9.937  0.0369  0.3919 -0.6785
  256MOL0     C34474   4.012   8.227  10.234 -0.2536  0.0060 -0.6549
  256MOL0     C34475   4.121   8.244  10.320 -0.5014  0.8195 -0.1516
  256MOL0     N34476   4.836   8.021  10.663 -0.4022 -0.4822  0.6518
  256MOL0     N34477   4.945   7.988  10.715  0.1104 -0.3048 -0.2910
  256MOL0     C34478   6.046   7.982  10.727 -0.3059  0.5983  0.1733
  256MOL0     C34479   6.141   7.895  10.672  0.4916  0.2175  1.2885
  256MOL0     C34480   6.340   7.486  10.672  0.3279 -0.6099 -0.1816
  256MOL0     C34481   6.335   7.409  10.557  0.7344 -0.1306 -0.2695
  256MOL0     C34482   6.435   7.318  10.517 -0.6823  0.0223 -0.4914
  256MOL0     C34483   6.540   7.294  10.605  0.1481  0.0900 -0.2695
  256MOL0     O34484   6.645   7.205  10.579  0.8556 -0.4986  0.6656
  256MOL0     C34485   6.659   7.150  10.449 -0.6567  0.4677  0.1781
  256MOL0     C34486   6.787   7.063  10.448  0.1188 -0.0566  0.4868
  256MOL0     C34487   6.904   7.139  10.378  0.1553  0.2978  0.4005
  256MOL0     C34488   6.969   7.253  10.451 -0.0381  0.3322  0.1712
  256MOL0     C34489   7.080   7.201  10.532 -0.0098  0.3446 -0.1384
  256MOL0     C34490   7.163   7.159  10.608  0.3649  0.1548 -0.2285
  256MOL0     C34491   6.542   7.356  10.726  1.0297 -0.4129  0.3629
  256MOL0     C34492   6.443   7.451  10.760  0.3452  0.3798 -0.5642
  256MOL0     H34493   5.940   7.628  10.606 -0.9780 -0.1320  1.3640
  256MOL0     H34494   5.768   7.803  10.701 -0.6107  1.2886  3.0779
  256MOL0     H34495   5.670   8.012  10.661  1.7427 -2.6765  0.2742
  256MOL0     H34496   5.650   7.956  10.820 -2.1728 -1.8973 -3.0241
  256MOL0     H34497   5.594   8.162  10.897  3.3266 -1.8500  0.7805
  256MOL0     H34498   5.690   8.254  10.771  1.6146 -1.0420 -1.3201
  256MOL0     H34499   5.514   8.196  10.604 -0.6562  3.8263  1.5199
  256MOL0     H34500   5.447   8.078  10.719  0.3577 -0.4696 -0.2567
  256MOL0     H34501   5.444   8.365  10.833  0.0412  2.8168 -2.8695
  256MOL0     H34502   5.393   8.370  10.673 -2.3421  0.9900  0.6959
  256MOL0     H34503   5.213   8.359  10.795  1.5803  1.0506 -1.0335
  256MOL0     H34504   5.215   8.191  10.732  0.1160 -2.9616  2.3911
  256MOL0     H34505   5.318   8.106  10.951 -0.5703  0.0088  1.9330
  256MOL0     H34506   5.308   8.268  11.017  1.1840 -2.0973  1.7611
  256MOL0     H34507   5.135   8.126  11.106 -0.7499 -0.7232  0.4705
  256MOL0     H34508   5.046   8.248  10.992 -0.6005 -0.3382 -1.3992
  256MOL0     H34509   5.015   7.985  11.020  3.2553 -0.4282  1.6757
  256MOL0     H34510   5.155   7.990  10.905  1.4950  1.3908  1.9077
  256MOL0     H34511   4.886   8.267  10.859 -0.0223  0.1321 -0.5615
  256MOL0     H34512   4.659   8.281  10.762 -2.2255  0.9383 -0.6002
  256MOL0     H34513   4.727   8.320  10.603 -0.9649  1.4556  0.5592
  256MOL0     H34514   4.476   8.213  10.628 -0.1394 -0.6080  1.8638
  256MOL0     H34515   4.569   8.055  10.637 -4.0248 -0.0420  1.3674
  256MOL0     H34516   4.670   8.115  10.421 -1.2811 -0.5245 -1.0578
  256MOL0     H34517   4.584   8.270  10.419  1.5934  0.3452  0.0041
  256MOL0     H34518   4.434   8.012  10.424  1.5659 -0.7492 -1.5481
  256MOL0     H34519   4.498   8.099  10.279 -1.4951 -2.3038 -0.1407
  256MOL0     H34520   4.313   8.013  10.186  1.6489  1.1947 -0.6686
  256MOL0     H34521   4.146   8.011   9.889 -2.0452 -1.1464 -0.4787
  256MOL0     H34522   4.249   7.914   9.993  0.1894 -0.6874  3.8640
  256MOL0     H34523   4.074   7.893   9.990  0.8512  0.0961 -0.7800
  256MOL0     H34524   3.526   8.171  10.140 -1.5235  0.2513  0.8668
  256MOL0     H34525   3.340   8.205   9.989  0.2735 -2.4057 -1.1050
  256MOL0     H34526   3.418   8.226   9.567 -1.4095 -0.8548 -4.3475
  256MOL0     H34527   3.248   8.226   9.564 -0.2472  2.5393 -0.6333
  256MOL0     H34528   3.236   8.469   9.556 -1.7705 -0.4726 -4.7045
  256MOL0     H34529   3.413   8.484   9.597 -1.8397  1.3390  1.0467
  256MOL0     H34530   3.275   8.377   9.349 -1.3231  1.6776  1.1995
  256MOL0     H34531   3.451   8.357   9.359  0.3126 -0.2648 -1.0220
  256MOL0     H34532   3.344   8.572   9.258  1.1791 -0.1385 -0.9327
  256MOL0     H34533   3.379   8.634   9.420  0.6183 -2.0119  3.7528
  256MOL0     H34534   3.595   8.562   9.418 -0.6210  1.3190 -0.4433
  256MOL0     H34535   3.578   8.679   9.288  2.4622 -0.4864 -2.7333
  256MOL0     H34536   3.709   8.547   9.164  0.2818 -0.7534  0.0278
  256MOL0     H34537   3.651   8.400   9.257 -1.4576 -0.5673 -2.1803
  256MOL0     H34538   3.489   8.561   9.041  0.5922  0.0079  0.0565
  256MOL0     H34539   3.450   8.401   9.109  0.6970 -1.7611 -3.4497
  256MOL0     H34540   3.634   8.310   9.009  2.0531  0.4258  0.4068
  256MOL0     H34541   3.695   8.458   8.940  1.3396 -1.8497  1.2970
  256MOL0     H34542   3.602   8.324   9.670 -2.1788 -2.0781 -0.7348
  256MOL0     H34543   3.795   8.264   9.805  0.2561 -2.3626 -0.6535
  256MOL0     H34544   3.923   8.279  10.267 -1.8744 -2.7394 -0.4397
  256MOL0     H34545   4.123   8.313  10.404  4.6254  0.1361  0.6186
  256MOL0     H34546   6.091   8.072  10.767  3.1218 -0.8914  0.0114
  256MOL0     H34547   6.241   7.933  10.688  0.1149  0.8570  2.2883
  256MOL0     H34548   6.260   7.446  10.487  0.2884 -3.4674 -1.7185
  256MOL0     H34549   6.431   7.269  10.421 -3.9154 -2.5091  0.7616
  256MOL0     H34550   6.579   7.078  10.430 -0.2368 -0.7272  2.6483
  256MOL0     H34551   6.663   7.230  10.374  0.7774  0.6075  0.3727
  256MOL0     H34552   6.769   6.973  10.389 -0.7963  0.5241 -0.1434
  256MOL0     H34553   6.816   7.043  10.552  3.4831 -2.3973 -0.7189
  256MOL0     H34554   6.864   7.177  10.283 -1.1605  1.1703  1.2680
  256MOL0     H34555   6.980   7.066  10.350  0.4881  1.1106 -0.9163
  256MOL0     H34556   6.894   7.304  10.513 -0.3557  0.7700 -0.5562
  256MOL0     H34557   7.014   7.322  10.379 -0.5260  0.5523  0.0684
  256MOL0     H34558   7.245   7.123  10.666  2.3916  0.5662 -2.6660
  256MOL0     H34559   6.607   7.331  10.808 -1.4326 -1.9317  1.9810
  256MOL0     H34560   6.447   7.502  10.856 -2.1150 -1.4343  0.6304
  257MOL0     O34561  10.503   1.993   7.513  0.5718 -0.7385  0.1214
  257MOL0     C34562  10.620   2.014   7.547  0.2063  0.2376 -0.0035
  257MOL0     O34563  10.722   2.061   7.465 -0.1304 -0.4227  0.0644
  257MOL0     C34564  10.680   2.109   7.347  0.2965 -0.2033  0.0394
  257MOL0     C34565  10.607   2.237   7.338 -0.0493 -0.0475 -0.0101
  257MOL0     C34566  10.558   2.294   7.216 -0.0409  0.0363  0.1689
  257MOL0     C34567  10.598   2.229   7.099 -0.0456 -0.8462  0.9199
  257MOL0     O34568  10.560   2.300   6.984  0.2779  0.0613 -0.0618
  257MOL0     C34569  10.436   2.245   6.924 -1.4542 -0.0523 -1.5686
  257MOL0     C34570  10.355   2.349   6.842  0.2017 -0.2709 -0.1842
  257MOL0     C34571  10.213   2.299   6.825 -0.6431  0.2967 -0.9499
  257MOL0     C34572  10.153   2.387   6.714  0.3985 -0.5360  0.4361
  257MOL0     C34573   9.999   2.366   6.697  1.3856  0.3673 -0.2223
  257MOL0     C34574   9.923   2.442   6.590 -0.2056  0.8575  0.7113
  257MOL0     C34575   9.980   2.434   6.450  0.4021 -0.3153  0.1743
  257MOL0     C34576   9.899   2.507   6.340 -0.0936 -0.1456 -0.9115
  257MOL0     N34577   9.763   2.461   6.346  0.0606  1.0712  0.4372
  257MOL0     C34578   9.721   2.332   6.303 -0.2569  0.5969  0.3238
  257MOL0     C34579   9.601   2.328   6.354 -0.0041  0.1893  0.3096
  257MOL0     C34580   9.513   2.212   6.366 -0.5128 -0.0975 -0.7549
  257MOL0     C34581   9.462   2.188   6.501 -0.0355 -0.0320 -0.6011
  257MOL0     C34582   9.524   2.083   6.592  0.0138 -0.0684  0.7899
  257MOL0     C34583   9.489   2.097   6.732  0.9397 -0.5531 -0.2790
  257MOL0     O34584   9.485   1.965   6.796  0.4719  0.4891  0.4676
  257MOL0     C34585   9.380   1.882   6.789  0.7803  0.5553 -0.2633
  257MOL0     C34586   9.264   1.915   6.723  0.6484 -0.0354 -0.0619
  257MOL0     C34587   9.152   1.842   6.709 -0.1085  0.1376  0.3016
  257MOL0     C34588   9.022   1.914   6.674  0.3177 -0.7459  0.5761
  257MOL0     C34589   9.159   1.712   6.777 -0.2402 -1.1561  0.7759
  257MOL0     C34590   9.045   1.621   6.771  0.5395  0.7895  0.5484
  257MOL0     O34591   9.064   1.495   6.845  0.6461 -0.4176  0.6160
  257MOL0     C34592   8.965   1.406   6.842 -0.1409  0.3266 -0.2133
  257MOL0     C34593   8.838   1.428   6.876  0.2174  0.8481 -0.4513
  257MOL0     C34594   8.746   1.324   6.861  0.6960  0.4092 -0.2819
  257MOL0     C34595   8.776   1.204   6.799 -0.1349  0.0097  0.3756
  257MOL0     O34596   8.686   1.103   6.787 -0.3452 -0.6568  0.3765
  257MOL0     C34597   8.705   0.972   6.833 -0.5742  0.1297 -0.5830
  257MOL0     C34598   8.576   0.913   6.896 -0.3204 -0.7261  0.8585
  257MOL0     C34599   8.622   0.804   6.990  0.6243 -0.2360  0.1309
  257MOL0     C34600   8.499   0.717   7.034  0.4639  0.8879 -0.3598
  257MOL0     C34601   8.543   0.613   7.143  0.2461  0.0691  0.8426
  257MOL0     C34602   8.420   0.535   7.180 -0.0023  0.2438 -0.8373
  257MOL0     C34603   8.468   0.453   7.306  0.6001 -0.4973  0.7717
  257MOL0     C34604   8.383   0.337   7.341  0.3835 -0.1599 -0.0337
  257MOL0    Cl34605   8.354   0.223   7.193 -0.1302  0.2207 -0.1273
  257MOL0     C34606   8.911   1.186   6.758 -0.0100 -0.3178 -0.0007
  257MOL0     C34607   9.008   1.282   6.785  0.4669  0.6072  0.1288
  257MOL0     O34608   8.952   1.641   6.691  0.1601 -0.7278  0.3562
  257MOL0     C34609   9.278   1.667   6.847  0.1879 -0.1238  0.7081
  257MOL0     C34610   9.384   1.754   6.851  0.1882 -0.4093  0.6076
  257MOL0     N34611   9.556   2.455   6.398  0.0328  0.5801  0.1353
  257MOL0     N34612   9.658   2.536   6.391 -0.3714 -0.2736 -0.2797
  257MOL0     C34613  10.674   2.106   7.098 -0.5065 -0.4283 -0.2800
  257MOL0     C34614  10.711   2.040   7.226  0.2206  0.8588 -0.4889
  257MOL0     C34615  10.654   1.983   7.689 -0.5421 -0.5608 -0.9248
  257MOL0     C34616  10.792   1.977   7.731 -0.4582 -0.3663 -0.4799
  257MOL0     C34617  10.822   1.977   7.868  0.5322  1.1998 -0.8311
  257MOL0     C34618  10.725   1.959   7.965 -0.0469 -0.0531  0.3811
  257MOL0     O34619  10.752   1.954   8.099 -0.1540 -0.4306  0.5338
  257MOL0     C34620  10.873   1.911   8.152  0.7986 -0.0810  0.1203
  257MOL0     C34621  10.848   1.891   8.304  0.5148  0.3548  0.2952
  257MOL0     C34622  10.778   2.017   8.377 -0.3536 -0.0303  0.6404
  257MOL0     C34623  10.748   1.988   8.518  0.4789  0.2127 -0.6501
  257MOL0     C34624  10.633   1.906   8.544  0.8186 -0.5639 -0.1627
  257MOL0     C34625  10.541   1.848   8.564 -0.4796  0.0463 -0.3316
  257MOL0     C34626  10.595   1.960   7.925 -0.6967 -0.1046 -0.6296
  257MOL0     C34627  10.556   1.983   7.797 -0.1472  0.6670  1.2624
  257MOL0     H34628  10.592   2.300   7.425 -5.9952  0.7940 -1.2427
  257MOL0     H34629  10.506   2.389   7.218 -0.5511 -0.2409  1.6784
  257MOL0     H34630  10.457   2.158   6.861 -0.0133 -0.8401 -0.1032
  257MOL0     H34631  10.375   2.214   7.009  1.6915  0.9074  1.2736
  257MOL0     H34632  10.346   2.444   6.894 -2.3666  0.5867 -2.0033
  257MOL0     H34633  10.395   2.368   6.741 -1.6642  0.3279 -0.8445
  257MOL0     H34634  10.206   2.194   6.798 -1.3270  0.0995 -0.0556
  257MOL0     H34635  10.158   2.304   6.920  0.4799  0.3893 -0.2911
  257MOL0     H34636  10.161   2.493   6.741 -0.9529 -0.5402  0.8974
  257MOL0     H34637  10.204   2.371   6.618 -3.4787  0.1531 -1.9466
  257MOL0     H34638   9.984   2.262   6.665 -1.5216 -0.0121  1.9317
  257MOL0     H34639   9.953   2.374   6.796 -1.8107  2.8689 -1.7032
  257MOL0     H34640   9.818   2.412   6.588 -0.9417  3.1925 -2.5262
  257MOL0     H34641   9.927   2.547   6.620  0.7865  0.8622  0.6041
  257MOL0     H34642  10.079   2.481   6.454  0.7868 -0.6201 -2.9446
  257MOL0     H34643   9.997   2.328   6.428  0.5904 -0.6855  1.9437
  257MOL0     H34644   9.939   2.478   6.242 -0.9328  0.8248 -1.5531
  257MOL0     H34645   9.900   2.616   6.341  1.2187 -0.1022 -2.6016
  257MOL0     H34646   9.779   2.252   6.258  1.0222  0.7973  1.5586
  257MOL0     H34647   9.423   2.235   6.309 -2.3448  1.1234  2.3897
  257MOL0     H34648   9.549   2.112   6.338 -2.3792 -2.2488  3.6327
  257MOL0     H34649   9.363   2.145   6.481 -0.6910  1.0197  0.2792
  257MOL0     H34650   9.443   2.286   6.545  2.3753 -0.2931  1.2417
  257MOL0     H34651   9.630   2.067   6.571 -0.5142 -2.9801 -0.0918
  257MOL0     H34652   9.478   1.989   6.561  0.6139  0.3933 -1.7099
  257MOL0     H34653   9.405   2.166   6.735  0.8126 -0.6453 -1.3298
  257MOL0     H34654   9.566   2.156   6.783 -1.0283  2.3747 -0.4240
  257MOL0     H34655   9.245   2.018   6.693  0.7114  1.1235  3.4202
  257MOL0     H34656   8.988   1.880   6.576  3.6417  2.5386 -2.0194
  257MOL0     H34657   8.952   1.900   6.757 -0.0834 -1.4282  0.1316
  257MOL0     H34658   9.031   2.022   6.657 -4.2122 -0.4289 -1.3447
  257MOL0     H34659   8.824   1.523   6.927  1.8234 -0.2576  2.2662
  257MOL0     H34660   8.653   1.356   6.908  0.3169  0.2384 -0.9039
  257MOL0     H34661   8.718   0.907   6.746  3.1958 -3.2111  2.1028
  257MOL0     H34662   8.783   0.964   6.908 -2.4942  0.6055  1.5798
  257MOL0     H34663   8.517   0.983   6.956 -1.3204 -0.7283 -0.0822
  257MOL0     H34664   8.516   0.871   6.814 -0.3634  0.4901  0.2504
  257MOL0     H34665   8.672   0.855   7.073 -2.8773  1.7857  1.2539
  257MOL0     H34666   8.701   0.747   6.942  1.8206  2.4449 -1.2802
  257MOL0     H34667   8.420   0.780   7.076  0.2558  1.9562 -2.2124
  257MOL0     H34668   8.463   0.673   6.940  3.6108 -0.6885 -0.9690
  257MOL0     H34669   8.567   0.667   7.234 -1.3327  0.0299  1.3188
  257MOL0     H34670   8.628   0.554   7.107  2.1858  2.3712  1.4003
  257MOL0     H34671   8.342   0.604   7.214  0.1729  1.5082 -2.8234
  257MOL0     H34672   8.387   0.470   7.098 -0.0274  0.1503 -0.7537
  257MOL0     H34673   8.488   0.519   7.391 -1.6701 -0.9915  1.7629
  257MOL0     H34674   8.556   0.399   7.268 -1.6185 -3.0117 -1.1607
  257MOL0     H34675   8.290   0.378   7.380  1.4325  0.3352  2.0710
  257MOL0     H34676   8.434   0.285   7.423 -3.0001 -0.4318  2.0660
  257MOL0     H34677   8.944   1.092   6.715  3.7500 -0.2964  2.4062
  257MOL0     H34678   9.110   1.272   6.750  0.7213  0.1108  0.9824
  257MOL0     H34679   9.279   1.570   6.894 -0.3672 -1.7518 -2.3827
  257MOL0     H34680   9.474   1.711   6.895  0.2076 -0.2864  0.6892
  257MOL0     H34681  10.694   2.058   7.002 -0.4058 -1.7050  0.3543
  257MOL0     H34682  10.758   1.942   7.231 -0.0122  0.7299 -0.8011
  257MOL0     H34683  10.878   1.980   7.666  0.9967  3.9591  1.2387
  257MOL0     H34684  10.926   1.981   7.898  0.9888 -1.8505 -1.6601
  257MOL0     H34685  10.892   1.810   8.117  3.8880  0.7726 -0.9957
  257MOL0     H34686  10.955   1.977   8.121 -0.6330  0.8715 -1.8734
  257MOL0     H34687  10.946   1.863   8.344  1.4160  1.9580 -0.7088
  257MOL0     H34688  10.779   1.807   8.318  0.1376  0.9044  2.1166
  257MOL0     H34689  10.692   2.047   8.316  2.3321  0.2315 -3.4013
  257MOL0     H34690  10.847   2.101   8.377 -2.5121  1.8746 -0.6609
  257MOL0     H34691  10.727   2.082   8.571 -2.8515 -1.0107  0.5086
  257MOL0     H34692  10.841   1.954   8.564 -0.2080  1.8724  2.2348
  257MOL0     H34693  10.467   1.780   8.603  2.3904 -2.0515  1.9158
  257MOL0     H34694  10.526   1.949   8.008 -0.7358 -0.6879 -0.7395
  257MOL0     H34695  10.452   1.998   7.772 -0.1674 -0.8692  0.2648
  258MOL0     O34696   9.410   5.645   6.352 -0.1146  0.1788 -0.0335
  258MOL0     C34697   9.365   5.758   6.331 -1.7842 -0.7319  0.6680
  258MOL0     O34698   9.442   5.873   6.337  0.4532  0.0771 -0.1336
  258MOL0     C34699   9.563   5.884   6.393 -0.3778  0.0829 -0.3116
  258MOL0     C34700   9.611   5.809   6.502  0.8472  0.1840 -0.2982
  258MOL0     C34701   9.733   5.842   6.553  0.0331 -0.0039 -0.4060
  258MOL0     C34702   9.814   5.948   6.514  0.0778  0.4614  0.0551
  258MOL0     O34703   9.937   5.974   6.567  0.2096  0.7302 -0.5119
  258MOL0     C34704  10.037   5.919   6.484  0.2340 -0.8749  0.1483
  258MOL0     C34705  10.174   5.938   6.530 -0.3710  0.1524 -0.8717
  258MOL0     C34706  10.267   5.830   6.476  1.1017 -0.1486  0.3816
  258MOL0     C34707  10.316   5.853   6.335  0.4334 -0.4137  0.5242
  258MOL0     C34708  10.413   5.751   6.272  0.4626  0.2003 -0.5817
  258MOL0     C34709  10.338   5.639   6.203  0.3882  0.7487 -0.0499
  258MOL0     C34710  10.432   5.545   6.137 -0.4270  0.9922  0.1838
  258MOL0     C34711  10.499   5.452   6.244  0.4706 -0.0432 -0.8357
  258MOL0     N34712  10.636   5.490   6.276  0.2625  0.1182  0.2180
  258MOL0     C34713  10.733   5.495   6.175 -0.2365 -0.7737  0.2066
  258MOL0     C34714  10.846   5.508   6.251  0.0321 -0.1649 -0.3782
  258MOL0     C34715  10.982   5.518   6.176  0.3275 -0.3127 -0.3145
  258MOL0     C34716  11.044   5.381   6.169  0.2844 -0.5367 -0.6277
  258MOL0     C34717  10.974   5.290   6.077 -0.5597  0.9844 -0.1184
  258MOL0     C34718  11.026   5.143   6.084 -0.3297 -0.3729  0.1505
  258MOL0     O34719  10.980   5.057   5.980  0.4389  0.6930  0.5959
  258MOL0     C34720  10.981   5.082   5.846  0.6786 -1.3008 -0.7810
  258MOL0     C34721  11.086   5.146   5.781  0.1832 -0.0896 -1.2067
  258MOL0     C34722  11.080   5.168   5.644  1.0486 -0.7373 -0.2904
  258MOL0     C34723  11.186   5.235   5.565 -0.5375  0.4761  0.4846
  258MOL0     C34724  10.967   5.127   5.572 -0.6075  0.5538 -0.1487
  258MOL0     C34725  10.941   5.151   5.431  0.3928  0.4420 -0.1473
  258MOL0     O34726  10.969   5.277   5.384  1.0511  0.0053  0.2217
  258MOL0     C34727  10.907   5.302   5.256 -1.1780  0.3652 -1.1616
  258MOL0     C34728  10.779   5.346   5.233  0.0390  0.7240 -0.3817
  258MOL0     C34729  10.748   5.390   5.110 -1.4352  0.0483 -0.1906
  258MOL0     C34730  10.826   5.374   5.007  0.3723 -0.4448  1.6195
  258MOL0     O34731  10.771   5.421   4.884  0.1475  0.8463 -0.2087
  258MOL0     C34732  10.822   5.362   4.764 -0.0990  0.6674 -1.1832
  258MOL0     C34733  10.770   5.429   4.642  1.5817 -0.5013  0.7450
  258MOL0     C34734  10.632   5.369   4.592 -0.4793 -0.0863  0.1204
  258MOL0     C34735  10.510   5.405   4.676  0.3567 -0.2886 -0.6487
  258MOL0     C34736  10.484   5.552   4.670  0.6004  0.0702  0.0289
  258MOL0     C34737  10.362   5.591   4.752  0.3692  0.2411  0.2720
  258MOL0     C34738  10.232   5.559   4.678  0.0694  0.3418  0.5103
  258MOL0     C34739  10.126   5.468   4.750  0.0709 -0.7934 -0.1081
  258MOL0    Cl34740  10.117   5.530   4.913 -0.5343 -0.2241  0.7126
  258MOL0     C34741  10.958   5.317   5.019  0.6164 -0.5852  0.3359
  258MOL0     C34742  11.000   5.283   5.147  0.2884 -0.4346  0.1756
  258MOL0     O34743  10.899   5.058   5.357  0.9819 -0.1385  0.0698
  258MOL0     C34744  10.875   5.029   5.631  0.1290 -0.8198  0.4624
  258MOL0     C34745  10.880   5.014   5.771 -0.0888 -0.9974  0.4002
  258MOL0     N34746  10.816   5.525   6.387 -0.2178  0.0893 -0.2117
  258MOL0     N34747  10.689   5.513   6.392  0.3847 -0.3821  0.7804
  258MOL0     C34748   9.778   6.006   6.387  0.5291 -0.2899 -0.8183
  258MOL0     C34749   9.645   5.984   6.337  0.4458 -0.1185  0.1343
  258MOL0     C34750   9.223   5.779   6.292  0.6090 -0.2055  0.4348
  258MOL0     C34751   9.136   5.678   6.247  0.3945  0.3325 -0.2255
  258MOL0     C34752   9.003   5.706   6.204 -0.4845  0.1376  0.0487
  258MOL0     C34753   8.939   5.833   6.206 -0.1421 -0.9251  0.3436
  258MOL0     O34754   8.809   5.845   6.177  0.7817 -0.0690  0.0554
  258MOL0     C34755   8.732   5.970   6.181  0.6310  1.1467 -0.8274
  258MOL0     C34756   8.585   5.937   6.214  0.4728 -0.0958  0.1957
  258MOL0     C34757   8.509   6.065   6.221  0.0305  0.4292 -0.4156
  258MOL0     C34758   8.362   6.038   6.268  1.2856  0.1763  0.1735
  258MOL0     C34759   8.275   5.974   6.162  0.5045 -0.4279  0.5928
  258MOL0     C34760   8.208   5.921   6.078  0.4123  0.7226 -0.5459
  258MOL0     C34761   9.036   5.934   6.254  0.3600 -1.0057  0.0123
  258MOL0     C34762   9.165   5.909   6.292  0.6842 -0.7188 -0.1875
  258MOL0     H34763   9.549   5.736   6.553 -0.6404  1.1960 -0.6016
  258MOL0     H34764   9.771   5.776   6.630 -0.3092  0.8828  0.5481
  258MOL0     H34765  10.015   5.814   6.464 -3.5034 -0.5571  1.7229
  258MOL0     H34766  10.029   5.976   6.391 -0.9467 -1.7027 -0.2862
  258MOL0     H34767  10.223   6.035   6.518  2.6164 -1.3691 -2.4257
  258MOL0     H34768  10.156   5.924   6.637  1.9258 -1.0545 -0.5701
  258MOL0     H34769  10.349   5.828   6.549  0.3362  0.3493  1.2815
  258MOL0     H34770  10.219   5.732   6.471 -0.1553  0.4914 -2.8318
  258MOL0     H34771  10.229   5.864   6.270  0.0546  1.1912  1.2305
  258MOL0     H34772  10.367   5.949   6.325  3.1325 -1.6754  1.3797
  258MOL0     H34773  10.493   5.793   6.210  1.8317 -0.6666  0.5315
  258MOL0     H34774  10.468   5.703   6.353 -0.4879 -0.2534 -0.1903
  258MOL0     H34775  10.280   5.592   6.283  1.2598 -0.4961 -0.1333
  258MOL0     H34776  10.262   5.674   6.132  2.3914  0.3007 -2.5245
  258MOL0     H34777  10.373   5.475   6.077  2.6108 -0.1083 -1.7753
  258MOL0     H34778  10.502   5.600   6.074  0.6953 -0.7291 -0.1354
  258MOL0     H34779  10.498   5.347   6.212 -3.0336  0.2443 -2.1509
  258MOL0     H34780  10.426   5.451   6.326 -1.2875  1.0925 -2.3038
  258MOL0     H34781  10.727   5.469   6.069  2.0539  2.1425 -0.7728
  258MOL0     H34782  10.963   5.559   6.077  0.1322 -3.0368 -1.4915
  258MOL0     H34783  11.046   5.581   6.239 -1.6114  1.2536  0.2039
  258MOL0     H34784  11.061   5.339   6.268  2.1793  0.7424 -0.3523
  258MOL0     H34785  11.149   5.390   6.139  1.4470 -1.7361  2.6730
  258MOL0     H34786  10.988   5.327   5.975 -2.7222 -3.8839 -2.4951
  258MOL0     H34787  10.866   5.280   6.094 -0.3257 -3.1685 -0.0084
  258MOL0     H34788  11.002   5.098   6.181 -0.3689  2.4713  1.5473
  258MOL0     H34789  11.135   5.154   6.081 -0.4162  2.5270  3.0224
  258MOL0     H34790  11.173   5.173   5.840 -1.2393  1.0303  0.4962
  258MOL0     H34791  11.256   5.279   5.636 -0.3633  0.3584  0.3873
  258MOL0     H34792  11.224   5.156   5.499 -1.5882  0.4952 -0.1723
  258MOL0     H34793  11.159   5.310   5.491 -1.4387 -1.8928 -1.7724
  258MOL0     H34794  10.718   5.361   5.321 -0.7760 -0.4125 -0.7289
  258MOL0     H34795  10.651   5.436   5.090 -1.4175 -0.2968 -1.1145
  258MOL0     H34796  10.931   5.356   4.766 -0.1375 -0.6016 -1.5636
  258MOL0     H34797  10.805   5.254   4.759  2.4907  0.2546 -2.5975
  258MOL0     H34798  10.768   5.538   4.656  1.7104 -0.2211 -1.0946
  258MOL0     H34799  10.836   5.423   4.555  0.2447  1.3502 -0.4832
  258MOL0     H34800  10.645   5.260   4.590 -1.0316 -0.1611  0.4891
  258MOL0     H34801  10.609   5.397   4.489  2.8803 -0.6445 -0.8939
  258MOL0     H34802  10.417   5.349   4.662 -2.0100  1.7365  4.4265
  258MOL0     H34803  10.541   5.381   4.778  2.0776  4.3863  0.1867
  258MOL0     H34804  10.469   5.584   4.566  1.1699  1.2899  0.3051
  258MOL0     H34805  10.567   5.594   4.727  1.4100 -3.0567  1.3518
  258MOL0     H34806  10.357   5.527   4.840 -0.3192  1.3682  1.0692
  258MOL0     H34807  10.367   5.694   4.787 -0.9339 -0.3380  2.3654
  258MOL0     H34808  10.264   5.519   4.581  1.4662 -1.8028  1.7849
  258MOL0     H34809  10.180   5.653   4.659  2.4663  1.4226 -1.2277
  258MOL0     H34810  10.160   5.365   4.767  0.8290 -0.7589 -1.2983
  258MOL0     H34811  10.023   5.477   4.715 -0.5705 -1.4591  1.5338
  258MOL0     H34812  11.015   5.307   4.927  0.2719 -2.9166  0.3405
  258MOL0     H34813  11.093   5.236   5.178 -0.1604 -2.2584 -1.0618
  258MOL0     H34814  10.789   4.993   5.576 -0.9709  3.2485 -0.7888
  258MOL0     H34815  10.802   4.959   5.822 -0.1767 -1.1140  0.1420
  258MOL0     H34816   9.851   6.069   6.337  0.4731 -1.1112 -1.9771
  258MOL0     H34817   9.609   6.037   6.248  3.5349  1.9215 -0.0428
  258MOL0     H34818   9.178   5.578   6.238  1.7788  0.9668 -1.2400
  258MOL0     H34819   8.945   5.626   6.160 -2.4275  0.3820  1.9984
  258MOL0     H34820   8.774   6.036   6.258 -3.4184  3.1227 -0.0321
  258MOL0     H34821   8.751   6.018   6.085 -1.0694 -0.3694 -1.9751
  258MOL0     H34822   8.580   5.885   6.310  0.0539 -2.1942 -0.9147
  258MOL0     H34823   8.546   5.870   6.136 -1.5713 -1.0978  1.9798
  258MOL0     H34824   8.519   6.129   6.133  0.7989  2.6639  1.2117
  258MOL0     H34825   8.565   6.123   6.295  2.7307 -1.9169 -0.4439
  258MOL0     H34826   8.323   6.135   6.302  0.6452 -0.4801  1.4162
  258MOL0     H34827   8.368   5.969   6.353 -0.7188  2.7243  2.5781
  258MOL0     H34828   8.138   5.872   6.012 -0.3517  1.7136 -0.4989
  258MOL0     H34829   9.004   6.037   6.258  1.1698 -0.7865  1.2475
  258MOL0     H34830   9.219   5.996   6.330 -1.6174  0.0735  1.5107
  259MOL0     O34831   4.877   7.628   5.673 -0.5555 -0.4867 -0.1468
  259MOL0     C34832   4.895   7.748   5.657 -0.1261 -0.0510  0.4698
  259MOL0     O34833   4.955   7.804   5.553  0.0229 -0.1479 -0.8362
  259MOL0     C34834   4.969   7.724   5.445  0.2056 -0.3823 -0.3855
  259MOL0     C34835   4.862   7.709   5.356  0.1058  0.4878 -0.3509
  259MOL0     C34836   4.870   7.629   5.237  0.6100  0.5149 -0.4859
  259MOL0     C34837   4.990   7.564   5.212  0.2777 -0.7005 -0.1259
  259MOL0     O34838   5.023   7.478   5.106 -0.0516  0.5004 -0.1664
  259MOL0     C34839   4.917   7.400   5.050  0.6632 -0.4616  0.3515
  259MOL0     C34840   4.981   7.265   5.008 -0.0742 -0.2630 -0.6488
  259MOL0     C34841   4.872   7.163   4.962 -0.3589  0.2502  0.3583
  259MOL0     C34842   4.927   7.022   4.959 -0.4979 -0.2444  1.1774
  259MOL0     C34843   4.927   6.949   5.097  0.4221 -0.1359 -0.5213
  259MOL0     C34844   5.002   6.817   5.102  0.4381  0.8094  0.0529
  259MOL0     C34845   4.929   6.709   5.024  0.5831 -0.4252 -0.1635
  259MOL0     C34846   4.991   6.567   5.045 -0.6687  0.1974 -0.9064
  259MOL0     N34847   5.135   6.563   5.017  0.1750  0.4567  0.8602
  259MOL0     C34848   5.243   6.583   5.100  0.3475  0.2316  0.3117
  259MOL0     C34849   5.352   6.578   5.017 -1.4882  0.1852 -0.0717
  259MOL0     C34850   5.497   6.596   5.062  0.3992 -0.2092  0.3576
  259MOL0     C34851   5.528   6.744   5.049 -0.3804 -0.7673 -0.4749
  259MOL0     C34852   5.506   6.816   4.914 -0.6234 -0.2873  0.5681
  259MOL0     C34853   5.584   6.747   4.806  0.0717 -0.1761  0.5111
  259MOL0     O34854   5.722   6.728   4.833 -0.7103 -0.4752 -0.1361
  259MOL0     C34855   5.809   6.835   4.822 -0.0091  0.5808  0.0985
  259MOL0     C34856   5.772   6.970   4.818  0.0337  0.8093 -1.1639
  259MOL0     C34857   5.864   7.068   4.836 -0.8301 -0.1527 -0.2079
  259MOL0     C34858   5.826   7.218   4.834  0.1112  0.7384 -0.5796
  259MOL0     C34859   5.995   7.029   4.866 -0.7627  0.6371  0.7330
  259MOL0     C34860   6.107   7.125   4.892  0.1137 -1.0247 -0.1334
  259MOL0     O34861   6.118   7.227   4.797  0.0346 -0.0343 -0.3536
  259MOL0     C34862   6.180   7.343   4.834 -0.8383 -0.6599  0.1341
  259MOL0     C34863   6.125   7.464   4.792 -0.5489  0.4201 -0.4756
  259MOL0     C34864   6.174   7.590   4.825 -0.9073  0.1609 -0.1050
  259MOL0     C34865   6.300   7.604   4.891  0.8399 -0.4857 -0.1171
  259MOL0     O34866   6.364   7.721   4.929  0.3824  0.2590  0.2879
  259MOL0     C34867   6.326   7.841   4.873  0.5019 -0.4004 -0.6358
  259MOL0     C34868   6.401   7.956   4.944 -0.1809  0.7835  0.4956
  259MOL0     C34869   6.532   7.977   4.870 -0.4984 -1.5031 -0.6684
  259MOL0     C34870   6.633   7.866   4.889  0.0742  0.9349 -0.5397
  259MOL0     C34871   6.775   7.906   4.849  0.3837  0.2806 -0.6522
  259MOL0     C34872   6.866   7.781   4.861  0.1058 -0.5528 -0.0023
  259MOL0     C34873   6.898   7.731   4.993 -0.1981 -0.7258 -0.5261
  259MOL0     C34874   6.987   7.602   4.993 -0.3805 -0.7423 -0.0643
  259MOL0    Cl34875   7.106   7.590   4.869  0.1014 -0.4983  0.1382
  259MOL0     C34876   6.355   7.486   4.936  0.1788  0.4023  0.0935
  259MOL0     C34877   6.301   7.361   4.907  0.7128  0.0892  0.8985
  259MOL0     O34878   6.184   7.101   4.985  0.1274  0.1535 -0.1408
  259MOL0     C34879   6.025   6.892   4.855 -0.2506 -0.2762 -0.4762
  259MOL0     C34880   5.935   6.800   4.841  1.7262 -0.0877 -0.2929
  259MOL0     N34881   5.307   6.552   4.886  0.7240  0.7086 -0.1513
  259MOL0     N34882   5.178   6.539   4.885  0.3273 -0.4854  0.9003
  259MOL0     C34883   5.101   7.591   5.301  0.2676 -0.1443  0.3281
  259MOL0     C34884   5.092   7.670   5.421 -1.0046  0.3185 -1.1729
  259MOL0     C34885   4.868   7.845   5.773  0.1398 -0.2869  0.9788
  259MOL0     C34886   4.862   7.987   5.754 -0.1930  0.6641  0.2933
  259MOL0     C34887   4.818   8.066   5.865  0.6139 -0.5521  1.5919
  259MOL0     C34888   4.788   8.014   5.995 -0.7020 -0.1557  0.1640
  259MOL0     O34889   4.755   8.091   6.101 -0.3636 -0.0710 -0.2665
  259MOL0     C34890   4.730   8.033   6.228  1.0514 -0.7526  0.2671
  259MOL0     C34891   4.863   7.984   6.300 -0.0193  0.9937  0.2922
  259MOL0     C34892   4.957   8.100   6.328  0.3885  1.4357 -0.0207
  259MOL0     C34893   5.105   8.054   6.363  0.6609  0.2829  0.0156
  259MOL0     C34894   5.122   8.103   6.506 -0.3634 -0.2032  0.0705
  259MOL0     C34895   5.131   8.132   6.622  0.1961  0.2068  0.3020
  259MOL0     C34896   4.783   7.872   5.996  0.2544 -0.0646  0.0138
  259MOL0     C34897   4.823   7.795   5.892 -0.2688 -0.1975 -0.4385
  259MOL0     H34898   4.768   7.757   5.380 -1.0980 -1.4362 -0.9862
  259MOL0     H34899   4.777   7.617   5.184 -0.0002  0.0852  0.6558
  259MOL0     H34900   4.838   7.385   5.125 -0.4403 -3.5064 -1.2562
  259MOL0     H34901   4.877   7.454   4.965  1.4526 -2.3010 -1.2617
  259MOL0     H34902   5.048   7.263   4.921 -1.1190  2.1786 -1.5761
  259MOL0     H34903   5.028   7.223   5.098 -0.7796  0.3291  0.0005
  259MOL0     H34904   4.792   7.181   5.035  0.6229  2.0255  1.0496
  259MOL0     H34905   4.835   7.195   4.864 -0.3887 -3.4198 -0.9841
  259MOL0     H34906   4.872   6.965   4.884  1.2010  1.6315 -1.6857
  259MOL0     H34907   5.026   7.006   4.916 -1.3712 -4.7997  0.3647
  259MOL0     H34908   4.991   7.007   5.164  1.3938 -0.0223 -1.5355
  259MOL0     H34909   4.825   6.930   5.133 -0.0503 -2.4190 -2.7640
  259MOL0     H34910   5.108   6.822   5.075  0.4092  2.4913  0.1996
  259MOL0     H34911   5.007   6.784   5.207 -3.5153 -1.2731 -0.2403
  259MOL0     H34912   4.828   6.699   5.064  1.5982  0.8544  3.0646
  259MOL0     H34913   4.929   6.727   4.916  2.8835 -0.7146 -0.2635
  259MOL0     H34914   4.925   6.508   4.981 -2.0007  0.6774 -0.0306
  259MOL0     H34915   4.980   6.525   5.145 -1.2390  0.4923 -0.8386
  259MOL0     H34916   5.254   6.606   5.205  1.8416 -0.7445  0.3972
  259MOL0     H34917   5.521   6.557   5.162  0.4872  0.5168  0.6267
  259MOL0     H34918   5.557   6.529   5.000 -0.0326 -0.6136  0.3692
  259MOL0     H34919   5.632   6.752   5.083 -0.8805  0.1924  0.9424
  259MOL0     H34920   5.469   6.796   5.126  2.8411  2.1628  0.2714
  259MOL0     H34921   5.520   6.923   4.927 -3.0262  0.3389 -1.3442
  259MOL0     H34922   5.400   6.818   4.885 -0.8023 -1.8449  1.0181
  259MOL0     H34923   5.579   6.803   4.712  0.3288  2.9844  2.2655
  259MOL0     H34924   5.534   6.652   4.786 -1.0735  0.0158  2.2481
  259MOL0     H34925   5.670   7.003   4.802 -0.1426  0.0386 -1.7022
  259MOL0     H34926   5.876   7.275   4.755 -1.9791  3.1766 -0.2853
  259MOL0     H34927   5.717   7.215   4.832  0.0936 -0.6829  0.7004
  259MOL0     H34928   5.854   7.282   4.919  2.6372  0.7989 -1.3599
  259MOL0     H34929   6.028   7.475   4.744  0.6484  2.7583 -2.5759
  259MOL0     H34930   6.119   7.673   4.781 -1.9669 -0.1669  0.5765
  259MOL0     H34931   6.352   7.848   4.767  0.5377  1.6627 -0.5300
  259MOL0     H34932   6.219   7.854   4.894  0.3197  1.6090 -2.5305
  259MOL0     H34933   6.330   8.039   4.930  0.5898  1.3245 -0.3677
  259MOL0     H34934   6.424   7.945   5.050  2.6728 -0.4510 -0.1756
  259MOL0     H34935   6.577   8.072   4.903  0.0968 -1.2161 -2.1984
  259MOL0     H34936   6.513   8.000   4.764 -4.8420  0.9096  0.4072
  259MOL0     H34937   6.629   7.839   4.995 -3.4761  0.9487 -0.5252
  259MOL0     H34938   6.584   7.778   4.845 -2.1128  1.3662  0.8432
  259MOL0     H34939   6.808   7.991   4.911  0.6996  1.3268 -2.2010
  259MOL0     H34940   6.777   7.946   4.748  2.8464 -2.0754 -1.6622
  259MOL0     H34941   6.817   7.699   4.807  0.4752  0.0611 -1.3168
  259MOL0     H34942   6.958   7.811   4.811 -1.1744  1.2720 -1.4176
  259MOL0     H34943   6.809   7.715   5.055 -1.9821  2.0943 -2.1504
  259MOL0     H34944   6.965   7.802   5.043  0.6955 -0.2780 -2.2896
  259MOL0     H34945   6.925   7.514   4.971 -0.5832  0.1257 -3.5640
  259MOL0     H34946   7.043   7.596   5.087  2.1637 -3.3888 -1.5676
  259MOL0     H34947   6.453   7.497   4.982  1.0350 -0.6614 -1.3685
  259MOL0     H34948   6.351   7.272   4.942 -1.2756 -1.1752  0.6752
  259MOL0     H34949   6.129   6.871   4.880 -0.3984 -0.7579 -0.2533
  259MOL0     H34950   5.960   6.694   4.848 -2.2410 -1.2075 -0.7861
  259MOL0     H34951   5.195   7.544   5.272  1.2198  1.9784 -0.2319
  259MOL0     H34952   5.175   7.689   5.488 -1.1961 -1.2520 -0.4362
  259MOL0     H34953   4.894   8.031   5.660 -2.1887 -0.5902 -1.0573
  259MOL0     H34954   4.813   8.175   5.857  4.0648 -0.0515  4.1472
  259MOL0     H34955   4.684   8.107   6.294  2.2912 -1.4511  1.9999
  259MOL0     H34956   4.649   7.961   6.215 -3.1417  3.3104  1.4818
  259MOL0     H34957   4.917   7.913   6.236  0.7665  0.5536  1.4040
  259MOL0     H34958   4.831   7.936   6.393  0.4195 -1.3268 -0.6781
  259MOL0     H34959   4.910   8.169   6.400 -0.2556  0.1916  0.7941
  259MOL0     H34960   4.967   8.160   6.237 -0.1621  0.6930 -0.5887
  259MOL0     H34961   5.183   8.104   6.305 -0.4942  1.1278 -0.8389
  259MOL0     H34962   5.120   7.946   6.356 -1.4125 -0.1044  0.6981
  259MOL0     H34963   5.168   8.160   6.718 -1.1535  1.0369  0.6019
  259MOL0     H34964   4.768   7.812   6.085  2.5081  2.0700  1.9874
  259MOL0     H34965   4.812   7.688   5.904  1.6946 -0.4912 -0.8936
  260MOL0     O34966   0.161   6.328   3.461 -0.1763 -0.2748  0.6210
  260MOL0     C34967   0.267   6.347   3.525 -0.1039  0.4239  1.0016
  260MOL0     O34968   0.310   6.262   3.628  0.0689  0.4731  0.4706
  260MOL0     C34969   0.229   6.156   3.640 -0.4592 -1.0541 -0.0269
  260MOL0     C34970   0.112   6.154   3.708  0.2095 -0.7924 -0.4760
  260MOL0     C34971   0.035   6.038   3.726 -1.2377  1.0005  0.1996
  260MOL0     C34972   0.075   5.917   3.673 -0.3779  0.0246 -0.2105
  260MOL0     O34973   0.008   5.797   3.698 -0.4101 -0.2113  0.4839
  260MOL0     C34974  -0.024   5.754   3.825 -0.7308  0.1822  0.4719
  260MOL0     C34975  -0.051   5.602   3.824 -0.0025  0.9460 -0.1531
  260MOL0     C34976  -0.137   5.559   3.946 -0.4290  0.0663  0.2024
  260MOL0     C34977  -0.198   5.422   3.930  0.4757  0.4140  0.6407
  260MOL0     C34978  -0.335   5.428   3.855 -0.5098  0.5192  0.4746
  260MOL0     C34979  -0.410   5.287   3.834  0.1051  0.0540  0.0608
  260MOL0     C34980  -0.534   5.305   3.752 -1.1128 -0.0273 -0.1018
  260MOL0     C34981  -0.595   5.170   3.719  0.0199 -0.2649  0.0639
  260MOL0     N34982  -0.721   5.175   3.647 -0.1727 -1.0701 -0.0179
  260MOL0     C34983  -0.758   5.083   3.556 -0.6269  0.4752  0.7156
  260MOL0     C34984  -0.872   5.144   3.509  0.0552 -0.5476 -0.5150
  260MOL0     C34985  -0.961   5.070   3.417  0.2269  0.7162  0.5535
  260MOL0     C34986  -1.102   5.135   3.407 -0.2037 -0.7275  0.6368
  260MOL0     C34987  -1.197   5.034   3.347 -0.4627 -0.0296 -0.7414
  260MOL0     C34988  -1.237   4.928   3.444  0.3187 -0.0116  0.0012
  260MOL0     O34989  -1.337   4.846   3.380  0.7312  0.6620 -0.1854
  260MOL0     C34990  -1.434   4.791   3.455 -0.9121 -1.3295  0.0481
  260MOL0     C34991  -1.417   4.759   3.599  0.1703  0.1969  0.3107
  260MOL0     C34992  -1.520   4.704   3.684 -0.4241  1.4902  0.1623
  260MOL0     C34993  -1.486   4.663   3.819  0.0465  0.5127 -0.2278
  260MOL0     C34994  -1.644   4.688   3.628 -0.8497 -0.8196  0.0274
  260MOL0     C34995  -1.772   4.659   3.710  0.3387  0.1897 -0.3972
  260MOL0     O34996  -1.886   4.615   3.646  0.3919 -0.4241  0.8953
  260MOL0     C34997  -1.988   4.550   3.714 -0.3641  0.2118 -0.6674
  260MOL0     C34998  -1.963   4.455   3.814 -0.4479 -0.2807 -0.6196
  260MOL0     C34999  -2.070   4.393   3.882  0.3894  0.2467  0.5957
  260MOL0     C35000  -2.202   4.429   3.855  0.7483 -0.3061 -0.7320
  260MOL0     O35001  -2.289   4.377   3.941 -0.6121  0.7504 -0.3343
  260MOL0     C35002  -2.432   4.379   3.911 -0.0568 -0.5226 -0.1177
  260MOL0     C35003  -2.507   4.310   4.020  0.3078 -0.2020 -0.9399
  260MOL0     C35004  -2.538   4.404   4.146  0.6994  0.7081  0.7569
  260MOL0     C35005  -2.628   4.336   4.248 -0.1802  0.5671 -0.3098
  260MOL0     C35006  -2.681   4.421   4.364  0.3980  0.1091  0.0626
  260MOL0     C35007  -2.739   4.335   4.484  0.5768  0.2539 -0.4424
  260MOL0     C35008  -2.829   4.219   4.435  0.3715 -0.0789  0.2973
  260MOL0     C35009  -2.930   4.180   4.534 -0.2387 -0.5968 -0.7692
  260MOL0    Cl35010  -3.037   4.055   4.480 -0.0069 -0.1205 -0.0595
  260MOL0     C35011  -2.233   4.514   3.745  0.0519 -0.4290 -0.7396
  260MOL0     C35012  -2.122   4.579   3.675 -0.8926 -0.2900 -0.3650
  260MOL0     O35013  -1.771   4.690   3.832 -0.1759 -1.0224  0.3358
  260MOL0     C35014  -1.666   4.721   3.492  0.8547 -0.3481  0.0133
  260MOL0     C35015  -1.560   4.755   3.401 -0.1926 -0.2172  0.4747
  260MOL0     N35016  -0.904   5.258   3.574 -0.2936 -0.1586  0.0269
  260MOL0     N35017  -0.809   5.278   3.657 -0.0409 -0.0716  0.2890
  260MOL0     C35018   0.197   5.919   3.601 -1.5490 -0.1202 -0.1413
  260MOL0     C35019   0.276   6.035   3.590 -0.0453 -0.1031 -0.0734
  260MOL0     C35020   0.348   6.458   3.478  0.2608 -0.0262  0.1030
  260MOL0     C35021   0.298   6.550   3.376  0.0585 -1.7409 -0.9215
  260MOL0     C35022   0.377   6.653   3.323  0.0905 -0.1136 -0.6768
  260MOL0     C35023   0.509   6.661   3.353  0.9850  0.6272 -0.6296
  260MOL0     O35024   0.573   6.765   3.297  0.5044  0.2083  1.4672
  260MOL0     C35025   0.702   6.798   3.336 -0.1149  0.0953  0.7049
  260MOL0     C35026   0.754   6.920   3.251 -0.0713  0.3784  0.4697
  260MOL0     C35027   0.740   6.902   3.097  0.6339 -0.5517  0.2549
  260MOL0     C35028   0.846   6.813   3.043  0.3942  0.1593 -0.2537
  260MOL0     C35029   0.973   6.888   3.018  0.0690  0.1954 -0.4061
  260MOL0     C35030   1.067   6.952   3.008 -0.9339  0.9391  1.2917
  260MOL0     C35031   0.556   6.574   3.457 -0.3107 -0.5134  0.3096
  260MOL0     C35032   0.482   6.475   3.517 -0.8656 -0.6191  0.4173
  260MOL0     H35033   0.083   6.238   3.770  2.1658  2.1790 -3.3317
  260MOL0     H35034  -0.057   6.042   3.783 -2.3417 -2.4658 -1.0978
  260MOL0     H35035   0.062   5.773   3.890  3.1198 -1.7468 -3.5580
  260MOL0     H35036  -0.112   5.799   3.874 -1.1287 -1.3311  1.1995
  260MOL0     H35037  -0.110   5.582   3.734 -0.1397 -0.0213  0.1411
  260MOL0     H35038   0.042   5.545   3.821  0.5767  1.8883 -0.2477
  260MOL0     H35039  -0.066   5.559   4.029  0.6426  0.1737 -0.6839
  260MOL0     H35040  -0.217   5.629   3.970 -1.7698 -1.1095 -0.6436
  260MOL0     H35041  -0.138   5.351   3.872  0.2779 -0.7674  1.8297
  260MOL0     H35042  -0.213   5.374   4.027  0.2511 -2.4946 -0.7155
  260MOL0     H35043  -0.402   5.499   3.903 -2.8574  0.8336 -2.9533
  260MOL0     H35044  -0.314   5.469   3.756 -2.7638  0.6809  0.0232
  260MOL0     H35045  -0.340   5.215   3.790 -3.1218 -3.0706 -0.3841
  260MOL0     H35046  -0.450   5.245   3.926 -1.6412  1.6091  0.0629
  260MOL0     H35047  -0.605   5.363   3.811 -0.8157 -0.3208  0.5581
  260MOL0     H35048  -0.508   5.352   3.656  0.3554  1.5835  1.0171
  260MOL0     H35049  -0.618   5.114   3.810 -2.3369  1.6925  0.8045
  260MOL0     H35050  -0.518   5.111   3.669  0.0191 -0.8770  0.7667
  260MOL0     H35051  -0.713   4.988   3.529  0.8942  2.1911 -3.4827
  260MOL0     H35052  -0.917   5.067   3.316  1.5767 -2.4976  1.1394
  260MOL0     H35053  -0.976   4.971   3.460  1.8940 -0.7356 -1.9259
  260MOL0     H35054  -1.112   5.226   3.346 -2.9928 -0.2360  1.6653
  260MOL0     H35055  -1.135   5.155   3.509  0.7505 -2.3230  1.2927
  260MOL0     H35056  -1.169   4.979   3.257 -1.3585  2.0303 -2.3522
  260MOL0     H35057  -1.297   5.079   3.341 -0.7575 -0.1237  2.0212
  260MOL0     H35058  -1.285   4.976   3.530 -1.9912 -2.3235  0.1470
  260MOL0     H35059  -1.155   4.866   3.481 -0.1520  0.1099  1.3169
  260MOL0     H35060  -1.313   4.761   3.631 -0.0078 -0.5065  0.9505
  260MOL0     H35061  -1.382   4.628   3.818  0.7713  2.5591 -0.8998
  260MOL0     H35062  -1.495   4.748   3.887 -0.7680  0.0434  0.2654
  260MOL0     H35063  -1.543   4.573   3.844  0.7931 -0.2815 -1.3125
  260MOL0     H35064  -1.862   4.436   3.850  1.2959  2.0035 -3.7693
  260MOL0     H35065  -2.063   4.328   3.968 -3.1123 -0.3875  0.5425
  260MOL0     H35066  -2.476   4.478   3.897 -0.9067 -1.0388 -1.3447
  260MOL0     H35067  -2.468   4.325   3.822 -1.7286 -1.3261  0.9836
  260MOL0     H35068  -2.610   4.297   3.985 -1.0482  1.4389  1.9939
  260MOL0     H35069  -2.464   4.212   4.040 -0.5880 -0.0873  2.1177
  260MOL0     H35070  -2.599   4.479   4.095 -0.3426  0.2190  1.2511
  260MOL0     H35071  -2.444   4.443   4.185  0.3203 -1.4082  4.2339
  260MOL0     H35072  -2.720   4.295   4.204  0.2649 -0.4414 -0.3412
  260MOL0     H35073  -2.569   4.256   4.295  0.2581  0.3651 -1.1810
  260MOL0     H35074  -2.759   4.490   4.331  2.1436  1.1721 -2.1731
  260MOL0     H35075  -2.600   4.482   4.407  1.6277  0.7612 -2.9260
  260MOL0     H35076  -2.648   4.284   4.518  1.5564  1.0506 -1.7683
  260MOL0     H35077  -2.784   4.394   4.565 -0.1117 -0.6875 -0.1226
  260MOL0     H35078  -2.772   4.129   4.407  3.4037  1.6457  0.5245
  260MOL0     H35079  -2.880   4.265   4.349 -1.4920 -1.7979  0.4113
  260MOL0     H35080  -2.987   4.268   4.565 -1.0200 -1.5526  0.6053
  260MOL0     H35081  -2.881   4.144   4.625  1.7446  2.7311 -0.3772
  260MOL0     H35082  -2.338   4.514   3.716 -0.9042 -0.6938  2.3386
  260MOL0     H35083  -2.139   4.639   3.586 -3.1514 -0.9314 -0.4270
  260MOL0     H35084  -1.768   4.711   3.459  0.8559  1.8350 -0.8027
  260MOL0     H35085  -1.577   4.768   3.294 -1.9849 -1.4606  0.5589
  260MOL0     H35086   0.237   5.823   3.571  1.4981  0.0281  2.8851
  260MOL0     H35087   0.377   6.025   3.550  0.6037 -3.3330  2.0303
  260MOL0     H35088   0.195   6.555   3.341  0.5196 -2.8956 -2.5551
  260MOL0     H35089   0.336   6.704   3.236 -0.6756  0.9630  0.2821
  260MOL0     H35090   0.704   6.828   3.441  2.9460 -1.5851  1.2389
  260MOL0     H35091   0.769   6.712   3.324  1.2755  1.4548 -2.5083
  260MOL0     H35092   0.859   6.925   3.278 -0.4671 -1.4431  2.6175
  260MOL0     H35093   0.696   7.002   3.294  0.0615 -0.6491  2.7307
  260MOL0     H35094   0.732   7.001   3.052 -1.6515 -0.1031  1.4928
  260MOL0     H35095   0.642   6.858   3.075 -0.5533  1.6316  0.8095
  260MOL0     H35096   0.805   6.775   2.949 -2.9869 -0.5838  1.3512
  260MOL0     H35097   0.866   6.726   3.106  1.5356 -0.3621 -1.3021
  260MOL0     H35098   1.151   7.015   2.987  0.4123 -1.1778 -0.0382
  260MOL0     H35099   0.656   6.566   3.499  0.2329  0.6463 -0.7153
  260MOL0     H35100   0.531   6.404   3.583  1.7872 -1.3178 -2.0928
  261MOL0     O35101  10.744   2.877   1.953  0.4401  0.2538  0.0083
  261MOL0     C35102  10.812   2.926   2.042 -0.0846  0.3098 -0.7612
  261MOL0     O35103  10.767   3.016   2.137  0.8912  0.8756 -0.5540
  261MOL0     C35104  10.633   3.055   2.130  0.4131 -0.4373 -1.2002
  261MOL0     C35105  10.584   3.071   2.259 -0.5296  0.6931 -0.1179
  261MOL0     C35106  10.444   3.093   2.279  0.3686  0.0111  0.5287
  261MOL0     C35107  10.358   3.109   2.168  0.1683 -0.1697  0.1228
  261MOL0     O35108  10.232   3.158   2.177 -0.2366  0.2140  0.4225
  261MOL0     C35109  10.146   3.085   2.260  0.1267  0.5430  0.2151
  261MOL0     C35110  10.015   3.159   2.281 -0.0053  0.8016 -0.8912
  261MOL0     C35111  10.027   3.280   2.376 -0.1182  0.2142  0.7066
  261MOL0     C35112   9.906   3.309   2.457 -0.4968 -1.0108 -0.0923
  261MOL0     C35113   9.943   3.384   2.586  0.5057 -0.2606 -1.0056
  261MOL0     C35114   9.931   3.535   2.552 -0.1369 -0.1786  0.7695
  261MOL0     C35115   9.902   3.615   2.671 -0.3035  0.2102 -0.7201
  261MOL0     C35116  10.017   3.660   2.745 -0.9112  0.2409  0.3209
  261MOL0     N35117  10.003   3.721   2.875 -0.2922 -0.0251 -0.9534
  261MOL0     C35118   9.921   3.831   2.902  0.1531  1.0959 -0.0969
  261MOL0     C35119   9.918   3.843   3.043  0.4261 -0.5719 -0.4483
  261MOL0     C35120   9.875   3.953   3.129  1.2788 -0.9842 -0.3406
  261MOL0     C35121   9.717   3.960   3.130  0.2138 -0.2267  0.8004
  261MOL0     C35122   9.661   4.066   3.228  0.1780  0.5685  0.4495
  261MOL0     C35123   9.513   4.068   3.238  0.1073  0.3967  0.4663
  261MOL0     O35124   9.472   4.187   3.295  0.7527  0.0236 -0.7460
  261MOL0     C35125   9.339   4.192   3.342 -0.8293  0.0242 -0.0550
  261MOL0     C35126   9.239   4.107   3.300  0.3737  0.6205 -0.5412
  261MOL0     C35127   9.097   4.130   3.328  0.0904 -0.5474 -0.6401
  261MOL0     C35128   8.999   4.023   3.271 -0.0112 -0.0377 -0.2651
  261MOL0     C35129   9.066   4.238   3.418  0.6986  0.1168 -0.8123
  261MOL0     C35130   8.930   4.277   3.453  0.7314 -0.2579 -0.7154
  261MOL0     O35131   8.915   4.384   3.542  0.4949  0.2267  0.7608
  261MOL0     C35132   8.783   4.420   3.591  0.3260 -0.2323  1.0839
  261MOL0     C35133   8.708   4.331   3.670  0.0660  0.1838 -0.1754
  261MOL0     C35134   8.578   4.363   3.704  0.9114 -0.0995  0.2657
  261MOL0     C35135   8.519   4.480   3.658  0.4448 -0.8202 -0.6423
  261MOL0     O35136   8.389   4.512   3.691  0.3956 -0.1136  0.4043
  261MOL0     C35137   8.331   4.642   3.649  0.6762 -0.5144  0.8273
  261MOL0     C35138   8.368   4.746   3.761  0.3441  0.4193  0.6015
  261MOL0     C35139   8.340   4.887   3.719  0.3069 -0.8651  0.3764
  261MOL0     C35140   8.388   4.986   3.825 -0.0824  0.7006  0.7927
  261MOL0     C35141   8.345   5.130   3.816 -0.1255 -0.0570  0.3843
  261MOL0     C35142   8.396   5.220   3.928 -1.0731 -0.0409  0.2508
  261MOL0     C35143   8.375   5.377   3.901  0.6533 -0.7505  0.1558
  261MOL0     C35144   8.376   5.464   4.021  0.6700 -1.1637  0.3691
  261MOL0    Cl35145   8.536   5.433   4.101 -0.1807  0.4121 -0.2136
  261MOL0     C35146   8.602   4.568   3.582  0.1210  0.1112 -0.0516
  261MOL0     C35147   8.733   4.535   3.549  0.2897 -1.2071  0.1281
  261MOL0     O35148   8.828   4.226   3.397 -0.7883 -0.0290  0.2500
  261MOL0     C35149   9.171   4.326   3.463 -1.3206 -0.0323  0.3892
  261MOL0     C35150   9.304   4.297   3.428  0.6150 -0.5012 -0.1908
  261MOL0     N35151   9.997   3.736   3.092 -0.7270 -0.2489 -0.5540
  261MOL0     N35152  10.047   3.666   2.993 -0.2556  0.0880 -0.0820
  261MOL0     C35153  10.412   3.096   2.039  0.3250 -0.6556  0.6345
  261MOL0     C35154  10.547   3.071   2.018 -0.4660 -0.3670  0.1310
  261MOL0     C35155  10.960   2.891   2.047 -0.0045  0.5141 -0.3579
  261MOL0     C35156  11.036   2.889   2.172  0.7872  1.1530  0.0119
  261MOL0     C35157  11.174   2.853   2.164 -0.1496 -0.3686 -0.0655
  261MOL0     C35158  11.244   2.818   2.045  0.2445  0.0203 -0.3827
  261MOL0     O35159  11.373   2.783   2.063 -0.2320 -0.2550 -0.4172
  261MOL0     C35160  11.443   2.718   1.960  0.4319 -0.3038 -0.5661
  261MOL0     C35161  11.583   2.674   1.995 -0.1774 -0.9941 -0.6616
  261MOL0     C35162  11.682   2.787   2.016  1.0041 -0.6228 -0.1754
  261MOL0     C35163  11.820   2.730   2.064  0.0980  0.2194 -0.4412
  261MOL0     C35164  11.912   2.836   2.107 -0.8536 -0.5263  1.1904
  261MOL0     C35165  11.980   2.941   2.127  0.1869 -0.0686  0.7793
  261MOL0     C35166  11.163   2.825   1.922 -0.4830 -0.5216 -0.4729
  261MOL0     C35167  11.029   2.858   1.931  0.1675 -0.9585  0.5415
  261MOL0     H35168  10.644   3.053   2.347  0.3294  2.7290 -0.2325
  261MOL0     H35169  10.403   3.105   2.379 -1.1259 -2.2249  0.2568
  261MOL0     H35170  10.134   2.985   2.217  0.6708  0.7492 -0.4338
  261MOL0     H35171  10.194   3.068   2.357  1.2529  0.8468 -0.2745
  261MOL0     H35172   9.981   3.186   2.181 -1.3284  0.2911 -0.6021
  261MOL0     H35173   9.947   3.085   2.325  0.1793  0.9816 -0.2863
  261MOL0     H35174  10.117   3.270   2.439  0.0669 -1.9244  0.1889
  261MOL0     H35175  10.045   3.369   2.315 -0.2637  0.0587  0.4356
  261MOL0     H35176   9.835   3.365   2.395  2.7812  2.3407 -1.1700
  261MOL0     H35177   9.852   3.219   2.489 -0.8920 -0.4038  1.0025
  261MOL0     H35178   9.871   3.353   2.663  3.3416  2.4595  3.2182
  261MOL0     H35179  10.039   3.350   2.627  0.1073  0.9840  1.1529
  261MOL0     H35180  10.024   3.570   2.507  0.7495 -0.5799  2.1949
  261MOL0     H35181   9.845   3.547   2.486 -0.9245 -1.5726  1.4847
  261MOL0     H35182   9.841   3.705   2.662  0.7210  0.6863 -5.1021
  261MOL0     H35183   9.851   3.554   2.746  4.3203 -1.2219  1.6231
  261MOL0     H35184  10.053   3.748   2.691  0.4452 -0.1493  0.5605
  261MOL0     H35185  10.095   3.584   2.750 -1.0247  0.1204  0.2764
  261MOL0     H35186   9.878   3.904   2.835 -0.2115 -1.0799 -2.3469
  261MOL0     H35187   9.917   3.930   3.228  0.7029 -2.3212 -0.3808
  261MOL0     H35188   9.904   4.052   3.093  1.6088 -1.3984 -1.2425
  261MOL0     H35189   9.671   3.869   3.169  0.1742 -0.7999 -0.5405
  261MOL0     H35190   9.676   3.987   3.032  0.0404  2.6671  1.5676
  261MOL0     H35191   9.702   4.164   3.201  1.6973  0.3238  1.7587
  261MOL0     H35192   9.706   4.044   3.325  0.1627 -2.2390 -0.1018
  261MOL0     H35193   9.473   3.974   3.278 -0.3919 -0.5541 -2.0851
  261MOL0     H35194   9.479   4.065   3.134 -0.6641  3.2366  0.5679
  261MOL0     H35195   9.265   4.026   3.233 -2.1610 -0.4609 -0.3478
  261MOL0     H35196   8.930   3.985   3.346 -0.1580  1.7440  0.5530
  261MOL0     H35197   8.947   4.059   3.182  1.4948 -0.6152 -1.4248
  261MOL0     H35198   9.069   3.942   3.250  3.2149  2.3207  0.5178
  261MOL0     H35199   8.759   4.245   3.713  2.2513  0.9636 -1.0661
  261MOL0     H35200   8.512   4.298   3.759 -0.5656  0.5522 -0.6699
  261MOL0     H35201   8.357   4.680   3.550  1.9990 -0.2883  1.2420
  261MOL0     H35202   8.222   4.637   3.649  0.3413  3.2105 -0.5432
  261MOL0     H35203   8.317   4.725   3.855 -2.6896 -1.5982 -1.3157
  261MOL0     H35204   8.476   4.739   3.777  0.3509 -1.1735  0.0939
  261MOL0     H35205   8.233   4.910   3.713  0.5851  0.1412 -2.1323
  261MOL0     H35206   8.381   4.912   3.620  0.9422  1.0950  1.0907
  261MOL0     H35207   8.343   4.946   3.916 -2.0018 -0.1776 -0.4815
  261MOL0     H35208   8.495   4.977   3.845 -0.2235  0.7108  1.5731
  261MOL0     H35209   8.237   5.129   3.801 -0.1808  0.7871  0.7073
  261MOL0     H35210   8.399   5.166   3.728  2.2131  0.6572  2.0275
  261MOL0     H35211   8.352   5.194   4.025 -1.3051 -0.7234 -0.0318
  261MOL0     H35212   8.504   5.202   3.937 -0.3446  2.5091 -2.0829
  261MOL0     H35213   8.271   5.378   3.867  0.7585  1.3017 -0.1985
  261MOL0     H35214   8.435   5.421   3.820 -0.7630  4.7743  1.7202
  261MOL0     H35215   8.294   5.435   4.088 -1.2893  0.2138 -1.2882
  261MOL0     H35216   8.373   5.571   3.997 -0.2952 -1.1664  0.4191
  261MOL0     H35217   8.573   4.659   3.531 -0.0662  0.2435  0.2860
  261MOL0     H35218   8.778   4.604   3.478 -0.6335 -1.6792 -0.9331
  261MOL0     H35219   9.161   4.419   3.518 -0.9453  0.4060 -0.2647
  261MOL0     H35220   9.383   4.367   3.452  1.0431 -1.3226  0.8746
  261MOL0     H35221  10.352   3.116   1.951  2.1436  1.4083 -0.2228
  261MOL0     H35222  10.594   3.071   1.920  0.9617  0.5038  0.7723
  261MOL0     H35223  10.990   2.908   2.268  0.4055 -0.4891  0.1677
  261MOL0     H35224  11.221   2.837   2.260  1.3852 -0.7913 -0.8495
  261MOL0     H35225  11.379   2.633   1.936  0.8534 -0.9645  0.5927
  261MOL0     H35226  11.450   2.774   1.866 -0.5206  0.5668 -0.1396
  261MOL0     H35227  11.633   2.614   1.919 -1.6663 -1.2821 -1.4363
  261MOL0     H35228  11.587   2.623   2.092 -0.0226  2.3115  1.2449
  261MOL0     H35229  11.646   2.855   2.094  0.4774 -0.2054 -0.7699
  261MOL0     H35230  11.695   2.841   1.922  1.1181  2.2571  1.3642
  261MOL0     H35231  11.867   2.676   1.981 -1.6898 -1.6762 -0.3056
  261MOL0     H35232  11.824   2.655   2.143  1.4362  1.9430  1.2170
  261MOL0     H35233  12.042   3.027   2.141  0.9900 -0.7648  1.5862
  261MOL0     H35234  11.206   2.803   1.825 -0.2377 -0.0624 -0.4694
  261MOL0     H35235  10.978   2.846   1.836 -1.3917 -2.8167  1.5355
  262MOL0     O35236  10.763   9.890   9.482  0.1303 -0.0611 -1.1279
  262MOL0     C35237  10.749   9.788   9.418  0.1613  0.5257  0.2421
  262MOL0     O35238  10.631   9.754   9.353  0.4183  0.1289  0.9062
  262MOL0     C35239  10.523   9.842   9.350  0.1027  0.1936 -0.8589
  262MOL0     C35240  10.525   9.977   9.360 -0.1747  0.6586  0.0304
  262MOL0     C35241  10.404  10.051   9.377  0.7254  0.5381 -0.1098
  262MOL0     C35242  10.278   9.988   9.385  0.2066 -0.2918 -0.4778
  262MOL0     O35243  10.174  10.076   9.394 -0.7612 -0.9407 -0.2761
  262MOL0     C35244  10.171  10.130   9.530 -0.3862  0.1288 -0.4556
  262MOL0     C35245  10.034  10.171   9.581 -0.6325  0.1761 -0.0962
  262MOL0     C35246   9.966  10.260   9.473 -0.6716  0.3506  0.4127
  262MOL0     C35247   9.818  10.271   9.514 -0.3593  0.7959 -0.1975
  262MOL0     C35248   9.756  10.360   9.411  0.7210 -0.0098 -1.0424
  262MOL0     C35249   9.604  10.391   9.430 -0.9501 -0.0506  0.2945
  262MOL0     C35250   9.560  10.439   9.568 -0.2977  0.3563  0.5408
  262MOL0     C35251   9.418  10.468   9.580 -0.2263  0.7760 -0.4136
  262MOL0     N35252   9.325  10.360   9.544  0.4363  0.3047  0.2826
  262MOL0     C35253   9.216  10.348   9.455  0.0674  0.2057 -0.3327
  262MOL0     C35254   9.151  10.231   9.483 -0.2037  0.8597  0.2683
  262MOL0     C35255   9.032  10.188   9.412 -0.2200  0.0242 -0.0398
  262MOL0     C35256   8.908  10.250   9.464  0.3514 -0.0377  0.7728
  262MOL0     C35257   8.771  10.199   9.401  0.5831 -0.0763  0.0664
  262MOL0     C35258   8.642  10.228   9.495 -0.2180 -0.4560  0.0423
  262MOL0     O35259   8.652  10.356   9.546 -0.0069 -0.1190 -0.4348
  262MOL0     C35260   8.574  10.461   9.501  0.4091  0.3854 -0.8503
  262MOL0     C35261   8.537  10.469   9.371  0.5537 -0.3500  0.3146
  262MOL0     C35262   8.455  10.569   9.317  0.1411  0.9157  0.8381
  262MOL0     C35263   8.425  10.545   9.169  0.5692  0.7051 -0.0285
  262MOL0     C35264   8.420  10.683   9.398 -0.4893 -0.2531  0.0907
  262MOL0     C35265   8.322  10.788   9.352 -0.1232  0.0051  0.6652
  262MOL0     O35266   8.304  10.892   9.425 -0.0785 -0.6020  0.5662
  262MOL0     C35267   8.262  11.014   9.368 -1.1881  0.7223 -1.2775
  262MOL0     C35268   8.358  11.085   9.295  0.5406 -0.2892 -0.2625
  262MOL0     C35269   8.331  11.221   9.253  0.3272  0.6166 -1.1582
  262MOL0     C35270   8.212  11.277   9.293  0.7225  0.1723 -1.1475
  262MOL0     O35271   8.179  11.403   9.259  0.8394  0.4644  1.5237
  262MOL0     C35272   8.202  11.490   9.369  0.3418  0.2524 -0.4980
  262MOL0     C35273   8.221  11.636   9.322 -0.8181  0.4706 -0.3808
  262MOL0     C35274   8.103  11.694   9.242 -0.4045 -0.4343  0.2354
  262MOL0     C35275   8.093  11.652   9.094 -0.0934 -0.8064 -0.4794
  262MOL0     C35276   7.954  11.676   9.030 -0.1669  0.2501 -0.8538
  262MOL0     C35277   7.900  11.823   9.039 -0.9846  0.5569 -0.2209
  262MOL0     C35278   7.941  11.901   8.906  0.1818  0.3326  0.7321
  262MOL0     C35279   8.052  11.992   8.941 -0.1574 -0.2934  0.7459
  262MOL0    Cl35280   8.000  12.123   9.045  0.2214  0.6859  0.3531
  262MOL0     C35281   8.116  11.204   9.355 -0.5384 -0.7749 -0.5560
  262MOL0     C35282   8.139  11.074   9.397  0.8905  0.3263  0.5887
  262MOL0     O35283   8.269  10.761   9.240 -0.2804 -0.5210  0.4220
  262MOL0     C35284   8.472  10.688   9.530 -0.5481  0.6160  0.0021
  262MOL0     C35285   8.547  10.580   9.579 -0.1622 -0.0517  0.5592
  262MOL0     N35286   9.205  10.174   9.596 -1.1383 -0.7059 -0.3323
  262MOL0     N35287   9.298  10.255   9.629 -0.5697  0.0243  0.3720
  262MOL0     C35288  10.277   9.844   9.380 -0.1061 -0.9145  0.7533
  262MOL0     C35289  10.399   9.778   9.346  0.2155 -0.3881 -0.3656
  262MOL0     C35290  10.862   9.697   9.382  0.0267 -0.7848 -0.6466
  262MOL0     C35291  10.985   9.716   9.458  0.5676 -0.6430 -0.5489
  262MOL0     C35292  11.100   9.627   9.436  0.1502 -0.2177  0.9937
  262MOL0     C35293  11.104   9.546   9.320  0.7670  0.0485  0.2963
  262MOL0     O35294  11.212   9.463   9.280  0.1993  0.5608 -0.2317
  262MOL0     C35295  11.258   9.498   9.151 -0.2872  0.0246 -0.2082
  262MOL0     C35296  11.409   9.495   9.155 -0.8968  0.9261  0.4390
  262MOL0     C35297  11.468   9.528   9.014 -0.3112 -0.8478 -0.3186
  262MOL0     C35298  11.621   9.485   8.986  1.0479 -0.4782 -1.2516
  262MOL0     C35299  11.656   9.493   8.839  0.0409 -0.2359 -0.0391
  262MOL0     C35300  11.657   9.501   8.713 -0.6034  0.1856  0.3146
  262MOL0     C35301  10.986   9.531   9.247 -0.4982 -0.5758 -1.0080
  262MOL0     C35302  10.874   9.604   9.277 -0.5759 -0.1109 -0.0602
  262MOL0     H35303  10.612  10.042   9.355 -1.8575  3.1012  0.6945
  262MOL0     H35304  10.395  10.159   9.379 -3.4988  0.3606  1.7170
  262MOL0     H35305  10.215  10.061   9.603 -0.5678  1.1868  0.6980
  262MOL0     H35306  10.243  10.211   9.548  1.2496 -1.6853  1.7642
  262MOL0     H35307   9.977  10.084   9.616  0.0252  0.5935  2.1772
  262MOL0     H35308  10.036  10.229   9.674 -2.5925  1.5684 -0.8579
  262MOL0     H35309  10.005  10.361   9.465  2.6883 -0.8521 -0.2376
  262MOL0     H35310   9.982  10.216   9.374 -2.7161  0.6567 -0.0988
  262MOL0     H35311   9.765  10.175   9.521 -0.9505  1.2270  2.2131
  262MOL0     H35312   9.812  10.303   9.619 -0.7431 -2.9682  1.0701
  262MOL0     H35313   9.823  10.446   9.417  1.6787 -0.3593 -4.5351
  262MOL0     H35314   9.764  10.324   9.308 -0.2758 -2.6909 -0.2648
  262MOL0     H35315   9.580  10.464   9.353  1.4862  1.0160  0.4658
  262MOL0     H35316   9.545  10.304   9.400  0.1373 -0.2231 -1.4762
  262MOL0     H35317   9.588  10.359   9.638  2.6047  0.7598 -0.0153
  262MOL0     H35318   9.612  10.531   9.596 -1.4723  1.1108  0.3109
  262MOL0     H35319   9.394  10.563   9.531  1.0793  1.9695  1.1459
  262MOL0     H35320   9.398  10.499   9.682  2.3701  5.1665 -1.0001
  262MOL0     H35321   9.180  10.413   9.376  2.5075  1.1430 -0.7588
  262MOL0     H35322   9.064  10.204   9.308 -0.7629 -0.9342 -0.3724
  262MOL0     H35323   9.029  10.079   9.425  0.9452  0.0054  0.2452
  262MOL0     H35324   8.910  10.357   9.441 -0.7504 -0.1713 -0.0737
  262MOL0     H35325   8.899  10.248   9.573 -0.3575 -0.2647  0.7169
  262MOL0     H35326   8.765  10.091   9.384 -2.3566 -0.6875  3.6271
  262MOL0     H35327   8.755  10.248   9.305  0.5201 -2.6229 -1.3149
  262MOL0     H35328   8.639  10.153   9.574  1.1586 -1.3401 -0.7076
  262MOL0     H35329   8.545  10.213   9.446 -2.6450  0.3833  4.1229
  262MOL0     H35330   8.566  10.397   9.295 -0.7028  2.0540 -2.6633
  262MOL0     H35331   8.320  10.530   9.143  1.5918 -1.2834 -3.5572
  262MOL0     H35332   8.452  10.636   9.114  2.2176 -0.2121 -0.7855
  262MOL0     H35333   8.478  10.460   9.125 -0.5856  0.5173 -1.1065
  262MOL0     H35334   8.456  11.040   9.281  1.3712  1.2431  0.2952
  262MOL0     H35335   8.408  11.264   9.191  0.0632  0.3835 -1.6485
  262MOL0     H35336   8.126  11.487   9.447  2.8123 -0.0011  2.0379
  262MOL0     H35337   8.300  11.468   9.412  2.1012  1.4544 -3.5842
  262MOL0     H35338   8.239  11.697   9.410 -2.0797 -0.5959  0.6561
  262MOL0     H35339   8.313  11.631   9.263  0.6193 -0.0658  1.8269
  262MOL0     H35340   8.098  11.803   9.251  0.1882 -0.3162 -0.7772
  262MOL0     H35341   8.013  11.666   9.297 -0.3451  2.6581  2.1345
  262MOL0     H35342   8.165  11.714   9.038 -0.3421  1.5688  1.6594
  262MOL0     H35343   8.118  11.547   9.080  0.5297 -0.4705 -2.1276
  262MOL0     H35344   7.880  11.615   9.083  2.5778 -1.4344  1.3415
  262MOL0     H35345   7.949  11.634   8.929 -2.7065 -2.6130  0.2994
  262MOL0     H35346   7.792  11.825   9.055 -0.6501  2.0580  2.4354
  262MOL0     H35347   7.932  11.874   9.130 -2.2833  3.8530 -1.4578
  262MOL0     H35348   7.853  11.947   8.859  0.2827  0.9120  1.0947
  262MOL0     H35349   7.975  11.821   8.840 -0.4726 -2.2788  3.3162
  262MOL0     H35350   8.100  12.026   8.849 -0.2844 -1.4051  0.2531
  262MOL0     H35351   8.133  11.933   8.985  1.0166 -0.2187 -1.1785
  262MOL0     H35352   8.021  11.255   9.366  0.4257  0.8920  0.4938
  262MOL0     H35353   8.076  11.010   9.458  1.1116  2.3346  3.0715
  262MOL0     H35354   8.444  10.767   9.598 -3.6504 -0.1327 -0.2424
  262MOL0     H35355   8.596  10.576   9.676  2.4629  1.0405 -0.6281
  262MOL0     H35356  10.185   9.790   9.395 -0.3105 -1.1218 -1.0336
  262MOL0     H35357  10.393   9.670   9.341 -2.4995 -0.4751  2.1462
  262MOL0     H35358  11.008   9.805   9.516 -0.7333 -0.4127 -0.3440
  262MOL0     H35359  11.199   9.619   9.479  0.4866 -0.9444  0.1280
  262MOL0     H35360  11.216   9.427   9.078  1.3675  0.1935 -1.3817
  262MOL0     H35361  11.232   9.599   9.118  1.3869  0.5785  0.1086
  262MOL0     H35362  11.444   9.394   9.180 -1.5618  0.3184 -0.9718
  262MOL0     H35363  11.448   9.569   9.225 -2.7696 -0.2298  2.8558
  262MOL0     H35364  11.458   9.636   8.997 -0.4214 -0.1735  3.1930
  262MOL0     H35365  11.401   9.481   8.941 -2.8444 -0.7579  1.8076
  262MOL0     H35366  11.627   9.381   9.019 -1.4188 -0.5880 -0.9002
  262MOL0     H35367  11.683   9.559   9.037 -0.1561  0.5485 -1.2072
  262MOL0     H35368  11.642   9.516   8.608 -0.0858 -2.5060 -0.2221
  262MOL0     H35369  10.992   9.452   9.173  1.8603 -0.0586 -1.4265
  262MOL0     H35370  10.783   9.570   9.229 -1.8082  0.5298  1.7351
  263MOL0     O35371   2.662   0.337   9.710  0.1162  0.4953 -0.1409
  263MOL0     C35372   2.643   0.323   9.827 -0.5371 -1.4247  0.4194
  263MOL0     O35373   2.617   0.429   9.913 -0.0920 -0.1862 -0.1010
  263MOL0     C35374   2.629   0.562   9.878  0.1420 -0.8445  0.2229
  263MOL0     C35375   2.686   0.663   9.961  1.1207  0.4062  0.4728
  263MOL0     C35376   2.695   0.794   9.921 -0.1509  0.3934 -0.0391
  263MOL0     C35377   2.660   0.828   9.793 -0.5802  0.6998  0.1872
  263MOL0     O35378   2.673   0.957   9.759 -0.2535 -0.2012  0.4214
  263MOL0     C35379   2.558   1.018   9.699 -0.6838 -1.0106 -0.1934
  263MOL0     C35380   2.555   1.170   9.722 -0.2904  0.3469  0.3356
  263MOL0     C35381   2.470   1.247   9.630 -0.5110 -0.1800  0.6341
  263MOL0     C35382   2.480   1.402   9.655 -0.2232 -0.4465 -0.7575
  263MOL0     C35383   2.385   1.471   9.552  0.1732 -0.4475  0.3003
  263MOL0     C35384   2.390   1.621   9.571  0.6875  0.9464  0.3409
  263MOL0     C35385   2.273   1.682   9.491  0.0797 -1.2866 -0.3326
  263MOL0     C35386   2.315   1.710   9.343 -0.5842 -0.0669 -0.4120
  263MOL0     N35387   2.452   1.765   9.317 -1.0453 -0.0020  0.2762
  263MOL0     C35388   2.494   1.888   9.353  0.1546  0.3476 -0.4700
  263MOL0     C35389   2.605   1.910   9.277 -1.1692 -0.4271  0.3550
  263MOL0     C35390   2.699   2.024   9.271 -0.4733 -0.4557 -0.1136
  263MOL0     C35391   2.665   2.143   9.368 -0.2811  0.4301  0.0196
  263MOL0     C35392   2.713   2.101   9.512  0.1579 -0.1005 -0.1771
  263MOL0     C35393   2.667   2.195   9.626  0.0546 -1.1659  1.3209
  263MOL0     O35394   2.541   2.256   9.588  0.0037 -0.1416 -0.1034
  263MOL0     C35395   2.433   2.180   9.620  1.7588 -0.3456 -0.0064
  263MOL0     C35396   2.303   2.223   9.565 -0.5033  0.5315  0.1338
  263MOL0     C35397   2.186   2.161   9.609  0.5582  0.6274 -0.2465
  263MOL0     C35398   2.056   2.227   9.575  0.0096 -0.8702 -0.3524
  263MOL0     C35399   2.184   2.054   9.702 -0.3095 -0.8694  0.1680
  263MOL0     C35400   2.063   1.994   9.744 -0.5940  0.2503 -0.8889
  263MOL0     O35401   1.974   1.946   9.652  0.1334  0.6949  0.2828
  263MOL0     C35402   1.876   1.861   9.697  0.6055 -0.5920  0.1196
  263MOL0     C35403   1.883   1.732   9.649  0.1314  0.2243  0.1088
  263MOL0     C35404   1.781   1.640   9.680 -0.1998  0.4852 -0.3468
  263MOL0     C35405   1.669   1.676   9.749 -0.0311 -0.1973 -0.5368
  263MOL0     O35406   1.572   1.584   9.781  0.7397  0.3767 -0.1364
  263MOL0     C35407   1.494   1.596   9.904 -1.2533  0.5285  0.8256
  263MOL0     C35408   1.473   1.456   9.965 -0.5316  0.4206  0.2330
  263MOL0     C35409   1.607   1.380   9.985  0.1248  0.1507 -0.2743
  263MOL0     C35410   1.562   1.230   9.999 -0.1045  0.7961  0.9435
  263MOL0     C35411   1.670   1.122   9.996  0.5371  0.9885  0.8667
  263MOL0     C35412   1.634   0.983  10.051 -0.4831 -0.6606 -0.1205
  263MOL0     C35413   1.759   0.893  10.030  0.4226  0.5153  0.5477
  263MOL0     C35414   1.706   0.767   9.966 -0.2964  0.6715 -0.4767
  263MOL0    Cl35415   1.710   0.781   9.792  0.0263  0.3823 -0.6704
  263MOL0     C35416   1.661   1.814   9.805  0.9609  0.2837 -0.2986
  263MOL0     C35417   1.766   1.899   9.782 -0.1411 -0.2849  0.3684
  263MOL0     O35418   2.063   1.978   9.866  0.3822  0.6452 -0.0450
  263MOL0     C35419   2.308   2.006   9.746 -0.1042 -0.5713 -0.3534
  263MOL0     C35420   2.432   2.061   9.697 -0.8751  0.1550  0.3352
  263MOL0     N35421   2.650   1.793   9.222 -0.5617  0.7396  0.2722
  263MOL0     N35422   2.550   1.713   9.237 -0.2887  0.3496  0.6723
  263MOL0     C35423   2.602   0.738   9.711 -0.1346  0.2734 -0.2411
  263MOL0     C35424   2.590   0.603   9.751 -0.1035  0.5329  0.0287
  263MOL0     C35425   2.619   0.183   9.889  0.1169 -0.2957  0.4412
  263MOL0     C35426   2.605   0.173  10.029  0.3017  0.8357  0.0352
  263MOL0     C35427   2.590   0.040  10.094 -0.3848 -0.5658  1.0928
  263MOL0     C35428   2.597  -0.069  10.012 -0.8166  0.3324 -0.7415
  263MOL0     O35429   2.566  -0.190  10.074  0.2062  0.1516  0.2329
  263MOL0     C35430   2.638  -0.306  10.036  0.1614 -0.5267  0.3982
  263MOL0     C35431   2.583  -0.422  10.114  1.0256  1.2128  0.6285
  263MOL0     C35432   2.461  -0.501  10.044 -0.1642 -0.1346 -0.5759
  263MOL0     C35433   2.500  -0.611   9.951  0.1243 -0.5483  0.6152
  263MOL0     C35434   2.406  -0.626   9.847  1.0730 -0.2648 -0.0930
  263MOL0     C35435   2.325  -0.660   9.769  0.4615  0.1893  1.1505
  263MOL0     C35436   2.613  -0.058   9.880 -0.2283  0.3470  0.3841
  263MOL0     C35437   2.615   0.067   9.815 -0.6060  0.6188  0.5562
  263MOL0     H35438   2.719   0.624  10.057  1.5373 -1.6082 -0.4569
  263MOL0     H35439   2.752   0.854   9.991  1.5487 -2.1321  0.8650
  263MOL0     H35440   2.584   0.990   9.597  0.0427 -0.1997 -0.2427
  263MOL0     H35441   2.465   0.969   9.731  0.6349 -1.9560  2.5392
  263MOL0     H35442   2.536   1.190   9.827 -3.0361  1.7162 -0.3360
  263MOL0     H35443   2.656   1.213   9.720 -0.9961  3.0134  5.6341
  263MOL0     H35444   2.504   1.235   9.527 -0.2362 -0.0723  0.7125
  263MOL0     H35445   2.366   1.215   9.649 -1.5463  1.6805 -1.4916
  263MOL0     H35446   2.466   1.423   9.762  2.4296  3.5959 -1.0021
  263MOL0     H35447   2.581   1.436   9.633 -1.3741  1.9904 -2.7516
  263MOL0     H35448   2.420   1.442   9.452  2.8928  2.0554  0.3794
  263MOL0     H35449   2.282   1.438   9.569 -0.5626  0.4325 -1.9427
  263MOL0     H35450   2.354   1.637   9.673 -3.0482  0.4367 -0.7685
  263MOL0     H35451   2.488   1.667   9.553  1.2645 -0.5807 -0.6442
  263MOL0     H35452   2.177   1.631   9.497 -0.3018 -0.4071  2.3136
  263MOL0     H35453   2.251   1.781   9.529  0.2430 -1.4379  0.1666
  263MOL0     H35454   2.229   1.764   9.301 -2.8876 -0.6078  3.1726
  263MOL0     H35455   2.308   1.609   9.303 -1.7241 -1.0641  2.1130
  263MOL0     H35456   2.442   1.961   9.414 -5.5989 -1.9819 -1.9325
  263MOL0     H35457   2.797   1.988   9.304 -0.2153 -3.1179 -3.2737
  263MOL0     H35458   2.708   2.057   9.167 -0.6483 -1.3825 -0.4308
  263MOL0     H35459   2.559   2.169   9.357 -0.4038  0.5338  1.3770
  263MOL0     H35460   2.713   2.236   9.336  1.2518 -0.7876 -1.4164
  263MOL0     H35461   2.822   2.093   9.508  0.1789  0.5189 -1.0718
  263MOL0     H35462   2.665   2.009   9.546  2.2580  0.1229  4.1383
  263MOL0     H35463   2.740   2.276   9.631 -0.2185 -0.9601  2.1992
  263MOL0     H35464   2.658   2.146   9.724  2.3016 -3.1195  0.6450
  263MOL0     H35465   2.287   2.300   9.490 -0.6530  0.6692  0.3075
  263MOL0     H35466   2.015   2.263   9.670  0.7360 -2.5942  0.6699
  263MOL0     H35467   2.057   2.310   9.504 -1.4791 -0.5114 -0.0031
  263MOL0     H35468   1.981   2.156   9.539  1.4039 -2.2604 -0.6093
  263MOL0     H35469   1.969   1.696   9.594 -0.0428  2.1410 -1.5412
  263MOL0     H35470   1.784   1.540   9.637  3.2445 -0.1460  1.0079
  263MOL0     H35471   1.556   1.650   9.976  0.8488  1.1087 -1.3041
  263MOL0     H35472   1.400   1.649   9.886 -2.3396 -0.8636  2.2089
  263MOL0     H35473   1.422   1.462  10.061 -1.5304  3.4161 -0.3729
  263MOL0     H35474   1.405   1.402   9.898 -2.2208  2.7333 -0.0510
  263MOL0     H35475   1.660   1.415  10.074 -0.0631 -1.5849  0.5700
  263MOL0     H35476   1.669   1.383   9.894  3.7830  0.2207  2.0284
  263MOL0     H35477   1.493   1.222  10.083 -2.4264 -3.0724 -1.0413
  263MOL0     H35478   1.493   1.202   9.918  1.7140 -2.8854  0.4225
  263MOL0     H35479   1.754   1.159  10.055  2.0689  0.6572 -0.9854
  263MOL0     H35480   1.705   1.119   9.892  5.2669 -1.5109  2.2233
  263MOL0     H35481   1.606   0.997  10.156 -2.5711  4.7315 -1.0438
  263MOL0     H35482   1.546   0.944   9.999  0.1992 -0.1814 -1.7115
  263MOL0     H35483   1.818   0.875  10.121  0.4288 -2.9693  0.0028
  263MOL0     H35484   1.821   0.939   9.954 -2.7944  0.4391 -2.3558
  263MOL0     H35485   1.616   0.728  10.015  1.6945 -5.4935 -0.8409
  263MOL0     H35486   1.780   0.690   9.989  0.6788  1.4940 -0.8089
  263MOL0     H35487   1.579   1.852   9.865  0.0991  1.1040 -1.9260
  263MOL0     H35488   1.774   1.999   9.823 -1.9727  0.8645 -1.8496
  263MOL0     H35489   2.320   1.924   9.816 -0.4334  0.4128  0.8873
  263MOL0     H35490   2.522   2.013   9.733 -1.9756 -1.9886  0.3992
  263MOL0     H35491   2.575   0.771   9.612 -2.5694 -1.8108 -0.3680
  263MOL0     H35492   2.546   0.527   9.687  2.8276 -2.7830  1.6473
  263MOL0     H35493   2.612   0.263  10.089  1.8773 -0.2003  1.5114
  263MOL0     H35494   2.591   0.027  10.201 -3.3799 -1.9264  1.0483
  263MOL0     H35495   2.625  -0.338   9.932 -1.6577  2.3389 -0.3832
  263MOL0     H35496   2.740  -0.276  10.061 -0.8200  3.8473  0.0133
  263MOL0     H35497   2.539  -0.382  10.206  0.8196 -1.7406  1.9501
  263MOL0     H35498   2.672  -0.482  10.138  0.5176  1.2636  2.9138
  263MOL0     H35499   2.409  -0.423   9.988  4.2282  2.0801 -2.0545
  263MOL0     H35500   2.386  -0.535  10.116 -1.0475 -1.9234 -2.2427
  263MOL0     H35501   2.518  -0.707  10.000  1.5523  2.0294  5.8816
  263MOL0     H35502   2.594  -0.599   9.897 -0.7512  1.5095 -0.5765
  263MOL0     H35503   2.250  -0.668   9.693  0.7932  0.7493  0.7599
  263MOL0     H35504   2.628  -0.148   9.821 -0.9315  1.4001 -1.5019
  263MOL0     H35505   2.606   0.070   9.707 -0.1776  0.8537  0.5244
  264MOL0     O35506   3.083   3.502  10.999  1.1195  0.1818  0.0589
  264MOL0     C35507   3.121   3.390  10.978  0.5061  0.4973  0.6618
  264MOL0     O35508   3.068   3.295  10.890 -0.1999  0.1890  0.3040
  264MOL0     C35509   2.971   3.333  10.795 -0.0183  1.0050 -0.4712
  264MOL0     C35510   2.993   3.263  10.680 -0.0758 -0.3224 -0.0306
  264MOL0     C35511   2.902   3.273  10.574  0.1691  0.4663 -0.2224
  264MOL0     C35512   2.794   3.353  10.590  0.4753 -0.2884  0.6037
  264MOL0     O35513   2.702   3.372  10.486 -0.4510  0.7997 -0.1827
  264MOL0     C35514   2.562   3.379  10.523 -0.1000 -0.5847 -0.2388
  264MOL0     C35515   2.501   3.243  10.552  0.2875  0.0028 -0.7424
  264MOL0     C35516   2.521   3.153  10.433 -0.0325 -0.2910 -0.3920
  264MOL0     C35517   2.452   3.018  10.441 -0.0148 -0.2838  0.1669
  264MOL0     C35518   2.488   2.933  10.567 -0.4525  0.7373  0.9044
  264MOL0     C35519   2.414   2.807  10.554  0.0465 -0.5881  0.7640
  264MOL0     C35520   2.448   2.715  10.673 -0.5576 -0.5038  0.6499
  264MOL0     C35521   2.371   2.749  10.796 -0.4758 -0.5768 -0.4338
  264MOL0     N35522   2.391   2.668  10.917  0.2164 -1.1123  0.0298
  264MOL0     C35523   2.502   2.644  10.991  0.0704  0.1278 -0.7457
  264MOL0     C35524   2.474   2.550  11.080  0.5859 -0.4211 -0.4117
  264MOL0     C35525   2.559   2.505  11.194  0.6347  0.1261 -0.3074
  264MOL0     C35526   2.628   2.607  11.284 -0.0722 -0.4862  0.7792
  264MOL0     C35527   2.748   2.549  11.359 -0.6102  0.9148  0.2238
  264MOL0     C35528   2.825   2.642  11.457 -0.2081  1.5717  0.4318
  264MOL0     O35529   2.741   2.681  11.567 -0.0219  0.8630 -0.0965
  264MOL0     C35530   2.769   2.804  11.619  0.0607  0.1224 -1.2214
  264MOL0     C35531   2.694   2.915  11.585 -0.3892 -0.0488 -0.2823
  264MOL0     C35532   2.728   3.043  11.622  0.5980  0.2636  0.1382
  264MOL0     C35533   2.638   3.164  11.581  0.4501 -0.5294  0.0216
  264MOL0     C35534   2.854   3.061  11.692  0.5759 -0.5776 -0.2752
  264MOL0     C35535   2.903   3.198  11.728 -0.0676  0.3230 -0.4447
  264MOL0     O35536   2.805   3.290  11.757 -0.1515 -0.6993 -0.2548
  264MOL0     C35537   2.845   3.413  11.803  1.0860  0.2909  0.0812
  264MOL0     C35538   2.838   3.450  11.934 -0.7189  1.7390 -0.8765
  264MOL0     C35539   2.879   3.580  11.971  0.4565  0.7927  0.6101
  264MOL0     C35540   2.921   3.666  11.874 -0.1320  0.5990  0.3511
  264MOL0     O35541   2.973   3.795  11.901 -0.4647 -0.2034 -0.2835
  264MOL0     C35542   2.968   3.855  12.035  0.5865 -1.2824 -0.0480
  264MOL0     C35543   2.921   3.997  12.006  0.0284 -0.5701 -0.2820
  264MOL0     C35544   2.908   4.070  12.137  0.7661 -0.4500  0.1591
  264MOL0     C35545   2.868   4.223  12.123  0.1820 -0.5392  1.1038
  264MOL0     C35546   2.888   4.305  12.245  0.6559 -0.4418  0.7126
  264MOL0     C35547   2.817   4.443  12.224  0.9740 -0.1255  0.0105
  264MOL0     C35548   2.821   4.541  12.342  0.2977 -0.1363  0.0945
  264MOL0     C35549   2.723   4.508  12.452  0.5926 -0.4172 -0.9682
  264MOL0    Cl35550   2.679   4.650  12.541 -0.4073 -0.4890  0.3777
  264MOL0     C35551   2.930   3.634  11.743 -0.2282  1.2745  0.1187
  264MOL0     C35552   2.884   3.509  11.705 -0.7733  0.3655 -0.1270
  264MOL0     O35553   3.022   3.211  11.753  0.6321 -0.5083  1.2186
  264MOL0     C35554   2.927   2.956  11.737 -0.4369  0.3902 -0.1657
  264MOL0     C35555   2.886   2.821  11.697  0.1078  0.1607 -0.0327
  264MOL0     N35556   2.337   2.519  11.061  0.0274  0.7914 -0.9874
  264MOL0     N35557   2.286   2.595  10.972 -0.3140  0.3963 -0.1334
  264MOL0     C35558   2.776   3.430  10.706  0.7055  0.9192 -0.1979
  264MOL0     C35559   2.863   3.420  10.813 -0.4475  0.0491 -0.3036
  264MOL0     C35560   3.209   3.329  11.079 -0.4302  0.6413  0.4250
  264MOL0     C35561   3.264   3.404  11.185  0.4559  0.6437 -0.1833
  264MOL0     C35562   3.362   3.353  11.273 -0.2110 -0.6332 -0.2201
  264MOL0     C35563   3.426   3.235  11.236  0.2068 -0.4259  0.0388
  264MOL0     O35564   3.533   3.188  11.310  1.5205 -0.2635 -0.4912
  264MOL0     C35565   3.531   3.051  11.353 -0.2697  0.6091  0.5475
  264MOL0     C35566   3.409   3.012  11.439  0.5032  1.4553  0.2564
  264MOL0     C35567   3.400   3.087  11.578  0.2510  0.1626  0.1439
  264MOL0     C35568   3.274   3.061  11.659 -0.8643 -0.7222 -0.8355
  264MOL0     C35569   3.302   2.921  11.709  0.4132 -0.1305  1.3429
  264MOL0     C35570   3.329   2.811  11.754  0.0157 -0.4719 -0.0971
  264MOL0     C35571   3.373   3.154  11.138 -0.0552  0.0437  0.8106
  264MOL0     C35572   3.268   3.200  11.056  0.0975  0.4744 -0.5010
  264MOL0     H35573   3.063   3.181  10.667  1.5055  0.2139  3.6665
  264MOL0     H35574   2.910   3.217  10.481  0.3596  2.0497 -1.1975
  264MOL0     H35575   2.545   3.447  10.607  0.2498  0.1067 -0.7219
  264MOL0     H35576   2.507   3.415  10.436 -0.1684 -1.8920 -0.7610
  264MOL0     H35577   2.542   3.205  10.646  1.2661  4.9757  1.2012
  264MOL0     H35578   2.394   3.261  10.566  0.3277 -1.2269  1.7858
  264MOL0     H35579   2.486   3.213  10.349  0.8676 -0.4830 -0.9181
  264MOL0     H35580   2.625   3.126  10.410 -0.3087 -0.6938 -1.2027
  264MOL0     H35581   2.346   3.043  10.455  0.3219  1.1434  0.3115
  264MOL0     H35582   2.466   2.957  10.352 -0.8096 -3.0023  1.7724
  264MOL0     H35583   2.596   2.915  10.568 -0.4281  0.8346  0.3607
  264MOL0     H35584   2.455   2.980  10.660 -2.0153  0.9901  0.2582
  264MOL0     H35585   2.308   2.834  10.548  0.0783 -0.0853  2.1672
  264MOL0     H35586   2.434   2.759  10.458 -0.6394  0.4715  0.0779
  264MOL0     H35587   2.418   2.615  10.640  2.5776 -0.7685 -1.8460
  264MOL0     H35588   2.556   2.716  10.684 -0.2448 -0.1198 -1.8045
  264MOL0     H35589   2.266   2.764  10.772 -0.2717 -0.7436 -1.4964
  264MOL0     H35590   2.399   2.850  10.829 -0.5601  0.1943 -2.5590
  264MOL0     H35591   2.591   2.706  10.993 -0.0229  0.2986  1.7111
  264MOL0     H35592   2.493   2.452  11.263  0.6455  3.2130  2.2821
  264MOL0     H35593   2.635   2.435  11.157  0.6486 -0.4662  0.8160
  264MOL0     H35594   2.553   2.631  11.359 -4.3638  1.7836 -3.6894
  264MOL0     H35595   2.653   2.697  11.226 -0.6306 -0.4182  0.6434
  264MOL0     H35596   2.814   2.509  11.281 -2.3119 -2.5743  0.3454
  264MOL0     H35597   2.710   2.455  11.401  0.5171  0.0903 -0.5393
  264MOL0     H35598   2.856   2.731  11.402  0.7184  2.8409  2.8427
  264MOL0     H35599   2.914   2.582  11.479 -0.9519 -0.8056 -2.3803
  264MOL0     H35600   2.599   2.906  11.532 -1.1201  0.7694  0.8333
  264MOL0     H35601   2.585   3.195  11.671 -1.1294  2.0895 -1.6992
  264MOL0     H35602   2.704   3.241  11.541 -1.1785  2.5985  2.8394
  264MOL0     H35603   2.548   3.146  11.522 -1.1420  0.8603  1.9050
  264MOL0     H35604   2.818   3.374  12.008  0.4193  0.6680 -1.6311
  264MOL0     H35605   2.896   3.613  12.073  0.8498 -0.4377  0.9626
  264MOL0     H35606   2.901   3.804  12.104  1.2871  0.0129  1.6619
  264MOL0     H35607   3.072   3.863  12.068  0.9261 -1.3529 -1.0648
  264MOL0     H35608   3.002   4.046  11.951  1.1901  0.4897  2.2306
  264MOL0     H35609   2.820   3.993  11.964 -0.4670 -1.1314  0.9082
  264MOL0     H35610   2.988   4.055  12.210  3.2752  2.5868 -1.7151
  264MOL0     H35611   2.814   4.027  12.173 -0.3144 -0.4630 -2.4091
  264MOL0     H35612   2.921   4.268  12.038 -0.7606  0.4393  1.0192
  264MOL0     H35613   2.761   4.225  12.101  0.7299 -1.1509 -2.0634
  264MOL0     H35614   2.993   4.307  12.276  1.0335 -1.1524 -0.4350
  264MOL0     H35615   2.825   4.264  12.324  1.4109 -0.2709  1.4145
  264MOL0     H35616   2.865   4.487  12.137 -0.5490  0.8956 -0.3425
  264MOL0     H35617   2.715   4.422  12.191  0.4740 -1.0065  1.9465
  264MOL0     H35618   2.794   4.638  12.301 -1.2734  0.7255  2.9166
  264MOL0     H35619   2.922   4.525  12.380  0.3812  0.5026  0.1467
  264MOL0     H35620   2.765   4.427  12.513  2.1043 -0.1184 -1.5733
  264MOL0     H35621   2.638   4.466  12.397 -0.8114 -0.4602  1.1026
  264MOL0     H35622   2.970   3.696  11.663  2.2617 -0.0762  0.2139
  264MOL0     H35623   2.879   3.487  11.599  1.3994  0.2533 -0.2611
  264MOL0     H35624   3.022   2.968  11.789 -0.1147 -0.1042 -0.6356
  264MOL0     H35625   2.949   2.737  11.725  0.9801  0.5979 -0.6655
  264MOL0     H35626   2.699   3.504  10.726  1.6591  1.0598  3.6937
  264MOL0     H35627   2.843   3.473  10.905  2.1282 -1.4984  1.2552
  264MOL0     H35628   3.220   3.503  11.193  0.2353  0.7527 -2.2538
  264MOL0     H35629   3.409   3.401  11.358  0.5782 -1.1828 -0.3273
  264MOL0     H35630   3.548   2.981  11.271  1.5286  0.8446  0.6726
  264MOL0     H35631   3.627   3.032  11.402 -0.1578 -1.5850 -0.3943
  264MOL0     H35632   3.414   2.904  11.456 -2.0802  1.4384  1.3865
  264MOL0     H35633   3.321   3.025  11.375  0.4102 -1.0581 -0.2111
  264MOL0     H35634   3.411   3.195  11.562  0.9833 -0.0742 -1.1133
  264MOL0     H35635   3.482   3.055  11.643  0.5471  2.0417  0.7602
  264MOL0     H35636   3.185   3.065  11.596  0.4286  3.9532 -2.7824
  264MOL0     H35637   3.264   3.117  11.753  1.6490  2.0033 -2.0424
  264MOL0     H35638   3.331   2.708  11.781 -0.5997 -1.4162 -3.2515
  264MOL0     H35639   3.424   3.061  11.115  2.7794  1.0890  2.2891
  264MOL0     H35640   3.225   3.145  10.972 -2.0731  0.2518  0.6693
  265MOL0     O35641   0.085   1.345   1.946  0.5101  0.0737 -0.1617
  265MOL0     C35642   0.002   1.369   1.859  0.3679  0.3301  0.1884
  265MOL0     O35643  -0.135   1.326   1.862  0.5396 -0.1095 -0.1765
  265MOL0     C35644  -0.188   1.240   1.953  0.3078  0.0002 -0.8115
  265MOL0     C35645  -0.213   1.284   2.080 -0.3232 -0.1994  0.5856
  265MOL0     C35646  -0.266   1.202   2.183  0.0567 -0.1858 -0.0839
  265MOL0     C35647  -0.297   1.070   2.152  0.0408 -0.0851  0.2750
  265MOL0     O35648  -0.358   1.004   2.247  0.1235 -0.2773  0.7995
  265MOL0     C35649  -0.397   0.866   2.232  0.9531 -0.0120 -0.1382
  265MOL0     C35650  -0.421   0.791   2.368 -0.2872 -0.0083  0.5507
  265MOL0     C35651  -0.534   0.847   2.461 -0.3863  0.3316  0.9373
  265MOL0     C35652  -0.552   0.771   2.588  0.2964 -0.8399  0.4988
  265MOL0     C35653  -0.691   0.799   2.653  0.1440 -0.5720 -0.2965
  265MOL0     C35654  -0.794   0.734   2.571  1.0504 -0.3407 -0.2306
  265MOL0     C35655  -0.938   0.737   2.635 -0.9836  0.2253  0.2177
  265MOL0     C35656  -0.997   0.873   2.638  0.7122  0.3382  0.1871
  265MOL0     N35657  -1.141   0.868   2.694  0.2057  1.4326 -0.4397
  265MOL0     C35658  -1.254   0.815   2.645  0.9204 -0.4798  0.4864
  265MOL0     C35659  -1.360   0.859   2.718  0.6177 -0.2186  0.2641
  265MOL0     C35660  -1.506   0.850   2.705  0.8845 -0.6723 -0.5150
  265MOL0     C35661  -1.583   0.988   2.692  0.2311 -0.3728  0.6314
  265MOL0     C35662  -1.733   0.982   2.692 -0.1850 -0.7927 -0.1704
  265MOL0     C35663  -1.797   0.886   2.596  0.2698 -0.8413 -0.5906
  265MOL0     O35664  -1.939   0.886   2.625  0.4408 -0.0723  0.8372
  265MOL0     C35665  -2.029   0.822   2.538  0.4257  0.2274 -0.0982
  265MOL0     C35666  -2.162   0.790   2.569  0.5234 -0.4226  0.6292
  265MOL0     C35667  -2.258   0.734   2.474 -0.5628  0.4974 -0.8153
  265MOL0     C35668  -2.398   0.705   2.536 -0.5250  1.3927 -0.8374
  265MOL0     C35669  -2.215   0.695   2.348 -0.3598 -0.0479 -0.1694
  265MOL0     C35670  -2.302   0.634   2.242 -0.2473  0.0409  0.5025
  265MOL0     O35671  -2.255   0.640   2.117 -0.1907 -0.0043  0.0093
  265MOL0     C35672  -2.339   0.642   2.013 -0.2327  0.1709 -0.1063
  265MOL0     C35673  -2.321   0.754   1.933 -0.5604  0.3924  0.2659
  265MOL0     C35674  -2.392   0.774   1.811 -0.2814  0.8841  0.2071
  265MOL0     C35675  -2.479   0.675   1.771 -0.7747  0.0777  1.1416
  265MOL0     O35676  -2.550   0.711   1.657 -0.9053 -0.4512 -0.1266
  265MOL0     C35677  -2.557   0.605   1.566 -0.3666 -0.7722  0.5119
  265MOL0     C35678  -2.640   0.649   1.443  0.5419  0.0973  0.5595
  265MOL0     C35679  -2.778   0.690   1.492 -0.3857 -0.4036 -0.2797
  265MOL0     C35680  -2.868   0.725   1.368 -0.3764  0.3889  0.5385
  265MOL0     C35681  -3.005   0.775   1.430  0.3232 -0.8255  0.8380
  265MOL0     C35682  -3.091   0.800   1.317  0.1191  0.1500 -0.1561
  265MOL0     C35683  -3.230   0.850   1.355 -0.0584  0.3668  0.1985
  265MOL0     C35684  -3.332   0.847   1.240  0.3325  0.7985  0.5625
  265MOL0    Cl35685  -3.499   0.850   1.296 -0.2616  0.1897  0.0198
  265MOL0     C35686  -2.495   0.556   1.851  0.2966 -0.3202  0.5008
  265MOL0     C35687  -2.424   0.535   1.972 -0.0991 -0.4501  0.7966
  265MOL0     O35688  -2.402   0.577   2.262  0.3756  0.2949 -0.2119
  265MOL0     C35689  -2.093   0.744   2.302  0.4359 -0.4485  0.3278
  265MOL0     C35690  -1.999   0.805   2.397  0.2131 -0.0391 -0.6308
  265MOL0     N35691  -1.302   0.924   2.826  0.0639  0.4266  0.2882
  265MOL0     N35692  -1.172   0.939   2.806 -0.2341  0.3601 -0.3878
  265MOL0     C35693  -0.266   1.023   2.023  0.1116 -0.4878 -0.1040
  265MOL0     C35694  -0.221   1.105   1.925  0.8947 -0.6103  0.8862
  265MOL0     C35695   0.029   1.437   1.732  0.2845 -0.4208 -0.2937
  265MOL0     C35696   0.156   1.465   1.695 -0.2528 -0.1437 -0.8256
  265MOL0     C35697   0.185   1.535   1.582  0.3299 -0.2212  0.8943
  265MOL0     C35698   0.084   1.571   1.487  0.2048  0.5619 -0.3718
  265MOL0     O35699   0.102   1.658   1.384 -0.2416 -0.0373 -0.0741
  265MOL0     C35700   0.161   1.783   1.430 -0.3133  0.8824 -0.1774
  265MOL0     C35701   0.264   1.828   1.322  0.7210 -0.6494 -0.0976
  265MOL0     C35702   0.377   1.729   1.297 -0.2588  0.0683  0.5905
  265MOL0     C35703   0.462   1.789   1.189  0.2858  0.1395  1.5972
  265MOL0     C35704   0.585   1.711   1.169  0.2041  0.5177  0.3144
  265MOL0     C35705   0.678   1.636   1.151  0.8580 -0.2047 -0.2711
  265MOL0     C35706  -0.045   1.538   1.527 -0.5123  0.4839 -1.1749
  265MOL0     C35707  -0.071   1.478   1.644 -0.0217 -0.8603 -0.2956
  265MOL0     H35708  -0.188   1.386   2.108 -0.5532  0.4342 -1.3612
  265MOL0     H35709  -0.295   1.246   2.278 -2.0709 -0.6453 -0.4595
  265MOL0     H35710  -0.490   0.863   2.175  1.1305  2.5577 -0.6626
  265MOL0     H35711  -0.322   0.806   2.180  1.4955  1.4120 -1.0466
  265MOL0     H35712  -0.452   0.689   2.342  0.5924 -0.0857 -0.2860
  265MOL0     H35713  -0.328   0.773   2.422  1.4374 -0.2827 -2.3032
  265MOL0     H35714  -0.536   0.955   2.477  1.2736  0.2192  2.1448
  265MOL0     H35715  -0.622   0.831   2.398 -0.2285  1.5030  0.3990
  265MOL0     H35716  -0.552   0.663   2.569 -0.9386 -0.8152  0.2854
  265MOL0     H35717  -0.469   0.795   2.655  2.1498 -2.2159 -1.1741
  265MOL0     H35718  -0.681   0.762   2.756  1.8569  0.8332  0.1059
  265MOL0     H35719  -0.710   0.905   2.636  0.8702 -0.3189  0.3969
  265MOL0     H35720  -0.803   0.772   2.469 -1.1731 -0.2617 -0.0528
  265MOL0     H35721  -0.777   0.626   2.569 -0.7647 -1.0409  5.5267
  265MOL0     H35722  -1.002   0.675   2.573 -0.1254  0.3599 -0.8228
  265MOL0     H35723  -0.936   0.693   2.735  0.0309  2.3177  1.2028
  265MOL0     H35724  -0.994   0.913   2.536 -0.8085 -0.0926 -0.0555
  265MOL0     H35725  -0.943   0.930   2.713  1.3178 -1.8802  1.5332
  265MOL0     H35726  -1.269   0.747   2.561 -0.7155 -0.6190  0.8515
  265MOL0     H35727  -1.525   0.787   2.617 -2.8085 -0.1809 -0.2152
  265MOL0     H35728  -1.552   0.800   2.791 -0.5204 -1.1173 -1.4940
  265MOL0     H35729  -1.545   1.036   2.601  1.0065 -0.8745  0.6837
  265MOL0     H35730  -1.558   1.054   2.776 -1.8215  1.3426 -0.0201
  265MOL0     H35731  -1.768   1.081   2.663  0.8729 -0.5055 -0.5306
  265MOL0     H35732  -1.768   0.959   2.793 -0.9432  1.1760  0.0548
  265MOL0     H35733  -1.764   0.782   2.607  0.4003 -0.6854  0.6820
  265MOL0     H35734  -1.777   0.911   2.492  0.8995  0.6892 -0.1347
  265MOL0     H35735  -2.190   0.812   2.672 -2.6461  3.0256 -0.7205
  265MOL0     H35736  -2.427   0.607   2.498  1.9874 -0.1008  0.8294
  265MOL0     H35737  -2.398   0.712   2.645 -0.0917 -2.3820 -0.4640
  265MOL0     H35738  -2.475   0.773   2.498 -0.7744  0.8561 -1.3128
  265MOL0     H35739  -2.239   0.820   1.955  2.7796 -3.4813  0.6232
  265MOL0     H35740  -2.365   0.854   1.743 -1.6470  0.6688 -0.6394
  265MOL0     H35741  -2.459   0.566   1.535  1.1561  1.5979  2.0127
  265MOL0     H35742  -2.617   0.529   1.616 -1.0877 -0.4385  0.1631
  265MOL0     H35743  -2.592   0.729   1.386 -2.7395  1.3074 -0.7744
  265MOL0     H35744  -2.652   0.564   1.375 -1.5832 -1.7545  3.0250
  265MOL0     H35745  -2.774   0.774   1.563 -1.5869 -0.6943  0.1516
  265MOL0     H35746  -2.819   0.600   1.538 -0.5591 -0.5228 -0.6694
  265MOL0     H35747  -2.829   0.794   1.293 -4.8072  0.9403 -1.6205
  265MOL0     H35748  -2.883   0.628   1.319 -0.2065 -0.2087  1.6174
  265MOL0     H35749  -2.996   0.872   1.481 -2.6670 -0.4295  0.7863
  265MOL0     H35750  -3.047   0.702   1.499 -0.1398 -2.5031 -1.1154
  265MOL0     H35751  -3.039   0.869   1.250  2.1304 -1.3366 -0.2054
  265MOL0     H35752  -3.113   0.714   1.253  0.4194  1.7290 -2.5221
  265MOL0     H35753  -3.226   0.948   1.403  1.4780 -0.3725  1.6858
  265MOL0     H35754  -3.276   0.787   1.432  0.2276  1.3685  1.2198
  265MOL0     H35755  -3.314   0.754   1.186 -2.4556  0.9555 -0.7747
  265MOL0     H35756  -3.320   0.933   1.173  0.7659 -0.9221 -1.6763
  265MOL0     H35757  -2.562   0.479   1.813  0.6731 -1.1433  1.4777
  265MOL0     H35758  -2.446   0.445   2.030 -1.1300  0.8542  2.5397
  265MOL0     H35759  -2.058   0.728   2.201 -0.6303  0.0136 -0.1192
  265MOL0     H35760  -1.903   0.819   2.347 -1.3054 -0.2413 -3.8626
  265MOL0     H35761  -0.304   0.923   2.006  0.4520 -0.7116  0.4484
  265MOL0     H35762  -0.210   1.071   1.822  0.2416  0.7909  0.3291
  265MOL0     H35763   0.237   1.447   1.764 -0.3495  2.4908  0.0533
  265MOL0     H35764   0.289   1.553   1.557  0.2858 -0.4592  0.5289
  265MOL0     H35765   0.084   1.858   1.448 -3.3765 -2.6020  2.8817
  265MOL0     H35766   0.220   1.775   1.521  1.1160  0.1289 -1.1246
  265MOL0     H35767   0.300   1.925   1.358 -0.2371 -0.4521  0.3680
  265MOL0     H35768   0.228   1.847   1.221  0.8099 -1.0348 -0.2047
  265MOL0     H35769   0.332   1.644   1.245 -1.1430  0.6382  0.4017
  265MOL0     H35770   0.417   1.696   1.394 -1.0843 -2.2496  0.2057
  265MOL0     H35771   0.499   1.888   1.214 -3.2418  1.9900  0.2274
  265MOL0     H35772   0.409   1.808   1.095 -1.0314 -1.7471  1.8707
  265MOL0     H35773   0.761   1.569   1.143  0.6561 -0.8875  2.4612
  265MOL0     H35774  -0.122   1.572   1.458 -0.8288  0.0460 -1.0380
  265MOL0     H35775  -0.172   1.453   1.676  0.4623 -0.4759  1.6640
  266MOL0     O35776   6.558   9.119   5.535 -0.2780 -0.2928  0.6080
  266MOL0     C35777   6.526   9.003   5.569 -0.0933 -0.7057 -0.0268
  266MOL0     O35778   6.406   8.942   5.539  0.9571  0.3587  0.8154
  266MOL0     C35779   6.319   8.991   5.447  0.8201 -0.3728 -0.6396
  266MOL0     C35780   6.227   8.898   5.398 -0.6820 -0.5122 -0.8406
  266MOL0     C35781   6.134   8.920   5.304  1.1666  0.2831  1.6039
  266MOL0     C35782   6.120   9.050   5.253 -0.4923  0.7686  0.7294
  266MOL0     O35783   6.029   9.080   5.153 -0.2723 -0.4257  0.7437
  266MOL0     C35784   5.895   9.012   5.156 -0.3607 -0.4930 -0.0168
  266MOL0     C35785   5.809   9.046   5.029 -0.5754  0.2863 -0.3578
  266MOL0     C35786   5.874   9.012   4.889 -0.7411  0.1908 -0.2460
  266MOL0     C35787   5.898   8.863   4.863  0.1941  0.0284 -0.5602
  266MOL0     C35788   5.917   8.831   4.716 -0.9490  0.2057  0.0053
  266MOL0     C35789   5.940   8.678   4.693  0.2046 -0.2397 -0.1153
  266MOL0     C35790   5.961   8.648   4.542  0.1412 -0.8079 -0.1693
  266MOL0     C35791   5.992   8.502   4.534 -0.0912 -0.5258  0.5047
  266MOL0     N35792   5.975   8.467   4.391 -0.2402  1.0542  1.0410
  266MOL0     C35793   6.073   8.442   4.294  0.9003  0.5950 -0.6931
  266MOL0     C35794   6.003   8.387   4.194 -0.4296 -0.7605  0.7214
  266MOL0     C35795   6.048   8.325   4.074 -0.6307  0.9767 -0.0777
  266MOL0     C35796   5.977   8.379   3.955  0.9605 -0.0655 -0.1467
  266MOL0     C35797   6.052   8.357   3.832  1.2142 -0.6574 -0.0151
  266MOL0     C35798   5.985   8.426   3.716 -0.3863  0.1933  0.4451
  266MOL0     O35799   6.028   8.561   3.714  0.3924 -0.1149  0.2213
  266MOL0     C35800   5.929   8.650   3.679 -0.4031  0.2759 -0.2133
  266MOL0     C35801   5.922   8.783   3.742 -0.0128  0.6147 -0.0743
  266MOL0     C35802   5.821   8.870   3.701 -0.5867 -0.5515  0.2517
  266MOL0     C35803   5.822   9.001   3.771  0.8170  0.1708 -0.7534
  266MOL0     C35804   5.728   8.844   3.603  0.6296  0.3414  0.0413
  266MOL0     C35805   5.633   8.937   3.541  0.5786  0.0195 -0.4842
  266MOL0     O35806   5.505   8.893   3.529 -0.3516  0.9156 -0.4269
  266MOL0     C35807   5.404   8.970   3.467 -0.2468  0.0817 -0.0551
  266MOL0     C35808   5.382   9.109   3.465  0.1345 -0.1500  0.1339
  266MOL0     C35809   5.277   9.168   3.414  0.6762  0.4611  0.2132
  266MOL0     C35810   5.170   9.093   3.355 -1.3265 -0.6316 -0.1146
  266MOL0     O35811   5.062   9.156   3.302 -0.0144  0.2308 -0.6967
  266MOL0     C35812   4.968   9.087   3.219  0.1412 -0.3403  0.1330
  266MOL0     C35813   4.896   9.186   3.123  0.3214 -0.7706 -1.1501
  266MOL0     C35814   4.832   9.128   2.993 -0.0979  0.0476 -0.4013
  266MOL0     C35815   4.933   9.116   2.882 -0.5141 -0.2192  0.2344
  266MOL0     C35816   4.854   9.084   2.749 -0.0776  0.2808 -1.4183
  266MOL0     C35817   4.953   9.087   2.632  0.8087 -0.2249  0.4293
  266MOL0     C35818   5.065   8.982   2.634 -1.4332  0.1566  0.7716
  266MOL0     C35819   5.009   8.837   2.641 -0.6277 -1.3359 -0.3229
  266MOL0    Cl35820   4.916   8.800   2.497  0.1024  0.4122  0.0215
  266MOL0     C35821   5.187   8.951   3.359  0.8562  0.2992  1.1577
  266MOL0     C35822   5.304   8.889   3.409  0.7688  0.3878  0.7847
  266MOL0     O35823   5.676   9.040   3.491 -0.5170  0.5193 -0.8111
  266MOL0     C35824   5.729   8.717   3.557 -0.6580  0.8488 -0.2921
  266MOL0     C35825   5.832   8.623   3.589  0.9508  0.5785  1.2275
  266MOL0     N35826   5.871   8.383   4.229 -0.7524 -0.0892  0.0761
  266MOL0     N35827   5.854   8.439   4.339 -0.1302 -0.7931 -0.5328
  266MOL0     C35828   6.201   9.153   5.295  0.4992  0.9629  0.2012
  266MOL0     C35829   6.301   9.121   5.387  0.2625  0.2440  0.6033
  266MOL0     C35830   6.628   8.922   5.635 -0.4972 -0.0025 -0.0744
  266MOL0     C35831   6.744   8.977   5.681 -0.1191 -1.2107 -0.0774
  266MOL0     C35832   6.841   8.900   5.748 -0.2343  0.6091 -0.1940
  266MOL0     C35833   6.818   8.757   5.768  0.6340 -0.5927 -0.1483
  266MOL0     O35834   6.918   8.679   5.826 -0.0382 -0.2351 -0.0297
  266MOL0     C35835   6.908   8.535   5.857 -0.0187 -0.0221 -0.1167
  266MOL0     C35836   6.990   8.443   5.776 -0.3689 -0.1291 -0.0862
  266MOL0     C35837   6.955   8.430   5.629 -0.0676  0.1394  0.7655
  266MOL0     C35838   6.890   8.298   5.580 -0.8999 -0.0657 -0.3767
  266MOL0     C35839   6.994   8.202   5.552 -0.8135 -0.3592  1.1328
  266MOL0     C35840   7.087   8.128   5.533 -0.4713  0.6738 -0.1669
  266MOL0     C35841   6.693   8.705   5.732  0.1173  0.7319 -0.6133
  266MOL0     C35842   6.604   8.787   5.665  1.1168  1.0501 -0.2515
  266MOL0     H35843   6.235   8.797   5.437  4.0790 -0.1850 -0.4586
  266MOL0     H35844   6.072   8.838   5.267 -1.1944  2.4890  0.3454
  266MOL0     H35845   5.895   8.903   5.164 -2.0968 -0.4897  0.4112
  266MOL0     H35846   5.846   9.031   5.251 -1.5619 -1.2893 -0.4582
  266MOL0     H35847   5.715   8.991   5.039  0.7854 -1.8977  2.1278
  266MOL0     H35848   5.781   9.151   5.032 -1.8594 -0.0357  2.9402
  266MOL0     H35849   5.813   9.060   4.811 -0.6553  0.9164  0.1245
  266MOL0     H35850   5.974   9.052   4.872  0.8062 -3.6001 -0.9023
  266MOL0     H35851   5.981   8.833   4.928  0.2993  2.1982  0.4026
  266MOL0     H35852   5.809   8.809   4.896  1.1262 -1.1425  0.1365
  266MOL0     H35853   5.838   8.871   4.652 -0.7936 -1.7384 -1.4916
  266MOL0     H35854   6.003   8.884   4.673 -1.3296  0.3764 -0.5676
  266MOL0     H35855   6.035   8.651   4.739  0.3882 -0.1431 -0.4284
  266MOL0     H35856   5.861   8.617   4.737 -0.7688 -0.9771 -2.6696
  266MOL0     H35857   5.880   8.677   4.476  2.9317  2.4682 -2.5177
  266MOL0     H35858   6.048   8.704   4.507  0.5827 -1.1537  0.3448
  266MOL0     H35859   5.921   8.441   4.591 -2.6807  1.9309  0.1304
  266MOL0     H35860   6.093   8.483   4.571 -0.6804 -2.9057  1.0923
  266MOL0     H35861   6.177   8.473   4.288  0.6551  1.5635 -0.1568
  266MOL0     H35862   6.157   8.331   4.079 -0.5344 -0.0705 -0.5923
  266MOL0     H35863   6.022   8.218   4.071  0.1007  0.8030 -0.3685
  266MOL0     H35864   5.964   8.487   3.972 -3.1930 -0.4446  0.2538
  266MOL0     H35865   5.874   8.345   3.942  0.4985  1.4902 -0.7682
  266MOL0     H35866   6.053   8.248   3.820 -3.3059 -0.7874 -1.0314
  266MOL0     H35867   6.156   8.390   3.839  1.7744 -2.7168  4.0787
  266MOL0     H35868   5.877   8.410   3.723 -0.2648 -1.4570 -0.7976
  266MOL0     H35869   6.011   8.380   3.620  0.1202  0.1721  0.5898
  266MOL0     H35870   5.993   8.816   3.817 -2.6409  0.4878  2.6520
  266MOL0     H35871   5.905   9.065   3.739  0.1603  0.5003 -1.8277
  266MOL0     H35872   5.725   9.050   3.760  0.6623 -0.0249 -0.2941
  266MOL0     H35873   5.841   8.974   3.876 -2.0934  2.6835  0.5680
  266MOL0     H35874   5.451   9.172   3.521 -1.2229  2.7026 -1.1779
  266MOL0     H35875   5.265   9.276   3.418  1.9429  0.6163  0.0881
  266MOL0     H35876   5.018   9.010   3.159 -0.8260 -0.4096 -0.6039
  266MOL0     H35877   4.900   9.036   3.289  0.3234  1.5634  1.7785
  266MOL0     H35878   4.828   9.251   3.179  0.4971  0.1838 -2.0045
  266MOL0     H35879   4.968   9.260   3.087 -0.2542 -1.3092 -3.6149
  266MOL0     H35880   4.750   9.196   2.967  0.0073 -0.1712 -1.3592
  266MOL0     H35881   4.788   9.029   3.011  2.5712 -0.7812  2.1529
  266MOL0     H35882   4.979   9.215   2.874  1.6798 -1.2447 -0.8707
  266MOL0     H35883   5.020   9.053   2.905  1.2109  1.3199 -1.6439
  266MOL0     H35884   4.768   9.145   2.720  0.6633  0.3251 -3.6894
  266MOL0     H35885   4.823   8.980   2.765  0.5488  0.1706 -0.9097
  266MOL0     H35886   4.899   9.094   2.537  2.6247  1.4596 -0.5698
  266MOL0     H35887   4.999   9.187   2.630 -0.9090  0.7234  2.9410
  266MOL0     H35888   5.146   9.001   2.704  0.1257 -1.3171 -0.5499
  266MOL0     H35889   5.114   8.994   2.537  2.2535 -4.0869  1.7751
  266MOL0     H35890   4.953   8.835   2.734 -0.0548  0.5520  0.0954
  266MOL0     H35891   5.092   8.765   2.647 -0.9322 -1.5602  4.1455
  266MOL0     H35892   5.116   8.883   3.313  0.4066  0.7107  1.2415
  266MOL0     H35893   5.310   8.780   3.409 -0.5084  0.2582  2.9347
  266MOL0     H35894   5.652   8.688   3.485 -0.6578 -0.3272  0.1684
  266MOL0     H35895   5.827   8.529   3.535  2.4316  1.5580 -0.7762
  266MOL0     H35896   6.191   9.249   5.244  1.0803  1.3261  0.7611
  266MOL0     H35897   6.375   9.190   5.426  3.9175 -1.8834 -1.8701
  266MOL0     H35898   6.771   9.079   5.657  2.7193 -1.9765 -0.5964
  266MOL0     H35899   6.933   8.954   5.768  0.9062 -0.5829 -1.9241
  266MOL0     H35900   6.944   8.523   5.959 -2.8207 -0.0966  0.9563
  266MOL0     H35901   6.807   8.494   5.844 -0.2802  0.0435  1.5208
  266MOL0     H35902   6.986   8.343   5.819  0.1556 -0.1606 -0.1093
  266MOL0     H35903   7.091   8.481   5.790 -0.7701  0.1226  2.6329
  266MOL0     H35904   7.046   8.460   5.576  1.6132 -0.6851  3.0150
  266MOL0     H35905   6.881   8.508   5.607  1.4072  0.9870 -1.5225
  266MOL0     H35906   6.840   8.316   5.484  0.1353 -0.8910 -1.0994
  266MOL0     H35907   6.816   8.273   5.657  1.2637  0.8589  2.1448
  266MOL0     H35908   7.168   8.060   5.520 -2.3965 -1.7393 -0.2198
  266MOL0     H35909   6.669   8.603   5.761  2.9148  0.6601  1.9303
  266MOL0     H35910   6.505   8.748   5.644  0.6720  0.0904  3.0963
  267MOL0     O35911   2.434   8.402   6.749 -0.4170 -0.0062 -0.4479
  267MOL0     C35912   2.536   8.467   6.729 -0.1120 -0.0860  0.4842
  267MOL0     O35913   2.541   8.608   6.710  0.8591  0.6951 -0.1322
  267MOL0     C35914   2.438   8.679   6.750  0.0357 -0.7322  0.0356
  267MOL0     C35915   2.336   8.705   6.655  0.4861 -0.6913  0.2109
  267MOL0     C35916   2.225   8.783   6.695  0.9327  0.5707 -0.2694
  267MOL0     C35917   2.220   8.842   6.831 -0.0314 -0.2508  0.1435
  267MOL0     O35918   2.111   8.922   6.863 -0.2881  0.7652  0.4448
  267MOL0     C35919   2.098   8.971   6.990 -0.4654 -0.4786  0.5651
  267MOL0     C35920   2.018   8.861   7.070  1.1919  0.5741 -0.0122
  267MOL0     C35921   2.004   8.891   7.221  1.1341 -0.2330  0.9816
  267MOL0     C35922   1.880   8.820   7.287  0.8490 -0.1271 -0.2634
  267MOL0     C35923   1.874   8.871   7.433 -0.3964 -0.8955  0.9926
  267MOL0     C35924   1.781   8.801   7.529 -0.4054 -1.2792  0.6736
  267MOL0     C35925   1.644   8.796   7.464  0.3510  0.4640  0.6548
  267MOL0     C35926   1.540   8.759   7.571  1.3156  0.7312  0.2004
  267MOL0     N35927   1.411   8.737   7.517 -0.1461  0.2333  0.8053
  267MOL0     C35928   1.321   8.833   7.476 -0.2009 -0.0474  0.2256
  267MOL0     C35929   1.218   8.763   7.427 -0.6462  0.6113 -0.0622
  267MOL0     C35930   1.092   8.828   7.378 -0.7140 -0.1198  0.8781
  267MOL0     C35931   0.966   8.811   7.456  0.0778  0.5673 -0.6502
  267MOL0     C35932   0.958   8.828   7.603 -0.8016 -0.3635 -0.1675
  267MOL0     C35933   0.816   8.819   7.656 -0.4825  0.1121 -0.3503
  267MOL0     O35934   0.757   8.687   7.641 -0.8407 -0.2509 -0.2091
  267MOL0     C35935   0.626   8.674   7.686  0.5093 -0.3255  0.8596
  267MOL0     C35936   0.556   8.748   7.776  0.9361 -0.3103 -0.9454
  267MOL0     C35937   0.425   8.736   7.810  0.0782 -0.1312 -0.0244
  267MOL0     C35938   0.363   8.840   7.902  0.1246 -0.1519  0.6832
  267MOL0     C35939   0.350   8.630   7.754 -0.3613  0.5712  0.5580
  267MOL0     C35940   0.218   8.589   7.804 -0.7464  0.7183 -0.2652
  267MOL0     O35941   0.134   8.683   7.841  0.1479  0.3928 -0.7560
  267MOL0     C35942   0.034   8.658   7.925 -0.4946 -0.1232 -1.3119
  267MOL0     C35943   0.067   8.658   8.061 -0.1331  0.7994 -1.1272
  267MOL0     C35944  -0.034   8.643   8.165 -0.6841  0.4848 -0.1804
  267MOL0     C35945  -0.161   8.610   8.119  0.3289 -0.3988  0.8584
  267MOL0     O35946  -0.248   8.580   8.217  0.1941 -0.7079  0.3607
  267MOL0     C35947  -0.372   8.512   8.199  0.0126 -0.2861 -0.2288
  267MOL0     C35948  -0.438   8.487   8.344  0.0749  0.4833  0.0988
  267MOL0     C35949  -0.420   8.347   8.391 -0.4037 -0.4144  0.2233
  267MOL0     C35950  -0.528   8.250   8.336 -0.2006 -0.4253 -0.1009
  267MOL0     C35951  -0.520   8.109   8.399 -0.2085  0.8460  0.0502
  267MOL0     C35952  -0.550   8.102   8.543  0.0662 -0.7223 -0.0069
  267MOL0     C35953  -0.544   7.947   8.580 -0.2322  0.7708  0.3515
  267MOL0     C35954  -0.600   7.950   8.725 -0.4040  0.0169  0.6826
  267MOL0    Cl35955  -0.477   8.007   8.836  0.4414  0.2229 -0.4183
  267MOL0     C35956  -0.197   8.623   7.977 -0.7651  0.2768 -0.4192
  267MOL0     C35957  -0.094   8.650   7.885  0.3034 -0.7658 -0.5232
  267MOL0     O35958   0.197   8.467   7.819 -0.0232 -1.3463 -0.1396
  267MOL0     C35959   0.430   8.544   7.672  0.6293 -0.0684  0.4620
  267MOL0     C35960   0.557   8.563   7.636 -0.4830 -0.4232  0.1793
  267MOL0     N35961   1.238   8.629   7.439 -0.7377  0.2529 -0.1074
  267MOL0     N35962   1.359   8.615   7.486  1.0292  1.2218 -0.1977
  267MOL0     C35963   2.327   8.814   6.921 -0.3085  0.5619  0.8605
  267MOL0     C35964   2.436   8.736   6.887 -0.8122 -0.5139  0.3443
  267MOL0     C35965   2.655   8.393   6.716 -0.1999  0.2740  0.5047
  267MOL0     C35966   2.663   8.256   6.759 -0.0260 -0.4243  0.6815
  267MOL0     C35967   2.776   8.182   6.733  0.1573 -0.1722 -0.0908
  267MOL0     C35968   2.884   8.238   6.661  0.0423 -0.8030 -0.4345
  267MOL0     O35969   2.993   8.159   6.646 -0.6853 -0.3762 -0.1095
  267MOL0     C35970   3.103   8.202   6.566 -0.5299  0.4615 -0.7578
  267MOL0     C35971   3.197   8.086   6.580 -0.0401 -0.0238 -0.3617
  267MOL0     C35972   3.237   8.046   6.720  0.3027 -0.5937  0.2110
  267MOL0     C35973   3.336   8.135   6.795  0.2036 -0.9507  0.4034
  267MOL0     C35974   3.280   8.261   6.846  0.0683 -0.9089 -0.6246
  267MOL0     C35975   3.218   8.362   6.875 -1.2555  0.2787  0.7943
  267MOL0     C35976   2.887   8.374   6.622  0.5296  0.3595 -0.7706
  267MOL0     C35977   2.772   8.452   6.644 -1.1590  0.5359  0.6734
  267MOL0     H35978   2.328   8.649   6.562 -1.1748  2.2718 -1.6213
  267MOL0     H35979   2.143   8.792   6.624  1.1002  2.2813 -0.2848
  267MOL0     H35980   2.200   8.985   7.026  0.4197  1.2847 -2.2831
  267MOL0     H35981   2.061   9.074   6.982  0.2223  0.0643  3.3336
  267MOL0     H35982   1.918   8.866   7.025  0.8595 -0.6890  0.5519
  267MOL0     H35983   2.070   8.765   7.068  0.6155  0.2462 -1.8970
  267MOL0     H35984   2.101   8.882   7.272  2.9028  3.6874 -1.2681
  267MOL0     H35985   1.976   8.996   7.223 -1.0594 -0.6080 -2.5875
  267MOL0     H35986   1.792   8.860   7.237  0.9245  2.3132  1.3951
  267MOL0     H35987   1.891   8.711   7.289  0.4189 -0.2954 -3.0508
  267MOL0     H35988   1.978   8.882   7.463 -0.2624  2.2551 -0.2246
  267MOL0     H35989   1.831   8.971   7.419 -0.1382 -1.1191 -2.0905
  267MOL0     H35990   1.829   8.705   7.552 -0.3818 -2.0281 -2.0506
  267MOL0     H35991   1.767   8.870   7.612  0.0966  2.7363 -2.2984
  267MOL0     H35992   1.613   8.892   7.422 -1.8026  0.2650  1.6790
  267MOL0     H35993   1.645   8.711   7.396  1.6953 -0.8403  2.1871
  267MOL0     H35994   1.540   8.848   7.636  0.6239  0.2212  0.9190
  267MOL0     H35995   1.576   8.671   7.625 -0.6578 -0.3679 -0.2107
  267MOL0     H35996   1.321   8.942   7.479  0.4483 -0.0300 -0.3518
  267MOL0     H35997   1.099   8.937   7.380 -0.3563 -0.1159 -0.0379
  267MOL0     H35998   1.082   8.795   7.274 -0.2602  0.8619  0.5089
  267MOL0     H35999   0.938   8.709   7.429 -0.2782  0.9106 -1.6735
  267MOL0     H36000   0.881   8.875   7.429  0.5193  1.0091 -1.0118
  267MOL0     H36001   1.004   8.922   7.634  0.3310 -1.0542  0.3114
  267MOL0     H36002   1.030   8.757   7.644  3.1657  3.0911 -0.4126
  267MOL0     H36003   0.751   8.886   7.600  0.9848  0.9047 -1.1644
  267MOL0     H36004   0.815   8.844   7.763 -3.3160 -1.3528  0.0544
  267MOL0     H36005   0.594   8.844   7.807  1.3527 -1.6269  3.2490
  267MOL0     H36006   0.292   8.901   7.846 -1.2932  1.0532  3.5876
  267MOL0     H36007   0.328   8.788   7.993 -1.6916 -0.3367 -0.0746
  267MOL0     H36008   0.439   8.914   7.928 -2.4094  2.6995  0.4937
  267MOL0     H36009   0.168   8.680   8.096 -1.1349 -1.3047  4.1972
  267MOL0     H36010   0.003   8.628   8.266 -0.7271 -2.7062 -0.5197
  267MOL0     H36011  -0.443   8.559   8.130  0.6234 -0.4627 -0.9981
  267MOL0     H36012  -0.356   8.416   8.149  1.1031  0.0559 -0.5734
  267MOL0     H36013  -0.389   8.556   8.413 -0.3250 -0.4057  1.3013
  267MOL0     H36014  -0.546   8.501   8.350 -0.2903 -2.2484  1.0711
  267MOL0     H36015  -0.410   8.337   8.500  1.2831  0.1719  0.1539
  267MOL0     H36016  -0.324   8.307   8.358  0.4791 -0.6392  2.7791
  267MOL0     H36017  -0.627   8.298   8.333  0.5658  1.3368  1.2032
  267MOL0     H36018  -0.503   8.238   8.230 -1.7408 -1.8119 -0.3499
  267MOL0     H36019  -0.427   8.059   8.374 -0.7388  0.5188 -1.3413
  267MOL0     H36020  -0.587   8.044   8.342 -1.0251  1.2118  0.5585
  267MOL0     H36021  -0.469   8.151   8.597  1.8742 -1.7047 -1.7367
  267MOL0     H36022  -0.651   8.136   8.568 -0.3070 -0.6073 -1.5732
  267MOL0     H36023  -0.440   7.915   8.573  0.4388  2.9099 -0.2697
  267MOL0     H36024  -0.601   7.883   8.512  1.6022  0.6620 -1.1834
  267MOL0     H36025  -0.625   7.848   8.756 -0.3450 -0.0638  0.4631
  267MOL0     H36026  -0.694   8.006   8.724 -0.2343  0.2882  0.0433
  267MOL0     H36027  -0.299   8.610   7.940 -1.2736 -0.3536  1.1254
  267MOL0     H36028  -0.112   8.669   7.780 -0.9650 -1.4721 -0.4541
  267MOL0     H36029   0.381   8.457   7.630 -0.3287 -0.0410  1.4560
  267MOL0     H36030   0.607   8.497   7.565 -0.8405 -2.7460  1.9445
  267MOL0     H36031   2.330   8.849   7.024 -1.0291  0.8243  0.7966
  267MOL0     H36032   2.522   8.701   6.944  2.0701 -1.5741 -4.1148
  267MOL0     H36033   2.580   8.205   6.807  1.9662 -4.5213  0.1969
  267MOL0     H36034   2.769   8.076   6.754 -2.0546 -0.6345 -2.6367
  267MOL0     H36035   3.080   8.200   6.459  0.8409  0.9410 -1.0890
  267MOL0     H36036   3.144   8.299   6.598  0.1459  0.6226 -2.0433
  267MOL0     H36037   3.284   8.104   6.517 -0.1763 -2.6236 -1.4205
  267MOL0     H36038   3.134   8.008   6.537 -0.3464  0.8788 -1.6297
  267MOL0     H36039   3.274   7.943   6.727  0.5496 -0.4849  0.5244
  267MOL0     H36040   3.151   8.029   6.785  1.1485 -1.3212  1.1795
  267MOL0     H36041   3.412   8.162   6.721 -0.9474  1.7752  0.1057
  267MOL0     H36042   3.373   8.080   6.882  0.5764  0.9823  1.5226
  267MOL0     H36043   3.181   8.461   6.895  2.5819  2.5013 -1.8103
  267MOL0     H36044   2.970   8.431   6.582  1.6211  1.8719  3.2122
  267MOL0     H36045   2.758   8.552   6.604 -1.4427 -0.5214 -2.1051
  268MOL0     O36046   0.345   7.826   5.790  0.3083 -0.3502  0.3250
  268MOL0     C36047   0.241   7.878   5.753 -0.0046  0.1846 -0.1207
  268MOL0     O36048   0.151   7.809   5.673  1.0672  0.2966  0.0368
  268MOL0     C36049   0.173   7.675   5.627  0.9229 -1.0072 -0.2070
  268MOL0     C36050   0.076   7.584   5.670  0.2973  0.0981  0.4670
  268MOL0     C36051   0.093   7.445   5.652  0.2869 -0.1541  1.1073
  268MOL0     C36052   0.209   7.406   5.575 -0.7703 -0.4127  0.4585
  268MOL0     O36053   0.241   7.277   5.561  0.2585  0.2738 -0.5908
  268MOL0     C36054   0.170   7.214   5.455  0.0655 -0.0043 -0.5120
  268MOL0     C36055   0.188   7.058   5.454  0.2066  0.6553  0.0963
  268MOL0     C36056   0.331   7.020   5.452 -0.2895  0.4149 -0.1807
  268MOL0     C36057   0.434   7.104   5.384 -0.1563 -0.7789  0.1911
  268MOL0     C36058   0.564   7.036   5.337  0.0795  0.4121  0.3741
  268MOL0     C36059   0.534   6.949   5.217  0.0234 -0.7102  0.9679
  268MOL0     C36060   0.623   6.829   5.227 -0.0849 -0.9660 -0.0391
  268MOL0     C36061   0.646   6.760   5.100  0.4812  0.2554 -0.0731
  268MOL0     N36062   0.521   6.738   5.022  0.0113 -0.3101 -0.4442
  268MOL0     C36063   0.424   6.641   5.059  0.6015  0.6081 -0.1809
  268MOL0     C36064   0.322   6.646   4.972  0.8781  0.3688 -0.9558
  268MOL0     C36065   0.205   6.561   4.984  0.3327  0.7003  0.1568
  268MOL0     C36066   0.075   6.646   4.985  0.1227 -1.0027 -0.2700
  268MOL0     C36067   0.053   6.743   5.097 -0.3833  0.1617  0.9576
  268MOL0     C36068   0.103   6.696   5.233 -1.0214  0.6549 -0.7447
  268MOL0     O36069   0.003   6.599   5.280 -0.9034 -0.4364  0.3652
  268MOL0     C36070  -0.114   6.647   5.335  0.1034 -0.6983  1.0372
  268MOL0     C36071  -0.219   6.559   5.347  0.4576 -0.1560  0.0223
  268MOL0     C36072  -0.344   6.594   5.403  0.0988 -0.4755  0.8836
  268MOL0     C36073  -0.452   6.486   5.406  0.1977  0.3442 -0.1679
  268MOL0     C36074  -0.351   6.724   5.470  0.0223 -0.2224 -0.4488
  268MOL0     C36075  -0.484   6.779   5.524 -1.1387 -0.2859 -0.1432
  268MOL0     O36076  -0.588   6.695   5.530  0.7110 -0.5484  0.1503
  268MOL0     C36077  -0.711   6.740   5.542 -0.5836 -0.1385  0.1983
  268MOL0     C36078  -0.774   6.835   5.456  0.0434  0.3179  0.6846
  268MOL0     C36079  -0.910   6.857   5.463 -0.3357  0.1570  0.1036
  268MOL0     C36080  -0.982   6.795   5.559 -0.7110 -0.0890 -0.6440
  268MOL0     O36081  -1.108   6.832   5.590 -0.7792  0.0620 -0.4216
  268MOL0     C36082  -1.128   6.961   5.631 -0.4510 -0.8996 -0.6759
  268MOL0     C36083  -1.212   6.942   5.754  0.0577  0.1659 -0.4425
  268MOL0     C36084  -1.245   7.075   5.817  0.1394  0.8269  0.4706
  268MOL0     C36085  -1.276   7.048   5.972 -1.0639  0.0941  1.0540
  268MOL0     C36086  -1.372   7.158   6.017 -0.2519 -0.1069 -1.5646
  268MOL0     C36087  -1.406   7.147   6.167  0.1304 -0.3750 -0.6324
  268MOL0     C36088  -1.510   7.035   6.192  0.2672 -0.0900 -0.0141
  268MOL0     C36089  -1.655   7.098   6.188  1.3169 -0.3371  0.2380
  268MOL0    Cl36090  -1.683   7.211   6.332  0.0046  0.1355  0.3911
  268MOL0     C36091  -0.924   6.696   5.633 -0.2543  0.1623 -1.1118
  268MOL0     C36092  -0.789   6.671   5.635  0.4788  0.2545  0.2702
  268MOL0     O36093  -0.490   6.899   5.549 -0.3740  0.2500  0.4968
  268MOL0     C36094  -0.236   6.806   5.472  0.3894 -0.5880  0.4089
  268MOL0     C36095  -0.130   6.773   5.389  0.4213 -0.6671 -1.0394
  268MOL0     N36096   0.354   6.746   4.884 -0.0333 -0.3668  0.6994
  268MOL0     N36097   0.464   6.806   4.925 -0.1274 -0.4372  0.7001
  268MOL0     C36098   0.291   7.507   5.516 -0.2101  0.6003 -0.2250
  268MOL0     C36099   0.270   7.635   5.541  0.2530  0.2092 -0.0743
  268MOL0     C36100   0.214   8.011   5.801 -0.2084  0.6032 -0.8426
  268MOL0     C36101   0.095   8.076   5.766  0.8936 -0.3994  0.7700
  268MOL0     C36102   0.074   8.212   5.797 -0.9920  1.1439  0.6006
  268MOL0     C36103   0.172   8.284   5.858 -1.2371  0.0234 -0.1351
  268MOL0     O36104   0.184   8.423   5.867  0.9670 -0.0165 -0.3215
  268MOL0     C36105   0.088   8.493   5.784 -0.9136 -0.0916 -0.4661
  268MOL0     C36106   0.146   8.638   5.777  0.5381 -0.5144 -0.4531
  268MOL0     C36107   0.281   8.637   5.705 -1.2212 -0.1591 -0.2858
  268MOL0     C36108   0.275   8.604   5.559  0.0198  0.3992  0.3520
  268MOL0     C36109   0.390   8.638   5.483 -0.1764  0.3283 -0.0520
  268MOL0     C36110   0.503   8.675   5.440 -0.0769 -0.0965 -0.3867
  268MOL0     C36111   0.279   8.213   5.917  0.6172 -0.2579  0.0956
  268MOL0     C36112   0.304   8.080   5.888 -0.0826 -0.6541  1.2483
  268MOL0     H36113  -0.014   7.622   5.718  0.4037  3.1357 -1.5338
  268MOL0     H36114   0.029   7.368   5.694  0.6034 -0.7105  0.5843
  268MOL0     H36115   0.066   7.243   5.470  1.0960  4.3088 -0.2971
  268MOL0     H36116   0.208   7.262   5.364 -0.7910  1.2470 -0.2302
  268MOL0     H36117   0.145   7.022   5.548  2.1116 -1.1548  0.3452
  268MOL0     H36118   0.134   7.008   5.373  0.2515 -1.4150  1.2682
  268MOL0     H36119   0.358   7.011   5.558  0.1500 -3.3955 -0.4833
  268MOL0     H36120   0.346   6.920   5.412 -2.3538  0.1482 -0.3824
  268MOL0     H36121   0.382   7.141   5.295 -1.2983 -1.6042  0.4956
  268MOL0     H36122   0.463   7.189   5.447 -1.2035  0.6892 -1.2224
  268MOL0     H36123   0.644   7.105   5.307  0.1523  0.1086 -0.1428
  268MOL0     H36124   0.613   6.976   5.415  1.2238 -2.0221 -2.0087
  268MOL0     H36125   0.430   6.920   5.199  0.8212 -2.1201 -1.8847
  268MOL0     H36126   0.564   6.999   5.125 -1.5761  0.3241  0.9650
  268MOL0     H36127   0.724   6.848   5.265  0.1567 -3.2016  0.5825
  268MOL0     H36128   0.581   6.754   5.294 -2.2638 -0.8733 -1.1870
  268MOL0     H36129   0.684   6.658   5.110 -2.4671 -0.7798  2.1207
  268MOL0     H36130   0.710   6.820   5.035 -0.7314  1.4909 -0.1931
  268MOL0     H36131   0.419   6.575   5.145 -1.3597  2.7317  1.4487
  268MOL0     H36132   0.202   6.489   4.902  0.8376  1.7283 -0.7987
  268MOL0     H36133   0.220   6.496   5.071 -2.4083  2.5918  2.1952
  268MOL0     H36134  -0.008   6.575   4.988 -1.9619  0.8181 -4.8592
  268MOL0     H36135   0.060   6.698   4.890 -0.0732  0.3675  0.4773
  268MOL0     H36136  -0.053   6.768   5.087  0.0613  1.4885 -0.9392
  268MOL0     H36137   0.101   6.840   5.080  0.8713 -0.8482 -1.9938
  268MOL0     H36138   0.114   6.778   5.305  0.6946 -0.7578  0.6705
  268MOL0     H36139   0.204   6.653   5.231  0.2058  2.8981  2.8051
  268MOL0     H36140  -0.201   6.462   5.301 -0.3482 -0.5245  0.4720
  268MOL0     H36141  -0.473   6.456   5.509  0.0425 -0.5749 -0.4584
  268MOL0     H36142  -0.547   6.526   5.368 -0.2664 -1.8379 -1.4701
  268MOL0     H36143  -0.423   6.392   5.358 -0.3170 -0.5671  1.2385
  268MOL0     H36144  -0.709   6.889   5.388 -1.0597  0.3236 -0.3943
  268MOL0     H36145  -0.960   6.934   5.405 -0.4343  0.1187  0.1372
  268MOL0     H36146  -1.034   7.013   5.650  0.7366 -2.8306 -1.0435
  268MOL0     H36147  -1.191   7.007   5.554 -1.1860 -1.1646 -0.2438
  268MOL0     H36148  -1.304   6.889   5.728 -0.6108  1.7576 -1.4458
  268MOL0     H36149  -1.152   6.888   5.829  0.2434  1.2969  0.2428
  268MOL0     H36150  -1.330   7.129   5.774 -0.3828 -0.0758  0.3479
  268MOL0     H36151  -1.154   7.134   5.803  0.5249 -0.0210 -0.8411
  268MOL0     H36152  -1.336   6.956   5.981 -1.2997  0.1217 -0.0868
  268MOL0     H36153  -1.184   7.042   6.030 -0.0091 -1.1167 -0.6281
  268MOL0     H36154  -1.465   7.160   5.961  0.5167 -0.5148 -2.8916
  268MOL0     H36155  -1.332   7.259   6.003  0.1104 -0.1977 -1.2159
  268MOL0     H36156  -1.321   7.113   6.227 -0.8176 -5.1422 -1.5174
  268MOL0     H36157  -1.442   7.244   6.200 -0.4656 -0.5864 -0.6384
  268MOL0     H36158  -1.496   7.001   6.295  0.2466  2.5005  0.9236
  268MOL0     H36159  -1.502   6.953   6.121  1.8616 -1.1348  1.2883
  268MOL0     H36160  -1.733   7.022   6.180 -0.9305  1.9768 -1.9114
  268MOL0     H36161  -1.669   7.162   6.101 -1.3240 -0.0403  0.8127
  268MOL0     H36162  -0.979   6.650   5.715  1.0687  0.4851 -0.0097
  268MOL0     H36163  -0.753   6.596   5.704 -1.4309  0.4337  1.5544
  268MOL0     H36164  -0.231   6.905   5.517 -1.6210  0.6557 -1.8226
  268MOL0     H36165  -0.062   6.857   5.401  0.5174 -0.9180  0.2939
  268MOL0     H36166   0.376   7.474   5.457 -0.5409  0.9923 -0.9334
  268MOL0     H36167   0.344   7.706   5.507  0.1574 -0.3733 -1.5496
  268MOL0     H36168   0.019   8.036   5.701  0.7800  0.1129  0.5823
  268MOL0     H36169  -0.016   8.253   5.754 -1.1535  1.2031  0.9895
  268MOL0     H36170   0.084   8.452   5.683  0.4812  0.7032 -0.8725
  268MOL0     H36171  -0.010   8.493   5.831 -1.1571  0.8986 -0.9425
  268MOL0     H36172   0.145   8.679   5.879 -1.1155  0.2513 -0.7390
  268MOL0     H36173   0.075   8.701   5.723 -0.9058 -1.1518  0.5995
  268MOL0     H36174   0.361   8.573   5.743  0.1842  3.6527  4.2684
  268MOL0     H36175   0.313   8.742   5.702 -1.0158 -0.2390 -1.2301
  268MOL0     H36176   0.195   8.659   5.511 -0.9986  0.2320  1.7989
  268MOL0     H36177   0.248   8.498   5.549  0.0238  0.5309 -1.3765
  268MOL0     H36178   0.598   8.703   5.401  0.6178  1.2962  2.0574
  268MOL0     H36179   0.354   8.263   5.978 -0.4682  2.0906 -0.3990
  268MOL0     H36180   0.395   8.037   5.929  0.4269 -0.9393 -0.1099
  269MOL0     O36181   2.257   0.501   2.870 -1.0683 -0.5926 -0.0008
  269MOL0     C36182   2.174   0.588   2.868  0.2665  0.5131  0.4986
  269MOL0     O36183   2.169   0.690   2.944  0.0100 -0.3106 -0.0803
  269MOL0     C36184   2.248   0.720   3.052  0.5174 -0.5008  0.7282
  269MOL0     C36185   2.324   0.635   3.137  0.3018  0.5897 -0.2001
  269MOL0     C36186   2.397   0.696   3.245  0.3296 -0.1934  0.0059
  269MOL0     C36187   2.387   0.837   3.268  0.1618 -0.2906 -0.4079
  269MOL0     O36188   2.443   0.899   3.376 -0.4527  0.0231 -0.6497
  269MOL0     C36189   2.578   0.939   3.360  0.3729 -0.6450 -0.8090
  269MOL0     C36190   2.617   1.023   3.486 -0.3525  1.0878 -0.4663
  269MOL0     C36191   2.535   1.149   3.500  0.0106 -0.4192 -0.4868
  269MOL0     C36192   2.547   1.230   3.627  0.4065 -0.5258  0.0790
  269MOL0     C36193   2.476   1.363   3.626  0.0015 -0.2574  0.1933
  269MOL0     C36194   2.521   1.447   3.741  0.2054 -0.7931 -0.8249
  269MOL0     C36195   2.482   1.593   3.735 -0.0055 -0.3185  1.2640
  269MOL0     C36196   2.338   1.618   3.721 -0.5178  0.6227 -0.1360
  269MOL0     N36197   2.276   1.627   3.857  0.6807 -0.3183  0.3418
  269MOL0     C36198   2.235   1.517   3.929 -0.9511  0.2990 -0.5387
  269MOL0     C36199   2.175   1.563   4.038 -0.3414  0.6538 -1.0999
  269MOL0     C36200   2.084   1.491   4.140 -0.1335  0.0886  0.4820
  269MOL0     C36201   1.937   1.493   4.112 -0.5970  0.1069 -0.3935
  269MOL0     C36202   1.865   1.412   4.229  0.8760  0.4275  0.3272
  269MOL0     C36203   1.903   1.266   4.232 -0.4747  0.1635 -0.3142
  269MOL0     O36204   1.855   1.207   4.117 -0.2550 -0.3783 -0.4456
  269MOL0     C36205   1.892   1.082   4.092  0.4630  0.0338 -0.2097
  269MOL0     C36206   1.824   1.035   3.979 -1.2633 -0.3132  0.0714
  269MOL0     C36207   1.844   0.905   3.924 -0.1771  0.1267 -0.6487
  269MOL0     C36208   1.758   0.858   3.809 -0.9367 -0.1463 -0.8233
  269MOL0     C36209   1.944   0.822   3.989  0.5509  0.2538 -0.1751
  269MOL0     C36210   1.958   0.681   3.957  0.2508  1.1060  0.5156
  269MOL0     O36211   1.924   0.586   4.052 -0.4539  0.0806 -0.1841
  269MOL0     C36212   1.996   0.471   4.055  0.0702  0.9259  0.1511
  269MOL0     C36213   2.136   0.479   4.072  0.9796  0.8534 -0.1519
  269MOL0     C36214   2.209   0.359   4.065  0.9195  0.5138 -0.1529
  269MOL0     C36215   2.145   0.241   4.035  0.2480  0.7893  0.7857
  269MOL0     O36216   2.229   0.127   4.042  0.4136  0.6792  0.6321
  269MOL0     C36217   2.177  -0.005   4.039  0.6953 -0.8363 -0.4021
  269MOL0     C36218   2.297  -0.097   4.062 -0.1756 -0.3941 -0.0618
  269MOL0     C36219   2.234  -0.237   4.084 -0.2862 -0.4991  0.0095
  269MOL0     C36220   2.341  -0.331   4.135 -1.2507  0.0216  0.7095
  269MOL0     C36221   2.290  -0.474   4.128  0.0610 -0.2221  0.1257
  269MOL0     C36222   2.391  -0.582   4.173 -0.5045 -0.6027 -0.0196
  269MOL0     C36223   2.484  -0.552   4.300 -0.0600 -0.0645 -0.1040
  269MOL0     C36224   2.563  -0.678   4.352  0.2142  1.2906 -0.0287
  269MOL0    Cl36225   2.593  -0.811   4.236  0.0328 -0.3789 -0.5583
  269MOL0     C36226   2.011   0.236   4.010  0.7108  0.4261  0.0618
  269MOL0     C36227   1.936   0.354   4.016  1.1057  0.9475 -0.4277
  269MOL0     O36228   2.005   0.653   3.845  0.3802 -0.4635  0.4993
  269MOL0     C36229   2.008   0.868   4.102  0.5882  0.4583  0.4292
  269MOL0     C36230   1.981   0.995   4.156 -0.6687 -0.1592  0.1884
  269MOL0     N36231   2.161   1.700   4.028 -0.0416 -0.1684 -0.4167
  269MOL0     N36232   2.220   1.736   3.916  1.0632  0.5601  0.1488
  269MOL0     C36233   2.313   0.914   3.174 -0.2645 -0.6190 -0.1266
  269MOL0     C36234   2.243   0.858   3.073 -0.1308 -0.9332 -0.3500
  269MOL0     C36235   2.060   0.566   2.769 -0.5957  0.2021 -0.6534
  269MOL0     C36236   2.071   0.493   2.648  0.3451  1.0045  0.5546
  269MOL0     C36237   1.969   0.474   2.560  0.9354 -0.4171  0.1180
  269MOL0     C36238   1.838   0.517   2.597 -0.8338  0.3700  0.1068
  269MOL0     O36239   1.732   0.477   2.519 -0.5359  0.3566 -0.4071
  269MOL0     C36240   1.598   0.497   2.568 -0.7342 -0.0461 -0.8219
  269MOL0     C36241   1.538   0.613   2.496 -0.8326  0.4361  0.9759
  269MOL0     C36242   1.512   0.570   2.345  0.6386 -0.0994 -0.1897
  269MOL0     C36243   1.464   0.680   2.255 -0.2320 -0.5480 -0.7587
  269MOL0     C36244   1.349   0.761   2.305 -0.6205  0.3417  0.5204
  269MOL0     C36245   1.279   0.846   2.354 -0.6232  0.6565  0.1355
  269MOL0     C36246   1.825   0.603   2.707 -1.3463 -0.9620 -1.2152
  269MOL0     C36247   1.941   0.633   2.789  0.5298 -0.1800 -0.1496
  269MOL0     H36248   2.322   0.528   3.122 -2.4652  0.7213 -1.4858
  269MOL0     H36249   2.468   0.647   3.310  1.8204 -1.1059 -2.2038
  269MOL0     H36250   2.649   0.858   3.340  2.0185  0.7091 -0.7253
  269MOL0     H36251   2.584   1.003   3.272  0.5644  0.5636  0.0621
  269MOL0     H36252   2.605   0.966   3.579 -2.9211  3.3633  0.7310
  269MOL0     H36253   2.724   1.044   3.487 -0.2794  0.7109  0.9989
  269MOL0     H36254   2.557   1.218   3.418 -3.7400  1.8966  0.2303
  269MOL0     H36255   2.428   1.128   3.491 -1.0237  3.3713  0.9762
  269MOL0     H36256   2.500   1.176   3.710  0.9899  1.2428  1.6288
  269MOL0     H36257   2.655   1.245   3.639  0.8805 -1.0909 -2.7521
  269MOL0     H36258   2.504   1.423   3.539 -2.4626  0.4078 -0.2060
  269MOL0     H36259   2.367   1.353   3.631 -0.0586  0.7782  1.5977
  269MOL0     H36260   2.474   1.406   3.831 -0.7815 -0.2520 -1.0734
  269MOL0     H36261   2.628   1.447   3.764 -0.1089 -0.4219  0.7488
  269MOL0     H36262   2.512   1.656   3.819 -0.1961  2.2161 -0.4555
  269MOL0     H36263   2.523   1.643   3.647 -1.7455  0.1657  0.6734
  269MOL0     H36264   2.277   1.547   3.664  0.2341  0.2211 -0.4498
  269MOL0     H36265   2.329   1.717   3.675  4.3076  0.5799 -1.8053
  269MOL0     H36266   2.259   1.414   3.904  1.3848  0.5923  0.2901
  269MOL0     H36267   2.122   1.388   4.143  0.7989  0.4394  3.2802
  269MOL0     H36268   2.100   1.550   4.231  0.4118 -0.7549  0.9488
  269MOL0     H36269   1.917   1.440   4.019 -2.5429 -0.0839  0.1051
  269MOL0     H36270   1.899   1.595   4.109  2.1371  1.2519  0.4809
  269MOL0     H36271   1.758   1.429   4.214  0.6505 -0.7614  0.5021
  269MOL0     H36272   1.899   1.452   4.325  0.9676 -2.5989  1.6623
  269MOL0     H36273   1.860   1.217   4.320  2.1735  1.2826  1.7692
  269MOL0     H36274   2.012   1.256   4.230 -0.4857 -1.2221  1.9285
  269MOL0     H36275   1.759   1.105   3.927 -0.1102 -0.8524 -2.2411
  269MOL0     H36276   1.658   0.900   3.793 -1.4320  0.5183  3.0348
  269MOL0     H36277   1.819   0.891   3.725  1.7363  0.8128  1.3284
  269MOL0     H36278   1.746   0.751   3.825 -0.9481  0.4245  5.3042
  269MOL0     H36279   2.173   0.576   4.102  0.1504  0.6750  1.5774
  269MOL0     H36280   2.316   0.372   4.082  0.6781 -1.0928  3.5618
  269MOL0     H36281   2.103  -0.018   4.119  1.3302 -0.6187  0.2296
  269MOL0     H36282   2.125  -0.021   3.944  0.3302  1.1255 -0.5728
  269MOL0     H36283   2.364  -0.087   3.976  0.6944 -1.4334  0.4632
  269MOL0     H36284   2.358  -0.081   4.151 -0.9312 -1.0445  0.5940
  269MOL0     H36285   2.186  -0.272   3.993  2.7071  2.1614 -2.8662
  269MOL0     H36286   2.152  -0.239   4.157  0.0473 -1.2647  0.3685
  269MOL0     H36287   2.432  -0.316   4.076 -1.0196 -0.1475  1.0171
  269MOL0     H36288   2.374  -0.312   4.238  1.8643 -2.0404  0.2586
  269MOL0     H36289   2.252  -0.503   4.030 -0.3440  1.3239 -0.1983
  269MOL0     H36290   2.196  -0.491   4.182  0.0911 -3.7518 -0.7176
  269MOL0     H36291   2.341  -0.678   4.186 -1.6023  0.0137  0.4386
  269MOL0     H36292   2.466  -0.595   4.095  0.2925  0.0276  0.6266
  269MOL0     H36293   2.431  -0.492   4.376  2.1457 -2.3053  3.4842
  269MOL0     H36294   2.564  -0.485   4.268 -1.3427  0.9729 -1.2861
  269MOL0     H36295   2.502  -0.728   4.427  1.2671  0.2297  0.1263
  269MOL0     H36296   2.663  -0.659   4.391 -0.1504  2.0379  0.5711
  269MOL0     H36297   1.961   0.144   3.981  1.9391  0.6360 -3.1496
  269MOL0     H36298   1.830   0.352   3.993  1.2542 -4.3999 -1.8294
  269MOL0     H36299   2.080   0.803   4.151 -0.8811 -0.7174  1.1098
  269MOL0     H36300   2.040   1.031   4.239  1.0109 -0.3407 -0.8834
  269MOL0     H36301   2.314   1.022   3.181  0.7730 -0.6162 -0.2053
  269MOL0     H36302   2.184   0.921   3.007 -0.1213  0.2803  0.7681
  269MOL0     H36303   2.165   0.444   2.625  0.8550  1.9302  0.6053
  269MOL0     H36304   1.970   0.397   2.483  1.2611  0.7681 -1.1112
  269MOL0     H36305   1.533   0.410   2.556  0.0177 -1.0772  1.8351
  269MOL0     H36306   1.589   0.514   2.676  0.6124  0.4114 -0.7596
  269MOL0     H36307   1.601   0.701   2.512 -1.3662  0.4974  3.0896
  269MOL0     H36308   1.444   0.649   2.539  0.4616  1.5643  3.0374
  269MOL0     H36309   1.440   0.488   2.339  0.1369  0.4402 -2.5519
  269MOL0     H36310   1.600   0.530   2.294  0.8325 -0.5542  0.4869
  269MOL0     H36311   1.438   0.652   2.152 -2.1860  0.6020 -0.6350
  269MOL0     H36312   1.546   0.752   2.252 -0.8619  0.3306  1.2965
  269MOL0     H36313   1.220   0.924   2.399  0.3371  0.8268  1.1368
  269MOL0     H36314   1.736   0.660   2.734 -1.1314 -0.5557 -1.3669
  269MOL0     H36315   1.928   0.701   2.873  3.4380  0.4884 -0.1569
  270MOL0     O36316   6.474   0.690   9.479  0.0898  0.5468  0.5173
  270MOL0     C36317   6.541   0.789   9.458  1.6635 -0.7157 -1.1263
  270MOL0     O36318   6.510   0.904   9.389  0.3051  0.0493  0.3315
  270MOL0     C36319   6.388   0.939   9.352 -0.6039  0.1251 -0.2431
  270MOL0     C36320   6.279   0.923   9.441  0.6579  0.1353 -0.0039
  270MOL0     C36321   6.160   0.984   9.414 -0.4273  1.2561 -0.6030
  270MOL0     C36322   6.135   1.035   9.285 -0.6245  0.0639 -0.0389
  270MOL0     O36323   6.012   1.063   9.238 -0.2376  0.1113  0.3717
  270MOL0     C36324   5.900   0.984   9.285 -0.0400 -1.3975 -0.8430
  270MOL0     C36325   5.820   0.963   9.157  0.5621 -0.6712  0.2857
  270MOL0     C36326   5.769   1.094   9.080 -0.3934  0.0534 -0.1125
  270MOL0     C36327   5.762   1.056   8.939  0.4962  1.0836  1.0570
  270MOL0     C36328   5.676   1.157   8.854 -0.7160  0.6182 -0.2423
  270MOL0     C36329   5.528   1.150   8.896  0.9179  0.5477  0.3622
  270MOL0     C36330   5.440   1.252   8.813 -0.5993  0.6597 -0.2528
  270MOL0     C36331   5.291   1.250   8.855 -0.7469  0.4755  0.1920
  270MOL0     N36332   5.220   1.382   8.831 -0.7786  0.8178 -0.3992
  270MOL0     C36333   5.216   1.478   8.940 -0.5725  1.3992  0.5009
  270MOL0     C36334   5.171   1.586   8.871 -0.1297  0.0870  0.2460
  270MOL0     C36335   5.140   1.708   8.943  0.6020 -0.6562  0.6179
  270MOL0     C36336   5.037   1.808   8.878  0.4744  0.2339  0.8307
  270MOL0     C36337   5.062   1.856   8.736  0.2587  0.3927  0.4077
  270MOL0     C36338   4.967   1.978   8.712 -0.2950  0.0196  0.0603
  270MOL0     O36339   4.834   1.925   8.696 -0.1405 -0.2225  0.1930
  270MOL0     C36340   4.736   2.018   8.711 -0.2340 -0.3129 -0.2213
  270MOL0     C36341   4.663   2.059   8.601  0.7801  0.2282 -0.2254
  270MOL0     C36342   4.553   2.150   8.615  0.0928 -0.1772 -1.2015
  270MOL0     C36343   4.496   2.212   8.487 -0.0442  0.2746 -0.3421
  270MOL0     C36344   4.500   2.182   8.740 -0.0310 -0.4218 -0.4858
  270MOL0     C36345   4.378   2.259   8.768  0.6341  0.1425  0.7255
  270MOL0     O36346   4.362   2.282   8.896  0.6898 -0.6356 -0.0114
  270MOL0     C36347   4.281   2.390   8.930 -0.0380  0.2767 -0.3967
  270MOL0     C36348   4.192   2.379   9.038  0.2925  0.5209 -0.8032
  270MOL0     C36349   4.122   2.494   9.085 -0.4020  0.1408  0.4340
  270MOL0     C36350   4.132   2.617   9.015 -0.0766  0.6011 -0.6593
  270MOL0     O36351   4.046   2.714   9.055  1.1278  0.9201 -0.1000
  270MOL0     C36352   3.992   2.803   8.959  0.1171  0.0401  0.7244
  270MOL0     C36353   3.883   2.895   9.019 -0.1334 -1.0088 -0.2566
  270MOL0     C36354   3.786   2.814   9.104 -0.4693 -1.2343 -0.9761
  270MOL0     C36355   3.649   2.876   9.101 -0.0129 -0.2738 -0.6073
  270MOL0     C36356   3.553   2.792   9.005  0.1205  0.5381 -0.8680
  270MOL0     C36357   3.414   2.858   8.994  0.1390  0.2326  0.0745
  270MOL0     C36358   3.338   2.791   8.884 -0.1179 -0.1819  0.5807
  270MOL0     C36359   3.182   2.812   8.890 -1.1677 -0.0983  1.4142
  270MOL0    Cl36360   3.146   2.974   8.854 -0.0420 -0.1214  0.2278
  270MOL0     C36361   4.209   2.626   8.896 -0.1300  0.4336 -0.0418
  270MOL0     C36362   4.288   2.516   8.862 -0.1987  0.9208  0.8993
  270MOL0     O36363   4.298   2.291   8.680  0.7801  0.0701  1.7112
  270MOL0     C36364   4.574   2.132   8.856 -0.6634 -0.4982 -1.0886
  270MOL0     C36365   4.690   2.059   8.839  0.0707  0.2843  0.0579
  270MOL0     N36366   5.166   1.556   8.735  0.1260 -0.5668  0.4258
  270MOL0     N36367   5.176   1.432   8.712 -0.5494 -0.6491 -0.7669
  270MOL0     C36368   6.239   1.049   9.198  0.7297 -0.6152  0.2548
  270MOL0     C36369   6.370   1.014   9.237 -0.1283 -0.2039  0.5765
  270MOL0     C36370   6.663   0.798   9.542 -0.1050  0.2252  0.4275
  270MOL0     C36371   6.657   0.746   9.668  0.2246  0.1931 -0.2178
  270MOL0     C36372   6.780   0.737   9.746 -0.3536 -0.3562  0.1633
  270MOL0     C36373   6.908   0.766   9.689 -0.7515 -0.8404 -0.7985
  270MOL0     O36374   7.027   0.737   9.756  0.4535 -0.6645  0.1062
  270MOL0     C36375   7.025   0.602   9.809  0.6306 -0.9633 -0.1343
  270MOL0     C36376   7.168   0.556   9.834  0.3138 -0.3217 -0.5175
  270MOL0     C36377   7.238   0.648   9.939 -0.1200  0.6491  0.3602
  270MOL0     C36378   7.201   0.613  10.088  0.3020 -0.4627  0.5011
  270MOL0     C36379   7.141   0.733  10.150 -0.2078 -0.5113 -0.3106
  270MOL0     C36380   7.068   0.822  10.191  0.5566 -0.7148 -0.7873
  270MOL0     C36381   6.904   0.818   9.561  0.5966 -0.4867  0.0225
  270MOL0     C36382   6.787   0.830   9.487  0.5745  0.2302 -0.7127
  270MOL0     H36383   6.296   0.893   9.544  0.1351  1.1808  0.3975
  270MOL0     H36384   6.077   0.980   9.484 -0.0559 -1.4101 -0.2055
  270MOL0     H36385   5.937   0.887   9.321  0.2019 -0.6861  0.9211
  270MOL0     H36386   5.841   1.026   9.367 -1.0110  0.7224 -2.5347
  270MOL0     H36387   5.873   0.899   9.086  0.4096  0.0913 -0.5373
  270MOL0     H36388   5.742   0.892   9.182  0.1657  0.0634  1.2056
  270MOL0     H36389   5.669   1.117   9.119  0.1665 -0.7020  1.8927
  270MOL0     H36390   5.823   1.186   9.106 -0.2911 -0.0582  0.0692
  270MOL0     H36391   5.856   1.063   8.883 -0.8197  3.6500 -1.0451
  270MOL0     H36392   5.716   0.957   8.943  3.1644 -0.2249  1.9299
  270MOL0     H36393   5.699   1.261   8.879 -1.8218  0.5701  1.0794
  270MOL0     H36394   5.691   1.118   8.753  3.3791 -3.7039  1.6301
  270MOL0     H36395   5.497   1.048   8.874  2.7898  0.1952 -0.8624
  270MOL0     H36396   5.508   1.178   9.000 -1.5227  0.5395 -0.0486
  270MOL0     H36397   5.482   1.352   8.831 -0.0707  0.2391  0.9986
  270MOL0     H36398   5.442   1.244   8.704 -0.6143  1.1345 -0.2915
  270MOL0     H36399   5.284   1.248   8.964 -2.0588  0.8026  0.1393
  270MOL0     H36400   5.236   1.174   8.800  1.5566  0.1672 -1.8228
  270MOL0     H36401   5.216   1.455   9.047 -2.0070 -0.9617  0.0810
  270MOL0     H36402   5.083   1.687   9.035 -0.6166  2.6246  0.7428
  270MOL0     H36403   5.234   1.757   8.970  1.5899 -0.6999 -2.3983
  270MOL0     H36404   5.024   1.895   8.942  3.7910 -0.5405  2.8339
  270MOL0     H36405   4.936   1.768   8.878  0.0399  1.2143 -1.2733
  270MOL0     H36406   5.044   1.771   8.669  2.3667 -0.1097  0.4047
  270MOL0     H36407   5.165   1.890   8.723  0.5293 -0.5345  0.0079
  270MOL0     H36408   5.013   2.041   8.635 -0.6997 -0.2548 -0.4183
  270MOL0     H36409   4.970   2.042   8.800  0.3293  1.7918 -1.2113
  270MOL0     H36410   4.704   2.017   8.509  2.1230 -5.0468  2.3731
  270MOL0     H36411   4.419   2.146   8.446  0.7033 -0.4508 -0.6152
  270MOL0     H36412   4.459   2.312   8.509 -2.1221 -1.0233  2.7790
  270MOL0     H36413   4.577   2.224   8.414  1.5767 -2.3872  0.8566
  270MOL0     H36414   4.179   2.293   9.103 -1.2727  1.8670  0.7853
  270MOL0     H36415   4.061   2.490   9.174  1.4795  2.5927  1.9563
  270MOL0     H36416   4.076   2.868   8.935 -0.4382  1.7503  3.0006
  270MOL0     H36417   3.947   2.752   8.874 -1.1712  1.1557  0.6928
  270MOL0     H36418   3.934   2.971   9.080 -1.3965 -1.4251  1.3915
  270MOL0     H36419   3.834   2.955   8.942 -0.6812  0.2139  0.9952
  270MOL0     H36420   3.829   2.819   9.204 -0.4210  0.1302 -1.0407
  270MOL0     H36421   3.785   2.712   9.064  0.8787 -1.0883 -1.4621
  270MOL0     H36422   3.603   2.867   9.200 -1.1068 -0.1022 -1.0884
  270MOL0     H36423   3.650   2.979   9.065 -0.7622 -0.3059 -0.7371
  270MOL0     H36424   3.551   2.688   9.041  0.4822  1.6771  2.9241
  270MOL0     H36425   3.603   2.780   8.909  2.6528 -2.6195  0.6572
  270MOL0     H36426   3.363   2.859   9.090  0.3331  1.0096  0.1767
  270MOL0     H36427   3.420   2.964   8.965 -2.1685  0.1570 -0.9112
  270MOL0     H36428   3.366   2.685   8.884  0.7444  0.0394  0.7455
  270MOL0     H36429   3.369   2.826   8.785 -1.8100 -1.3493 -0.4176
  270MOL0     H36430   3.140   2.754   8.807  1.8226  2.9459 -2.6578
  270MOL0     H36431   3.145   2.775   8.986  1.0631 -0.3057  2.2385
  270MOL0     H36432   4.207   2.718   8.839  0.5136  2.0308  2.3463
  270MOL0     H36433   4.354   2.507   8.776 -0.9890  1.4351  0.2227
  270MOL0     H36434   4.542   2.160   8.955  1.6927  0.2057 -0.4686
  270MOL0     H36435   4.740   2.022   8.928  0.9964  1.5338  0.0775
  270MOL0     H36436   6.224   1.104   9.106  0.7439 -0.2652  0.4601
  270MOL0     H36437   6.452   1.026   9.167 -0.5518  1.1226  0.2677
  270MOL0     H36438   6.565   0.729   9.722 -1.6747  1.1228 -2.9769
  270MOL0     H36439   6.769   0.694   9.845  1.0027 -1.0273  0.0465
  270MOL0     H36440   6.969   0.602   9.904 -0.2895  1.4569 -0.6106
  270MOL0     H36441   6.974   0.524   9.752 -0.4605 -2.8736  3.1528
  270MOL0     H36442   7.220   0.541   9.739  0.6993  0.4771 -0.4434
  270MOL0     H36443   7.163   0.455   9.875 -0.4044 -1.1266 -2.5039
  270MOL0     H36444   7.224   0.754   9.916 -1.5938  0.5640  0.7834
  270MOL0     H36445   7.342   0.613   9.941 -0.1086 -0.2274 -4.4012
  270MOL0     H36446   7.293   0.574  10.133  0.2893 -0.2967  0.6698
  270MOL0     H36447   7.121   0.539  10.097 -0.1293  0.0386  0.7878
  270MOL0     H36448   7.005   0.898  10.233  1.4028 -0.3745 -0.1066
  270MOL0     H36449   6.993   0.857   9.514  1.2946  2.7962  3.5385
  270MOL0     H36450   6.782   0.855   9.381 -1.3336 -0.5183 -0.8393
  271MOL0     O36451  10.718   5.269   1.599 -0.2657  0.1114  0.1611
  271MOL0     C36452  10.626   5.207   1.548 -0.5963  0.3564 -0.3756
  271MOL0     O36453  10.574   5.082   1.580 -0.2761  0.3562  0.9679
  271MOL0     C36454  10.632   5.009   1.687  0.0207  0.9598 -0.4636
  271MOL0     C36455  10.545   4.965   1.791 -0.3559  0.1143  0.3796
  271MOL0     C36456  10.604   4.908   1.905  0.1635 -0.1109  0.1530
  271MOL0     C36457  10.741   4.889   1.926 -0.2833 -0.9639  0.3987
  271MOL0     O36458  10.791   4.853   2.051 -0.0723 -0.0108 -0.4793
  271MOL0     C36459  10.719   4.765   2.134  0.4603  0.4763  0.2558
  271MOL0     C36460  10.641   4.833   2.241  0.5770  0.3935  0.8145
  271MOL0     C36461  10.739   4.896   2.337  0.7730  0.5996 -0.9622
  271MOL0     C36462  10.670   4.918   2.471  0.2002  0.2313  0.4635
  271MOL0     C36463  10.757   4.975   2.583 -0.3237 -0.1834  0.3749
  271MOL0     C36464  10.677   5.005   2.707  0.6372 -0.3836  0.1041
  271MOL0     C36465  10.759   5.008   2.835 -0.1740  0.1927  0.0896
  271MOL0     C36466  10.669   5.016   2.956 -0.4028  0.7214 -0.8211
  271MOL0     N36467  10.758   5.005   3.074  0.6916 -0.7070 -0.9482
  271MOL0     C36468  10.846   5.105   3.131  0.1201  0.2495  1.1809
  271MOL0     C36469  10.881   5.061   3.257 -0.3544 -0.3560  0.5260
  271MOL0     C36470  10.962   5.119   3.357  0.3820 -0.1040  0.0130
  271MOL0     C36471  11.105   5.095   3.324 -0.1254  0.6078  0.2099
  271MOL0     C36472  11.207   5.122   3.441  0.8906 -0.7307  0.7112
  271MOL0     C36473  11.259   5.273   3.438  0.6350  0.3150  0.7197
  271MOL0     O36474  11.376   5.262   3.348 -0.4027 -0.1658 -0.1182
  271MOL0     C36475  11.441   5.376   3.312 -0.4411  0.3187 -0.3383
  271MOL0     C36476  11.395   5.510   3.320 -1.1566  0.9042 -0.0780
  271MOL0     C36477  11.489   5.614   3.291 -0.5362  0.2417  0.2070
  271MOL0     C36478  11.448   5.752   3.299 -0.4730 -0.3295 -0.5956
  271MOL0     C36479  11.619   5.579   3.245 -0.1878 -0.0986 -0.0619
  271MOL0     C36480  11.734   5.675   3.242 -1.2940  0.2985 -0.4010
  271MOL0     O36481  11.711   5.808   3.208  0.7571  0.0258 -0.0076
  271MOL0     C36482  11.810   5.904   3.202  0.2707  0.7039  0.2140
  271MOL0     C36483  11.790   6.027   3.259  0.2007  0.7079 -0.0293
  271MOL0     C36484  11.867   6.137   3.238 -0.0677  0.1648  0.3465
  271MOL0     C36485  11.981   6.119   3.160 -0.3734 -0.1830 -0.4314
  271MOL0     O36486  12.062   6.222   3.121 -0.1094 -0.1949 -0.5054
  271MOL0     C36487  12.051   6.353   3.183  0.0878  0.0004  0.3697
  271MOL0     C36488  12.178   6.439   3.158  0.7997  0.1412 -0.5116
  271MOL0     C36489  12.294   6.376   3.241 -0.1611 -0.6415  0.2268
  271MOL0     C36490  12.413   6.466   3.229 -0.1109 -0.0314  0.7322
  271MOL0     C36491  12.530   6.401   3.316 -0.2096  0.5655 -0.2812
  271MOL0     C36492  12.535   6.443   3.468 -0.0506  0.1514 -0.2790
  271MOL0     C36493  12.558   6.599   3.495 -0.4340 -0.0845 -0.5551
  271MOL0     C36494  12.705   6.643   3.482  0.4176 -0.3496 -0.1983
  271MOL0    Cl36495  12.730   6.678   3.306 -0.2638 -0.2668 -0.0630
  271MOL0     C36496  12.007   5.997   3.097  0.0675  0.0618 -0.2349
  271MOL0     C36497  11.928   5.884   3.133 -0.5507  0.4386 -1.1753
  271MOL0     O36498  11.848   5.628   3.267  0.1087  0.0526 -0.3368
  271MOL0     C36499  11.648   5.441   3.219  0.0789  0.2416 -0.4200
  271MOL0     C36500  11.567   5.339   3.252  0.1753  0.0579  0.0356
  271MOL0     N36501  10.818   4.934   3.273 -0.1186  0.0411  0.6644
  271MOL0     N36502  10.748   4.905   3.165 -0.0338 -0.3613 -0.4817
  271MOL0     C36503  10.824   4.914   1.815  0.3118 -0.0377  0.0798
  271MOL0     C36504  10.771   4.974   1.693  0.7788  0.4391  0.9322
  271MOL0     C36505  10.572   5.270   1.427 -0.1703 -0.5899  0.9176
  271MOL0     C36506  10.619   5.395   1.381 -0.4562 -0.0272  0.0831
  271MOL0     C36507  10.572   5.453   1.262 -1.0422  0.5149 -0.3360
  271MOL0     C36508  10.470   5.394   1.186 -0.7387  0.0056  0.0680
  271MOL0     O36509  10.423   5.466   1.078 -0.1245  0.3522  0.0287
  271MOL0     C36510  10.334   5.395   0.992 -0.3687 -0.0987 -0.1891
  271MOL0     C36511  10.306   5.462   0.856  0.0746  0.2375 -0.2680
  271MOL0     C36512  10.196   5.389   0.787 -0.0861 -1.3440  0.2106
  271MOL0     C36513  10.145   5.470   0.669 -0.2514 -0.1745  0.0939
  271MOL0     C36514  10.248   5.463   0.563 -0.6842  0.0452 -0.1387
  271MOL0     C36515  10.343   5.445   0.496 -0.4727  0.0721 -0.3667
  271MOL0     C36516  10.421   5.275   1.236 -0.1328  0.8401  0.8812
  271MOL0     C36517  10.463   5.215   1.353  0.0352 -0.2395 -0.0925
  271MOL0     H36518  10.437   4.974   1.783 -0.3774 -1.1600 -1.1306
  271MOL0     H36519  10.535   4.891   1.986 -0.1747 -0.1196 -0.1353
  271MOL0     H36520  10.656   4.699   2.073  0.1507  0.3449  0.7140
  271MOL0     H36521  10.797   4.701   2.177  0.5034 -2.0559 -3.1456
  271MOL0     H36522  10.572   4.910   2.205 -1.8795 -1.0534  2.1576
  271MOL0     H36523  10.587   4.759   2.300  1.1011 -0.9111 -0.2734
  271MOL0     H36524  10.828   4.836   2.357 -0.7001 -0.7699  2.0264
  271MOL0     H36525  10.768   5.000   2.318 -1.0937  2.6538  5.1665
  271MOL0     H36526  10.592   4.992   2.452  2.3705  2.1864 -1.4557
  271MOL0     H36527  10.615   4.827   2.499 -0.8480  0.9108  0.6670
  271MOL0     H36528  10.838   4.903   2.597 -0.7825 -0.4935  1.6249
  271MOL0     H36529  10.807   5.065   2.547  0.5929  0.3387  2.7486
  271MOL0     H36530  10.622   5.100   2.699  2.8792  0.9263 -0.6992
  271MOL0     H36531  10.602   4.926   2.717 -0.8674  0.9813  0.1012
  271MOL0     H36532  10.815   4.915   2.843 -1.7166 -0.8288 -0.4212
  271MOL0     H36533  10.830   5.091   2.838  1.2223 -0.9633  0.0023
  271MOL0     H36534  10.592   4.938   2.959 -1.1980  1.4648  2.6905
  271MOL0     H36535  10.613   5.110   2.954  0.3531  1.1757 -1.0542
  271MOL0     H36536  10.891   5.181   3.068 -0.3590  0.6719  1.3373
  271MOL0     H36537  10.957   5.227   3.374 -0.5034 -0.2119  0.5523
  271MOL0     H36538  10.944   5.075   3.456  0.6267  0.2465  0.2152
  271MOL0     H36539  11.138   5.135   3.227  1.0285 -1.6861 -0.4244
  271MOL0     H36540  11.123   4.989   3.300  0.1279  0.9411 -1.2053
  271MOL0     H36541  11.294   5.057   3.435 -1.0419 -3.5008  0.8336
  271MOL0     H36542  11.155   5.107   3.536 -1.9547 -1.5120 -0.8354
  271MOL0     H36543  11.292   5.330   3.525 -1.6363  3.2146 -0.1457
  271MOL0     H36544  11.180   5.336   3.397 -0.2137 -1.5833 -0.7474
  271MOL0     H36545  11.296   5.530   3.358 -0.5046 -1.9618  3.7363
  271MOL0     H36546  11.463   5.811   3.208  2.1768  0.3047  0.1657
  271MOL0     H36547  11.346   5.759   3.339  0.2008  0.9636  0.9494
  271MOL0     H36548  11.510   5.794   3.378  2.1239  0.1957 -2.7628
  271MOL0     H36549  11.698   6.059   3.306  0.2535  0.2956  0.3693
  271MOL0     H36550  11.829   6.231   3.277 -2.7238 -0.5947 -0.2194
  271MOL0     H36551  11.959   6.405   3.153  0.8854  2.1232  1.4011
  271MOL0     H36552  12.050   6.348   3.292  0.5253  2.9200  0.6003
  271MOL0     H36553  12.207   6.444   3.052  4.2514 -1.5279  0.2073
  271MOL0     H36554  12.169   6.544   3.187 -2.1303 -0.6854  2.0603
  271MOL0     H36555  12.302   6.269   3.217 -1.8599 -0.8909  0.5958
  271MOL0     H36556  12.271   6.384   3.348  0.1859  1.9936  0.1682
  271MOL0     H36557  12.436   6.476   3.122 -4.0146 -1.2449 -0.3854
  271MOL0     H36558  12.380   6.566   3.260 -3.6929 -0.3885 -1.4261
  271MOL0     H36559  12.631   6.414   3.276  0.5089 -1.9237  0.5154
  271MOL0     H36560  12.504   6.295   3.318 -1.4083  0.5668 -4.9114
  271MOL0     H36561  12.440   6.418   3.515  0.5849 -1.5811  0.1642
  271MOL0     H36562  12.608   6.377   3.517  1.1168 -0.6154 -2.8859
  271MOL0     H36563  12.512   6.620   3.593  1.1685  0.4675  0.1106
  271MOL0     H36564  12.502   6.667   3.431 -0.1631  0.4721 -0.2138
  271MOL0     H36565  12.772   6.565   3.521  0.6564  0.6541  1.4763
  271MOL0     H36566  12.730   6.730   3.544  2.7286  0.4167 -2.0507
  271MOL0     H36567  12.090   5.994   3.027  0.0020  3.0112 -0.5482
  271MOL0     H36568  11.951   5.788   3.089  1.4312 -1.7669  3.8583
  271MOL0     H36569  11.747   5.428   3.177 -0.1780  0.9719 -1.2994
  271MOL0     H36570  11.594   5.235   3.236  4.1914  0.9318  0.1103
  271MOL0     H36571  10.930   4.895   1.825  0.8179  2.4244  0.1563
  271MOL0     H36572  10.837   4.998   1.610 -1.0816  0.8148 -0.5100
  271MOL0     H36573  10.704   5.449   1.422 -0.6197  0.8521 -0.6883
  271MOL0     H36574  10.621   5.540   1.220  1.2963 -0.4441  0.2675
  271MOL0     H36575  10.380   5.301   0.961  0.1137  0.4925 -1.3335
  271MOL0     H36576  10.239   5.378   1.043 -3.0299  0.2241 -4.5553
  271MOL0     H36577  10.396   5.468   0.794  0.6041 -2.5111  0.1150
  271MOL0     H36578  10.272   5.566   0.864  1.4673  0.6057  1.4862
  271MOL0     H36579  10.113   5.368   0.854 -2.6150  1.2630 -1.8267
  271MOL0     H36580  10.238   5.294   0.751  0.5148 -0.2549 -2.1653
  271MOL0     H36581  10.127   5.571   0.705 -0.8555 -0.9151  2.0097
  271MOL0     H36582  10.051   5.425   0.633  1.3368 -3.0849 -0.8047
  271MOL0     H36583  10.432   5.448   0.436 -1.9713  0.0967 -2.7053
  271MOL0     H36584  10.331   5.227   1.198  0.2624  0.7384  0.0510
  271MOL0     H36585  10.422   5.124   1.394  0.3665  0.3805  1.6865
  272MOL0     O36586   4.052   1.794   0.880  0.1399  0.1511 -0.0994
  272MOL0     C36587   4.174   1.806   0.859  0.5151 -0.8995  0.9122
  272MOL0     O36588   4.267   1.865   0.944  0.4293 -1.2364 -0.0823
  272MOL0     C36589   4.217   1.917   1.062 -0.0151 -0.5547 -0.1780
  272MOL0     C36590   4.136   2.032   1.053 -0.3439 -0.7672  0.0697
  272MOL0     C36591   4.087   2.095   1.165  0.6450 -0.5132  0.2651
  272MOL0     C36592   4.115   2.041   1.284  0.1634 -0.6218 -0.7819
  272MOL0     O36593   4.042   2.096   1.388  0.2405  0.1032  0.2105
  272MOL0     C36594   4.002   2.007   1.497  1.1873  0.4425  0.3648
  272MOL0     C36595   3.925   2.081   1.606 -0.5027  0.1523 -0.5657
  272MOL0     C36596   3.778   2.128   1.577  0.8685  0.5157  0.2745
  272MOL0     C36597   3.711   2.208   1.677  0.0786  0.1560  0.4232
  272MOL0     C36598   3.565   2.250   1.637  0.8466 -0.0385 -0.2188
  272MOL0     C36599   3.583   2.339   1.511  0.2252 -0.0487  0.2499
  272MOL0     C36600   3.526   2.477   1.558  0.0611  0.5277 -0.2264
  272MOL0     C36601   3.536   2.590   1.451  0.3791  0.6977 -0.2757
  272MOL0     N36602   3.459   2.706   1.508 -0.1422 -0.0905  0.4879
  272MOL0     C36603   3.470   2.759   1.634 -0.1698 -0.6192 -0.0565
  272MOL0     C36604   3.362   2.837   1.655  0.2739  0.1176  0.0713
  272MOL0     C36605   3.329   2.917   1.772 -0.5652 -0.3020  0.5370
  272MOL0     C36606   3.412   3.050   1.778 -0.4607  0.3071  0.5352
  272MOL0     C36607   3.361   3.131   1.901  0.6159  0.3304 -0.8485
  272MOL0     C36608   3.471   3.186   1.984 -0.3029 -0.3332 -0.5538
  272MOL0     O36609   3.416   3.260   2.096  0.1804  0.1811  0.0969
  272MOL0     C36610   3.378   3.200   2.215 -0.0438 -0.3992  0.0086
  272MOL0     C36611   3.379   3.057   2.222  0.7246 -0.7149 -0.5968
  272MOL0     C36612   3.324   2.995   2.337 -1.3412 -0.9909  0.0133
  272MOL0     C36613   3.303   2.849   2.329  0.2235  0.5543 -0.6754
  272MOL0     C36614   3.278   3.074   2.450  0.3377 -0.5067  0.2118
  272MOL0     C36615   3.217   3.014   2.568  0.8494 -0.0878 -0.1220
  272MOL0     O36616   3.279   2.901   2.609 -0.2684 -0.3537 -0.2076
  272MOL0     C36617   3.242   2.819   2.717 -0.7555  0.2113  0.2171
  272MOL0     C36618   3.231   2.855   2.854  0.9271 -1.1228  0.3910
  272MOL0     C36619   3.188   2.766   2.949  0.2154 -0.0561 -0.3743
  272MOL0     C36620   3.162   2.634   2.913  0.4615  0.3021  0.8600
  272MOL0     O36621   3.129   2.529   2.997 -0.1423  0.8386  0.8907
  272MOL0     C36622   3.108   2.565   3.122  0.1627 -0.1200 -0.0399
  272MOL0     C36623   3.015   2.463   3.186  0.3237  0.3640 -0.6733
  272MOL0     C36624   3.017   2.481   3.338 -0.7104  0.3271 -0.2409
  272MOL0     C36625   2.941   2.354   3.398 -0.9545  0.8269 -0.2469
  272MOL0     C36626   2.794   2.374   3.378 -0.0499 -0.7154 -0.6347
  272MOL0     C36627   2.718   2.267   3.460 -0.0744 -0.1091 -0.2543
  272MOL0     C36628   2.769   2.129   3.438  0.7313  0.6353  0.5459
  272MOL0     C36629   2.685   2.025   3.511  0.0884  0.3402 -0.2946
  272MOL0    Cl36630   2.715   2.048   3.689 -0.0123  0.2887 -0.7670
  272MOL0     C36631   3.146   2.597   2.774  0.2355 -0.5919  0.0103
  272MOL0     C36632   3.187   2.690   2.680 -0.8445 -0.0397  0.5791
  272MOL0     O36633   3.112   3.057   2.612 -0.1222  1.0060  0.0891
  272MOL0     C36634   3.289   3.208   2.438 -0.5285  0.1791  0.4191
  272MOL0     C36635   3.343   3.276   2.329 -0.4635  0.6684  0.4356
  272MOL0     N36636   3.292   2.847   1.531  0.4816 -0.2034 -0.6354
  272MOL0     N36637   3.350   2.767   1.453  0.4102  0.3499  0.6209
  272MOL0     C36638   4.190   1.925   1.296  0.4727 -0.0610  0.3805
  272MOL0     C36639   4.250   1.863   1.184 -0.1256  1.1359 -0.6813
  272MOL0     C36640   4.226   1.750   0.730  0.0481 -0.3965 -0.5148
  272MOL0     C36641   4.149   1.653   0.654  0.1568 -0.6596 -0.3605
  272MOL0     C36642   4.195   1.588   0.541 -0.5769 -0.3702 -0.2551
  272MOL0     C36643   4.311   1.637   0.487  0.1772  0.1777 -0.0701
  272MOL0     O36644   4.337   1.579   0.363 -0.1322 -0.1789  0.7203
  272MOL0     C36645   4.464   1.608   0.294  0.8584  0.1116 -0.5252
  272MOL0     C36646   4.467   1.530   0.161  0.4517 -0.7557 -0.4389
  272MOL0     C36647   4.357   1.573   0.066  0.0227  0.3748 -0.2643
  272MOL0     C36648   4.357   1.715   0.025  0.6626  0.4318 -0.3877
  272MOL0     C36649   4.267   1.744  -0.086 -1.4407  0.0870  0.9218
  272MOL0     C36650   4.187   1.764  -0.179  0.0784  0.7156  0.4158
  272MOL0     C36651   4.393   1.730   0.561  0.3441 -0.1449  0.7849
  272MOL0     C36652   4.355   1.786   0.688  0.1298 -0.6798  0.0834
  272MOL0     H36653   4.124   2.088   0.961  3.6661  0.2653 -0.0264
  272MOL0     H36654   4.032   2.187   1.148  2.6389  1.1023  2.0200
  272MOL0     H36655   3.934   1.932   1.457  1.1581 -1.4591  3.5722
  272MOL0     H36656   4.084   1.954   1.546 -1.2992  0.0142  4.6060
  272MOL0     H36657   3.928   2.014   1.692  2.6784 -0.7073 -1.2220
  272MOL0     H36658   3.987   2.169   1.628  0.2591 -0.5048 -0.0284
  272MOL0     H36659   3.797   2.192   1.490  0.3600  0.9519  0.4839
  272MOL0     H36660   3.720   2.038   1.550  1.9290 -0.7226  1.9273
  272MOL0     H36661   3.701   2.149   1.768 -1.8024 -0.2921 -0.0352
  272MOL0     H36662   3.776   2.294   1.696  1.8107 -1.8743  4.7644
  272MOL0     H36663   3.499   2.166   1.613  0.6330  0.0488  0.0570
  272MOL0     H36664   3.523   2.303   1.723 -1.2561 -0.0929 -1.1536
  272MOL0     H36665   3.686   2.350   1.476 -0.0339  0.5343 -0.3359
  272MOL0     H36666   3.527   2.294   1.429 -2.6879  2.5975  0.6386
  272MOL0     H36667   3.421   2.457   1.582  0.1446 -1.7532 -1.5346
  272MOL0     H36668   3.568   2.513   1.653  1.4741  0.7802 -0.9227
  272MOL0     H36669   3.493   2.571   1.352  1.7304  2.3468 -1.2420
  272MOL0     H36670   3.640   2.613   1.428  0.0518  0.8737 -1.6601
  272MOL0     H36671   3.548   2.735   1.705 -0.3491  2.3152  1.2906
  272MOL0     H36672   3.221   2.935   1.765 -0.4328  0.7069  0.8847
  272MOL0     H36673   3.349   2.856   1.860 -0.8663 -1.0249  0.1057
  272MOL0     H36674   3.389   3.114   1.692  0.3518 -0.0912  0.0040
  272MOL0     H36675   3.519   3.026   1.778 -1.1398 -3.2652  0.4531
  272MOL0     H36676   3.296   3.069   1.964  1.1161 -2.2997 -2.7554
  272MOL0     H36677   3.296   3.218   1.888 -2.9636 -1.5647  2.1780
  272MOL0     H36678   3.523   3.260   1.923 -2.4726  1.6606 -0.1483
  272MOL0     H36679   3.548   3.113   2.008 -1.4507 -3.1679 -4.5113
  272MOL0     H36680   3.413   2.991   2.143 -2.0695 -0.7047 -1.9415
  272MOL0     H36681   3.348   2.818   2.235 -1.1180 -3.6428 -0.1392
  272MOL0     H36682   3.365   2.809   2.409  0.6286  0.9254 -0.8021
  272MOL0     H36683   3.195   2.832   2.339  0.2820 -0.1581 -1.2508
  272MOL0     H36684   3.244   2.960   2.878 -2.4343 -0.9955  2.3267
  272MOL0     H36685   3.181   2.801   3.052  0.4880 -2.7499  0.6353
  272MOL0     H36686   3.207   2.547   3.165  0.6339 -2.6989 -1.9602
  272MOL0     H36687   3.068   2.662   3.152 -2.1968 -1.6817  2.4198
  272MOL0     H36688   2.917   2.487   3.145  0.0155 -1.4880 -1.1149
  272MOL0     H36689   3.042   2.364   3.148 -0.7003 -0.0880 -0.2623
  272MOL0     H36690   2.971   2.578   3.360 -0.1832  1.3234 -3.1382
  272MOL0     H36691   3.121   2.485   3.371 -0.8193  1.5246 -0.0310
  272MOL0     H36692   2.961   2.262   3.343 -2.4853  0.1989  0.2113
  272MOL0     H36693   2.965   2.341   3.504  2.4500  0.9933 -0.8756
  272MOL0     H36694   2.753   2.390   3.278  3.1762  0.3040 -1.9099
  272MOL0     H36695   2.778   2.470   3.428 -0.0465 -1.3956  0.7422
  272MOL0     H36696   2.730   2.296   3.565 -0.9581  1.7084 -0.6115
  272MOL0     H36697   2.610   2.276   3.446 -0.1978 -0.8342  0.1530
  272MOL0     H36698   2.874   2.122   3.466  1.6269 -0.6185 -2.6670
  272MOL0     H36699   2.782   2.110   3.331 -0.9318  0.6736  0.3117
  272MOL0     H36700   2.727   1.925   3.492  0.0029  0.3113 -0.3313
  272MOL0     H36701   2.584   2.031   3.470 -0.8223  0.8992  1.8974
  272MOL0     H36702   3.114   2.506   2.724  0.2778  0.1894 -1.5035
  272MOL0     H36703   3.176   2.664   2.576  0.9022 -3.0301  1.0163
  272MOL0     H36704   3.258   3.270   2.522  2.4857  1.2307  0.8583
  272MOL0     H36705   3.360   3.382   2.345  0.5209  0.3837  1.4199
  272MOL0     H36706   4.207   1.891   1.397 -2.6776  0.0274  1.0241
  272MOL0     H36707   4.313   1.775   1.195 -1.6331  0.1927  1.0125
  272MOL0     H36708   4.048   1.629   0.686 -1.6358  4.4330 -1.2561
  272MOL0     H36709   4.136   1.516   0.486  1.8850 -1.4466 -1.6387
  272MOL0     H36710   4.486   1.713   0.276  3.6612 -0.5915 -1.6352
  272MOL0     H36711   4.549   1.568   0.350  1.4296  1.7970 -0.1414
  272MOL0     H36712   4.442   1.428   0.191  1.0097 -0.8883 -0.4195
  272MOL0     H36713   4.570   1.537   0.126  0.7448 -2.4212  0.0126
  272MOL0     H36714   4.267   1.543   0.121  0.5104 -3.1985 -1.2088
  272MOL0     H36715   4.370   1.514  -0.025  0.1633 -0.8129  0.5048
  272MOL0     H36716   4.457   1.756   0.009 -0.1344  1.8050 -2.1603
  272MOL0     H36717   4.317   1.767   0.113  0.9388  1.0900 -0.6448
  272MOL0     H36718   4.113   1.770  -0.257 -0.9498  0.3517  1.3298
  272MOL0     H36719   4.487   1.760   0.517 -0.6273  4.0910  1.1760
  272MOL0     H36720   4.414   1.848   0.755  0.5928  1.3855 -2.0869
  273MOL0     O36721   7.235   6.931  11.395 -0.0519  0.1251  0.2409
  273MOL0     C36722   7.146   6.922  11.479 -0.2688 -0.2156 -0.2499
  273MOL0     O36723   7.146   6.821  11.571 -0.8724  0.5506  0.9249
  273MOL0     C36724   7.245   6.726  11.574 -0.8389 -0.4231 -0.4915
  273MOL0     C36725   7.234   6.613  11.489  1.1615  0.0022 -0.1992
  273MOL0     C36726   7.336   6.512  11.492  0.4110 -0.1616 -0.5258
  273MOL0     C36727   7.450   6.526  11.582  0.4711 -0.3902  1.0693
  273MOL0     O36728   7.560   6.447  11.585 -0.0436  0.3093  0.4064
  273MOL0     C36729   7.553   6.322  11.520  0.7398 -0.2757  0.4048
  273MOL0     C36730   7.641   6.315  11.388 -0.0525  0.3869 -0.5096
  273MOL0     C36731   7.795   6.333  11.383  0.3226 -0.8028 -0.0353
  273MOL0     C36732   7.835   6.476  11.422 -0.0124  0.4812  0.4315
  273MOL0     C36733   7.990   6.494  11.417  0.3126  0.2038 -0.1271
  273MOL0     C36734   8.038   6.640  11.441 -0.3673 -1.6332 -0.8581
  273MOL0     C36735   8.191   6.638  11.469  0.2350 -0.7472 -0.1702
  273MOL0     C36736   8.256   6.780  11.473  0.4371 -1.2472 -0.6981
  273MOL0     N36737   8.256   6.847  11.343  0.4824  0.0434  1.0587
  273MOL0     C36738   8.304   6.800  11.219 -0.5629 -0.8322 -0.7633
  273MOL0     C36739   8.299   6.916  11.146 -0.0603  0.0890 -1.0170
  273MOL0     C36740   8.366   6.943  11.014  0.8326 -1.3787  0.3928
  273MOL0     C36741   8.507   6.996  11.017 -0.2136 -0.5872 -0.3979
  273MOL0     C36742   8.573   7.004  10.874 -0.2430  0.6594 -0.3897
  273MOL0     C36743   8.718   6.959  10.872 -0.6014  0.6622 -0.4974
  273MOL0     O36744   8.799   7.072  10.899  0.3145 -0.4249  0.9683
  273MOL0     C36745   8.932   7.068  10.879  0.2457  0.4382 -0.5650
  273MOL0     C36746   9.010   6.955  10.832 -0.5304 -1.0451 -0.8601
  273MOL0     C36747   9.145   6.966  10.808  1.3868 -0.3627 -0.0193
  273MOL0     C36748   9.206   6.856  10.734  0.3562  0.0397  0.6272
  273MOL0     C36749   9.204   7.088  10.839 -0.0923 -0.8427 -0.5622
  273MOL0     C36750   9.347   7.107  10.825  0.5202 -0.3411 -0.8352
  273MOL0     O36751   9.424   6.995  10.869  0.6578  0.1407 -0.3672
  273MOL0     C36752   9.555   6.982  10.852 -1.3536 -0.0848 -0.0490
  273MOL0     C36753   9.630   6.914  10.941 -0.3246  0.7329 -0.3589
  273MOL0     C36754   9.770   6.901  10.928  0.4681 -0.4090 -0.0703
  273MOL0     C36755   9.833   6.939  10.809  0.6472 -0.1539  0.4490
  273MOL0     O36756   9.961   6.897  10.812 -0.0078 -0.4144 -0.1024
  273MOL0     C36757  10.032   6.899  10.688 -0.6583  0.6652  0.3100
  273MOL0     C36758  10.159   6.814  10.712 -1.2776 -0.3821 -0.1914
  273MOL0     C36759  10.252   6.882  10.818  0.0009 -0.1533  0.3811
  273MOL0     C36760  10.340   6.770  10.870  0.0595 -0.1498 -0.6208
  273MOL0     C36761  10.443   6.832  10.974  0.4838 -0.9743  0.3096
  273MOL0     C36762  10.507   6.717  11.045 -0.1700 -0.3230 -0.2123
  273MOL0     C36763  10.591   6.775  11.164  0.5430  0.1359  0.2117
  273MOL0     C36764  10.664   6.656  11.229 -0.8807  1.3691 -0.0768
  273MOL0    Cl36765  10.753   6.682  11.383 -0.2774 -0.1833 -0.7551
  273MOL0     C36766   9.761   6.997  10.709  0.1841 -1.0232  1.0262
  273MOL0     C36767   9.623   7.027  10.734 -0.7454  0.5983 -0.1291
  273MOL0     O36768   9.396   7.218  10.782  1.0030  0.7607 -0.5159
  273MOL0     C36769   9.134   7.195  10.886  0.4462 -0.0764 -0.0332
  273MOL0     C36770   8.998   7.183  10.902  0.3286  0.0984  0.3569
  273MOL0     N36771   8.249   7.022  11.229  0.0076 -0.0194  0.0057
  273MOL0     N36772   8.225   6.973  11.340 -0.3478 -0.2209 -0.6426
  273MOL0     C36773   7.463   6.642  11.657  1.2677 -0.4734  0.4741
  273MOL0     C36774   7.358   6.740  11.658  0.1032  0.5484 -0.4534
  273MOL0     C36775   7.024   7.012  11.469 -0.6344 -0.2604 -0.3273
  273MOL0     C36776   7.024   7.105  11.367  0.0039 -0.2023 -0.8188
  273MOL0     C36777   6.908   7.182  11.347  0.9054 -0.5997  0.9163
  273MOL0     C36778   6.791   7.160  11.419 -0.5351  0.1083  0.6930
  273MOL0     O36779   6.689   7.248  11.389  0.1823 -0.1962 -0.0681
  273MOL0     C36780   6.563   7.208  11.449  0.2119 -1.2228  0.4684
  273MOL0     C36781   6.463   7.299  11.365 -0.0103 -0.2283 -0.1914
  273MOL0     C36782   6.340   7.220  11.324  0.2971  0.9638  0.0754
  273MOL0     C36783   6.368   7.123  11.211  0.8118  0.0385 -0.4179
  273MOL0     C36784   6.257   7.025  11.211  0.7908 -0.4781  1.1390
  273MOL0     C36785   6.147   6.965  11.212 -1.3207  0.5072 -0.2838
  273MOL0     C36786   6.787   7.066  11.528  0.3082  0.4837 -0.0037
  273MOL0     C36787   6.911   6.999  11.555 -0.5949  0.0938  0.3006
  273MOL0     H36788   7.159   6.603  11.412  2.3676  2.8398 -1.9209
  273MOL0     H36789   7.326   6.426  11.425  1.7511 -1.4888  0.8993
  273MOL0     H36790   7.597   6.247  11.586  2.8877 -1.6503 -2.3542
  273MOL0     H36791   7.449   6.289  11.513  0.6198  0.3535 -1.1348
  273MOL0     H36792   7.631   6.222  11.331  2.8112  0.5293 -1.4038
  273MOL0     H36793   7.595   6.384  11.318 -0.0812 -0.5951 -1.4883
  273MOL0     H36794   7.851   6.256  11.436 -2.4474 -2.6989  0.3416
  273MOL0     H36795   7.831   6.323  11.280  2.4754  2.2972  0.2684
  273MOL0     H36796   7.804   6.537  11.337  0.3474  2.4468  1.6488
  273MOL0     H36797   7.778   6.508  11.510  0.6956  1.6273  0.5054
  273MOL0     H36798   8.044   6.428  11.486  1.8514  2.4584  0.9075
  273MOL0     H36799   8.021   6.461  11.318  1.0386 -3.9022  1.2453
  273MOL0     H36800   8.012   6.710  11.361 -1.0239 -2.6640 -1.5848
  273MOL0     H36801   7.999   6.676  11.537  1.4474 -2.9086  0.4274
  273MOL0     H36802   8.211   6.597  11.568  0.5848 -2.5692 -0.9380
  273MOL0     H36803   8.239   6.574  11.393  2.0439 -1.6673  1.6561
  273MOL0     H36804   8.363   6.781  11.495  0.4462  4.5549  0.6044
  273MOL0     H36805   8.213   6.842  11.552  0.3744  0.3292 -1.9131
  273MOL0     H36806   8.350   6.706  11.190  1.1362 -0.8796  1.7469
  273MOL0     H36807   8.366   6.848  10.959  0.6073 -2.0463  1.5198
  273MOL0     H36808   8.296   7.011  10.964 -4.5080 -5.0883  1.8800
  273MOL0     H36809   8.567   6.923  11.072  3.0621  0.5022 -2.2906
  273MOL0     H36810   8.517   7.090  11.071  2.4810 -1.0567  0.0424
  273MOL0     H36811   8.567   7.108  10.841  2.7194  1.7058  1.8592
  273MOL0     H36812   8.529   6.933  10.803  2.2113 -2.8402  1.2694
  273MOL0     H36813   8.743   6.912  10.777  2.8523  0.3640  0.4277
  273MOL0     H36814   8.733   6.878  10.945  0.2619  1.1950 -0.0644
  273MOL0     H36815   8.969   6.860  10.799 -1.5859 -1.0521  0.3811
  273MOL0     H36816   9.256   6.895  10.645 -1.3032 -1.8982 -1.2546
  273MOL0     H36817   9.276   6.807  10.802 -0.1853 -1.1262  0.3645
  273MOL0     H36818   9.126   6.792  10.696  2.3672 -1.6311 -0.9993
  273MOL0     H36819   9.584   6.875  11.031 -1.8412  0.6185 -1.1349
  273MOL0     H36820   9.821   6.854  11.011 -2.0721  0.9595  2.4223
  273MOL0     H36821   9.966   6.863  10.609  0.4838 -0.1242 -0.3022
  273MOL0     H36822  10.069   6.997  10.657  0.2917  0.0345 -0.6141
  273MOL0     H36823  10.129   6.714  10.744  2.6171 -1.6572 -0.0247
  273MOL0     H36824  10.213   6.799  10.619  0.6745  0.2265  0.7876
  273MOL0     H36825  10.193   6.930  10.897 -1.1823 -2.1312  0.7588
  273MOL0     H36826  10.312   6.966  10.782  2.0786 -1.0016  1.6599
  273MOL0     H36827  10.273   6.699  10.919 -1.2637  1.3686 -0.1192
  273MOL0     H36828  10.392   6.721  10.787  3.4512  3.8491 -1.1701
  273MOL0     H36829  10.384   6.892  11.044  1.9672  0.8417  0.1082
  273MOL0     H36830  10.520   6.896  10.928  1.2891 -2.4338 -0.4617
  273MOL0     H36831  10.427   6.658  11.090  0.9185 -2.5535 -1.0826
  273MOL0     H36832  10.557   6.650  10.975 -0.3772 -4.8198  3.4619
  273MOL0     H36833  10.520   6.823  11.232 -1.3230  1.2352 -2.3617
  273MOL0     H36834  10.656   6.846  11.113 -0.9812 -0.1858 -2.3889
  273MOL0     H36835  10.727   6.599  11.160 -1.5664  0.8626 -0.2989
  273MOL0     H36836  10.588   6.578  11.243  1.3140 -0.8921  0.1267
  273MOL0     H36837   9.809   7.033  10.619  0.6420  1.8109  2.3088
  273MOL0     H36838   9.577   7.081  10.652 -3.2896 -1.4926 -0.1967
  273MOL0     H36839   9.172   7.295  10.904 -4.2397  1.7053  1.5672
  273MOL0     H36840   8.947   7.271  10.941 -0.2058 -0.4047  0.8117
  273MOL0     H36841   7.544   6.668  11.724 -0.2092 -1.8645  2.9655
  273MOL0     H36842   7.379   6.819  11.729 -2.5475 -0.7636  2.0023
  273MOL0     H36843   7.110   7.124  11.304 -0.3497  1.0886 -0.9428
  273MOL0     H36844   6.916   7.267  11.282 -0.0740  1.1373  2.9402
  273MOL0     H36845   6.545   7.100  11.446 -0.6585 -1.1714  2.3226
  273MOL0     H36846   6.563   7.230  11.556  0.5861  1.5299 -0.0150
  273MOL0     H36847   6.518   7.360  11.293  0.4688 -0.3257  0.0870
  273MOL0     H36848   6.428   7.374  11.437 -3.3306 -1.5478 -0.2420
  273MOL0     H36849   6.265   7.287  11.282  1.6253  2.7742  0.4792
  273MOL0     H36850   6.292   7.178  11.413  0.2172  2.2524  0.6624
  273MOL0     H36851   6.462   7.071  11.232 -0.2422 -0.4525  4.1350
  273MOL0     H36852   6.362   7.179  11.118 -0.1228 -2.7852 -2.1896
  273MOL0     H36853   6.054   6.912  11.216 -1.9888  1.5724 -1.1905
  273MOL0     H36854   6.703   7.060  11.596 -0.0433  1.0621 -0.3778
  273MOL0     H36855   6.925   6.921  11.629  1.7182 -0.3804 -0.5607
  274MOL0     O36856   0.032  10.721   6.966  0.4202  0.7285  0.7301
  274MOL0     C36857  -0.076  10.659   6.963 -0.3166  0.3027  0.4819
  274MOL0     O36858  -0.097  10.549   6.880  0.2607  0.8527 -0.6300
  274MOL0     C36859   0.010  10.497   6.821 -1.0416  0.8535 -0.0953
  274MOL0     C36860   0.143  10.500   6.865  0.3144  0.0691  0.2743
  274MOL0     C36861   0.247  10.447   6.787 -0.0781  0.2354 -0.8294
  274MOL0     C36862   0.223  10.391   6.660  1.7135  0.9994 -0.1584
  274MOL0     O36863   0.331  10.331   6.600 -0.6326 -0.8870  0.5929
  274MOL0     C36864   0.318  10.247   6.479  0.4911  0.9435 -1.1496
  274MOL0     C36865   0.447  10.180   6.437 -0.1463  0.0418  0.2085
  274MOL0     C36866   0.557  10.285   6.391  0.8733  0.2657  0.0538
  274MOL0     C36867   0.678  10.214   6.346  0.0092 -0.1457  0.0843
  274MOL0     C36868   0.802  10.302   6.317  0.0343 -0.4659  0.4069
  274MOL0     C36869   0.928  10.216   6.294  0.6624 -0.3227 -0.5490
  274MOL0     C36870   1.041  10.317   6.263 -0.2317 -0.2795 -0.2370
  274MOL0     C36871   1.167  10.239   6.260 -0.9851  0.3217 -0.5271
  274MOL0     N36872   1.278  10.310   6.192  0.7781 -0.7820  0.6075
  274MOL0     C36873   1.338  10.431   6.224  1.0767  0.4574 -0.1053
  274MOL0     C36874   1.424  10.465   6.125 -0.1327  0.5942  0.0493
  274MOL0     C36875   1.527  10.566   6.127  0.3927  0.3881 -0.7493
  274MOL0     C36876   1.597  10.602   5.998 -1.1145 -0.1188  0.4495
  274MOL0     C36877   1.699  10.724   6.007  1.2345 -0.3739  1.0157
  274MOL0     C36878   1.623  10.857   6.013  0.3820 -0.3329 -0.1774
  274MOL0     O36879   1.707  10.959   6.061  0.1805 -0.1941  0.4041
  274MOL0     C36880   1.644  11.072   6.111  0.1005  0.3658 -0.3873
  274MOL0     C36881   1.511  11.115   6.083 -0.2509  0.7967 -0.1721
  274MOL0     C36882   1.466  11.228   6.141 -0.6151 -0.8451  0.3956
  274MOL0     C36883   1.307  11.261   6.128  1.2038  0.5579 -0.0222
  274MOL0     C36884   1.548  11.315   6.215 -0.6236  0.2355  0.4732
  274MOL0     C36885   1.499  11.431   6.288 -0.2582 -0.2229  0.4098
  274MOL0     O36886   1.487  11.426   6.421 -0.0174 -0.7940 -0.1368
  274MOL0     C36887   1.496  11.538   6.502  0.4515 -0.1564 -0.1440
  274MOL0     C36888   1.423  11.547   6.624 -0.1437 -0.8716  0.0774
  274MOL0     C36889   1.448  11.658   6.714  0.3498 -0.0553  0.1444
  274MOL0     C36890   1.514  11.768   6.677 -0.2481  0.0846  0.0221
  274MOL0     O36891   1.530  11.866   6.771  1.0446 -0.5717  0.1733
  274MOL0     C36892   1.467  11.988   6.737  0.7766 -0.0135 -0.2120
  274MOL0     C36893   1.542  12.116   6.789 -0.5365  0.1071  0.0211
  274MOL0     C36894   1.469  12.243   6.737 -1.2532 -0.0695 -0.3595
  274MOL0     C36895   1.515  12.372   6.797  0.3804  0.4067  0.7478
  274MOL0     C36896   1.424  12.490   6.771 -0.1338 -0.4660 -0.0859
  274MOL0     C36897   1.451  12.571   6.638 -0.0552 -0.6858 -0.1321
  274MOL0     C36898   1.362  12.695   6.647 -0.0151 -0.0646 -0.0610
  274MOL0     C36899   1.331  12.750   6.510  0.3936  0.7472 -1.5485
  274MOL0    Cl36900   1.222  12.878   6.510 -0.1863 -0.2580 -0.1125
  274MOL0     C36901   1.590  11.756   6.565 -0.3185 -0.7059 -0.6698
  274MOL0     C36902   1.579  11.652   6.475 -0.0935 -0.9420 -0.2347
  274MOL0     O36903   1.501  11.538   6.223  0.0031  0.5678 -0.2985
  274MOL0     C36904   1.686  11.273   6.235 -0.1324  0.1489  0.0455
  274MOL0     C36905   1.725  11.150   6.189  0.0051 -0.2229  0.1353
  274MOL0     N36906   1.414  10.365   6.026 -0.1810 -0.0072 -0.4991
  274MOL0     N36907   1.334  10.277   6.072 -0.2627 -0.2544 -0.2487
  274MOL0     C36908   0.091  10.390   6.614 -0.6858  0.0223  0.3450
  274MOL0     C36909  -0.011  10.431   6.699  0.6773  0.9096 -1.1752
  274MOL0     C36910  -0.195  10.692   7.039 -0.2063  0.0249  0.0866
  274MOL0     C36911  -0.186  10.790   7.140 -1.0532  0.4943  0.4296
  274MOL0     C36912  -0.295  10.817   7.217 -0.4674  0.6444 -0.9701
  274MOL0     C36913  -0.409  10.740   7.209  0.7912  0.3809  0.4897
  274MOL0     O36914  -0.507  10.777   7.302  0.2565  0.3439 -0.2954
  274MOL0     C36915  -0.636  10.704   7.293 -0.8486 -0.7396 -0.0964
  274MOL0     C36916  -0.734  10.743   7.173 -0.4794  0.3186  0.7489
  274MOL0     C36917  -0.799  10.884   7.183  0.2547  0.1873 -0.7027
  274MOL0     C36918  -0.909  10.895   7.289  0.0468 -0.2297  0.0512
  274MOL0     C36919  -1.022  10.985   7.256 -0.9374 -0.3348  0.4134
  274MOL0     C36920  -1.126  11.040   7.227  0.6793  0.8243 -1.1665
  274MOL0     C36921  -0.420  10.636   7.109  0.3416 -0.2510  0.0920
  274MOL0     C36922  -0.314  10.616   7.026 -0.5097 -0.2227  0.5899
  274MOL0     H36923   0.163  10.534   6.966 -1.3213  0.8423  0.3720
  274MOL0     H36924   0.343  10.438   6.836 -1.4279 -0.5802  1.8659
  274MOL0     H36925   0.242  10.171   6.501  0.3707  1.7291  1.3725
  274MOL0     H36926   0.271  10.300   6.395  0.9810  1.2578 -1.2238
  274MOL0     H36927   0.489  10.126   6.522  0.2453 -0.3970 -0.2557
  274MOL0     H36928   0.433  10.102   6.361 -0.6075 -1.3497  1.6656
  274MOL0     H36929   0.520  10.342   6.306 -1.5814 -3.2776 -1.5010
  274MOL0     H36930   0.584  10.347   6.477  0.1410  1.9668 -0.9125
  274MOL0     H36931   0.715  10.158   6.433  0.7419  0.9145  0.4741
  274MOL0     H36932   0.657  10.152   6.258  0.2090  0.0359 -0.0928
  274MOL0     H36933   0.804  10.364   6.227  4.0968 -0.4136  0.3684
  274MOL0     H36934   0.809  10.365   6.406 -0.1746 -0.3408  0.3363
  274MOL0     H36935   0.947  10.173   6.393  0.8944  0.0868 -0.4166
  274MOL0     H36936   0.909  10.136   6.221  1.2848 -0.5952 -0.4213
  274MOL0     H36937   1.010  10.359   6.167  0.6514 -0.0133 -0.4174
  274MOL0     H36938   1.046  10.401   6.334 -0.0129  0.4893 -1.1440
  274MOL0     H36939   1.132  10.150   6.206 -1.4370  0.3581 -0.3020
  274MOL0     H36940   1.194  10.210   6.362  0.4420  2.8001 -0.1390
  274MOL0     H36941   1.326  10.498   6.308  1.6625 -0.3358  0.6230
  274MOL0     H36942   1.477  10.652   6.173  2.8071  1.1209  0.6323
  274MOL0     H36943   1.605  10.539   6.198 -1.9749  0.7950  2.2099
  274MOL0     H36944   1.521  10.623   5.923  0.6531  4.3386 -0.4275
  274MOL0     H36945   1.651  10.516   5.956 -1.3290  0.0127 -0.1061
  274MOL0     H36946   1.760  10.728   5.917 -1.5414  3.3210 -1.0019
  274MOL0     H36947   1.757  10.712   6.099  1.7152 -0.9422  0.6467
  274MOL0     H36948   1.542  10.856   6.087  0.6254  0.7732  0.1240
  274MOL0     H36949   1.584  10.889   5.915 -0.3517 -1.8940 -0.4231
  274MOL0     H36950   1.437  11.062   6.024  1.2319 -3.4025  1.3681
  274MOL0     H36951   1.295  11.316   6.034  3.9310  1.1503 -0.1240
  274MOL0     H36952   1.248  11.169   6.120 -3.9440  3.4852 -0.3319
  274MOL0     H36953   1.272  11.315   6.216 -1.7043  1.3260 -1.5106
  274MOL0     H36954   1.354  11.466   6.649 -2.8111  1.4719  0.8528
  274MOL0     H36955   1.404  11.669   6.812  0.5312 -0.1633  0.2396
  274MOL0     H36956   1.454  11.991   6.629  1.6321  0.4441 -0.3091
  274MOL0     H36957   1.365  11.982   6.775 -0.1195  2.6719 -1.8811
  274MOL0     H36958   1.537  12.112   6.898 -2.4015  2.2195  0.1013
  274MOL0     H36959   1.645  12.114   6.751 -0.4286  1.1035  0.2412
  274MOL0     H36960   1.364  12.235   6.770 -0.5618 -2.6749  1.5990
  274MOL0     H36961   1.470  12.257   6.629  3.4945  0.0106 -0.4873
  274MOL0     H36962   1.529  12.352   6.904  1.2916 -2.9515  0.1121
  274MOL0     H36963   1.610  12.411   6.758 -1.4376  4.5827 -0.0228
  274MOL0     H36964   1.438  12.566   6.849 -1.7789  1.0677 -1.2309
  274MOL0     H36965   1.318  12.468   6.781  0.3395 -2.9695  0.2414
  274MOL0     H36966   1.555  12.602   6.626 -0.5135  0.6524 -0.8269
  274MOL0     H36967   1.425  12.511   6.550  2.0260 -1.4190 -0.2976
  274MOL0     H36968   1.405  12.781   6.699 -3.2992 -0.2144  3.3362
  274MOL0     H36969   1.266  12.668   6.693  0.0412  3.8126  2.8717
  274MOL0     H36970   1.283  12.671   6.451 -0.0051  0.6853 -1.1413
  274MOL0     H36971   1.425  12.770   6.458  1.9870 -3.2669 -0.6295
  274MOL0     H36972   1.658  11.836   6.538  0.7084 -1.6938 -1.0797
  274MOL0     H36973   1.637  11.653   6.383  1.6655 -0.7304  0.8168
  274MOL0     H36974   1.752  11.324   6.304  1.3275 -0.5068 -0.8053
  274MOL0     H36975   1.829  11.129   6.211  0.8384  2.7897 -0.4397
  274MOL0     H36976   0.065  10.345   6.519 -1.2476  1.4486 -0.2005
  274MOL0     H36977  -0.115  10.427   6.666 -0.4094  0.7985  1.9641
  274MOL0     H36978  -0.094  10.839   7.168 -1.1478 -0.2635  2.2153
  274MOL0     H36979  -0.285  10.891   7.296 -0.3361  1.0578 -1.3701
  274MOL0     H36980  -0.619  10.596   7.298 -0.0333 -0.6883 -1.3891
  274MOL0     H36981  -0.688  10.730   7.386  0.1381  0.9673  0.0193
  274MOL0     H36982  -0.820  10.676   7.179  0.1249 -0.6664 -0.7580
  274MOL0     H36983  -0.676  10.726   7.082 -0.8474  1.2988  0.3130
  274MOL0     H36984  -0.848  10.899   7.086 -3.3340 -2.8779  0.3842
  274MOL0     H36985  -0.721  10.958   7.202  1.7631 -1.6126  0.5758
  274MOL0     H36986  -0.856  10.928   7.379  0.4375  0.2685 -0.3609
  274MOL0     H36987  -0.952  10.797   7.310  0.9165 -0.8832 -1.1055
  274MOL0     H36988  -1.217  11.091   7.204  0.3294 -0.3179 -2.4992
  274MOL0     H36989  -0.509  10.578   7.087  0.6770  0.0694 -2.4860
  274MOL0     H36990  -0.329  10.539   6.951 -2.6958 -0.4095  1.1272
  275MOL0     O36991   4.974   9.127   5.322 -0.5294  0.6837 -0.2235
  275MOL0     C36992   5.044   9.150   5.419  0.5816 -0.1931 -1.7311
  275MOL0     O36993   5.008   9.102   5.551  0.6129  0.7010 -0.6041
  275MOL0     C36994   4.878   9.059   5.577  0.6285 -0.0112  0.5524
  275MOL0     C36995   4.858   8.937   5.648  0.7090  0.3263  0.0657
  275MOL0     C36996   4.732   8.898   5.702  0.9827 -0.0979 -1.1658
  275MOL0     C36997   4.617   8.978   5.671 -0.1485  0.0568 -0.5444
  275MOL0     O36998   4.490   8.938   5.708 -1.0152  0.0450 -0.2277
  275MOL0     C36999   4.382   8.961   5.623  0.3987  0.4914  1.1167
  275MOL0     C37000   4.264   8.867   5.681  0.2278  0.5444  0.3538
  275MOL0     C37001   4.129   8.929   5.663 -0.8656  0.4409  0.1326
  275MOL0     C37002   4.018   8.849   5.729  0.9057 -0.5096 -0.9481
  275MOL0     C37003   3.881   8.900   5.690 -0.6631 -0.2099  0.6298
  275MOL0     C37004   3.782   8.804   5.723 -0.0233 -0.4474 -0.0591
  275MOL0     C37005   3.650   8.829   5.643  0.3415 -0.7528 -0.2105
  275MOL0     C37006   3.537   8.727   5.661  0.1939 -0.0745  1.0130
  275MOL0     N37007   3.476   8.729   5.790  0.2193 -0.5733  0.3068
  275MOL0     C37008   3.371   8.813   5.817 -1.1898  0.6558 -0.1935
  275MOL0     C37009   3.318   8.769   5.926 -0.6187  0.2015 -0.4702
  275MOL0     C37010   3.207   8.821   6.003 -0.6020  0.5903 -0.3163
  275MOL0     C37011   3.263   8.928   6.110  0.4832  0.8599  0.3079
  275MOL0     C37012   3.337   8.850   6.211  0.4388  0.1415  0.4145
  275MOL0     C37013   3.340   8.916   6.338 -0.0451  0.9851  0.1265
  275MOL0     O37014   3.411   9.042   6.354  0.2503  0.1721 -0.2967
  275MOL0     C37015   3.381   9.129   6.456 -0.2989  0.1978  0.0520
  275MOL0     C37016   3.454   9.254   6.461 -0.2486 -0.4770  0.4394
  275MOL0     C37017   3.429   9.351   6.557 -0.5543 -0.5756  0.8225
  275MOL0     C37018   3.476   9.494   6.538 -1.0137 -0.5519 -0.3902
  275MOL0     C37019   3.356   9.313   6.677 -0.2475 -0.7081  0.1198
  275MOL0     C37020   3.340   9.390   6.802  0.2906  0.3678 -0.1740
  275MOL0     O37021   3.240   9.349   6.887 -0.6590  0.0581  0.2608
  275MOL0     C37022   3.157   9.445   6.943 -0.6735 -0.3393  0.9005
  275MOL0     C37023   3.153   9.578   6.900 -1.1637  0.2177 -0.5672
  275MOL0     C37024   3.059   9.664   6.953 -0.0794  0.1655 -0.2472
  275MOL0     C37025   2.975   9.626   7.055  0.6668  0.0079 -0.1044
  275MOL0     O37026   2.906   9.734   7.111  1.1032 -0.5281 -0.1396
  275MOL0     C37027   2.802   9.701   7.205  0.2838  0.4836  0.1308
  275MOL0     C37028   2.709   9.819   7.234 -0.9621  1.1479  0.7506
  275MOL0     C37029   2.757   9.913   7.345 -0.8181  0.3799  0.0048
  275MOL0     C37030   2.662  10.017   7.372  1.2708  0.0112  0.2786
  275MOL0     C37031   2.672  10.076   7.509  0.0761 -0.1683 -0.2891
  275MOL0     C37032   2.812  10.097   7.575 -0.1236  0.3857 -0.6102
  275MOL0     C37033   2.797  10.157   7.711 -0.2296 -0.0991  0.6238
  275MOL0     C37034   2.902  10.257   7.749 -1.1294 -0.2742 -0.2756
  275MOL0    Cl37035   3.069  10.192   7.703 -0.8014  0.3870  0.3356
  275MOL0     C37036   2.987   9.490   7.104  0.2457 -0.1141 -0.3865
  275MOL0     C37037   3.079   9.400   7.049 -0.0829 -0.5983  1.0043
  275MOL0     O37038   3.435   9.457   6.833 -0.3589 -0.5954 -0.0768
  275MOL0     C37039   3.290   9.191   6.669 -0.0447 -0.3673 -0.0255
  275MOL0     C37040   3.303   9.105   6.563  0.6925  0.0991 -1.1642
  275MOL0     N37041   3.394   8.663   5.976 -0.5432 -0.0103  0.2451
  275MOL0     N37042   3.492   8.640   5.892 -0.6984  0.1436  0.2221
  275MOL0     C37043   4.630   9.084   5.586  0.5113 -0.4817  0.7227
  275MOL0     C37044   4.757   9.128   5.532 -0.9497 -0.1013  0.5534
  275MOL0     C37045   5.156   9.242   5.390  0.0066 -0.6086  0.0297
  275MOL0     C37046   5.174   9.303   5.264  0.6548  0.6296  0.0509
  275MOL0     C37047   5.281   9.397   5.244  0.8250 -0.4775  0.5018
  275MOL0     C37048   5.379   9.422   5.345  0.1797 -0.1638 -0.0435
  275MOL0     O37049   5.485   9.497   5.320 -0.3418 -0.5900 -0.4595
  275MOL0     C37050   5.611   9.437   5.344 -0.0671  0.2111  0.0590
  275MOL0     C37051   5.679   9.514   5.450 -0.7647 -0.5778  0.7309
  275MOL0     C37052   5.814   9.441   5.480  0.4968 -0.0738  0.2956
  275MOL0     C37053   5.899   9.530   5.558 -0.4300  0.4104 -0.2947
  275MOL0     C37054   6.031   9.472   5.562 -0.0779  0.6627 -0.5317
  275MOL0     C37055   6.146   9.424   5.575 -1.2932  0.1594 -0.7560
  275MOL0     C37056   5.347   9.365   5.478 -0.0617 -0.2180  0.8336
  275MOL0     C37057   5.240   9.282   5.496  0.0013  0.2475 -0.2520
  275MOL0     H37058   4.944   8.874   5.667 -2.1836 -3.7379  1.2704
  275MOL0     H37059   4.722   8.816   5.772  0.9183  0.5074 -0.4546
  275MOL0     H37060   4.344   9.064   5.614  0.3168  0.3512 -0.4564
  275MOL0     H37061   4.405   8.921   5.524 -1.8325  0.4191  0.5707
  275MOL0     H37062   4.278   8.778   5.619  1.4663  1.1213 -0.2171
  275MOL0     H37063   4.273   8.842   5.787  2.3405  2.6337  0.7645
  275MOL0     H37064   4.129   9.029   5.708 -0.7585  0.6412 -0.3080
  275MOL0     H37065   4.118   8.952   5.557  0.9028  1.2839  0.0962
  275MOL0     H37066   4.028   8.746   5.693  0.9944 -0.8795  0.1070
  275MOL0     H37067   4.028   8.843   5.838  3.0522 -4.5538 -1.1429
  275MOL0     H37068   3.863   8.993   5.746 -1.0444 -1.3422  2.4784
  275MOL0     H37069   3.880   8.919   5.583  0.4230  0.8467  0.7867
  275MOL0     H37070   3.814   8.703   5.695 -0.8837 -1.4575  2.3070
  275MOL0     H37071   3.754   8.809   5.829 -2.1243  0.1683 -0.5903
  275MOL0     H37072   3.609   8.925   5.676  0.0178 -1.0424  0.2400
  275MOL0     H37073   3.661   8.839   5.534 -2.6298 -1.3323 -0.6349
  275MOL0     H37074   3.574   8.626   5.639  0.2783  0.4725 -1.7123
  275MOL0     H37075   3.466   8.747   5.580  2.5246 -2.3233 -1.8524
  275MOL0     H37076   3.329   8.884   5.747  1.4019  0.8280 -1.6920
  275MOL0     H37077   3.149   8.871   5.925 -0.6832  2.0684  0.6400
  275MOL0     H37078   3.144   8.749   6.056 -3.1036  2.7339 -0.1162
  275MOL0     H37079   3.177   8.969   6.164  2.3124  0.7891  3.5450
  275MOL0     H37080   3.330   9.003   6.068  1.0397  1.6717  2.5360
  275MOL0     H37081   3.438   8.825   6.176 -0.4248 -2.9003 -0.1448
  275MOL0     H37082   3.290   8.752   6.224 -1.2540  0.8588 -0.0567
  275MOL0     H37083   3.382   8.846   6.411  2.7132  0.4927 -1.7664
  275MOL0     H37084   3.237   8.931   6.369 -0.0035  2.7207 -0.4734
  275MOL0     H37085   3.510   9.285   6.373 -0.8208 -0.3661  0.1074
  275MOL0     H37086   3.557   9.524   6.606 -2.2885  1.1243  0.4647
  275MOL0     H37087   3.518   9.497   6.437 -0.3081 -0.4078 -0.0967
  275MOL0     H37088   3.396   9.567   6.550 -0.4475 -0.3722  3.9487
  275MOL0     H37089   3.221   9.613   6.824 -0.0075  0.7189  0.6648
  275MOL0     H37090   3.042   9.767   6.923 -0.6758  0.1650  0.0817
  275MOL0     H37091   2.738   9.619   7.169 -0.5479  2.7470 -4.1624
  275MOL0     H37092   2.863   9.683   7.294  1.7221  1.8138 -0.5554
  275MOL0     H37093   2.669   9.861   7.141  1.9735  0.3213 -0.9841
  275MOL0     H37094   2.624   9.768   7.281 -1.4160  0.8032 -0.3927
  275MOL0     H37095   2.852   9.953   7.309 -0.0459 -0.7560  0.7188
  275MOL0     H37096   2.778   9.856   7.436 -2.7145 -0.4239 -0.0085
  275MOL0     H37097   2.680  10.095   7.298  3.7899 -0.8852 -0.1507
  275MOL0     H37098   2.558   9.986   7.363  0.0759  3.2405  1.4559
  275MOL0     H37099   2.610  10.010   7.571  0.9628  1.9679  3.1472
  275MOL0     H37100   2.630  10.177   7.506  2.5986  0.9209 -0.6996
  275MOL0     H37101   2.870  10.005   7.570 -1.1282 -0.2232 -4.4674
  275MOL0     H37102   2.875  10.168   7.520  1.3828  0.1654  0.7772
  275MOL0     H37103   2.782  10.078   7.785 -0.3372  0.8877  1.6706
  275MOL0     H37104   2.713  10.227   7.722 -0.9457 -1.3333  6.7315
  275MOL0     H37105   2.891  10.283   7.855  2.7230  1.6622 -0.1705
  275MOL0     H37106   2.897  10.349   7.690  1.0677 -0.1796 -0.3744
  275MOL0     H37107   2.922   9.456   7.183 -0.8980 -2.5794 -2.2553
  275MOL0     H37108   3.089   9.296   7.078  3.0658 -0.8255 -0.5126
  275MOL0     H37109   3.226   9.150   6.747  3.1509 -2.3744  1.7693
  275MOL0     H37110   3.249   9.011   6.570 -0.5688  0.8180 -0.9746
  275MOL0     H37111   4.539   9.128   5.547  1.3016 -0.5420 -1.2993
  275MOL0     H37112   4.767   9.216   5.468  0.9467 -0.0223  0.9040
  275MOL0     H37113   5.097   9.291   5.189  1.1939  3.1424 -1.0118
  275MOL0     H37114   5.307   9.451   5.153 -0.6100 -1.1358 -0.3313
  275MOL0     H37115   5.597   9.332   5.373 -1.0479  1.0027  2.6797
  275MOL0     H37116   5.664   9.431   5.249 -1.3290 -1.2540 -0.5982
  275MOL0     H37117   5.621   9.509   5.542 -2.9263 -3.3350 -0.6396
  275MOL0     H37118   5.699   9.614   5.411  0.2311 -1.2240 -0.5196
  275MOL0     H37119   5.865   9.411   5.387  0.2677  3.1411 -0.9875
  275MOL0     H37120   5.796   9.351   5.539  0.3707  1.1001  2.1123
  275MOL0     H37121   5.850   9.544   5.655  0.6749 -0.2386  0.3736
  275MOL0     H37122   5.902   9.632   5.518  4.8031 -0.5701 -3.2194
  275MOL0     H37123   6.240   9.377   5.595 -1.2347  0.2979 -0.7012
  275MOL0     H37124   5.425   9.379   5.552  0.1925  1.2967  0.3086
  275MOL0     H37125   5.252   9.235   5.593  0.2626 -2.2400 -1.4161
  276MOL0     O37126   7.170   5.210   3.608  0.1315  0.4829 -0.1884
  276MOL0     C37127   7.214   5.221   3.727  0.7548 -0.1913  0.8115
  276MOL0     O37128   7.264   5.120   3.798 -0.4352  1.0607  0.2918
  276MOL0     C37129   7.251   4.989   3.744  0.2694  1.3637 -0.1595
  276MOL0     C37130   7.123   4.928   3.713 -0.3029 -0.7325 -0.2981
  276MOL0     C37131   7.118   4.792   3.673 -0.8876 -0.3730 -0.1071
  276MOL0     C37132   7.237   4.717   3.674 -0.1431 -0.1062 -0.4141
  276MOL0     O37133   7.243   4.587   3.624 -0.9061  0.4539  0.2505
  276MOL0     C37134   7.172   4.558   3.502  0.4201 -0.0785  0.7473
  276MOL0     C37135   7.241   4.438   3.438 -1.0359  0.1079  0.1603
  276MOL0     C37136   7.385   4.456   3.406 -0.1613 -0.1392  0.4013
  276MOL0     C37137   7.435   4.335   3.341 -0.3816  0.6330  0.5013
  276MOL0     C37138   7.586   4.340   3.324 -0.1418  0.1620  0.5053
  276MOL0     C37139   7.633   4.329   3.179  0.7120 -0.5819 -0.1341
  276MOL0     C37140   7.783   4.326   3.159  0.3407 -0.1953 -0.3667
  276MOL0     C37141   7.820   4.323   3.014 -0.1049  0.3183  0.6036
  276MOL0     N37142   7.965   4.340   2.983  0.2095 -0.0861  0.0772
  276MOL0     C37143   8.058   4.239   2.971  0.2316 -0.3025  0.2886
  276MOL0     C37144   8.173   4.305   2.944 -0.1468  0.0370 -0.5060
  276MOL0     C37145   8.300   4.245   2.903 -0.8436  0.3663  0.1877
  276MOL0     C37146   8.331   4.114   2.973 -0.5825 -0.1716  0.9592
  276MOL0     C37147   8.440   4.046   2.884 -0.0762  0.0436 -0.5532
  276MOL0     C37148   8.571   4.104   2.932 -0.8978  0.6302  0.2009
  276MOL0     O37149   8.672   4.020   2.866  0.1320 -0.4776 -0.6274
  276MOL0     C37150   8.809   4.044   2.885  0.2720  0.1658  0.1142
  276MOL0     C37151   8.894   3.936   2.908  0.0006 -0.5915 -0.4091
  276MOL0     C37152   9.035   3.942   2.922 -0.0211 -0.0336 -0.1215
  276MOL0     C37153   9.099   3.811   2.943  0.3616  0.0886 -0.0151
  276MOL0     C37154   9.100   4.061   2.904 -0.8764  0.2562 -0.2557
  276MOL0     C37155   9.248   4.078   2.906 -0.3925 -0.9286  0.4224
  276MOL0     O37156   9.290   4.199   2.875  0.7026 -0.2610  0.2470
  276MOL0     C37157   9.421   4.233   2.910 -0.0587  0.4887 -0.4117
  276MOL0     C37158   9.515   4.196   2.823  0.4603  0.8335  0.1257
  276MOL0     C37159   9.645   4.251   2.835 -0.3526 -0.4791 -0.2284
  276MOL0     C37160   9.677   4.337   2.938 -0.5836  0.2670 -0.8841
  276MOL0     O37161   9.816   4.369   2.956 -0.3559 -0.6114 -0.4828
  276MOL0     C37162   9.851   4.470   3.047 -0.1638  0.7082 -0.0728
  276MOL0     C37163   9.989   4.538   3.010 -0.1408 -0.0846  0.2985
  276MOL0     C37164  10.058   4.634   3.118  0.2807  0.2524  0.1115
  276MOL0     C37165  10.215   4.619   3.106 -0.4899  0.2555 -1.2236
  276MOL0     C37166  10.267   4.660   2.970 -0.1923 -0.6953  0.7562
  276MOL0     C37167  10.398   4.590   2.920  0.0982  1.1026 -1.0552
  276MOL0     C37168  10.517   4.605   3.014 -0.0050 -0.0246  0.3563
  276MOL0     C37169  10.649   4.561   2.947 -0.0343  0.3836 -1.2400
  276MOL0    Cl37170  10.698   4.670   2.815  0.2032  0.1055 -0.3072
  276MOL0     C37171   9.574   4.381   3.026 -0.2841  0.0387  0.0895
  276MOL0     C37172   9.443   4.322   3.012 -0.3168 -0.0765  0.7062
  276MOL0     O37173   9.321   3.983   2.931 -0.2183  0.5113 -0.2855
  276MOL0     C37174   9.018   4.174   2.881  0.3739  0.2840  0.1126
  276MOL0     C37175   8.878   4.164   2.878 -0.3319 -0.3998 -0.7779
  276MOL0     N37176   8.151   4.444   2.947  1.0698 -0.4708 -0.1076
  276MOL0     N37177   8.030   4.460   2.986 -0.4096  0.3054  0.2821
  276MOL0     C37178   7.352   4.772   3.711  0.5420  0.8310  0.6248
  276MOL0     C37179   7.361   4.905   3.741 -0.0334 -0.3895 -0.5410
  276MOL0     C37180   7.196   5.358   3.783 -0.1436  0.2116 -0.5744
  276MOL0     C37181   7.206   5.364   3.925 -0.0155 -0.0185 -0.2994
  276MOL0     C37182   7.198   5.487   3.989  0.6863 -0.1004 -0.1288
  276MOL0     C37183   7.151   5.604   3.918 -0.4505  0.5682  0.3664
  276MOL0     O37184   7.109   5.714   3.998  0.0497  0.0182  0.0610
  276MOL0     C37185   7.041   5.819   3.938 -0.4784 -1.1874  0.1129
  276MOL0     C37186   7.139   5.923   3.881  0.9609  0.5816  0.4313
  276MOL0     C37187   7.214   6.003   3.987  0.8038  0.2416  1.0634
  276MOL0     C37188   7.305   6.114   3.921  0.1949  0.1421 -0.4005
  276MOL0     C37189   7.415   6.155   3.998  0.1714 -0.5393  0.0825
  276MOL0     C37190   7.498   6.197   4.069 -0.4646 -0.0292 -0.5500
  276MOL0     C37191   7.142   5.592   3.777  0.4632 -0.0535 -0.2483
  276MOL0     C37192   7.171   5.474   3.705  0.2315 -0.8149 -0.6055
  276MOL0     H37193   7.029   4.983   3.716  0.4905  0.7215  3.6434
  276MOL0     H37194   7.024   4.749   3.642 -2.0760  2.7912 -1.3299
  276MOL0     H37195   7.069   4.536   3.533 -1.3913  3.8887 -1.6375
  276MOL0     H37196   7.172   4.643   3.433 -0.7847  0.5819  1.5186
  276MOL0     H37197   7.246   4.353   3.507 -0.5395 -0.6987 -0.8433
  276MOL0     H37198   7.195   4.402   3.345  1.9745 -2.1552 -0.6205
  276MOL0     H37199   7.405   4.539   3.338  0.3494 -1.2230 -0.8158
  276MOL0     H37200   7.446   4.480   3.494 -1.1516  0.0358  1.0611
  276MOL0     H37201   7.414   4.248   3.404 -0.0526  0.7763  0.8119
  276MOL0     H37202   7.392   4.337   3.240  0.5303  2.5236  0.0963
  276MOL0     H37203   7.611   4.440   3.360  0.8893  0.0554  0.1176
  276MOL0     H37204   7.642   4.267   3.383 -2.2112  0.8672  3.6028
  276MOL0     H37205   7.585   4.241   3.137  0.3961 -1.6305  2.2365
  276MOL0     H37206   7.621   4.425   3.128  5.4956 -0.0197 -0.6503
  276MOL0     H37207   7.817   4.419   3.204 -2.0108  0.8100 -0.5138
  276MOL0     H37208   7.815   4.243   3.223  0.9519  2.2849  2.7806
  276MOL0     H37209   7.762   4.395   2.955 -1.5194 -0.5458  0.9059
  276MOL0     H37210   7.787   4.227   2.973  0.5702 -0.1824  1.2139
  276MOL0     H37211   8.030   4.135   2.979  0.3803 -0.4182 -0.5498
  276MOL0     H37212   8.290   4.235   2.795  2.2925 -1.8936 -0.0148
  276MOL0     H37213   8.379   4.321   2.908  0.5825 -0.9330 -1.2714
  276MOL0     H37214   8.240   4.059   2.998 -2.5666  0.9767 -2.9184
  276MOL0     H37215   8.379   4.131   3.070  0.6488 -0.2253  0.3807
  276MOL0     H37216   8.419   4.062   2.778  2.0515 -0.2556 -1.0664
  276MOL0     H37217   8.439   3.937   2.896 -1.1240  0.1107  0.1197
  276MOL0     H37218   8.576   4.082   3.039 -0.2552 -2.4793 -0.3681
  276MOL0     H37219   8.593   4.210   2.920  1.9623 -0.0793 -2.1381
  276MOL0     H37220   8.839   3.844   2.922 -1.3410  0.3661  0.8916
  276MOL0     H37221   9.118   3.788   3.049  0.3540 -0.6344 -0.1649
  276MOL0     H37222   9.035   3.738   2.893  2.2256 -1.7413  0.1657
  276MOL0     H37223   9.194   3.801   2.890  0.1262 -1.0569 -0.2483
  276MOL0     H37224   9.485   4.134   2.739 -0.4957  1.7737 -0.2443
  276MOL0     H37225   9.721   4.211   2.769  0.6605 -0.6740  1.0096
  276MOL0     H37226   9.770   4.543   3.053 -1.6230 -0.7425 -1.1591
  276MOL0     H37227   9.859   4.425   3.147 -0.2030  3.3207  1.1867
  276MOL0     H37228  10.057   4.462   2.972  1.7765  0.7241  1.9425
  276MOL0     H37229   9.963   4.603   2.925  2.8670  1.7214  0.6110
  276MOL0     H37230  10.032   4.602   3.219  1.9469 -0.6511  0.3012
  276MOL0     H37231  10.032   4.737   3.093  0.4912 -0.0465 -1.4589
  276MOL0     H37232  10.257   4.678   3.188 -0.3545 -2.9374  1.2104
  276MOL0     H37233  10.249   4.518   3.128  4.5790  1.3407 -2.8140
  276MOL0     H37234  10.290   4.767   2.970  1.6926 -1.0629  1.0132
  276MOL0     H37235  10.192   4.650   2.891  0.6628  1.0478 -0.3220
  276MOL0     H37236  10.390   4.484   2.895  3.9615  0.6933 -1.1326
  276MOL0     H37237  10.421   4.625   2.819 -0.4610 -2.2503 -2.4771
  276MOL0     H37238  10.503   4.541   3.101  0.3169  0.9179  1.1090
  276MOL0     H37239  10.536   4.707   3.047 -2.7474  1.6193 -2.5739
  276MOL0     H37240  10.648   4.459   2.908  1.8977  0.0127 -0.4068
  276MOL0     H37241  10.719   4.576   3.030 -1.0427  1.6162 -0.5595
  276MOL0     H37242   9.570   4.455   3.106  0.7694  1.0889 -0.8082
  276MOL0     H37243   9.359   4.351   3.074  0.3844 -0.0696  1.6766
  276MOL0     H37244   9.063   4.272   2.864  0.0251  0.9089  2.4543
  276MOL0     H37245   8.830   4.256   2.847  0.5009 -0.3116 -1.8611
  276MOL0     H37246   7.427   4.697   3.736 -0.9403 -1.2648 -0.8324
  276MOL0     H37247   7.445   4.943   3.797 -1.1616  1.7069 -0.1761
  276MOL0     H37248   7.224   5.276   3.987 -0.2330 -1.2102 -1.8631
  276MOL0     H37249   7.213   5.498   4.096  0.5868 -0.0657 -0.1184
  276MOL0     H37250   6.969   5.796   3.860  0.2873  0.0787 -1.0255
  276MOL0     H37251   6.976   5.871   4.009  0.7061 -0.9229  1.0568
  276MOL0     H37252   7.087   5.992   3.814  0.8364  1.1427  1.0941
  276MOL0     H37253   7.216   5.874   3.821 -0.1858  0.0562 -0.6691
  276MOL0     H37254   7.281   5.940   4.047  1.9439 -1.1877 -1.5305
  276MOL0     H37255   7.154   6.059   4.059  1.2285  1.5849  0.3949
  276MOL0     H37256   7.240   6.198   3.896  2.8472  2.4027 -0.2333
  276MOL0     H37257   7.345   6.078   3.826  0.9289  0.1489 -0.1019
  276MOL0     H37258   7.562   6.231   4.148  1.8481 -1.0692 -1.8615
  276MOL0     H37259   7.107   5.678   3.722 -1.9625  0.7527  2.2966
  276MOL0     H37260   7.147   5.466   3.600 -1.6363  1.8051 -0.4727
  277MOL0     O37261   7.151   2.229  10.350 -1.2298  0.5867  1.0765
  277MOL0     C37262   7.155   2.346  10.384 -0.0280  0.3984  0.4535
  277MOL0     O37263   7.266   2.428  10.392  0.7102 -0.6205 -0.0541
  277MOL0     C37264   7.392   2.384  10.411 -0.1111 -0.0637  0.2909
  277MOL0     C37265   7.491   2.486  10.403 -0.1767 -0.0431 -0.5743
  277MOL0     C37266   7.622   2.460  10.417 -0.5034 -0.4488  0.1543
  277MOL0     C37267   7.674   2.330  10.440  0.0307 -0.3229  0.3844
  277MOL0     O37268   7.804   2.294  10.450  0.9401 -0.1459 -0.4232
  277MOL0     C37269   7.898   2.400  10.464  0.2073 -0.2111  0.0324
  277MOL0     C37270   8.017   2.361  10.528 -0.0693 -0.0755  0.7419
  277MOL0     C37271   7.990   2.319  10.671 -0.4683  0.3763 -0.8012
  277MOL0     C37272   7.984   2.440  10.769 -0.4208  0.5444  0.5714
  277MOL0     C37273   7.961   2.399  10.908 -0.0460 -0.2223 -0.3498
  277MOL0     C37274   7.990   2.509  11.001  0.3860  0.3592 -0.1308
  277MOL0     C37275   7.963   2.467  11.152  1.1680  0.1142 -0.2007
  277MOL0     C37276   8.042   2.545  11.267  0.7228  0.6447  0.4868
  277MOL0     N37277   8.040   2.487  11.396 -0.0868  0.0376 -0.6514
  277MOL0     C37278   8.068   2.355  11.433  0.4827  0.2993  0.1933
  277MOL0     C37279   8.061   2.369  11.574  0.0027 -1.0533 -1.0441
  277MOL0     C37280   8.050   2.252  11.680 -0.2939 -1.4000 -0.7922
  277MOL0     C37281   8.087   2.279  11.829  0.0902 -0.3907  0.3625
  277MOL0     C37282   8.085   2.154  11.914 -0.2983  0.2401  0.0933
  277MOL0     C37283   8.115   2.187  12.057  0.1919  0.1158 -0.2990
  277MOL0     O37284   8.131   2.063  12.129 -0.5743  0.8207 -0.2417
  277MOL0     C37285   8.012   1.998  12.157  0.0777  0.0369 -0.3628
  277MOL0     C37286   8.018   1.866  12.200 -0.4695  0.2282 -0.3324
  277MOL0     C37287   7.913   1.796  12.259  0.7047  0.3284  1.2045
  277MOL0     C37288   7.949   1.656  12.310 -0.1743 -0.3942 -0.0568
  277MOL0     C37289   7.787   1.854  12.265  0.2983  0.1277 -0.2449
  277MOL0     C37290   7.664   1.784  12.307 -0.2409  0.7514 -0.0577
  277MOL0     O37291   7.675   1.667  12.379  0.4697  0.5018 -0.0846
  277MOL0     C37292   7.553   1.604  12.413 -0.1899  0.2865 -0.2218
  277MOL0     C37293   7.526   1.489  12.351  0.5857 -0.6913 -0.2529
  277MOL0     C37294   7.410   1.412  12.375  1.9724 -0.4646 -0.2444
  277MOL0     C37295   7.318   1.459  12.475  0.0158 -0.5345 -0.8683
  277MOL0     O37296   7.200   1.400  12.507 -0.2677 -0.3763 -0.0070
  277MOL0     C37297   7.166   1.283  12.432  0.4557 -0.1932 -0.7510
  277MOL0     C37298   7.011   1.281  12.438 -0.2265 -0.0685 -0.6077
  277MOL0     C37299   6.923   1.372  12.360 -0.5249  0.2469  0.5890
  277MOL0     C37300   6.780   1.316  12.367  0.0359 -0.0237  0.3243
  277MOL0     C37301   6.679   1.428  12.327  0.2975  0.7417 -0.5200
  277MOL0     C37302   6.562   1.370  12.247  0.0854  0.0130 -0.3434
  277MOL0     C37303   6.469   1.490  12.220  0.0310  0.2245 -0.3390
  277MOL0     C37304   6.354   1.459  12.130  0.5589  0.2125  0.0542
  277MOL0    Cl37305   6.261   1.321  12.197  0.1727  0.3644 -0.1231
  277MOL0     C37306   7.344   1.575  12.540  0.1483 -0.0283  0.0935
  277MOL0     C37307   7.462   1.645  12.516  0.6971 -0.7474  1.0546
  277MOL0     O37308   7.557   1.838  12.279 -0.3179 -0.0517  0.3278
  277MOL0     C37309   7.774   1.981  12.214  0.5352 -0.9528  0.7249
  277MOL0     C37310   7.885   2.053  12.172 -0.2144 -0.1735 -0.5892
  277MOL0     N37311   8.054   2.503  11.611  0.2391 -0.7208 -0.5943
  277MOL0     N37312   8.042   2.570  11.504 -0.3832 -0.4064 -0.9314
  277MOL0     C37313   7.577   2.228  10.450 -1.1617 -0.0130  0.6631
  277MOL0     C37314   7.435   2.251  10.438  0.2502 -1.3658  0.6040
  277MOL0     C37315   7.030   2.406  10.425 -0.0535  0.4171  0.9266
  277MOL0     C37316   7.027   2.545  10.464  0.6670  0.8376 -0.3726
  277MOL0     C37317   6.911   2.603  10.495  0.5394 -0.3509  0.1179
  277MOL0     C37318   6.782   2.544  10.495 -1.0641 -0.0174 -0.3584
  277MOL0     O37319   6.661   2.606  10.515 -0.3377  0.1149 -0.2685
  277MOL0     C37320   6.669   2.747  10.546 -0.6803 -0.6409  0.5244
  277MOL0     C37321   6.548   2.825  10.580 -0.2747 -0.0596  0.0580
  277MOL0     C37322   6.439   2.741  10.647  0.7290  0.2383 -0.5696
  277MOL0     C37323   6.312   2.826  10.680  0.8252  0.2532 -0.0331
  277MOL0     C37324   6.224   2.728  10.744 -0.6169 -0.3011 -0.3533
  277MOL0     C37325   6.137   2.663  10.801 -0.8098  0.1081  0.1516
  277MOL0     C37326   6.787   2.408  10.468  0.3377 -0.7089 -0.9917
  277MOL0     C37327   6.906   2.339  10.434 -1.0365  0.4113  0.1486
  277MOL0     H37328   7.465   2.589  10.382  2.5528  0.8344 -0.0906
  277MOL0     H37329   7.682   2.550  10.415 -3.1946  1.4820  0.2221
  277MOL0     H37330   7.927   2.448  10.370 -0.0576 -0.3854 -0.1407
  277MOL0     H37331   7.861   2.487  10.520 -0.5853 -0.1735 -0.5271
  277MOL0     H37332   8.073   2.302  10.455  3.5916  5.6327 -1.6976
  277MOL0     H37333   8.086   2.445  10.537 -0.8346  0.8089 -1.1251
  277MOL0     H37334   7.905   2.253  10.686  0.6667 -0.8685  0.4522
  277MOL0     H37335   8.076   2.257  10.699 -0.5920 -0.0099 -1.2538
  277MOL0     H37336   8.069   2.508  10.755 -0.9751  1.5202  1.7484
  277MOL0     H37337   7.897   2.498  10.735  0.1090  0.1742 -1.5612
  277MOL0     H37338   7.856   2.369  10.912  0.5190 -2.6249 -1.7237
  277MOL0     H37339   8.016   2.308  10.931 -0.9518 -0.9067 -0.8146
  277MOL0     H37340   8.098   2.524  10.985  0.7503 -2.3128 -0.7403
  277MOL0     H37341   7.934   2.600  10.981 -1.4401 -0.9682 -1.3840
  277MOL0     H37342   7.858   2.473  11.182  1.0104  1.8125 -0.9337
  277MOL0     H37343   8.008   2.371  11.175 -0.7895 -0.6313  0.7414
  277MOL0     H37344   8.004   2.647  11.273  0.4600  0.7256 -1.6398
  277MOL0     H37345   8.146   2.546  11.234  1.3833 -0.6637  2.3681
  277MOL0     H37346   8.074   2.269  11.367 -0.1004 -0.0274  0.5573
  277MOL0     H37347   7.944   2.225  11.682 -0.4153 -1.2100 -2.5116
  277MOL0     H37348   8.108   2.169  11.638 -1.0399 -0.9795 -2.7849
  277MOL0     H37349   8.019   2.357  11.865 -1.8418 -0.9621 -1.8474
  277MOL0     H37350   8.193   2.308  11.829 -0.3595  1.6323  3.1312
  277MOL0     H37351   8.160   2.086  11.873 -2.1990 -0.3369 -2.6970
  277MOL0     H37352   7.982   2.117  11.908 -0.1172 -0.0933 -1.1871
  277MOL0     H37353   8.046   2.258  12.103  0.8133  1.8089 -1.8689
  277MOL0     H37354   8.215   2.230  12.063  0.3259 -0.3601  4.0451
  277MOL0     H37355   8.121   1.836  12.212 -1.0490 -1.0653  1.9579
  277MOL0     H37356   7.969   1.660  12.418 -0.8874  1.7146  0.0362
  277MOL0     H37357   7.867   1.588  12.285  1.6260 -1.9120 -2.2721
  277MOL0     H37358   8.041   1.620  12.264  1.1656  1.1165  1.3162
  277MOL0     H37359   7.590   1.468  12.266  2.7954  0.2422  1.0723
  277MOL0     H37360   7.407   1.325  12.310  1.5643  0.0969 -0.9970
  277MOL0     H37361   7.185   1.274  12.324 -0.5821  0.5508 -1.0106
  277MOL0     H37362   7.210   1.201  12.490 -0.6832  0.8640  1.7564
  277MOL0     H37363   6.977   1.180  12.414 -0.0204  0.2573 -2.4317
  277MOL0     H37364   6.980   1.285  12.543 -0.1194 -5.3578 -0.0898
  277MOL0     H37365   6.952   1.385  12.255 -2.0383  0.1211  0.1193
  277MOL0     H37366   6.931   1.475  12.396 -0.5477 -0.3283  2.2967
  277MOL0     H37367   6.766   1.238  12.291 -2.3386  1.9805 -1.4690
  277MOL0     H37368   6.750   1.274  12.464 -3.5412 -4.7373 -2.3721
  277MOL0     H37369   6.742   1.496  12.268  1.1723  0.1003 -0.3428
  277MOL0     H37370   6.634   1.480  12.411 -1.1964 -0.2599 -0.6579
  277MOL0     H37371   6.594   1.329  12.151 -0.4779 -0.9687 -0.1281
  277MOL0     H37372   6.518   1.296  12.314  0.4462  0.4586  0.4047
  277MOL0     H37373   6.538   1.567  12.182  1.3660 -0.5574  0.4259
  277MOL0     H37374   6.425   1.523  12.314  2.8872  0.1644  1.1160
  277MOL0     H37375   6.389   1.425  12.033  1.5500 -1.4451  0.9494
  277MOL0     H37376   6.289   1.546  12.120 -1.7010 -1.5536 -1.9268
  277MOL0     H37377   7.270   1.610  12.611 -0.8267 -2.4797  0.3867
  277MOL0     H37378   7.481   1.742  12.561  0.9642 -0.5439  0.5149
  277MOL0     H37379   7.681   2.037  12.213 -1.3879 -3.8703  1.3229
  277MOL0     H37380   7.869   2.154  12.136  0.3680  0.4446  0.8248
  277MOL0     H37381   7.606   2.128  10.480  4.8021  1.0803 -0.3352
  277MOL0     H37382   7.367   2.166  10.435 -1.7798  0.2066 -1.9340
  277MOL0     H37383   7.107   2.618  10.454  0.6682  0.8835 -0.0585
  277MOL0     H37384   6.920   2.709  10.516  2.4514 -0.8571  2.2815
  277MOL0     H37385   6.746   2.783  10.615  1.5642  2.3035 -3.1279
  277MOL0     H37386   6.695   2.791  10.449 -1.7976 -0.7928  0.1446
  277MOL0     H37387   6.496   2.856  10.489 -0.1265  2.3122  0.7247
  277MOL0     H37388   6.568   2.915  10.639 -0.1830 -0.4458  0.6235
  277MOL0     H37389   6.468   2.697  10.743 -1.4592 -0.5853 -0.2319
  277MOL0     H37390   6.406   2.666  10.575 -2.1848  2.6525 -2.0204
  277MOL0     H37391   6.276   2.870  10.587 -1.2096 -0.5702  0.3139
  277MOL0     H37392   6.332   2.908  10.749 -2.1122  2.3942 -1.5057
  277MOL0     H37393   6.052   2.604  10.828 -2.9244  2.6334 -0.6472
  277MOL0     H37394   6.690   2.359  10.469 -0.0318 -0.0669  1.4223
  277MOL0     H37395   6.881   2.234  10.429 -2.2768  0.6899  0.0050
  278MOL0     O37396   0.009   5.944   1.691 -0.2756 -0.4480  0.0591
  278MOL0     C37397  -0.051   6.041   1.725 -1.9079  0.3073  0.0859
  278MOL0     O37398  -0.025   6.164   1.675 -0.5223 -0.1492 -0.7550
  278MOL0     C37399   0.051   6.177   1.564  0.7691  0.5470  0.4230
  278MOL0     C37400   0.022   6.111   1.438 -0.2092  1.1288 -0.8554
  278MOL0     C37401   0.107   6.133   1.335  0.4377  0.6791  0.4900
  278MOL0     C37402   0.217   6.222   1.352  0.0590  0.3631 -0.9553
  278MOL0     O37403   0.308   6.249   1.255  0.2061  0.0298 -0.7859
  278MOL0     C37404   0.334   6.153   1.147 -0.6797 -0.3243 -0.9201
  278MOL0     C37405   0.432   6.042   1.185  0.5220 -0.8979  0.3364
  278MOL0     C37406   0.372   5.898   1.157 -1.2082 -0.0435  0.4775
  278MOL0     C37407   0.477   5.793   1.169 -0.8516 -0.3280  0.1586
  278MOL0     C37408   0.429   5.651   1.154 -0.0409  0.5026  0.1410
  278MOL0     C37409   0.546   5.545   1.123 -0.1200 -0.1788 -0.1482
  278MOL0     C37410   0.659   5.588   1.029  0.4027  0.5997  0.3530
  278MOL0     C37411   0.734   5.465   0.987  0.0870  0.1616  0.6964
  278MOL0     N37412   0.694   5.408   0.858  0.4682 -0.4623 -0.2168
  278MOL0     C37413   0.674   5.480   0.738 -0.2542 -0.1099 -0.3457
  278MOL0     C37414   0.644   5.380   0.651  0.1686  0.2563  0.2073
  278MOL0     C37415   0.622   5.387   0.494 -0.1123 -0.9661 -0.0302
  278MOL0     C37416   0.476   5.402   0.444  0.2695  0.0534 -0.1735
  278MOL0     C37417   0.414   5.537   0.452  0.5106  0.5419  0.3187
  278MOL0     C37418   0.446   5.632   0.337 -1.2021  0.3275 -0.5005
  278MOL0     O37419   0.377   5.757   0.357  0.6891  0.8062  0.1482
  278MOL0     C37420   0.424   5.867   0.290 -1.0612  0.5261  0.0087
  278MOL0     C37421   0.341   5.982   0.298 -0.0283  0.2510  0.9578
  278MOL0     C37422   0.360   6.094   0.214  0.1149 -0.3670 -0.9625
  278MOL0     C37423   0.264   6.208   0.216 -0.9655  0.3538 -0.2859
  278MOL0     C37424   0.481   6.105   0.134 -0.2012 -1.0548  0.0508
  278MOL0     C37425   0.521   6.223   0.061 -0.4243 -0.3303  0.5990
  278MOL0     O37426   0.559   6.187  -0.068  0.1462 -0.0748  0.7120
  278MOL0     C37427   0.602   6.267  -0.176  0.2521 -0.7129  0.1005
  278MOL0     C37428   0.642   6.200  -0.292 -0.7260 -0.3944  0.3948
  278MOL0     C37429   0.693   6.264  -0.406 -0.5096  0.2046 -0.1170
  278MOL0     C37430   0.708   6.404  -0.402  0.3834  0.0143  0.2601
  278MOL0     O37431   0.756   6.478  -0.504 -0.0989  0.2737  0.2442
  278MOL0     C37432   0.809   6.406  -0.618 -0.6604  0.7520 -0.1401
  278MOL0     C37433   0.895   6.511  -0.688  0.1721  0.6406  0.7729
  278MOL0     C37434   0.802   6.615  -0.756 -0.0123 -0.0271  0.1317
  278MOL0     C37435   0.853   6.645  -0.898  0.7188  0.1514  0.3970
  278MOL0     C37436   0.981   6.740  -0.892  0.1881 -0.8669 -0.3956
  278MOL0     C37437   1.033   6.758  -1.034 -0.5333 -0.0023 -0.4786
  278MOL0     C37438   1.113   6.633  -1.077  0.0937  0.3957 -0.0308
  278MOL0     C37439   1.166   6.631  -1.222 -0.7424  0.0842 -0.7195
  278MOL0    Cl37440   1.278   6.782  -1.226 -0.1221  0.2340 -0.5669
  278MOL0     C37441   0.666   6.472  -0.291 -0.3631 -1.4545  0.0148
  278MOL0     C37442   0.614   6.407  -0.178 -0.0564 -0.4371  0.2561
  278MOL0     O37443   0.553   6.333   0.114  0.9722 -0.3935 -0.4914
  278MOL0     C37444   0.575   5.997   0.144  0.6335 -0.0937 -0.5909
  278MOL0     C37445   0.542   5.880   0.212 -0.9732 -0.0076 -0.1148
  278MOL0     N37446   0.623   5.267   0.721 -0.6862 -0.1831  0.2027
  278MOL0     N37447   0.642   5.286   0.844  0.0723  0.3677 -0.2941
  278MOL0     C37448   0.246   6.273   1.476 -0.5035 -0.1229  0.0393
  278MOL0     C37449   0.153   6.265   1.579  0.5985  0.4295 -0.4795
  278MOL0     C37450  -0.143   6.044   1.842  0.6057  0.6309  0.5617
  278MOL0     C37451  -0.196   6.163   1.891  1.0834  0.1197  0.6592
  278MOL0     C37452  -0.290   6.154   1.995  0.6640  0.7637  0.0143
  278MOL0     C37453  -0.337   6.033   2.043 -0.9850 -0.7208  0.3894
  278MOL0     O37454  -0.422   6.046   2.149 -0.2061  0.6225 -0.1201
  278MOL0     C37455  -0.454   5.924   2.215 -0.3720 -0.0012 -0.0098
  278MOL0     C37456  -0.540   5.975   2.338 -0.7303  0.7006  0.2884
  278MOL0     C37457  -0.542   5.872   2.450  0.5476  0.3208 -0.2369
  278MOL0     C37458  -0.659   5.907   2.547  0.0853 -0.1386  0.7430
  278MOL0     C37459  -0.703   5.805   2.646 -0.3164 -0.0061 -0.2312
  278MOL0     C37460  -0.738   5.724   2.734  0.5967 -0.5594  1.3630
  278MOL0     C37461  -0.275   5.918   1.999  0.3472  0.3879 -0.7132
  278MOL0     C37462  -0.186   5.919   1.894  0.2238 -0.3743  0.5740
  278MOL0     H37463  -0.059   6.039   1.428 -0.1565  0.9866 -0.2942
  278MOL0     H37464   0.088   6.078   1.244  1.2134 -0.3789  0.9463
  278MOL0     H37465   0.239   6.126   1.100 -1.3378  1.5916 -0.7916
  278MOL0     H37466   0.376   6.212   1.064 -1.4432  0.7198 -0.5818
  278MOL0     H37467   0.523   6.069   1.130  1.2685  0.3483  2.0667
  278MOL0     H37468   0.464   6.051   1.289 -1.6669 -0.4120  1.0089
  278MOL0     H37469   0.291   5.872   1.225 -0.4549 -6.0287 -0.4172
  278MOL0     H37470   0.330   5.897   1.055  1.0458  1.3465 -0.5330
  278MOL0     H37471   0.562   5.812   1.103  0.9195  0.2405  2.4536
  278MOL0     H37472   0.531   5.785   1.264  2.2003 -1.4681 -1.5490
  278MOL0     H37473   0.384   5.609   1.245 -0.5851  0.0605 -0.3220
  278MOL0     H37474   0.352   5.648   1.076 -0.0036 -0.8052  0.1282
  278MOL0     H37475   0.594   5.516   1.217  0.1440 -3.9311 -1.2662
  278MOL0     H37476   0.497   5.454   1.088  3.2275 -2.2942  0.2065
  278MOL0     H37477   0.606   5.627   0.942 -2.9150 -0.7336  1.6332
  278MOL0     H37478   0.721   5.669   1.069  1.3573 -0.4058  0.9758
  278MOL0     H37479   0.723   5.381   1.057 -0.7722  0.7068  1.2307
  278MOL0     H37480   0.839   5.494   0.995 -0.1037  0.9448  0.4088
  278MOL0     H37481   0.695   5.585   0.720  0.4689  0.1751  1.8908
  278MOL0     H37482   0.685   5.468   0.456 -1.7994  2.2305  3.4099
  278MOL0     H37483   0.666   5.299   0.445 -0.9878 -0.3195 -2.0792
  278MOL0     H37484   0.417   5.333   0.506  0.6858 -0.0734  0.0901
  278MOL0     H37485   0.465   5.370   0.340 -2.6193 -1.3215  0.4438
  278MOL0     H37486   0.443   5.594   0.541  0.3635  0.5491  0.3622
  278MOL0     H37487   0.307   5.515   0.448  0.6391 -0.1565  0.6126
  278MOL0     H37488   0.421   5.596   0.237 -0.2492 -2.6124  0.2170
  278MOL0     H37489   0.555   5.646   0.333 -1.2305  0.4572 -0.8815
  278MOL0     H37490   0.252   5.971   0.359  1.7214  0.1280  3.7124
  278MOL0     H37491   0.304   6.294   0.270 -0.9292 -0.0195  0.2847
  278MOL0     H37492   0.251   6.232   0.110 -0.9220 -0.5961 -0.5117
  278MOL0     H37493   0.165   6.184   0.255 -0.9241 -0.3942 -0.6332
  278MOL0     H37494   0.636   6.092  -0.293  0.2673 -0.4567  0.2885
  278MOL0     H37495   0.710   6.206  -0.496  2.3880 -0.1906  0.6022
  278MOL0     H37496   0.881   6.328  -0.592 -0.3287  0.5902 -1.4712
  278MOL0     H37497   0.736   6.375  -0.693  0.5277 -1.3517 -0.5025
  278MOL0     H37498   0.944   6.573  -0.612 -0.5733  0.1430  1.6791
  278MOL0     H37499   0.978   6.455  -0.733  0.2057 -2.8450  4.5175
  278MOL0     H37500   0.791   6.713  -0.708 -3.8785  0.7822 -1.9806
  278MOL0     H37501   0.701   6.575  -0.768  0.7069 -2.1734  0.8038
  278MOL0     H37502   0.867   6.549  -0.950  0.3814  0.3553 -0.0738
  278MOL0     H37503   0.776   6.697  -0.955 -0.0375 -1.8084 -0.4678
  278MOL0     H37504   1.056   6.698  -0.824  1.5877  0.7443 -0.8670
  278MOL0     H37505   0.955   6.834  -0.842 -1.9601 -1.8236  0.3700
  278MOL0     H37506   0.950   6.788  -1.099 -0.1425 -0.3411 -1.1524
  278MOL0     H37507   1.107   6.839  -1.040 -0.5060 -0.1435 -3.9173
  278MOL0     H37508   1.043   6.548  -1.074 -0.2187  0.6873  2.0564
  278MOL0     H37509   1.199   6.606  -1.016 -0.2927  0.1530  0.4226
  278MOL0     H37510   1.088   6.643  -1.298 -1.0864  2.9827 -0.0428
  278MOL0     H37511   1.223   6.538  -1.231  0.5607  0.3148  3.1883
  278MOL0     H37512   0.659   6.580  -0.292 -3.4285 -1.5716  0.1989
  278MOL0     H37513   0.583   6.458  -0.087  0.7833 -0.8686  0.8037
  278MOL0     H37514   0.680   6.009   0.117  0.1610  0.4980 -2.3179
  278MOL0     H37515   0.603   5.792   0.193  1.6666  1.8360 -0.6729
  278MOL0     H37516   0.347   6.312   1.490 -0.0196 -2.4395  5.4380
  278MOL0     H37517   0.176   6.313   1.674 -0.9742  0.8564 -0.2887
  278MOL0     H37518  -0.176   6.258   1.841  2.2146 -1.2090 -1.5724
  278MOL0     H37519  -0.325   6.247   2.038  0.0490  0.6014 -0.1216
  278MOL0     H37520  -0.516   5.850   2.165 -2.4731 -1.0350  3.7722
  278MOL0     H37521  -0.365   5.867   2.243  1.5578  2.6435 -0.3603
  278MOL0     H37522  -0.639   6.009   2.307 -1.4483  2.1282  3.6693
  278MOL0     H37523  -0.489   6.062   2.380 -0.4914  1.6816 -1.8692
  278MOL0     H37524  -0.441   5.885   2.489  1.4061 -1.5944 -1.6805
  278MOL0     H37525  -0.550   5.770   2.412 -1.3895 -0.0834  1.1046
  278MOL0     H37526  -0.741   5.947   2.487  1.5128  0.7932 -0.6470
  278MOL0     H37527  -0.625   5.998   2.598 -1.9208 -0.9497  3.8328
  278MOL0     H37528  -0.777   5.671   2.819 -0.6510  1.2141  1.9747
  278MOL0     H37529  -0.299   5.816   2.026 -2.5965  0.5197 -2.4374
  278MOL0     H37530  -0.146   5.823   1.863  0.2035  0.2154 -1.4396
  279MOL0     O37531   4.614  11.417   6.926 -0.1871  0.0065 -0.0260
  279MOL0     C37532   4.510  11.469   6.882 -0.5094  1.9267 -0.2065
  279MOL0     O37533   4.381  11.442   6.937 -0.7154 -0.2062  0.6383
  279MOL0     C37534   4.400  11.357   7.041 -0.0125  0.0624 -0.5187
  279MOL0     C37535   4.316  11.240   7.040  0.8935  0.9434 -0.6182
  279MOL0     C37536   4.303  11.140   7.148 -1.1541 -0.3108  0.3639
  279MOL0     C37537   4.383  11.163   7.260 -0.5442 -0.0054 -0.4800
  279MOL0     O37538   4.403  11.079   7.366  0.2852 -0.2564  0.1750
  279MOL0     C37539   4.330  10.956   7.371  0.7621  0.3843  0.6200
  279MOL0     C37540   4.365  10.846   7.465  0.2750  0.2952 -0.7222
  279MOL0     C37541   4.240  10.777   7.518  0.0314  0.0933  0.5365
  279MOL0     C37542   4.168  10.855   7.632 -0.1134 -0.1885  0.1365
  279MOL0     C37543   4.211  10.824   7.775  1.1470 -0.0533  0.3158
  279MOL0     C37544   4.104  10.875   7.884 -0.5293 -0.1083  0.4855
  279MOL0     C37545   4.137  10.852   8.032 -0.5012 -0.2444 -0.1543
  279MOL0     C37546   4.059  10.960   8.112 -0.7922  0.0034 -0.1882
  279MOL0     N37547   3.909  10.943   8.101  0.4096  0.7999 -0.6994
  279MOL0     C37548   3.843  10.845   8.182 -0.1336  0.7076 -0.7638
  279MOL0     C37549   3.720  10.845   8.137 -0.4876 -0.9715 -0.5759
  279MOL0     C37550   3.614  10.742   8.175 -0.2467  0.4908  0.0746
  279MOL0     C37551   3.477  10.790   8.131 -0.5282  0.5063 -0.6017
  279MOL0     C37552   3.438  10.920   8.201 -0.0860 -0.3785 -0.3063
  279MOL0     C37553   3.286  10.955   8.211 -0.0634 -0.1194 -0.1083
  279MOL0     O37554   3.227  10.955   8.084  0.0447  0.4869  0.1455
  279MOL0     C37555   3.118  10.875   8.066  0.0628 -0.2062  0.1787
  279MOL0     C37556   3.002  10.886   8.148  0.1680 -0.4439 -0.1181
  279MOL0     C37557   2.887  10.811   8.143  0.4571 -0.5738 -0.3066
  279MOL0     C37558   2.773  10.842   8.237 -0.4178  0.9426 -0.4086
  279MOL0     C37559   2.887  10.716   8.039  0.0361 -0.1728  0.3688
  279MOL0     C37560   2.762  10.643   7.988 -0.2842 -0.0210  0.5028
  279MOL0     O37561   2.773  10.545   7.894  0.0763 -0.9964 -0.2505
  279MOL0     C37562   2.659  10.480   7.851  0.2120  0.0873 -0.9894
  279MOL0     C37563   2.592  10.389   7.936  0.1906 -0.8738  0.6430
  279MOL0     C37564   2.483  10.316   7.891  0.1532 -0.1736  0.2790
  279MOL0     C37565   2.429  10.340   7.766 -0.5114  0.1305  0.3158
  279MOL0     O37566   2.319  10.267   7.731  0.5762  0.5226 -0.1194
  279MOL0     C37567   2.357  10.170   7.630 -0.1517  0.5347 -0.0439
  279MOL0     C37568   2.231  10.074   7.599 -0.6532 -0.4511  0.4979
  279MOL0     C37569   2.132  10.145   7.508  0.4166 -0.0729  0.4186
  279MOL0     C37570   2.006  10.055   7.472  0.5808  0.2347 -0.5016
  279MOL0     C37571   1.907  10.129   7.381 -0.1343 -0.4178 -0.1779
  279MOL0     C37572   1.800  10.025   7.347 -0.0007 -0.0337  0.1501
  279MOL0     C37573   1.666  10.090   7.312 -0.0271 -0.0328  0.3882
  279MOL0     C37574   1.588  10.134   7.438  0.5624  0.1500 -0.0886
  279MOL0    Cl37575   1.423  10.198   7.388 -0.0639  0.5244 -0.1439
  279MOL0     C37576   2.488  10.436   7.683  0.2537  0.4987  0.2486
  279MOL0     C37577   2.604  10.508   7.730 -0.2903  0.9897  0.0718
  279MOL0     O37578   2.655  10.670   8.041  1.0157  0.1904  0.4826
  279MOL0     C37579   2.995  10.696   7.958  0.3036 -0.0822  0.3682
  279MOL0     C37580   3.116  10.771   7.971 -0.1569 -0.2944  0.3039
  279MOL0     N37581   3.711  10.945   8.038 -0.3914 -0.5056 -0.1560
  279MOL0     N37582   3.821  11.012   8.021 -0.4002  0.7320 -0.0630
  279MOL0     C37583   4.458  11.283   7.264  0.3407 -0.1651 -0.5672
  279MOL0     C37584   4.469  11.379   7.165  0.4092 -0.6429 -0.6662
  279MOL0     C37585   4.515  11.544   6.758  0.1780 -0.7319  1.2941
  279MOL0     C37586   4.642  11.565   6.690 -0.2500 -1.0779  0.4184
  279MOL0     C37587   4.648  11.643   6.576  0.5499 -0.2623  0.3721
  279MOL0     C37588   4.535  11.690   6.508  0.4741 -0.0332 -0.4852
  279MOL0     O37589   4.527  11.777   6.394  0.2650 -0.4001  0.3068
  279MOL0     C37590   4.648  11.836   6.354  0.4801  0.2632  0.1067
  279MOL0     C37591   4.675  11.972   6.422  1.0101  0.2813 -0.0847
  279MOL0     C37592   4.561  12.083   6.444 -0.1208 -1.1653  0.5096
  279MOL0     C37593   4.495  12.152   6.328  0.2058  0.1161 -0.6993
  279MOL0     C37594   4.404  12.250   6.396  0.0573  0.4259 -0.7271
  279MOL0     C37595   4.321  12.326   6.447 -0.2322  0.1015 -0.1394
  279MOL0     C37596   4.415  11.647   6.560 -0.4217  0.4957 -1.5891
  279MOL0     C37597   4.405  11.578   6.688 -0.0374  0.2637 -0.3603
  279MOL0     H37598   4.264  11.226   6.946 -1.2265  1.7086  0.3775
  279MOL0     H37599   4.236  11.057   7.136  1.3518 -2.3804 -0.2458
  279MOL0     H37600   4.228  10.988   7.396 -0.5098 -2.5536 -0.3634
  279MOL0     H37601   4.332  10.904   7.275 -0.0002 -0.2971  0.9556
  279MOL0     H37602   4.433  10.769   7.426 -0.4899 -0.2836 -0.9374
  279MOL0     H37603   4.426  10.888   7.545  1.8625 -0.3490 -1.5353
  279MOL0     H37604   4.165  10.759   7.440 -1.2904 -2.0632  2.1713
  279MOL0     H37605   4.271  10.677   7.551  3.2549  0.5969 -0.6069
  279MOL0     H37606   4.178  10.962   7.614 -0.9331  0.0959  1.2815
  279MOL0     H37607   4.064  10.822   7.632  0.6567 -3.0773 -1.6209
  279MOL0     H37608   4.204  10.715   7.784  1.3210 -0.0629  0.3448
  279MOL0     H37609   4.310  10.866   7.794  0.2372  2.0712  0.5830
  279MOL0     H37610   4.079  10.978   7.856  0.8530  0.5203  1.4267
  279MOL0     H37611   4.006  10.830   7.867 -2.0170  2.5028  1.5964
  279MOL0     H37612   4.105  10.753   8.064 -0.2122 -0.0881  0.6422
  279MOL0     H37613   4.243  10.872   8.052 -0.5663 -1.5395  1.6108
  279MOL0     H37614   4.080  11.061   8.074 -0.0967  1.0849  2.7828
  279MOL0     H37615   4.100  10.962   8.214  0.5057  1.6321 -0.6976
  279MOL0     H37616   3.880  10.783   8.263 -4.3664 -0.0011  0.8652
  279MOL0     H37617   3.631  10.647   8.123  0.2126  0.1169  0.8823
  279MOL0     H37618   3.607  10.730   8.284 -2.8600  0.7919  0.0189
  279MOL0     H37619   3.413  10.707   8.165  2.0998 -0.7055  1.7560
  279MOL0     H37620   3.468  10.801   8.022  0.2535  0.7381 -0.6444
  279MOL0     H37621   3.478  11.008   8.151 -0.4601 -0.1815 -0.2595
  279MOL0     H37622   3.481  10.924   8.301  0.2363  3.5653 -0.4667
  279MOL0     H37623   3.275  11.049   8.265 -1.1043 -0.7853  0.8733
  279MOL0     H37624   3.245  10.872   8.268 -2.3764  0.0779 -1.3579
  279MOL0     H37625   2.997  10.969   8.217 -2.8420  0.5065 -1.2708
  279MOL0     H37626   2.737  10.747   8.277 -1.2579  1.6037  0.4341
  279MOL0     H37627   2.793  10.912   8.318 -1.0330 -0.0657  0.6429
  279MOL0     H37628   2.688  10.890   8.188  0.3807  3.0718  0.1826
  279MOL0     H37629   2.631  10.379   8.037 -0.6599  3.3133  1.5713
  279MOL0     H37630   2.433  10.238   7.947  1.3558 -1.1075  0.1078
  279MOL0     H37631   2.385  10.216   7.535 -2.6444 -0.9555 -1.6508
  279MOL0     H37632   2.428  10.099   7.674  0.4143  3.2241  3.7871
  279MOL0     H37633   2.269   9.986   7.546  1.7143  1.6717 -1.5974
  279MOL0     H37634   2.186  10.051   7.696 -0.2793 -0.0479  0.7713
  279MOL0     H37635   2.179  10.160   7.410 -0.6160 -0.5256 -0.1522
  279MOL0     H37636   2.088  10.234   7.554 -0.4551  1.1536 -2.6072
  279MOL0     H37637   2.033   9.963   7.419 -2.5769 -1.8116  1.1777
  279MOL0     H37638   1.966  10.013   7.564 -1.8151 -0.6373 -1.8510
  279MOL0     H37639   1.948  10.176   7.291 -1.4508 -0.3198 -0.7399
  279MOL0     H37640   1.866  10.218   7.428  2.2601  0.5537  0.2251
  279MOL0     H37641   1.831   9.964   7.262  0.7638 -1.1522  1.1815
  279MOL0     H37642   1.785   9.951   7.427  0.0150  0.0296  0.2119
  279MOL0     H37643   1.606  10.012   7.263  0.3717 -1.1594  1.6300
  279MOL0     H37644   1.678  10.164   7.232 -0.8921  1.5869  1.6881
  279MOL0     H37645   1.636  10.212   7.497 -0.2258  1.0706 -0.6398
  279MOL0     H37646   1.587  10.048   7.505  0.2912  1.6507  1.9277
  279MOL0     H37647   2.435  10.455   7.591  1.4133  0.4394 -0.4581
  279MOL0     H37648   2.658  10.591   7.684 -1.1459  1.3381 -0.3158
  279MOL0     H37649   3.002  10.622   7.879 -2.1644  1.7382 -1.7345
  279MOL0     H37650   3.210  10.760   7.917  0.7378 -1.3290  1.9910
  279MOL0     H37651   4.520  11.303   7.351  3.4379  0.0320 -2.6419
  279MOL0     H37652   4.507  11.480   7.179 -3.2141  0.7268  0.3114
  279MOL0     H37653   4.733  11.523   6.732 -1.7299 -0.3088  4.8979
  279MOL0     H37654   4.743  11.663   6.528  0.3993  0.9973  0.5729
  279MOL0     H37655   4.736  11.770   6.359  0.0010 -0.4053 -0.0679
  279MOL0     H37656   4.651  11.860   6.247 -2.3291  0.4461 -0.0007
  279MOL0     H37657   4.752  12.027   6.367  0.4545  4.4760  2.7633
  279MOL0     H37658   4.719  11.941   6.517  0.5968 -0.2051 -0.0525
  279MOL0     H37659   4.609  12.164   6.500  0.0161 -0.6297 -0.3750
  279MOL0     H37660   4.484  12.043   6.511  0.4214 -0.2615  1.7110
  279MOL0     H37661   4.440  12.073   6.276 -1.0289  0.3284  0.2384
  279MOL0     H37662   4.564  12.212   6.268 -1.3647  2.4034 -0.3408
  279MOL0     H37663   4.259  12.392   6.504  1.0193 -0.1715  1.6469
  279MOL0     H37664   4.325  11.664   6.503 -1.4197 -1.2752 -0.6185
  279MOL0     H37665   4.312  11.535   6.723  0.1785  1.4342  1.8608
  280MOL0     O37666   6.336   8.727   7.346  0.2677 -0.4093  0.4216
  280MOL0     C37667   6.299   8.657   7.445 -1.5372 -0.3794  1.2672
  280MOL0     O37668   6.185   8.578   7.454  0.1930 -0.1643  0.2343
  280MOL0     C37669   6.079   8.605   7.369 -0.1680 -0.4618  0.2843
  280MOL0     C37670   6.014   8.735   7.355 -0.0785  0.6413  0.3381
  280MOL0     C37671   5.902   8.740   7.271  0.1315  0.5692  0.2970
  280MOL0     C37672   5.852   8.626   7.211 -0.1108  0.7718 -0.0246
  280MOL0     O37673   5.740   8.643   7.146  1.1230  0.4090  0.3166
  280MOL0     C37674   5.666   8.534   7.091 -0.6521 -0.5930  0.6710
  280MOL0     C37675   5.558   8.609   7.008  0.0091  0.1896  0.2449
  280MOL0     C37676   5.481   8.523   6.908 -0.6772 -0.1287  0.3444
  280MOL0     C37677   5.546   8.507   6.770 -0.2860  0.2639 -0.0954
  280MOL0     C37678   5.508   8.361   6.719  0.3289 -0.3916  0.0195
  280MOL0     C37679   5.549   8.339   6.573 -0.3698  0.2120 -0.1712
  280MOL0     C37680   5.534   8.180   6.558 -0.0107  0.2476 -0.2516
  280MOL0     C37681   5.631   8.106   6.468 -0.2801 -0.6137  0.7925
  280MOL0     N37682   5.558   8.001   6.399 -0.0597 -0.0515  0.8123
  280MOL0     C37683   5.519   8.004   6.265 -0.4502  0.2482  0.4914
  280MOL0     C37684   5.489   7.874   6.245  0.5055 -0.1834  0.6923
  280MOL0     C37685   5.430   7.818   6.112  0.5337  0.1205 -0.3693
  280MOL0     C37686   5.285   7.797   6.122  0.1227  0.2301  0.1405
  280MOL0     C37687   5.196   7.774   5.998  0.2933 -0.2594 -0.3003
  280MOL0     C37688   5.172   7.631   5.985 -0.4577 -0.9082  1.2919
  280MOL0     O37689   5.294   7.558   5.967 -0.2684  0.5409 -0.1788
  280MOL0     C37690   5.339   7.514   5.844  0.8751  0.7016 -1.0715
  280MOL0     C37691   5.453   7.431   5.847  0.3791 -0.1369 -0.7215
  280MOL0     C37692   5.521   7.371   5.734  0.9823  0.7446  0.9474
  280MOL0     C37693   5.656   7.318   5.758 -0.6941  0.7570 -0.6011
  280MOL0     C37694   5.449   7.383   5.610  0.2926  0.3489 -0.6677
  280MOL0     C37695   5.492   7.318   5.486  0.6489  0.7413  0.5971
  280MOL0     O37696   5.437   7.366   5.372  0.3960  0.3694  0.1426
  280MOL0     C37697   5.425   7.301   5.254  0.2261  0.1119 -0.9151
  280MOL0     C37698   5.369   7.175   5.250 -0.0358  0.1171 -0.6784
  280MOL0     C37699   5.327   7.122   5.128 -0.2180  0.3784  0.1750
  280MOL0     C37700   5.353   7.184   5.009 -0.2907  0.4589  1.6848
  280MOL0     O37701   5.348   7.106   4.889 -0.1766  0.2756 -0.4681
  280MOL0     C37702   5.378   7.177   4.771  0.4692  0.3484 -0.3727
  280MOL0     C37703   5.366   7.068   4.677 -0.4864 -0.4448  0.3979
  280MOL0     C37704   5.217   7.018   4.676  0.9854  0.2866 -0.1981
  280MOL0     C37705   5.184   6.921   4.565 -0.1460  0.3714 -0.3364
  280MOL0     C37706   5.063   6.840   4.596 -0.0634 -0.1333 -0.1741
  280MOL0     C37707   5.040   6.721   4.499 -0.4004  0.6514  0.6105
  280MOL0     C37708   4.896   6.672   4.514  0.2771  0.1703 -1.3698
  280MOL0     C37709   4.869   6.546   4.421 -0.8652  0.1333  0.5360
  280MOL0    Cl37710   4.695   6.501   4.452  0.4444 -0.2584 -0.0253
  280MOL0     C37711   5.398   7.313   5.019 -0.1360  0.5502  0.5327
  280MOL0     C37712   5.438   7.368   5.134  0.4926 -0.0023  0.2701
  280MOL0     O37713   5.566   7.223   5.490 -0.1324  0.4752  0.3891
  280MOL0     C37714   5.341   7.468   5.606  0.6776  0.3371 -0.0663
  280MOL0     C37715   5.283   7.538   5.715 -0.4475  0.3534  0.2101
  280MOL0     N37716   5.499   7.804   6.364  0.6605  0.3453  0.6166
  280MOL0     N37717   5.536   7.881   6.460  0.8045  0.8824  0.4901
  280MOL0     C37718   5.918   8.498   7.227  0.8499  0.2359  0.4514
  280MOL0     C37719   6.035   8.491   7.305 -0.1622  0.0145  0.3293
  280MOL0     C37720   6.390   8.652   7.558  1.1267 -0.0763 -0.4314
  280MOL0     C37721   6.473   8.765   7.586 -0.2486  0.2051 -0.3975
  280MOL0     C37722   6.553   8.762   7.697  0.0601  0.0633  0.0972
  280MOL0     C37723   6.555   8.649   7.777  0.9697  0.1348 -0.1136
  280MOL0     O37724   6.636   8.645   7.891 -0.0062  0.5981 -0.0054
  280MOL0     C37725   6.659   8.770   7.973  1.0066 -0.1963 -0.0274
  280MOL0     C37726   6.535   8.834   8.030  0.3564 -0.0727 -0.0498
  280MOL0     C37727   6.576   8.964   8.105 -0.5145 -0.6070  0.0699
  280MOL0     C37728   6.450   9.033   8.166 -0.2752 -0.5757 -0.0270
  280MOL0     C37729   6.488   9.139   8.253  0.6755  0.7116  0.3834
  280MOL0     C37730   6.516   9.235   8.323  0.4057  0.1867  0.2979
  280MOL0     C37731   6.480   8.533   7.753 -0.6718 -0.1250  0.0085
  280MOL0     C37732   6.392   8.536   7.642  0.3908 -0.0035 -0.3548
  280MOL0     H37733   6.051   8.822   7.408 -0.5989  1.0861 -0.0221
  280MOL0     H37734   5.859   8.838   7.257 -1.8171 -0.4066 -1.0386
  280MOL0     H37735   5.721   8.464   7.027  3.5923  2.6440  0.3407
  280MOL0     H37736   5.624   8.478   7.175  1.4085  0.2869  2.3610
  280MOL0     H37737   5.499   8.662   7.084  0.1469  0.1227  0.4009
  280MOL0     H37738   5.607   8.688   6.952  2.5044 -1.2656  0.2171
  280MOL0     H37739   5.461   8.426   6.956 -1.7910  0.4059  0.9934
  280MOL0     H37740   5.386   8.572   6.886 -0.6434  1.0747  2.5108
  280MOL0     H37741   5.512   8.590   6.707 -2.3046 -0.6998 -0.3329
  280MOL0     H37742   5.653   8.513   6.795  0.9183  1.2648 -4.6131
  280MOL0     H37743   5.555   8.297   6.794  2.4703 -0.5620 -1.3828
  280MOL0     H37744   5.401   8.348   6.735  0.4282 -0.4364  0.7125
  280MOL0     H37745   5.484   8.382   6.497 -0.5607  0.1472 -0.0463
  280MOL0     H37746   5.653   8.370   6.558 -0.1062  0.5928  2.0554
  280MOL0     H37747   5.549   8.117   6.646  0.9016 -2.3463 -2.1409
  280MOL0     H37748   5.437   8.150   6.520  0.6191 -4.3026  1.2120
  280MOL0     H37749   5.710   8.067   6.532  3.1480  1.2334 -1.9471
  280MOL0     H37750   5.683   8.182   6.410 -1.3448  0.3330  1.0345
  280MOL0     H37751   5.517   8.082   6.190  0.8289  1.2427  1.4266
  280MOL0     H37752   5.440   7.887   6.027 -2.5832  0.6741 -0.4349
  280MOL0     H37753   5.469   7.723   6.076  0.4854  0.2482 -0.7642
  280MOL0     H37754   5.248   7.882   6.180  2.6775  1.7539 -0.3072
  280MOL0     H37755   5.271   7.715   6.193 -0.2183 -1.5962 -1.9138
  280MOL0     H37756   5.244   7.814   5.908  0.4166  0.7900  0.2167
  280MOL0     H37757   5.097   7.820   6.005  0.3941 -0.2111  0.9804
  280MOL0     H37758   5.091   7.601   5.918  0.5091  1.6313 -1.1797
  280MOL0     H37759   5.137   7.599   6.084  0.8380  1.0258  2.4365
  280MOL0     H37760   5.503   7.420   5.942  0.3031 -2.3351 -0.8722
  280MOL0     H37761   5.643   7.213   5.728  3.9023  0.2175 -1.4760
  280MOL0     H37762   5.730   7.363   5.691  2.4675 -0.0260  2.1488
  280MOL0     H37763   5.680   7.327   5.864  0.0796 -1.1236 -0.5779
  280MOL0     H37764   5.352   7.121   5.343 -3.0326 -0.2446 -1.3129
  280MOL0     H37765   5.298   7.020   5.105  0.5852 -0.2037  1.6214
  280MOL0     H37766   5.305   7.259   4.766  0.9650  0.8652  0.5594
  280MOL0     H37767   5.477   7.222   4.763  1.0589 -1.0583 -1.4508
  280MOL0     H37768   5.392   7.110   4.579 -2.7388 -2.6105 -1.2519
  280MOL0     H37769   5.441   6.989   4.685 -1.5981 -1.3956  1.7277
  280MOL0     H37770   5.152   7.105   4.663  1.6006  0.7825 -0.0334
  280MOL0     H37771   5.197   6.968   4.772  3.5475  1.2944  0.9457
  280MOL0     H37772   5.164   6.967   4.467 -1.6021 -0.0672 -0.2711
  280MOL0     H37773   5.278   6.868   4.549  1.2558  2.7606 -0.4325
  280MOL0     H37774   4.976   6.904   4.579  0.9478  1.3670  0.0715
  280MOL0     H37775   5.066   6.797   4.697  1.3368 -2.5861 -1.1664
  280MOL0     H37776   5.062   6.745   4.395 -2.0304  1.2645  0.3824
  280MOL0     H37777   5.106   6.635   4.516 -1.8465 -1.1291 -2.0411
  280MOL0     H37778   4.829   6.753   4.485  0.7571  0.5897 -1.3045
  280MOL0     H37779   4.878   6.649   4.619 -0.0163  0.8230 -1.2767
  280MOL0     H37780   4.936   6.461   4.436 -1.0130  0.0076  0.4882
  280MOL0     H37781   4.891   6.588   4.322  2.0080  1.5580  1.6658
  280MOL0     H37782   5.412   7.378   4.933  3.0488 -0.1676  0.3786
  280MOL0     H37783   5.462   7.474   5.135  0.3456  0.0324  0.1209
  280MOL0     H37784   5.294   7.491   5.511 -0.9676  0.8415  0.8338
  280MOL0     H37785   5.192   7.593   5.696 -0.9214 -0.7997 -0.9836
  280MOL0     H37786   5.878   8.409   7.178  1.8674  0.6517 -1.1787
  280MOL0     H37787   6.081   8.393   7.313 -0.8189 -0.1955  2.3614
  280MOL0     H37788   6.466   8.848   7.517  0.7539 -1.1132 -2.1649
  280MOL0     H37789   6.618   8.843   7.729  0.6087 -0.7435  1.1121
  280MOL0     H37790   6.727   8.739   8.053  1.6251  1.9053  0.3161
  280MOL0     H37791   6.715   8.843   7.914 -1.1361 -0.1777 -2.1789
  280MOL0     H37792   6.489   8.775   8.110 -0.8486  1.7947  0.7143
  280MOL0     H37793   6.456   8.860   7.959  0.2201  1.1370  0.5085
  280MOL0     H37794   6.624   9.033   8.035 -1.8983  1.1911  0.8288
  280MOL0     H37795   6.641   8.961   8.193  1.9171  1.0824 -1.5454
  280MOL0     H37796   6.402   8.964   8.238 -0.3175 -1.0019 -0.4600
  280MOL0     H37797   6.381   9.055   8.085  0.4499  1.0502 -0.2405
  280MOL0     H37798   6.542   9.326   8.373 -1.5355  1.1956 -0.4377
  280MOL0     H37799   6.502   8.447   7.815  2.0585 -1.1046 -2.1061
  280MOL0     H37800   6.340   8.445   7.614 -1.9652  0.4052  2.2030
  281MOL0     O37801   5.272   8.160   6.055  0.2551  0.4280 -0.1109
  281MOL0     C37802   5.345   8.259   6.043 -0.2758 -0.3600  0.3747
  281MOL0     O37803   5.447   8.271   5.959 -0.7470  0.0528 -0.1551
  281MOL0     C37804   5.500   8.156   5.905 -0.1624 -0.3591 -0.7291
  281MOL0     C37805   5.633   8.127   5.942 -0.5687 -1.0684  0.5289
  281MOL0     C37806   5.693   8.009   5.882 -0.5045 -0.6056 -0.4914
  281MOL0     C37807   5.623   7.921   5.796  1.0235 -0.0618 -0.4520
  281MOL0     O37808   5.685   7.820   5.734  0.2878  0.1436  0.2875
  281MOL0     C37809   5.642   7.771   5.609 -0.1478 -0.3931  0.5315
  281MOL0     C37810   5.759   7.688   5.546  0.4616  0.2135 -0.1744
  281MOL0     C37811   5.893   7.775   5.522 -0.3217  0.1683 -0.0047
  281MOL0     C37812   5.983   7.716   5.409  0.7227 -0.7945  1.0117
  281MOL0     C37813   6.115   7.806   5.404 -0.5794  1.5897 -0.6780
  281MOL0     C37814   6.110   7.958   5.376 -0.3829 -0.4091 -0.0930
  281MOL0     C37815   6.248   8.009   5.358 -0.1144 -0.0531  0.1948
  281MOL0     C37816   6.251   8.158   5.346 -0.1219 -0.0954 -0.0181
  281MOL0     N37817   6.213   8.225   5.223 -0.8311  0.9799  0.3677
  281MOL0     C37818   6.088   8.284   5.211 -0.2180 -0.8681 -0.8235
  281MOL0     C37819   6.096   8.356   5.091  0.0185  0.4772 -0.3045
  281MOL0     C37820   5.982   8.430   5.033 -0.6033 -0.1511  0.5513
  281MOL0     C37821   5.899   8.348   4.939  0.5452  0.3371 -0.1018
  281MOL0     C37822   5.824   8.234   5.003  0.2263 -0.1019  0.2647
  281MOL0     C37823   5.686   8.203   4.944  0.1580 -0.1133 -0.3226
  281MOL0     O37824   5.583   8.290   4.969 -0.0533  0.1333 -0.8577
  281MOL0     C37825   5.562   8.414   4.914 -0.3913 -0.9452  0.0579
  281MOL0     C37826   5.569   8.437   4.775 -1.4437 -0.2925 -0.2125
  281MOL0     C37827   5.575   8.562   4.711  0.5859 -0.5617 -0.5939
  281MOL0     C37828   5.573   8.552   4.563  0.7406  0.3545 -0.3827
  281MOL0     C37829   5.557   8.672   4.799  0.7746 -0.2134  0.4103
  281MOL0     C37830   5.553   8.814   4.744  0.0963 -0.1031 -1.5262
  281MOL0     O37831   5.543   8.838   4.610 -0.6019  0.4904 -0.3558
  281MOL0     C37832   5.441   8.921   4.576  0.2224  0.4017  0.2471
  281MOL0     C37833   5.317   8.864   4.541  0.2034  0.7024  0.0260
  281MOL0     C37834   5.214   8.950   4.502  0.2970  0.2191 -0.3670
  281MOL0     C37835   5.240   9.090   4.484 -0.1195  1.1829 -0.4620
  281MOL0     O37836   5.158   9.190   4.437  0.3520  0.3282  0.1635
  281MOL0     C37837   5.017   9.146   4.424 -0.6051  0.1184  0.4774
  281MOL0     C37838   4.916   9.265   4.398 -0.0101 -0.0052 -0.0830
  281MOL0     C37839   4.934   9.358   4.281 -0.0478 -0.4146 -0.8442
  281MOL0     C37840   4.836   9.480   4.300 -0.4107  1.4147 -0.5626
  281MOL0     C37841   4.826   9.561   4.160  0.1987  0.2199  0.3708
  281MOL0     C37842   4.945   9.650   4.120 -0.9345 -0.5193  0.5615
  281MOL0     C37843   4.922   9.717   3.986  0.8888  0.1043 -0.3928
  281MOL0     C37844   4.941   9.621   3.874  0.2482  0.6430  0.1874
  281MOL0    Cl37845   4.927   9.704   3.721 -0.2321 -0.3702  0.3882
  281MOL0     C37846   5.358   9.134   4.530 -0.7400  0.3838  0.0765
  281MOL0     C37847   5.468   9.055   4.557  0.7555  0.1790 -0.1211
  281MOL0     O37848   5.560   8.898   4.830  0.0875 -0.3689  0.1581
  281MOL0     C37849   5.533   8.653   4.939  1.2599  0.3499  0.0448
  281MOL0     C37850   5.540   8.527   4.999 -0.3719  0.4183 -0.3696
  281MOL0     N37851   6.208   8.318   5.027  0.1307 -0.2335 -0.9367
  281MOL0     N37852   6.284   8.251   5.104  0.7034  1.1411  0.8594
  281MOL0     C37853   5.494   7.964   5.761  0.8842  0.2150  0.7141
  281MOL0     C37854   5.427   8.077   5.816 -0.0688  0.6510  0.1048
  281MOL0     C37855   5.333   8.378   6.135  0.9665 -0.6633  0.0996
  281MOL0     C37856   5.213   8.383   6.218 -0.7483 -0.6249  0.8276
  281MOL0     C37857   5.201   8.493   6.307 -0.7501  0.0170  0.4220
  281MOL0     C37858   5.292   8.598   6.316 -0.0038 -0.5392  0.8195
  281MOL0     O37859   5.290   8.712   6.400 -0.0510  0.3848  0.0444
  281MOL0     C37860   5.168   8.732   6.480  0.0489 -0.4261  1.0518
  281MOL0     C37861   5.170   8.666   6.629 -0.7673 -0.1150  0.7229
  281MOL0     C37862   5.119   8.520   6.645  0.3116  0.2853  1.3054
  281MOL0     C37863   5.114   8.472   6.787  0.4661  0.4486  0.8987
  281MOL0     C37864   5.031   8.563   6.868 -0.2838 -0.2120  0.7740
  281MOL0     C37865   4.966   8.621   6.954 -0.6121  0.1936  0.8421
  281MOL0     C37866   5.399   8.593   6.227 -0.5542  0.2707 -0.0820
  281MOL0     C37867   5.422   8.486   6.136  0.3160 -0.4793  0.1773
  281MOL0     H37868   5.694   8.206   5.986  0.4927 -0.7998 -1.3069
  281MOL0     H37869   5.796   8.006   5.915 -1.1149  2.4036  2.1597
  281MOL0     H37870   5.557   7.704   5.623 -1.5824  1.4944  1.2230
  281MOL0     H37871   5.625   7.857   5.544  0.6000  0.6192  1.6097
  281MOL0     H37872   5.791   7.595   5.594  1.9992 -0.0148 -1.5686
  281MOL0     H37873   5.717   7.660   5.449  0.5389 -1.1542  0.1630
  281MOL0     H37874   5.855   7.873   5.490 -1.6547 -0.1189  0.6433
  281MOL0     H37875   5.935   7.778   5.623  0.6853 -2.9473 -0.2456
  281MOL0     H37876   6.014   7.612   5.424  4.7802 -0.0754 -1.0176
  281MOL0     H37877   5.923   7.714   5.318 -0.0276 -1.2128  1.5055
  281MOL0     H37878   6.157   7.803   5.505 -1.7726  4.2884 -0.0211
  281MOL0     H37879   6.192   7.756   5.344  0.1767  1.0072  0.7267
  281MOL0     H37880   6.059   7.980   5.282  1.3987  1.8114 -0.6136
  281MOL0     H37881   6.043   8.003   5.450  0.0977  0.1614 -0.0024
  281MOL0     H37882   6.310   7.981   5.444  0.9656  1.3135 -0.1048
  281MOL0     H37883   6.297   7.968   5.270  1.9520  0.7775  0.8794
  281MOL0     H37884   6.356   8.186   5.358  0.5622 -1.5018 -2.1924
  281MOL0     H37885   6.203   8.198   5.436  2.8595 -0.6912  1.9835
  281MOL0     H37886   6.013   8.273   5.289  2.0706 -0.5224  1.5617
  281MOL0     H37887   5.917   8.485   5.102 -0.4428 -0.2404  0.7735
  281MOL0     H37888   6.028   8.513   4.980 -0.3200  0.3187  1.5250
  281MOL0     H37889   5.968   8.302   4.868  0.6332 -2.5604  1.7145
  281MOL0     H37890   5.830   8.413   4.885  1.4897  2.0591  0.6679
  281MOL0     H37891   5.806   8.253   5.109 -0.0456  1.5192 -0.0491
  281MOL0     H37892   5.897   8.152   5.000  0.8225  0.3441  1.8264
  281MOL0     H37893   5.648   8.108   4.982 -0.1342  0.8851  2.0449
  281MOL0     H37894   5.701   8.202   4.836  2.0579  1.6976 -0.1463
  281MOL0     H37895   5.579   8.348   4.714 -0.6508  1.0441 -2.1301
  281MOL0     H37896   5.587   8.449   4.530 -3.2761 -1.2012  1.9735
  281MOL0     H37897   5.472   8.576   4.529  1.1693 -0.5890 -2.4465
  281MOL0     H37898   5.649   8.618   4.520  1.8048  0.7418  1.9181
  281MOL0     H37899   5.303   8.757   4.545  0.2986  0.6871 -0.0354
  281MOL0     H37900   5.130   8.893   4.463  0.8562  0.7820 -2.5479
  281MOL0     H37901   5.007   9.066   4.349  3.4265  0.5151 -0.7661
  281MOL0     H37902   4.980   9.095   4.513  4.1148  1.7473  3.7802
  281MOL0     H37903   4.821   9.214   4.379 -0.1704  0.3145 -0.1342
  281MOL0     H37904   4.913   9.320   4.493  0.1671 -0.5297  0.2326
  281MOL0     H37905   4.911   9.305   4.188  1.3075 -1.3755 -0.6532
  281MOL0     H37906   5.038   9.393   4.281 -0.6707  1.9120  2.8075
  281MOL0     H37907   4.741   9.438   4.332  0.4026 -2.7652 -2.7993
  281MOL0     H37908   4.885   9.541   4.376  0.9907 -0.2466 -0.0542
  281MOL0     H37909   4.748   9.634   4.184 -0.4498 -1.0596  2.4663
  281MOL0     H37910   4.788   9.498   4.079 -0.0279 -3.0706  2.8072
  281MOL0     H37911   4.959   9.725   4.199 -1.9339 -0.4304  0.6693
  281MOL0     H37912   5.030   9.582   4.109 -1.9881 -1.6212 -1.3525
  281MOL0     H37913   4.987   9.805   3.976  2.4102 -1.0770 -1.3520
  281MOL0     H37914   4.822   9.760   3.998  1.2395  0.2732  2.4236
  281MOL0     H37915   4.870   9.538   3.880  1.7263 -0.6927 -0.0721
  281MOL0     H37916   5.039   9.572   3.874  0.1689  0.4216  1.6810
  281MOL0     H37917   5.392   9.237   4.520 -2.1165  0.7008 -1.9406
  281MOL0     H37918   5.568   9.088   4.582  1.3515  0.6197 -2.8048
  281MOL0     H37919   5.519   8.738   5.006  2.6591  1.0327 -0.4840
  281MOL0     H37920   5.545   8.505   5.105  1.7063  0.6814 -0.3756
  281MOL0     H37921   5.428   7.912   5.693  0.2212  1.2700  0.5306
  281MOL0     H37922   5.335   8.110   5.769 -0.3074  3.1708  2.1197
  281MOL0     H37923   5.155   8.292   6.233 -2.4385  0.5707  1.9893
  281MOL0     H37924   5.125   8.467   6.380 -0.3608 -3.4915 -0.2288
  281MOL0     H37925   5.160   8.841   6.473 -0.9850 -0.6098 -1.3539
  281MOL0     H37926   5.076   8.701   6.432 -0.0149 -1.5750  1.8774
  281MOL0     H37927   5.107   8.735   6.686 -2.5243  0.3968 -1.6740
  281MOL0     H37928   5.274   8.661   6.665 -1.0593 -0.7955  1.5075
  281MOL0     H37929   5.191   8.456   6.595  0.0451 -0.1200  1.4392
  281MOL0     H37930   5.025   8.519   6.589  1.8138 -1.1996 -1.3972
  281MOL0     H37931   5.215   8.460   6.827  1.6245  1.1557 -1.5982
  281MOL0     H37932   5.068   8.372   6.783 -0.0758  0.7270 -0.6655
  281MOL0     H37933   4.924   8.684   7.030 -1.7747 -0.0229  0.3904
  281MOL0     H37934   5.474   8.672   6.235  1.7760 -1.9387  1.4510
  281MOL0     H37935   5.506   8.485   6.068 -0.4611 -2.3972 -0.8226
  282MOL0     O37936   4.416   5.194   2.741  0.4612 -0.1440  0.0378
  282MOL0     C37937   4.520   5.149   2.713  0.0000  0.3614 -0.4829
  282MOL0     O37938   4.560   5.103   2.588  0.8373  0.0726  0.5238
  282MOL0     C37939   4.477   5.132   2.485 -0.1366  0.0612 -0.3590
  282MOL0     C37940   4.413   5.026   2.412 -0.3464  0.2967  0.3871
  282MOL0     C37941   4.324   5.053   2.309 -0.0421 -0.2081  0.3734
  282MOL0     C37942   4.304   5.185   2.268 -0.6329 -0.4400  0.4942
  282MOL0     O37943   4.220   5.226   2.164 -1.1420  0.0890  0.0810
  282MOL0     C37944   4.246   5.160   2.037 -0.4576 -0.5948 -0.5745
  282MOL0     C37945   4.376   5.202   1.972  0.2665  0.3013  0.4700
  282MOL0     C37946   4.391   5.118   1.837 -0.1097 -0.3264  0.2027
  282MOL0     C37947   4.530   5.073   1.779 -0.3004  0.1765 -0.5278
  282MOL0     C37948   4.550   4.917   1.795 -0.2856  0.6294 -0.3806
  282MOL0     C37949   4.694   4.862   1.762  0.5745 -0.4686  0.9488
  282MOL0     C37950   4.728   4.715   1.824  0.1059  0.5994 -0.4442
  282MOL0     C37951   4.638   4.598   1.765  0.1220 -0.5293 -0.2149
  282MOL0     N37952   4.645   4.585   1.614  0.1230  0.5459 -1.0075
  282MOL0     C37953   4.755   4.609   1.532 -0.2440 -0.4736  0.3417
  282MOL0     C37954   4.703   4.574   1.411  1.2918  0.1362  0.0302
  282MOL0     C37955   4.777   4.584   1.280  0.2401  0.2077  0.5938
  282MOL0     C37956   4.687   4.571   1.164  0.2061  0.7343 -0.2444
  282MOL0     C37957   4.761   4.591   1.026 -0.4670 -0.0833 -0.4514
  282MOL0     C37958   4.671   4.632   0.912 -0.9790 -0.1982  0.3225
  282MOL0     O37959   4.562   4.537   0.895 -1.0058  0.0423 -0.2692
  282MOL0     C37960   4.576   4.445   0.787  1.0941  0.4689 -0.5059
  282MOL0     C37961   4.462   4.425   0.714 -0.6039  0.8327 -0.0769
  282MOL0     C37962   4.457   4.330   0.607  0.5541  0.6316  1.0401
  282MOL0     C37963   4.329   4.324   0.526 -0.1067  0.3289 -0.8358
  282MOL0     C37964   4.571   4.257   0.570 -0.0210  0.1196 -0.4744
  282MOL0     C37965   4.573   4.157   0.448  0.1380  0.0206 -0.0158
  282MOL0     O37966   4.700   4.132   0.401 -0.7887  0.4111  0.0347
  282MOL0     C37967   4.724   4.025   0.312 -0.0471  0.4875  0.2776
  282MOL0     C37968   4.852   3.961   0.319  0.3292  1.3438 -0.4509
  282MOL0     C37969   4.885   3.844   0.245 -0.2646  0.4774 -0.0113
  282MOL0     C37970   4.797   3.795   0.143 -0.1652  0.4123  0.0555
  282MOL0     O37971   4.834   3.675   0.081  1.1473 -1.2682  0.2104
  282MOL0     C37972   4.823   3.659  -0.063  0.2498  0.0297  0.4162
  282MOL0     C37973   4.951   3.584  -0.105 -0.3553  0.0705  0.0768
  282MOL0     C37974   5.069   3.677  -0.065  0.3529  0.4874  0.4314
  282MOL0     C37975   5.202   3.630  -0.136  0.5446 -0.2735 -0.3022
  282MOL0     C37976   5.307   3.743  -0.108  0.9007  0.4227 -0.3149
  282MOL0     C37977   5.435   3.711  -0.184 -0.3877  0.0908  0.2603
  282MOL0     C37978   5.528   3.835  -0.170 -0.1706 -1.3641  1.1594
  282MOL0     C37979   5.674   3.806  -0.202  0.0653 -1.1390  0.7502
  282MOL0    Cl37980   5.698   3.741  -0.390  0.2778 -0.5198  0.1668
  282MOL0     C37981   4.675   3.869   0.125 -0.7752 -0.0361  0.3160
  282MOL0     C37982   4.639   3.979   0.212  0.1118 -0.6316 -0.3096
  282MOL0     O37983   4.465   4.099   0.410  0.0439  0.3973 -0.0138
  282MOL0     C37984   4.681   4.277   0.654  0.9695 -0.2509  0.2807
  282MOL0     C37985   4.687   4.369   0.760 -0.3499  0.3361 -0.0268
  282MOL0     N37986   4.569   4.539   1.419  0.2443  0.3626  0.7984
  282MOL0     N37987   4.536   4.546   1.542  0.2940  0.3059 -0.3773
  282MOL0     C37988   4.355   5.284   2.342  0.2045  0.5983 -0.1992
  282MOL0     C37989   4.431   5.265   2.459  0.6968 -0.0441  0.1788
  282MOL0     C37990   4.604   5.131   2.833 -0.1693  0.2614  0.8217
  282MOL0     C37991   4.733   5.069   2.821  0.3641 -0.4350  0.0025
  282MOL0     C37992   4.805   5.042   2.935  0.9577  0.7639 -0.3007
  282MOL0     C37993   4.758   5.074   3.063 -0.0054  0.0139  0.4141
  282MOL0     O37994   4.832   5.064   3.177 -0.4880 -0.5251 -0.5193
  282MOL0     C37995   4.969   5.018   3.181 -0.1618 -0.2664  0.2635
  282MOL0     C37996   5.075   5.125   3.141  0.3284 -0.1881 -0.0063
  282MOL0     C37997   5.062   5.240   3.240 -0.2519  0.0363 -0.4985
  282MOL0     C37998   5.166   5.339   3.180  0.1120 -0.3742 -0.0009
  282MOL0     C37999   5.171   5.457   3.263 -0.2871 -0.3074  0.6599
  282MOL0     C38000   5.148   5.548   3.339  0.6088 -0.3867  0.6411
  282MOL0     C38001   4.640   5.140   3.072 -0.5111 -0.1157 -0.7550
  282MOL0     C38002   4.561   5.171   2.959  0.0799  0.4150 -0.6006
  282MOL0     H38003   4.433   4.926   2.448 -2.0922  0.0106  0.6175
  282MOL0     H38004   4.260   4.974   2.271 -0.1334  0.3187 -0.6251
  282MOL0     H38005   4.226   5.053   2.042 -0.1179 -0.6670 -0.7385
  282MOL0     H38006   4.165   5.201   1.974  0.1502  0.7175 -0.5457
  282MOL0     H38007   4.379   5.310   1.953 -2.2460  0.5907  1.2602
  282MOL0     H38008   4.467   5.182   2.028  0.3096 -0.4320  0.1544
  282MOL0     H38009   4.333   5.028   1.859 -2.8216  1.1894 -0.2460
  282MOL0     H38010   4.330   5.166   1.759 -1.7022 -1.6771  0.5496
  282MOL0     H38011   4.542   5.093   1.672 -0.8615 -0.9358 -0.8173
  282MOL0     H38012   4.614   5.112   1.837  1.6801 -3.1528 -0.8633
  282MOL0     H38013   4.551   4.893   1.901  1.8931 -0.1981 -0.5336
  282MOL0     H38014   4.471   4.858   1.748 -2.5498  1.9445  1.5506
  282MOL0     H38015   4.707   4.855   1.653 -1.9658 -1.0106  0.6181
  282MOL0     H38016   4.763   4.940   1.795  1.8708 -0.9831 -0.3966
  282MOL0     H38017   4.832   4.692   1.800 -0.1298  0.8053 -1.7411
  282MOL0     H38018   4.710   4.720   1.932 -2.5760 -0.6284 -0.7387
  282MOL0     H38019   4.537   4.610   1.804 -1.4205 -4.3031 -2.5098
  282MOL0     H38020   4.672   4.504   1.809  3.1631  1.1714  1.4685
  282MOL0     H38021   4.861   4.623   1.547 -0.2142  2.4114 -1.6852
  282MOL0     H38022   4.838   4.674   1.273  1.2015 -0.4798 -0.2543
  282MOL0     H38023   4.854   4.505   1.279 -1.3909 -1.4482 -0.2452
  282MOL0     H38024   4.602   4.639   1.175  0.2169  0.7192 -0.0464
  282MOL0     H38025   4.644   4.470   1.173 -1.3029  1.2918 -0.9189
  282MOL0     H38026   4.817   4.501   0.997 -1.3673  0.0936 -2.9930
  282MOL0     H38027   4.841   4.663   1.043 -0.0175 -0.6336 -0.1854
  282MOL0     H38028   4.742   4.656   0.832  1.5538 -0.4399  2.3481
  282MOL0     H38029   4.625   4.727   0.939  2.7862  1.6615  0.8235
  282MOL0     H38030   4.374   4.474   0.754 -0.8254 -0.2727  0.8431
  282MOL0     H38031   4.289   4.222   0.523 -0.7414  0.5031  0.6889
  282MOL0     H38032   4.258   4.396   0.567  0.7636  1.8865 -1.9605
  282MOL0     H38033   4.353   4.350   0.423  1.4958  0.7255 -0.3974
  282MOL0     H38034   4.925   3.983   0.396 -1.2879 -0.2340  1.6490
  282MOL0     H38035   4.977   3.795   0.272 -0.3092  0.7306  0.6069
  282MOL0     H38036   4.727   3.614  -0.090 -0.0299  1.8029 -1.7683
  282MOL0     H38037   4.814   3.756  -0.113 -2.8741 -1.3913 -2.1717
  282MOL0     H38038   4.946   3.490  -0.048 -1.8494  1.8751  3.1326
  282MOL0     H38039   4.948   3.559  -0.212 -1.8661 -0.9979  0.3327
  282MOL0     H38040   5.079   3.681   0.044  2.4204 -2.9357  0.5258
  282MOL0     H38041   5.046   3.776  -0.105  0.2315  1.1834  2.1313
  282MOL0     H38042   5.242   3.539  -0.091 -1.9336 -1.3846 -0.1841
  282MOL0     H38043   5.177   3.609  -0.240  0.3966 -0.0675 -0.3087
  282MOL0     H38044   5.334   3.743  -0.002  0.9890  3.2313 -0.2785
  282MOL0     H38045   5.271   3.839  -0.145 -0.3307 -0.0621 -0.4393
  282MOL0     H38046   5.465   3.619  -0.134 -0.2225 -0.0733 -0.1365
  282MOL0     H38047   5.418   3.680  -0.288  0.0198 -4.0349  1.2915
  282MOL0     H38048   5.516   3.882  -0.072  2.1053 -1.4277  1.5252
  282MOL0     H38049   5.485   3.915  -0.231 -3.0239  0.8102  5.4987
  282MOL0     H38050   5.705   3.721  -0.141  0.5496 -0.8368  0.9302
  282MOL0     H38051   5.737   3.894  -0.188 -0.9271 -0.8462  4.8179
  282MOL0     H38052   4.597   3.833   0.057 -2.0645 -0.2100  1.8373
  282MOL0     H38053   4.547   4.035   0.201  0.5094  0.6281  2.1306
  282MOL0     H38054   4.771   4.222   0.630  0.6502 -1.0195  0.8004
  282MOL0     H38055   4.779   4.379   0.816  0.4123  1.3590 -1.3997
  282MOL0     H38056   4.347   5.387   2.306 -2.8954  0.5279 -0.0473
  282MOL0     H38057   4.463   5.349   2.520 -0.2198  1.0286 -0.7614
  282MOL0     H38058   4.777   5.054   2.724 -1.3913  1.1568 -1.1039
  282MOL0     H38059   4.900   4.991   2.920 -1.7691 -5.0689 -0.6134
  282MOL0     H38060   4.991   4.973   3.278  0.2427  0.3119  0.4451
  282MOL0     H38061   4.979   4.941   3.103 -1.3007 -0.4627  0.2930
  282MOL0     H38062   5.058   5.151   3.036  1.4708  0.2406 -0.0958
  282MOL0     H38063   5.180   5.097   3.143  0.5285  0.5301  2.5747
  282MOL0     H38064   5.085   5.194   3.336 -0.5996 -0.8868 -0.8434
  282MOL0     H38065   4.957   5.271   3.237 -1.3502 -2.6695  3.0404
  282MOL0     H38066   5.147   5.356   3.073 -0.9119 -1.4979 -0.0318
  282MOL0     H38067   5.262   5.290   3.194 -0.3474 -1.9401 -1.8756
  282MOL0     H38068   5.136   5.622   3.416 -3.3025 -0.4385  0.2831
  282MOL0     H38069   4.606   5.184   3.166 -0.9543 -4.7932  1.5882
  282MOL0     H38070   4.465   5.218   2.980 -0.4719  0.3720 -2.8129
  283MOL0     O38071   9.117   0.605   1.251  0.4793 -0.2635  0.1173
  283MOL0     C38072   9.199   0.517   1.222 -0.0146  0.3903 -0.6515
  283MOL0     O38073   9.193   0.388   1.260 -1.1012  0.5142  0.1008
  283MOL0     C38074   9.080   0.343   1.318  0.6448  0.3812  0.1299
  283MOL0     C38075   8.954   0.342   1.247  0.6746 -0.3366  0.6106
  283MOL0     C38076   8.844   0.278   1.319 -0.0310  0.1724  1.8202
  283MOL0     C38077   8.852   0.238   1.450 -0.1827 -0.0233 -0.0535
  283MOL0     O38078   8.745   0.200   1.534 -0.3428  0.1299  0.1580
  283MOL0     C38079   8.627   0.152   1.464 -0.1756 -0.1531 -0.0627
  283MOL0     C38080   8.536   0.063   1.555 -0.3639  0.1118 -0.0333
  283MOL0     C38081   8.505   0.126   1.690 -0.0257 -0.1833 -0.1754
  283MOL0     C38082   8.482   0.019   1.800 -0.4357  0.4042  0.9876
  283MOL0     C38083   8.362  -0.065   1.765 -0.2203  0.4340  0.0549
  283MOL0     C38084   8.327  -0.141   1.897  0.5957 -0.1589 -0.6838
  283MOL0     C38085   8.290  -0.283   1.854 -0.0288 -0.0865 -1.6656
  283MOL0     C38086   8.165  -0.291   1.772  1.1450 -0.4150 -0.7472
  283MOL0     N38087   8.057  -0.225   1.843  0.0380 -0.5074  0.1845
  283MOL0     C38088   8.022  -0.245   1.979 -0.1692  1.4023  0.3318
  283MOL0     C38089   7.937  -0.149   2.013  0.6619 -0.2136  1.1102
  283MOL0     C38090   7.883  -0.129   2.149 -0.2055  0.3514  0.1157
  283MOL0     C38091   7.762  -0.210   2.170 -0.2418 -0.6218  0.0540
  283MOL0     C38092   7.697  -0.153   2.298  0.1160  0.6322 -0.8427
  283MOL0     C38093   7.592  -0.253   2.357  0.0681  0.2248 -1.5780
  283MOL0     O38094   7.522  -0.199   2.469 -0.2720  0.9411 -0.1892
  283MOL0     C38095   7.404  -0.122   2.460 -0.3031  0.0031 -0.0878
  283MOL0     C38096   7.357  -0.067   2.579  0.6502  0.0826  0.5168
  283MOL0     C38097   7.238   0.009   2.580  0.4749 -0.2863 -0.3129
  283MOL0     C38098   7.193   0.065   2.711  0.2273  0.2993 -0.2725
  283MOL0     C38099   7.180   0.038   2.457 -0.0267 -0.0491 -0.1124
  283MOL0     C38100   7.060   0.124   2.443 -0.4222  1.3975  0.0104
  283MOL0     O38101   6.991   0.181   2.548  0.4770  0.0870  0.1964
  283MOL0     C38102   6.868   0.243   2.525  0.2946 -0.4077  0.2049
  283MOL0     C38103   6.864   0.376   2.486 -0.1339  0.9572  0.2657
  283MOL0     C38104   6.733   0.428   2.460  0.5546  0.6473 -0.4138
  283MOL0     C38105   6.615   0.356   2.463 -0.2434 -0.7544  0.6684
  283MOL0     O38106   6.500   0.430   2.445 -0.5980  0.2013  0.4420
  283MOL0     C38107   6.381   0.350   2.428  0.8892  0.2966  0.6423
  283MOL0     C38108   6.263   0.445   2.446  0.0169  0.3960  0.1335
  283MOL0     C38109   6.250   0.526   2.576 -0.9982  0.4282  0.0111
  283MOL0     C38110   6.107   0.561   2.632 -0.2053 -0.6821  0.8764
  283MOL0     C38111   6.113   0.659   2.748 -0.3324  0.9266  0.6531
  283MOL0     C38112   5.976   0.678   2.823 -0.1222  0.6459 -0.0058
  283MOL0     C38113   5.979   0.815   2.891  0.5474  0.2612  1.1324
  283MOL0     C38114   5.857   0.846   2.977 -0.7628  0.3018 -0.6410
  283MOL0    Cl38115   5.718   0.857   2.874  0.3233  0.1502 -0.0499
  283MOL0     C38116   6.633   0.224   2.497 -0.0538 -0.3668  0.0847
  283MOL0     C38117   6.754   0.170   2.537 -0.0629 -0.2688  0.0192
  283MOL0     O38118   7.022   0.134   2.327  0.3769 -0.1409  0.0370
  283MOL0     C38119   7.238  -0.011   2.338  0.7226 -0.0749 -0.2972
  283MOL0     C38120   7.343  -0.095   2.335  0.1052 -1.0334  0.4505
  283MOL0     N38121   7.907  -0.077   1.896  0.8929 -1.0751 -0.6602
  283MOL0     N38122   7.985  -0.115   1.798 -0.7529 -0.0214  0.7076
  283MOL0     C38123   8.972   0.245   1.514 -1.1472  0.2346 -0.0151
  283MOL0     C38124   9.086   0.293   1.451 -0.3578  0.1420 -0.1310
  283MOL0     C38125   9.317   0.563   1.144  0.2633 -0.2032  0.2968
  283MOL0     C38126   9.325   0.700   1.103 -0.9120 -0.5680  0.6281
  283MOL0     C38127   9.429   0.757   1.025 -0.1956 -0.3385  0.0896
  283MOL0     C38128   9.544   0.677   0.997  0.0178 -0.1031 -0.7701
  283MOL0     O38129   9.652   0.719   0.918  0.4302 -0.1442 -0.8202
  283MOL0     C38130   9.755   0.796   0.981  0.1356 -1.2554  0.7297
  283MOL0     C38131   9.838   0.717   1.086  0.0872 -0.4821  1.2248
  283MOL0     C38132   9.896   0.582   1.045 -0.0240 -0.0116  0.5068
  283MOL0     C38133  10.011   0.585   0.947 -0.1627  0.0828  0.3450
  283MOL0     C38134  10.001   0.467   0.858 -0.2713 -0.2784 -0.5949
  283MOL0     C38135   9.979   0.381   0.777 -0.1710  0.8001  0.5016
  283MOL0     C38136   9.540   0.541   1.045  0.3837 -0.0787  0.5406
  283MOL0     C38137   9.429   0.487   1.111  0.3047 -0.5175 -0.1854
  283MOL0     H38138   8.947   0.388   1.150  4.0243  2.9708  1.7025
  283MOL0     H38139   8.748   0.267   1.271  1.4016 -1.2757 -0.9778
  283MOL0     H38140   8.573   0.232   1.413  3.0276  2.2908  0.0929
  283MOL0     H38141   8.652   0.079   1.386 -1.5111 -1.4110  0.6270
  283MOL0     H38142   8.447   0.035   1.498 -0.1407 -0.8629  0.0792
  283MOL0     H38143   8.603  -0.022   1.567  1.3147  1.3784  0.0010
  283MOL0     H38144   8.577   0.196   1.731 -0.8178  2.3787 -2.8238
  283MOL0     H38145   8.424   0.198   1.678  0.3717  0.7115  2.1617
  283MOL0     H38146   8.573  -0.039   1.818 -1.4392 -1.1799  1.2239
  283MOL0     H38147   8.464   0.064   1.897 -0.0140 -1.9586  2.2425
  283MOL0     H38148   8.272  -0.010   1.733  0.9411  0.5448 -3.4656
  283MOL0     H38149   8.377  -0.130   1.678 -2.6278 -1.4312  0.8882
  283MOL0     H38150   8.416  -0.156   1.959 -0.3193 -0.6970  0.5276
  283MOL0     H38151   8.240  -0.094   1.943 -0.3900 -0.3782 -2.2289
  283MOL0     H38152   8.372  -0.329   1.798  1.1702  2.1973 -1.8892
  283MOL0     H38153   8.289  -0.339   1.948 -0.6758 -0.8239 -2.0931
  283MOL0     H38154   8.142  -0.396   1.752  1.5187 -1.3093  2.7941
  283MOL0     H38155   8.180  -0.240   1.677 -1.6255 -0.1928 -1.1398
  283MOL0     H38156   8.033  -0.334   2.041 -1.4654  2.1999  1.7662
  283MOL0     H38157   7.952  -0.164   2.225  0.0400  0.5560 -0.0122
  283MOL0     H38158   7.854  -0.024   2.163 -0.6864  0.4988 -1.7101
  283MOL0     H38159   7.792  -0.314   2.182  0.5590 -0.5397 -1.0396
  283MOL0     H38160   7.695  -0.204   2.084  1.4505  1.6005 -1.2441
  283MOL0     H38161   7.632  -0.067   2.278  1.3687  2.0811  0.9561
  283MOL0     H38162   7.781  -0.128   2.363  0.1707 -0.9867 -0.2465
  283MOL0     H38163   7.646  -0.336   2.402 -2.7883 -0.1690  1.5475
  283MOL0     H38164   7.523  -0.290   2.281  0.5217 -0.4814 -1.6556
  283MOL0     H38165   7.413  -0.082   2.671  3.8487  2.3367 -0.8593
  283MOL0     H38166   7.168   0.171   2.699 -1.1182  0.1609  1.0380
  283MOL0     H38167   7.102   0.023   2.753  0.7928 -0.6460  0.0316
  283MOL0     H38168   7.267   0.040   2.789 -0.5702 -2.4596 -0.2975
  283MOL0     H38169   6.963   0.418   2.475  0.0377  0.0906 -2.0027
  283MOL0     H38170   6.717   0.533   2.440 -0.6135  0.8506  1.3289
  283MOL0     H38171   6.363   0.299   2.333  2.4607 -0.7663  0.8689
  283MOL0     H38172   6.372   0.272   2.505 -1.4463  0.6397  0.7880
  283MOL0     H38173   6.258   0.516   2.362 -0.1648  1.5437  1.0944
  283MOL0     H38174   6.171   0.386   2.456 -0.5702  1.1232 -0.8000
  283MOL0     H38175   6.308   0.618   2.561 -1.0205  0.9215  2.4303
  283MOL0     H38176   6.319   0.478   2.646  1.2499 -0.1725 -2.4577
  283MOL0     H38177   6.046   0.605   2.552 -2.5610 -2.6512  1.5154
  283MOL0     H38178   6.052   0.469   2.648 -0.7050 -0.5034  0.2195
  283MOL0     H38179   6.153   0.753   2.707  0.2899 -0.2886 -1.6980
  283MOL0     H38180   6.183   0.627   2.826 -0.3855  0.6060  0.5701
  283MOL0     H38181   5.906   0.682   2.739  1.3946  0.3926 -1.3302
  283MOL0     H38182   5.955   0.594   2.890 -1.6553 -0.6420 -1.9548
  283MOL0     H38183   6.002   0.892   2.817 -1.0112 -1.1651 -0.9576
  283MOL0     H38184   6.066   0.828   2.956  1.8353 -0.1879 -0.4443
  283MOL0     H38185   5.876   0.941   3.028  0.3604  1.4857 -3.0442
  283MOL0     H38186   5.842   0.772   3.056 -1.2549  0.6679 -0.3879
  283MOL0     H38187   6.548   0.160   2.519 -1.1566  0.4948 -1.5369
  283MOL0     H38188   6.756   0.066   2.570 -0.7914  0.2754  1.9176
  283MOL0     H38189   7.198   0.029   2.246  2.7098  2.6697 -0.0869
  283MOL0     H38190   7.378  -0.122   2.235 -0.5208  3.1829 -1.0860
  283MOL0     H38191   8.975   0.211   1.617 -0.1485  0.6062  0.0802
  283MOL0     H38192   9.176   0.298   1.512  0.0371  0.5863 -0.7402
  283MOL0     H38193   9.247   0.772   1.125 -2.5166 -2.4957  1.5674
  283MOL0     H38194   9.409   0.850   0.972  2.5721  1.1780  1.4796
  283MOL0     H38195   9.819   0.848   0.909  0.4683 -1.8625  0.5825
  283MOL0     H38196   9.701   0.874   1.036 -0.8864  0.0403 -1.8989
  283MOL0     H38197   9.774   0.697   1.172  2.6753 -1.9732  2.9687
  283MOL0     H38198   9.921   0.781   1.119  0.5843  0.5212 -1.6730
  283MOL0     H38199   9.819   0.521   0.996  1.2803  1.0920 -3.2476
  283MOL0     H38200   9.922   0.540   1.142  0.0520  1.0265  0.9525
  283MOL0     H38201  10.104   0.567   1.002 -0.7268 -1.0607  0.9691
  283MOL0     H38202  10.018   0.681   0.895 -0.5745  0.4736  0.9903
  283MOL0     H38203   9.964   0.309   0.699 -2.0033  0.1502  1.3800
  283MOL0     H38204   9.625   0.479   1.018  0.0499 -0.8302  1.1881
  283MOL0     H38205   9.425   0.384   1.145  0.6089 -0.9249 -1.3412
  284MOL0     O38206   9.479   6.855   1.722  0.1304 -0.0074  0.4586
  284MOL0     C38207   9.576   6.778   1.738  0.4350 -0.0357 -0.5526
  284MOL0     O38208   9.654   6.724   1.648 -1.0269 -0.0896 -0.9604
  284MOL0     C38209   9.614   6.722   1.516 -0.6491  1.4596  0.5778
  284MOL0     C38210   9.712   6.766   1.431  0.6662  0.3866  0.5868
  284MOL0     C38211   9.675   6.780   1.300 -0.0616 -0.5435  1.1355
  284MOL0     C38212   9.546   6.755   1.252 -0.5115 -0.1598  0.2294
  284MOL0     O38213   9.513   6.796   1.126  0.2266 -0.6863  0.3976
  284MOL0     C38214   9.390   6.756   1.067  1.1272 -0.0278  0.2819
  284MOL0     C38215   9.400   6.769   0.917 -0.0710 -0.1880  0.1709
  284MOL0     C38216   9.494   6.674   0.849  0.4455 -0.9845 -0.2528
  284MOL0     C38217   9.534   6.722   0.706 -0.4966  0.4197  0.0613
  284MOL0     C38218   9.464   6.649   0.592 -0.3018  0.1038 -0.0526
  284MOL0     C38219   9.536   6.520   0.558 -0.2323  0.3177 -0.3057
  284MOL0     C38220   9.461   6.424   0.456 -0.3123 -0.2083 -0.5347
  284MOL0     C38221   9.432   6.492   0.321  1.4175  0.6200 -0.2419
  284MOL0     N38222   9.354   6.408   0.224  0.2256  0.9460  0.6988
  284MOL0     C38223   9.402   6.357   0.109 -0.8276 -0.1555 -1.1491
  284MOL0     C38224   9.331   6.251   0.075  0.0348 -0.6229 -0.2733
  284MOL0     C38225   9.349   6.161  -0.047  0.2516  0.2366 -0.3911
  284MOL0     C38226   9.404   6.016  -0.036  0.1101  0.6130  0.5188
  284MOL0     C38227   9.513   5.998   0.062 -0.3620  0.6856  0.7195
  284MOL0     C38228   9.625   6.102   0.093 -0.2471  0.5527  0.4976
  284MOL0     O38229   9.671   6.169  -0.028 -0.4823 -0.1133  0.4081
  284MOL0     C38230   9.788   6.107  -0.076  0.8641 -0.2468  0.6202
  284MOL0     C38231   9.858   6.189  -0.166 -0.0525  0.3391 -0.0616
  284MOL0     C38232   9.959   6.141  -0.251  0.0265  0.5983  0.4204
  284MOL0     C38233  10.018   6.233  -0.350  0.7329  0.0164 -0.3426
  284MOL0     C38234   9.986   6.002  -0.241 -0.0219 -0.1687 -0.6490
  284MOL0     C38235  10.061   5.929  -0.339 -0.5115 -1.2112 -0.2307
  284MOL0     O38236  10.156   5.842  -0.284 -0.4049  0.4551 -0.4356
  284MOL0     C38237  10.260   5.800  -0.354  0.0652  1.1820  0.3521
  284MOL0     C38238  10.359   5.886  -0.406  0.9887 -0.4184 -0.4737
  284MOL0     C38239  10.475   5.833  -0.469 -1.1502  0.4531 -0.1950
  284MOL0     C38240  10.486   5.689  -0.487 -0.2594  0.5370  0.8184
  284MOL0     O38241  10.587   5.624  -0.560 -0.1016 -0.0333 -0.0187
  284MOL0     C38242  10.695   5.705  -0.622 -0.1248 -0.4379 -0.0566
  284MOL0     C38243  10.820   5.687  -0.542 -0.3895  0.6730  0.6185
  284MOL0     C38244  10.936   5.764  -0.608 -0.2166  0.1316  0.2601
  284MOL0     C38245  10.925   5.921  -0.616 -1.0581  1.3977 -0.4636
  284MOL0     C38246  11.050   5.978  -0.677 -0.1041  0.3821  0.8287
  284MOL0     C38247  11.037   6.115  -0.736  0.3775 -0.1373  0.4439
  284MOL0     C38248  11.159   6.148  -0.823 -0.3903  0.3087  0.2044
  284MOL0     C38249  11.150   6.283  -0.884 -0.1666  0.6230  0.7483
  284MOL0    Cl38250  11.172   6.423  -0.779  0.0036 -0.1944  0.0249
  284MOL0     C38251  10.393   5.608  -0.418 -0.9657  0.1744 -1.0963
  284MOL0     C38252  10.276   5.663  -0.363  0.1616 -1.4084 -0.7273
  284MOL0     O38253  10.061   5.956  -0.460 -1.1253 -0.0365  0.0807
  284MOL0     C38254   9.932   5.925  -0.135  0.5322  0.4507 -0.4268
  284MOL0     C38255   9.822   5.969  -0.062  0.8521  1.5295  0.0408
  284MOL0     N38256   9.225   6.243   0.169  0.5197 -0.7022 -0.6354
  284MOL0     N38257   9.241   6.339   0.258 -0.0701  0.0138 -0.4998
  284MOL0     C38258   9.455   6.701   1.342  0.2575  0.1997  0.6382
  284MOL0     C38259   9.489   6.669   1.473 -0.3934  0.0885 -0.0132
  284MOL0     C38260   9.608   6.738   1.876 -0.5194 -0.7001 -0.1672
  284MOL0     C38261   9.536   6.771   1.994 -0.1479 -0.9687 -0.5171
  284MOL0     C38262   9.583   6.734   2.126  0.7377  0.4218  0.1981
  284MOL0     C38263   9.689   6.652   2.142 -0.0110 -0.4386  0.6790
  284MOL0     O38264   9.728   6.600   2.266  0.0111 -0.4559  0.5012
  284MOL0     C38265   9.655   6.496   2.323 -0.3850  0.5354  0.1331
  284MOL0     C38266   9.701   6.365   2.254 -0.7503  0.0890 -0.1610
  284MOL0     C38267   9.800   6.283   2.340 -0.0654 -0.7583 -0.7972
  284MOL0     C38268   9.725   6.206   2.445 -0.0326  0.5719  0.3584
  284MOL0     C38269   9.674   6.086   2.381  0.5195 -0.3199 -1.1148
  284MOL0     C38270   9.665   5.978   2.322 -0.3734  0.3819  0.1471
  284MOL0     C38271   9.763   6.621   2.027  0.1276  0.4844 -0.5506
  284MOL0     C38272   9.727   6.656   1.897  0.4221  0.3417 -0.4732
  284MOL0     H38273   9.804   6.817   1.454  1.3786 -1.3588  1.8440
  284MOL0     H38274   9.744   6.826   1.229 -0.0382 -1.6575  0.4044
  284MOL0     H38275   9.354   6.654   1.086 -1.2490  0.3929 -1.5515
  284MOL0     H38276   9.314   6.826   1.102  1.3173  0.2800  0.0801
  284MOL0     H38277   9.299   6.760   0.876 -0.3804  2.4862  0.1838
  284MOL0     H38278   9.429   6.870   0.888  0.0826 -0.0107  0.9234
  284MOL0     H38279   9.585   6.661   0.909 -0.5752  0.5909  1.7537
  284MOL0     H38280   9.435   6.582   0.841 -0.4254 -0.5162  0.6094
  284MOL0     H38281   9.514   6.829   0.705 -1.4510  0.2440 -0.4369
  284MOL0     H38282   9.643   6.719   0.695 -0.6647  0.1694 -2.0593
  284MOL0     H38283   9.364   6.622   0.626  0.1593 -3.9671 -1.2863
  284MOL0     H38284   9.472   6.710   0.502 -2.3970  0.8719  0.2418
  284MOL0     H38285   9.636   6.528   0.515 -0.9530 -2.2934 -2.8317
  284MOL0     H38286   9.539   6.471   0.655 -1.0160 -0.2937 -0.5749
  284MOL0     H38287   9.523   6.335   0.440 -0.1049 -0.0012 -0.8926
  284MOL0     H38288   9.363   6.385   0.487 -1.2210  0.5238 -2.3928
  284MOL0     H38289   9.525   6.531   0.279  1.6375  0.1177 -0.2295
  284MOL0     H38290   9.366   6.578   0.338 -2.4411 -1.7295 -1.8742
  284MOL0     H38291   9.490   6.390   0.054 -0.6812 -0.9724 -1.4088
  284MOL0     H38292   9.256   6.156  -0.105 -0.2720 -1.6380  0.5409
  284MOL0     H38293   9.416   6.214  -0.115 -0.1439 -0.7609 -1.6121
  284MOL0     H38294   9.427   5.977  -0.136  0.4641  1.1429  0.3891
  284MOL0     H38295   9.315   5.959  -0.007  0.1377  0.3631  0.1205
  284MOL0     H38296   9.561   5.906   0.027  0.4836  1.1627  0.5861
  284MOL0     H38297   9.472   5.965   0.158  0.1831 -0.2436  0.6432
  284MOL0     H38298   9.704   6.061   0.156  1.1074  0.8575 -0.9346
  284MOL0     H38299   9.585   6.183   0.154  0.9792  1.7906 -0.2808
  284MOL0     H38300   9.820   6.289  -0.186 -3.0520 -1.1562 -2.8396
  284MOL0     H38301   9.972   6.202  -0.444  0.2405 -0.0791 -0.0727
  284MOL0     H38302  10.005   6.342  -0.346  1.2854  0.2303 -2.8750
  284MOL0     H38303  10.123   6.202  -0.352  0.2017 -2.3371  1.9202
  284MOL0     H38304  10.360   5.993  -0.386 -1.2759 -0.5357  0.4926
  284MOL0     H38305  10.547   5.905  -0.506 -0.7748  0.4627  0.5351
  284MOL0     H38306  10.716   5.673  -0.725  1.1016  2.6095 -0.8420
  284MOL0     H38307  10.659   5.808  -0.632  0.0074 -0.5523 -2.1628
  284MOL0     H38308  10.798   5.714  -0.438  0.2055  0.1789  0.8839
  284MOL0     H38309  10.846   5.580  -0.541  1.5348  1.1072  0.6751
  284MOL0     H38310  10.932   5.734  -0.713 -2.4792 -1.3831  0.7165
  284MOL0     H38311  11.035   5.729  -0.578  1.1491  2.0232 -1.6828
  284MOL0     H38312  10.838   5.945  -0.678 -0.8878 -1.0810 -1.7754
  284MOL0     H38313  10.912   5.956  -0.513  1.4341  1.2633 -0.0477
  284MOL0     H38314  11.077   5.903  -0.752 -2.2916 -1.0176  1.3537
  284MOL0     H38315  11.135   5.975  -0.608  1.3972  0.3175 -0.9484
  284MOL0     H38316  10.960   6.117  -0.814  1.8136  0.5626 -1.0101
  284MOL0     H38317  11.017   6.180  -0.651  1.0835  0.0575  0.4613
  284MOL0     H38318  11.166   6.068  -0.897  0.5561  0.9863 -0.4743
  284MOL0     H38319  11.245   6.152  -0.755  0.4030 -3.6726 -0.2991
  284MOL0     H38320  11.047   6.290  -0.921  0.6357  0.4479 -1.6819
  284MOL0     H38321  11.217   6.310  -0.966 -0.6921  1.3944  0.5684
  284MOL0     H38322  10.391   5.500  -0.410 -2.5366  0.3117  1.8606
  284MOL0     H38323  10.200   5.592  -0.335 -1.3463  0.8549  1.3267
  284MOL0     H38324   9.951   5.818  -0.125  1.4910  0.3612 -2.6945
  284MOL0     H38325   9.763   5.898  -0.005  0.7746  0.1117 -1.7114
  284MOL0     H38326   9.351   6.689   1.314  0.6346 -0.0364 -0.7302
  284MOL0     H38327   9.409   6.631   1.536  1.3931  0.5593  2.6721
  284MOL0     H38328   9.447   6.833   1.994  1.7985  2.5125  4.9016
  284MOL0     H38329   9.533   6.765   2.217  0.0173 -0.4954  0.1256
  284MOL0     H38330   9.657   6.492   2.432 -0.2875  0.3921  0.1276
  284MOL0     H38331   9.554   6.522   2.289 -0.0914  0.1531 -1.0968
  284MOL0     H38332   9.746   6.389   2.157  1.0003  0.7199  0.7731
  284MOL0     H38333   9.612   6.306   2.229 -1.0379 -0.7871  2.6307
  284MOL0     H38334   9.863   6.358   2.389  3.5388 -3.4474 -0.9618
  284MOL0     H38335   9.867   6.216   2.286  2.0014  0.3546  0.2516
  284MOL0     H38336   9.652   6.267   2.499 -0.8183 -0.6670  0.7461
  284MOL0     H38337   9.802   6.158   2.507  1.9079 -1.3591 -3.1650
  284MOL0     H38338   9.670   5.911   2.238 -2.4839  0.3194  0.0241
  284MOL0     H38339   9.854   6.562   2.037  0.4377  0.3184 -3.4773
  284MOL0     H38340   9.794   6.635   1.815 -0.8832  2.5564 -2.2346
  285MOL0     O38341   0.256   6.568   7.812  0.3611 -0.9104 -0.4440
  285MOL0     C38342   0.360   6.512   7.800 -0.5994  0.0513  0.6761
  285MOL0     O38343   0.384   6.403   7.714  0.3810 -0.1273 -0.4069
  285MOL0     C38344   0.282   6.390   7.622  0.2714 -0.7682  0.8932
  285MOL0     C38345   0.256   6.488   7.524 -0.4359 -0.9255 -0.6580
  285MOL0     C38346   0.166   6.476   7.418 -0.2021 -0.2866  0.2236
  285MOL0     C38347   0.076   6.373   7.427  0.3496 -0.3593  0.3272
  285MOL0     O38348   0.001   6.354   7.312 -0.3076  0.0897  0.0975
  285MOL0     C38349  -0.125   6.417   7.297  0.3969 -0.0293 -0.1843
  285MOL0     C38350  -0.167   6.444   7.154 -1.0670 -0.0443 -0.0511
  285MOL0     C38351  -0.191   6.314   7.070  0.5081  0.1935 -0.3036
  285MOL0     C38352  -0.103   6.311   6.945 -1.1232 -0.0386 -0.6263
  285MOL0     C38353  -0.146   6.194   6.852 -0.3082 -0.3749 -0.3059
  285MOL0     C38354  -0.081   6.202   6.708 -0.4435  0.1686 -0.3758
  285MOL0     C38355  -0.128   6.106   6.598  0.7544 -0.0597  0.7512
  285MOL0     C38356  -0.071   5.960   6.621  0.0022 -0.3153  0.2216
  285MOL0     N38357  -0.111   5.869   6.514  0.0399  0.1977 -0.5934
  285MOL0     C38358  -0.054   5.880   6.388  0.2800 -0.1045 -0.5633
  285MOL0     C38359  -0.121   5.786   6.325  0.3854  0.1748 -0.4777
  285MOL0     C38360  -0.081   5.710   6.198  0.7920  0.6433 -0.1826
  285MOL0     C38361  -0.179   5.750   6.088 -0.9700  0.2009  0.5473
  285MOL0     C38362  -0.127   5.870   6.008  0.0730 -0.1786 -0.5676
  285MOL0     C38363  -0.244   5.929   5.930 -0.4769 -0.5781  0.3121
  285MOL0     O38364  -0.272   5.857   5.814 -0.4059  0.4656 -0.7174
  285MOL0     C38365  -0.394   5.783   5.816 -0.5077  0.6306 -0.3650
  285MOL0     C38366  -0.525   5.847   5.828 -0.1943 -0.2572 -0.5321
  285MOL0     C38367  -0.639   5.761   5.820  0.0424 -0.2462 -0.5910
  285MOL0     C38368  -0.767   5.830   5.864  0.6015  0.0058  0.1783
  285MOL0     C38369  -0.625   5.619   5.794  0.0319 -1.0891 -0.2181
  285MOL0     C38370  -0.739   5.524   5.786 -0.9689 -0.7043 -1.3591
  285MOL0     O38371  -0.708   5.392   5.790 -1.1628 -0.4814 -0.0648
  285MOL0     C38372  -0.806   5.302   5.759  0.1095 -1.0488 -0.5347
  285MOL0     C38373  -0.852   5.276   5.629  0.2901 -0.7818 -0.5784
  285MOL0     C38374  -0.946   5.177   5.602 -0.5789 -0.5179 -0.2046
  285MOL0     C38375  -0.994   5.100   5.704  0.3609 -0.3962  0.0311
  285MOL0     O38376  -1.098   5.010   5.675  0.2476 -0.3394 -0.0744
  285MOL0     C38377  -1.053   4.874   5.679 -0.1433 -0.5823  0.8192
  285MOL0     C38378  -1.069   4.807   5.540 -0.8140  0.0534 -0.7062
  285MOL0     C38379  -0.970   4.862   5.437 -0.1440  0.2147 -0.3016
  285MOL0     C38380  -1.003   4.819   5.297 -0.2011 -0.6198  0.2971
  285MOL0     C38381  -0.977   4.675   5.264 -0.1406  0.1816  0.1015
  285MOL0     C38382  -1.026   4.651   5.120  0.7804 -0.1670 -0.4038
  285MOL0     C38383  -1.180   4.628   5.113  0.5106 -0.9180  0.2058
  285MOL0     C38384  -1.225   4.489   5.052 -0.5826 -0.4683  0.6759
  285MOL0    Cl38385  -1.192   4.382   5.187  0.1478 -0.4448 -0.2116
  285MOL0     C38386  -0.959   5.127   5.836 -0.5938  0.7892 -0.1700
  285MOL0     C38387  -0.870   5.234   5.860 -0.4899 -0.2273 -0.1473
  285MOL0     O38388  -0.853   5.575   5.780  0.3741 -0.1327  0.0253
  285MOL0     C38389  -0.495   5.565   5.775  0.0284 -0.1032 -0.5406
  285MOL0     C38390  -0.385   5.644   5.789 -1.2507  0.4388 -1.3313
  285MOL0     N38391  -0.223   5.738   6.402 -0.3556  0.9897  0.2592
  285MOL0     N38392  -0.212   5.791   6.519 -0.3061  0.6477  0.7299
  285MOL0     C38393   0.081   6.287   7.537  0.1754  0.0640  0.3550
  285MOL0     C38394   0.183   6.295   7.632  0.8079 -0.9327  0.8394
  285MOL0     C38395   0.476   6.555   7.885  0.4005 -0.2229  0.2468
  285MOL0     C38396   0.593   6.478   7.887 -0.7197 -0.0441 -0.5638
  285MOL0     C38397   0.702   6.524   7.965 -0.1776 -0.2306  1.5395
  285MOL0     C38398   0.702   6.644   8.027  0.1250 -0.0607 -1.0320
  285MOL0     O38399   0.821   6.675   8.091  0.5181 -0.4446  0.3755
  285MOL0     C38400   0.903   6.783   8.058  2.1922 -0.6292 -0.5385
  285MOL0     C38401   1.019   6.720   7.992 -0.6834  0.1938 -0.3877
  285MOL0     C38402   1.126   6.818   7.961 -0.2447  0.0981  0.1079
  285MOL0     C38403   1.223   6.840   8.075 -0.7239  0.3346 -0.4136
  285MOL0     C38404   1.330   6.929   8.040  0.4133  0.7631  0.8010
  285MOL0     C38405   1.410   7.016   8.010  0.5959  0.1434  0.2688
  285MOL0     C38406   0.582   6.718   8.033 -0.8568 -0.7586 -0.0974
  285MOL0     C38407   0.472   6.669   7.966 -0.0532 -0.1162  0.3891
  285MOL0     H38408   0.317   6.578   7.528 -0.7915 -0.7063 -0.1295
  285MOL0     H38409   0.167   6.526   7.321  1.4734  0.7563  0.7405
  285MOL0     H38410  -0.202   6.361   7.350  0.3695  2.2212  2.3797
  285MOL0     H38411  -0.122   6.517   7.339  1.4100  0.4644 -1.3708
  285MOL0     H38412  -0.261   6.501   7.156 -1.9060 -1.3993  1.5467
  285MOL0     H38413  -0.092   6.509   7.108 -1.3358  0.3638  0.0819
  285MOL0     H38414  -0.164   6.223   7.125 -0.7905  0.3427  0.6266
  285MOL0     H38415  -0.293   6.309   7.033  0.2657  2.5261 -0.0716
  285MOL0     H38416  -0.110   6.402   6.886 -1.6742  2.6299  3.1793
  285MOL0     H38417  -0.003   6.290   6.983 -1.4884 -1.7627 -0.5146
  285MOL0     H38418  -0.113   6.108   6.911 -2.3960 -1.6609 -0.9031
  285MOL0     H38419  -0.255   6.191   6.847 -0.2773 -3.8774 -2.3996
  285MOL0     H38420  -0.097   6.304   6.671  1.0845 -0.3904 -2.7933
  285MOL0     H38421   0.026   6.203   6.731 -0.8241  1.1321  1.6105
  285MOL0     H38422  -0.237   6.102   6.604  0.6487  1.9850  0.8071
  285MOL0     H38423  -0.100   6.140   6.498  0.6087  3.4368  1.7839
  285MOL0     H38424  -0.108   5.924   6.718 -0.2379 -0.5612  0.0402
  285MOL0     H38425   0.037   5.970   6.629  0.1465  2.0412 -2.7606
  285MOL0     H38426   0.035   5.931   6.352 -0.5627  0.7355 -1.4904
  285MOL0     H38427   0.019   5.739   6.166  0.2610  3.2139  0.1987
  285MOL0     H38428  -0.096   5.605   6.225 -1.2090  1.0926  0.6484
  285MOL0     H38429  -0.273   5.782   6.134 -0.0317  3.0138  0.7132
  285MOL0     H38430  -0.194   5.666   6.020  0.8191 -0.0707  0.4438
  285MOL0     H38431  -0.045   5.846   5.940  0.9128 -1.5044  0.8422
  285MOL0     H38432  -0.095   5.947   6.079 -2.5657  1.7657 -1.3273
  285MOL0     H38433  -0.205   6.027   5.900 -1.8155 -0.2081 -0.2836
  285MOL0     H38434  -0.329   5.950   5.994  0.0991  1.2583  0.5310
  285MOL0     H38435  -0.531   5.951   5.857  0.3712  0.2353 -2.0975
  285MOL0     H38436  -0.759   5.935   5.892 -2.9620  0.4712 -0.1024
  285MOL0     H38437  -0.841   5.820   5.784  1.1857 -3.4259 -0.1223
  285MOL0     H38438  -0.810   5.781   5.952  0.0580  0.8695  0.4076
  285MOL0     H38439  -0.793   5.332   5.557 -0.2086  0.1009 -0.3193
  285MOL0     H38440  -0.976   5.157   5.500  1.6010  2.7642 -1.6524
  285MOL0     H38441  -0.948   4.860   5.704  0.9340 -0.8295 -3.2599
  285MOL0     H38442  -1.117   4.814   5.746 -1.9426  0.2136 -0.1079
  285MOL0     H38443  -1.049   4.700   5.552 -0.1473  0.1599 -0.8681
  285MOL0     H38444  -1.170   4.817   5.500 -0.4410  0.4250 -1.5766
  285MOL0     H38445  -0.867   4.832   5.458 -1.0289 -2.8566  0.1280
  285MOL0     H38446  -0.969   4.972   5.443 -0.4202  0.1890  0.2410
  285MOL0     H38447  -1.103   4.859   5.277  1.4263  3.7903 -0.2365
  285MOL0     H38448  -0.943   4.884   5.232 -1.7511  2.2450  1.5370
  285MOL0     H38449  -1.026   4.609   5.336  0.5798 -1.1937 -0.6405
  285MOL0     H38450  -0.869   4.660   5.274 -0.0416 -1.0105 -2.1715
  285MOL0     H38451  -1.003   4.734   5.052  3.4732  0.5788  1.2487
  285MOL0     H38452  -0.971   4.564   5.084  1.2526  0.8753 -2.3324
  285MOL0     H38453  -1.230   4.717   5.072  3.9677  1.4540  0.7021
  285MOL0     H38454  -1.225   4.626   5.213 -1.5805  0.2943 -0.6448
  285MOL0     H38455  -1.166   4.451   4.968  2.6253  0.9811  2.1340
  285MOL0     H38456  -1.331   4.497   5.024 -1.1502  1.6774  3.1342
  285MOL0     H38457  -1.005   5.065   5.912  1.0927 -0.4597 -0.1122
  285MOL0     H38458  -0.841   5.260   5.961  0.8087 -2.1529  0.0346
  285MOL0     H38459  -0.494   5.458   5.757  0.9727 -0.4873  1.4934
  285MOL0     H38460  -0.291   5.590   5.782 -4.3728 -5.8885 -1.5473
  285MOL0     H38461   0.005   6.210   7.545  0.4550 -0.3009 -0.3857
  285MOL0     H38462   0.186   6.223   7.713  1.7938 -1.0844  0.6786
  285MOL0     H38463   0.602   6.372   7.866 -0.7055 -0.3008  0.6301
  285MOL0     H38464   0.793   6.465   7.969  1.4902  1.7612 -2.2150
  285MOL0     H38465   0.858   6.861   7.995 -1.9878 -2.8298 -0.5675
  285MOL0     H38466   0.939   6.824   8.153  0.8834  0.3244 -0.4282
  285MOL0     H38467   0.980   6.659   7.910  2.6617 -1.1158 -1.1619
  285MOL0     H38468   1.064   6.646   8.059  0.5704  1.9271  0.7603
  285MOL0     H38469   1.080   6.915   7.940  0.1348  0.8416  2.4393
  285MOL0     H38470   1.168   6.775   7.870  1.6728 -1.6398  1.7229
  285MOL0     H38471   1.269   6.744   8.100 -0.7375  0.6545  0.9134
  285MOL0     H38472   1.169   6.879   8.161 -1.5213  0.3053 -0.8972
  285MOL0     H38473   1.485   7.090   7.991  1.5340 -0.0533  2.8204
  285MOL0     H38474   0.583   6.823   8.061 -0.6003 -0.5088 -0.9960
  285MOL0     H38475   0.381   6.724   7.990 -0.0403  0.3049 -0.4979
  286MOL0     O38476   2.667   5.958   2.549  0.3491 -0.1088 -0.0096
  286MOL0     C38477   2.630   5.963   2.671  0.1850  0.0736  0.0366
  286MOL0     O38478   2.536   6.052   2.709  0.0359  0.4824 -0.2944
  286MOL0     C38479   2.482   6.139   2.621 -0.3335 -0.1764 -0.5974
  286MOL0     C38480   2.359   6.189   2.663 -0.4140 -1.0654 -0.3704
  286MOL0     C38481   2.290   6.282   2.582 -0.7547 -0.3276 -0.4514
  286MOL0     C38482   2.344   6.332   2.469 -0.6396 -0.3037  0.1077
  286MOL0     O38483   2.279   6.428   2.394  0.1490 -0.3975 -0.2026
  286MOL0     C38484   2.183   6.516   2.463  0.0755  0.0386 -0.6322
  286MOL0     C38485   2.155   6.645   2.382  0.7538 -0.2216 -0.5438
  286MOL0     C38486   2.288   6.711   2.354  0.3984  0.6895  0.4811
  286MOL0     C38487   2.319   6.807   2.462  0.4451 -0.4281  0.1563
  286MOL0     C38488   2.472   6.813   2.502  0.3464 -0.2291  0.1663
  286MOL0     C38489   2.558   6.851   2.377  0.7647 -0.2959  0.6559
  286MOL0     C38490   2.704   6.868   2.410 -0.2640  0.2685 -0.4930
  286MOL0     C38491   2.728   6.981   2.516  0.3983  0.1477  0.0061
  286MOL0     N38492   2.867   7.022   2.544  0.2619 -0.2705 -0.3984
  286MOL0     C38493   2.935   7.124   2.480  0.6495 -0.1585 -0.5680
  286MOL0     C38494   3.052   7.147   2.551 -0.8778 -0.2165  0.2941
  286MOL0     C38495   3.167   7.246   2.517 -0.5065  0.5443  1.5084
  286MOL0     C38496   3.237   7.207   2.383 -0.6691 -0.1421  0.0609
  286MOL0     C38497   3.333   7.323   2.350  1.3048 -0.0139 -0.5051
  286MOL0     C38498   3.401   7.301   2.224  0.0233 -0.1835  0.1209
  286MOL0     O38499   3.476   7.408   2.192 -0.0174 -0.1634 -0.1327
  286MOL0     C38500   3.523   7.427   2.067  0.5460 -0.3469  0.1224
  286MOL0     C38501   3.505   7.351   1.949  0.5769  0.5914 -0.7552
  286MOL0     C38502   3.558   7.382   1.823 -0.3507  0.4939 -0.8267
  286MOL0     C38503   3.525   7.288   1.709  0.9394  0.2411 -0.2326
  286MOL0     C38504   3.629   7.503   1.814 -0.2818 -0.3571 -1.0967
  286MOL0     C38505   3.706   7.540   1.688 -0.0694  0.3845  0.2028
  286MOL0     O38506   3.795   7.643   1.697  0.0632  0.3023 -0.6000
  286MOL0     C38507   3.822   7.717   1.589  0.4794 -0.2209  0.5175
  286MOL0     C38508   3.786   7.852   1.578 -0.7282 -0.0154 -0.4228
  286MOL0     C38509   3.835   7.936   1.483 -0.5926  0.2721  0.4355
  286MOL0     C38510   3.900   7.875   1.379  0.5230  0.2686  0.0529
  286MOL0     O38511   3.938   7.964   1.274  0.2430 -0.4100 -0.5303
  286MOL0     C38512   3.964   7.903   1.150 -0.0582 -0.9500 -0.3892
  286MOL0     C38513   4.110   7.921   1.136  0.6319  0.6727 -0.0859
  286MOL0     C38514   4.142   7.907   0.986 -0.3218  0.7003 -0.7270
  286MOL0     C38515   4.133   8.039   0.907  0.5323 -0.1458 -0.1932
  286MOL0     C38516   4.220   8.161   0.955 -0.0808  0.1063  0.1719
  286MOL0     C38517   4.219   8.277   0.852  0.2623  0.3434 -0.6076
  286MOL0     C38518   4.333   8.269   0.758 -0.7522 -0.2605  0.5864
  286MOL0     C38519   4.446   8.376   0.787  0.1412 -0.1451 -0.5409
  286MOL0    Cl38520   4.593   8.335   0.694  0.1225  0.1964  0.0133
  286MOL0     C38521   3.945   7.742   1.383  0.0864  0.1138 -0.1239
  286MOL0     C38522   3.900   7.656   1.488  0.8604  0.1674  0.5721
  286MOL0     O38523   3.672   7.496   1.583 -0.2545  0.4085 -0.2724
  286MOL0     C38524   3.642   7.581   1.930  0.3221 -0.1446  0.6418
  286MOL0     C38525   3.597   7.543   2.050  0.0101 -0.4890  0.3040
  286MOL0     N38526   3.059   7.049   2.648  0.6579  0.4631 -0.4185
  286MOL0     N38527   2.945   6.985   2.646 -0.2115 -0.1648 -0.0603
  286MOL0     C38528   2.476   6.296   2.439  0.0759  0.0993 -0.1669
  286MOL0     C38529   2.547   6.203   2.506  0.3352  0.8188 -0.3281
  286MOL0     C38530   2.708   5.899   2.768 -0.5249  0.0036  0.1106
  286MOL0     C38531   2.854   5.896   2.741  0.9870 -0.3988 -0.2899
  286MOL0     C38532   2.927   5.836   2.840  0.4011  0.1950 -0.7206
  286MOL0     C38533   2.877   5.778   2.958 -0.1304  0.0045  0.4858
  286MOL0     O38534   2.968   5.716   3.041  0.2679 -0.6231 -0.4705
  286MOL0     C38535   2.916   5.640   3.156  0.3163 -0.1550  0.4643
  286MOL0     C38536   3.041   5.567   3.208 -0.1135 -0.2666  0.3668
  286MOL0     C38537   3.144   5.508   3.110  1.1650 -0.9112  0.1257
  286MOL0     C38538   3.089   5.383   3.036  0.0280  0.6617  0.5512
  286MOL0     C38539   3.190   5.318   2.963  0.2257 -0.6421 -0.8603
  286MOL0     C38540   3.282   5.260   2.910  0.1613  0.3546  0.1805
  286MOL0     C38541   2.738   5.786   2.984 -0.3820  0.4225  0.4049
  286MOL0     C38542   2.656   5.857   2.893 -0.0407  0.4588 -0.5324
  286MOL0     H38543   2.313   6.133   2.744 -0.4324  0.5074  0.7447
  286MOL0     H38544   2.191   6.313   2.613 -0.4033 -0.9754  1.4777
  286MOL0     H38545   2.084   6.471   2.477 -0.2650  0.3282 -1.9874
  286MOL0     H38546   2.221   6.543   2.562 -5.1050 -1.9905  2.3367
  286MOL0     H38547   2.094   6.617   2.295 -1.0266 -0.3086  0.6688
  286MOL0     H38548   2.088   6.716   2.431 -0.5769  0.1921 -2.8070
  286MOL0     H38549   2.363   6.632   2.362 -0.6945 -0.3899  0.4792
  286MOL0     H38550   2.297   6.753   2.254 -1.8105  0.3105  0.0792
  286MOL0     H38551   2.276   6.906   2.447  1.4272  0.0202  0.2734
  286MOL0     H38552   2.269   6.765   2.550  0.8595 -1.0558  0.0980
  286MOL0     H38553   2.487   6.895   2.572  0.0661  1.0856 -1.2653
  286MOL0     H38554   2.517   6.729   2.557  4.8952  2.1065  0.5520
  286MOL0     H38555   2.557   6.763   2.312 -2.3193  0.2082 -0.1303
  286MOL0     H38556   2.505   6.929   2.321  0.1603 -1.7671 -0.9039
  286MOL0     H38557   2.744   6.773   2.448 -0.3052 -0.2729 -1.7670
  286MOL0     H38558   2.764   6.886   2.320  0.0036  0.9110 -0.1973
  286MOL0     H38559   2.695   6.940   2.612  0.0392 -2.4592 -1.1543
  286MOL0     H38560   2.680   7.076   2.488 -1.0163  0.3816  2.8013
  286MOL0     H38561   2.901   7.200   2.411 -2.3288 -0.2076  0.6946
  286MOL0     H38562   3.121   7.345   2.503 -2.8823 -0.3446  2.5201
  286MOL0     H38563   3.240   7.254   2.598  1.8777  0.8117 -0.5414
  286MOL0     H38564   3.171   7.186   2.299 -0.7041 -1.4597  0.4041
  286MOL0     H38565   3.287   7.113   2.407 -0.4343 -0.2073 -0.6918
  286MOL0     H38566   3.412   7.339   2.423  0.2306 -0.7188  0.8568
  286MOL0     H38567   3.275   7.416   2.354 -0.5819 -1.1747  1.5647
  286MOL0     H38568   3.318   7.276   2.157 -0.2341  1.8436 -0.3767
  286MOL0     H38569   3.466   7.214   2.234 -0.3416 -0.6559 -1.3880
  286MOL0     H38570   3.432   7.271   1.948  0.6859  0.4856 -0.4428
  286MOL0     H38571   3.457   7.342   1.643  0.6019 -0.4248 -0.4338
  286MOL0     H38572   3.621   7.266   1.661  0.6889 -0.1281 -0.5709
  286MOL0     H38573   3.472   7.197   1.739  1.3210  0.6611  1.8847
  286MOL0     H38574   3.740   7.899   1.664 -2.5892 -0.4041 -1.1447
  286MOL0     H38575   3.813   8.042   1.478  0.8444  0.5780  0.0649
  286MOL0     H38576   3.939   7.797   1.144 -1.7674 -0.8257  2.5113
  286MOL0     H38577   3.902   7.956   1.076  0.3024  0.3541  0.2154
  286MOL0     H38578   4.150   8.015   1.176  1.7374 -0.6275  2.0967
  286MOL0     H38579   4.162   7.840   1.187 -1.1322  0.4087  1.3885
  286MOL0     H38580   4.074   7.832   0.944 -1.9686  1.5149  0.3622
  286MOL0     H38581   4.243   7.865   0.983 -0.8007 -0.5486  0.0456
  286MOL0     H38582   4.153   8.011   0.803 -2.0140  2.4059 -1.5115
  286MOL0     H38583   4.032   8.080   0.900  1.0297  1.0763 -0.5170
  286MOL0     H38584   4.322   8.132   0.982 -1.0495 -3.2768  0.6947
  286MOL0     H38585   4.179   8.206   1.045 -1.7045  2.4251 -1.6065
  286MOL0     H38586   4.124   8.261   0.801 -0.7718 -2.6384  1.9063
  286MOL0     H38587   4.206   8.373   0.903 -1.7207  0.3070 -0.9729
  286MOL0     H38588   4.299   8.265   0.655  0.9489 -2.3358  0.0485
  286MOL0     H38589   4.386   8.174   0.768  0.4369  0.2187 -0.8326
  286MOL0     H38590   4.454   8.367   0.896  0.2068  0.3857 -0.5004
  286MOL0     H38591   4.416   8.477   0.759  0.4184  0.9578  2.6768
  286MOL0     H38592   4.021   7.711   1.312  1.2309 -1.1029  1.5551
  286MOL0     H38593   3.928   7.553   1.509 -1.3275 -0.4393  0.7742
  286MOL0     H38594   3.689   7.679   1.921  0.5148 -0.2340  0.6793
  286MOL0     H38595   3.611   7.614   2.130 -0.5710 -0.4583  0.3871
  286MOL0     H38596   2.527   6.344   2.356 -2.4532  1.9164 -0.8203
  286MOL0     H38597   2.655   6.192   2.497  0.0677 -1.2125 -1.7760
  286MOL0     H38598   2.896   5.949   2.657 -1.4207  2.3513  0.0791
  286MOL0     H38599   3.035   5.843   2.829  0.4505  3.4786  0.7297
  286MOL0     H38600   2.855   5.700   3.223 -2.6122 -0.8770 -1.3695
  286MOL0     H38601   2.851   5.563   3.112 -0.1159  0.9659 -0.9323
  286MOL0     H38602   2.998   5.487   3.268 -0.5526  1.1948  2.0901
  286MOL0     H38603   3.091   5.630   3.282 -1.0587 -0.0916  0.8756
  286MOL0     H38604   3.233   5.486   3.170  1.5829  0.3056 -0.0063
  286MOL0     H38605   3.171   5.579   3.031  1.2318 -3.7562 -2.5961
  286MOL0     H38606   3.015   5.402   2.958  2.5455  4.0998 -1.2853
  286MOL0     H38607   3.053   5.322   3.120 -0.5835  0.6510  0.2849
  286MOL0     H38608   3.378   5.227   2.875  1.1772  0.0372  2.9410
  286MOL0     H38609   2.695   5.743   3.074  0.3369 -1.9891 -0.3152
  286MOL0     H38610   2.549   5.867   2.908 -0.1183 -2.7208  2.2688
  287MOL0     O38611   8.598   0.293   8.838 -0.0933 -0.1509 -0.3358
  287MOL0     C38612   8.609   0.236   8.944 -0.0803 -0.2579  1.1194
  287MOL0     O38613   8.606   0.292   9.064 -0.1126  0.1056  0.0045
  287MOL0     C38614   8.596   0.429   9.073  0.2201  0.4520  1.1524
  287MOL0     C38615   8.708   0.525   9.070 -0.5285  0.3861  0.6988
  287MOL0     C38616   8.692   0.666   9.064  0.0036  0.0467 -0.9743
  287MOL0     C38617   8.556   0.709   9.060 -0.1928  0.3642 -0.2400
  287MOL0     O38618   8.552   0.847   9.082 -0.9970  0.0068  0.3082
  287MOL0     C38619   8.445   0.920   9.004 -0.7622  0.5082 -0.4047
  287MOL0     C38620   8.441   0.887   8.846  0.0192  0.8300 -0.3852
  287MOL0     C38621   8.330   0.955   8.765  0.9158  0.7748 -0.4304
  287MOL0     C38622   8.200   0.880   8.775  0.6307  0.1753 -0.1548
  287MOL0     C38623   8.080   0.928   8.694  0.3577 -0.0901 -1.2343
  287MOL0     C38624   8.095   0.909   8.546  0.4889 -0.4537 -0.0482
  287MOL0     C38625   7.949   0.907   8.478  0.6374 -0.6205 -0.8915
  287MOL0     C38626   7.924   1.023   8.392  0.4767 -1.3909 -1.0745
  287MOL0     N38627   7.800   1.008   8.318 -0.3810  0.2110  0.8683
  287MOL0     C38628   7.672   0.993   8.377 -0.3691 -0.1787  0.3709
  287MOL0     C38629   7.599   0.928   8.281  0.1792 -0.0753  0.5086
  287MOL0     C38630   7.457   0.886   8.300 -0.2876  0.7329  0.8843
  287MOL0     C38631   7.346   0.950   8.229  0.1059 -0.6629  0.5752
  287MOL0     C38632   7.321   1.092   8.271 -0.1162 -0.1178 -0.3966
  287MOL0     C38633   7.231   1.159   8.174  0.4500  0.5692 -0.0838
  287MOL0     O38634   7.121   1.090   8.119  0.4494  0.2049 -0.8854
  287MOL0     C38635   7.079   1.121   7.995  0.1268 -0.4229  0.9234
  287MOL0     C38636   7.023   1.022   7.918 -0.0191 -0.1091 -1.1025
  287MOL0     C38637   6.966   1.051   7.792 -0.2797  0.1099 -0.0158
  287MOL0     C38638   6.940   0.934   7.706  0.3584  0.1337  0.2555
  287MOL0     C38639   6.961   1.184   7.747 -1.0171 -1.1703 -0.4296
  287MOL0     C38640   6.903   1.228   7.624 -0.2072 -0.2806  0.4941
  287MOL0     O38641   6.840   1.135   7.548 -0.9902  0.1425  0.2945
  287MOL0     C38642   6.825   1.171   7.409 -0.3108  0.3431  0.4864
  287MOL0     C38643   6.701   1.206   7.363  1.1483  0.4895  0.1959
  287MOL0     C38644   6.694   1.248   7.232  0.6677  0.1086 -0.1936
  287MOL0     C38645   6.810   1.263   7.150  0.0023 -0.2648 -0.4312
  287MOL0     O38646   6.795   1.290   7.016  0.7612  0.7273  0.3657
  287MOL0     C38647   6.879   1.394   6.967 -0.5172 -0.2070 -0.0487
  287MOL0     C38648   6.831   1.480   6.855 -0.1268  0.8003  0.4047
  287MOL0     C38649   6.778   1.398   6.742  1.0570  0.3714  0.0956
  287MOL0     C38650   6.889   1.345   6.648  0.2370  0.4380  0.1025
  287MOL0     C38651   6.823   1.240   6.550 -0.5419  0.0595 -0.1591
  287MOL0     C38652   6.712   1.300   6.454 -0.1706  0.0604 -0.0489
  287MOL0     C38653   6.698   1.207   6.334  0.9909 -0.0059 -0.2099
  287MOL0     C38654   6.638   1.273   6.212 -0.2000 -0.2727  0.0128
  287MOL0    Cl38655   6.742   1.407   6.159 -0.1340  0.3049 -0.4178
  287MOL0     C38656   6.936   1.242   7.202 -0.6140 -0.6919 -1.0870
  287MOL0     C38657   6.944   1.183   7.329  0.5262  0.7025 -0.0699
  287MOL0     O38658   6.912   1.349   7.591  0.7649  0.2591  0.0210
  287MOL0     C38659   7.007   1.285   7.827 -0.2885  0.6362  0.0123
  287MOL0     C38660   7.078   1.252   7.944  0.6091 -0.3270  0.1458
  287MOL0     N38661   7.674   0.919   8.164 -0.8160  0.3639  0.0424
  287MOL0     N38662   7.788   0.972   8.183  0.0950 -0.2688 -0.1370
  287MOL0     C38663   8.447   0.629   9.058 -0.0812  0.4040 -0.3907
  287MOL0     C38664   8.469   0.491   9.069 -0.3335 -0.6513 -0.8937
  287MOL0     C38665   8.639   0.090   8.932  0.1538  0.6358  0.2496
  287MOL0     C38666   8.613   0.012   9.045  0.1076 -0.0072 -0.4374
  287MOL0     C38667   8.651  -0.126   9.043  0.5870  0.1327 -0.3653
  287MOL0     C38668   8.730  -0.176   8.933  0.1216 -0.2671 -0.4586
  287MOL0     O38669   8.784  -0.302   8.921 -0.0394  0.6043  0.8740
  287MOL0     C38670   8.724  -0.415   8.985  0.1056 -1.3705  0.2778
  287MOL0     C38671   8.568  -0.426   8.965 -0.2225  0.5193  1.2924
  287MOL0     C38672   8.514  -0.567   8.982 -0.6959 -0.2992  0.8093
  287MOL0     C38673   8.382  -0.596   8.917 -0.2691  0.8353  0.5131
  287MOL0     C38674   8.389  -0.572   8.780  0.3135 -1.1059 -0.1087
  287MOL0     C38675   8.389  -0.535   8.663  0.2995  0.4763  0.3764
  287MOL0     C38676   8.757  -0.098   8.821  0.5379  0.4091 -0.1236
  287MOL0     C38677   8.718   0.034   8.828 -0.3387  1.1559  0.1801
  287MOL0     H38678   8.805   0.479   9.085 -0.9628 -1.5202 -1.6736
  287MOL0     H38679   8.777   0.732   9.077 -0.1946  0.7808 -3.0946
  287MOL0     H38680   8.350   0.904   9.056 -1.4563  0.7010 -1.5727
  287MOL0     H38681   8.458   1.029   9.013  2.2093  0.0245  2.8995
  287MOL0     H38682   8.542   0.924   8.824  2.4191 -3.0006  2.7708
  287MOL0     H38683   8.440   0.778   8.832 -1.0931  0.7365  0.3027
  287MOL0     H38684   8.325   1.056   8.806  1.2790 -0.0231  1.7191
  287MOL0     H38685   8.363   0.961   8.660  1.8489  0.3921 -0.1672
  287MOL0     H38686   8.204   0.773   8.751  1.2404  0.5146 -1.6460
  287MOL0     H38687   8.173   0.878   8.881 -0.5232 -1.7830 -0.4355
  287MOL0     H38688   7.993   0.870   8.727 -0.4156  1.2357 -0.8750
  287MOL0     H38689   8.057   1.033   8.713  1.1714 -0.1711  0.3550
  287MOL0     H38690   8.153   0.996   8.516 -2.6963  1.5318 -0.9715
  287MOL0     H38691   8.150   0.816   8.526 -2.0606 -1.7981 -1.3284
  287MOL0     H38692   7.933   0.820   8.415 -0.1794  0.2671 -1.9529
  287MOL0     H38693   7.871   0.918   8.554  0.4184  1.6911 -1.3604
  287MOL0     H38694   8.010   1.034   8.325  2.2029 -2.7042  0.8340
  287MOL0     H38695   7.912   1.113   8.453 -0.1882 -2.9868  1.2674
  287MOL0     H38696   7.656   1.020   8.481 -0.8146  0.0727  0.2404
  287MOL0     H38697   7.464   0.782   8.268  0.8716  1.3342 -1.0288
  287MOL0     H38698   7.443   0.887   8.408  0.3487  1.9222  0.9742
  287MOL0     H38699   7.250   0.902   8.250  0.2077 -3.2252 -3.6720
  287MOL0     H38700   7.363   0.951   8.121 -0.5752  0.9578  0.4466
  287MOL0     H38701   7.410   1.154   8.280  1.5029 -2.4391  0.4489
  287MOL0     H38702   7.278   1.087   8.372 -1.9409 -1.5679 -1.1613
  287MOL0     H38703   7.293   1.191   8.090  1.9235 -1.5397  0.1292
  287MOL0     H38704   7.184   1.251   8.211 -0.1236  0.6174 -0.9206
  287MOL0     H38705   7.039   0.924   7.963 -1.8125  0.7749  1.7729
  287MOL0     H38706   6.993   0.848   7.748  2.2433  0.9542 -0.3178
  287MOL0     H38707   6.836   0.910   7.683  0.0536  1.4761  0.1483
  287MOL0     H38708   6.985   0.942   7.606 -0.8604 -2.7193 -0.6175
  287MOL0     H38709   6.614   1.180   7.422  2.0191 -2.1453  0.4088
  287MOL0     H38710   6.601   1.289   7.194  0.0179  1.3234  2.4899
  287MOL0     H38711   6.902   1.466   7.046 -1.2132  1.8125 -1.5963
  287MOL0     H38712   6.976   1.353   6.938 -0.9570 -1.0094 -0.3999
  287MOL0     H38713   6.747   1.539   6.894 -1.1930 -0.6293  0.3633
  287MOL0     H38714   6.917   1.543   6.830  2.3440 -1.9117  1.5133
  287MOL0     H38715   6.717   1.465   6.680 -1.7569  0.5924  2.8864
  287MOL0     H38716   6.707   1.325   6.783  0.0806  1.8915  1.2071
  287MOL0     H38717   6.930   1.425   6.586 -1.1619 -0.3798 -1.9805
  287MOL0     H38718   6.971   1.296   6.702  0.2290 -1.7228 -1.6883
  287MOL0     H38719   6.761   1.165   6.600 -2.4644  0.8775 -1.2237
  287MOL0     H38720   6.901   1.186   6.495 -1.6896 -1.2702 -0.5280
  287MOL0     H38721   6.614   1.305   6.502  0.5988 -1.1194  1.7774
  287MOL0     H38722   6.742   1.402   6.428 -0.5216  1.1853  3.4430
  287MOL0     H38723   6.643   1.117   6.365  2.5864 -1.5067 -1.5217
  287MOL0     H38724   6.793   1.170   6.295  1.0513 -1.2607  1.0417
  287MOL0     H38725   6.530   1.283   6.228 -0.3584 -1.6984 -0.0285
  287MOL0     H38726   6.636   1.205   6.126 -1.9333 -2.1197  1.4300
  287MOL0     H38727   7.029   1.251   7.148  1.1702 -0.4342  1.8329
  287MOL0     H38728   7.041   1.165   7.373  0.9108 -0.3815 -1.3034
  287MOL0     H38729   7.014   1.388   7.795  0.2839  1.5982  3.0019
  287MOL0     H38730   7.109   1.334   8.009  2.2111  0.9068 -2.0462
  287MOL0     H38731   8.345   0.666   9.065 -0.9404 -1.9992  0.9069
  287MOL0     H38732   8.381   0.428   9.073 -0.6604 -0.1914  3.3745
  287MOL0     H38733   8.565   0.046   9.136 -0.2148 -1.5813  0.0078
  287MOL0     H38734   8.636  -0.199   9.122  4.3844 -1.2159 -0.6759
  287MOL0     H38735   8.780  -0.506   8.961  0.9703 -0.4249 -1.4682
  287MOL0     H38736   8.744  -0.391   9.090 -0.6182 -2.3824  0.6604
  287MOL0     H38737   8.548  -0.406   8.859 -0.7406 -3.4913  0.4512
  287MOL0     H38738   8.528  -0.359   9.041  2.4169  0.0288  3.2632
  287MOL0     H38739   8.493  -0.565   9.089 -1.4436 -0.1970  0.6660
  287MOL0     H38740   8.584  -0.649   8.963 -0.9000  0.1236 -2.3106
  287MOL0     H38741   8.305  -0.538   8.970 -2.4118  1.2472 -2.7351
  287MOL0     H38742   8.359  -0.701   8.937 -5.2959  0.9908 -2.4828
  287MOL0     H38743   8.392  -0.504   8.561 -3.6088  0.4227  0.1192
  287MOL0     H38744   8.814  -0.147   8.743 -0.2507  0.7973 -0.9615
  287MOL0     H38745   8.725   0.093   8.738 -1.3926 -0.2266 -0.8672
  288MOL0     O38746   0.950   6.358   7.793  0.0829 -0.2829  0.2908
  288MOL0     C38747   0.996   6.411   7.686  0.0188  0.0228  0.0586
  288MOL0     O38748   1.117   6.465   7.673 -0.4503  0.0381 -0.1588
  288MOL0     C38749   1.207   6.469   7.777 -0.8507 -0.9285  0.0444
  288MOL0     C38750   1.295   6.580   7.776 -0.1187 -0.6047 -0.9856
  288MOL0     C38751   1.405   6.582   7.870  0.4821 -0.7399  0.5012
  288MOL0     C38752   1.428   6.474   7.964  0.4620  0.1179 -0.7110
  288MOL0     O38753   1.522   6.493   8.061 -0.0751 -0.2391  0.2040
  288MOL0     C38754   1.538   6.385   8.159 -0.7151  0.6433  0.0544
  288MOL0     C38755   1.658   6.416   8.245 -0.0568  0.4011  1.2893
  288MOL0     C38756   1.638   6.552   8.329 -0.2670 -0.2226  0.1134
  288MOL0     C38757   1.533   6.543   8.431 -0.0291  0.4299  0.0013
  288MOL0     C38758   1.562   6.631   8.562  0.0808  0.7792 -0.2414
  288MOL0     C38759   1.470   6.588   8.672  0.1735 -0.7459 -0.2745
  288MOL0     C38760   1.486   6.658   8.815 -0.1997 -0.3851  0.3068
  288MOL0     C38761   1.401   6.785   8.819  0.2318  0.4947 -1.1212
  288MOL0     N38762   1.443   6.873   8.712 -0.3927  0.1918  0.9125
  288MOL0     C38763   1.552   6.954   8.710 -0.8769  0.3924 -0.2730
  288MOL0     C38764   1.561   7.015   8.591 -0.0643  0.2871 -0.8181
  288MOL0     C38765   1.676   7.095   8.546  0.1596  1.2056 -0.7349
  288MOL0     C38766   1.762   7.006   8.442 -0.1912 -0.0493 -0.5522
  288MOL0     C38767   1.866   6.924   8.511 -0.4242  0.3328  0.6659
  288MOL0     C38768   1.950   6.853   8.400  1.3393 -0.1989 -0.5077
  288MOL0     O38769   2.048   6.769   8.459 -0.4141 -0.1306  0.9208
  288MOL0     C38770   2.082   6.676   8.368 -0.9018  0.5735  0.1577
  288MOL0     C38771   2.160   6.696   8.262  0.1608 -0.2653  0.0695
  288MOL0     C38772   2.185   6.594   8.164  0.2009 -0.6167 -0.6484
  288MOL0     C38773   2.265   6.633   8.037  0.0157  0.6810 -0.3691
  288MOL0     C38774   2.135   6.462   8.185  0.1535  0.2750 -0.6297
  288MOL0     C38775   2.162   6.346   8.096  0.1277 -0.4461 -0.6080
  288MOL0     O38776   2.071   6.253   8.109  1.0377 -0.2130  0.1825
  288MOL0     C38777   2.069   6.133   8.034  0.8410  1.3995  0.1350
  288MOL0     C38778   1.996   6.023   8.095 -0.4627 -0.0921 -0.3771
  288MOL0     C38779   2.000   5.896   8.039 -0.5139  1.0057  0.3184
  288MOL0     C38780   2.063   5.869   7.912  0.2217  0.0256  0.1892
  288MOL0     O38781   2.046   5.743   7.862 -0.2223  0.3598  0.1883
  288MOL0     C38782   2.138   5.688   7.762  0.5410 -0.5998  0.1036
  288MOL0     C38783   2.277   5.654   7.806  0.5295 -0.7791 -0.8640
  288MOL0     C38784   2.294   5.605   7.950  0.0513 -0.1481 -0.5484
  288MOL0     C38785   2.400   5.493   7.965  0.6215  1.1777  0.0455
  288MOL0     C38786   2.540   5.519   7.921 -0.7958  0.2610  1.0424
  288MOL0     C38787   2.630   5.399   7.961 -0.4910 -0.7347 -0.6510
  288MOL0     C38788   2.782   5.430   7.948 -0.1741 -0.4869  0.1522
  288MOL0     C38789   2.854   5.302   7.950  0.3861  0.0119  0.6445
  288MOL0    Cl38790   2.849   5.223   7.791  0.6134  0.4740 -0.1840
  288MOL0     C38791   2.138   5.978   7.857 -0.0808  1.7417  0.2931
  288MOL0     C38792   2.146   6.102   7.916  1.3545  0.0590  0.0521
  288MOL0     O38793   2.263   6.347   8.016  0.8229  0.3707 -0.1369
  288MOL0     C38794   2.045   6.444   8.291  0.2798 -0.7558  0.4761
  288MOL0     C38795   2.017   6.555   8.378 -0.0904 -0.1751 -0.4408
  288MOL0     N38796   1.447   6.987   8.519 -0.0163  0.3219 -0.2218
  288MOL0     N38797   1.376   6.903   8.586  0.2642  0.0647  0.5093
  288MOL0     C38798   1.329   6.372   7.965  0.0579  0.0605  1.3988
  288MOL0     C38799   1.227   6.372   7.870 -0.1079  0.3130 -0.6790
  288MOL0     C38800   0.909   6.427   7.569 -0.6105  0.1225 -0.2064
  288MOL0     C38801   0.790   6.361   7.565 -1.3539 -0.3306 -0.2336
  288MOL0     C38802   0.703   6.367   7.451  0.4810 -0.3067 -0.4667
  288MOL0     C38803   0.730   6.450   7.342 -0.2371  0.2605 -0.0678
  288MOL0     O38804   0.649   6.465   7.237 -0.3052 -0.3969  0.4224
  288MOL0     C38805   0.540   6.548   7.268  0.0074  0.6010 -0.9415
  288MOL0     C38806   0.581   6.693   7.256  0.7025 -0.2986 -0.1808
  288MOL0     C38807   0.607   6.736   7.110 -0.0206 -0.7223  0.7459
  288MOL0     C38808   0.617   6.890   7.101  0.7640  0.1941  0.5588
  288MOL0     C38809   0.748   6.934   7.064 -0.0771 -0.7557 -0.2611
  288MOL0     C38810   0.849   6.989   7.040  0.3686  0.1665 -0.1721
  288MOL0     C38811   0.862   6.513   7.348 -0.4657  0.4929 -0.6671
  288MOL0     C38812   0.949   6.499   7.456  0.1322  0.1971 -0.4961
  288MOL0     H38813   1.280   6.663   7.707 -0.1833  1.2217  1.1191
  288MOL0     H38814   1.466   6.672   7.869  0.4779 -0.7348 -0.8247
  288MOL0     H38815   1.444   6.368   8.213  0.5513 -1.4640  1.8028
  288MOL0     H38816   1.573   6.295   8.107  2.9923  2.2762 -0.5132
  288MOL0     H38817   1.688   6.337   8.315  1.3932 -0.8267 -0.5877
  288MOL0     H38818   1.738   6.434   8.172  0.3828 -1.6610  1.1790
  288MOL0     H38819   1.735   6.573   8.375 -0.1620  0.8753 -0.5722
  288MOL0     H38820   1.609   6.639   8.269  0.5437 -0.6745 -0.9665
  288MOL0     H38821   1.436   6.580   8.394 -1.0610 -0.7397  1.4126
  288MOL0     H38822   1.526   6.440   8.468  2.4539  0.7868  1.6778
  288MOL0     H38823   1.664   6.612   8.597 -0.9752 -3.7326  1.0272
  288MOL0     H38824   1.557   6.740   8.547  2.3571  0.8355 -0.8537
  288MOL0     H38825   1.368   6.615   8.641  0.2434  2.6246  1.9241
  288MOL0     H38826   1.487   6.483   8.694 -1.2862 -1.9329 -4.0543
  288MOL0     H38827   1.458   6.592   8.898  1.6615  2.0408  3.1218
  288MOL0     H38828   1.592   6.675   8.839  0.2569 -2.3352 -0.1548
  288MOL0     H38829   1.419   6.829   8.917  5.0999 -2.0196 -0.5959
  288MOL0     H38830   1.301   6.742   8.810  0.9959 -1.5406 -0.2781
  288MOL0     H38831   1.627   6.944   8.788 -0.9818  1.3530 -0.0369
  288MOL0     H38832   1.638   7.184   8.495 -0.6226  1.1685 -0.2394
  288MOL0     H38833   1.733   7.131   8.633  0.9981 -2.0039  0.1608
  288MOL0     H38834   1.809   7.077   8.374 -0.8102  2.0130  1.0575
  288MOL0     H38835   1.696   6.949   8.375 -0.7919  1.0676 -0.9340
  288MOL0     H38836   1.817   6.853   8.578 -0.9187  0.7468  0.7468
  288MOL0     H38837   1.930   6.993   8.567  0.4343  1.3789 -1.4656
  288MOL0     H38838   1.994   6.932   8.339  1.2448  0.0626 -0.2393
  288MOL0     H38839   1.884   6.800   8.331  2.8937 -1.2298 -1.2832
  288MOL0     H38840   2.201   6.795   8.243 -1.3159  0.4594  0.4699
  288MOL0     H38841   2.220   6.576   7.955  1.0111  0.9151 -1.1029
  288MOL0     H38842   2.262   6.738   8.006  0.3405  0.6275 -0.5828
  288MOL0     H38843   2.368   6.602   8.056 -0.2926  0.5266  1.1295
  288MOL0     H38844   1.944   6.048   8.187 -0.2323  0.0560 -0.2864
  288MOL0     H38845   1.946   5.810   8.077  1.6579 -0.1969  0.8571
  288MOL0     H38846   2.097   5.595   7.722  0.6871  0.3051 -2.3551
  288MOL0     H38847   2.142   5.745   7.668 -1.1741 -2.0258 -0.9216
  288MOL0     H38848   2.330   5.586   7.738  2.7015 -0.7851  0.7190
  288MOL0     H38849   2.336   5.745   7.790 -0.8980  0.0593 -1.5247
  288MOL0     H38850   2.197   5.569   7.984 -0.3247 -0.1697 -1.5905
  288MOL0     H38851   2.323   5.691   8.011  1.8698  0.8236 -2.6463
  288MOL0     H38852   2.401   5.477   8.073 -1.7544  0.5118  0.0229
  288MOL0     H38853   2.365   5.405   7.909  0.9638  0.1330  1.4039
  288MOL0     H38854   2.581   5.602   7.979 -0.5498 -0.1895  1.5315
  288MOL0     H38855   2.556   5.535   7.814 -2.4907  0.6735  0.8183
  288MOL0     H38856   2.615   5.378   8.067  2.1780 -0.1969 -0.0996
  288MOL0     H38857   2.596   5.314   7.901 -1.4992 -1.0837  0.3708
  288MOL0     H38858   2.824   5.486   8.032 -1.0661  0.4473 -0.0126
  288MOL0     H38859   2.795   5.483   7.853 -1.4394 -1.3684 -0.5474
  288MOL0     H38860   2.815   5.231   8.023 -1.0334  0.0115 -0.0898
  288MOL0     H38861   2.963   5.308   7.964  0.3066 -0.9800  1.9114
  288MOL0     H38862   2.178   5.973   7.756 -1.4531 -1.5573 -0.2117
  288MOL0     H38863   2.205   6.179   7.868  0.0761  1.7488  1.0556
  288MOL0     H38864   2.003   6.346   8.309 -0.4883 -0.4773  0.2442
  288MOL0     H38865   1.941   6.548   8.455 -0.2286  0.5708 -0.4960
  288MOL0     H38866   1.312   6.289   8.033 -2.0579 -1.6793 -1.0441
  288MOL0     H38867   1.154   6.291   7.869  1.1783 -0.8946 -2.6809
  288MOL0     H38868   0.751   6.296   7.642 -2.3341 -0.7648 -1.0598
  288MOL0     H38869   0.619   6.298   7.456  0.1973 -0.0650 -1.6302
  288MOL0     H38870   0.462   6.540   7.191 -3.2974 -2.6303  2.3610
  288MOL0     H38871   0.480   6.522   7.356  1.6547 -0.6437 -0.1316
  288MOL0     H38872   0.670   6.726   7.311  0.1825  2.2973 -0.7989
  288MOL0     H38873   0.496   6.750   7.294  1.6919  0.3491  1.1396
  288MOL0     H38874   0.528   6.713   7.038  0.9079 -1.7934  0.0368
  288MOL0     H38875   0.707   6.712   7.073  0.6146  2.5094  0.0596
  288MOL0     H38876   0.605   6.923   7.204  3.6814  0.8440  0.7697
  288MOL0     H38877   0.541   6.926   7.032 -0.4848 -2.2797  0.5088
  288MOL0     H38878   0.938   7.046   7.021  1.7065 -1.5071  0.6893
  288MOL0     H38879   0.889   6.576   7.264 -1.5614 -0.2271 -1.5914
  288MOL0     H38880   1.041   6.555   7.466 -0.8722  2.1936 -1.7410
  289MOL0     O38881   7.541   4.382   9.154  0.3514 -0.0332 -0.5126
  289MOL0     C38882   7.423   4.411   9.187 -0.1517  0.1275  0.1472
  289MOL0     O38883   7.373   4.398   9.300  0.5159 -0.1894 -0.7059
  289MOL0     C38884   7.459   4.353   9.402 -0.0921  0.5792  0.0490
  289MOL0     C38885   7.425   4.245   9.486  0.1323 -0.1501  0.3100
  289MOL0     C38886   7.495   4.216   9.603  0.4452 -0.6169  0.8525
  289MOL0     C38887   7.611   4.282   9.631  0.0144  0.6832 -0.3004
  289MOL0     O38888   7.687   4.258   9.744  0.2710  0.1537  0.4128
  289MOL0     C38889   7.793   4.343   9.783 -0.0651  0.7143 -0.4927
  289MOL0     C38890   7.836   4.313   9.926  0.5724  0.1838 -0.1729
  289MOL0     C38891   7.752   4.385  10.031  0.4558  0.8158 -0.1028
  289MOL0     C38892   7.617   4.323  10.071 -0.4627 -0.8398  0.3818
  289MOL0     C38893   7.541   4.427  10.152 -0.2661 -1.0595 -0.2268
  289MOL0     C38894   7.604   4.442  10.295  0.3734  0.4178  0.4424
  289MOL0     C38895   7.672   4.574  10.319 -0.5047  0.8653 -0.1117
  289MOL0     C38896   7.568   4.684  10.329 -0.4709 -0.1431 -0.3493
  289MOL0     N38897   7.613   4.801  10.406  0.1116 -0.2814  0.0273
  289MOL0     C38898   7.737   4.832  10.453  0.0483  0.0238 -0.4788
  289MOL0     C38899   7.735   4.961  10.494 -0.2838 -0.3348 -1.3080
  289MOL0     C38900   7.856   5.032  10.548  0.2300 -0.2379 -0.3699
  289MOL0     C38901   7.987   4.984  10.477  0.0971  1.0772  1.4660
  289MOL0     C38902   8.096   5.082  10.492 -0.3092  0.6382 -0.1183
  289MOL0     C38903   8.223   5.026  10.434  0.0267  0.7577 -0.6241
  289MOL0     O38904   8.266   4.893  10.458  0.0331 -0.0276 -0.2419
  289MOL0     C38905   8.387   4.860  10.408 -0.2247  0.1128 -0.4627
  289MOL0     C38906   8.451   4.902  10.284 -0.1178 -0.9949 -0.2681
  289MOL0     C38907   8.576   4.856  10.251  0.7079  0.7648 -1.3801
  289MOL0     C38908   8.649   4.928  10.135  0.2925  0.4109  0.0273
  289MOL0     C38909   8.638   4.756  10.330  0.8817  0.3850  0.5966
  289MOL0     C38910   8.763   4.686  10.286 -0.0276 -0.2512  0.4574
  289MOL0     O38911   8.857   4.661  10.391 -0.4233 -0.6972  0.1098
  289MOL0     C38912   8.972   4.580  10.385 -0.5231 -0.9603 -0.1154
  289MOL0     C38913   8.984   4.475  10.292 -0.0503 -0.3820  0.9439
  289MOL0     C38914   9.096   4.389  10.299 -0.5269 -0.0043 -1.0142
  289MOL0     C38915   9.191   4.391  10.402  1.1648 -0.3532 -0.2260
  289MOL0     O38916   9.284   4.293  10.426  0.7819 -0.5916  0.2942
  289MOL0     C38917   9.289   4.228  10.557  0.2684  0.5581  0.4371
  289MOL0     C38918   9.318   4.080  10.545 -0.0266 -0.1824  0.6156
  289MOL0     C38919   9.449   4.056  10.473  0.4155 -0.0730  0.9183
  289MOL0     C38920   9.489   3.914  10.504 -0.3968 -0.2262  0.6665
  289MOL0     C38921   9.602   3.859  10.417 -0.8782  0.4408 -0.3846
  289MOL0     C38922   9.700   3.766  10.487 -0.6088 -0.0156  0.4130
  289MOL0     C38923   9.812   3.721  10.390 -0.2055 -1.2176 -0.1753
  289MOL0     C38924   9.886   3.612  10.456 -0.1745 -0.3188  0.2208
  289MOL0    Cl38925  10.009   3.695  10.565  0.0654  0.1512  0.0036
  289MOL0     C38926   9.174   4.496  10.499  0.8705  0.3146  0.0914
  289MOL0     C38927   9.068   4.587  10.485 -0.6216 -0.1428  0.7521
  289MOL0     O38928   8.769   4.641  10.170 -0.0402  0.0892  0.3090
  289MOL0     C38929   8.567   4.690  10.433  0.7155 -1.0202  0.4290
  289MOL0     C38930   8.450   4.754  10.474 -0.3029  0.1318 -0.0512
  289MOL0     N38931   7.611   5.010  10.471 -0.1709  0.3607  0.4151
  289MOL0     N38932   7.543   4.915  10.415  0.1344  0.2641 -0.2774
  289MOL0     C38933   7.650   4.386   9.550 -0.2103 -0.0213  0.5715
  289MOL0     C38934   7.574   4.432   9.439 -0.5927  1.0343 -0.4153
  289MOL0     C38935   7.341   4.478   9.084  0.7838  0.2447  0.1973
  289MOL0     C38936   7.217   4.531   9.129 -0.1048 -0.2186  0.8042
  289MOL0     C38937   7.135   4.599   9.032 -0.3254  0.0606 -0.4754
  289MOL0     C38938   7.175   4.614   8.903 -0.0737 -0.2928 -0.6674
  289MOL0     O38939   7.114   4.706   8.822 -0.4047 -0.4252  0.0974
  289MOL0     C38940   6.991   4.656   8.787 -0.1859 -0.0474  1.1196
  289MOL0     C38941   6.993   4.629   8.632  0.3353  0.5372 -0.1932
  289MOL0     C38942   6.849   4.604   8.587  0.1128 -0.0199 -0.3565
  289MOL0     C38943   6.852   4.571   8.441 -1.1061  0.9195  0.3978
  289MOL0     C38944   6.714   4.560   8.397  0.2594 -1.0353  0.3457
  289MOL0     C38945   6.592   4.545   8.368  0.1095  0.0203  0.0084
  289MOL0     C38946   7.290   4.550   8.861 -0.4240  0.1519 -0.3126
  289MOL0     C38947   7.381   4.486   8.952  0.1668  0.3489  0.8440
  289MOL0     H38948   7.337   4.188   9.461 -1.0412  2.0053 -0.7323
  289MOL0     H38949   7.467   4.130   9.663  0.1176 -1.7504 -0.8366
  289MOL0     H38950   7.876   4.328   9.714  3.2238  3.7389  2.3759
  289MOL0     H38951   7.776   4.450   9.771 -0.8378  1.0196  2.5672
  289MOL0     H38952   7.832   4.206   9.944 -3.8702 -0.1042 -1.6525
  289MOL0     H38953   7.942   4.338   9.931  0.3351  0.9956  2.7739
  289MOL0     H38954   7.824   4.381  10.113 -0.4548 -2.8253  0.6634
  289MOL0     H38955   7.735   4.489   9.999  0.9849  0.3757 -1.8933
  289MOL0     H38956   7.558   4.294   9.983 -2.0218 -0.2366  1.1816
  289MOL0     H38957   7.623   4.233  10.134 -1.9131 -0.3754  1.2362
  289MOL0     H38958   7.546   4.521  10.097  1.7318 -2.3273 -2.3659
  289MOL0     H38959   7.434   4.409  10.159 -1.2695  3.3849 -0.9629
  289MOL0     H38960   7.529   4.417  10.371  1.4697 -1.9049  0.8507
  289MOL0     H38961   7.682   4.366  10.305 -0.2585 -0.5568 -1.5940
  289MOL0     H38962   7.743   4.560  10.402  1.1623  1.2263 -1.4231
  289MOL0     H38963   7.735   4.599  10.234  3.7163 -2.3458  1.6915
  289MOL0     H38964   7.476   4.655  10.382  1.2915 -0.3372  2.8816
  289MOL0     H38965   7.548   4.709  10.225 -3.9863 -0.0878  0.2127
  289MOL0     H38966   7.822   4.766  10.464  1.2381  1.7299  1.0688
  289MOL0     H38967   7.836   5.138  10.529 -2.3774 -0.9803 -2.4166
  289MOL0     H38968   7.859   5.007  10.655 -0.2298  0.7011 -0.1231
  289MOL0     H38969   7.967   4.959  10.372  1.7185  1.7372  0.9681
  289MOL0     H38970   8.018   4.893  10.529  1.7545  1.8717  1.9263
  289MOL0     H38971   8.108   5.100  10.599 -0.0104  0.4017 -0.1125
  289MOL0     H38972   8.067   5.179  10.449  0.8900  0.7702 -0.6753
  289MOL0     H38973   8.301   5.092  10.475  0.0593  1.5433 -1.9013
  289MOL0     H38974   8.231   5.044  10.326  2.5857  1.2078 -0.4231
  289MOL0     H38975   8.406   4.985  10.232  0.6273  0.0954  0.7842
  289MOL0     H38976   8.756   4.940  10.155  0.0382  0.3909  1.5224
  289MOL0     H38977   8.640   4.869  10.044 -0.5937 -0.2034  0.4880
  289MOL0     H38978   8.602   5.026  10.123  2.7025  1.9018  1.7441
  289MOL0     H38979   8.904   4.447  10.225 -0.3041 -2.8408  2.1630
  289MOL0     H38980   9.104   4.302  10.235 -0.4935  0.8009 -2.1321
  289MOL0     H38981   9.372   4.273  10.612 -0.3634 -1.4829  3.2978
  289MOL0     H38982   9.193   4.238  10.610 -0.5019 -0.8796 -0.6280
  289MOL0     H38983   9.319   4.046  10.649 -0.6345  0.3517  0.8064
  289MOL0     H38984   9.237   4.028  10.493 -0.4024  0.4608  0.5549
  289MOL0     H38985   9.532   4.125  10.490 -1.3164  2.7767 -1.2436
  289MOL0     H38986   9.414   4.061  10.370 -1.3974 -3.6245  1.1844
  289MOL0     H38987   9.527   3.914  10.607  3.0106  2.8270 -0.3572
  289MOL0     H38988   9.404   3.845  10.502 -0.5897  0.0220 -0.0542
  289MOL0     H38989   9.671   3.942  10.398  4.2115 -2.9603  1.2350
  289MOL0     H38990   9.568   3.817  10.322  0.4866  0.3032 -0.8338
  289MOL0     H38991   9.740   3.798  10.583 -0.1693  0.0795  0.1979
  289MOL0     H38992   9.629   3.685  10.508 -0.4430 -0.1814  0.3324
  289MOL0     H38993   9.881   3.799  10.358  0.5631 -2.9925 -3.2287
  289MOL0     H38994   9.759   3.686  10.301  1.1465  2.4031 -2.6145
  289MOL0     H38995   9.944   3.560  10.379 -2.0926 -0.4652 -1.1923
  289MOL0     H38996   9.818   3.539  10.502  0.0195  0.8794  2.5844
  289MOL0     H38997   9.245   4.497  10.581 -3.0041 -1.1581  3.8363
  289MOL0     H38998   9.071   4.653  10.571 -1.3804  1.4031 -0.3606
  289MOL0     H38999   8.615   4.613  10.493  0.4231 -2.9154 -1.6369
  289MOL0     H39000   8.401   4.704  10.556 -0.7328  3.0709  1.6215
  289MOL0     H39001   7.739   4.446   9.562 -1.8035  2.3635  1.3304
  289MOL0     H39002   7.618   4.509   9.377 -1.5709  0.5956 -1.7120
  289MOL0     H39003   7.179   4.522   9.230  1.7784  0.3328  1.6028
  289MOL0     H39004   7.041   4.648   9.054  0.1632  0.9938 -0.4455
  289MOL0     H39005   6.962   4.563   8.836  0.6390 -1.2840 -0.6522
  289MOL0     H39006   6.919   4.732   8.819  0.4634 -0.6163  4.2296
  289MOL0     H39007   7.043   4.534   8.614  0.8741  0.7618  0.0986
  289MOL0     H39008   7.058   4.707   8.593  1.4651 -0.1272  0.3101
  289MOL0     H39009   6.784   4.691   8.603 -3.2530 -2.0191 -1.9407
  289MOL0     H39010   6.801   4.527   8.647  0.8768  0.4181  0.8456
  289MOL0     H39011   6.893   4.470   8.435 -1.0575  0.5807  4.0699
  289MOL0     H39012   6.902   4.644   8.377  3.2267 -0.2896  2.0427
  289MOL0     H39013   6.493   4.542   8.328  0.1079  2.7158 -0.3511
  289MOL0     H39014   7.314   4.566   8.757  1.5461  0.1404  0.0987
  289MOL0     H39015   7.477   4.450   8.918 -0.0431 -0.4527  1.0770
  290MOL0     O39016   2.936   2.961  10.312 -0.4377  0.0996 -0.0984
  290MOL0     C39017   3.013   3.004  10.226  0.1254  0.1768 -0.4329
  290MOL0     O39018   3.149   2.972  10.212  0.3085 -0.2571 -0.5302
  290MOL0     C39019   3.209   2.861  10.277 -1.2042 -0.3721  0.2289
  290MOL0     C39020   3.141   2.743  10.317 -0.7053  0.0862 -0.6032
  290MOL0     C39021   3.218   2.646  10.384 -0.3290 -0.1483 -0.4643
  290MOL0     C39022   3.362   2.652  10.384  0.5104  0.2469  0.1789
  290MOL0     O39023   3.436   2.549  10.435  1.4057 -0.0580  0.0934
  290MOL0     C39024   3.366   2.422  10.465  0.7494 -0.1498 -0.1806
  290MOL0     C39025   3.470   2.326  10.511 -0.6829  0.9225 -0.9504
  290MOL0     C39026   3.581   2.284  10.413  0.8873 -0.9831 -0.2819
  290MOL0     C39027   3.633   2.146  10.454 -0.9292 -0.3606  0.4067
  290MOL0     C39028   3.755   2.104  10.371  0.5684 -0.1828 -0.0547
  290MOL0     C39029   3.876   2.164  10.419  0.4838 -0.2752  0.7207
  290MOL0     C39030   3.996   2.155  10.332  0.6007  0.0126  0.3255
  290MOL0     C39031   4.054   2.010  10.334  1.0638 -0.4029 -0.6240
  290MOL0     N39032   4.195   2.021  10.293  0.1540  0.2064 -0.2787
  290MOL0     C39033   4.253   2.015  10.167  0.7786 -1.3920  0.1313
  290MOL0     C39034   4.388   2.038  10.178 -0.6433  0.1481  0.0696
  290MOL0     C39035   4.476   2.031  10.057  0.0233 -0.1241 -0.2966
  290MOL0     C39036   4.507   1.889  10.019  0.5561  1.1261 -0.2878
  290MOL0     C39037   4.589   1.823  10.127  1.1242 -0.3843 -0.3321
  290MOL0     C39038   4.741   1.864  10.112 -0.5505  0.2798 -0.7370
  290MOL0     O39039   4.823   1.768  10.178  0.0999  0.4155  0.8767
  290MOL0     C39040   4.938   1.747  10.109 -0.4721 -0.2235  0.1766
  290MOL0     C39041   4.941   1.626  10.033  0.1920 -0.1293 -0.0617
  290MOL0     C39042   5.051   1.592   9.949  0.7575 -0.2977 -0.1448
  290MOL0     C39043   5.051   1.458   9.877  1.2406  0.1414  0.5198
  290MOL0     C39044   5.160   1.683   9.945 -0.3593  1.3257  0.7254
  290MOL0     C39045   5.286   1.652   9.864 -0.1786 -0.0595 -0.0065
  290MOL0     O39046   5.395   1.710   9.923  0.1043 -0.6042  0.6818
  290MOL0     C39047   5.513   1.687   9.862  0.0900 -0.4544 -0.0124
  290MOL0     C39048   5.566   1.553   9.857  0.5335 -0.2999 -0.0717
  290MOL0     C39049   5.691   1.535   9.796  0.1671  0.3337 -0.7183
  290MOL0     C39050   5.753   1.645   9.739  0.9940  0.2880 -0.0164
  290MOL0     O39051   5.874   1.605   9.681  1.1894  0.5812 -0.3335
  290MOL0     C39052   5.984   1.694   9.680 -0.5006  0.9272  0.6860
  290MOL0     C39053   6.123   1.622   9.645  0.2423  0.3078 -0.3122
  290MOL0     C39054   6.260   1.695   9.636 -0.1034  0.3771  0.0912
  290MOL0     C39055   6.376   1.600   9.591  0.5465 -0.4425 -0.6785
  290MOL0     C39056   6.514   1.656   9.586  0.5054 -0.2725 -0.4763
  290MOL0     C39057   6.599   1.569   9.487 -0.1654  0.4583  0.4670
  290MOL0     C39058   6.748   1.607   9.497 -1.0526  0.8715  0.1799
  290MOL0     C39059   6.779   1.743   9.433 -0.0862  0.7060  0.6969
  290MOL0    Cl39060   6.947   1.743   9.365  0.4039 -0.2813 -0.1761
  290MOL0     C39061   5.707   1.777   9.755 -0.9310  0.9320 -0.6804
  290MOL0     C39062   5.579   1.791   9.804 -0.7213 -0.3096 -0.1266
  290MOL0     O39063   5.279   1.604   9.747 -0.3992  0.1541  0.0691
  290MOL0     C39064   5.151   1.806  10.018  0.4172 -0.7979 -0.5624
  290MOL0     C39065   5.044   1.840  10.098 -0.2352  0.4138  0.1958
  290MOL0     N39066   4.409   2.045  10.319  0.5938 -0.7427  0.6481
  290MOL0     N39067   4.295   2.056  10.378  0.1667  0.4721 -0.2928
  290MOL0     C39068   3.432   2.764  10.352  0.1304  0.7777  0.3897
  290MOL0     C39069   3.356   2.867  10.294  0.4134 -0.4852  0.8637
  290MOL0     C39070   2.963   3.110  10.129 -0.0566 -0.1011 -0.1736
  290MOL0     C39071   2.832   3.152  10.136 -0.5917 -0.8533 -0.4691
  290MOL0     C39072   2.790   3.258  10.052  0.3314 -0.5762  0.3316
  290MOL0     C39073   2.873   3.334   9.971  0.0922 -1.2078 -0.1342
  290MOL0     O39074   2.828   3.440   9.896  0.5142 -0.0530  0.5437
  290MOL0     C39075   2.731   3.526   9.959  0.6190 -0.3859  0.6712
  290MOL0     C39076   2.753   3.664   9.898 -0.4236 -0.3838  0.1575
  290MOL0     C39077   2.617   3.750   9.896  0.3619 -0.0381 -0.7544
  290MOL0     C39078   2.631   3.873   9.798 -1.3612 -0.2906 -0.1667
  290MOL0     C39079   2.534   3.969   9.842  0.4613  0.7769  0.9291
  290MOL0     C39080   2.457   4.046   9.893  0.3100 -0.5256 -0.5122
  290MOL0     C39081   3.003   3.292   9.955 -0.3102  0.1397  0.3121
  290MOL0     C39082   3.042   3.184  10.029 -0.5596  0.6646 -1.2779
  290MOL0     H39083   3.032   2.748  10.316 -0.6682  1.1597 -0.7494
  290MOL0     H39084   3.171   2.553  10.416  0.5820 -0.5538 -0.2705
  290MOL0     H39085   3.304   2.424  10.555  1.6131 -0.5378  0.4432
  290MOL0     H39086   3.327   2.381  10.372  1.8766 -2.4210  0.2839
  290MOL0     H39087   3.518   2.367  10.600  0.1380  0.4508 -1.1691
  290MOL0     H39088   3.422   2.238  10.555 -2.4238  1.5016 -1.6210
  290MOL0     H39089   3.541   2.286  10.311 -1.5121 -1.0225  0.5908
  290MOL0     H39090   3.665   2.350  10.435 -0.6993 -0.2037  4.7155
  290MOL0     H39091   3.653   2.142  10.561 -1.0099 -3.2139  0.4011
  290MOL0     H39092   3.560   2.071  10.421  1.9815 -2.7092 -1.2160
  290MOL0     H39093   3.764   1.996  10.388 -3.2353 -0.8947 -1.5749
  290MOL0     H39094   3.734   2.121  10.265  0.3167  1.7030  0.2604
  290MOL0     H39095   3.873   2.272  10.432 -3.3784 -0.0464 -0.8483
  290MOL0     H39096   3.900   2.127  10.519 -0.7711 -2.3574  0.3154
  290MOL0     H39097   3.969   2.178  10.229 -0.2071 -2.9191 -0.2004
  290MOL0     H39098   4.073   2.224  10.371  1.6111 -0.2095 -1.2065
  290MOL0     H39099   3.991   1.942  10.276 -2.4816  0.6711  1.6347
  290MOL0     H39100   4.051   1.968  10.435 -0.9750 -0.7284 -0.7730
  290MOL0     H39101   4.202   2.002  10.072  0.8072  1.1623 -0.3060
  290MOL0     H39102   4.415   2.081   9.981 -2.0586 -2.8811 -0.5505
  290MOL0     H39103   4.567   2.092  10.060  0.0349 -0.0939 -0.9563
  290MOL0     H39104   4.554   1.886   9.920  2.0007  2.3309  0.3214
  290MOL0     H39105   4.409   1.841  10.013  1.9760 -2.0732  0.2512
  290MOL0     H39106   4.567   1.716  10.119  1.7582 -0.4716 -1.0488
  290MOL0     H39107   4.550   1.848  10.227 -0.7586  2.8967 -1.7364
  290MOL0     H39108   4.758   1.963  10.155  1.6926  0.2247 -1.3501
  290MOL0     H39109   4.770   1.871  10.007  0.6704 -4.4552 -0.9165
  290MOL0     H39110   4.853   1.566  10.050 -0.7029  1.9116  3.6587
  290MOL0     H39111   5.005   1.382   9.942  2.0632  1.3290  2.5899
  290MOL0     H39112   4.998   1.454   9.782  1.4186 -1.8507  0.4545
  290MOL0     H39113   5.153   1.422   9.859  1.0784  0.9723 -2.7194
  290MOL0     H39114   5.520   1.477   9.919  0.8920  1.0982  2.0192
  290MOL0     H39115   5.739   1.438   9.794  0.3957  0.3867 -3.9302
  290MOL0     H39116   5.960   1.768   9.603  2.0354  0.1904 -0.9364
  290MOL0     H39117   6.000   1.739   9.778  0.0218 -1.4263  1.7656
  290MOL0     H39118   6.137   1.552   9.728 -1.3160 -1.0003 -1.0957
  290MOL0     H39119   6.113   1.564   9.553  2.7466  1.1847 -1.2011
  290MOL0     H39120   6.277   1.739   9.735  2.0800 -0.9328  0.3533
  290MOL0     H39121   6.261   1.779   9.566  0.0570  2.6487  2.6560
  290MOL0     H39122   6.374   1.521   9.666 -1.5470  1.0448  0.9209
  290MOL0     H39123   6.341   1.562   9.494  1.4448  0.2557 -1.2983
  290MOL0     H39124   6.553   1.659   9.689 -2.1666  1.4638  0.5800
  290MOL0     H39125   6.515   1.761   9.556 -2.9714  0.2398  0.7990
  290MOL0     H39126   6.589   1.464   9.517 -2.0755  1.2851  3.1932
  290MOL0     H39127   6.553   1.575   9.388  0.5899  2.4637  0.1936
  290MOL0     H39128   6.810   1.527   9.455  0.2481 -1.0044  5.0701
  290MOL0     H39129   6.785   1.617   9.599  3.7649  0.7681 -1.3238
  290MOL0     H39130   6.766   1.807   9.521 -1.8751  0.0903  0.9222
  290MOL0     H39131   6.706   1.768   9.356  0.4407  1.4850  0.4321
  290MOL0     H39132   5.766   1.859   9.715 -0.5705  0.9875 -0.0285
  290MOL0     H39133   5.530   1.883   9.832 -0.2476 -0.7475  2.3023
  290MOL0     H39134   5.228   1.880  10.006 -2.6041  3.3831  2.7701
  290MOL0     H39135   5.045   1.941  10.138  0.1362  0.6408 -0.3865
  290MOL0     H39136   3.540   2.764  10.354  0.1440  2.1142  1.5843
  290MOL0     H39137   3.410   2.953  10.255 -0.0134 -0.2514  0.7834
  290MOL0     H39138   2.770   3.105  10.211 -1.6996  2.7425  1.0687
  290MOL0     H39139   2.685   3.279  10.068  0.5158  1.4135 -0.7563
  290MOL0     H39140   2.632   3.484   9.941  0.2324  0.4118  0.8815
  290MOL0     H39141   2.746   3.546  10.065  2.2007  0.3203  0.3443
  290MOL0     H39142   2.778   3.648   9.792 -0.3593  2.3754 -0.3394
  290MOL0     H39143   2.840   3.706   9.949 -0.1521 -0.1413 -0.4874
  290MOL0     H39144   2.600   3.791   9.996 -1.6633  0.6945 -1.3344
  290MOL0     H39145   2.537   3.682   9.866 -0.2474  2.1392 -4.7502
  290MOL0     H39146   2.615   3.845   9.694 -1.6929  0.3222 -0.2885
  290MOL0     H39147   2.730   3.919   9.803 -2.1667  2.0876 -2.9211
  290MOL0     H39148   2.395   4.124   9.932 -0.3756 -1.8841  1.2466
  290MOL0     H39149   3.061   3.324   9.869 -0.7763 -0.9977 -0.4551
  290MOL0     H39150   3.140   3.148  10.001 -1.1947  0.5941 -3.6778
  291MOL0     O39151   2.088  10.460   9.680 -0.8516  0.3798 -1.0728
  291MOL0     C39152   2.121  10.349   9.624  0.1858 -0.2475  0.5982
  291MOL0     O39153   2.250  10.300   9.609 -0.0288  0.3044 -0.5347
  291MOL0     C39154   2.345  10.394   9.625  0.4205  0.2430  0.4961
  291MOL0     C39155   2.359  10.497   9.532 -0.0178 -0.2293 -0.3741
  291MOL0     C39156   2.464  10.582   9.544  0.3400 -0.5098 -0.7528
  291MOL0     C39157   2.570  10.564   9.631  1.1543 -0.0062 -0.0772
  291MOL0     O39158   2.670  10.649   9.652 -0.2447  0.1827 -0.5078
  291MOL0     C39159   2.704  10.747   9.552 -0.1093 -0.4168  0.5297
  291MOL0     C39160   2.843  10.816   9.570 -0.1465 -0.1961 -0.1182
  291MOL0     C39161   2.945  10.707   9.595 -0.2845 -0.4711 -0.2648
  291MOL0     C39162   3.082  10.738   9.521 -1.1348 -0.0594  0.5431
  291MOL0     C39163   3.212  10.659   9.583 -0.2282  0.8048  0.1298
  291MOL0     C39164   3.210  10.500   9.550 -0.9079 -0.5025 -0.8816
  291MOL0     C39165   3.323  10.427   9.629  0.0417  0.9988 -0.9954
  291MOL0     C39166   3.315  10.280   9.617 -0.2838  0.3862 -0.8216
  291MOL0     N39167   3.413  10.209   9.698 -0.6427 -0.5240 -0.4081
  291MOL0     C39168   3.432  10.073   9.689 -0.3944  0.1915  0.4062
  291MOL0     C39169   3.557  10.045   9.741  0.3025 -0.1747  0.8492
  291MOL0     C39170   3.608   9.904   9.754  0.4964  0.2062 -0.5614
  291MOL0     C39171   3.736   9.886   9.656  0.2318  0.6148 -0.2679
  291MOL0     C39172   3.862   9.935   9.740  0.6666 -1.0532 -0.4457
  291MOL0     C39173   3.911   9.838   9.861 -0.0337  0.0207  0.9489
  291MOL0     O39174   3.913   9.701   9.818 -0.2621 -0.0553  0.5966
  291MOL0     C39175   4.032   9.654   9.770 -0.7535  0.3645  1.2672
  291MOL0     C39176   4.116   9.589   9.858 -0.1285 -0.5375  0.0165
  291MOL0     C39177   4.240   9.554   9.805  1.0203 -0.6227 -0.9327
  291MOL0     C39178   4.343   9.511   9.910 -0.3095 -0.2265  0.4339
  291MOL0     C39179   4.278   9.563   9.673  0.0485  0.5059  0.4868
  291MOL0     C39180   4.399   9.498   9.619 -0.4430 -0.2360  0.6313
  291MOL0     O39181   4.445   9.381   9.678 -0.0157 -0.0037 -0.6188
  291MOL0     C39182   4.569   9.336   9.654  0.4261 -0.0099  0.5361
  291MOL0     C39183   4.671   9.358   9.750 -1.0488 -0.8754  0.4373
  291MOL0     C39184   4.794   9.299   9.731  0.2810 -0.9474 -0.4382
  291MOL0     C39185   4.817   9.213   9.626  0.5973  0.2463  0.2056
  291MOL0     O39186   4.952   9.168   9.623 -0.0041  0.0034  0.4488
  291MOL0     C39187   4.993   9.045   9.563  0.6430  0.0945  0.2996
  291MOL0     C39188   5.136   9.034   9.590 -1.0009 -0.5822 -0.1528
  291MOL0     C39189   5.169   9.063   9.737  0.1786  0.3695 -0.2514
  291MOL0     C39190   5.321   9.051   9.768 -0.1380  0.3065 -0.3345
  291MOL0     C39191   5.341   9.049   9.919 -0.1066 -0.0952  0.0345
  291MOL0     C39192   5.483   9.051   9.951 -0.5517 -0.6620  0.1307
  291MOL0     C39193   5.531   9.201   9.988  0.2749  0.2648  0.2707
  291MOL0     C39194   5.681   9.207  10.033 -0.1122  0.0986 -0.1155
  291MOL0    Cl39195   5.795   9.194   9.893 -0.4765 -0.1858 -0.1388
  291MOL0     C39196   4.720   9.189   9.536  0.0435  1.2905  0.5350
  291MOL0     C39197   4.592   9.248   9.550 -0.1283  0.1115 -0.3437
  291MOL0     O39198   4.443   9.552   9.515  0.2613 -0.4577 -0.3761
  291MOL0     C39199   4.188   9.627   9.583  0.0686 -1.2542  0.1520
  291MOL0     C39200   4.067   9.666   9.638  0.2086  0.0191 -1.0080
  291MOL0     N39201   3.612  10.161   9.783  0.2333 -0.1576  0.5395
  291MOL0     N39202   3.533  10.265   9.749  0.4643  0.0458  0.4824
  291MOL0     C39203   2.558  10.452   9.714 -0.8355 -0.6011 -0.2113
  291MOL0     C39204   2.447  10.369   9.721  0.0126  0.1324  0.7169
  291MOL0     C39205   2.005  10.266   9.580  0.2448  0.4718 -0.0489
  291MOL0     C39206   2.022  10.147   9.503  0.1153 -0.6654  0.9156
  291MOL0     C39207   1.914  10.062   9.470  0.0133 -0.4777  0.6205
  291MOL0     C39208   1.787  10.093   9.509 -0.1870  0.5725 -0.1097
  291MOL0     O39209   1.690  10.001   9.499  0.3745  0.1955 -0.5386
  291MOL0     C39210   1.584   9.993   9.599  0.7838 -0.2370  0.1946
  291MOL0     C39211   1.441  10.037   9.549 -0.5686  0.1821  0.2424
  291MOL0     C39212   1.359   9.915   9.526  0.3704 -0.2331 -1.5209
  291MOL0     C39213   1.214   9.951   9.493 -0.0798 -0.1189 -0.0016
  291MOL0     C39214   1.126   9.836   9.474 -0.1895  0.2298  0.0904
  291MOL0     C39215   1.046   9.737   9.463 -0.1741  0.5334  0.4092
  291MOL0     C39216   1.770  10.217   9.584  0.8886  0.7952 -0.1415
  291MOL0     C39217   1.875  10.301   9.610  0.2059  1.0879 -0.4908
  291MOL0     H39218   2.279  10.525   9.464 -0.8429  1.3570  1.1393
  291MOL0     H39219   2.461  10.672   9.483 -2.1449  0.9829  1.3211
  291MOL0     H39220   2.679  10.722   9.448 -0.8979 -0.4193  0.7144
  291MOL0     H39221   2.632  10.826   9.572  0.1715  0.2648 -1.0156
  291MOL0     H39222   2.876  10.875   9.485  0.7459 -1.1351 -0.4445
  291MOL0     H39223   2.836  10.873   9.663 -0.4937  1.0991 -0.9183
  291MOL0     H39224   2.967  10.691   9.701  2.6044 -0.8079 -0.8301
  291MOL0     H39225   2.906  10.612   9.558  1.8602 -2.4115  2.0887
  291MOL0     H39226   3.059  10.725   9.414  0.0793  4.2306 -0.4212
  291MOL0     H39227   3.098  10.846   9.516 -1.8876  0.0184 -1.3291
  291MOL0     H39228   3.307  10.700   9.548  0.8866  1.8236  3.8355
  291MOL0     H39229   3.223  10.688   9.688 -1.7540  0.4439  0.4087
  291MOL0     H39230   3.114  10.452   9.574  0.0685 -2.5342 -0.7684
  291MOL0     H39231   3.234  10.488   9.444  1.7827  0.2425 -0.4390
  291MOL0     H39232   3.413  10.462   9.578  1.9818 -0.7514  1.0037
  291MOL0     H39233   3.327  10.464   9.732  0.4991 -1.1098 -0.1973
  291MOL0     H39234   3.330  10.263   9.510 -1.5995  2.1615 -1.3437
  291MOL0     H39235   3.219  10.245   9.657 -0.3044 -0.4746 -1.5995
  291MOL0     H39236   3.358  10.001   9.653  1.6249 -0.1789 -3.5764
  291MOL0     H39237   3.631   9.891   9.861 -1.3897  2.5099  0.2215
  291MOL0     H39238   3.534   9.831   9.722  1.4477 -1.3521  0.6049
  291MOL0     H39239   3.717   9.937   9.562 -1.7767 -1.5546 -1.1382
  291MOL0     H39240   3.733   9.778   9.634 -1.4550  0.4539  0.6261
  291MOL0     H39241   3.844  10.033   9.785 -0.1713 -2.7812  3.3743
  291MOL0     H39242   3.946   9.937   9.669  0.0517  1.5542 -1.2150
  291MOL0     H39243   3.836   9.842   9.941 -0.5026 -2.4929  0.6991
  291MOL0     H39244   4.006   9.870   9.905  0.5248 -0.2460 -0.0316
  291MOL0     H39245   4.092   9.569   9.962  1.9035  0.5353  0.7608
  291MOL0     H39246   4.328   9.551  10.010  3.2975  0.2862  0.9018
  291MOL0     H39247   4.328   9.403   9.925  0.0250  0.1705  5.0601
  291MOL0     H39248   4.440   9.548   9.878  0.4677 -0.7514  2.0944
  291MOL0     H39249   4.660   9.423   9.836  3.3032 -0.5080  0.9273
  291MOL0     H39250   4.861   9.324   9.813 -2.3793  1.5769  1.1744
  291MOL0     H39251   4.939   8.965   9.616 -0.3139 -1.4770 -2.8120
  291MOL0     H39252   4.960   9.043   9.459  1.2573  0.2969  0.0967
  291MOL0     H39253   5.190   8.943   9.563  0.4494  0.3546 -0.5787
  291MOL0     H39254   5.185   9.118   9.540  1.6079 -2.1838 -0.4983
  291MOL0     H39255   5.124   8.994   9.809 -0.0740  1.4116  0.6055
  291MOL0     H39256   5.139   9.161   9.774  2.5534  1.1540 -0.2088
  291MOL0     H39257   5.361   8.960   9.721  2.7960  1.2332  0.1300
  291MOL0     H39258   5.380   9.128   9.718 -1.3549 -0.2938 -2.8621
  291MOL0     H39259   5.313   8.954   9.964  0.3275 -0.4353 -0.4021
  291MOL0     H39260   5.288   9.125   9.977  1.8287 -1.6146  4.1445
  291MOL0     H39261   5.496   8.977  10.031 -1.1470 -2.0431 -1.0104
  291MOL0     H39262   5.541   9.012   9.866  1.6427 -1.4877  1.8893
  291MOL0     H39263   5.469   9.248  10.065  1.1310  0.8227  0.6358
  291MOL0     H39264   5.522   9.268   9.902 -3.3760  0.7981  0.9299
  291MOL0     H39265   5.697   9.135  10.115 -1.5400  0.8339  0.8441
  291MOL0     H39266   5.698   9.305  10.077 -0.4136  0.8151 -1.5625
  291MOL0     H39267   4.736   9.131   9.446  1.6597  1.5793  0.5958
  291MOL0     H39268   4.512   9.227   9.480  0.0735  0.1032 -0.5744
  291MOL0     H39269   4.210   9.646   9.478  1.9124 -2.9924  0.1700
  291MOL0     H39270   4.000   9.711   9.565 -3.4269 -1.7648  0.9661
  291MOL0     H39271   2.642  10.433   9.780  0.4805 -2.3010 -2.2265
  291MOL0     H39272   2.452  10.277   9.778 -2.5922 -1.8896 -1.9692
  291MOL0     H39273   2.127  10.131   9.481 -0.0472 -0.5198 -0.0059
  291MOL0     H39274   1.928   9.969   9.415 -1.5022 -0.9509  0.9744
  291MOL0     H39275   1.571   9.889   9.629  2.5378 -1.4041 -2.6937
  291MOL0     H39276   1.598  10.053   9.689 -0.5401 -3.4984  2.7877
  291MOL0     H39277   1.443  10.093   9.455  2.5966 -1.3310 -0.7425
  291MOL0     H39278   1.391  10.108   9.616 -0.6460  2.3227 -1.9522
  291MOL0     H39279   1.361   9.853   9.615  2.8412  1.1739 -0.4803
  291MOL0     H39280   1.398   9.848   9.449  1.7279 -1.1165 -0.1201
  291MOL0     H39281   1.209  10.007   9.399 -0.1024 -0.6164 -0.2985
  291MOL0     H39282   1.168  10.008   9.575 -0.1831  2.6615 -1.8463
  291MOL0     H39283   0.991   9.646   9.450 -1.8414  1.5569 -0.0782
  291MOL0     H39284   1.677  10.239   9.636  0.7589  0.8677 -0.4023
  291MOL0     H39285   1.842  10.390   9.663 -0.2014 -0.4079  1.9133
  292MOL0     O39286   5.640  10.536  10.256 -0.1717 -0.2232 -0.1697
  292MOL0     C39287   5.675  10.431  10.198  1.3879 -0.1701 -0.1214
  292MOL0     O39288   5.591  10.321  10.177  0.2310 -1.3966 -0.3015
  292MOL0     C39289   5.478  10.335  10.253 -0.0260  0.8020 -0.8843
  292MOL0     C39290   5.450  10.245  10.360 -0.1587  0.4024  0.4748
  292MOL0     C39291   5.338  10.244  10.434  0.3896 -1.2420  0.4025
  292MOL0     C39292   5.233  10.334  10.391 -0.2656  0.2483 -1.4414
  292MOL0     O39293   5.114  10.337  10.458  0.2206  0.6288  0.7784
  292MOL0     C39294   5.112  10.288  10.592  0.0314  0.0328 -0.2958
  292MOL0     C39295   4.975  10.314  10.661  0.6177 -0.1005  1.0655
  292MOL0     C39296   4.958  10.463  10.689 -0.7361  0.1570 -0.4391
  292MOL0     C39297   4.823  10.506  10.740  0.1350  0.3586 -1.0002
  292MOL0     C39298   4.812  10.477  10.891 -0.4760  0.3867  0.1343
  292MOL0     C39299   4.881  10.582  10.973 -0.8092 -0.5001  0.1596
  292MOL0     C39300   4.872  10.552  11.124  0.2599 -0.3154  0.4431
  292MOL0     C39301   4.961  10.644  11.204 -0.6387  0.4968  0.1845
  292MOL0     N39302   4.921  10.650  11.343 -0.2363  0.3947  0.4523
  292MOL0     C39303   4.807  10.717  11.395  0.4636  0.2749  0.1110
  292MOL0     C39304   4.789  10.665  11.518  0.2127 -0.3261  0.6080
  292MOL0     C39305   4.663  10.677  11.602 -0.1234  0.5003 -0.4347
  292MOL0     C39306   4.672  10.741  11.743 -1.0295  0.3101  0.0293
  292MOL0     C39307   4.697  10.893  11.727 -0.2715  0.3506  0.1967
  292MOL0     C39308   4.573  10.974  11.689  0.3934  0.1682  0.2822
  292MOL0     O39309   4.613  11.108  11.692 -0.1677 -0.6438 -0.2969
  292MOL0     C39310   4.514  11.203  11.703  1.0136 -0.5424 -0.5410
  292MOL0     C39311   4.564  11.331  11.711  0.3377 -0.5074  0.3810
  292MOL0     C39312   4.478  11.446  11.690 -0.9743  0.0413 -0.2670
  292MOL0     C39313   4.542  11.581  11.657  0.7600  0.6225 -0.5390
  292MOL0     C39314   4.330  11.428  11.695  0.6553 -1.2520 -0.4159
  292MOL0     C39315   4.228  11.533  11.685  0.5935 -1.0447  0.3434
  292MOL0     O39316   4.100  11.500  11.731 -0.8098  0.2698  0.2399
  292MOL0     C39317   3.998  11.593  11.731 -0.3480  0.7086 -0.2563
  292MOL0     C39318   4.006  11.732  11.747  0.1185  0.8190 -0.3849
  292MOL0     C39319   3.886  11.806  11.751 -0.4752 -0.6448 -1.1741
  292MOL0     C39320   3.764  11.742  11.736 -0.4206  0.3165  0.3703
  292MOL0     O39321   3.655  11.818  11.734  0.2808  0.1080 -0.1444
  292MOL0     C39322   3.528  11.752  11.749  0.3517 -0.4649 -0.4972
  292MOL0     C39323   3.434  11.873  11.764  1.1590 -0.3532 -0.2551
  292MOL0     C39324   3.292  11.826  11.737 -0.1910 -0.4613 -0.4009
  292MOL0     C39325   3.215  11.777  11.863 -0.0763 -0.1828  0.8923
  292MOL0     C39326   3.070  11.765  11.837 -0.1146  0.9583 -0.3565
  292MOL0     C39327   2.989  11.761  11.974 -0.4217  0.1004  0.3539
  292MOL0     C39328   2.986  11.624  12.040  0.6669 -0.0846 -0.0130
  292MOL0     C39329   2.949  11.632  12.189 -0.4505 -0.3145 -0.2897
  292MOL0    Cl39330   2.791  11.686  12.197  0.1092  0.2898  0.2819
  292MOL0     C39331   3.762  11.605  11.705  0.3164  1.0685 -0.3149
  292MOL0     C39332   3.883  11.531  11.702  0.7462 -0.6844 -0.4707
  292MOL0     O39333   4.269  11.645  11.650  0.3838  0.5279 -0.1655
  292MOL0     C39334   4.286  11.298  11.720  0.3880 -0.7654  1.1257
  292MOL0     C39335   4.375  11.184  11.724  0.7114 -0.8585 -0.1624
  292MOL0     N39336   4.903  10.586  11.547  0.0271 -0.4897 -0.1083
  292MOL0     N39337   4.971  10.573  11.444 -0.5619  0.3145  0.0665
  292MOL0     C39338   5.248  10.419  10.282 -0.7143  0.6346  0.1813
  292MOL0     C39339   5.372  10.422  10.215 -0.5975 -0.1448  0.1231
  292MOL0     C39340   5.803  10.444  10.120  0.3319 -0.6888  1.3777
  292MOL0     C39341   5.901  10.539  10.150  0.2411 -0.2320  0.7054
  292MOL0     C39342   6.021  10.534  10.073 -0.7649  0.2095  0.8790
  292MOL0     C39343   6.042  10.450   9.975 -0.0637 -0.6051 -0.0704
  292MOL0     O39344   6.157  10.448   9.906 -0.4082  0.6903 -0.2093
  292MOL0     C39345   6.172  10.553   9.809  0.4770 -1.3782  0.3966
  292MOL0     C39346   6.301  10.546   9.721 -0.0522 -0.4166  0.1359
  292MOL0     C39347   6.345  10.400   9.669  0.3970 -0.7813  0.8186
  292MOL0     C39348   6.481  10.406   9.602 -0.3285 -0.4664 -0.7658
  292MOL0     C39349   6.592  10.411   9.699 -0.4116 -0.3163 -0.1725
  292MOL0     C39350   6.689  10.431   9.773  0.6235 -0.2365  0.2741
  292MOL0     C39351   5.945  10.359   9.941  0.4291  0.5458 -0.1625
  292MOL0     C39352   5.822  10.355  10.014 -0.5721 -0.1403 -0.4332
  292MOL0     H39353   5.526  10.172  10.385  0.5294  1.0597  0.3547
  292MOL0     H39354   5.322  10.182  10.522 -1.4940  0.4402  1.3284
  292MOL0     H39355   5.137  10.182  10.600  1.0809  0.2240 -0.8913
  292MOL0     H39356   5.189  10.331  10.656 -2.8581 -0.1737  3.6230
  292MOL0     H39357   4.896  10.275  10.596 -1.0736  1.5404  2.0236
  292MOL0     H39358   4.985  10.267  10.759  0.7947 -1.8521  0.2537
  292MOL0     H39359   5.041  10.481  10.758 -1.8653  0.6477  0.8372
  292MOL0     H39360   4.976  10.519  10.597  1.1427  1.2307  0.5145
  292MOL0     H39361   4.813  10.613  10.720  0.1660  1.0920  2.2463
  292MOL0     H39362   4.747  10.454  10.681 -0.6466 -0.5481  0.7195
  292MOL0     H39363   4.708  10.462  10.923 -0.3645 -0.2428  0.2014
  292MOL0     H39364   4.863  10.384  10.917 -0.2029  1.0229  2.0389
  292MOL0     H39365   4.985  10.586  10.940 -1.0868 -0.6870 -0.7494
  292MOL0     H39366   4.834  10.679  10.959 -0.9700 -0.5363  0.4344
  292MOL0     H39367   4.770  10.570  11.160  0.3456 -1.0201  1.0481
  292MOL0     H39368   4.895  10.447  11.141 -0.5537 -0.6131 -0.1973
  292MOL0     H39369   4.953  10.747  11.168  0.5623 -0.1734 -2.2009
  292MOL0     H39370   5.064  10.607  11.192 -1.9083 -2.7489 -2.2671
  292MOL0     H39371   4.736  10.777  11.341  0.9285  1.0922  0.3849
  292MOL0     H39372   4.595  10.726  11.532 -0.0648 -0.2060 -0.9911
  292MOL0     H39373   4.631  10.573  11.613  0.1359  0.4139 -0.4886
  292MOL0     H39374   4.762  10.698  11.788 -1.7805 -3.2389 -1.4976
  292MOL0     H39375   4.587  10.719  11.808 -1.9640  0.4274 -1.1254
  292MOL0     H39376   4.778  10.909  11.656  1.2883 -1.8181  1.3859
  292MOL0     H39377   4.736  10.950  11.812 -0.1681  0.6602 -0.0562
  292MOL0     H39378   4.494  10.947  11.759 -2.5887 -1.8782 -3.5126
  292MOL0     H39379   4.540  10.942  11.590  2.7103  0.0408 -0.5188
  292MOL0     H39380   4.673  11.331  11.716  0.3828 -0.6362 -0.4058
  292MOL0     H39381   4.499  11.619  11.563  0.7453 -2.3398 -1.8326
  292MOL0     H39382   4.528  11.651  11.740 -0.5194  0.5280 -0.6547
  292MOL0     H39383   4.648  11.563  11.640  0.3198  0.5695 -4.0825
  292MOL0     H39384   4.101  11.783  11.762  0.8670 -1.2438  3.2455
  292MOL0     H39385   3.882  11.914  11.765 -2.6074 -0.9908  2.0456
  292MOL0     H39386   3.497  11.698  11.660 -3.8720  0.9096 -0.0480
  292MOL0     H39387   3.519  11.686  11.836  1.2355  0.1672  0.0881
  292MOL0     H39388   3.451  11.932  11.855  3.4757 -3.4779  1.5400
  292MOL0     H39389   3.454  11.942  11.682  1.6412 -0.2740 -0.0772
  292MOL0     H39390   3.280  11.735  11.677 -3.0566  0.3115 -1.1385
  292MOL0     H39391   3.231  11.904  11.692  0.5308  0.3879  0.0707
  292MOL0     H39392   3.250  11.676  11.887  0.2553  0.4992  3.5920
  292MOL0     H39393   3.236  11.836  11.953  1.7407 -0.4380  0.6700
  292MOL0     H39394   3.045  11.679  11.774  0.6347  1.2924 -1.1270
  292MOL0     H39395   3.026  11.851  11.786 -1.5639  1.7442  2.0424
  292MOL0     H39396   3.029  11.836  12.044 -0.8931  0.0662  0.6629
  292MOL0     H39397   2.886  11.791  11.955 -0.5311  1.3768  2.6294
  292MOL0     H39398   3.083  11.574  12.032 -0.6878 -2.6996 -1.9327
  292MOL0     H39399   2.904  11.572  11.989 -1.7400  0.7414  2.7420
  292MOL0     H39400   3.019  11.696  12.244  0.2305 -2.3151  1.3025
  292MOL0     H39401   2.952  11.534  12.237 -0.8541  0.0903  0.5847
  292MOL0     H39402   3.662  11.565  11.690  0.6338 -0.0553  0.4360
  292MOL0     H39403   3.868  11.424  11.695 -2.3428 -0.4738  1.2527
  292MOL0     H39404   4.181  11.280  11.738  0.3922 -0.5596  1.3691
  292MOL0     H39405   4.329  11.093  11.759  2.1555  0.3004  5.7146
  292MOL0     H39406   5.159  10.473  10.252 -2.5473 -1.8923  0.7146
  292MOL0     H39407   5.393  10.494  10.136  2.1282  0.3466  1.1741
  292MOL0     H39408   5.890  10.614  10.227  0.8307 -0.1196  0.6847
  292MOL0     H39409   6.109  10.590  10.103 -0.6455 -0.0704  1.0556
  292MOL0     H39410   6.078  10.542   9.753  0.0653 -0.3569  0.8805
  292MOL0     H39411   6.163  10.649   9.860  0.0982 -1.1506 -0.0903
  292MOL0     H39412   6.385  10.599   9.767 -0.1486  0.0806 -0.2467
  292MOL0     H39413   6.276  10.601   9.630 -3.6265 -2.6935 -0.4626
  292MOL0     H39414   6.272  10.360   9.598  2.0178 -0.0073 -1.3955
  292MOL0     H39415   6.352  10.326   9.750 -1.6269 -0.7250  1.1155
  292MOL0     H39416   6.499  10.491   9.535  1.5437  1.0277  1.4652
  292MOL0     H39417   6.500  10.316   9.543 -1.9404 -1.3271 -0.0174
  292MOL0     H39418   6.772  10.459   9.835  0.4939  1.6096 -0.3152
  292MOL0     H39419   5.966  10.297   9.854 -1.3833  1.9530 -1.6724
  292MOL0     H39420   5.736  10.296   9.984 -2.2046  1.1998  1.3282
  293MOL0     O39421   5.589   1.865   0.080  0.0689 -0.5458  0.4498
  293MOL0     C39422   5.469   1.876   0.067 -0.7773 -0.1295  0.2049
  293MOL0     O39423   5.401   1.888  -0.057 -0.0051  0.3946 -0.2989
  293MOL0     C39424   5.475   1.884  -0.173 -0.4261  0.5851  0.3946
  293MOL0     C39425   5.540   1.767  -0.212 -0.1679 -0.3605 -0.3332
  293MOL0     C39426   5.623   1.757  -0.329  0.1164  0.3534  1.0350
  293MOL0     C39427   5.655   1.879  -0.405 -0.7382  0.2334 -0.2048
  293MOL0     O39428   5.731   1.876  -0.524  0.2420 -0.5794  0.1995
  293MOL0     C39429   5.832   1.978  -0.525  0.2070  0.5166  0.5171
  293MOL0     C39430   5.968   1.925  -0.473  0.4604  0.6576  0.4172
  293MOL0     C39431   6.085   2.009  -0.530  0.3277 -0.1315  0.9256
  293MOL0     C39432   6.157   2.087  -0.424 -0.4256 -0.1331 -0.3965
  293MOL0     C39433   6.243   2.206  -0.481  1.4919 -0.5678 -0.3118
  293MOL0     C39434   6.347   2.178  -0.596  0.5761 -0.3352 -0.4460
  293MOL0     C39435   6.418   2.040  -0.565 -0.1126  0.3059 -0.0873
  293MOL0     C39436   6.550   2.024  -0.644  0.7475 -0.5327  0.2974
  293MOL0     N39437   6.664   2.105  -0.598 -0.4647  0.3497  0.3813
  293MOL0     C39438   6.697   2.228  -0.651 -0.1198 -0.1854 -0.2308
  293MOL0     C39439   6.754   2.296  -0.547 -0.1221 -0.4151 -0.3453
  293MOL0     C39440   6.774   2.447  -0.545  0.7605  0.3877 -0.3593
  293MOL0     C39441   6.650   2.523  -0.563 -0.3811  0.3762  0.2866
  293MOL0     C39442   6.533   2.512  -0.467 -0.1124 -0.2120  0.6464
  293MOL0     C39443   6.558   2.562  -0.327 -0.3057 -0.3975 -0.1250
  293MOL0     O39444   6.492   2.685  -0.310 -0.0439  0.7598  0.5887
  293MOL0     C39445   6.359   2.690  -0.274  0.1799  0.6195  0.1230
  293MOL0     C39446   6.323   2.814  -0.222  0.4124  0.0528  1.3188
  293MOL0     C39447   6.191   2.841  -0.188 -0.4320 -0.0216 -0.5990
  293MOL0     C39448   6.173   2.964  -0.103  0.0957 -0.8379 -0.1329
  293MOL0     C39449   6.089   2.746  -0.207  0.4141 -0.2153 -0.5567
  293MOL0     C39450   5.946   2.776  -0.170 -0.4489 -0.3188 -0.2102
  293MOL0     O39451   5.853   2.677  -0.134 -0.2250 -0.3542 -0.0340
  293MOL0     C39452   5.731   2.718  -0.092  0.3210  0.2490  0.4155
  293MOL0     C39453   5.710   2.721   0.048  0.3916 -0.0769  0.3782
  293MOL0     C39454   5.579   2.759   0.090 -0.9246  0.3787  0.9796
  293MOL0     C39455   5.485   2.793  -0.013  0.4546  0.5097  0.9710
  293MOL0     O39456   5.362   2.841   0.024  0.3710 -0.9285 -0.2163
  293MOL0     C39457   5.266   2.749   0.080 -0.0925 -0.2455 -0.4405
  293MOL0     C39458   5.160   2.839   0.142  0.6917 -0.0203  0.6838
  293MOL0     C39459   5.051   2.869   0.031 -1.1005  0.0216 -0.7391
  293MOL0     C39460   4.953   2.975   0.068  0.3968 -0.2750 -0.7889
  293MOL0     C39461   4.909   2.996   0.217 -0.6791  0.4118  0.6869
  293MOL0     C39462   4.836   3.126   0.226 -0.4092  0.0236  0.8125
  293MOL0     C39463   4.685   3.123   0.243  1.1927  0.8822  0.2256
  293MOL0     C39464   4.619   3.115   0.101 -0.7875 -0.3682 -0.2212
  293MOL0    Cl39465   4.672   3.255   0.008  0.0857  1.0219  0.1857
  293MOL0     C39466   5.509   2.779  -0.148  0.9367 -0.9386 -0.5260
  293MOL0     C39467   5.632   2.732  -0.189 -0.7630 -0.8223 -0.2031
  293MOL0     O39468   5.910   2.892  -0.180 -0.4943  0.7428  0.6303
  293MOL0     C39469   6.130   2.626  -0.266 -0.2550  0.8184 -1.0956
  293MOL0     C39470   6.265   2.590  -0.287  0.2365  0.6937  0.4551
  293MOL0     N39471   6.754   2.207  -0.439  0.1409  0.3580 -0.3077
  293MOL0     N39472   6.708   2.092  -0.476  1.5451 -0.1789 -0.0070
  293MOL0     C39473   5.593   1.998  -0.368 -0.5250  0.2290 -0.8417
  293MOL0     C39474   5.506   1.998  -0.253 -0.3516  0.5284  0.9663
  293MOL0     C39475   5.396   1.882   0.193 -0.3783 -0.5757 -0.0020
  293MOL0     C39476   5.268   1.950   0.192 -0.6188 -0.5009  0.2784
  293MOL0     C39477   5.200   1.976   0.312 -0.0038 -0.4881  0.3196
  293MOL0     C39478   5.242   1.935   0.432 -0.4727 -0.0160  0.6354
  293MOL0     O39479   5.184   1.946   0.554  0.1269 -0.7986 -1.2441
  293MOL0     C39480   5.047   1.975   0.573  0.5207  0.0754  0.1850
  293MOL0     C39481   5.005   1.967   0.720 -0.4927  0.5088  0.0753
  293MOL0     C39482   4.855   2.001   0.742 -0.4066  0.4378 -0.6618
  293MOL0     C39483   4.821   2.025   0.886 -0.5511 -0.6245  0.0291
  293MOL0     C39484   4.678   2.046   0.900 -0.8942 -0.2029  0.6731
  293MOL0     C39485   4.558   2.064   0.899 -0.3361  0.5529  0.0800
  293MOL0     C39486   5.358   1.850   0.429 -0.4610 -0.3250 -0.3276
  293MOL0     C39487   5.434   1.830   0.314 -0.9618  0.7694  1.3853
  293MOL0     H39488   5.528   1.673  -0.159 -1.8560 -1.1644 -2.0353
  293MOL0     H39489   5.657   1.660  -0.365 -0.5413  0.5483 -0.1539
  293MOL0     H39490   5.841   2.018  -0.627 -2.2822  2.6508  1.0264
  293MOL0     H39491   5.823   2.067  -0.463  2.3904  0.3786  1.1079
  293MOL0     H39492   5.965   1.926  -0.364 -0.5044  1.2011  0.3931
  293MOL0     H39493   5.972   1.822  -0.510  0.6777  1.3254 -1.5602
  293MOL0     H39494   6.152   1.938  -0.580 -2.5288 -2.6344  0.3652
  293MOL0     H39495   6.054   2.077  -0.611  1.8636 -4.2928 -3.6544
  293MOL0     H39496   6.086   2.122  -0.348  0.4450  0.0136  0.3622
  293MOL0     H39497   6.215   2.013  -0.368 -0.6604  1.8976  2.7685
  293MOL0     H39498   6.169   2.275  -0.521 -0.2159 -1.8110  0.5939
  293MOL0     H39499   6.296   2.245  -0.393  0.9553  1.7266 -0.9569
  293MOL0     H39500   6.295   2.167  -0.692  2.2234 -0.0596 -1.4033
  293MOL0     H39501   6.409   2.267  -0.605 -1.7630  1.5549  1.0887
  293MOL0     H39502   6.445   2.049  -0.460  2.6432  2.7972 -0.8873
  293MOL0     H39503   6.357   1.949  -0.565  0.6337 -0.2173  1.3490
  293MOL0     H39504   6.531   2.030  -0.752 -2.4402 -0.9059  0.7149
  293MOL0     H39505   6.579   1.920  -0.627 -0.4001 -0.6931  1.3938
  293MOL0     H39506   6.675   2.259  -0.752 -0.9157 -0.2990 -0.0959
  293MOL0     H39507   6.815   2.469  -0.446 -2.2112 -2.5250  1.7352
  293MOL0     H39508   6.845   2.475  -0.623  3.8127 -0.4108  1.9338
  293MOL0     H39509   6.628   2.510  -0.670  0.9959 -1.1836  0.1423
  293MOL0     H39510   6.689   2.625  -0.559  0.9056 -0.0570 -0.3140
  293MOL0     H39511   6.499   2.408  -0.463  1.3639 -0.7089  0.8305
  293MOL0     H39512   6.453   2.575  -0.508  0.9140  0.7281  0.0114
  293MOL0     H39513   6.665   2.564  -0.303  0.0047 -2.7290 -1.0492
  293MOL0     H39514   6.513   2.504  -0.247  0.5638  1.3939  1.7484
  293MOL0     H39515   6.394   2.896  -0.221 -2.0311  2.4333 -1.1645
  293MOL0     H39516   6.137   3.049  -0.162 -0.9189 -0.8220  0.4932
  293MOL0     H39517   6.091   2.950  -0.032  0.3338  0.7065  0.4764
  293MOL0     H39518   6.264   2.986  -0.046  0.0649 -3.1375  0.9019
  293MOL0     H39519   5.777   2.686   0.126 -2.4031 -1.3789  2.3660
  293MOL0     H39520   5.572   2.746   0.198  1.3498 -1.4723  1.0001
  293MOL0     H39521   5.218   2.679   0.011 -2.5956 -3.0681  3.6925
  293MOL0     H39522   5.322   2.691   0.154  1.2788 -0.0186 -1.2672
  293MOL0     H39523   5.100   2.785   0.216  0.8513  1.3166  1.8247
  293MOL0     H39524   5.204   2.933   0.176  3.2064 -1.4130  1.5443
  293MOL0     H39525   5.004   2.770   0.034  2.2012 -1.8472  4.7075
  293MOL0     H39526   5.082   2.893  -0.071 -2.0383 -0.4915 -1.1602
  293MOL0     H39527   5.009   3.067   0.052 -2.7310  2.2124  1.3695
  293MOL0     H39528   4.858   2.965   0.015 -0.5844  2.2004  0.3459
  293MOL0     H39529   4.996   2.998   0.283  0.5935 -0.0084 -0.9155
  293MOL0     H39530   4.853   2.909   0.253 -0.0029 -0.9594 -1.3756
  293MOL0     H39531   4.877   3.171   0.316 -0.3123  3.0860 -0.6259
  293MOL0     H39532   4.866   3.199   0.150  0.5570 -1.2723 -0.1007
  293MOL0     H39533   4.645   3.216   0.285  0.6356  0.7801 -0.0685
  293MOL0     H39534   4.650   3.045   0.311 -2.1673  4.2278  2.7271
  293MOL0     H39535   4.510   3.118   0.115 -0.6601 -0.3877  0.8681
  293MOL0     H39536   4.641   3.024   0.045 -0.6161  0.0632 -0.8746
  293MOL0     H39537   5.427   2.811  -0.212 -0.5462 -1.0005  1.2590
  293MOL0     H39538   5.655   2.728  -0.295  2.5152 -0.4732  0.3893
  293MOL0     H39539   6.051   2.562  -0.302 -1.0454  0.7837  0.6186
  293MOL0     H39540   6.279   2.493  -0.334  0.4837  0.8050  0.3041
  293MOL0     H39541   5.593   2.098  -0.409 -2.3675  0.8151  0.4605
  293MOL0     H39542   5.465   2.090  -0.211  1.4952  1.9667 -0.2027
  293MOL0     H39543   5.232   1.997   0.101  2.0427  0.0102 -0.6188
  293MOL0     H39544   5.119   2.048   0.313 -1.4057 -2.0026  0.3911
  293MOL0     H39545   5.027   2.082   0.560  3.0445  0.4171 -1.4479
  293MOL0     H39546   5.006   1.907   0.498  3.3096  0.7210 -2.0631
  293MOL0     H39547   5.056   2.046   0.775 -2.4777  1.0779  1.1917
  293MOL0     H39548   5.031   1.873   0.770 -0.2523  0.7382  0.3883
  293MOL0     H39549   4.803   1.912   0.705  1.4009 -0.6353 -0.7518
  293MOL0     H39550   4.838   2.096   0.691 -1.2349  2.4513  2.9938
  293MOL0     H39551   4.865   2.119   0.921 -0.0742  0.5327 -3.3554
  293MOL0     H39552   4.852   1.939   0.946  0.2058 -1.3663 -1.3803
  293MOL0     H39553   4.457   2.099   0.909 -0.1953  0.7666  0.8014
  293MOL0     H39554   5.385   1.797   0.520 -2.9437  0.5642  1.0282
  293MOL0     H39555   5.530   1.779   0.323 -0.5491  1.5308  1.3895
  294MOL0     O39556   2.392   0.823   5.926  0.7393  0.1655 -0.2425
  294MOL0     C39557   2.474   0.773   5.850 -0.2128  0.6988  0.5866
  294MOL0     O39558   2.469   0.777   5.713  0.3373  0.5800 -0.4241
  294MOL0     C39559   2.381   0.867   5.651  0.5067  0.9045 -0.7584
  294MOL0     C39560   2.250   0.821   5.648  0.2572  0.6167 -0.3583
  294MOL0     C39561   2.145   0.907   5.594  0.1424  0.6704 -0.4350
  294MOL0     C39562   2.184   1.038   5.559 -0.4419 -0.4635 -0.2774
  294MOL0     O39563   2.085   1.123   5.520  0.0871 -0.2118 -0.0701
  294MOL0     C39564   2.105   1.269   5.530 -0.3327  0.7777 -0.4005
  294MOL0     C39565   1.977   1.334   5.519  0.2736  0.1584 -0.7874
  294MOL0     C39566   1.964   1.463   5.593  0.1168  0.0705 -0.4852
  294MOL0     C39567   1.861   1.570   5.545 -0.2654  1.0246 -0.3576
  294MOL0     C39568   1.720   1.516   5.546  0.1556 -0.6558 -0.3964
  294MOL0     C39569   1.634   1.633   5.556  0.1698  0.4291  0.2135
  294MOL0     C39570   1.495   1.573   5.534 -0.0985  0.7621  0.7994
  294MOL0     C39571   1.381   1.647   5.590  0.9570 -0.1520 -0.5553
  294MOL0     N39572   1.265   1.573   5.555  0.1951  0.0244 -0.0604
  294MOL0     C39573   1.230   1.443   5.584  0.1745  0.2773 -0.2054
  294MOL0     C39574   1.118   1.418   5.510  0.2150  0.5208  0.1376
  294MOL0     C39575   1.047   1.286   5.513 -0.4700  0.4705 -0.0073
  294MOL0     C39576   0.933   1.280   5.407  0.5671  0.1491  0.7901
  294MOL0     C39577   0.858   1.143   5.371 -0.9579  0.1722  0.4143
  294MOL0     C39578   0.809   1.142   5.224  0.4630 -0.4453 -0.9106
  294MOL0     O39579   0.911   1.094   5.139 -0.0857 -0.3688 -0.1191
  294MOL0     C39580   0.876   1.000   5.046 -0.8156 -0.6184 -0.2268
  294MOL0     C39581   0.806   0.884   5.079  0.2893  0.2555 -0.6052
  294MOL0     C39582   0.767   0.790   4.975 -0.5484 -0.7227 -0.3639
  294MOL0     C39583   0.682   0.673   5.018 -0.5151 -0.0542 -0.1085
  294MOL0     C39584   0.804   0.818   4.844 -0.6878  0.0404 -0.1176
  294MOL0     C39585   0.749   0.748   4.726  0.1277 -0.7423 -0.4471
  294MOL0     O39586   0.832   0.704   4.639 -0.1729 -0.3252 -0.4289
  294MOL0     C39587   0.787   0.617   4.545 -0.0861 -0.5413  0.9499
  294MOL0     C39588   0.804   0.650   4.407  0.6675 -0.3021 -0.4167
  294MOL0     C39589   0.786   0.548   4.310  0.6762 -0.7748 -0.5339
  294MOL0     C39590   0.744   0.418   4.349  0.4235 -1.0473 -1.4442
  294MOL0     O39591   0.725   0.328   4.254  0.1524  0.0855 -0.5631
  294MOL0     C39592   0.600   0.363   4.188 -0.3628 -0.1480  0.6628
  294MOL0     C39593   0.577   0.279   4.063  0.4536  0.3902  0.4083
  294MOL0     C39594   0.440   0.287   3.992  0.1500 -0.7932  0.7849
  294MOL0     C39595   0.411   0.421   3.919 -0.6822 -0.5004  0.9982
  294MOL0     C39596   0.288   0.422   3.825  0.2069  0.5948  0.6108
  294MOL0     C39597   0.267   0.562   3.769  0.1423  0.1146 -0.0085
  294MOL0     C39598   0.150   0.564   3.683 -0.6566 -0.0983  0.5628
  294MOL0     C39599   0.087   0.706   3.680 -0.2664  0.5955 -0.3807
  294MOL0    Cl39600  -0.053   0.690   3.583 -0.0307  0.3379 -0.2598
  294MOL0     C39601   0.731   0.379   4.487  0.3464 -0.1444  0.2661
  294MOL0     C39602   0.757   0.481   4.577  0.4008  0.0640 -0.2858
  294MOL0     O39603   0.627   0.728   4.731 -0.1327  1.0960  0.0173
  294MOL0     C39604   0.888   0.926   4.821  0.7669 -0.3034  0.6082
  294MOL0     C39605   0.926   1.021   4.921 -0.4368  0.1368 -0.4475
  294MOL0     N39606   1.085   1.531   5.438 -0.6640 -0.3480 -0.1990
  294MOL0     N39607   1.173   1.623   5.472  0.5400  0.7508  0.6225
  294MOL0     C39608   2.319   1.079   5.563 -0.5096  0.7392 -0.1723
  294MOL0     C39609   2.415   0.989   5.610 -0.3879 -0.1398  0.0892
  294MOL0     C39610   2.590   0.697   5.913  0.2969 -1.3844  0.0614
  294MOL0     C39611   2.653   0.600   5.839  0.2494  0.1340 -0.1281
  294MOL0     C39612   2.756   0.524   5.915 -0.0289  0.2481 -0.2270
  294MOL0     C39613   2.793   0.536   6.042  0.6301 -0.8276  0.0875
  294MOL0     O39614   2.878   0.440   6.086 -0.0702 -0.7484  0.8255
  294MOL0     C39615   2.912   0.445   6.224  0.4262  0.3036  0.3796
  294MOL0     C39616   3.028   0.544   6.263  0.0140  0.4629 -0.4284
  294MOL0     C39617   3.159   0.485   6.216 -0.7192 -0.9409 -0.5880
  294MOL0     C39618   3.209   0.508   6.070  0.1471  0.9865 -0.2874
  294MOL0     C39619   3.222   0.652   6.049  0.8500 -0.0377  0.1279
  294MOL0     C39620   3.225   0.767   6.011 -0.4492  0.0449  0.3413
  294MOL0     C39621   2.735   0.644   6.109 -0.4530 -0.8987  1.0190
  294MOL0     C39622   2.638   0.725   6.043  0.5327  0.4020 -0.4224
  294MOL0     H39623   2.224   0.725   5.692  2.3805  1.0507  2.1909
  294MOL0     H39624   2.039   0.885   5.600  0.3653 -0.0712  1.3101
  294MOL0     H39625   2.152   1.291   5.626  2.8399  0.5377 -1.7443
  294MOL0     H39626   2.175   1.309   5.455 -1.2781 -0.6818 -2.1268
  294MOL0     H39627   1.966   1.359   5.413  2.9032  2.1813 -0.6848
  294MOL0     H39628   1.901   1.263   5.553  1.5386 -0.5268  0.7371
  294MOL0     H39629   1.937   1.444   5.697 -1.2209 -0.1530 -0.8536
  294MOL0     H39630   2.057   1.521   5.583 -0.8122  1.5105 -1.1747
  294MOL0     H39631   1.869   1.654   5.614  2.3519  0.9126 -0.4071
  294MOL0     H39632   1.883   1.608   5.445  1.5648  1.4882  0.1793
  294MOL0     H39633   1.706   1.460   5.454  0.9243  1.9518 -2.2164
  294MOL0     H39634   1.715   1.445   5.629 -0.7506  1.1602  1.2170
  294MOL0     H39635   1.642   1.696   5.645 -0.8857  1.8746 -0.6651
  294MOL0     H39636   1.672   1.700   5.478  0.8240  1.2853  1.2557
  294MOL0     H39637   1.485   1.553   5.427  1.8726 -2.1427  1.0359
  294MOL0     H39638   1.496   1.469   5.568 -1.2923  0.1312 -0.9574
  294MOL0     H39639   1.372   1.748   5.550 -0.3813 -0.4431 -1.0264
  294MOL0     H39640   1.396   1.644   5.699  1.9352 -1.4745 -0.7015
  294MOL0     H39641   1.280   1.377   5.654 -0.8112  0.7331  0.9656
  294MOL0     H39642   1.117   1.204   5.491  2.5721  2.4083  1.6503
  294MOL0     H39643   0.997   1.271   5.609  3.4841 -2.5298  1.8787
  294MOL0     H39644   0.971   1.320   5.313 -0.3842  0.2971  0.4624
  294MOL0     H39645   0.865   1.360   5.437 -0.4052 -1.0734  2.0195
  294MOL0     H39646   0.769   1.131   5.433 -1.8648 -0.0381 -0.8877
  294MOL0     H39647   0.931   1.061   5.377 -2.7657 -1.5023  0.5319
  294MOL0     H39648   0.765   1.237   5.194  0.2541 -0.7367 -1.5573
  294MOL0     H39649   0.723   1.076   5.207 -2.9526  3.3927 -0.0001
  294MOL0     H39650   0.778   0.852   5.179  0.6737  2.1563  0.1635
  294MOL0     H39651   0.691   0.594   4.943 -1.8217 -0.5085  0.1842
  294MOL0     H39652   0.711   0.629   5.114 -1.2303  1.7331  0.9846
  294MOL0     H39653   0.580   0.710   5.030  0.4393  3.3894 -1.3922
  294MOL0     H39654   0.841   0.747   4.374 -0.4645 -0.9454 -3.9444
  294MOL0     H39655   0.801   0.582   4.208  3.1553  1.4227  0.4575
  294MOL0     H39656   0.512   0.341   4.249 -0.3566  3.3564  2.1726
  294MOL0     H39657   0.591   0.469   4.165  1.6088  0.5107  2.6779
  294MOL0     H39658   0.650   0.307   3.986  1.3415 -0.1841  1.0278
  294MOL0     H39659   0.583   0.177   4.102 -1.4461  0.7718  1.8070
  294MOL0     H39660   0.362   0.287   4.069 -1.1249  0.4981 -0.4416
  294MOL0     H39661   0.430   0.203   3.923  3.1678  1.0098 -2.1473
  294MOL0     H39662   0.399   0.505   3.987 -0.2767 -0.3382  0.8722
  294MOL0     H39663   0.496   0.441   3.854 -2.7986  3.2050 -0.9398
  294MOL0     H39664   0.203   0.380   3.881  0.6613  0.8108  1.4890
  294MOL0     H39665   0.303   0.365   3.733 -0.2148  0.9361  0.3285
  294MOL0     H39666   0.256   0.633   3.852 -3.3096 -0.4203  0.1262
  294MOL0     H39667   0.350   0.597   3.707 -0.4272  2.4696  0.4586
  294MOL0     H39668   0.077   0.488   3.712 -0.6878 -0.5884 -0.7599
  294MOL0     H39669   0.173   0.525   3.584  0.7577  0.3407  0.6881
  294MOL0     H39670   0.161   0.783   3.660 -2.0584  2.1899 -1.1042
  294MOL0     H39671   0.050   0.746   3.775  1.5524  1.9975 -0.2351
  294MOL0     H39672   0.725   0.274   4.514 -1.1982 -0.2477 -0.4131
  294MOL0     H39673   0.757   0.448   4.680 -0.4137  1.4929  0.1899
  294MOL0     H39674   0.922   0.938   4.719  2.8288 -1.8663  1.0514
  294MOL0     H39675   0.991   1.104   4.896 -0.5776 -0.6375 -3.8067
  294MOL0     H39676   2.345   1.182   5.541  0.5019  0.6843  0.6814
  294MOL0     H39677   2.520   1.018   5.612  0.2670 -2.2004  4.0547
  294MOL0     H39678   2.618   0.570   5.741 -3.2278 -0.6146  1.2063
  294MOL0     H39679   2.795   0.442   5.855 -1.5253  0.2795 -1.3056
  294MOL0     H39680   2.826   0.467   6.288  1.2996 -0.7542  2.0049
  294MOL0     H39681   2.948   0.342   6.239  0.4311  0.1224 -0.7713
  294MOL0     H39682   3.044   0.550   6.371  1.4655  1.5437 -0.6764
  294MOL0     H39683   3.004   0.641   6.217  0.2842  0.4618 -0.5732
  294MOL0     H39684   3.172   0.380   6.244 -0.1730 -2.0776 -4.5303
  294MOL0     H39685   3.236   0.534   6.277  0.5385 -0.6080 -2.3881
  294MOL0     H39686   3.130   0.468   6.007 -0.0005  1.8103 -0.6334
  294MOL0     H39687   3.308   0.464   6.053 -0.6778 -0.7575 -0.7170
  294MOL0     H39688   3.247   0.864   5.971 -0.4354  0.6186  1.6854
  294MOL0     H39689   2.780   0.662   6.206  2.4490 -2.6247  0.1234
  294MOL0     H39690   2.591   0.800   6.106  2.4193 -0.6431  2.3763
  295MOL0     O39691   9.323   4.944   8.133 -0.4925 -0.1930 -1.0564
  295MOL0     C39692   9.371   4.891   8.035 -0.2814  0.9314  0.4789
  295MOL0     O39693   9.339   4.765   7.991 -0.7557  0.0844 -0.7337
  295MOL0     C39694   9.231   4.689   8.042  0.8154 -0.1834 -0.1272
  295MOL0     C39695   9.113   4.739   8.096  0.1782 -0.2110  0.1666
  295MOL0     C39696   9.015   4.645   8.135 -0.5043 -1.3762 -0.8561
  295MOL0     C39697   9.024   4.511   8.109 -1.2172  0.1377  0.5321
  295MOL0     O39698   8.921   4.433   8.152  1.0831 -0.1041  0.0733
  295MOL0     C39699   8.940   4.288   8.155  0.1637  0.1690  0.2891
  295MOL0     C39700   8.912   4.223   8.025 -0.1257  0.4941 -0.4809
  295MOL0     C39701   8.766   4.203   8.000 -0.2714  0.2749 -1.1092
  295MOL0     C39702   8.726   4.051   8.001  0.4938 -0.1498 -1.1802
  295MOL0     C39703   8.580   4.024   7.959  0.8716 -0.3905 -0.1631
  295MOL0     C39704   8.559   3.871   7.943 -0.0709 -0.8775 -0.0721
  295MOL0     C39705   8.415   3.825   7.896  0.7349  0.5164  0.6514
  295MOL0     C39706   8.381   3.878   7.750  0.3012  0.7747  0.3388
  295MOL0     N39707   8.246   3.823   7.710 -0.3227  0.2491 -1.0105
  295MOL0     C39708   8.223   3.744   7.595  0.5135 -0.1091  0.0190
  295MOL0     C39709   8.091   3.706   7.614  0.1268 -0.4472  0.4701
  295MOL0     C39710   8.023   3.594   7.538 -0.2825 -0.1154 -0.1337
  295MOL0     C39711   7.891   3.639   7.469 -0.6336 -0.3264 -0.0078
  295MOL0     C39712   7.815   3.511   7.428  0.2556  0.6070  1.1279
  295MOL0     C39713   7.666   3.534   7.420  0.1892 -0.1995  0.3810
  295MOL0     O39714   7.601   3.413   7.361  0.1854 -0.2872  0.6731
  295MOL0     C39715   7.462   3.419   7.327 -1.0848 -0.6054  0.1915
  295MOL0     C39716   7.437   3.347   7.211  0.5316  0.0390  0.1575
  295MOL0     C39717   7.306   3.343   7.155 -0.6877 -0.2647  0.0183
  295MOL0     C39718   7.292   3.274   7.018  0.2080  0.3774 -0.4428
  295MOL0     C39719   7.206   3.412   7.224  0.3320  0.4520 -0.4724
  295MOL0     C39720   7.064   3.405   7.173 -0.2172  0.2444 -0.2173
  295MOL0     O39721   7.015   3.285   7.142  0.5793  0.0272  0.6218
  295MOL0     C39722   6.897   3.294   7.072  0.3134  0.2843 -0.0907
  295MOL0     C39723   6.883   3.335   6.937 -0.6912 -0.4352 -0.2800
  295MOL0     C39724   6.752   3.358   6.889 -1.1775  0.0526 -0.2389
  295MOL0     C39725   6.639   3.331   6.965  0.3554  0.3555 -0.6684
  295MOL0     O39726   6.508   3.358   6.926  0.4635  0.4842  0.2042
  295MOL0     C39727   6.480   3.404   6.795 -0.0236 -0.3826  0.3009
  295MOL0     C39728   6.325   3.402   6.761  1.1239 -0.1006 -0.6073
  295MOL0     C39729   6.296   3.426   6.610  1.8041 -0.5609  0.0048
  295MOL0     C39730   6.153   3.386   6.557 -0.4537  0.4716  0.1593
  295MOL0     C39731   6.130   3.245   6.518 -0.0005 -0.2424 -0.4191
  295MOL0     C39732   6.001   3.229   6.436  0.8425 -0.1120 -0.5246
  295MOL0     C39733   5.990   3.082   6.384  0.4634 -0.3390 -0.7715
  295MOL0     C39734   5.920   2.995   6.494  0.8604  0.3636  0.1619
  295MOL0    Cl39735   5.898   2.835   6.416 -0.6339  0.0734 -0.7159
  295MOL0     C39736   6.658   3.286   7.094 -0.5487  0.3865 -0.1547
  295MOL0     C39737   6.785   3.261   7.147  0.5459 -0.1588  0.5754
  295MOL0     O39738   7.006   3.514   7.171 -0.3962 -0.0000 -0.2420
  295MOL0     C39739   7.236   3.497   7.331  0.3553 -0.1995  0.4075
  295MOL0     C39740   7.365   3.496   7.387  0.4764 -0.0179 -0.8682
  295MOL0     N39741   8.042   3.760   7.734  0.0690 -0.0786 -0.2999
  295MOL0     N39742   8.137   3.836   7.792  0.7092  0.1019  1.0957
  295MOL0     C39743   9.144   4.463   8.038  0.1195 -0.9749 -0.6039
  295MOL0     C39744   9.245   4.552   8.013 -0.4774  0.2205 -0.3826
  295MOL0     C39745   9.464   4.968   7.955  0.0010 -0.4702  0.4577
  295MOL0     C39746   9.523   4.913   7.846  0.1924  0.7000 -0.6243
  295MOL0     C39747   9.621   4.983   7.769  0.6479 -0.1134  0.4729
  295MOL0     C39748   9.645   5.120   7.789  0.9345 -0.0785  0.3324
  295MOL0     O39749   9.722   5.195   7.700  0.3867  0.2227  0.1857
  295MOL0     C39750   9.807   5.140   7.600 -0.1189  0.2211 -0.5237
  295MOL0     C39751   9.893   5.254   7.531  0.5832  0.2967 -1.0062
  295MOL0     C39752   9.998   5.198   7.436 -0.4258 -0.1485  0.3788
  295MOL0     C39753   9.941   5.151   7.301  0.8886  0.3647 -0.4211
  295MOL0     C39754  10.054   5.098   7.231 -0.2920 -0.4975  0.5244
  295MOL0     C39755  10.156   5.054   7.180 -0.3714  0.2029 -1.3253
  295MOL0     C39756   9.580   5.183   7.895 -0.2534 -0.0832  0.9016
  295MOL0     C39757   9.487   5.111   7.977 -0.6524 -0.2208 -0.3926
  295MOL0     H39758   9.102   4.845   8.116  1.4465  0.5343 -2.5623
  295MOL0     H39759   8.925   4.687   8.179  0.0073  0.2905 -1.3227
  295MOL0     H39760   9.036   4.261   8.199  1.2502  1.6176 -1.0471
  295MOL0     H39761   8.868   4.242   8.223  2.1687 -2.4506  0.7973
  295MOL0     H39762   8.957   4.267   7.936  0.6932  2.2899  0.7672
  295MOL0     H39763   8.962   4.127   8.042  0.2129  0.8813  0.8195
  295MOL0     H39764   8.696   4.262   8.060 -1.4698 -0.8974 -1.3099
  295MOL0     H39765   8.746   4.244   7.900 -2.2272  2.2854  0.0240
  295MOL0     H39766   8.796   4.008   7.929  2.0097  1.2161 -0.5865
  295MOL0     H39767   8.739   4.011   8.102 -0.4669  1.1951 -0.4849
  295MOL0     H39768   8.510   4.053   8.038 -1.8642 -1.6936 -1.9202
  295MOL0     H39769   8.553   4.083   7.871 -0.7380 -1.0322 -0.1438
  295MOL0     H39770   8.632   3.849   7.865  1.9002 -0.6094  1.5952
  295MOL0     H39771   8.595   3.830   8.038  0.9730  2.6577  1.2193
  295MOL0     H39772   8.406   3.716   7.905 -2.7186  0.8316  2.7426
  295MOL0     H39773   8.338   3.855   7.968  2.1070 -0.5357  2.6751
  295MOL0     H39774   8.459   3.857   7.676  0.5678 -2.7257  1.4294
  295MOL0     H39775   8.379   3.988   7.751  1.9799  0.8458 -0.5565
  295MOL0     H39776   8.291   3.706   7.520 -0.8775 -1.0141 -0.8237
  295MOL0     H39777   8.093   3.565   7.459 -0.4865  0.0701 -0.3844
  295MOL0     H39778   8.011   3.507   7.604 -2.0196  1.2358  1.4186
  295MOL0     H39779   7.910   3.706   7.385  2.5166 -0.3718  0.5616
  295MOL0     H39780   7.825   3.696   7.536 -0.7785  0.7971 -1.0624
  295MOL0     H39781   7.831   3.424   7.492 -0.3963 -2.5969 -2.6659
  295MOL0     H39782   7.852   3.484   7.328  2.1399 -0.8576  2.1642
  295MOL0     H39783   7.637   3.621   7.360  0.2930  0.0432  0.6856
  295MOL0     H39784   7.622   3.548   7.519  1.3281 -3.7809  1.5523
  295MOL0     H39785   7.520   3.301   7.159 -0.2779 -0.9142 -0.3220
  295MOL0     H39786   7.217   3.319   6.953  1.3451 -1.0075 -2.8459
  295MOL0     H39787   7.390   3.275   6.970  0.3563  2.6247 -0.1978
  295MOL0     H39788   7.254   3.172   7.032 -1.6351  1.2057  1.0853
  295MOL0     H39789   6.977   3.362   6.890 -0.6390  1.3665  0.7783
  295MOL0     H39790   6.727   3.425   6.807 -0.0797  1.1046  0.2414
  295MOL0     H39791   6.524   3.503   6.783  2.3656 -1.5781 -1.7969
  295MOL0     H39792   6.540   3.340   6.729 -0.7672 -1.7908  0.9454
  295MOL0     H39793   6.291   3.303   6.796 -0.8752  1.2434  1.5720
  295MOL0     H39794   6.266   3.478   6.812 -0.1177 -1.8651  0.7543
  295MOL0     H39795   6.377   3.370   6.563  0.8989 -0.4893 -1.7110
  295MOL0     H39796   6.308   3.531   6.583 -0.8317 -0.4931 -1.1990
  295MOL0     H39797   6.083   3.414   6.635  2.3434 -1.2570  3.5604
  295MOL0     H39798   6.124   3.438   6.465 -0.2555  2.4955  1.1919
  295MOL0     H39799   6.117   3.181   6.605  0.0979 -2.5760 -2.0388
  295MOL0     H39800   6.219   3.208   6.467  0.3093 -2.0601  1.3133
  295MOL0     H39801   5.916   3.253   6.500  1.1445  0.5788 -0.3798
  295MOL0     H39802   6.006   3.293   6.348  1.7137  0.6783  0.0822
  295MOL0     H39803   6.092   3.057   6.355  1.6312  3.0561 -0.0904
  295MOL0     H39804   5.924   3.074   6.297  1.2861 -0.4979 -1.3944
  295MOL0     H39805   5.816   3.027   6.506  0.1356 -1.6757 -0.2550
  295MOL0     H39806   5.966   2.990   6.593  0.7096 -0.9210  0.1906
  295MOL0     H39807   6.567   3.263   7.149  0.2492  0.4843  1.2248
  295MOL0     H39808   6.794   3.233   7.252 -0.3108 -1.8149  0.2319
  295MOL0     H39809   7.162   3.566   7.372  1.7818  0.5666  1.8390
  295MOL0     H39810   7.377   3.554   7.478 -2.9913  1.7329 -1.3748
  295MOL0     H39811   9.146   4.358   8.008 -2.3200 -1.4761  0.6934
  295MOL0     H39812   9.337   4.514   7.969  0.0315  0.5945  0.3489
  295MOL0     H39813   9.503   4.808   7.829  2.8612 -0.0056  0.0684
  295MOL0     H39814   9.662   4.941   7.678  0.3058  2.0940 -0.7916
  295MOL0     H39815   9.872   5.063   7.644  0.6510  1.2512  0.1900
  295MOL0     H39816   9.745   5.086   7.528  1.4378 -1.8278 -0.4391
  295MOL0     H39817   9.948   5.309   7.607  0.7155 -0.7402 -0.3331
  295MOL0     H39818   9.820   5.313   7.475  1.2320 -0.6143 -2.9405
  295MOL0     H39819  10.045   5.115   7.489  1.3044  0.6662  0.1993
  295MOL0     H39820  10.080   5.266   7.410 -1.1676  0.9468  0.8255
  295MOL0     H39821   9.896   5.225   7.235 -0.5567  0.3230  0.4892
  295MOL0     H39822   9.870   5.070   7.321 -1.3624  2.7262  1.8581
  295MOL0     H39823  10.241   5.021   7.123 -1.8789 -2.7541 -2.0493
  295MOL0     H39824   9.608   5.287   7.907  1.6143 -0.7354  2.8971
  295MOL0     H39825   9.447   5.178   8.052 -0.4643 -0.9862  0.3979
  296MOL0     O39826   9.967   3.904   4.419 -0.2102  0.2144  0.2378
  296MOL0     C39827  10.029   3.810   4.475  0.1477 -0.3664  0.1529
  296MOL0     O39828   9.968   3.716   4.568  1.0110  0.6758  0.5557
  296MOL0     C39829   9.829   3.732   4.577 -0.0736  0.2687  0.0220
  296MOL0     C39830   9.783   3.748   4.712  0.4684 -0.4416 -0.2246
  296MOL0     C39831   9.645   3.767   4.728  0.3328 -0.6542  0.2389
  296MOL0     C39832   9.550   3.751   4.628 -0.0534  0.2364 -0.5986
  296MOL0     O39833   9.418   3.746   4.667  0.6404  0.0898 -0.0347
  296MOL0     C39834   9.328   3.677   4.576  0.2655 -0.0513 -0.5893
  296MOL0     C39835   9.218   3.606   4.657  0.3666  0.4685 -0.0906
  296MOL0     C39836   9.118   3.701   4.731  0.1940 -0.2292 -0.0379
  296MOL0     C39837   9.027   3.636   4.842 -0.8561  0.8828  0.1769
  296MOL0     C39838   8.934   3.732   4.900 -0.1171  0.4132  0.8725
  296MOL0     C39839   8.879   3.698   5.045 -0.0193  0.2880 -0.6603
  296MOL0     C39840   8.795   3.813   5.089  0.5391  0.6711 -1.2621
  296MOL0     C39841   8.742   3.797   5.244 -0.3112 -0.6303 -0.1374
  296MOL0     N39842   8.821   3.875   5.337 -0.8807 -1.5815 -0.2682
  296MOL0     C39843   8.781   3.995   5.403  0.0847  0.0850  0.9427
  296MOL0     C39844   8.878   4.017   5.497  0.0468  0.0133  1.0102
  296MOL0     C39845   8.863   4.117   5.599  0.3441 -0.1629  0.7525
  296MOL0     C39846   8.989   4.166   5.667  0.4227  0.4364 -0.5085
  296MOL0     C39847   8.981   4.295   5.750  0.1123  0.3666 -0.2276
  296MOL0     C39848   9.104   4.326   5.809 -0.8762 -0.2369 -0.0591
  296MOL0     O39849   9.135   4.226   5.898  0.5502  0.3048  0.1243
  296MOL0     C39850   9.258   4.190   5.911 -1.0875 -0.2428 -0.1136
  296MOL0     C39851   9.268   4.055   5.934  0.7705 -0.0410  0.1531
  296MOL0     C39852   9.388   3.998   5.974  0.0142 -0.1124 -0.0065
  296MOL0     C39853   9.378   3.855   6.023 -0.3994 -0.2536  0.7616
  296MOL0     C39854   9.507   4.080   5.976  0.7516  0.6933 -0.1539
  296MOL0     C39855   9.646   4.022   6.012  0.1746  1.2751  0.3864
  296MOL0     O39856   9.752   4.061   5.945 -0.2577  0.0118  0.0703
  296MOL0     C39857   9.876   4.072   6.006 -0.4262  0.2206  0.1252
  296MOL0     C39858   9.980   4.106   5.914  1.1404 -0.3705  0.8135
  296MOL0     C39859  10.106   4.139   5.965 -0.1274 -0.2890  0.3183
  296MOL0     C39860  10.143   4.125   6.098 -0.1869  0.2030  0.3512
  296MOL0     O39861  10.266   4.143   6.156 -0.5364 -0.1044 -0.0629
  296MOL0     C39862  10.371   4.210   6.081  0.0810  0.6435 -0.7166
  296MOL0     C39863  10.503   4.228   6.160 -0.2685 -0.9590 -0.6833
  296MOL0     C39864  10.625   4.279   6.074 -0.0955  0.6003 -1.2228
  296MOL0     C39865  10.705   4.165   6.008 -0.1154  0.5745 -0.1060
  296MOL0     C39866  10.849   4.200   5.967 -0.1491  1.0559 -0.2259
  296MOL0     C39867  10.927   4.088   5.893  0.1861 -1.6079  0.0023
  296MOL0     C39868  10.887   3.941   5.911  0.6695  0.9247  0.2683
  296MOL0     C39869  10.977   3.844   5.822  0.6724  0.0472 -0.0093
  296MOL0    Cl39870  11.125   3.794   5.917 -0.0742  0.4000  0.4016
  296MOL0     C39871  10.046   4.081   6.187  1.0132  0.6331  0.1234
  296MOL0     C39872   9.910   4.060   6.147 -0.8586 -0.5950  0.0842
  296MOL0     O39873   9.651   3.933   6.088 -0.2096  0.0175 -0.6679
  296MOL0     C39874   9.502   4.212   5.936  0.5983  0.0536  0.2198
  296MOL0     C39875   9.379   4.275   5.914 -0.1366  0.1270 -0.4367
  296MOL0     N39876   8.979   3.922   5.475 -0.3107  0.9598  0.0768
  296MOL0     N39877   8.942   3.841   5.385  0.3790  0.7792  0.0367
  296MOL0     C39878   9.593   3.730   4.499  0.3390 -0.0599 -0.8225
  296MOL0     C39879   9.727   3.719   4.466 -0.3766  0.4468 -0.0798
  296MOL0     C39880  10.173   3.809   4.451  0.3629 -0.1334 -1.1830
  296MOL0     C39881  10.233   3.868   4.339 -0.9881 -0.3205  0.4773
  296MOL0     C39882  10.371   3.865   4.309  0.7818 -0.4630 -0.5574
  296MOL0     C39883  10.455   3.801   4.405 -0.1116  0.1463 -0.6949
  296MOL0     O39884  10.589   3.792   4.399 -0.2022 -0.7779 -0.2019
  296MOL0     C39885  10.653   3.901   4.323  0.2939 -0.4488  0.5372
  296MOL0     C39886  10.806   3.910   4.351 -0.3383 -0.1368 -0.0505
  296MOL0     C39887  10.901   3.794   4.324  0.7567 -0.2919  0.6248
  296MOL0     C39888  11.041   3.816   4.376 -0.4105  0.0174  0.4785
  296MOL0     C39889  11.132   3.915   4.304  0.2145  0.7304  0.0830
  296MOL0     C39890  11.187   4.000   4.237  0.0773 -0.2520  0.2398
  296MOL0     C39891  10.402   3.744   4.523  0.1543  0.2537 -0.8559
  296MOL0     C39892  10.254   3.745   4.542  0.2648 -0.4241 -0.0369
  296MOL0     H39893   9.852   3.751   4.796 -0.9111 -0.1160  0.9213
  296MOL0     H39894   9.613   3.775   4.832 -2.7107 -1.2077 -0.5657
  296MOL0     H39895   9.280   3.756   4.518 -1.9898 -2.3183 -1.9987
  296MOL0     H39896   9.366   3.604   4.504  1.1162 -1.1937  0.9606
  296MOL0     H39897   9.153   3.541   4.598  0.4248 -0.1194  0.4877
  296MOL0     H39898   9.271   3.551   4.735  0.2186 -0.5804 -0.7124
  296MOL0     H39899   9.189   3.771   4.776 -0.6016  0.6946 -0.1864
  296MOL0     H39900   9.059   3.765   4.665  0.7600  0.7752  0.3990
  296MOL0     H39901   8.973   3.547   4.806 -0.9849 -0.0096  2.4315
  296MOL0     H39902   9.081   3.591   4.926 -0.5742 -3.2042 -1.9293
  296MOL0     H39903   8.971   3.835   4.892  3.0470 -0.7517 -1.3130
  296MOL0     H39904   8.849   3.727   4.831  0.4885 -0.6129  0.1746
  296MOL0     H39905   8.821   3.605   5.050  1.3642 -0.5940 -0.3557
  296MOL0     H39906   8.967   3.688   5.109 -0.1917  4.0585  0.3741
  296MOL0     H39907   8.857   3.903   5.082  0.0349  1.0524 -0.8891
  296MOL0     H39908   8.704   3.814   5.028 -0.7997 -1.0065  0.5533
  296MOL0     H39909   8.734   3.693   5.276 -0.5943 -0.8885 -0.9929
  296MOL0     H39910   8.638   3.833   5.237  0.3031  0.8872 -3.3752
  296MOL0     H39911   8.690   4.054   5.391 -0.4431 -1.0112 -0.9820
  296MOL0     H39912   8.811   4.205   5.559 -1.1274 -1.9733 -1.5766
  296MOL0     H39913   8.793   4.080   5.674  1.5851  0.4866  2.2913
  296MOL0     H39914   9.071   4.172   5.595  1.1427 -3.0646 -0.1954
  296MOL0     H39915   9.023   4.085   5.732  0.0321  1.2909  0.7953
  296MOL0     H39916   8.892   4.290   5.813  0.5383  1.3670  0.4821
  296MOL0     H39917   8.965   4.377   5.679 -0.5748  1.4033  1.0874
  296MOL0     H39918   9.096   4.416   5.870 -0.4917 -2.1401  3.0192
  296MOL0     H39919   9.180   4.338   5.732 -0.7128  0.2557  0.1745
  296MOL0     H39920   9.176   3.999   5.929  2.1796 -2.8447  2.4369
  296MOL0     H39921   9.396   3.854   6.131 -1.6004 -0.1600  0.9765
  296MOL0     H39922   9.276   3.823   6.002  0.0028  0.4970 -3.0495
  296MOL0     H39923   9.453   3.800   5.965 -0.8949  3.0570 -3.4993
  296MOL0     H39924   9.954   4.120   5.810  0.0251 -0.6994  1.0327
  296MOL0     H39925  10.169   4.190   5.893  0.6026  2.6595  2.8157
  296MOL0     H39926  10.401   4.160   5.988  1.2734 -0.4549  0.2187
  296MOL0     H39927  10.328   4.307   6.053  1.6434  1.3141 -0.8961
  296MOL0     H39928  10.484   4.290   6.249 -2.6704 -2.2514 -0.1940
  296MOL0     H39929  10.522   4.134   6.212  2.5170  0.0957  0.3812
  296MOL0     H39930  10.682   4.337   6.147 -2.8067  2.8932 -0.7521
  296MOL0     H39931  10.591   4.352   6.000  1.6820  1.3533 -1.3462
  296MOL0     H39932  10.716   4.088   6.085  0.9153 -1.9795 -2.5950
  296MOL0     H39933  10.648   4.116   5.928 -0.2186  0.3120  0.1273
  296MOL0     H39934  10.904   4.225   6.058  0.5555  1.8476 -0.8587
  296MOL0     H39935  10.857   4.292   5.909 -0.2473  2.5745  2.0381
  296MOL0     H39936  10.927   4.109   5.786  0.7405 -0.6167  0.1905
  296MOL0     H39937  11.028   4.100   5.932  0.4388 -0.9244 -0.8425
  296MOL0     H39938  10.784   3.934   5.876  1.3188  0.6193 -1.6755
  296MOL0     H39939  10.876   3.906   6.014 -0.0376 -0.0012 -0.1084
  296MOL0     H39940  11.010   3.893   5.730 -1.5565  1.9758  0.1138
  296MOL0     H39941  10.911   3.761   5.795  3.6283 -2.2215 -0.8666
  296MOL0     H39942  10.070   4.048   6.287  0.0790  0.4246  0.2944
  296MOL0     H39943   9.829   4.032   6.213 -2.0930  2.1123 -0.1566
  296MOL0     H39944   9.594   4.268   5.924  1.3613 -1.7342 -4.3314
  296MOL0     H39945   9.382   4.380   5.885 -1.0657 -0.7737 -4.4206
  296MOL0     H39946   9.518   3.711   4.423 -0.9223  0.1418  0.3267
  296MOL0     H39947   9.763   3.694   4.366  1.0917  3.2756 -0.3520
  296MOL0     H39948  10.167   3.924   4.272  0.7750 -0.9994 -1.9750
  296MOL0     H39949  10.399   3.917   4.218  2.6051  2.5036  1.5245
  296MOL0     H39950  10.658   3.890   4.214  2.6984 -0.4239  0.5848
  296MOL0     H39951  10.605   3.996   4.347  3.0109  0.8750  1.1754
  296MOL0     H39952  10.815   3.942   4.455  3.9689 -1.8672  0.2917
  296MOL0     H39953  10.830   3.985   4.275 -1.3828 -0.4563 -0.7362
  296MOL0     H39954  10.906   3.791   4.214 -1.7187  0.5095  0.4213
  296MOL0     H39955  10.861   3.698   4.356  0.1245  0.2916  1.6222
  296MOL0     H39956  11.091   3.723   4.351 -0.1333  1.0564 -3.3475
  296MOL0     H39957  11.033   3.846   4.481  0.5970  0.4160  0.4484
  296MOL0     H39958  11.239   4.072   4.178 -1.6202  0.9167  0.1053
  296MOL0     H39959  10.463   3.697   4.599 -0.2752  3.8968  2.0593
  296MOL0     H39960  10.215   3.720   4.640  2.8123  4.7499  2.6936
  297MOL0     O39961   7.978  11.035   3.443 -0.2554  0.0009 -0.4036
  297MOL0     C39962   8.051  11.062   3.539 -0.0470  1.4389 -0.2642
  297MOL0     O39963   8.081  10.968   3.639  0.3885  0.6680 -0.5334
  297MOL0     C39964   8.026  10.844   3.635  0.2908 -0.5253  0.1955
  297MOL0     C39965   7.889  10.817   3.656  0.0319 -0.1859  0.2479
  297MOL0     C39966   7.839  10.689   3.654 -0.1447  0.3991  0.1218
  297MOL0     C39967   7.924  10.580   3.621 -0.6030  0.9705  0.1575
  297MOL0     O39968   7.877  10.449   3.618 -0.0995 -0.3283  0.4883
  297MOL0     C39969   7.860  10.395   3.753 -0.1537 -0.8643 -0.0147
  297MOL0     C39970   7.724  10.341   3.770  0.2772 -0.5428 -0.7540
  297MOL0     C39971   7.602  10.441   3.775  0.0783 -0.4526 -1.1606
  297MOL0     C39972   7.467  10.361   3.806  0.8234 -0.3901 -0.3262
  297MOL0     C39973   7.351  10.468   3.808 -0.0148 -0.6414 -0.7992
  297MOL0     C39974   7.352  10.574   3.926 -0.7298 -0.3329 -0.3919
  297MOL0     C39975   7.217  10.632   3.947  0.0099 -0.2098  0.2803
  297MOL0     C39976   7.211  10.751   4.045  0.6047 -0.0324 -0.4168
  297MOL0     N39977   7.077  10.819   4.040 -0.5811  0.1195  0.2243
  297MOL0     C39978   6.968  10.792   4.122  0.5788 -0.5887  0.1723
  297MOL0     C39979   6.882  10.894   4.087  0.5449 -0.1930 -1.0899
  297MOL0     C39980   6.743  10.918   4.137 -1.0881  0.8683 -0.1514
  297MOL0     C39981   6.633  10.883   4.032 -0.5118 -0.0197 -0.1133
  297MOL0     C39982   6.501  10.950   4.072 -0.1137 -0.0638  0.4434
  297MOL0     C39983   6.438  10.911   4.199 -0.4231 -0.7598  0.0160
  297MOL0     O39984   6.418  10.774   4.211  0.1037  1.3989  0.8622
  297MOL0     C39985   6.312  10.717   4.145 -0.1421 -0.4379 -0.7384
  297MOL0     C39986   6.212  10.784   4.080  0.6542 -0.5823  0.1172
  297MOL0     C39987   6.097  10.721   4.042 -0.2638 -0.3346 -0.1764
  297MOL0     C39988   5.998  10.806   3.964 -0.5435  1.0566 -0.2000
  297MOL0     C39989   6.077  10.582   4.063 -0.1826  0.6011 -0.6420
  297MOL0     C39990   5.947  10.509   4.015 -0.7713  0.0612  0.0625
  297MOL0     O39991   5.843  10.575   3.961  0.2574  1.0654 -0.2897
  297MOL0     C39992   5.722  10.517   3.944  1.0153 -0.2859 -0.0044
  297MOL0     C39993   5.608  10.609   3.959  0.3655  0.1138 -0.1811
  297MOL0     C39994   5.478  10.563   3.967  1.3563 -0.3514  0.1021
  297MOL0     C39995   5.446  10.430   3.944  0.9295  0.3044  0.5795
  297MOL0     O39996   5.314  10.383   3.937  0.5947  0.3275 -0.6931
  297MOL0     C39997   5.202  10.467   3.933 -0.1393 -0.3464 -0.2203
  297MOL0     C39998   5.067  10.392   3.923  0.0650  0.0889 -0.5767
  297MOL0     C39999   5.066  10.290   3.806 -0.2708  0.5646  0.2257
  297MOL0     C40000   4.966  10.324   3.694 -0.9726  0.4975  0.0707
  297MOL0     C40001   4.979  10.244   3.560  0.0184  0.6596 -0.0450
  297MOL0     C40002   4.902  10.112   3.579  0.1430  0.9255 -0.5306
  297MOL0     C40003   4.928  10.008   3.472 -1.2627 -0.2399 -1.6619
  297MOL0     C40004   4.864  10.034   3.337  0.0055 -0.0861 -0.2424
  297MOL0    Cl40005   4.697  10.095   3.357 -0.1984 -0.6344  0.0201
  297MOL0     C40006   5.550  10.337   3.932  0.0045 -0.1772  0.4155
  297MOL0     C40007   5.687  10.373   3.943 -0.1531 -0.3689  0.2266
  297MOL0     O40008   5.948  10.387   4.046  0.0030 -0.2707 -0.3426
  297MOL0     C40009   6.184  10.512   4.120  0.3072  0.0987  0.4180
  297MOL0     C40010   6.297  10.580   4.171  0.0915 -0.1589  0.2748
  297MOL0     N40011   6.947  10.989   4.015  0.3190  0.4545  0.4560
  297MOL0     N40012   7.061  10.948   3.993 -0.6077 -0.3524  0.8670
  297MOL0     C40013   8.055  10.600   3.589  0.3219  0.7473  0.6679
  297MOL0     C40014   8.105  10.735   3.597 -0.6686  0.4179 -0.1695
  297MOL0     C40015   8.142  11.185   3.543  0.3885  0.0317 -0.6988
  297MOL0     C40016   8.210  11.227   3.661 -0.1552  0.5887 -0.6969
  297MOL0     C40017   8.274  11.353   3.670 -1.2892  0.3104 -0.5588
  297MOL0     C40018   8.296  11.432   3.554  0.3462  0.3022 -0.1495
  297MOL0     O40019   8.352  11.549   3.567 -0.0613  0.2085  0.4531
  297MOL0     C40020   8.494  11.538   3.601 -0.5510  0.0750  0.8507
  297MOL0     C40021   8.567  11.669   3.558 -0.3475 -0.1468  0.2873
  297MOL0     C40022   8.699  11.688   3.640 -0.0425  0.2837 -0.8155
  297MOL0     C40023   8.780  11.562   3.648  0.1581  0.0983 -0.1442
  297MOL0     C40024   8.915  11.585   3.688 -1.0721 -0.4867  0.8831
  297MOL0     C40025   9.036  11.613   3.711  0.1409  0.8540  0.6958
  297MOL0     C40026   8.237  11.382   3.433 -0.1164 -0.4235  0.6105
  297MOL0     C40027   8.143  11.276   3.434 -0.6201  0.1349  0.8362
  297MOL0     H40028   7.824  10.903   3.666 -1.4417 -1.4598  2.1085
  297MOL0     H40029   7.739  10.667   3.690  0.1804 -0.3161  0.6069
  297MOL0     H40030   7.933  10.316   3.768  3.9113  2.0954 -2.3222
  297MOL0     H40031   7.867  10.471   3.832 -1.5278 -3.7993  3.2060
  297MOL0     H40032   7.696  10.269   3.693  1.3100  1.2596 -2.9402
  297MOL0     H40033   7.730  10.293   3.868  1.7661 -0.2337 -0.6695
  297MOL0     H40034   7.617  10.508   3.860 -2.2592  2.0373 -2.5513
  297MOL0     H40035   7.596  10.501   3.684  0.3793  3.1250  1.0115
  297MOL0     H40036   7.453  10.293   3.721 -1.7326 -0.1424 -0.1831
  297MOL0     H40037   7.480  10.302   3.897 -1.9081 -0.4902  0.0912
  297MOL0     H40038   7.336  10.522   3.713 -0.3219  0.7886  0.0269
  297MOL0     H40039   7.260  10.409   3.820  0.2996 -1.6542 -2.9198
  297MOL0     H40040   7.385  10.524   4.018 -0.6621 -0.5380 -0.5255
  297MOL0     H40041   7.425  10.653   3.910 -2.9421  2.1819  1.1860
  297MOL0     H40042   7.175  10.665   3.851 -1.4874  1.2477  1.3714
  297MOL0     H40043   7.143  10.558   3.979 -0.4821 -1.4057 -3.1329
  297MOL0     H40044   7.291  10.821   4.016  1.7038  0.7053  3.8074
  297MOL0     H40045   7.223  10.716   4.148  1.7532  3.6105  0.8270
  297MOL0     H40046   6.954  10.703   4.183 -1.0769 -0.7132 -0.3514
  297MOL0     H40047   6.719  10.869   4.232  1.4748  1.5598  0.9307
  297MOL0     H40048   6.743  11.026   4.157  1.9567  0.6536  1.5148
  297MOL0     H40049   6.623  10.775   4.027 -4.1539  0.2125 -0.2627
  297MOL0     H40050   6.667  10.915   3.933  0.9417 -0.4895  0.2131
  297MOL0     H40051   6.432  10.932   3.989 -2.6495 -0.0237  2.4580
  297MOL0     H40052   6.509  11.059   4.067 -2.3873  0.0839 -2.8803
  297MOL0     H40053   6.341  10.962   4.202  0.7723  1.6153  0.8670
  297MOL0     H40054   6.495  10.935   4.289 -2.0586  0.7111  0.7328
  297MOL0     H40055   6.216  10.889   4.054  0.4016 -0.4573  0.5836
  297MOL0     H40056   5.976  10.762   3.866 -1.9515 -0.4404  0.7284
  297MOL0     H40057   5.910  10.838   4.019 -2.3511  1.6982 -3.2350
  297MOL0     H40058   6.061  10.892   3.938  1.1087 -0.5986 -2.0565
  297MOL0     H40059   5.623  10.717   3.963 -2.0708  0.7569 -3.4731
  297MOL0     H40060   5.412  10.646   3.992  4.3734  2.5563 -0.7610
  297MOL0     H40061   5.204  10.526   4.025  3.2763  3.4304 -2.4264
  297MOL0     H40062   5.214  10.542   3.855  0.0109  1.7311  1.7022
  297MOL0     H40063   5.059  10.333   4.015  1.5290 -0.3721 -0.7296
  297MOL0     H40064   4.989  10.469   3.927  1.9277  2.0451  2.3729
  297MOL0     H40065   5.035  10.191   3.839  0.3636 -0.2906 -1.6270
  297MOL0     H40066   5.163  10.266   3.761 -0.9525 -4.3380  0.8298
  297MOL0     H40067   4.864  10.322   3.733 -0.9742 -1.3739  0.0636
  297MOL0     H40068   4.976  10.429   3.663 -0.7080 -0.8201 -5.0962
  297MOL0     H40069   5.083  10.221   3.533 -0.2616  0.8858 -1.3839
  297MOL0     H40070   4.939  10.294   3.472 -0.5980  0.2648  0.0060
  297MOL0     H40071   4.929  10.065   3.675  1.6022 -1.6437 -2.0781
  297MOL0     H40072   4.796  10.138   3.591 -0.4345 -2.1009  3.0712
  297MOL0     H40073   4.883   9.913   3.505 -0.8640  0.5998  1.6235
  297MOL0     H40074   5.034   9.986   3.456 -0.6512  1.4003 -0.1054
  297MOL0     H40075   4.857   9.931   3.300  0.6257 -1.0409  2.0774
  297MOL0     H40076   4.921  10.114   3.290 -1.9634  1.9207  0.6477
  297MOL0     H40077   5.520  10.233   3.923  1.2072 -0.3842 -2.2557
  297MOL0     H40078   5.766  10.299   3.947 -1.2844 -1.6979 -0.9702
  297MOL0     H40079   6.186  10.404   4.133 -1.4865 -0.1088 -0.6696
  297MOL0     H40080   6.355  10.526   4.246 -2.3692 -2.9200  0.3743
  297MOL0     H40081   8.115  10.514   3.558  0.2953  1.1555 -0.5820
  297MOL0     H40082   8.206  10.764   3.568  0.2758 -1.4468  1.0677
  297MOL0     H40083   8.197  11.162   3.747  0.6610  0.6213 -0.5417
  297MOL0     H40084   8.306  11.396   3.764 -2.4591  0.3715 -0.1698
  297MOL0     H40085   8.508  11.521   3.708 -0.1342  1.6015  1.0524
  297MOL0     H40086   8.544  11.464   3.537  1.5566  2.0620  0.0961
  297MOL0     H40087   8.509  11.761   3.567 -2.0334 -1.2110  0.7549
  297MOL0     H40088   8.596  11.652   3.454 -1.0096  0.6643 -0.0425
  297MOL0     H40089   8.690  11.721   3.744 -2.0086 -0.7136 -0.6216
  297MOL0     H40090   8.761  11.760   3.587  1.5599  0.2477  0.8760
  297MOL0     H40091   8.782  11.498   3.559 -2.0673  0.7013 -0.6837
  297MOL0     H40092   8.738  11.501   3.729 -4.5288 -0.2833 -2.4792
  297MOL0     H40093   9.137  11.641   3.735  0.2995  0.6619  0.2657
  297MOL0     H40094   8.225  11.448   3.347 -1.9021  2.9611  3.2336
  297MOL0     H40095   8.090  11.245   3.344  0.4709  1.3032 -0.2611
  298MOL0     O40096  10.976  10.060   8.821 -0.5315  0.2134  0.2132
  298MOL0     C40097  10.902  10.063   8.918  0.2666 -0.1540 -0.5985
  298MOL0     O40098  10.939  10.069   9.051 -0.0442  0.5135 -0.8040
  298MOL0     C40099  11.067  10.030   9.094  0.1915 -0.3308 -0.1104
  298MOL0     C40100  11.168   9.956   9.032 -0.0005  0.2033  0.6651
  298MOL0     C40101  11.285   9.912   9.100 -0.4990  0.0642 -0.1707
  298MOL0     C40102  11.316   9.962   9.223  0.0269 -0.2860  0.1143
  298MOL0     O40103  11.446   9.935   9.268 -0.2712  0.0437  0.4837
  298MOL0     C40104  11.471   9.956   9.401 -0.7770  0.3798 -0.3796
  298MOL0     C40105  11.606   9.889   9.446  1.3604  1.1818  0.2074
  298MOL0     C40106  11.591   9.734   9.431 -0.1107 -0.6622 -0.0859
  298MOL0     C40107  11.674   9.646   9.539  0.2831 -0.5201  0.8773
  298MOL0     C40108  11.634   9.491   9.526 -0.1756 -0.6272 -1.1441
  298MOL0     C40109  11.497   9.462   9.585 -0.0942  0.4582  0.1984
  298MOL0     C40110  11.457   9.309   9.581 -0.2413 -0.2719 -0.1517
  298MOL0     C40111  11.557   9.210   9.648 -0.6967 -0.0357  0.1961
  298MOL0     N40112  11.586   9.241   9.790 -0.3517  0.5396 -0.8763
  298MOL0     C40113  11.704   9.304   9.826  0.0460 -1.4265 -0.0667
  298MOL0     C40114  11.727   9.266   9.953 -0.7722 -0.6987 -0.2221
  298MOL0     C40115  11.833   9.314  10.052  0.1388  0.9229 -0.1252
  298MOL0     C40116  11.799   9.268  10.188 -0.5240  0.6522 -0.2779
  298MOL0     C40117  11.911   9.306  10.287  0.1311  0.1689  0.3681
  298MOL0     C40118  11.996   9.183  10.324  0.4256 -0.3792 -0.9858
  298MOL0     O40119  12.089   9.195  10.434  0.2601 -0.3964  0.0066
  298MOL0     C40120  12.215   9.248  10.403  0.4891  0.5380  0.4225
  298MOL0     C40121  12.256   9.298  10.273  1.2757 -0.6429  0.5353
  298MOL0     C40122  12.394   9.322  10.238 -0.7198 -0.6904 -0.8198
  298MOL0     C40123  12.412   9.366  10.100 -0.6920 -0.0236  0.2936
  298MOL0     C40124  12.498   9.319  10.334  0.4079  0.0103 -0.7511
  298MOL0     C40125  12.642   9.356  10.324 -0.5066 -0.4969  1.2313
  298MOL0     O40126  12.690   9.436  10.227  0.7626 -0.2339 -0.3253
  298MOL0     C40127  12.819   9.454  10.211 -0.8683 -0.7129 -0.0807
  298MOL0     C40128  12.905   9.521  10.304 -0.1003 -0.3481  0.1662
  298MOL0     C40129  13.047   9.527  10.286  0.8506 -0.2139  0.6494
  298MOL0     C40130  13.110   9.469  10.185 -0.2380 -0.4108 -0.6488
  298MOL0     O40131  13.245   9.472  10.170 -0.0322 -0.0151  0.6001
  298MOL0     C40132  13.312   9.350  10.185  0.9030 -0.2127  0.1415
  298MOL0     C40133  13.463   9.363  10.194  0.3511 -0.0887  1.2456
  298MOL0     C40134  13.519   9.412  10.062 -0.5338 -0.0710 -0.0051
  298MOL0     C40135  13.662   9.463  10.082  0.1594  0.1715 -0.3353
  298MOL0     C40136  13.737   9.510   9.955 -0.5677  0.7179  0.4668
  298MOL0     C40137  13.693   9.647   9.911  1.0002 -0.7270  0.1933
  298MOL0     C40138  13.760   9.690   9.780 -0.2142 -0.3379 -0.0812
  298MOL0     C40139  13.738   9.843   9.750  0.1770  0.4887  0.3127
  298MOL0    Cl40140  13.585   9.884   9.671 -0.1428 -0.4847 -0.8088
  298MOL0     C40141  13.031   9.402  10.094  1.1585  0.0183  0.9480
  298MOL0     C40142  12.885   9.392  10.106  0.0127  0.0128  1.1673
  298MOL0     O40143  12.719   9.303  10.410  0.3433 -0.1841 -0.3968
  298MOL0     C40144  12.448   9.289  10.464 -0.2147 -0.7929 -0.0154
  298MOL0     C40145  12.316   9.259  10.496 -0.0340  0.2697  0.1242
  298MOL0     N40146  11.623   9.184   9.993  0.1133  0.5922  0.7729
  298MOL0     N40147  11.550   9.157   9.892 -0.2747 -1.2595 -0.0529
  298MOL0     C40148  11.224  10.048   9.284 -0.1023  0.7914  0.3727
  298MOL0     C40149  11.099  10.076   9.228  0.6366  0.2613  0.6586
  298MOL0     C40150  10.750  10.055   8.905 -0.5679 -1.1523 -0.1649
  298MOL0     C40151  10.672  10.069   9.022  0.2706 -0.3403 -0.2105
  298MOL0     C40152  10.532  10.068   9.018 -0.1944 -0.3585 -0.2368
  298MOL0     C40153  10.470  10.043   8.899 -0.4306 -0.5406 -0.1058
  298MOL0     O40154  10.337  10.026   8.896  0.5515 -0.3874 -0.4858
  298MOL0     C40155  10.259  10.123   8.970 -0.3223  0.3492  0.2592
  298MOL0     C40156  10.106  10.128   8.942  0.6315 -0.1617  0.8260
  298MOL0     C40157  10.079  10.191   8.804 -0.8352  0.5434  0.0587
  298MOL0     C40158  10.003  10.085   8.716  0.1263 -0.8594 -0.2030
  298MOL0     C40159  10.106   9.993   8.660  0.0317 -0.0038  0.0367
  298MOL0     C40160  10.180   9.911   8.614  0.7460  0.7735 -0.6367
  298MOL0     C40161  10.546  10.026   8.778 -0.0714 -0.4737 -0.1088
  298MOL0     C40162  10.686  10.045   8.780  0.0615 -0.2666 -0.2997
  298MOL0     H40163  11.149   9.923   8.930 -0.8253  1.0990  0.5124
  298MOL0     H40164  11.360   9.858   9.044  1.5030 -0.5197  2.8561
  298MOL0     H40165  11.476  10.063   9.420  1.3208 -0.0595  2.1756
  298MOL0     H40166  11.392   9.918   9.465 -0.2262  0.7423  0.5255
  298MOL0     H40167  11.688   9.919   9.380  1.1346 -2.5117 -2.0664
  298MOL0     H40168  11.625   9.908   9.552  1.4179 -0.0593  0.4427
  298MOL0     H40169  11.486   9.709   9.447  0.4407 -1.2814  3.4441
  298MOL0     H40170  11.618   9.703   9.330  0.8078 -0.8261  0.1993
  298MOL0     H40171  11.776   9.653   9.501 -0.1632 -0.5879 -0.3846
  298MOL0     H40172  11.659   9.671   9.645 -3.2062  1.8240  0.0017
  298MOL0     H40173  11.637   9.463   9.420  2.3132 -1.5320 -0.8945
  298MOL0     H40174  11.710   9.427   9.570 -0.2861  0.4977  0.7984
  298MOL0     H40175  11.504   9.499   9.688  0.5742  0.2479  0.2318
  298MOL0     H40176  11.422   9.520   9.530  0.0475 -0.5208 -1.0770
  298MOL0     H40177  11.353   9.298   9.616 -0.1148  0.9435  0.6715
  298MOL0     H40178  11.447   9.273   9.478 -2.5283  0.3108 -0.1952
  298MOL0     H40179  11.648   9.200   9.588 -1.7710  1.3270 -1.7706
  298MOL0     H40180  11.514   9.110   9.654 -4.1867  1.1595 -1.5967
  298MOL0     H40181  11.768   9.356   9.755 -1.5195 -1.6870 -1.7334
  298MOL0     H40182  11.924   9.264  10.018 -0.0858 -0.0632  0.6806
  298MOL0     H40183  11.837   9.423  10.037  1.1404  0.8307 -0.6314
  298MOL0     H40184  11.787   9.160  10.179  0.2478  0.6734 -1.7784
  298MOL0     H40185  11.709   9.322  10.221  0.4838  2.1163  0.1384
  298MOL0     H40186  11.863   9.344  10.378 -1.5639  0.7584 -0.7323
  298MOL0     H40187  11.976   9.383  10.244  6.3796 -2.8936  2.9797
  298MOL0     H40188  12.045   9.152  10.232 -0.8741 -0.6561 -1.5982
  298MOL0     H40189  11.931   9.103  10.359  0.7710 -1.2625 -2.3001
  298MOL0     H40190  12.187   9.330  10.195 -0.5157 -4.5331  0.3089
  298MOL0     H40191  12.514   9.350  10.066  0.5650  0.2525  3.5236
  298MOL0     H40192  12.354   9.302  10.033 -1.0401  1.3157 -0.7023
  298MOL0     H40193  12.378   9.469  10.093 -0.5189  0.0125 -0.0273
  298MOL0     H40194  12.866   9.564  10.395 -0.4927 -2.2867  0.9517
  298MOL0     H40195  13.106   9.586  10.356  0.2332  2.7888 -1.1521
  298MOL0     H40196  13.277   9.295  10.273 -0.7710  0.7806  0.1405
  298MOL0     H40197  13.289   9.290  10.096 -0.5921  2.0044 -1.0563
  298MOL0     H40198  13.477   9.437  10.273 -0.4562  4.8767 -2.7304
  298MOL0     H40199  13.500   9.263  10.217  1.4551 -0.2925 -1.1229
  298MOL0     H40200  13.468   9.500  10.021 -0.8503 -1.1771 -2.1300
  298MOL0     H40201  13.511   9.336   9.984 -1.0334  1.4683 -1.5097
  298MOL0     H40202  13.665   9.550  10.149 -1.5356 -1.5357  2.1257
  298MOL0     H40203  13.716   9.387  10.140 -3.3517 -0.1232  2.9942
  298MOL0     H40204  13.723   9.445   9.868  0.3041 -0.4654  1.1943
  298MOL0     H40205  13.844   9.516   9.979 -0.5138 -0.9572  0.7185
  298MOL0     H40206  13.585   9.660   9.905  1.3147  2.2597 -0.8162
  298MOL0     H40207  13.722   9.718   9.989 -1.5122  0.7524 -0.1075
  298MOL0     H40208  13.721   9.620   9.704 -1.7834 -0.7564  1.0572
  298MOL0     H40209  13.869   9.690   9.769 -0.3186  1.9802 -2.0402
  298MOL0     H40210  13.813   9.872   9.677  0.0146 -0.3850 -0.2166
  298MOL0     H40211  13.748   9.905   9.840  1.7237 -0.9549  1.1858
  298MOL0     H40212  13.079   9.342  10.017 -1.4253 -1.3205  0.2793
  298MOL0     H40213  12.830   9.313  10.056 -1.1107  1.3086  0.3023
  298MOL0     H40214  12.513   9.293  10.551 -2.8397  1.0568  2.0560
  298MOL0     H40215  12.283   9.235  10.596 -0.4006 -0.7291 -0.2201
  298MOL0     H40216  11.233  10.095   9.382  2.2399  0.4390  0.3881
  298MOL0     H40217  11.024  10.138   9.277 -2.2183 -1.5748 -1.1400
  298MOL0     H40218  10.724  10.078   9.117  0.0980 -2.9421  0.1875
  298MOL0     H40219  10.481  10.071   9.114  3.0210  1.9007  1.6137
  298MOL0     H40220  10.265  10.086   9.073 -1.1130 -1.7669 -0.3915
  298MOL0     H40221  10.300  10.224   8.972  0.4566  0.0587 -0.2318
  298MOL0     H40222  10.068  10.192   9.022 -0.3774 -0.6105  0.7210
  298MOL0     H40223  10.053  10.034   8.958 -0.2147  0.1467 -0.1017
  298MOL0     H40224  10.175  10.232   8.769  0.1661 -2.0189 -0.4634
  298MOL0     H40225  10.011  10.277   8.807 -0.0956  1.1235  2.4598
  298MOL0     H40226   9.956  10.142   8.635  0.6578 -1.1909 -0.7621
  298MOL0     H40227   9.926  10.032   8.772 -0.1635 -1.1102 -0.8246
  298MOL0     H40228  10.248   9.837   8.576  0.5970  0.8744 -1.1129
  298MOL0     H40229  10.490  10.014   8.686  0.8556 -0.5919 -0.6699
  298MOL0     H40230  10.752  10.031   8.695 -0.4978 -1.7237 -0.5199
  299MOL0     O40231   2.263   1.779   6.056 -0.1235 -0.7619  0.0271
  299MOL0     C40232   2.333   1.830   6.137  0.5303  0.5357 -0.7202
  299MOL0     O40233   2.299   1.850   6.268 -0.3940 -0.6558 -0.2375
  299MOL0     C40234   2.178   1.818   6.304 -0.1766  0.3702  0.2042
  299MOL0     C40235   2.156   1.681   6.348  0.5595  0.1715 -0.5096
  299MOL0     C40236   2.026   1.643   6.395  0.2600  0.3105  1.2838
  299MOL0     C40237   1.916   1.734   6.383 -0.2763 -0.1248  0.3965
  299MOL0     O40238   1.790   1.690   6.414  0.1450 -0.1189  0.2049
  299MOL0     C40239   1.672   1.774   6.398 -0.2415 -0.1275 -0.6725
  299MOL0     C40240   1.539   1.706   6.447  0.1845  1.1156 -0.2883
  299MOL0     C40241   1.429   1.799   6.396  0.3659  0.1210  0.2068
  299MOL0     C40242   1.281   1.743   6.412 -0.8702  0.2183  0.2831
  299MOL0     C40243   1.182   1.857   6.421  0.1087 -0.2482  0.5078
  299MOL0     C40244   1.159   1.931   6.291  0.0814  0.0951 -1.1093
  299MOL0     C40245   1.093   1.858   6.175  0.7985  0.1084  0.5034
  299MOL0     C40246   0.956   1.791   6.215  0.1001 -0.0063 -0.3784
  299MOL0     N40247   0.904   1.712   6.110  0.8459 -0.2176 -0.1734
  299MOL0     C40248   0.894   1.760   5.983 -0.2703  0.3445 -0.0414
  299MOL0     C40249   0.871   1.653   5.907 -0.0810 -0.7599  0.5341
  299MOL0     C40250   0.878   1.660   5.752  1.0291 -0.1737 -1.1531
  299MOL0     C40251   0.755   1.725   5.692  0.5152  0.0905  0.0517
  299MOL0     C40252   0.625   1.651   5.721 -0.0310 -0.3018  0.7437
  299MOL0     C40253   0.630   1.506   5.682  0.9185 -0.0202 -0.0820
  299MOL0     O40254   0.505   1.451   5.714 -0.3910  0.0228 -0.0339
  299MOL0     C40255   0.445   1.448   5.840 -0.0287  0.0047 -0.5448
  299MOL0     C40256   0.519   1.438   5.961  0.5923 -0.0096 -1.0047
  299MOL0     C40257   0.453   1.440   6.088 -0.3920  1.3217 -1.0540
  299MOL0     C40258   0.546   1.430   6.214 -0.5839  0.3052  0.3452
  299MOL0     C40259   0.307   1.443   6.088 -0.2028 -0.4316  0.2645
  299MOL0     C40260   0.215   1.442   6.207 -0.3181 -0.3881  0.8701
  299MOL0     O40261   0.089   1.431   6.169  0.6087  0.6480 -0.0205
  299MOL0     C40262  -0.016   1.397   6.246 -0.2383 -0.3451  0.5737
  299MOL0     C40263  -0.142   1.435   6.197  0.3172 -0.0503 -0.1944
  299MOL0     C40264  -0.256   1.396   6.262  0.2640  0.2231  0.0463
  299MOL0     C40265  -0.249   1.303   6.372 -0.5718 -0.8103  0.0908
  299MOL0     O40266  -0.369   1.259   6.418  0.3059  0.6352 -0.4160
  299MOL0     C40267  -0.378   1.191   6.553 -0.3206 -0.3182  0.3120
  299MOL0     C40268  -0.382   1.042   6.526 -0.2856  0.2334  0.5800
  299MOL0     C40269  -0.444   0.969   6.641  0.1272 -0.2006 -0.6685
  299MOL0     C40270  -0.598   0.989   6.648 -0.0854 -0.8793 -0.1143
  299MOL0     C40271  -0.646   0.865   6.727 -0.5113 -0.2426  0.2608
  299MOL0     C40272  -0.794   0.859   6.762  0.1932  0.3078 -0.4364
  299MOL0     C40273  -0.893   0.845   6.637 -0.0815  0.0880 -0.7450
  299MOL0     C40274  -1.036   0.869   6.694 -0.0245 -0.1861 -0.0828
  299MOL0    Cl40275  -1.071   1.029   6.764  0.3506 -0.6694  0.2413
  299MOL0     C40276  -0.131   1.262   6.417 -1.5799 -0.0060  0.5387
  299MOL0     C40277  -0.015   1.307   6.354  0.5458 -0.2080 -0.5342
  299MOL0     O40278   0.263   1.425   6.320 -0.1854 -0.5837  0.4296
  299MOL0     C40279   0.238   1.459   5.963 -0.9989 -0.1106  0.1182
  299MOL0     C40280   0.305   1.464   5.846 -0.1608  0.6640  0.2753
  299MOL0     N40281   0.862   1.543   5.990  1.0176 -0.0541 -0.1548
  299MOL0     N40282   0.882   1.578   6.106 -0.1050 -0.0065  0.1907
  299MOL0     C40283   1.944   1.863   6.340 -0.1356  0.0884 -0.5597
  299MOL0     C40284   2.072   1.907   6.296  1.2814 -0.1330  0.5822
  299MOL0     C40285   2.471   1.871   6.094 -0.7221  0.5010  0.1968
  299MOL0     C40286   2.500   1.859   5.965 -0.0588 -0.1657  0.4758
  299MOL0     C40287   2.630   1.900   5.925 -0.7461  0.1322  0.8019
  299MOL0     C40288   2.729   1.954   6.009 -0.4907 -0.4229  0.3402
  299MOL0     O40289   2.861   1.975   5.989  0.3888 -0.4841  0.6667
  299MOL0     C40290   2.922   1.899   5.891 -1.1050 -0.1525  0.1011
  299MOL0     C40291   3.069   1.884   5.904  0.3594 -0.2443  0.2807
  299MOL0     C40292   3.143   1.817   5.777  0.0997 -0.3479  0.4636
  299MOL0     C40293   3.291   1.794   5.797 -0.3012 -0.9196  1.1353
  299MOL0     C40294   3.381   1.913   5.777  0.0551 -0.0996 -0.4957
  299MOL0     C40295   3.457   2.006   5.777 -0.6589  0.7062  0.7764
  299MOL0     C40296   2.683   1.987   6.136 -0.4303 -0.5526  0.2060
  299MOL0     C40297   2.565   1.939   6.180 -0.1123  0.5696 -0.3378
  299MOL0     H40298   2.235   1.608   6.329 -2.9665 -3.7767 -1.7723
  299MOL0     H40299   2.011   1.540   6.427  2.7624 -1.6169 -2.8871
  299MOL0     H40300   1.682   1.859   6.466 -0.2071 -1.5136  1.1408
  299MOL0     H40301   1.664   1.824   6.301 -2.6359  1.1666  0.1156
  299MOL0     H40302   1.543   1.607   6.400  5.5578  1.9674 -2.3853
  299MOL0     H40303   1.541   1.687   6.555  0.5190 -0.2999 -0.5210
  299MOL0     H40304   1.427   1.890   6.456  0.0678  0.6605 -0.6090
  299MOL0     H40305   1.448   1.821   6.290  0.3616 -0.4357  0.0840
  299MOL0     H40306   1.258   1.685   6.322 -3.2102  3.6712 -1.5648
  299MOL0     H40307   1.281   1.678   6.500 -0.4276  0.1797  0.2564
  299MOL0     H40308   1.088   1.811   6.453 -0.4301 -1.1060 -2.0329
  299MOL0     H40309   1.212   1.929   6.498 -1.9619 -0.5673  1.6771
  299MOL0     H40310   1.086   2.007   6.321 -1.4011 -0.6610 -2.6105
  299MOL0     H40311   1.251   1.970   6.247  0.4254 -0.0822 -0.5557
  299MOL0     H40312   1.082   1.928   6.093 -1.3861 -0.2618  0.4200
  299MOL0     H40313   1.157   1.775   6.144  2.6510  0.2863  3.4002
  299MOL0     H40314   0.888   1.871   6.246  0.1619 -0.3371  0.6581
  299MOL0     H40315   0.974   1.722   6.298  2.7054 -0.0254 -0.8817
  299MOL0     H40316   0.904   1.866   5.963  0.0054  0.4949  0.8467
  299MOL0     H40317   0.958   1.731   5.729 -0.7737  2.2341 -0.4108
  299MOL0     H40318   0.900   1.560   5.714 -1.5093 -0.9361 -0.7709
  299MOL0     H40319   0.763   1.729   5.583  0.0838  4.1392  0.0266
  299MOL0     H40320   0.753   1.825   5.737 -4.6218 -0.8693  2.6731
  299MOL0     H40321   0.534   1.693   5.677 -0.4126 -1.3626  0.4869
  299MOL0     H40322   0.610   1.655   5.830 -3.2675 -0.1072  0.3905
  299MOL0     H40323   0.707   1.458   5.742  2.9518  0.3393 -2.2500
  299MOL0     H40324   0.655   1.493   5.576  0.4244  2.2713 -0.5380
  299MOL0     H40325   0.627   1.432   5.955  0.5407 -1.2161 -0.9788
  299MOL0     H40326   0.503   1.482   6.300 -0.9416  0.7378 -0.0839
  299MOL0     H40327   0.552   1.322   6.229  1.5971 -0.2645 -3.2740
  299MOL0     H40328   0.646   1.471   6.196  0.3545 -1.6571  0.8212
  299MOL0     H40329  -0.157   1.504   6.114  0.0309 -1.5797 -1.4517
  299MOL0     H40330  -0.352   1.426   6.221  0.4354 -0.1825 -0.6695
  299MOL0     H40331  -0.299   1.232   6.617  2.1091 -2.5385 -1.1004
  299MOL0     H40332  -0.474   1.213   6.602 -0.6119 -0.2135 -0.3044
  299MOL0     H40333  -0.442   1.018   6.438 -1.5292 -1.3630  1.8101
  299MOL0     H40334  -0.283   0.996   6.515 -0.2254 -0.0762  2.2208
  299MOL0     H40335  -0.392   0.982   6.736 -0.5469 -1.8442 -0.0358
  299MOL0     H40336  -0.429   0.862   6.627 -0.0556 -0.4165  0.7148
  299MOL0     H40337  -0.625   1.078   6.706 -1.2436 -1.2041 -0.1377
  299MOL0     H40338  -0.636   0.989   6.545  1.1098  3.5043 -0.7972
  299MOL0     H40339  -0.598   0.875   6.825  0.4332  1.1770 -0.3006
  299MOL0     H40340  -0.603   0.776   6.680  1.8456  1.7801 -1.6756
  299MOL0     H40341  -0.811   0.778   6.834 -2.6562  1.5428  0.4322
  299MOL0     H40342  -0.819   0.946   6.824 -3.0498 -0.7921 -0.0022
  299MOL0     H40343  -0.882   0.750   6.585 -1.1768  1.1454 -3.0937
  299MOL0     H40344  -0.851   0.916   6.564  1.0409 -0.6119 -0.8126
  299MOL0     H40345  -1.052   0.797   6.776  0.5926 -0.6830 -0.3867
  299MOL0     H40346  -1.104   0.842   6.613  0.4437 -1.1043 -0.1854
  299MOL0     H40347  -0.127   1.191   6.498 -3.5192  0.0573  0.7296
  299MOL0     H40348   0.081   1.273   6.391 -0.8836 -2.0916  1.6472
  299MOL0     H40349   0.132   1.475   5.946 -0.4464  0.7751 -3.2577
  299MOL0     H40350   0.263   1.453   5.746 -1.1867  0.9730  0.6651
  299MOL0     H40351   1.870   1.941   6.360 -2.7456 -2.3885  0.1700
  299MOL0     H40352   2.103   2.006   6.263  3.6913 -1.4857 -1.6172
  299MOL0     H40353   2.429   1.829   5.888  0.0677  4.1260 -1.5680
  299MOL0     H40354   2.652   1.868   5.824  1.6743  1.3954  0.8575
  299MOL0     H40355   2.877   1.802   5.914 -0.2420 -0.9420 -1.3568
  299MOL0     H40356   2.910   1.919   5.784  0.6702 -0.6958 -0.2329
  299MOL0     H40357   3.080   1.809   5.983  0.7508 -0.8653 -0.3461
  299MOL0     H40358   3.091   1.988   5.929  0.7098 -0.3330  0.3448
  299MOL0     H40359   3.129   1.893   5.699 -1.2194  0.6310  1.6068
  299MOL0     H40360   3.106   1.719   5.746  0.8353 -0.3223 -0.5476
  299MOL0     H40361   3.321   1.725   5.718  0.3364 -0.5346  1.0373
  299MOL0     H40362   3.310   1.754   5.897  2.1146  0.7444  1.4296
  299MOL0     H40363   3.512   2.097   5.762 -1.2500  1.0220  0.5086
  299MOL0     H40364   2.752   2.045   6.196 -0.2782 -0.4062 -0.1047
  299MOL0     H40365   2.545   1.958   6.285 -2.7222  0.9174 -0.8202
  300MOL0     O40366   0.212   6.915   8.652  0.1243 -0.1455 -0.6390
  300MOL0     C40367   0.254   6.885   8.542  0.5344 -0.0512  0.3916
  300MOL0     O40368   0.181   6.855   8.437  0.0669  0.6803  0.6549
  300MOL0     C40369   0.048   6.859   8.446 -0.9820 -0.0576  0.0742
  300MOL0     C40370  -0.009   6.947   8.353 -0.9086  0.7696  1.2856
  300MOL0     C40371  -0.147   6.976   8.358  0.2884  0.6103  0.2688
  300MOL0     C40372  -0.227   6.916   8.449  0.0523 -0.4508  0.1844
  300MOL0     O40373  -0.360   6.942   8.439  0.4230  0.7966  0.8185
  300MOL0     C40374  -0.465   6.883   8.525 -0.5915 -0.3257  0.2722
  300MOL0     C40375  -0.452   6.922   8.673 -0.3114 -0.9934  0.2308
  300MOL0     C40376  -0.573   6.871   8.746  0.5974  0.5430  0.2599
  300MOL0     C40377  -0.616   6.719   8.734 -0.5410  0.7447 -0.2010
  300MOL0     C40378  -0.755   6.701   8.674 -0.4262  0.3096 -0.4310
  300MOL0     C40379  -0.807   6.558   8.701  0.9691 -0.2515  0.2290
  300MOL0     C40380  -0.923   6.521   8.597 -0.5250 -1.5498  0.1070
  300MOL0     C40381  -0.962   6.386   8.628  0.1665 -0.8235  0.0991
  300MOL0     N40382  -1.081   6.345   8.547 -0.3494  1.4028 -0.5158
  300MOL0     C40383  -1.100   6.364   8.410  0.2085  1.0061  0.3144
  300MOL0     C40384  -1.211   6.292   8.382  0.0662  0.5369 -0.0482
  300MOL0     C40385  -1.269   6.274   8.245 -0.3204  0.5182 -0.6277
  300MOL0     C40386  -1.225   6.137   8.199 -0.9053 -0.6338  0.6466
  300MOL0     C40387  -1.300   6.085   8.081 -0.7992 -0.0686 -0.0935
  300MOL0     C40388  -1.449   6.065   8.108  0.4757 -0.5604 -0.6494
  300MOL0     O40389  -1.498   6.199   8.074 -0.1482 -1.0406  0.2736
  300MOL0     C40390  -1.626   6.219   8.101 -0.0540 -0.1969  0.1405
  300MOL0     C40391  -1.678   6.348   8.083  0.5563 -0.0281  0.6478
  300MOL0     C40392  -1.806   6.383   8.089  0.6386 -0.0985  0.0655
  300MOL0     C40393  -1.831   6.530   8.065  0.0463  0.4262 -0.5438
  300MOL0     C40394  -1.905   6.286   8.118  0.3003 -0.3473  0.4100
  300MOL0     C40395  -2.049   6.312   8.136 -0.7153 -0.0615 -0.5345
  300MOL0     O40396  -2.119   6.203   8.182  0.2350 -0.1688 -0.1499
  300MOL0     C40397  -2.243   6.233   8.231  0.6231 -0.0060 -0.1042
  300MOL0     C40398  -2.260   6.274   8.369 -0.3972 -0.0190  0.0268
  300MOL0     C40399  -2.388   6.284   8.429 -0.1458 -0.2977  0.2612
  300MOL0     C40400  -2.505   6.251   8.352  0.1605 -0.0218  0.8137
  300MOL0     O40401  -2.628   6.264   8.408  0.1737  0.0790  0.7421
  300MOL0     C40402  -2.641   6.243   8.543  0.1868  1.0144 -0.7495
  300MOL0     C40403  -2.770   6.168   8.565  0.8057  0.2243 -0.7956
  300MOL0     C40404  -2.896   6.262   8.557 -0.7120  1.0179 -0.1916
  300MOL0     C40405  -3.022   6.169   8.563 -0.3676  0.9076  1.1021
  300MOL0     C40406  -3.142   6.264   8.545  0.1941 -0.3375  0.1762
  300MOL0     C40407  -3.254   6.178   8.529  0.6268 -0.3467 -0.0687
  300MOL0     C40408  -3.386   6.252   8.518  0.3766 -1.1256  0.0611
  300MOL0     C40409  -3.405   6.316   8.381 -0.2008 -0.9913  1.0147
  300MOL0    Cl40410  -3.571   6.365   8.360 -0.4287  0.5470 -0.1254
  300MOL0     C40411  -2.495   6.225   8.214  1.0068  0.2919  0.6763
  300MOL0     C40412  -2.365   6.210   8.160  0.2151 -0.2329 -0.5725
  300MOL0     O40413  -2.102   6.420   8.111 -0.3333  0.1262  0.2181
  300MOL0     C40414  -1.860   6.153   8.128 -0.1540  0.0822 -0.6189
  300MOL0     C40415  -1.723   6.121   8.129  0.0669  1.1491  0.4372
  300MOL0     N40416  -1.261   6.245   8.502  0.1972  0.7940  0.2753
  300MOL0     N40417  -1.187   6.283   8.597 -0.2113 -1.2296 -0.5514
  300MOL0     C40418  -0.168   6.822   8.537 -1.0016 -0.9853  0.4376
  300MOL0     C40419  -0.034   6.792   8.541 -1.4776  0.3300  0.3056
  300MOL0     C40420   0.405   6.872   8.521 -0.7374 -0.9046  0.3499
  300MOL0     C40421   0.485   6.839   8.626  0.8621  0.8516  0.2918
  300MOL0     C40422   0.613   6.787   8.601 -0.1842 -0.7188 -0.3924
  300MOL0     C40423   0.672   6.808   8.479  0.6215 -0.7441 -0.2813
  300MOL0     O40424   0.797   6.782   8.440  0.5676 -0.1662 -0.3803
  300MOL0     C40425   0.883   6.722   8.546 -0.0828 -0.1235 -0.2435
  300MOL0     C40426   1.028   6.739   8.494 -0.6412 -0.1502 -0.8211
  300MOL0     C40427   1.073   6.658   8.368 -0.1477  0.9419  0.8953
  300MOL0     C40428   1.044   6.509   8.367  1.2152 -0.0238 -0.0793
  300MOL0     C40429   1.103   6.439   8.469  0.4688  0.6964  0.1413
  300MOL0     C40430   1.157   6.372   8.551  0.0353 -1.2257 -0.7289
  300MOL0     C40431   0.590   6.855   8.371  0.3283  0.1537  0.6149
  300MOL0     C40432   0.452   6.880   8.395  0.0120  0.8931  0.3591
  300MOL0     H40433   0.052   7.006   8.285  0.9495 -0.4527  1.8230
  300MOL0     H40434  -0.194   7.046   8.289  2.0014 -1.5894 -3.4364
  300MOL0     H40435  -0.563   6.904   8.482 -0.4315 -2.8036 -1.4995
  300MOL0     H40436  -0.452   6.774   8.521  0.8792 -0.1897  0.5714
  300MOL0     H40437  -0.356   6.889   8.713 -0.1917 -1.2821 -0.2942
  300MOL0     H40438  -0.445   7.031   8.687  3.3285 -1.1441  0.3465
  300MOL0     H40439  -0.562   6.896   8.852  1.1085  0.0551  0.3243
  300MOL0     H40440  -0.655   6.932   8.707 -0.4564 -0.7047  0.4469
  300MOL0     H40441  -0.554   6.664   8.663 -1.6617 -1.1184  0.2177
  300MOL0     H40442  -0.603   6.668   8.830  0.8597  5.0667  2.2185
  300MOL0     H40443  -0.834   6.767   8.713 -0.3682 -0.0828  0.3729
  300MOL0     H40444  -0.753   6.722   8.567  1.5212 -0.3578 -0.5500
  300MOL0     H40445  -0.720   6.493   8.697  1.6846  0.7346 -0.7004
  300MOL0     H40446  -0.848   6.542   8.802 -0.4667 -1.0316 -0.4372
  300MOL0     H40447  -1.010   6.583   8.621  0.1538 -0.9549  1.1323
  300MOL0     H40448  -0.905   6.537   8.491 -0.7162 -0.8436  0.1728
  300MOL0     H40449  -0.989   6.386   8.734  1.9285 -0.4279  0.5893
  300MOL0     H40450  -0.896   6.303   8.600  1.7229  0.3896  0.0292
  300MOL0     H40451  -1.036   6.419   8.341 -0.9157  0.9166 -0.8185
  300MOL0     H40452  -1.375   6.282   8.268  0.4444  0.6414  3.4924
  300MOL0     H40453  -1.237   6.352   8.174  4.4889 -0.4079  0.1785
  300MOL0     H40454  -1.242   6.079   8.290  0.6521 -0.5049  1.0476
  300MOL0     H40455  -1.119   6.142   8.175  0.1274 -0.5524  4.5346
  300MOL0     H40456  -1.250   6.001   8.032  1.2262  1.7185 -1.2758
  300MOL0     H40457  -1.278   6.167   8.011 -0.3756 -1.4678 -1.6655
  300MOL0     H40458  -1.480   6.043   8.210 -0.3294 -1.9516 -1.1571
  300MOL0     H40459  -1.486   5.976   8.056  1.4646 -2.6894  2.0451
  300MOL0     H40460  -1.595   6.413   8.057  1.4204 -0.0678  3.0451
  300MOL0     H40461  -1.835   6.590   8.157 -3.2558 -0.1672 -0.1707
  300MOL0     H40462  -1.747   6.559   8.001 -1.2554  1.6383 -1.7545
  300MOL0     H40463  -1.924   6.537   8.010  0.9084 -3.0649 -2.7763
  300MOL0     H40464  -2.165   6.299   8.414  0.1804 -0.5736 -0.8626
  300MOL0     H40465  -2.394   6.325   8.529  2.0033 -1.9203  1.1440
  300MOL0     H40466  -2.557   6.194   8.591 -0.9507 -0.1182  0.1665
  300MOL0     H40467  -2.651   6.341   8.591  0.6911  1.3239 -1.2622
  300MOL0     H40468  -2.771   6.086   8.493 -3.6641 -1.4223  0.8010
  300MOL0     H40469  -2.784   6.119   8.662  0.2183  1.8686  0.0017
  300MOL0     H40470  -2.897   6.326   8.468  3.1711  0.6958 -0.6345
  300MOL0     H40471  -2.879   6.328   8.643  1.9493 -0.5882  0.6141
  300MOL0     H40472  -3.010   6.087   8.491  2.7421 -0.5340  3.0455
  300MOL0     H40473  -3.026   6.124   8.662  1.4869  4.1153  2.8215
  300MOL0     H40474  -3.126   6.337   8.466  0.5094  0.2564  0.7712
  300MOL0     H40475  -3.164   6.333   8.627 -1.3657  0.8856 -1.2294
  300MOL0     H40476  -3.253   6.108   8.445  0.9795 -1.5060  0.8606
  300MOL0     H40477  -3.269   6.122   8.623 -0.7245  1.9855  1.1949
  300MOL0     H40478  -3.397   6.332   8.592 -2.6245 -0.7635 -0.6321
  300MOL0     H40479  -3.458   6.170   8.522 -1.0443  0.0702 -0.2123
  300MOL0     H40480  -3.391   6.247   8.297 -1.6939  1.9734 -1.9038
  300MOL0     H40481  -3.336   6.401   8.369 -0.3209 -1.1064 -0.7078
  300MOL0     H40482  -2.586   6.210   8.157  0.3824 -0.0020  1.7228
  300MOL0     H40483  -2.335   6.194   8.057  3.8392  0.5215  0.2392
  300MOL0     H40484  -1.929   6.070   8.115  1.9589 -1.6632 -1.2903
  300MOL0     H40485  -1.700   6.015   8.134 -0.7513  0.7926 -1.9997
  300MOL0     H40486  -0.236   6.765   8.599 -2.1856 -2.5529 -2.1426
  300MOL0     H40487   0.023   6.719   8.598  0.0160 -0.1073 -1.6646
  300MOL0     H40488   0.437   6.812   8.720  1.1553 -2.8502 -0.4646
  300MOL0     H40489   0.673   6.757   8.686  0.2398  0.1060 -0.3911
  300MOL0     H40490   0.867   6.778   8.638 -2.0631  3.0064 -2.2815
  300MOL0     H40491   0.871   6.614   8.560 -1.2719  0.0100 -0.1023
  300MOL0     H40492   1.092   6.706   8.577 -0.0392  4.1584  0.6931
  300MOL0     H40493   1.040   6.845   8.470 -1.8902  0.9082  2.5670
  300MOL0     H40494   1.181   6.669   8.361  0.3790 -2.5395  1.8168
  300MOL0     H40495   1.017   6.699   8.284 -0.8421  0.4963  1.1368
  300MOL0     H40496   1.075   6.465   8.272  0.9126 -0.2557 -0.0716
  300MOL0     H40497   0.935   6.506   8.371  1.2741 -1.4371  2.4327
  300MOL0     H40498   1.189   6.313   8.635 -0.6394  1.0651  1.2621
  300MOL0     H40499   0.625   6.880   8.271 -2.9371 -1.0358 -0.9861
  300MOL0     H40500   0.391   6.896   8.306  0.3897 -0.6329 -0.2091
  301MOL0     O40501   7.896   3.502   9.233  0.3316 -0.1198  0.8298
  301MOL0     C40502   7.866   3.595   9.156  0.5437  0.1984 -0.3264
  301MOL0     O40503   7.772   3.585   9.056 -0.2720  0.8405 -0.1787
  301MOL0     C40504   7.691   3.472   9.078  0.3999 -0.2432  1.0676
  301MOL0     C40505   7.575   3.475   9.165 -0.0468  0.1995  0.9707
  301MOL0     C40506   7.465   3.385   9.150  0.3210  0.2113 -1.5617
  301MOL0     C40507   7.477   3.292   9.044 -0.3707  0.2864  0.3249
  301MOL0     O40508   7.367   3.227   9.010  0.0762  0.2032 -0.2606
  301MOL0     C40509   7.365   3.085   9.006 -0.3969  0.5662 -0.1508
  301MOL0     C40510   7.228   3.031   8.990  0.7220 -0.0974 -0.7723
  301MOL0     C40511   7.162   3.075   8.865 -1.0123  0.4201  0.0780
  301MOL0     C40512   7.056   2.978   8.819  0.0489  0.4574  1.7155
  301MOL0     C40513   6.978   3.020   8.692  0.0821  0.0877  0.0403
  301MOL0     C40514   7.069   3.019   8.564  0.2283 -0.6688  0.2050
  301MOL0     C40515   6.981   3.038   8.436  0.1870 -0.0862 -0.3302
  301MOL0     C40516   6.917   2.923   8.370  0.2709 -0.0941 -0.8169
  301MOL0     N40517   6.766   2.945   8.356  0.2226 -0.9826  0.0343
  301MOL0     C40518   6.706   3.055   8.304  0.2279 -0.2114  0.7576
  301MOL0     C40519   6.571   3.027   8.316  0.4590  0.6897  0.2233
  301MOL0     C40520   6.466   3.100   8.248 -0.2737  0.5788 -0.2839
  301MOL0     C40521   6.492   3.249   8.229  0.4137  0.6764  0.0481
  301MOL0     C40522   6.382   3.315   8.164  1.4694 -0.3378 -0.5200
  301MOL0     C40523   6.243   3.319   8.245 -0.3910 -0.0639 -0.1938
  301MOL0     O40524   6.269   3.358   8.379 -1.0255  0.7030 -0.9410
  301MOL0     C40525   6.202   3.478   8.406 -0.4221 -0.7133  0.2871
  301MOL0     C40526   6.279   3.592   8.388  0.0226  0.1961  0.0894
  301MOL0     C40527   6.241   3.717   8.430 -1.3448 -0.4384  0.6052
  301MOL0     C40528   6.365   3.816   8.408  0.6253 -0.2990 -0.2673
  301MOL0     C40529   6.130   3.730   8.512  0.3004 -0.8505  0.7316
  301MOL0     C40530   6.080   3.867   8.566 -0.0826  0.1130  0.1712
  301MOL0     O40531   5.984   3.850   8.663 -0.2987  0.8392 -0.4830
  301MOL0     C40532   5.960   3.964   8.738 -0.1870  0.2656 -0.6178
  301MOL0     C40533   6.006   3.978   8.870 -0.2029  0.0061 -0.7403
  301MOL0     C40534   5.985   4.089   8.949 -0.3062  0.0050 -0.0667
  301MOL0     C40535   5.918   4.194   8.883  0.2087 -0.2191  0.9323
  301MOL0     O40536   5.909   4.312   8.946  0.8648 -0.2685 -0.0674
  301MOL0     C40537   5.864   4.313   9.077  0.5815 -0.3448 -0.1540
  301MOL0     C40538   5.707   4.321   9.081 -0.4267 -0.1635  1.2517
  301MOL0     C40539   5.655   4.448   9.003  0.4556  0.8314 -0.0762
  301MOL0     C40540   5.727   4.582   9.026 -0.3214  0.4999  1.0794
  301MOL0     C40541   5.692   4.664   9.150 -0.1990  0.3993  1.2072
  301MOL0     C40542   5.753   4.800   9.128  0.5731 -0.7911  0.1526
  301MOL0     C40543   5.797   4.857   9.261 -0.4275  0.2842  0.0737
  301MOL0     C40544   5.679   4.883   9.358  1.1266  0.6266 -0.2136
  301MOL0    Cl40545   5.713   4.983   9.506 -0.1878 -0.3222  0.0299
  301MOL0     C40546   5.862   4.184   8.754  0.1904  0.9126 -0.5961
  301MOL0     C40547   5.888   4.066   8.677 -0.0024 -0.2058 -0.0365
  301MOL0     O40548   6.113   3.974   8.513  0.3348 -0.0485 -0.6104
  301MOL0     C40549   6.060   3.607   8.541  0.0204  0.5639 -0.4931
  301MOL0     C40550   6.091   3.484   8.489 -0.6323  0.4206  0.1123
  301MOL0     N40551   6.552   2.898   8.360 -0.1243  0.2913 -0.5406
  301MOL0     N40552   6.672   2.856   8.388 -0.3339  1.0719 -0.6520
  301MOL0     C40553   7.600   3.271   8.986  0.1112  0.4851  0.0222
  301MOL0     C40554   7.709   3.362   8.997  0.0686 -0.4621 -0.0281
  301MOL0     C40555   7.939   3.725   9.157  1.0893  0.3546 -0.7101
  301MOL0     C40556   7.920   3.806   9.044 -0.0035  0.5676 -0.6799
  301MOL0     C40557   7.990   3.931   9.034 -0.8133  0.5011  0.5853
  301MOL0     C40558   8.077   3.969   9.130  0.2141 -0.2656  0.5897
  301MOL0     O40559   8.162   4.073   9.103 -0.3075  0.3841  0.0187
  301MOL0     C40560   8.223   4.143   9.218  0.7367 -0.9594  0.3236
  301MOL0     C40561   8.259   4.297   9.186  0.9423 -0.4821 -0.6176
  301MOL0     C40562   8.380   4.286   9.090 -0.3584 -0.0731 -0.1676
  301MOL0     C40563   8.348   4.328   8.945 -0.8384  0.3587  0.2445
  301MOL0     C40564   8.472   4.327   8.869 -0.2869  0.7824  0.6810
  301MOL0     C40565   8.573   4.307   8.793 -0.5208  0.7446 -0.0635
  301MOL0     C40566   8.095   3.887   9.239 -0.5092  0.6010  0.0847
  301MOL0     C40567   8.033   3.760   9.253 -0.0082 -0.3828 -0.1746
  301MOL0     H40568   7.561   3.555   9.238 -2.7314  3.5664 -2.7694
  301MOL0     H40569   7.367   3.403   9.194  1.3595  1.9960  0.1928
  301MOL0     H40570   7.420   3.052   8.917 -1.0299  0.2677 -0.4388
  301MOL0     H40571   7.414   3.053   9.098  0.7836  0.2098 -0.8806
  301MOL0     H40572   7.228   2.922   8.998 -1.8869 -0.1173 -0.1567
  301MOL0     H40573   7.160   3.078   9.062  1.7430 -1.6681  1.3480
  301MOL0     H40574   7.124   3.178   8.869 -1.2382  0.4041 -1.2041
  301MOL0     H40575   7.235   3.084   8.784 -0.9373  2.9965  0.3508
  301MOL0     H40576   7.089   2.874   8.815 -2.0943 -0.2400  1.0170
  301MOL0     H40577   6.981   2.975   8.898 -2.3894 -2.6858 -0.4440
  301MOL0     H40578   6.900   2.946   8.672 -0.4053  1.3497 -3.7319
  301MOL0     H40579   6.942   3.122   8.712  2.5027  1.6198 -2.5842
  301MOL0     H40580   7.152   3.089   8.578 -0.3929 -0.0841  1.0203
  301MOL0     H40581   7.127   2.927   8.555  1.6902  0.2814 -0.6397
  301MOL0     H40582   6.920   3.129   8.439 -2.4842 -1.7639 -0.8900
  301MOL0     H40583   7.057   3.066   8.362  0.0248  3.7146  0.6989
  301MOL0     H40584   6.918   2.839   8.440  0.6972  0.7296  0.1927
  301MOL0     H40585   6.954   2.905   8.269  1.4258 -1.9043 -0.1134
  301MOL0     H40586   6.754   3.146   8.270  1.5834 -1.5292 -1.0509
  301MOL0     H40587   6.458   3.058   8.147  0.0569 -1.6848  0.5756
  301MOL0     H40588   6.370   3.084   8.297  0.0830 -1.6410 -0.2044
  301MOL0     H40589   6.582   3.267   8.169  0.6168  2.1770  0.7706
  301MOL0     H40590   6.516   3.292   8.326 -3.1644  1.4774  0.7237
  301MOL0     H40591   6.375   3.278   8.061  1.4526 -0.2886 -0.5373
  301MOL0     H40592   6.406   3.421   8.154 -0.8129  0.0926 -2.2835
  301MOL0     H40593   6.210   3.216   8.262 -0.4489  0.1012  0.7738
  301MOL0     H40594   6.173   3.386   8.193  0.2644  0.8639  0.0901
  301MOL0     H40595   6.373   3.576   8.337  1.1758  0.1335  2.1035
  301MOL0     H40596   6.350   3.924   8.398 -1.4191 -0.4527  0.5768
  301MOL0     H40597   6.422   3.809   8.501 -2.1662  2.3892  1.8740
  301MOL0     H40598   6.408   3.792   8.310 -0.5684  0.3295 -0.9786
  301MOL0     H40599   6.074   3.907   8.915  4.0635  1.9814 -3.4397
  301MOL0     H40600   6.023   4.095   9.050  0.8732  1.3597 -0.5633
  301MOL0     H40601   5.893   4.231   9.144 -1.0234 -1.1842 -0.4356
  301MOL0     H40602   5.899   4.402   9.130  0.3911 -0.2636 -0.1665
  301MOL0     H40603   5.664   4.235   9.030 -1.0550  1.0966 -0.4338
  301MOL0     H40604   5.675   4.334   9.185 -0.8364  2.0175  0.9005
  301MOL0     H40605   5.548   4.465   9.018  0.2231  0.7761 -1.5342
  301MOL0     H40606   5.668   4.420   8.898 -1.2867  0.9067 -0.3343
  301MOL0     H40607   5.836   4.572   9.022 -0.0714  2.2696  2.5202
  301MOL0     H40608   5.694   4.641   8.939 -0.3113 -1.5013 -0.3620
  301MOL0     H40609   5.741   4.607   9.229  3.9365 -0.3062 -1.5154
  301MOL0     H40610   5.585   4.662   9.172 -0.0783 -1.7210  1.7993
  301MOL0     H40611   5.835   4.802   9.056  1.4829 -0.9551  1.1692
  301MOL0     H40612   5.681   4.868   9.082 -1.1781 -1.0872  2.2730
  301MOL0     H40613   5.849   4.952   9.247 -0.7516  0.3660 -0.5873
  301MOL0     H40614   5.860   4.777   9.300  0.6391  1.1555  0.1836
  301MOL0     H40615   5.645   4.783   9.384  1.1113  0.6875  0.0054
  301MOL0     H40616   5.592   4.927   9.308 -1.5896 -2.1622  1.7326
  301MOL0     H40617   5.796   4.260   8.713 -0.5596 -0.0464 -1.2063
  301MOL0     H40618   5.845   4.077   8.578 -0.7752 -1.5151  0.1357
  301MOL0     H40619   5.971   3.609   8.604  0.8006 -3.0983  0.9906
  301MOL0     H40620   6.040   3.391   8.512 -1.0696  0.6290 -0.0095
  301MOL0     H40621   7.599   3.185   8.919 -2.7840 -0.1586  0.7647
  301MOL0     H40622   7.797   3.345   8.936 -0.6447 -2.1488 -0.6491
  301MOL0     H40623   7.850   3.782   8.965  0.0679 -0.2208 -0.5154
  301MOL0     H40624   7.980   3.988   8.942  0.3135  0.6772  0.5571
  301MOL0     H40625   8.152   4.143   9.302  1.2912  0.5541  0.8171
  301MOL0     H40626   8.302   4.075   9.248  0.1525 -1.6732  0.2803
  301MOL0     H40627   8.290   4.344   9.280  0.6647 -1.8134  0.1788
  301MOL0     H40628   8.175   4.353   9.145  0.8747 -0.2630 -0.1903
  301MOL0     H40629   8.415   4.184   9.075 -0.0991  0.1478 -1.1177
  301MOL0     H40630   8.466   4.341   9.129  0.2915  0.3350 -2.0462
  301MOL0     H40631   8.290   4.421   8.947 -2.3661 -0.5290 -0.7323
  301MOL0     H40632   8.286   4.254   8.893 -0.2690 -0.6480  0.9515
  301MOL0     H40633   8.642   4.264   8.724 -0.0298 -0.2779  1.0262
  301MOL0     H40634   8.172   3.912   9.311  0.3193 -0.8161 -0.2710
  301MOL0     H40635   8.068   3.703   9.338  2.7595  2.2929  0.6588
  302MOL0     O40636   2.699   3.470   7.653 -0.3896 -0.2458 -0.7733
  302MOL0     C40637   2.801   3.410   7.674  0.2421 -0.9287 -1.2645
  302MOL0     O40638   2.885   3.431   7.775 -0.6650 -0.0779  0.3511
  302MOL0     C40639   2.871   3.549   7.845  0.2273  0.2474  0.0400
  302MOL0     C40640   2.950   3.656   7.804 -0.4980  0.3859  1.1043
  302MOL0     C40641   2.953   3.780   7.865 -0.2661 -0.2107 -0.7281
  302MOL0     C40642   2.875   3.802   7.986  0.1073 -0.3834 -0.2550
  302MOL0     O40643   2.857   3.937   8.031 -0.0849  0.5089  0.4475
  302MOL0     C40644   2.879   3.962   8.169 -0.0396  0.0176  0.7512
  302MOL0     C40645   2.840   4.100   8.187 -0.1701 -0.0013 -0.6249
  302MOL0     C40646   2.695   4.131   8.143 -0.2788 -0.5429  0.3281
  302MOL0     C40647   2.663   4.271   8.188  0.4104  0.2207 -0.0695
  302MOL0     C40648   2.648   4.293   8.344 -0.7006 -1.1923  0.4264
  302MOL0     C40649   2.579   4.182   8.427 -0.9806  0.0977  0.5399
  302MOL0     C40650   2.591   4.216   8.570 -0.1953 -0.2434 -0.6732
  302MOL0     C40651   2.547   4.091   8.670 -1.1664 -0.1052  0.9338
  302MOL0     N40652   2.402   4.059   8.652  0.5466  0.3557  0.0629
  302MOL0     C40653   2.308   4.151   8.688 -0.2806  0.1473  1.0866
  302MOL0     C40654   2.197   4.108   8.615 -0.3796  0.7646 -0.6936
  302MOL0     C40655   2.054   4.159   8.625 -0.0889 -0.1096 -1.0304
  302MOL0     C40656   1.981   4.051   8.704  0.8665  0.0385  1.1116
  302MOL0     C40657   1.844   4.099   8.750  0.4853  0.0924 -0.0645
  302MOL0     C40658   1.773   3.986   8.822  0.0133  0.1364 -0.1137
  302MOL0     O40659   1.631   3.965   8.801  0.3346 -0.1157  0.3398
  302MOL0     C40660   1.574   3.885   8.901  0.3962 -0.8284  0.3580
  302MOL0     C40661   1.546   3.755   8.867  0.3433  0.0157 -0.0802
  302MOL0     C40662   1.496   3.662   8.967 -0.1686  0.6417 -0.2013
  302MOL0     C40663   1.488   3.517   8.921  0.6293  0.4595  0.6281
  302MOL0     C40664   1.468   3.719   9.094 -0.0469 -0.4998  0.0098
  302MOL0     C40665   1.416   3.644   9.207  0.9151 -0.0540 -0.4631
  302MOL0     O40666   1.404   3.704   9.333  0.1759 -0.5644  0.1680
  302MOL0     C40667   1.343   3.637   9.428 -0.1063 -0.2056  0.0209
  302MOL0     C40668   1.216   3.654   9.465  0.0916 -0.3061  0.2455
  302MOL0     C40669   1.165   3.571   9.572 -0.2072 -0.2745  0.7523
  302MOL0     C40670   1.247   3.472   9.630 -0.4299 -0.1205  0.4333
  302MOL0     O40671   1.179   3.391   9.718 -0.3718  0.1909 -0.0049
  302MOL0     C40672   1.257   3.303   9.804  0.0607 -0.2219  0.1949
  302MOL0     C40673   1.174   3.211   9.874 -0.6658  0.5946 -0.4222
  302MOL0     C40674   1.235   3.149   9.998  0.4090  0.1254 -0.8094
  302MOL0     C40675   1.128   3.104  10.097  0.0322  0.3915  0.8080
  302MOL0     C40676   1.204   3.002  10.181  0.3258  0.2170 -0.5474
  302MOL0     C40677   1.141   2.942  10.301 -0.6540  0.3496  0.0843
  302MOL0     C40678   1.207   2.816  10.345 -1.2344 -0.5234  0.2419
  302MOL0     C40679   1.127   2.723  10.432  0.2026  0.1331  0.6283
  302MOL0    Cl40680   1.104   2.803  10.592 -0.1356  0.1919 -0.5203
  302MOL0     C40681   1.378   3.458   9.584  0.6930  0.2414 -0.4582
  302MOL0     C40682   1.421   3.543   9.484  0.3189 -0.0744  0.4378
  302MOL0     O40683   1.370   3.522   9.186 -0.0792  0.6215 -0.0232
  302MOL0     C40684   1.490   3.860   9.116  0.0032 -0.4103  0.5724
  302MOL0     C40685   1.534   3.940   9.024 -0.1073  0.1037 -0.0077
  302MOL0     N40686   2.239   4.015   8.519  0.4635 -0.1466 -0.3889
  302MOL0     N40687   2.355   3.980   8.547  0.1961 -0.4590  0.3115
  302MOL0     C40688   2.795   3.692   8.025 -0.6284  0.1190  0.7152
  302MOL0     C40689   2.789   3.567   7.959 -0.7390  0.6064  0.8624
  302MOL0     C40690   2.834   3.302   7.588  0.2793 -0.4898 -0.1034
  302MOL0     C40691   2.773   3.291   7.463  0.6544  0.1091 -0.2096
  302MOL0     C40692   2.804   3.196   7.369  0.9354  0.0920  0.3430
  302MOL0     C40693   2.901   3.106   7.396  0.5892 -0.0954  0.3294
  302MOL0     O40694   2.941   3.006   7.312  0.2001 -0.2367 -0.0473
  302MOL0     C40695   2.945   3.034   7.167 -0.2024 -0.4702 -0.5894
  302MOL0     C40696   3.049   2.948   7.101  0.2028  0.0651 -0.1667
  302MOL0     C40697   3.012   2.798   7.106 -0.7842  0.3985 -1.1011
  302MOL0     C40698   2.904   2.781   7.005  0.2335  0.1900 -0.8284
  302MOL0     C40699   2.884   2.635   6.976 -0.4700  0.1814 -0.4329
  302MOL0     C40700   2.854   2.518   6.957  0.5737  0.0342 -0.5513
  302MOL0     C40701   2.972   3.115   7.512  0.1962 -0.1408 -0.2244
  302MOL0     C40702   2.944   3.214   7.606 -0.3346 -0.6787  0.1336
  302MOL0     H40703   3.012   3.637   7.717 -3.7308  0.4030 -1.3890
  302MOL0     H40704   3.022   3.856   7.831  0.4376 -0.4844  0.0413
  302MOL0     H40705   2.813   3.914   8.242 -0.3652  2.9688  2.5561
  302MOL0     H40706   2.985   3.941   8.187  0.3120  0.0835 -1.0854
  302MOL0     H40707   2.854   4.136   8.289  1.5658  3.2097 -1.8539
  302MOL0     H40708   2.904   4.171   8.133 -0.3546 -0.0308 -0.8848
  302MOL0     H40709   2.693   4.144   8.035 -0.5815  3.2429  0.6434
  302MOL0     H40710   2.623   4.055   8.176 -1.5509  0.1091 -0.8580
  302MOL0     H40711   2.718   4.350   8.137 -1.3784  2.1721  0.9154
  302MOL0     H40712   2.563   4.287   8.148 -0.3186 -2.1258  0.6509
  302MOL0     H40713   2.743   4.323   8.389 -0.7295 -0.2553 -0.1077
  302MOL0     H40714   2.589   4.385   8.357  1.0302 -0.3824  3.4722
  302MOL0     H40715   2.476   4.170   8.392 -1.0912  0.4529  0.7377
  302MOL0     H40716   2.647   4.097   8.415 -0.5547  0.6160 -1.0030
  302MOL0     H40717   2.694   4.226   8.606 -1.7835  0.2837  4.5015
  302MOL0     H40718   2.544   4.311   8.599  3.1521  0.8785  1.6223
  302MOL0     H40719   2.570   4.118   8.774 -1.1423  1.2271  0.5923
  302MOL0     H40720   2.599   4.001   8.637  1.1112  2.1586 -2.2003
  302MOL0     H40721   2.325   4.222   8.768  0.9958  1.4817 -0.2920
  302MOL0     H40722   2.060   4.257   8.673 -2.0655 -1.1812  1.6383
  302MOL0     H40723   2.006   4.183   8.529  0.1216 -2.3197 -1.7485
  302MOL0     H40724   2.041   4.024   8.791  0.6044 -0.1720  1.2300
  302MOL0     H40725   1.968   3.969   8.633  1.8722  0.9592 -0.1818
  302MOL0     H40726   1.789   4.139   8.664 -1.5477  3.3298  2.4938
  302MOL0     H40727   1.854   4.179   8.824 -3.1776 -1.3366  2.2293
  302MOL0     H40728   1.789   4.008   8.928  0.5932 -1.2339  0.1068
  302MOL0     H40729   1.819   3.890   8.794  0.3823  0.7529 -1.7101
  302MOL0     H40730   1.565   3.724   8.764  1.2347  0.8240 -0.1736
  302MOL0     H40731   1.381   3.493   8.926  0.9396 -0.9698  0.9061
  302MOL0     H40732   1.515   3.495   8.817  0.6453  1.4465  0.4177
  302MOL0     H40733   1.540   3.449   8.989 -0.1359  0.3756  1.1533
  302MOL0     H40734   1.159   3.740   9.432  1.1423  1.5717  3.0081
  302MOL0     H40735   1.062   3.589   9.601 -0.5427  3.0367 -1.9616
  302MOL0     H40736   1.330   3.240   9.751 -0.3761  1.6879 -2.9585
  302MOL0     H40737   1.325   3.353   9.874 -0.8782 -0.1512  1.0730
  302MOL0     H40738   1.082   3.258   9.911  0.7762  1.5393  2.2120
  302MOL0     H40739   1.157   3.130   9.803 -0.7583  0.9945 -0.8605
  302MOL0     H40740   1.299   3.222  10.049  2.9346  0.6211 -4.3111
  302MOL0     H40741   1.305   3.071   9.965  0.5536  1.1993 -3.2308
  302MOL0     H40742   1.088   3.190  10.151  2.8747  2.3970 -0.0902
  302MOL0     H40743   1.051   3.037  10.058  2.5754 -2.3764  0.1656
  302MOL0     H40744   1.297   3.039  10.227 -0.6404 -0.6314  2.3218
  302MOL0     H40745   1.226   2.923  10.109 -1.2789 -2.3355  1.5823
  302MOL0     H40746   1.125   3.017  10.379 -1.1957 -1.9153  2.2771
  302MOL0     H40747   1.040   2.916  10.268 -1.2120  2.5711 -0.0957
  302MOL0     H40748   1.305   2.842  10.384 -2.5139  2.9617  1.4629
  302MOL0     H40749   1.235   2.755  10.258 -0.6503  0.0123  0.0517
  302MOL0     H40750   1.170   2.622  10.437 -0.8242 -0.4442 -1.2375
  302MOL0     H40751   1.027   2.699  10.395  0.0191  0.2845  1.0225
  302MOL0     H40752   1.448   3.392   9.635 -0.4591 -1.1910 -0.6669
  302MOL0     H40753   1.526   3.530   9.459 -0.5179 -2.2669 -2.5415
  302MOL0     H40754   1.455   3.906   9.208  1.2957 -2.0041  1.9190
  302MOL0     H40755   1.548   4.047   9.034 -2.1825  0.3638  0.6981
  302MOL0     H40756   2.729   3.699   8.111  1.8935  2.0751  2.6708
  302MOL0     H40757   2.743   3.477   7.999  1.3275 -0.8340  0.1482
  302MOL0     H40758   2.687   3.354   7.440  2.0647  1.0891 -3.4275
  302MOL0     H40759   2.742   3.182   7.281 -0.0556  0.4712  0.9622
  302MOL0     H40760   2.847   3.032   7.120 -0.2621  0.7731 -0.5662
  302MOL0     H40761   2.982   3.136   7.151  2.6483 -1.6342 -2.1758
  302MOL0     H40762   3.145   2.961   7.152  0.9412 -2.3465 -0.8011
  302MOL0     H40763   3.063   2.968   6.994 -0.5728 -0.3123 -0.3443
  302MOL0     H40764   2.972   2.768   7.203 -0.2850  3.9912  0.3659
  302MOL0     H40765   3.101   2.738   7.086 -1.1113 -0.6883  0.5086
  302MOL0     H40766   2.933   2.824   6.909 -1.3182 -0.6303 -1.7101
  302MOL0     H40767   2.810   2.828   7.037  0.5952  0.5587 -0.2899
  302MOL0     H40768   2.836   2.414   6.939  4.6470 -0.8214 -0.6863
  302MOL0     H40769   3.059   3.052   7.533  2.1117  2.2752 -0.4650
  302MOL0     H40770   3.003   3.215   7.697  0.7463  2.1444 -0.4847
  303MOL0     O40771   8.450   0.071   0.858 -0.0097  0.1505  0.2168
  303MOL0     C40772   8.412  -0.048   0.845 -0.6948 -0.4001 -0.2774
  303MOL0     O40773   8.472  -0.140   0.770 -1.0518 -0.1277 -0.1453
  303MOL0     C40774   8.591  -0.130   0.706 -0.2724  0.2566 -0.1000
  303MOL0     C40775   8.662  -0.013   0.669 -0.1305  0.2919 -0.0968
  303MOL0     C40776   8.771  -0.005   0.591  0.2363  0.6754  0.0330
  303MOL0     C40777   8.830  -0.126   0.545 -0.2990 -0.6696 -1.7292
  303MOL0     O40778   8.943  -0.133   0.470  0.5041  0.2998 -0.2717
  303MOL0     C40779   9.023  -0.022   0.483  0.2390  1.0139  0.0081
  303MOL0     C40780   9.133  -0.032   0.388 -0.7878  0.4274 -0.7820
  303MOL0     C40781   9.252  -0.124   0.449 -0.1399 -0.1478  0.0017
  303MOL0     C40782   9.230  -0.278   0.430 -0.2354  0.5482  0.9053
  303MOL0     C40783   9.360  -0.353   0.446 -0.4938 -0.1768 -0.0144
  303MOL0     C40784   9.336  -0.499   0.455 -0.7150 -0.8738  0.1588
  303MOL0     C40785   9.452  -0.575   0.514  0.2258  0.0398  0.1717
  303MOL0     C40786   9.430  -0.603   0.662 -0.0968  1.0226  0.0702
  303MOL0     N40787   9.511  -0.713   0.706  0.2796  0.0256 -1.0599
  303MOL0     C40788   9.649  -0.722   0.720  0.0120  0.0834 -0.1055
  303MOL0     C40789   9.667  -0.855   0.757 -0.0295 -0.5090 -0.2634
  303MOL0     C40790   9.805  -0.918   0.773  0.1223  0.2559 -0.5731
  303MOL0     C40791   9.864  -0.962   0.642  0.7663  0.1000  0.2156
  303MOL0     C40792   9.949  -0.846   0.585  0.2463 -0.0634 -0.3736
  303MOL0     C40793  10.094  -0.885   0.582 -0.4067 -0.4252 -1.0055
  303MOL0     O40794  10.151  -0.886   0.713 -0.0374  0.9468  0.1088
  303MOL0     C40795  10.266  -0.956   0.717 -0.0042 -0.8019  0.3110
  303MOL0     C40796  10.262  -1.090   0.752  0.6989  0.3378  0.3766
  303MOL0     C40797  10.383  -1.167   0.762 -0.1263 -0.8195 -0.3489
  303MOL0     C40798  10.362  -1.312   0.806 -0.2549 -0.9072 -0.2660
  303MOL0     C40799  10.507  -1.101   0.740 -0.4607 -0.0735  0.1321
  303MOL0     C40800  10.640  -1.154   0.761 -0.7980  0.6151 -0.7048
  303MOL0     O40801  10.647  -1.251   0.860 -0.7252 -0.0475  0.4299
  303MOL0     C40802  10.760  -1.329   0.851 -0.0380 -0.0803 -0.2991
  303MOL0     C40803  10.888  -1.287   0.899 -0.3005  0.0154  0.3405
  303MOL0     C40804  11.001  -1.371   0.888 -0.8264 -0.7914 -0.7722
  303MOL0     C40805  10.994  -1.497   0.828 -0.3422  0.4652 -0.2992
  303MOL0     O40806  11.104  -1.583   0.830 -0.0101 -0.3359  0.1227
  303MOL0     C40807  11.104  -1.703   0.753  0.2663  0.0821 -1.1852
  303MOL0     C40808  11.045  -1.825   0.831 -0.6596  0.0191 -0.4118
  303MOL0     C40809  11.020  -1.942   0.736  1.4526 -0.6970 -0.8757
  303MOL0     C40810  11.009  -2.071   0.811 -0.1879  0.4237 -1.0055
  303MOL0     C40811  10.966  -2.203   0.737  0.4517  0.2178 -0.2952
  303MOL0     C40812  10.964  -2.314   0.845  0.0428  1.1127 -0.4947
  303MOL0     C40813  10.886  -2.437   0.807  0.4819  0.4777  0.6475
  303MOL0     C40814  10.905  -2.565   0.877  0.1443 -0.1152 -0.4391
  303MOL0    Cl40815  11.080  -2.605   0.889 -0.4729 -0.1396 -0.0292
  303MOL0     C40816  10.859  -1.540   0.788 -0.3702 -0.2691  0.7400
  303MOL0     C40817  10.745  -1.458   0.795  0.3352  0.3257  0.3374
  303MOL0     O40818  10.741  -1.103   0.704 -0.2164 -0.5510  0.8554
  303MOL0     C40819  10.498  -0.969   0.698 -0.4973 -0.1533 -0.1259
  303MOL0     C40820  10.389  -0.888   0.694  0.1895  0.0083  1.1374
  303MOL0     N40821   9.542  -0.916   0.779  0.7246  0.4445  0.3520
  303MOL0     N40822   9.447  -0.832   0.747  0.0988  0.1771 -0.9413
  303MOL0     C40823   8.753  -0.244   0.563  0.1446 -0.2541  0.1410
  303MOL0     C40824   8.647  -0.253   0.658 -0.4080 -0.5643 -0.0988
  303MOL0     C40825   8.284  -0.090   0.902  1.3082 -0.6952 -0.3430
  303MOL0     C40826   8.210  -0.005   0.986 -0.2686  0.2017 -0.4337
  303MOL0     C40827   8.096  -0.048   1.055 -0.7141 -1.1590  0.6389
  303MOL0     C40828   8.047  -0.175   1.034 -1.0612 -0.1700 -0.0063
  303MOL0     O40829   7.939  -0.229   1.097 -0.3924 -0.1607  0.4104
  303MOL0     C40830   7.866  -0.140   1.190  0.3882 -0.0034  0.8329
  303MOL0     C40831   7.728  -0.186   1.206  0.3722 -0.9361 -0.3170
  303MOL0     C40832   7.630  -0.158   1.084  0.8992  0.3997 -0.1305
  303MOL0     C40833   7.658  -0.026   1.007  0.6666  0.3924  0.4715
  303MOL0     C40834   7.535   0.022   0.929  0.0827  1.0602  0.5975
  303MOL0     C40835   7.424   0.064   0.898 -0.1664  0.3350  0.6991
  303MOL0     C40836   8.111  -0.265   0.955 -0.9548 -0.1338  0.1809
  303MOL0     C40837   8.235  -0.224   0.899  0.3544 -0.1233  0.5181
  303MOL0     H40838   8.622   0.087   0.684  1.1045  1.3152 -2.9288
  303MOL0     H40839   8.800   0.096   0.564 -2.2519  1.3209 -0.4679
  303MOL0     H40840   8.957   0.059   0.449  1.8131  0.8733 -3.9166
  303MOL0     H40841   9.059  -0.010   0.586  0.8935 -2.9232  0.3835
  303MOL0     H40842   9.100  -0.059   0.287  1.0175  0.1284 -1.3363
  303MOL0     H40843   9.179   0.067   0.385  2.6007 -1.0288 -1.7848
  303MOL0     H40844   9.344  -0.091   0.400  0.8180 -0.6804  1.3841
  303MOL0     H40845   9.269  -0.096   0.554  1.2093 -0.1339 -0.1983
  303MOL0     H40846   9.148  -0.309   0.496 -0.7183  0.1722  0.1509
  303MOL0     H40847   9.176  -0.290   0.335 -1.4880  3.1391  1.1973
  303MOL0     H40848   9.408  -0.327   0.351 -1.4217 -0.4094 -0.5577
  303MOL0     H40849   9.412  -0.323   0.537 -2.5386 -1.7691  1.7819
  303MOL0     H40850   9.253  -0.515   0.525 -1.8460  1.4025 -0.5645
  303MOL0     H40851   9.309  -0.532   0.354 -0.6880  0.2413 -0.2328
  303MOL0     H40852   9.459  -0.679   0.480  3.1180 -0.5399  2.2256
  303MOL0     H40853   9.546  -0.526   0.489  1.3154 -1.3406  1.3847
  303MOL0     H40854   9.326  -0.632   0.679 -0.2693 -2.7578 -4.9732
  303MOL0     H40855   9.463  -0.515   0.717 -2.2861  1.5865  0.5813
  303MOL0     H40856   9.715  -0.640   0.692 -1.3226  1.0343 -0.5214
  303MOL0     H40857   9.866  -0.846   0.828 -0.4474  0.9821 -0.8750
  303MOL0     H40858   9.800  -1.002   0.844 -5.0193  1.5066  0.9460
  303MOL0     H40859   9.790  -1.001   0.571  2.1743  2.0546 -2.5005
  303MOL0     H40860   9.939  -1.040   0.651  0.6440 -0.1565 -0.8801
  303MOL0     H40861   9.950  -0.754   0.645  1.3492  3.1826 -4.8916
  303MOL0     H40862   9.907  -0.829   0.486  1.2651  2.0248 -0.5051
  303MOL0     H40863  10.153  -0.816   0.521  0.9437  0.8177  1.5732
  303MOL0     H40864  10.110  -0.986   0.541  3.8471 -1.2744  2.0170
  303MOL0     H40865  10.169  -1.137   0.782 -0.0407  2.9924  2.6833
  303MOL0     H40866  10.452  -1.357   0.847  1.0184  2.3115  0.7681
  303MOL0     H40867  10.289  -1.308   0.887  0.9686  1.1984  0.8023
  303MOL0     H40868  10.333  -1.384   0.729  3.3693 -3.5419  0.5762
  303MOL0     H40869  10.898  -1.186   0.936 -1.8395  0.7812 -1.2076
  303MOL0     H40870  11.095  -1.345   0.936 -0.7953 -2.5701  0.2022
  303MOL0     H40871  11.039  -1.702   0.665 -0.0945  0.2231 -0.9202
  303MOL0     H40872  11.205  -1.720   0.715 -0.1289  1.0450 -2.7892
  303MOL0     H40873  11.121  -1.871   0.895 -1.7367 -2.3614 -0.7522
  303MOL0     H40874  10.965  -1.786   0.895 -0.8941  2.7794 -2.2339
  303MOL0     H40875  11.085  -1.961   0.650 -0.4374 -2.0677 -2.1012
  303MOL0     H40876  10.922  -1.916   0.692  0.3374 -1.9494  0.7679
  303MOL0     H40877  11.106  -2.088   0.858 -1.0216  2.3487  1.6493
  303MOL0     H40878  10.939  -2.053   0.892  2.0066 -1.2331  1.4140
  303MOL0     H40879  11.032  -2.213   0.650 -0.6876  0.2915 -1.2004
  303MOL0     H40880  10.860  -2.209   0.708  0.2993  0.1474  0.2746
  303MOL0     H40881  11.067  -2.343   0.866 -0.7541 -0.8279  1.0908
  303MOL0     H40882  10.929  -2.277   0.942  1.6702 -2.5445  1.6830
  303MOL0     H40883  10.910  -2.466   0.704  1.8237 -1.9599  1.5662
  303MOL0     H40884  10.778  -2.418   0.803  0.2219 -0.5767  1.9832
  303MOL0     H40885  10.844  -2.642   0.830 -0.4198  1.0420 -1.6770
  303MOL0     H40886  10.857  -2.551   0.974  1.3843  1.5742 -0.0283
  303MOL0     H40887  10.850  -1.645   0.760  0.6182 -0.2153  0.1497
  303MOL0     H40888  10.643  -1.490   0.775 -0.5109  2.2605  1.2726
  303MOL0     H40889  10.586  -0.907   0.682 -1.7578  1.0442 -2.9274
  303MOL0     H40890  10.381  -0.780   0.684  3.1226  0.1542 -0.7100
  303MOL0     H40891   8.789  -0.331   0.509  3.5374  2.5139 -2.5616
  303MOL0     H40892   8.579  -0.336   0.679 -2.1551  0.7301 -0.4208
  303MOL0     H40893   8.255   0.090   1.013  0.1890  0.0816 -0.7598
  303MOL0     H40894   8.053   0.018   1.129 -2.6557 -1.4475 -0.1694
  303MOL0     H40895   7.909  -0.154   1.289  2.5832 -0.2378 -0.0914
  303MOL0     H40896   7.869  -0.034   1.161 -0.0320  0.4540  2.3457
  303MOL0     H40897   7.690  -0.120   1.285  2.6562  1.8886 -1.3780
  303MOL0     H40898   7.733  -0.291   1.234  1.1019 -1.1600 -1.2402
  303MOL0     H40899   7.528  -0.152   1.120  0.7003 -1.5353 -0.2262
  303MOL0     H40900   7.631  -0.244   1.016 -0.6900 -0.2135  0.5885
  303MOL0     H40901   7.744  -0.045   0.942 -1.2545  0.8073 -2.3883
  303MOL0     H40902   7.677   0.063   1.068 -5.5931  2.3015  0.3359
  303MOL0     H40903   7.330   0.104   0.867  0.2996  0.8099 -0.1446
  303MOL0     H40904   8.077  -0.368   0.951  0.5025 -0.6201 -0.7228
  303MOL0     H40905   8.287  -0.303   0.846 -0.7810 -0.8977  0.5171
  304MOL0     O40906   6.658   1.896   0.027 -0.2791 -0.1920  0.0501
  304MOL0     C40907   6.645   1.887  -0.095 -0.2643  0.4716  1.4364
  304MOL0     O40908   6.539   1.939  -0.161 -0.0197 -0.2653  0.3589
  304MOL0     C40909   6.454   2.025  -0.096  0.1685  0.8632 -0.2290
  304MOL0     C40910   6.385   2.001   0.020  0.3721 -0.3205  0.1180
  304MOL0     C40911   6.304   2.096   0.090 -0.1025  0.0131 -0.4829
  304MOL0     C40912   6.313   2.222   0.047  0.1670  0.5580  0.0918
  304MOL0     O40913   6.243   2.322   0.107  0.0841  0.6522 -0.4496
  304MOL0     C40914   6.101   2.330   0.089  0.3919  0.0514 -0.0480
  304MOL0     C40915   6.052   2.476   0.074  0.3673  0.4590  0.3825
  304MOL0     C40916   6.087   2.563   0.195 -0.2267 -0.0964  0.7514
  304MOL0     C40917   6.045   2.499   0.328  0.6974 -0.0175  0.4556
  304MOL0     C40918   6.129   2.561   0.442 -0.1965 -0.0989  0.1591
  304MOL0     C40919   6.269   2.499   0.436 -0.1883 -0.0259  0.7103
  304MOL0     C40920   6.358   2.542   0.546  0.5839  0.0942 -0.1786
  304MOL0     C40921   6.506   2.525   0.501 -0.5961  1.1387 -0.7966
  304MOL0     N40922   6.527   2.379   0.462  0.0549  0.3053 -0.6147
  304MOL0     C40923   6.534   2.353   0.323  0.1057 -0.7812 -0.1174
  304MOL0     C40924   6.622   2.246   0.306  0.0827 -0.7093 -0.5298
  304MOL0     C40925   6.652   2.171   0.179 -0.7095  0.7008  0.6014
  304MOL0     C40926   6.795   2.169   0.138  0.1054  0.6605  0.6705
  304MOL0     C40927   6.845   2.301   0.095  0.2900 -0.3818 -0.1614
  304MOL0     C40928   6.795   2.338  -0.038  0.7124  0.1326  0.0617
  304MOL0     O40929   6.667   2.415  -0.046 -0.3670  0.3289 -0.6128
  304MOL0     C40930   6.647   2.536   0.014 -0.0939 -0.5423 -0.2241
  304MOL0     C40931   6.750   2.617   0.058  0.3575 -0.6507 -0.7356
  304MOL0     C40932   6.725   2.741   0.120  0.3980  0.3577 -0.0702
  304MOL0     C40933   6.843   2.803   0.185 -0.2456 -0.8753  0.4628
  304MOL0     C40934   6.600   2.796   0.120 -0.5790  0.7538  1.3836
  304MOL0     C40935   6.576   2.934   0.114  0.7497 -0.4892 -0.7097
  304MOL0     O40936   6.448   2.976   0.166 -0.0824  0.7539 -0.1042
  304MOL0     C40937   6.398   3.094   0.186  1.7602 -0.6827 -0.6371
  304MOL0     C40938   6.266   3.093   0.223  0.7063  0.3274  1.0928
  304MOL0     C40939   6.198   3.214   0.256 -0.3104  1.2406  0.1790
  304MOL0     C40940   6.259   3.333   0.242  0.7673 -0.9502 -0.0260
  304MOL0     O40941   6.191   3.444   0.281 -0.0587  0.0757  0.2135
  304MOL0     C40942   6.249   3.532   0.379  0.3278 -0.3994 -0.1702
  304MOL0     C40943   6.297   3.678   0.337  0.4978  0.3399  0.3820
  304MOL0     C40944   6.205   3.785   0.383  0.4231  0.0223 -0.1144
  304MOL0     C40945   6.253   3.923   0.317 -0.2099  0.0794  0.0263
  304MOL0     C40946   6.372   3.982   0.393  0.3581  0.4112  0.1542
  304MOL0     C40947   6.393   4.125   0.359 -0.5546  1.0669 -0.2920
  304MOL0     C40948   6.499   4.194   0.453 -0.4891  0.0621 -0.0256
  304MOL0     C40949   6.645   4.190   0.408 -0.8523 -0.3353 -0.2082
  304MOL0    Cl40950   6.693   4.293   0.268  0.5189 -0.2337  0.1618
  304MOL0     C40951   6.392   3.337   0.204  0.5285  0.7460 -0.1644
  304MOL0     C40952   6.459   3.221   0.166 -0.0924  1.0423 -0.0331
  304MOL0     O40953   6.663   3.015   0.074 -0.4377  0.0747  0.4142
  304MOL0     C40954   6.490   2.713   0.090 -0.4047 -0.6761 -0.0808
  304MOL0     C40955   6.512   2.587   0.037 -0.0095  0.1571  0.6691
  304MOL0     N40956   6.660   2.207   0.436  0.4946 -0.0583  0.1657
  304MOL0     N40957   6.601   2.281   0.523  0.1925  0.7321 -0.1126
  304MOL0     C40958   6.365   2.241  -0.079 -0.5061 -0.4032  0.1715
  304MOL0     C40959   6.434   2.151  -0.153 -0.0535  0.0661 -0.2843
  304MOL0     C40960   6.765   1.833  -0.180 -0.0030 -0.0682 -0.2938
  304MOL0     C40961   6.765   1.825  -0.321  0.6537 -0.5741 -0.2259
  304MOL0     C40962   6.868   1.766  -0.402  1.0080 -1.8905  0.3960
  304MOL0     C40963   6.988   1.725  -0.326 -0.6130  0.0872  0.3875
  304MOL0     O40964   7.088   1.672  -0.392  0.6476 -0.3461  0.3611
  304MOL0     C40965   7.190   1.586  -0.328 -0.8396 -0.7951 -0.7524
  304MOL0     C40966   7.304   1.674  -0.294 -0.7850 -0.5840 -0.2134
  304MOL0     C40967   7.384   1.723  -0.418 -0.5928  0.1843 -0.6104
  304MOL0     C40968   7.505   1.808  -0.376 -0.6500  0.2123  0.1252
  304MOL0     C40969   7.460   1.943  -0.360  0.1560  1.4917  0.0284
  304MOL0     C40970   7.423   2.054  -0.375 -0.2674 -0.5863 -0.2016
  304MOL0     C40971   7.000   1.750  -0.186 -0.1287  0.5969 -0.8363
  304MOL0     C40972   6.889   1.802  -0.113  0.2467  1.1828 -0.3062
  304MOL0     H40973   6.400   1.902   0.062  0.3608 -0.3183  0.1270
  304MOL0     H40974   6.245   2.082   0.180  0.5521  0.7086  0.0713
  304MOL0     H40975   6.068   2.273   0.001 -0.6064  2.2031 -1.1439
  304MOL0     H40976   6.042   2.275   0.164 -1.5204 -0.8882 -2.1177
  304MOL0     H40977   6.082   2.527  -0.017 -1.7264 -2.5966 -2.2500
  304MOL0     H40978   5.943   2.472   0.063  0.6192  0.6143 -3.0693
  304MOL0     H40979   6.194   2.586   0.201 -0.2747  0.5924 -0.6989
  304MOL0     H40980   6.046   2.664   0.187  1.7354  1.0307  3.1995
  304MOL0     H40981   5.937   2.506   0.348  0.3867 -0.0910 -1.1074
  304MOL0     H40982   6.059   2.391   0.330 -2.4916 -0.7227 -3.0524
  304MOL0     H40983   6.137   2.670   0.446  3.1756 -0.2285 -0.1456
  304MOL0     H40984   6.083   2.530   0.536 -2.1855  0.9152 -0.4240
  304MOL0     H40985   6.259   2.391   0.443  1.7603 -0.2460  0.6555
  304MOL0     H40986   6.317   2.529   0.342  1.1934  1.1379  1.7369
  304MOL0     H40987   6.343   2.650   0.552  1.6742  0.3346 -1.3093
  304MOL0     H40988   6.336   2.482   0.635  1.8056 -0.2345 -0.0770
  304MOL0     H40989   6.566   2.537   0.592 -1.0996 -2.3208  0.1353
  304MOL0     H40990   6.537   2.597   0.425 -0.9393  1.6752 -0.4418
  304MOL0     H40991   6.473   2.390   0.241  1.5476 -2.5277 -2.0940
  304MOL0     H40992   6.625   2.068   0.201  1.6058  0.1603  1.2359
  304MOL0     H40993   6.599   2.220   0.097  3.5526 -0.9409 -3.6778
  304MOL0     H40994   6.816   2.103   0.053  0.2692  0.1448  1.1068
  304MOL0     H40995   6.858   2.133   0.220  0.4489  1.4656  0.7670
  304MOL0     H40996   6.954   2.291   0.085  0.5231  1.1478  0.5619
  304MOL0     H40997   6.837   2.372   0.178  3.3635 -2.2358  1.9212
  304MOL0     H40998   6.784   2.247  -0.098 -3.8322  0.2837  0.3056
  304MOL0     H40999   6.869   2.396  -0.094  0.3142  0.2753 -0.3259
  304MOL0     H41000   6.852   2.584   0.041  1.2691  1.0157  1.1138
  304MOL0     H41001   6.818   2.897   0.235 -0.7700 -1.4529  1.3234
  304MOL0     H41002   6.876   2.743   0.269  0.3806 -1.0859  0.0727
  304MOL0     H41003   6.931   2.817   0.122  0.4569  1.0910  1.7895
  304MOL0     H41004   6.215   2.998   0.237  0.5616  0.3101  0.4651
  304MOL0     H41005   6.096   3.226   0.291 -1.5506  1.6749 -3.2819
  304MOL0     H41006   6.179   3.525   0.463  0.0069 -2.5513 -0.5365
  304MOL0     H41007   6.334   3.473   0.415 -0.4583 -3.1179 -2.4120
  304MOL0     H41008   6.399   3.695   0.371  0.3947 -1.1295  1.5487
  304MOL0     H41009   6.298   3.691   0.228 -1.1158  0.2090  0.3256
  304MOL0     H41010   6.213   3.782   0.492  0.5440 -2.2838 -0.1196
  304MOL0     H41011   6.102   3.758   0.358  0.7962 -0.0238 -1.7557
  304MOL0     H41012   6.286   3.913   0.213 -1.9482 -0.1887 -0.5369
  304MOL0     H41013   6.173   3.996   0.326 -0.8086 -0.2447 -2.1435
  304MOL0     H41014   6.462   3.923   0.370 -1.1054 -0.8715 -2.7102
  304MOL0     H41015   6.347   3.981   0.500 -0.9870  0.5844 -0.1417
  304MOL0     H41016   6.429   4.133   0.256  1.3992 -1.1875  0.1290
  304MOL0     H41017   6.300   4.183   0.361 -0.8196  0.6998 -1.2357
  304MOL0     H41018   6.491   4.156   0.555 -1.4466 -0.4644 -0.2902
  304MOL0     H41019   6.480   4.302   0.457  3.6949  1.0263 -0.6918
  304MOL0     H41020   6.658   4.084   0.382 -1.0799  0.1062 -2.3183
  304MOL0     H41021   6.710   4.212   0.493  0.4721 -1.3469 -0.9092
  304MOL0     H41022   6.453   3.426   0.194  0.1978  0.9836 -0.0742
  304MOL0     H41023   6.565   3.220   0.145 -0.4823 -0.0161 -2.2874
  304MOL0     H41024   6.388   2.750   0.093  0.3719  1.8618 -1.9622
  304MOL0     H41025   6.439   2.514   0.003  1.9092 -0.9278 -1.3341
  304MOL0     H41026   6.372   2.342  -0.118 -1.1956  0.0605  1.2143
  304MOL0     H41027   6.481   2.178  -0.247  3.4726 -4.1360 -0.0698
  304MOL0     H41028   6.675   1.862  -0.369  1.0887  1.0046  0.1100
  304MOL0     H41029   6.859   1.743  -0.508  1.6336 -2.1847  0.4075
  304MOL0     H41030   7.149   1.539  -0.238 -0.6719  0.4461 -0.0028
  304MOL0     H41031   7.222   1.509  -0.399  0.2992 -1.3986  0.3847
  304MOL0     H41032   7.367   1.621  -0.222 -1.9838 -1.9093 -0.0785
  304MOL0     H41033   7.267   1.763  -0.243  2.7911  2.3576 -2.2377
  304MOL0     H41034   7.330   1.779  -0.495 -0.2927  2.4619  0.7503
  304MOL0     H41035   7.420   1.634  -0.470 -1.6551  0.7401 -2.4021
  304MOL0     H41036   7.596   1.805  -0.436  0.9538 -0.5734  2.4403
  304MOL0     H41037   7.548   1.770  -0.283 -2.1800  0.4100  0.9436
  304MOL0     H41038   7.388   2.156  -0.370 -1.3339 -0.8761 -1.1356
  304MOL0     H41039   7.095   1.730  -0.137  0.6290 -0.0815 -2.5340
  304MOL0     H41040   6.902   1.817  -0.007  0.9326  1.0901 -0.3674
  305MOL0     O41041   5.551   7.493  11.396 -0.1945 -0.3555  0.3578
  305MOL0     C41042   5.547   7.421  11.495 -0.3926 -0.2948 -0.0609
  305MOL0     O41043   5.441   7.425  11.585 -0.5907  1.0430  0.3148
  305MOL0     C41044   5.340   7.525  11.559 -0.5643 -0.0297  0.9785
  305MOL0     C41045   5.266   7.527  11.436  1.2699 -0.3774  0.4312
  305MOL0     C41046   5.183   7.634  11.407 -0.6592 -0.5670 -0.7247
  305MOL0     C41047   5.155   7.729  11.501 -1.0142 -0.0055  0.2860
  305MOL0     O41048   5.080   7.842  11.480 -0.0968  0.6430  0.6162
  305MOL0     C41049   4.973   7.839  11.384 -0.6916 -0.4770  0.2325
  305MOL0     C41050   4.876   7.967  11.391 -0.6576  0.4701  0.1133
  305MOL0     C41051   4.785   7.948  11.513  1.1318 -0.5710  0.2247
  305MOL0     C41052   4.714   8.073  11.568  0.0348  0.0686  0.2252
  305MOL0     C41053   4.619   8.031  11.694 -0.0510  0.0341 -0.8309
  305MOL0     C41054   4.695   8.070  11.823  0.3007 -0.0701 -0.4567
  305MOL0     C41055   4.604   8.075  11.946  0.1076  1.3104  0.6964
  305MOL0     C41056   4.521   7.954  11.976  0.1124 -0.4026 -0.1274
  305MOL0     N41057   4.558   7.892  12.100  0.3590 -0.1376 -0.1992
  305MOL0     C41058   4.687   7.866  12.144  1.0230 -1.0861  0.0052
  305MOL0     C41059   4.663   7.815  12.276 -0.4632 -0.6228  0.3723
  305MOL0     C41060   4.762   7.755  12.373 -0.1309  0.8978  0.1859
  305MOL0     C41061   4.755   7.599  12.359 -1.4293  0.4083  0.1466
  305MOL0     C41062   4.834   7.539  12.236  0.1200 -0.6552  0.0597
  305MOL0     C41063   4.960   7.457  12.288  0.1819  0.1778  0.2416
  305MOL0     O41064   5.062   7.547  12.339 -0.0336 -0.0352  0.0520
  305MOL0     C41065   5.173   7.495  12.397 -0.5441 -1.0399 -0.5624
  305MOL0     C41066   5.257   7.585  12.461 -1.0916  0.0978 -0.0093
  305MOL0     C41067   5.379   7.550  12.515 -0.5897  0.4097  1.2552
  305MOL0     C41068   5.467   7.660  12.568  0.2797  0.6008  0.2567
  305MOL0     C41069   5.421   7.418  12.511 -0.8265 -0.3274  0.4212
  305MOL0     C41070   5.547   7.363  12.572  0.4100  1.0017 -0.5265
  305MOL0     O41071   5.590   7.233  12.550  0.3734 -0.4421 -0.2236
  305MOL0     C41072   5.708   7.185  12.587  0.4982  0.3642  0.1630
  305MOL0     C41073   5.704   7.052  12.633  0.1853  0.4809  0.7691
  305MOL0     C41074   5.815   6.987  12.684 -0.4109 -0.9457  0.0965
  305MOL0     C41075   5.941   7.052  12.686  0.1001 -0.0341  0.4592
  305MOL0     O41076   6.053   6.972  12.726 -0.6332 -0.2050  0.2578
  305MOL0     C41077   6.170   6.969  12.639  0.1946 -0.1608  0.4608
  305MOL0     C41078   6.265   6.860  12.676  0.2181  0.0943  0.7276
  305MOL0     C41079   6.291   6.857  12.831  0.0564 -0.5600  0.3083
  305MOL0     C41080   6.362   6.736  12.889 -0.1972  0.5211  0.2425
  305MOL0     C41081   6.394   6.768  13.037 -0.0361  1.1528 -0.2378
  305MOL0     C41082   6.484   6.660  13.090 -0.2917  0.1175 -0.4623
  305MOL0     C41083   6.620   6.646  13.028 -0.2846  0.2554  0.1887
  305MOL0     C41084   6.695   6.777  13.017  0.5918  0.1583  0.0865
  305MOL0    Cl41085   6.863   6.742  12.964  0.2061 -0.0770  0.2348
  305MOL0     C41086   5.951   7.182  12.626 -0.1480 -0.0818 -0.8516
  305MOL0     C41087   5.829   7.256  12.584 -0.2145  0.4139 -0.0215
  305MOL0     O41088   5.611   7.436  12.647  0.0416 -0.7745  0.1383
  305MOL0     C41089   5.331   7.323  12.456  0.2257  0.2331  0.2412
  305MOL0     C41090   5.214   7.360  12.397  0.4267  0.0353 -0.2095
  305MOL0     N41091   4.529   7.821  12.307 -0.0470 -0.2437 -0.8500
  305MOL0     N41092   4.467   7.860  12.199 -0.7564  0.0883 -0.4362
  305MOL0     C41093   5.225   7.726  11.619  1.0471 -0.0776  0.2158
  305MOL0     C41094   5.316   7.624  11.649  0.1288 -1.0352  0.1992
  305MOL0     C41095   5.668   7.343  11.530 -0.5482 -0.1219  0.7834
  305MOL0     C41096   5.652   7.235  11.620 -0.0137  0.5107 -0.6597
  305MOL0     C41097   5.768   7.174  11.672  0.5514  0.4849  0.2545
  305MOL0     C41098   5.892   7.198  11.620 -0.3263 -0.1566  0.3820
  305MOL0     O41099   6.011   7.137  11.656  0.3788  0.0631 -0.4550
  305MOL0     C41100   6.033   7.162  11.794  0.2877 -0.5230  1.7146
  305MOL0     C41101   6.170   7.121  11.833 -0.0069 -0.0835 -0.8285
  305MOL0     C41102   6.272   7.197  11.737 -0.6120  0.1853 -0.6699
  305MOL0     C41103   6.409   7.166  11.793  0.2774  0.1586 -0.7277
  305MOL0     C41104   6.445   7.025  11.765  0.2520 -0.0703 -0.0491
  305MOL0     C41105   6.475   6.910  11.732 -0.3488  0.5430  0.0138
  305MOL0     C41106   5.904   7.288  11.509  0.1343 -0.0719  0.0485
  305MOL0     C41107   5.789   7.366  11.471 -0.1090 -0.1329  0.3039
  305MOL0     H41108   5.304   7.449  11.371  6.0860  0.8680  1.4021
  305MOL0     H41109   5.130   7.633  11.313 -0.7296 -1.3175 -0.6838
  305MOL0     H41110   5.006   7.821  11.282  0.3936 -1.7477  0.7819
  305MOL0     H41111   4.913   7.751  11.409 -0.9687 -1.2333 -2.6928
  305MOL0     H41112   4.934   8.059  11.394  0.0854  0.2013 -2.7513
  305MOL0     H41113   4.817   7.965  11.299 -1.7283 -0.9528  0.7968
  305MOL0     H41114   4.713   7.869  11.490  0.8667 -0.7079  1.4918
  305MOL0     H41115   4.842   7.896  11.590 -0.0880 -0.8290  0.9695
  305MOL0     H41116   4.783   8.153  11.599 -0.2666  0.1159  0.7841
  305MOL0     H41117   4.647   8.116  11.493 -0.4643  1.5591  1.4557
  305MOL0     H41118   4.531   8.093  11.677  0.7505  1.2573 -0.6457
  305MOL0     H41119   4.581   7.929  11.690 -2.3648  0.8200 -0.3676
  305MOL0     H41120   4.775   8.001  11.852  1.8069  1.4485 -0.8661
  305MOL0     H41121   4.744   8.166  11.807 -0.8616  0.3893 -1.3966
  305MOL0     H41122   4.661   8.101  12.036  1.0532  0.6710  0.3000
  305MOL0     H41123   4.540   8.163  11.933  2.9875  3.9808  3.0211
  305MOL0     H41124   4.538   7.885  11.894 -0.7893  1.2148 -1.7442
  305MOL0     H41125   4.418   7.990  11.988 -0.0702 -1.2875  1.1625
  305MOL0     H41126   4.771   7.861  12.076  0.9125  0.0757 -0.2400
  305MOL0     H41127   4.867   7.785  12.366  0.1631 -0.4283 -1.9957
  305MOL0     H41128   4.736   7.773  12.477  0.8140 -4.5618  1.6885
  305MOL0     H41129   4.651   7.568  12.352 -1.6401  1.3917 -2.2651
  305MOL0     H41130   4.800   7.558  12.449 -0.9715  0.3060 -0.1235
  305MOL0     H41131   4.862   7.614  12.161 -1.2659 -1.4782 -1.3507
  305MOL0     H41132   4.770   7.470  12.180 -1.7430  2.2013 -1.5836
  305MOL0     H41133   5.002   7.398  12.205  2.3542  1.0851  0.6216
  305MOL0     H41134   4.920   7.388  12.363  0.4104  0.2302  0.4101
  305MOL0     H41135   5.231   7.690  12.477 -0.0745  0.1536  1.4555
  305MOL0     H41136   5.424   7.754  12.532 -0.7162 -0.1927 -0.7175
  305MOL0     H41137   5.457   7.671  12.676 -2.7990 -1.7324  0.3791
  305MOL0     H41138   5.573   7.650  12.544  0.4004  0.8458  0.6941
  305MOL0     H41139   5.609   7.000  12.640  0.5887 -0.1694  1.6643
  305MOL0     H41140   5.798   6.887  12.723  1.1312 -0.6539  1.6132
  305MOL0     H41141   6.135   6.957  12.537 -2.7360  1.1868  1.1996
  305MOL0     H41142   6.221   7.065  12.648 -0.4920  0.4395 -1.6079
  305MOL0     H41143   6.236   6.769  12.623  0.1781  1.5242 -1.8234
  305MOL0     H41144   6.362   6.873  12.629  0.1095 -0.3180  0.3917
  305MOL0     H41145   6.192   6.868  12.876 -0.9282 -1.7437 -1.4545
  305MOL0     H41146   6.348   6.948  12.853 -0.6053 -0.3239  1.0980
  305MOL0     H41147   6.293   6.654  12.868 -0.4177  0.4991  0.9976
  305MOL0     H41148   6.449   6.726  12.823 -0.1154 -0.0120  0.4205
  305MOL0     H41149   6.299   6.765  13.091 -0.0458 -2.4463 -0.2212
  305MOL0     H41150   6.425   6.872  13.051 -0.1523  0.9053  2.4190
  305MOL0     H41151   6.485   6.682  13.198  0.8817  2.3113 -0.8487
  305MOL0     H41152   6.431   6.565  13.085 -0.3097  0.0571  0.5147
  305MOL0     H41153   6.618   6.604  12.927 -0.1420  0.1698  0.2212
  305MOL0     H41154   6.684   6.575  13.083 -1.1361 -2.1093 -1.6886
  305MOL0     H41155   6.704   6.831  13.112  2.6954 -3.5166  2.2261
  305MOL0     H41156   6.639   6.850  12.958  1.7304  0.8332 -0.1922
  305MOL0     H41157   6.048   7.230  12.616  0.2952 -0.5563  0.8574
  305MOL0     H41158   5.825   7.350  12.530 -2.1042 -0.9093 -2.3576
  305MOL0     H41159   5.360   7.219  12.461  1.3629  0.5196 -0.1057
  305MOL0     H41160   5.164   7.281  12.342  0.8525 -0.7474  0.5148
  305MOL0     H41161   5.210   7.811  11.685 -3.0228 -0.1470 -0.3869
  305MOL0     H41162   5.361   7.611  11.748  1.8719  1.9287 -0.0954
  305MOL0     H41163   5.550   7.204  11.644  0.1629 -0.2859 -0.8884
  305MOL0     H41164   5.763   7.088  11.737  1.1010 -0.0752 -0.4367
  305MOL0     H41165   6.011   7.268  11.813 -1.9215 -0.7600  0.8421
  305MOL0     H41166   5.955   7.102  11.841 -0.3813  0.7902  2.3264
  305MOL0     H41167   6.188   7.014  11.821  0.8481  0.1370 -1.6206
  305MOL0     H41168   6.185   7.151  11.937  1.3661 -0.8349 -0.7874
  305MOL0     H41169   6.246   7.303  11.732 -0.6875  0.1865 -0.2655
  305MOL0     H41170   6.249   7.153  11.640 -3.7191  0.1538 -0.0226
  305MOL0     H41171   6.419   7.178  11.901  0.3210 -1.2657 -0.5524
  305MOL0     H41172   6.481   7.225  11.735 -2.0159 -0.7501 -4.8777
  305MOL0     H41173   6.495   6.807  11.714 -1.7982 -0.9796  5.3732
  305MOL0     H41174   5.998   7.305  11.459  0.3145  1.8037  0.9293
  305MOL0     H41175   5.807   7.451  11.406 -0.5701 -0.1615  0.1385
  306MOL0     O41176   1.673   3.641   1.656 -0.1529  0.0432 -0.5063
  306MOL0     C41177   1.767   3.588   1.719  0.7971  0.6846 -0.3643
  306MOL0     O41178   1.900   3.642   1.750  0.0795 -0.7226 -0.3935
  306MOL0     C41179   1.912   3.773   1.708 -0.7102  0.2699  0.3017
  306MOL0     C41180   1.824   3.872   1.761 -0.1878  0.5188  0.7872
  306MOL0     C41181   1.844   4.007   1.725 -0.8101  0.3360 -1.4162
  306MOL0     C41182   1.937   4.057   1.635 -0.4959  0.0006 -0.4083
  306MOL0     O41183   1.944   4.191   1.613  0.5643  0.5351 -0.1639
  306MOL0     C41184   2.037   4.241   1.514  0.5562 -0.6591  0.2228
  306MOL0     C41185   2.004   4.390   1.485 -0.2547  0.5480  0.2646
  306MOL0     C41186   1.858   4.407   1.456  0.4945 -0.7198  0.1207
  306MOL0     C41187   1.826   4.550   1.389  0.1651 -0.5874  0.3497
  306MOL0     C41188   1.681   4.596   1.381  0.5329 -0.1428  0.8315
  306MOL0     C41189   1.616   4.626   1.520 -0.6506  0.6906 -0.4751
  306MOL0     C41190   1.464   4.640   1.515  0.3496 -0.3349  0.4141
  306MOL0     C41191   1.419   4.726   1.397  0.3388  0.8698  0.1525
  306MOL0     N41192   1.473   4.864   1.410 -0.3156  0.0677 -0.2049
  306MOL0     C41193   1.501   4.936   1.523  0.0904  1.0613  0.0467
  306MOL0     C41194   1.556   5.054   1.479  0.6064 -0.1189 -0.0372
  306MOL0     C41195   1.581   5.153   1.595 -0.2475  0.5395  0.9312
  306MOL0     C41196   1.692   5.245   1.544 -0.0876  0.2953 -0.2798
  306MOL0     C41197   1.716   5.372   1.623  0.1740  0.5376 -0.0057
  306MOL0     C41198   1.593   5.464   1.618  0.6907  0.1847 -0.1522
  306MOL0     O41199   1.645   5.591   1.662 -0.5514  0.3735 -0.1850
  306MOL0     C41200   1.706   5.677   1.568  0.1121  0.3109  0.5954
  306MOL0     C41201   1.770   5.800   1.613  0.5477  0.6970  0.1660
  306MOL0     C41202   1.841   5.886   1.523 -0.4911 -0.2027  0.3596
  306MOL0     C41203   1.918   6.004   1.575 -0.4106 -0.5017  0.5979
  306MOL0     C41204   1.846   5.854   1.387 -0.3408 -0.1625  0.1912
  306MOL0     C41205   1.908   5.937   1.272 -0.3831 -0.3209 -0.5354
  306MOL0     O41206   1.905   5.871   1.155  0.5747  0.7087  0.4426
  306MOL0     C41207   1.961   5.932   1.048 -0.4879  0.3928 -0.0179
  306MOL0     C41208   2.094   5.904   1.024 -0.0858  0.7638  0.2157
  306MOL0     C41209   2.163   5.972   0.923  0.8807 -0.0142 -0.2174
  306MOL0     C41210   2.096   6.067   0.842  0.8966 -0.4318  0.3450
  306MOL0     O41211   2.157   6.138   0.744  0.9759  0.4406  0.8001
  306MOL0     C41212   2.287   6.178   0.788  0.0182 -0.3180 -0.3741
  306MOL0     C41213   2.340   6.266   0.676  0.2249 -0.4727 -0.0592
  306MOL0     C41214   2.279   6.418   0.696 -0.1518  0.1644  0.4074
  306MOL0     C41215   2.367   6.527   0.648  0.2916  0.4131  0.3793
  306MOL0     C41216   2.329   6.674   0.692 -0.2086 -0.3890  0.2296
  306MOL0     C41217   2.402   6.767   0.601 -0.7811  0.2057 -0.7203
  306MOL0     C41218   2.379   6.909   0.644  1.2892 -0.0307  0.0173
  306MOL0     C41219   2.421   7.003   0.531 -0.0119 -0.0034  1.2604
  306MOL0    Cl41220   2.353   7.165   0.571  0.1792  0.3440 -0.0034
  306MOL0     C41221   1.956   6.077   0.854 -0.2529  1.0163  0.7877
  306MOL0     C41222   1.889   6.015   0.957 -0.6928  0.7103 -0.6328
  306MOL0     O41223   1.935   6.053   1.293  0.7396 -0.7872  0.0067
  306MOL0     C41224   1.789   5.734   1.344  0.3823  0.6025 -0.3653
  306MOL0     C41225   1.724   5.649   1.433 -0.5829 -0.0753  0.3375
  306MOL0     N41226   1.556   5.058   1.344  0.1765  0.3790 -0.0554
  306MOL0     N41227   1.508   4.942   1.298 -0.4501 -0.2619 -0.5104
  306MOL0     C41228   2.022   3.959   1.573  0.8120 -0.7061 -0.0788
  306MOL0     C41229   2.013   3.812   1.608  0.1684 -0.4417 -0.3152
  306MOL0     C41230   1.729   3.456   1.769  0.1251  0.2735  0.2642
  306MOL0     C41231   1.597   3.425   1.801 -0.6102 -0.0886  0.1135
  306MOL0     C41232   1.558   3.298   1.845 -0.0281 -0.4329  0.3467
  306MOL0     C41233   1.660   3.197   1.851  0.1693 -0.0295  0.5761
  306MOL0     O41234   1.637   3.065   1.895  0.8206 -0.5808 -0.1203
  306MOL0     C41235   1.519   3.045   1.988 -0.3011  0.5005 -0.2593
  306MOL0     C41236   1.520   3.125   2.124  0.2031 -0.0115  0.3432
  306MOL0     C41237   1.418   3.082   2.226  0.7903  0.3466  0.0520
  306MOL0     C41238   1.272   3.070   2.178 -0.5442 -0.0290 -0.5191
  306MOL0     C41239   1.233   3.182   2.099 -0.2563 -0.0411 -0.5275
  306MOL0     C41240   1.202   3.271   2.023  0.2216  0.3147 -0.1088
  306MOL0     C41241   1.788   3.226   1.803 -0.2198 -1.1205  0.0599
  306MOL0     C41242   1.827   3.356   1.762 -0.0077  0.3292 -0.7996
  306MOL0     H41243   1.743   3.850   1.830  1.8698 -1.2277  2.7750
  306MOL0     H41244   1.784   4.084   1.773  0.0977  0.8470 -1.0765
  306MOL0     H41245   2.140   4.238   1.551  1.5629  1.3460 -2.1321
  306MOL0     H41246   2.041   4.182   1.422  1.6343  0.7808 -0.6782
  306MOL0     H41247   2.033   4.438   1.579 -0.2299  0.9689  0.0470
  306MOL0     H41248   2.058   4.435   1.402 -3.1195  0.0032 -2.0488
  306MOL0     H41249   1.828   4.332   1.384 -1.0303 -0.4476  0.4370
  306MOL0     H41250   1.799   4.396   1.548  0.4395  0.3580  0.2382
  306MOL0     H41251   1.867   4.632   1.449 -1.4438 -0.4036  1.2538
  306MOL0     H41252   1.873   4.547   1.290  2.7717 -0.7771  1.4997
  306MOL0     H41253   1.686   4.691   1.327  0.5584 -0.6420 -0.0674
  306MOL0     H41254   1.627   4.534   1.309  1.9544  0.4598 -0.8011
  306MOL0     H41255   1.635   4.531   1.570 -0.3163  0.4210 -1.1151
  306MOL0     H41256   1.667   4.717   1.555 -0.0566  0.2509 -0.1817
  306MOL0     H41257   1.415   4.542   1.515  0.0270 -0.1924  1.8636
  306MOL0     H41258   1.431   4.680   1.611  1.5113 -1.6311  1.4101
  306MOL0     H41259   1.310   4.722   1.403  0.4095 -1.1102  0.9687
  306MOL0     H41260   1.440   4.684   1.298 -0.4934  1.7186 -0.4062
  306MOL0     H41261   1.498   4.904   1.627  1.5352 -0.5586 -0.3757
  306MOL0     H41262   1.496   5.212   1.629 -1.1455 -2.2912  4.0915
  306MOL0     H41263   1.616   5.102   1.685  1.1242  0.2053  0.2315
  306MOL0     H41264   1.677   5.266   1.437 -2.7436  0.1591  0.0058
  306MOL0     H41265   1.783   5.184   1.550  0.0432  0.6339  2.7732
  306MOL0     H41266   1.795   5.429   1.573 -2.0235  2.9174 -1.0156
  306MOL0     H41267   1.743   5.353   1.727  0.5575  1.8922  0.1508
  306MOL0     H41268   1.528   5.441   1.703 -1.6969  0.8479 -1.6997
  306MOL0     H41269   1.548   5.466   1.518  1.3426  1.9459 -0.4493
  306MOL0     H41270   1.773   5.821   1.719  2.7060  1.3445  0.0252
  306MOL0     H41271   1.878   6.103   1.550  1.7935  0.5667  1.0454
  306MOL0     H41272   1.920   5.996   1.684 -0.6996  0.0071  0.6399
  306MOL0     H41273   2.021   5.994   1.539  0.1270  0.5757  1.7825
  306MOL0     H41274   2.147   5.839   1.092 -2.5418 -2.5535 -0.7825
  306MOL0     H41275   2.271   5.957   0.922  1.1571  1.6834 -1.7866
  306MOL0     H41276   2.275   6.231   0.883 -0.3777  1.6398 -1.4438
  306MOL0     H41277   2.355   6.092   0.784  1.5275  0.5405  3.1117
  306MOL0     H41278   2.448   6.275   0.686  0.4454 -0.5824 -1.9998
  306MOL0     H41279   2.322   6.241   0.571 -1.4284  0.3017  0.0018
  306MOL0     H41280   2.268   6.428   0.804 -1.2548  0.0552  0.3086
  306MOL0     H41281   2.180   6.409   0.650  0.7074  1.0392 -1.7525
  306MOL0     H41282   2.471   6.498   0.668  0.3517  0.3965  0.0504
  306MOL0     H41283   2.360   6.513   0.539 -2.1412 -1.7653  0.7225
  306MOL0     H41284   2.380   6.688   0.788  0.3262 -1.6529  0.1546
  306MOL0     H41285   2.221   6.691   0.698 -0.1924 -0.3092  0.2990
  306MOL0     H41286   2.508   6.742   0.588 -1.1069 -0.6579 -2.0350
  306MOL0     H41287   2.353   6.760   0.503  1.5122  1.9706 -2.1031
  306MOL0     H41288   2.442   6.937   0.729 -0.4573 -3.2560  2.5974
  306MOL0     H41289   2.273   6.916   0.674 -0.5438  1.6447 -5.5791
  306MOL0     H41290   2.385   6.977   0.431 -2.3792 -1.3570  2.3762
  306MOL0     H41291   2.530   7.001   0.533  0.1046 -0.3239 -1.2973
  306MOL0     H41292   1.909   6.149   0.788 -1.0598 -1.2786 -1.2980
  306MOL0     H41293   1.781   6.024   0.958 -0.5652  2.9171 -1.1034
  306MOL0     H41294   1.801   5.686   1.247 -2.0936 -0.5746 -0.1743
  306MOL0     H41295   1.696   5.554   1.389  1.4121 -1.9096  2.7921
  306MOL0     H41296   2.091   3.991   1.496 -0.8250  1.7842 -0.6324
  306MOL0     H41297   2.059   3.733   1.548  1.2926  0.1312 -0.2238
  306MOL0     H41298   1.523   3.504   1.814  1.3765  1.8399  0.2147
  306MOL0     H41299   1.456   3.284   1.881 -0.5019 -1.8568 -1.4301
  306MOL0     H41300   1.428   3.068   1.932 -2.0912 -2.4436  1.2057
  306MOL0     H41301   1.497   2.941   2.013  0.2341  0.1332 -1.2408
  306MOL0     H41302   1.512   3.233   2.105 -2.2214 -0.3449 -0.8507
  306MOL0     H41303   1.612   3.113   2.183  0.7527  0.2947 -0.4414
  306MOL0     H41304   1.423   3.164   2.298  3.6260  0.8311 -0.5616
  306MOL0     H41305   1.440   2.993   2.285 -1.1495  0.3129  0.8009
  306MOL0     H41306   1.198   3.048   2.255  1.0158  0.9393  1.3312
  306MOL0     H41307   1.275   2.993   2.100 -0.3306 -0.1344 -0.4070
  306MOL0     H41308   1.180   3.360   1.968  0.1890  0.6629  0.4576
  306MOL0     H41309   1.856   3.141   1.800 -1.6705 -2.3081 -1.1876
  306MOL0     H41310   1.923   3.384   1.720  0.2876 -0.2383 -0.5162
  307MOL0     O41311   9.104   6.394   2.619 -0.2257  0.4003  0.1823
  307MOL0     C41312   9.224   6.384   2.579  0.6143  1.0455  0.8510
  307MOL0     O41313   9.317   6.482   2.565  0.3347 -0.9352  0.0172
  307MOL0     C41314   9.307   6.611   2.621  0.1600  0.0869  0.2243
  307MOL0     C41315   9.277   6.630   2.758 -0.4342 -0.3076 -0.0934
  307MOL0     C41316   9.287   6.759   2.818  0.5675 -0.2550 -0.1953
  307MOL0     C41317   9.326   6.870   2.746  1.1011 -0.1751 -0.6592
  307MOL0     O41318   9.343   7.000   2.790 -0.2322  0.5022  0.2624
  307MOL0     C41319   9.282   7.023   2.921  0.3051  0.1880 -0.5969
  307MOL0     C41320   9.294   7.171   2.955  0.1592 -0.4618  0.1501
  307MOL0     C41321   9.221   7.259   2.857 -0.3297 -0.3664  1.0864
  307MOL0     C41322   9.248   7.400   2.887 -0.4794 -0.7999 -0.3509
  307MOL0     C41323   9.217   7.499   2.776 -0.3559  0.0493  0.7043
  307MOL0     C41324   9.068   7.527   2.753  0.4516  0.0475  0.3320
  307MOL0     C41325   9.035   7.562   2.611  0.2138 -1.2412  0.2194
  307MOL0     C41326   8.888   7.571   2.587 -0.4938  0.0664  0.3882
  307MOL0     N41327   8.854   7.637   2.462 -0.8240  0.1713  0.3102
  307MOL0     C41328   8.924   7.640   2.343 -0.2257  0.8226 -0.2539
  307MOL0     C41329   8.874   7.730   2.264 -0.1981 -0.1432  0.1484
  307MOL0     C41330   8.915   7.781   2.134  0.2781 -0.4090 -0.4460
  307MOL0     C41331   8.985   7.905   2.144  0.9911  0.0911  0.5452
  307MOL0     C41332   8.999   7.968   2.006 -0.3124 -0.2242  0.8930
  307MOL0     C41333   9.102   8.082   2.022 -0.4011 -0.7876  0.8862
  307MOL0     O41334   9.100   8.157   1.902 -0.3257 -0.1332 -0.4732
  307MOL0     C41335   9.176   8.275   1.900  0.6705 -0.3579  0.2850
  307MOL0     C41336   9.312   8.264   1.913  0.0369  0.2406 -0.2610
  307MOL0     C41337   9.389   8.376   1.910  0.2636 -0.2793  0.2473
  307MOL0     C41338   9.533   8.369   1.937  0.1953 -0.2684 -0.7363
  307MOL0     C41339   9.326   8.502   1.886  0.0981 -0.3052 -1.0031
  307MOL0     C41340   9.396   8.630   1.870  0.2524  0.2751 -1.9945
  307MOL0     O41341   9.368   8.712   1.768 -0.3443 -0.4467 -0.3078
  307MOL0     C41342   9.442   8.831   1.770  0.7495 -0.0310  0.5534
  307MOL0     C41343   9.581   8.838   1.782 -0.4508  0.8588  0.5549
  307MOL0     C41344   9.653   8.954   1.782 -0.5370 -0.5401 -0.0711
  307MOL0     C41345   9.586   9.074   1.755  0.2598  0.4709  0.6663
  307MOL0     O41346   9.646   9.193   1.765  0.4072 -0.2096  0.3844
  307MOL0     C41347   9.793   9.209   1.737  0.4681 -0.0242 -0.1501
  307MOL0     C41348   9.827   9.350   1.796 -0.1632 -0.4337  0.1628
  307MOL0     C41349   9.983   9.367   1.786  0.0562 -0.6595  0.0955
  307MOL0     C41350  10.041   9.358   1.934  0.2847  0.2654  0.0271
  307MOL0     C41351  10.197   9.358   1.944 -1.2881  0.3961  0.0060
  307MOL0     C41352  10.247   9.493   1.888 -0.2113 -0.5098  0.0653
  307MOL0     C41353  10.399   9.511   1.921  0.0704 -0.4431  1.5421
  307MOL0     C41354  10.416   9.606   2.039  0.2120  0.4968  0.6115
  307MOL0    Cl41355  10.377   9.775   2.011 -0.3738  0.2516 -0.4020
  307MOL0     C41356   9.453   9.065   1.725  0.4351 -0.1992 -0.1650
  307MOL0     C41357   9.380   8.950   1.726  0.6128 -0.1410 -0.8381
  307MOL0     O41358   9.471   8.656   1.967 -0.3908 -0.7620 -0.3615
  307MOL0     C41359   9.193   8.509   1.859  0.3359 -0.5749 -0.1386
  307MOL0     C41360   9.115   8.394   1.878 -0.5606 -0.7272 -0.9988
  307MOL0     N41361   8.765   7.779   2.336 -0.3772  0.0221  0.6618
  307MOL0     N41362   8.751   7.724   2.456 -0.2889 -0.4628 -0.0678
  307MOL0     C41363   9.374   6.853   2.619 -0.2217 -0.0513  0.0350
  307MOL0     C41364   9.370   6.721   2.555  0.2097  0.1222 -0.0624
  307MOL0     C41365   9.255   6.249   2.541 -0.9386 -0.3356  1.0721
  307MOL0     C41366   9.235   6.157   2.636  0.2283 -0.0999 -0.2627
  307MOL0     C41367   9.261   6.022   2.604  0.3293 -0.1880 -0.1221
  307MOL0     C41368   9.316   5.985   2.484  0.3786 -1.4999  0.3596
  307MOL0     O41369   9.328   5.863   2.436 -0.7209 -0.0872 -0.0851
  307MOL0     C41370   9.377   5.757   2.516  0.7312  0.5278  0.7635
  307MOL0     C41371   9.257   5.670   2.569 -0.8528  0.2343  0.1558
  307MOL0     C41372   9.179   5.593   2.460 -0.2220  0.0591  0.8033
  307MOL0     C41373   9.087   5.492   2.524 -0.0033 -0.5308 -0.1233
  307MOL0     C41374   9.001   5.413   2.441 -0.0829 -0.0224  0.4417
  307MOL0     C41375   8.932   5.343   2.364 -0.0845 -0.3768 -0.8492
  307MOL0     C41376   9.337   6.089   2.384  0.8125 -0.2168  0.0742
  307MOL0     C41377   9.308   6.219   2.416  0.1579 -0.5905  1.0869
  307MOL0     H41378   9.256   6.538   2.811 -1.4281 -1.7231 -2.7573
  307MOL0     H41379   9.262   6.765   2.923  1.3750  0.5772 -0.0384
  307MOL0     H41380   9.173   7.011   2.924  0.2147  0.2552 -2.6011
  307MOL0     H41381   9.334   6.966   2.999  0.5340  1.5256  0.2619
  307MOL0     H41382   9.249   7.182   3.054  0.6292 -1.9489  0.5506
  307MOL0     H41383   9.400   7.189   2.974  0.1507 -0.5119  0.2491
  307MOL0     H41384   9.246   7.232   2.754  0.1560 -1.3090  1.4375
  307MOL0     H41385   9.113   7.243   2.861 -0.5871  0.8609 -0.1420
  307MOL0     H41386   9.204   7.431   2.983  1.1873 -0.1345  0.2473
  307MOL0     H41387   9.355   7.411   2.906 -0.4167  1.0741 -1.5551
  307MOL0     H41388   9.261   7.595   2.804 -1.2182  0.9105 -0.7505
  307MOL0     H41389   9.270   7.451   2.693 -0.0048 -0.8570  1.4336
  307MOL0     H41390   9.020   7.436   2.790  1.9643 -1.0169 -0.2432
  307MOL0     H41391   9.048   7.617   2.812  2.2065 -0.9564  2.6209
  307MOL0     H41392   9.076   7.663   2.599  0.4927 -0.9045  3.2853
  307MOL0     H41393   9.079   7.491   2.541 -0.1939 -1.6168  0.3427
  307MOL0     H41394   8.847   7.633   2.667 -1.9525  0.9746 -0.9911
  307MOL0     H41395   8.832   7.478   2.595 -1.4186  0.6313  0.6993
  307MOL0     H41396   9.010   7.578   2.322  1.3378  3.1751 -1.2460
  307MOL0     H41397   8.972   7.700   2.089  1.0197 -0.8379  1.1732
  307MOL0     H41398   8.819   7.791   2.082  0.7562  6.3149 -0.8291
  307MOL0     H41399   9.082   7.887   2.192  1.2035 -0.8268 -0.1931
  307MOL0     H41400   8.941   7.983   2.208 -1.4456 -0.8639  0.1304
  307MOL0     H41401   8.904   8.015   1.982 -0.0508  0.0414  0.3595
  307MOL0     H41402   9.031   7.905   1.922  0.8920  3.4261 -1.6214
  307MOL0     H41403   9.201   8.038   2.038 -0.2413 -0.4934  0.7212
  307MOL0     H41404   9.063   8.139   2.106 -1.2647 -0.7944  0.5048
  307MOL0     H41405   9.357   8.167   1.928  1.0849  0.4653 -1.6870
  307MOL0     H41406   9.558   8.264   1.956  0.2555  0.1093  1.6434
  307MOL0     H41407   9.604   8.401   1.860  2.3174 -1.3116  0.6737
  307MOL0     H41408   9.552   8.435   2.022  0.3462  3.1600 -3.2537
  307MOL0     H41409   9.631   8.748   1.817 -1.6296 -0.1972 -0.3688
  307MOL0     H41410   9.759   8.947   1.806 -0.8557  1.2331  2.2905
  307MOL0     H41411   9.839   9.141   1.810 -1.3089 -1.0965  0.0388
  307MOL0     H41412   9.820   9.187   1.633 -0.6237 -0.6589 -0.3158
  307MOL0     H41413   9.777   9.429   1.738  1.3285 -0.8778 -1.8525
  307MOL0     H41414   9.797   9.343   1.901  2.3357 -2.5828  0.8380
  307MOL0     H41415  10.007   9.468   1.753 -0.9080  0.3958  2.4340
  307MOL0     H41416  10.029   9.292   1.721 -4.6481 -3.4907 -0.5033
  307MOL0     H41417  10.023   9.447   1.994  0.7337  0.5114 -0.1988
  307MOL0     H41418   9.999   9.276   1.993 -0.5101  0.8885  0.3464
  307MOL0     H41419  10.251   9.274   1.899  0.3676  0.8411  1.0771
  307MOL0     H41420  10.224   9.346   2.049 -2.5121 -0.7752  0.2127
  307MOL0     H41421  10.227   9.511   1.782  2.5164 -0.2614 -0.4763
  307MOL0     H41422  10.192   9.570   1.942  0.4478  0.2286 -0.3013
  307MOL0     H41423  10.452   9.554   1.835 -2.8274 -1.5160 -0.9850
  307MOL0     H41424  10.449   9.418   1.950 -3.0409 -3.8353 -2.6068
  307MOL0     H41425  10.520   9.609   2.074 -0.4490  3.0671  2.7396
  307MOL0     H41426  10.350   9.569   2.118 -2.1038 -2.3860 -2.4275
  307MOL0     H41427   9.389   9.152   1.708 -1.2297 -1.2201  0.5918
  307MOL0     H41428   9.277   8.960   1.695  0.2207  4.2713  1.1405
  307MOL0     H41429   9.147   8.600   1.822 -0.7602 -0.3210  1.6983
  307MOL0     H41430   9.009   8.381   1.859 -1.2170  0.1869  1.6770
  307MOL0     H41431   9.429   6.929   2.564  2.7346 -0.3722  2.2930
  307MOL0     H41432   9.405   6.710   2.453  1.4624 -0.7842  0.4458
  307MOL0     H41433   9.195   6.186   2.732 -1.4141 -1.0369 -0.6296
  307MOL0     H41434   9.255   5.941   2.676 -1.2497 -0.1811 -0.2329
  307MOL0     H41435   9.445   5.684   2.470  0.2398  0.0231  0.8269
  307MOL0     H41436   9.437   5.803   2.594  4.5994  0.5218 -1.9147
  307MOL0     H41437   9.187   5.736   2.620 -1.9557 -0.2520 -0.6758
  307MOL0     H41438   9.301   5.603   2.643 -1.5046 -2.0655 -1.4326
  307MOL0     H41439   9.253   5.548   2.393 -1.2037  0.8992 -0.9030
  307MOL0     H41440   9.122   5.666   2.402  1.8985  2.5775  1.7224
  307MOL0     H41441   9.028   5.547   2.598 -1.2635 -0.6743 -1.0024
  307MOL0     H41442   9.143   5.418   2.581  0.5456  1.4561  2.1050
  307MOL0     H41443   8.870   5.285   2.298 -0.0712 -1.2186 -0.1375
  307MOL0     H41444   9.389   6.069   2.290  2.1232  1.8038  0.3149
  307MOL0     H41445   9.335   6.303   2.354 -1.5476  0.3149  1.4976
  308MOL0     O41446   2.980   4.999   8.360 -0.1743  0.1369 -0.7416
  308MOL0     C41447   3.017   5.109   8.374  0.6021 -1.0481 -1.9851
  308MOL0     O41448   3.150   5.142   8.373  0.9248  0.2807  0.0551
  308MOL0     C41449   3.236   5.039   8.382 -0.3635  0.3064 -1.4137
  308MOL0     C41450   3.326   5.029   8.278 -0.7895 -0.2323 -0.1048
  308MOL0     C41451   3.414   4.915   8.275 -0.8727  0.1534  0.2922
  308MOL0     C41452   3.427   4.826   8.388 -0.3547  0.6006 -0.9876
  308MOL0     O41453   3.510   4.718   8.380  0.7643  0.2165  0.1783
  308MOL0     C41454   3.520   4.633   8.495 -0.4561 -0.6929 -0.4925
  308MOL0     C41455   3.591   4.512   8.454  0.1438  0.0568  0.9606
  308MOL0     C41456   3.579   4.384   8.533 -0.1959  0.1792  0.3011
  308MOL0     C41457   3.668   4.274   8.484 -0.1236  0.2861 -0.6937
  308MOL0     C41458   3.660   4.158   8.576 -1.5781  0.4570 -0.1806
  308MOL0     C41459   3.748   4.041   8.519 -1.0061  0.1932 -0.2320
  308MOL0     C41460   3.896   4.060   8.559  0.7163 -1.1431  0.1652
  308MOL0     C41461   3.988   3.960   8.484  0.0705  1.1429  0.5130
  308MOL0     N41462   3.970   3.815   8.523 -0.2847  0.4147 -0.0106
  308MOL0     C41463   4.083   3.729   8.523  0.4661  0.2322  0.5538
  308MOL0     C41464   4.028   3.612   8.558  0.1916  0.2366  0.3407
  308MOL0     C41465   4.108   3.478   8.577  0.6559 -0.2588  0.5622
  308MOL0     C41466   4.195   3.450   8.450 -0.4839  0.0690  0.1217
  308MOL0     C41467   4.263   3.315   8.486  0.4442  0.2997 -0.0821
  308MOL0     C41468   4.350   3.290   8.366  0.0666 -0.2052  0.2312
  308MOL0     O41469   4.394   3.151   8.365 -0.6995  0.6140 -0.0711
  308MOL0     C41470   4.524   3.124   8.353 -0.2599  0.2106  0.4667
  308MOL0     C41471   4.584   3.103   8.230 -0.5248 -0.4414  0.3972
  308MOL0     C41472   4.710   3.053   8.218 -0.8249  0.3635  0.2078
  308MOL0     C41473   4.772   3.039   8.079 -0.0092  0.6136 -0.2019
  308MOL0     C41474   4.776   3.004   8.334 -0.3409 -0.5376  0.3530
  308MOL0     C41475   4.903   2.927   8.334 -1.2518  0.9178  1.4906
  308MOL0     O41476   4.929   2.859   8.451  0.5410  0.2763 -0.0940
  308MOL0     C41477   5.040   2.775   8.467 -0.5478  0.1839  0.4700
  308MOL0     C41478   5.104   2.710   8.350 -0.2020  0.2542 -0.0329
  308MOL0     C41479   5.208   2.611   8.369  0.2545 -1.0042  0.1729
  308MOL0     C41480   5.242   2.581   8.501  0.4939  0.2833 -0.1423
  308MOL0     O41481   5.339   2.489   8.521 -0.1829 -0.1062  0.0501
  308MOL0     C41482   5.362   2.444   8.661 -0.4004  0.0429  0.6055
  308MOL0     C41483   5.463   2.322   8.656  0.0186 -0.8032 -0.7725
  308MOL0     C41484   5.384   2.206   8.595 -1.6402 -0.0957  0.0807
  308MOL0     C41485   5.480   2.079   8.589  0.7517 -0.3972  0.4688
  308MOL0     C41486   5.392   1.961   8.551  0.3899 -0.9474 -0.3511
  308MOL0     C41487   5.456   1.826   8.547  0.7958  0.4498  0.1361
  308MOL0     C41488   5.506   1.786   8.683 -0.2875 -0.1562 -1.2410
  308MOL0     C41489   5.598   1.663   8.684  0.1885  1.3668 -0.3277
  308MOL0    Cl41490   5.534   1.521   8.587 -0.2459  0.2547 -0.0424
  308MOL0     C41491   5.195   2.654   8.611  0.0700  0.1592 -0.4624
  308MOL0     C41492   5.095   2.747   8.590  0.7364  0.0316 -0.9951
  308MOL0     O41493   4.972   2.923   8.229 -0.0225  0.1831 -0.0022
  308MOL0     C41494   4.722   3.031   8.460  0.2769 -0.0227 -0.5699
  308MOL0     C41495   4.595   3.090   8.469  1.1785  0.6444  0.4065
  308MOL0     N41496   3.898   3.624   8.589  0.3477 -0.9144 -0.5454
  308MOL0     N41497   3.866   3.749   8.573  0.2532  0.5756 -0.1798
  308MOL0     C41498   3.343   4.845   8.499  0.8759 -0.5862 -0.2018
  308MOL0     C41499   3.250   4.960   8.497 -0.6804 -0.3721  0.4778
  308MOL0     C41500   2.929   5.227   8.390  0.5195  0.4854 -0.4870
  308MOL0     C41501   2.979   5.352   8.422  0.5203 -0.3537  1.1066
  308MOL0     C41502   2.894   5.461   8.410 -0.4788  0.2488  0.1119
  308MOL0     C41503   2.759   5.454   8.383 -0.5659  0.6604  0.2606
  308MOL0     O41504   2.686   5.570   8.379 -0.7898  0.1133 -0.0207
  308MOL0     C41505   2.547   5.566   8.350  0.1909  0.0213 -0.6170
  308MOL0     C41506   2.459   5.571   8.477 -0.0661  0.0394 -0.3492
  308MOL0     C41507   2.441   5.431   8.539  0.0294  0.3664 -0.6223
  308MOL0     C41508   2.334   5.346   8.467 -0.4122 -0.0244  0.4463
  308MOL0     C41509   2.267   5.263   8.564  1.2874  0.4040  1.3495
  308MOL0     C41510   2.199   5.190   8.627  0.2707 -1.0778 -0.9110
  308MOL0     C41511   2.707   5.322   8.362 -0.0375  0.4632 -0.5467
  308MOL0     C41512   2.793   5.211   8.355 -0.6968 -0.3323  0.0420
  308MOL0     H41513   3.316   5.090   8.189 -2.6766 -2.3181 -1.4389
  308MOL0     H41514   3.482   4.896   8.192 -1.4226 -1.2772  0.1380
  308MOL0     H41515   3.576   4.671   8.581  0.3013 -4.6819  1.0032
  308MOL0     H41516   3.423   4.602   8.535 -1.1008  1.0227 -0.6264
  308MOL0     H41517   3.550   4.489   8.355  2.0350  1.3897 -0.1944
  308MOL0     H41518   3.697   4.540   8.450 -0.5897  3.0961  0.4319
  308MOL0     H41519   3.603   4.393   8.639 -0.2160  0.0154  0.3194
  308MOL0     H41520   3.474   4.358   8.521 -0.2540  0.0621  1.0387
  308MOL0     H41521   3.642   4.239   8.384  0.6348 -2.2079 -0.1016
  308MOL0     H41522   3.767   4.319   8.475 -0.4816  0.9732 -1.2804
  308MOL0     H41523   3.704   4.174   8.675  2.4000 -2.3981 -1.2322
  308MOL0     H41524   3.555   4.130   8.590 -1.6863  1.3236  0.8048
  308MOL0     H41525   3.711   3.947   8.561  2.3544 -1.1083  0.0656
  308MOL0     H41526   3.753   4.022   8.412 -0.3556 -3.1458  0.2884
  308MOL0     H41527   3.921   4.162   8.528  2.7254 -1.4044  0.7550
  308MOL0     H41528   3.905   4.056   8.668 -0.5718 -1.8825  0.2651
  308MOL0     H41529   4.090   3.987   8.513  1.3456 -0.9929 -1.5519
  308MOL0     H41530   3.989   3.974   8.375  2.2052  0.2080  0.3752
  308MOL0     H41531   4.186   3.760   8.511  0.2366  1.6949  1.9025
  308MOL0     H41532   4.173   3.485   8.665  2.0695  3.2061 -0.5742
  308MOL0     H41533   4.033   3.402   8.599  0.6364 -0.0414  1.2816
  308MOL0     H41534   4.264   3.533   8.466 -1.2389  0.4377  1.6021
  308MOL0     H41535   4.137   3.450   8.358 -1.2552 -0.9290  0.5884
  308MOL0     H41536   4.184   3.240   8.494 -1.0152  1.6484 -1.3027
  308MOL0     H41537   4.317   3.331   8.580 -1.1407 -1.4584  1.1978
  308MOL0     H41538   4.443   3.346   8.384  0.5441 -1.0098  0.3071
  308MOL0     H41539   4.315   3.326   8.269 -0.8801 -2.6459 -0.4047
  308MOL0     H41540   4.523   3.115   8.140  1.5235 -1.7227 -1.2552
  308MOL0     H41541   4.720   3.098   8.003  0.0654  0.2800 -0.5144
  308MOL0     H41542   4.875   3.074   8.063  0.4006 -0.9969 -1.2713
  308MOL0     H41543   4.752   2.933   8.064  0.0950  0.6673 -0.7233
  308MOL0     H41544   5.084   2.722   8.244 -1.0391 -0.9113 -0.0304
  308MOL0     H41545   5.253   2.569   8.280  1.6123 -1.1722  0.9119
  308MOL0     H41546   5.404   2.526   8.722  1.9943 -0.8553  0.2720
  308MOL0     H41547   5.268   2.413   8.707 -0.2428 -0.2527  0.7302
  308MOL0     H41548   5.540   2.342   8.580 -2.4645 -0.4070 -3.3642
  308MOL0     H41549   5.494   2.297   8.758 -0.7360  0.7666 -0.1163
  308MOL0     H41550   5.347   2.230   8.496 -2.5189  0.7565  0.6057
  308MOL0     H41551   5.298   2.176   8.656  0.7006 -0.9540  3.2844
  308MOL0     H41552   5.551   2.099   8.508  1.1560  0.0850  0.9429
  308MOL0     H41553   5.538   2.062   8.680  0.7726 -2.3881  0.1369
  308MOL0     H41554   5.341   1.978   8.456 -2.6164 -1.1024  1.1230
  308MOL0     H41555   5.313   1.963   8.626 -0.5331  0.8900 -1.3153
  308MOL0     H41556   5.373   1.761   8.517 -0.8434  2.4459  0.1363
  308MOL0     H41557   5.533   1.815   8.470  0.3943 -0.7752 -0.1291
  308MOL0     H41558   5.421   1.767   8.750 -0.9003  0.6715 -1.7572
  308MOL0     H41559   5.564   1.871   8.721  2.5998 -1.5179 -2.3694
  308MOL0     H41560   5.614   1.639   8.790 -1.0190  1.0044 -0.2189
  308MOL0     H41561   5.687   1.701   8.632  1.3259 -1.4800 -0.6278
  308MOL0     H41562   5.232   2.639   8.712  0.6138  0.2119 -0.6484
  308MOL0     H41563   5.070   2.810   8.675 -0.2392  0.3847 -1.5169
  308MOL0     H41564   4.763   2.996   8.554 -2.5107 -0.3299  0.6291
  308MOL0     H41565   4.530   3.086   8.556 -1.1067 -1.8166 -1.2364
  308MOL0     H41566   3.342   4.795   8.596 -1.4355 -2.0363 -0.8747
  308MOL0     H41567   3.196   4.987   8.587  0.9518  1.3218  1.0176
  308MOL0     H41568   3.085   5.367   8.443  0.8578 -0.6666 -0.2979
  308MOL0     H41569   2.946   5.555   8.422  0.1116  0.5349 -3.6828
  308MOL0     H41570   2.524   5.652   8.287  1.3232 -2.6677 -5.0888
  308MOL0     H41571   2.520   5.478   8.291 -0.5327  0.0285 -0.3168
  308MOL0     H41572   2.366   5.619   8.445  0.7058  1.8764  0.0571
  308MOL0     H41573   2.503   5.644   8.545  1.3855 -0.1526 -1.0363
  308MOL0     H41574   2.415   5.446   8.644 -2.1372 -4.9681 -0.0861
  308MOL0     H41575   2.534   5.373   8.538 -0.3635 -0.2648 -1.5867
  308MOL0     H41576   2.375   5.286   8.385 -1.5145 -1.4537  0.8997
  308MOL0     H41577   2.252   5.392   8.411 -0.3930 -0.3642  0.1353
  308MOL0     H41578   2.139   5.120   8.683  2.3674 -3.1037 -1.0782
  308MOL0     H41579   2.604   5.301   8.334 -0.5727  1.5599  0.5077
  308MOL0     H41580   2.751   5.114   8.330 -0.3210 -1.3062  2.8339
  309MOL0     O41581  10.219   1.649   0.400  0.1946 -0.5479  0.1712
  309MOL0     C41582  10.224   1.747   0.478 -0.4879 -0.7808 -1.1142
  309MOL0     O41583  10.129   1.784   0.567 -0.4613  0.1061  0.1473
  309MOL0     C41584  10.003   1.726   0.566  0.3434 -0.3485 -0.2034
  309MOL0     C41585   9.904   1.826   0.590 -0.5825  0.1764  0.5411
  309MOL0     C41586   9.770   1.784   0.598  0.8127 -0.6977  0.2725
  309MOL0     C41587   9.743   1.642   0.593  1.1170  0.2290 -0.1446
  309MOL0     O41588   9.619   1.592   0.608  0.3182  0.8581 -0.9507
  309MOL0     C41589   9.556   1.617   0.734 -0.4063 -0.1390 -0.2438
  309MOL0     C41590   9.622   1.523   0.834 -0.1839  0.4059  0.1142
  309MOL0     C41591   9.580   1.561   0.972  0.1724  0.0068 -0.1894
  309MOL0     C41592   9.649   1.477   1.080  0.4380  0.7323 -0.7815
  309MOL0     C41593   9.553   1.363   1.135  0.5668 -0.2714  0.4238
  309MOL0     C41594   9.605   1.311   1.273 -1.0187 -0.2049  0.5357
  309MOL0     C41595   9.728   1.223   1.262  0.1501 -0.0799 -0.1949
  309MOL0     C41596   9.764   1.178   1.405 -0.9096  0.0963  0.3407
  309MOL0     N41597   9.875   1.087   1.398 -0.2527  0.2759  0.7151
  309MOL0     C41598  10.010   1.123   1.436  0.2414 -0.0374 -0.1544
  309MOL0     C41599  10.076   1.019   1.411 -0.4410 -0.3680 -0.5487
  309MOL0     C41600  10.221   0.990   1.438  0.1982 -0.0390  0.2714
  309MOL0     C41601  10.316   0.950   1.320 -0.2872  0.1059  0.4082
  309MOL0     C41602  10.416   0.844   1.371 -0.6174  0.1547 -0.2109
  309MOL0     C41603  10.550   0.853   1.289 -0.1476  0.7707 -0.0111
  309MOL0     O41604  10.633   0.967   1.332  0.1244  0.3998 -0.2556
  309MOL0     C41605  10.746   0.976   1.269 -0.4306 -0.2718  0.5282
  309MOL0     C41606  10.835   0.873   1.253 -0.8733  0.3122  0.1264
  309MOL0     C41607  10.942   0.883   1.167  0.7209 -0.4513 -0.1547
  309MOL0     C41608  11.018   0.754   1.154 -0.3764  0.2427 -0.0940
  309MOL0     C41609  10.954   0.990   1.082  0.2292 -1.2713  0.0062
  309MOL0     C41610  11.058   0.999   0.974 -0.1629 -1.4751  0.0848
  309MOL0     O41611  11.069   1.124   0.917 -0.1481 -0.3421 -0.1292
  309MOL0     C41612  11.114   1.145   0.785 -0.4598  0.1874  0.1177
  309MOL0     C41613  11.111   1.045   0.690  0.2039  0.3278  0.2119
  309MOL0     C41614  11.137   1.085   0.564  0.4411 -0.3136 -1.0184
  309MOL0     C41615  11.202   1.204   0.539  0.6623 -0.7654 -0.7702
  309MOL0     O41616  11.256   1.217   0.417 -0.4182 -0.0583 -0.6662
  309MOL0     C41617  11.237   1.340   0.348  0.0904  0.3240 -0.1962
  309MOL0     C41618  11.336   1.345   0.244 -0.1300 -0.0976  0.1747
  309MOL0     C41619  11.315   1.463   0.143 -0.2148  0.1365 -0.8959
  309MOL0     C41620  11.401   1.454   0.020  0.5120  1.2018  0.8618
  309MOL0     C41621  11.379   1.573  -0.076  0.1935  0.1922 -0.3355
  309MOL0     C41622  11.490   1.610  -0.177 -0.0204 -0.1540 -0.3195
  309MOL0     C41623  11.527   1.496  -0.270  0.2092  0.2079  0.6019
  309MOL0     C41624  11.572   1.543  -0.402  0.2676  0.7312 -0.7298
  309MOL0    Cl41625  11.700   1.660  -0.390  0.0729  0.1373  0.4058
  309MOL0     C41626  11.212   1.302   0.636  0.0530 -0.2744 -0.4277
  309MOL0     C41627  11.157   1.276   0.762  0.5110 -0.2527  0.4193
  309MOL0     O41628  11.119   0.900   0.930  0.4225 -0.5668  0.1053
  309MOL0     C41629  10.869   1.108   1.109  0.9097  0.4250 -0.6621
  309MOL0     C41630  10.763   1.099   1.198 -0.3450  0.4379  0.0557
  309MOL0     N41631   9.999   0.916   1.367 -0.3380  0.1387 -0.2173
  309MOL0     N41632   9.877   0.958   1.358  0.5700  0.1143  1.0269
  309MOL0     C41633   9.839   1.553   0.559  0.3604 -0.0628  0.0756
  309MOL0     C41634   9.976   1.592   0.551 -0.3264 -0.4492  0.1618
  309MOL0     C41635  10.359   1.814   0.473 -0.2924  0.4361  0.2127
  309MOL0     C41636  10.383   1.934   0.543  0.2232  0.5394  0.1739
  309MOL0     C41637  10.509   1.993   0.536 -0.5900 -0.5955  0.1398
  309MOL0     C41638  10.600   1.957   0.439 -0.1997 -0.2762 -0.4780
  309MOL0     O41639  10.720   2.035   0.438 -0.0860  0.2799  0.4818
  309MOL0     C41640  10.826   1.982   0.355  0.3907  1.0245 -0.0807
  309MOL0     C41641  10.957   2.024   0.412  0.3907  1.1671 -0.7347
  309MOL0     C41642  10.981   2.179   0.417 -0.2249  0.9621  0.3728
  309MOL0     C41643  11.119   2.209   0.468 -0.4975 -0.6742  0.2268
  309MOL0     C41644  11.151   2.171   0.607  0.3427  0.1148 -0.4314
  309MOL0     C41645  11.178   2.144   0.724  0.4554 -0.2339  0.0198
  309MOL0     C41646  10.568   1.848   0.351  0.0470 -0.1521 -0.5590
  309MOL0     C41647  10.457   1.773   0.379 -0.4608  0.0231 -0.5943
  309MOL0     H41648   9.927   1.930   0.605  0.0811 -0.1339  1.7633
  309MOL0     H41649   9.692   1.853   0.629 -1.5170 -1.8039 -2.6614
  309MOL0     H41650   9.558   1.723   0.761 -1.4285 -0.2361  0.2857
  309MOL0     H41651   9.448   1.602   0.724 -0.2662 -0.0234 -2.3156
  309MOL0     H41652   9.600   1.421   0.803 -1.9538  0.8383 -0.1701
  309MOL0     H41653   9.732   1.526   0.834  0.2510 -5.1299  2.1265
  309MOL0     H41654   9.592   1.669   0.986 -3.8096  0.7689 -1.4411
  309MOL0     H41655   9.472   1.542   0.971  0.2047 -0.2429  0.3641
  309MOL0     H41656   9.745   1.433   1.052  2.1474  2.5515  1.7208
  309MOL0     H41657   9.674   1.536   1.169  1.8400  3.1703 -2.6473
  309MOL0     H41658   9.456   1.411   1.151  2.2463  4.0427 -0.9078
  309MOL0     H41659   9.544   1.285   1.059  0.7131 -0.0019  0.1257
  309MOL0     H41660   9.627   1.393   1.342  0.6741 -0.0434 -0.1376
  309MOL0     H41661   9.522   1.248   1.309 -0.4612 -1.2506  0.0388
  309MOL0     H41662   9.706   1.141   1.193 -2.2534  2.4640 -2.7412
  309MOL0     H41663   9.811   1.278   1.218  1.1700  3.6183  5.2887
  309MOL0     H41664   9.675   1.124   1.441 -0.4205 -0.0956  1.2795
  309MOL0     H41665   9.787   1.255   1.478  1.7740  0.0288 -0.3198
  309MOL0     H41666  10.055   1.217   1.467  2.9039  0.0115 -3.5359
  309MOL0     H41667  10.261   1.088   1.466  1.3515 -0.4819  0.2161
  309MOL0     H41668  10.220   0.916   1.518 -1.1971 -0.3455  0.0060
  309MOL0     H41669  10.364   1.042   1.285 -1.8020 -0.2568 -3.0050
  309MOL0     H41670  10.261   0.895   1.243  2.4246 -1.8202 -0.3103
  309MOL0     H41671  10.364   0.748   1.381 -0.5752  0.2524  1.2061
  309MOL0     H41672  10.447   0.863   1.474 -2.3158  2.1584  0.0029
  309MOL0     H41673  10.534   0.866   1.182  1.1451 -1.8185 -0.5956
  309MOL0     H41674  10.604   0.758   1.300 -0.2365  0.6896 -0.2803
  309MOL0     H41675  10.819   0.784   1.313 -1.0355  1.4780  1.9148
  309MOL0     H41676  10.982   0.710   1.060 -0.3081 -0.3044  0.1328
  309MOL0     H41677  11.122   0.785   1.141 -0.9424  2.6508  0.5928
  309MOL0     H41678  11.004   0.683   1.236 -0.8744  1.7690  1.2096
  309MOL0     H41679  11.079   0.942   0.702  2.0620 -0.4623 -1.0815
  309MOL0     H41680  11.139   1.000   0.496  3.2695  1.0536 -2.8459
  309MOL0     H41681  11.132   1.347   0.318 -0.6698 -2.2992  1.4783
  309MOL0     H41682  11.277   1.416   0.416  5.0885 -1.0777 -1.1631
  309MOL0     H41683  11.434   1.360   0.290 -1.8142  1.6211  3.5471
  309MOL0     H41684  11.336   1.256   0.181 -0.6545  0.0621 -0.0520
  309MOL0     H41685  11.335   1.557   0.196 -0.2635  0.8196 -2.0500
  309MOL0     H41686  11.207   1.469   0.128 -0.5967  0.8573  1.6499
  309MOL0     H41687  11.507   1.442   0.046  0.3265  1.8037  1.9777
  309MOL0     H41688  11.370   1.366  -0.037  4.0713  0.1707  0.2690
  309MOL0     H41689  11.363   1.661  -0.014 -3.1481 -0.2372 -0.3949
  309MOL0     H41690  11.290   1.538  -0.128  1.4927  0.7300 -3.0916
  309MOL0     H41691  11.455   1.696  -0.235 -2.8340 -0.9935 -0.0424
  309MOL0     H41692  11.577   1.647  -0.122  2.2337 -3.9651 -0.9287
  309MOL0     H41693  11.441   1.430  -0.279  1.6368 -1.5457 -1.3008
  309MOL0     H41694  11.598   1.425  -0.226  0.0017 -1.3435 -1.4009
  309MOL0     H41695  11.482   1.590  -0.442 -0.1766  0.8592  0.4048
  309MOL0     H41696  11.588   1.457  -0.469  1.4112  0.8645 -0.6544
  309MOL0     H41697  11.258   1.399   0.618  3.2305 -0.9233  2.9986
  309MOL0     H41698  11.151   1.356   0.836  2.7255  0.8551 -0.4943
  309MOL0     H41699  10.879   1.201   1.054 -1.1158  0.5322 -0.9139
  309MOL0     H41700  10.701   1.188   1.205  0.7663  1.1488  1.2095
  309MOL0     H41701   9.807   1.450   0.542 -2.9912  1.2164 -2.4929
  309MOL0     H41702  10.050   1.515   0.529 -1.8970 -1.4126 -2.1338
  309MOL0     H41703  10.315   1.975   0.616  0.7761  1.9367 -0.0649
  309MOL0     H41704  10.538   2.077   0.598  1.9159 -1.6656  0.5302
  309MOL0     H41705  10.829   1.872   0.354 -0.0259  0.9862 -2.3237
  309MOL0     H41706  10.820   2.011   0.250 -1.3528  0.6435 -0.1300
  309MOL0     H41707  11.020   1.984   0.332  0.5109  1.0511 -0.5810
  309MOL0     H41708  10.970   1.984   0.513 -0.9607  2.6859  0.0949
  309MOL0     H41709  10.912   2.230   0.485  0.0678 -0.3887  1.7164
  309MOL0     H41710  10.965   2.217   0.315 -0.4303  0.4154  0.1999
  309MOL0     H41711  11.129   2.317   0.453 -2.9809 -0.3083  0.6870
  309MOL0     H41712  11.192   2.168   0.398  1.3644  3.9174 -0.8839
  309MOL0     H41713  11.223   2.109   0.815 -1.0457  2.4957  1.9787
  309MOL0     H41714  10.640   1.808   0.280 -0.1896  2.0919 -2.1691
  309MOL0     H41715  10.425   1.690   0.317 -3.4242  0.4012  0.2424
  310MOL0     O41716   9.858   2.779   4.754 -0.2607  0.1829 -0.3991
  310MOL0     C41717   9.945   2.711   4.817 -0.5514 -1.0138 -0.1305
  310MOL0     O41718   9.925   2.619   4.919  0.4893 -0.3975 -0.3342
  310MOL0     C41719   9.804   2.604   4.971 -0.2080 -0.5490  0.6895
  310MOL0     C41720   9.748   2.482   4.995 -0.8174 -0.2756  0.1092
  310MOL0     C41721   9.630   2.461   5.072  1.2574 -0.3158  0.0019
  310MOL0     C41722   9.555   2.569   5.121 -0.5712 -0.6780  0.0678
  310MOL0     O41723   9.433   2.535   5.169 -0.1193 -0.2000 -0.4298
  310MOL0     C41724   9.373   2.631   5.258  0.6458  0.1932  0.4267
  310MOL0     C41725   9.220   2.642   5.222  0.3032  0.4274  0.6102
  310MOL0     C41726   9.213   2.709   5.087  0.6693  0.1214  0.0334
  310MOL0     C41727   9.085   2.778   5.078 -1.0904 -0.5996 -0.5766
  310MOL0     C41728   9.030   2.782   4.937  0.8663  0.2469  0.4237
  310MOL0     C41729   8.914   2.890   4.936 -0.2352 -0.7303 -0.3718
  310MOL0     C41730   8.858   2.942   4.808 -0.8377  0.1929 -0.2882
  310MOL0     C41731   8.732   3.028   4.824 -0.5263 -0.6509  0.7287
  310MOL0     N41732   8.612   2.951   4.835  0.6300 -0.3853  0.1335
  310MOL0     C41733   8.493   3.006   4.787  0.2468  0.3341 -0.3204
  310MOL0     C41734   8.402   2.909   4.816  1.3696 -0.2831  0.7650
  310MOL0     C41735   8.254   2.915   4.777 -0.1618  0.0123 -0.5982
  310MOL0     C41736   8.228   2.880   4.626 -0.7048  0.4197  0.4454
  310MOL0     C41737   8.303   2.768   4.561 -0.3720  1.2123 -0.9392
  310MOL0     C41738   8.300   2.765   4.416 -0.0261  0.1008 -1.3578
  310MOL0     O41739   8.373   2.873   4.358  0.1997  0.5220  0.0976
  310MOL0     C41740   8.510   2.887   4.355  0.1894 -1.4245 -0.2827
  310MOL0     C41741   8.561   2.986   4.275  0.3331  0.0574 -0.8549
  310MOL0     C41742   8.698   3.025   4.273  0.0150  0.6468 -0.1277
  310MOL0     C41743   8.745   3.125   4.165 -0.4639  0.8723  0.3267
  310MOL0     C41744   8.789   2.948   4.361  0.0079 -0.2682 -0.5137
  310MOL0     C41745   8.937   2.979   4.364 -1.0235  1.0697 -0.6429
  310MOL0     O41746   9.012   2.891   4.423  0.1598  0.0243 -0.5842
  310MOL0     C41747   9.145   2.878   4.389  0.8570 -0.0266 -0.1915
  310MOL0     C41748   9.246   2.873   4.481 -0.1247 -0.0633  0.7082
  310MOL0     C41749   9.373   2.849   4.438 -0.7907 -0.6611  0.4654
  310MOL0     C41750   9.414   2.851   4.305 -0.4461  0.1958 -0.4802
  310MOL0     O41751   9.537   2.817   4.260  0.1090 -1.1716 -0.5222
  310MOL0     C41752   9.602   2.724   4.340 -0.4519 -0.1191  0.2925
  310MOL0     C41753   9.694   2.642   4.249 -0.3944 -0.0992 -0.7291
  310MOL0     C41754   9.811   2.731   4.183 -0.0440 -0.0612  0.2101
  310MOL0     C41755   9.943   2.722   4.260 -0.7335 -0.9136  1.0757
  310MOL0     C41756  10.055   2.808   4.201  0.2633 -0.6917  0.2980
  310MOL0     C41757  10.190   2.771   4.250  0.8029 -0.0710 -0.2395
  310MOL0     C41758  10.292   2.879   4.226 -0.1338  0.4652  0.7255
  310MOL0     C41759  10.429   2.838   4.286 -0.3502 -0.0178  0.0927
  310MOL0    Cl41760  10.561   2.933   4.212  0.1312 -0.0022 -0.1506
  310MOL0     C41761   9.319   2.884   4.209  0.0310  0.2722 -0.7434
  310MOL0     C41762   9.185   2.898   4.259 -0.7915  0.3937  0.1131
  310MOL0     O41763   8.983   3.085   4.320 -0.2134  0.0105  0.0941
  310MOL0     C41764   8.746   2.842   4.438  0.2797  0.6331  0.2248
  310MOL0     C41765   8.604   2.817   4.436 -0.5305 -0.3569 -0.1903
  310MOL0     N41766   8.466   2.798   4.870 -0.7953 -0.4153 -0.5530
  310MOL0     N41767   8.597   2.834   4.889  0.4085  0.5121 -0.1917
  310MOL0     C41768   9.605   2.700   5.091  0.3246 -0.3128  0.0455
  310MOL0     C41769   9.731   2.712   5.027 -0.1090 -0.3613 -0.3154
  310MOL0     C41770  10.084   2.756   4.794  0.0727  1.0133 -0.2178
  310MOL0     C41771  10.187   2.674   4.841  0.3432  0.5174 -0.4802
  310MOL0     C41772  10.322   2.720   4.834 -0.5688 -0.3989  0.1062
  310MOL0     C41773  10.359   2.838   4.758 -0.3401  0.3606 -0.4777
  310MOL0     O41774  10.498   2.870   4.763  0.0292 -0.2792 -0.1314
  310MOL0     C41775  10.540   2.999   4.723 -0.2148 -1.0519 -0.6629
  310MOL0     C41776  10.644   3.002   4.619 -1.0019 -0.0387 -0.6414
  310MOL0     C41777  10.766   2.920   4.665 -0.0524  0.4749 -0.1512
  310MOL0     C41778  10.901   2.968   4.602 -0.3957  0.5713  1.2770
  310MOL0     C41779  10.976   3.065   4.677  0.2001 -0.6523 -0.6009
  310MOL0     C41780  11.028   3.148   4.747  0.4303  0.1186 -0.1118
  310MOL0     C41781  10.254   2.903   4.697  0.2333 -0.1651 -0.1666
  310MOL0     C41782  10.116   2.865   4.719  0.0994 -0.3503 -0.1650
  310MOL0     H41783   9.788   2.395   4.945 -2.1533 -0.8522  0.0195
  310MOL0     H41784   9.590   2.360   5.069  1.3953 -0.3721 -2.7257
  310MOL0     H41785   9.372   2.587   5.358 -1.7895  2.2752  1.4579
  310MOL0     H41786   9.419   2.729   5.278  1.4639 -0.3298  1.1930
  310MOL0     H41787   9.186   2.538   5.216  0.8591  0.0842  2.6503
  310MOL0     H41788   9.150   2.674   5.300 -0.7908 -2.4724  0.9864
  310MOL0     H41789   9.297   2.776   5.071 -2.0983  4.1975  0.9614
  310MOL0     H41790   9.220   2.628   5.014  0.5841 -0.3071  0.4965
  310MOL0     H41791   9.006   2.728   5.135 -2.5944  0.1645 -1.9016
  310MOL0     H41792   9.107   2.879   5.112 -3.2902  0.1322 -1.1341
  310MOL0     H41793   9.113   2.802   4.870  1.6562  0.8093  1.5350
  310MOL0     H41794   9.001   2.679   4.913  2.1207  0.0765 -0.4226
  310MOL0     H41795   8.831   2.855   4.998  0.8485 -1.3398  0.7836
  310MOL0     H41796   8.951   2.981   4.983  0.1949 -1.9314  1.7761
  310MOL0     H41797   8.937   2.993   4.753 -2.2906  2.0324 -0.7876
  310MOL0     H41798   8.824   2.856   4.750  1.1784 -0.5153 -0.4790
  310MOL0     H41799   8.721   3.080   4.729  1.5453 -3.6053 -1.3144
  310MOL0     H41800   8.740   3.092   4.912  0.7009 -0.2734  0.3614
  310MOL0     H41801   8.486   3.110   4.756  2.2737  0.0442 -1.9462
  310MOL0     H41802   8.195   2.854   4.847 -0.6224 -0.5454 -1.4452
  310MOL0     H41803   8.233   3.021   4.796 -0.3634 -0.2403  0.7112
  310MOL0     H41804   8.249   2.964   4.559 -2.6941  0.1383 -0.5976
  310MOL0     H41805   8.123   2.851   4.622 -0.5883  0.0373  0.0527
  310MOL0     H41806   8.243   2.683   4.596  1.6886  0.9392  2.4351
  310MOL0     H41807   8.392   2.756   4.624 -1.8817  0.0520  1.1250
  310MOL0     H41808   8.193   2.762   4.392 -0.1279 -0.6056 -0.8468
  310MOL0     H41809   8.349   2.675   4.378  0.8715  0.9968 -2.3837
  310MOL0     H41810   8.492   3.046   4.217 -0.0211 -0.5110 -1.0282
  310MOL0     H41811   8.684   3.130   4.074 -1.2344  1.9282  0.8726
  310MOL0     H41812   8.740   3.228   4.203  2.5262  1.2591 -0.1331
  310MOL0     H41813   8.850   3.115   4.136 -0.5858 -0.4762  0.3199
  310MOL0     H41814   9.224   2.876   4.587 -0.3827  1.2457  0.6347
  310MOL0     H41815   9.450   2.825   4.511 -1.4341 -4.1977  0.1810
  310MOL0     H41816   9.657   2.783   4.413  1.7138  2.2251 -2.9261
  310MOL0     H41817   9.532   2.659   4.393  0.7302 -1.3156  0.4156
  310MOL0     H41818   9.751   2.565   4.302  0.9554  0.3082 -1.5536
  310MOL0     H41819   9.631   2.591   4.175 -0.0104 -2.4099  0.4413
  310MOL0     H41820   9.781   2.836   4.183  0.6545  0.1867  2.1702
  310MOL0     H41821   9.827   2.703   4.079  1.7563  1.4049  0.0397
  310MOL0     H41822   9.909   2.759   4.357 -1.3824 -0.0516  0.5344
  310MOL0     H41823   9.979   2.619   4.258  1.7769 -0.0939  0.6158
  310MOL0     H41824  10.036   2.913   4.228  0.8332 -0.7254  0.8500
  310MOL0     H41825  10.059   2.795   4.093 -0.9922  2.5005 -0.2705
  310MOL0     H41826  10.174   2.744   4.355  1.5593  2.0451  0.4708
  310MOL0     H41827  10.215   2.681   4.194 -0.1470 -0.4491 -0.0757
  310MOL0     H41828  10.248   2.972   4.261 -0.7108  1.0333 -1.3740
  310MOL0     H41829  10.307   2.890   4.118  0.4895 -2.2956  0.4573
  310MOL0     H41830  10.448   2.734   4.259 -1.6126  0.1419 -1.4844
  310MOL0     H41831  10.443   2.831   4.395  4.3936 -0.7338 -0.3205
  310MOL0     H41832   9.343   2.885   4.103 -1.5385 -2.7396 -1.2550
  310MOL0     H41833   9.111   2.920   4.183 -0.8619  4.0636  1.0792
  310MOL0     H41834   8.814   2.777   4.491  3.1680  2.6637 -0.7530
  310MOL0     H41835   8.562   2.735   4.493 -2.2763 -0.2773 -1.2993
  310MOL0     H41836   9.550   2.790   5.117 -1.5213 -2.2087  3.4464
  310MOL0     H41837   9.780   2.805   5.001 -3.3249  1.3649 -0.7260
  310MOL0     H41838  10.168   2.599   4.917  2.5234  0.3942  0.0258
  310MOL0     H41839  10.404   2.673   4.888 -2.7891 -3.1326  1.3418
  310MOL0     H41840  10.460   3.060   4.677  1.1705  1.8310  0.4990
  310MOL0     H41841  10.570   3.050   4.815  1.9228 -1.6561 -0.9947
  310MOL0     H41842  10.670   3.107   4.606 -1.6206  1.0801  4.6471
  310MOL0     H41843  10.615   2.974   4.517 -1.8930  2.5426 -1.1593
  310MOL0     H41844  10.755   2.814   4.641  1.5318  0.3675 -0.4951
  310MOL0     H41845  10.786   2.920   4.772  1.0617 -0.5378 -0.3436
  310MOL0     H41846  10.890   3.004   4.499  2.5565  1.1730  1.0814
  310MOL0     H41847  10.956   2.875   4.587 -3.3486 -1.1314  0.1686
  310MOL0     H41848  11.081   3.217   4.809  3.3566 -2.6593  0.6999
  310MOL0     H41849  10.266   2.985   4.627 -1.0437 -0.5821 -0.9080
  310MOL0     H41850  10.037   2.932   4.685 -0.9060  0.3811  3.2029
  311MOL0     O41851   5.721   5.512   0.164  0.1874  0.0554 -0.1943
  311MOL0     C41852   5.769   5.457   0.066  0.0251  0.2921  0.6104
  311MOL0     O41853   5.731   5.485  -0.056  0.0406  0.1646 -0.0818
  311MOL0     C41854   5.628   5.572  -0.071 -0.7673 -0.0209 -0.1565
  311MOL0     C41855   5.494   5.515  -0.076 -0.5198  0.1420 -0.5033
  311MOL0     C41856   5.381   5.607  -0.068  0.4574 -0.1433 -0.6818
  311MOL0     C41857   5.404   5.750  -0.054  0.5126  0.7546  1.0301
  311MOL0     O41858   5.302   5.842  -0.047  0.0296 -0.1743 -0.5070
  311MOL0     C41859   5.175   5.789  -0.035  0.7259 -0.2455  0.1942
  311MOL0     C41860   5.073   5.907  -0.031 -0.9491  0.5267 -0.3539
  311MOL0     C41861   4.933   5.870  -0.036  0.4536  0.0464 -0.6486
  311MOL0     C41862   4.898   5.764  -0.135 -0.5450  0.7777  0.4518
  311MOL0     C41863   4.751   5.729  -0.146  0.3300  0.1217  0.1533
  311MOL0     C41864   4.682   5.840  -0.239  0.0645 -0.1581  0.4160
  311MOL0     C41865   4.627   5.975  -0.156 -0.7146  0.4834 -0.0227
  311MOL0     C41866   4.502   6.019  -0.232  0.1505  0.7624 -0.0213
  311MOL0     N41867   4.389   5.934  -0.190  0.5676 -0.2407  0.4993
  311MOL0     C41868   4.307   5.947  -0.075 -0.1603  0.6433 -0.6675
  311MOL0     C41869   4.214   5.850  -0.072 -1.1292 -0.7611  0.7450
  311MOL0     C41870   4.136   5.811   0.049 -1.1230  0.0580 -0.2417
  311MOL0     C41871   4.222   5.738   0.153  0.0156 -0.0418  0.6140
  311MOL0     C41872   4.245   5.590   0.118  0.0612 -0.0819 -0.5485
  311MOL0     C41873   4.312   5.513   0.233  0.3393  0.5144  0.0626
  311MOL0     O41874   4.445   5.569   0.259  0.3153  0.0620  0.1738
  311MOL0     C41875   4.555   5.529   0.200 -0.2099 -0.8966  0.0179
  311MOL0     C41876   4.672   5.558   0.273  0.3283 -0.6384 -0.3435
  311MOL0     C41877   4.794   5.515   0.222 -0.2986  0.0738 -0.5435
  311MOL0     C41878   4.913   5.550   0.314  0.9197 -0.9334  0.6597
  311MOL0     C41879   4.803   5.459   0.089 -0.7898  0.2824  0.3864
  311MOL0     C41880   4.923   5.418   0.012 -1.0478 -0.4487  0.0899
  311MOL0     O41881   4.909   5.331  -0.098 -0.5586 -0.0851  0.4657
  311MOL0     C41882   5.015   5.291  -0.166 -0.4280 -0.4157 -0.4396
  311MOL0     C41883   5.065   5.157  -0.145 -0.7518 -0.3237  0.5145
  311MOL0     C41884   5.177   5.129  -0.222  0.8322  0.1303 -0.8423
  311MOL0     C41885   5.252   5.219  -0.306  0.7919 -0.3511 -0.2112
  311MOL0     O41886   5.369   5.187  -0.362 -0.7484 -0.6433  0.0144
  311MOL0     C41887   5.431   5.264  -0.457 -0.4010  0.3002  0.4172
  311MOL0     C41888   5.567   5.196  -0.512  1.0330 -0.3863 -0.6603
  311MOL0     C41889   5.669   5.175  -0.407  0.5501  0.5217  0.3084
  311MOL0     C41890   5.676   5.031  -0.362  0.2668 -0.1861  0.5382
  311MOL0     C41891   5.761   5.010  -0.237 -0.2227  0.0571 -0.3084
  311MOL0     C41892   5.804   4.867  -0.243 -0.3201  0.8616 -0.1740
  311MOL0     C41893   5.886   4.825  -0.115  0.3666 -0.6686 -0.0667
  311MOL0     C41894   6.027   4.780  -0.138  0.1841  0.0394  0.3985
  311MOL0    Cl41895   6.029   4.619  -0.217 -0.0243  0.0340 -0.1001
  311MOL0     C41896   5.196   5.343  -0.327  0.2183 -0.3279  0.2808
  311MOL0     C41897   5.076   5.377  -0.261 -0.7908 -0.1790  0.7104
  311MOL0     O41898   5.032   5.468   0.043 -0.4132  0.5114 -0.0174
  311MOL0     C41899   4.682   5.417   0.030  0.2812 -0.8135 -0.9798
  311MOL0     C41900   4.557   5.453   0.087 -0.6818  0.6122  0.2945
  311MOL0     N41901   4.234   5.777  -0.188 -0.4730 -0.0678 -0.3803
  311MOL0     N41902   4.328   5.829  -0.254  0.1823  0.2014  0.3005
  311MOL0     C41903   5.531   5.795  -0.038 -1.2871  0.1599  0.6887
  311MOL0     C41904   5.645   5.715  -0.056  0.2326  1.3137  0.3882
  311MOL0     C41905   5.873   5.353   0.086 -0.0640 -0.5995  0.1740
  311MOL0     C41906   5.945   5.308  -0.026  0.6854 -0.7810 -0.0888
  311MOL0     C41907   6.055   5.226  -0.010  0.3896  0.7402 -0.2998
  311MOL0     C41908   6.091   5.173   0.113  0.4930 -0.6286 -0.6675
  311MOL0     O41909   6.191   5.087   0.118  0.3395  0.3106  0.6813
  311MOL0     C41910   6.235   5.038   0.244  0.4446 -0.5749 -0.2841
  311MOL0     C41911   6.371   4.985   0.236 -0.8205 -0.7815  0.2024
  311MOL0     C41912   6.483   5.093   0.194  0.5893  0.1375  0.0236
  311MOL0     C41913   6.463   5.223   0.277  0.2288  0.2887 -0.4821
  311MOL0     C41914   6.476   5.204   0.419 -0.1060  0.8498  0.2632
  311MOL0     C41915   6.477   5.188   0.545 -0.1156 -0.1555 -0.1462
  311MOL0     C41916   6.012   5.216   0.226  0.1465 -0.3900  0.5735
  311MOL0     C41917   5.903   5.305   0.211 -0.5467  1.1052 -0.4460
  311MOL0     H41918   5.498   5.407  -0.071  1.6782  0.2152  0.8371
  311MOL0     H41919   5.283   5.563  -0.054 -0.7354  2.8167  1.2248
  311MOL0     H41920   5.143   5.730  -0.121  1.5378  2.9782 -2.5354
  311MOL0     H41921   5.173   5.731   0.058  1.6827 -0.1329  0.2863
  311MOL0     H41922   5.105   5.977   0.046  1.5025 -0.5420 -0.3020
  311MOL0     H41923   5.082   5.963  -0.125  1.4618 -0.5314 -0.8205
  311MOL0     H41924   4.898   5.825   0.058  0.6331  0.2110 -0.5014
  311MOL0     H41925   4.868   5.957  -0.050 -0.6496 -0.5591  0.4806
  311MOL0     H41926   4.944   5.791  -0.231 -2.4964  3.5027  0.1502
  311MOL0     H41927   4.951   5.670  -0.118  0.6098  1.2872 -0.1572
  311MOL0     H41928   4.754   5.630  -0.191  0.3607  0.1320  0.1321
  311MOL0     H41929   4.723   5.717  -0.041  2.7294 -0.2249  0.8179
  311MOL0     H41930   4.755   5.861  -0.317  1.3981 -2.3638  0.9772
  311MOL0     H41931   4.598   5.797  -0.293 -0.0455  0.6384 -0.0552
  311MOL0     H41932   4.607   5.946  -0.053  1.3412  2.6966  1.0905
  311MOL0     H41933   4.699   6.057  -0.163 -0.1676  0.0778  0.7154
  311MOL0     H41934   4.520   6.019  -0.340  0.6747 -1.0062  0.0350
  311MOL0     H41935   4.477   6.123  -0.208  0.0077  1.3086 -2.2976
  311MOL0     H41936   4.323   6.022   0.002  0.7560 -1.7854  1.6742
  311MOL0     H41937   4.085   5.896   0.096  1.0059 -0.2561  2.9861
  311MOL0     H41938   4.065   5.742   0.003 -0.0331 -0.5800 -1.0339
  311MOL0     H41939   4.178   5.755   0.252 -0.6667  2.3487 -0.0489
  311MOL0     H41940   4.317   5.789   0.171 -0.8167  1.4641  0.8530
  311MOL0     H41941   4.316   5.588   0.035 -2.2837 -1.2640 -2.6817
  311MOL0     H41942   4.153   5.546   0.079 -0.0656  0.4074 -0.8140
  311MOL0     H41943   4.333   5.408   0.211  6.5285  0.9106  2.2010
  311MOL0     H41944   4.253   5.510   0.326 -0.0696 -3.4131 -0.1371
  311MOL0     H41945   4.664   5.624   0.358 -1.5630  2.0890 -2.4504
  311MOL0     H41946   4.961   5.640   0.275 -0.6314 -0.6533 -0.7369
  311MOL0     H41947   4.870   5.581   0.409  1.7526  3.9751 -0.3077
  311MOL0     H41948   4.978   5.462   0.323  0.6052 -1.1416  0.9506
  311MOL0     H41949   5.031   5.081  -0.076 -1.0363  0.7448  1.5946
  311MOL0     H41950   5.232   5.036  -0.222  1.3448  0.3497 -3.4684
  311MOL0     H41951   5.369   5.274  -0.546  1.3765  0.4447 -0.8667
  311MOL0     H41952   5.459   5.362  -0.417 -0.7094  1.1945 -1.4098
  311MOL0     H41953   5.540   5.102  -0.561 -3.4158 -1.0214  2.3822
  311MOL0     H41954   5.612   5.264  -0.585  1.5201  2.1041  1.7875
  311MOL0     H41955   5.660   5.240  -0.320  0.2664  1.8504 -0.6962
  311MOL0     H41956   5.765   5.187  -0.459  1.6359  0.6815  2.2399
  311MOL0     H41957   5.573   5.000  -0.345  0.2500  0.4990  1.8509
  311MOL0     H41958   5.722   4.995  -0.454 -0.0953  1.8359 -0.4855
  311MOL0     H41959   5.690   5.028  -0.156  0.0542  1.7961 -0.4246
  311MOL0     H41960   5.839   5.086  -0.238  1.4751 -1.5876 -2.3565
  311MOL0     H41961   5.709   4.816  -0.262 -0.0129  0.0608  0.3686
  311MOL0     H41962   5.876   4.849  -0.324 -0.6035  1.2874 -0.5209
  311MOL0     H41963   5.831   4.739  -0.076  0.9865 -1.9521 -1.8731
  311MOL0     H41964   5.891   4.905  -0.041  0.7914  0.1000 -0.9102
  311MOL0     H41965   6.067   4.754  -0.039 -0.3197  1.1202  0.8979
  311MOL0     H41966   6.093   4.857  -0.177  1.4001  0.2847  2.7318
  311MOL0     H41967   5.232   5.426  -0.386  3.7650 -2.6190 -1.1231
  311MOL0     H41968   5.047   5.478  -0.286 -0.0734 -0.3184 -0.8198
  311MOL0     H41969   4.669   5.368  -0.066  0.9287 -0.9872 -0.9842
  311MOL0     H41970   4.471   5.406   0.040  1.3388 -1.6396 -1.3592
  311MOL0     H41971   5.562   5.897  -0.022  1.0178 -0.2457 -0.7476
  311MOL0     H41972   5.747   5.750  -0.046  0.7005  0.2317 -0.4133
  311MOL0     H41973   5.914   5.326  -0.128 -0.1450 -1.2523  0.0675
  311MOL0     H41974   6.108   5.182  -0.094  0.1669  1.1112 -0.6367
  311MOL0     H41975   6.224   5.111   0.324  1.5270  2.6228 -2.8231
  311MOL0     H41976   6.173   4.954   0.276  1.6598 -1.4427 -0.1138
  311MOL0     H41977   6.372   4.901   0.166 -1.6210 -0.2730 -0.4430
  311MOL0     H41978   6.397   4.955   0.338 -1.8772  0.3698  0.8350
  311MOL0     H41979   6.489   5.128   0.090 -0.4073  2.1053  0.5749
  311MOL0     H41980   6.579   5.044   0.211  1.2935  0.6750 -2.0873
  311MOL0     H41981   6.372   5.281   0.257 -1.4639 -1.9361  0.2005
  311MOL0     H41982   6.545   5.291   0.253  1.7909 -1.2627  0.2725
  311MOL0     H41983   6.480   5.161   0.648  1.0600  1.7092  0.3579
  311MOL0     H41984   6.033   5.182   0.327 -3.9264  2.7447  2.7925
  311MOL0     H41985   5.841   5.346   0.290 -0.2369 -1.4107  1.1986
  312MOL0     O41986   4.270   2.906  11.378 -0.1601  0.3665  0.3744
  312MOL0     C41987   4.322   3.002  11.313  0.4545  0.0972 -0.1346
  312MOL0     O41988   4.262   3.131  11.297 -0.3891  0.6241 -0.1641
  312MOL0     C41989   4.169   3.170  11.385  0.2958 -0.4431  0.5995
  312MOL0     C41990   4.034   3.139  11.359  0.6465  0.1954 -1.5439
  312MOL0     C41991   3.932   3.177  11.449  0.9572 -0.4348 -0.2005
  312MOL0     C41992   3.959   3.256  11.561  0.6160  0.4736  0.3710
  312MOL0     O41993   3.857   3.285  11.652 -0.3962 -1.1550 -0.8326
  312MOL0     C41994   3.863   3.405  11.733  0.4367  0.7622  0.0262
  312MOL0     C41995   3.721   3.398  11.804  0.3767  0.3764  0.0473
  312MOL0     C41996   3.681   3.545  11.836 -0.0452  0.0928 -0.6078
  312MOL0     C41997   3.785   3.615  11.939  1.0716 -0.1009  0.9012
  312MOL0     C41998   3.727   3.751  11.992 -1.1867  0.9081  0.4818
  312MOL0     C41999   3.719   3.850  11.870  0.0331 -0.7448 -0.8565
  312MOL0     C42000   3.694   3.991  11.929 -0.7766  0.3797 -0.3673
  312MOL0     C42001   3.563   4.016  12.009 -0.1088  0.0026 -0.3760
  312MOL0     N42002   3.545   4.161  12.035 -0.3899  0.1698  0.5580
  312MOL0     C42003   3.650   4.241  12.071 -0.3825 -0.4032  0.1755
  312MOL0     C42004   3.623   4.373  12.045 -0.1888  0.6944 -0.0518
  312MOL0     C42005   3.711   4.486  12.056 -0.4968 -0.2997  0.0489
  312MOL0     C42006   3.655   4.588  12.153  0.1452  0.1270  0.5876
  312MOL0     C42007   3.685   4.735  12.117  0.4888 -0.1618 -0.3754
  312MOL0     C42008   3.602   4.829  12.200 -0.4593  0.4074 -0.2895
  312MOL0     O42009   3.658   4.823  12.331  0.2659  0.3507 -0.3318
  312MOL0     C42010   3.648   4.925  12.422  0.8975 -0.1911  0.5185
  312MOL0     C42011   3.748   5.026  12.440  0.3385 -1.1402  0.1851
  312MOL0     C42012   3.737   5.124  12.544 -0.2461  0.0921  0.2729
  312MOL0     C42013   3.854   5.224  12.546 -0.6654  0.3733 -0.7528
  312MOL0     C42014   3.635   5.115  12.641 -0.2031  0.1967  0.3365
  312MOL0     C42015   3.624   5.201  12.761 -0.0764  0.1634  0.4472
  312MOL0     O42016   3.529   5.164  12.860 -0.2223 -0.4698  0.8677
  312MOL0     C42017   3.521   5.228  12.983 -0.6488 -1.1434  0.0663
  312MOL0     C42018   3.486   5.160  13.090  0.1062  0.8288 -0.6508
  312MOL0     C42019   3.440   5.228  13.208  0.1445 -0.3952 -0.4275
  312MOL0     C42020   3.439   5.358  13.217  0.0730  0.0136 -0.2704
  312MOL0     O42021   3.400   5.419  13.331 -0.6970 -0.5119 -0.3891
  312MOL0     C42022   3.285   5.512  13.330  0.3173 -0.3805  0.5499
  312MOL0     C42023   3.224   5.510  13.471 -0.4389  0.3987  0.1006
  312MOL0     C42024   3.139   5.384  13.493 -0.1406  0.5009  0.4628
  312MOL0     C42025   3.069   5.368  13.635  0.8582  0.4194 -0.5327
  312MOL0     C42026   2.959   5.255  13.641 -0.5267 -0.1987 -0.8624
  312MOL0     C42027   2.848   5.256  13.551 -0.7778 -0.2466 -0.2472
  312MOL0     C42028   2.751   5.140  13.571  0.0150  0.2052 -0.2383
  312MOL0     C42029   2.652   5.124  13.453  0.1600  1.0423  0.1039
  312MOL0    Cl42030   2.517   5.234  13.491  0.2530 -0.4522  0.1973
  312MOL0     C42031   3.493   5.435  13.115  0.6164  0.9691  0.1347
  312MOL0     C42032   3.523   5.370  12.994  0.9434  0.1112 -0.2294
  312MOL0     O42033   3.681   5.308  12.756  0.0230  0.9164 -0.2579
  312MOL0     C42034   3.535   5.021  12.614 -0.2365 -0.9942  0.1654
  312MOL0     C42035   3.538   4.932  12.501  0.8510  0.0398  0.4132
  312MOL0     N42036   3.502   4.369  11.983  0.5694 -0.0887  0.5636
  312MOL0     N42037   3.457   4.249  11.978 -0.0473  0.7359 -0.1744
  312MOL0     C42038   4.098   3.287  11.595 -0.5846 -0.4962 -0.0790
  312MOL0     C42039   4.200   3.236  11.505 -0.4582 -0.5807 -0.3772
  312MOL0     C42040   4.440   2.981  11.235 -0.6757 -0.3003  0.5631
  312MOL0     C42041   4.484   2.853  11.214  0.0903  0.4718  0.3419
  312MOL0     C42042   4.602   2.832  11.145 -0.2481  0.5109 -0.4930
  312MOL0     C42043   4.667   2.936  11.069  0.5971 -0.2612  0.0517
  312MOL0     O42044   4.773   2.903  10.987 -0.3003 -0.0675  0.2700
  312MOL0     C42045   4.880   2.992  10.958 -0.3447 -0.6657  0.5511
  312MOL0     C42046   5.007   2.902  10.930  0.1332 -0.1097 -0.6348
  312MOL0     C42047   5.038   2.817  11.063  0.6688  0.0010 -0.0968
  312MOL0     C42048   5.183   2.754  11.064 -0.1278  0.3009  0.0526
  312MOL0     C42049   5.289   2.854  11.027 -0.3612  0.3773  0.4302
  312MOL0     C42050   5.379   2.938  11.000  0.1134  0.6167 -0.1318
  312MOL0     C42051   4.615   3.065  11.087  1.0025 -0.0186  0.4066
  312MOL0     C42052   4.500   3.090  11.169 -0.2368  0.0596 -0.5993
  312MOL0     H42053   4.004   3.078  11.275 -0.5485 -2.8963  0.9223
  312MOL0     H42054   3.834   3.140  11.421 -1.2795  1.7161  3.7365
  312MOL0     H42055   3.943   3.407  11.807  0.2155  0.0295  0.2946
  312MOL0     H42056   3.869   3.487  11.661 -0.3150 -0.9635 -2.0916
  312MOL0     H42057   3.648   3.354  11.736 -0.4966  1.6695  0.1001
  312MOL0     H42058   3.724   3.350  11.903  0.2004  4.2927  2.1706
  312MOL0     H42059   3.675   3.611  11.749 -3.3142  3.0090  1.5703
  312MOL0     H42060   3.584   3.544  11.885  0.6602 -0.7322  0.8614
  312MOL0     H42061   3.784   3.556  12.031  0.5632  0.8291  1.5106
  312MOL0     H42062   3.887   3.636  11.903  1.2794  0.2065  1.6633
  312MOL0     H42063   3.624   3.738  12.025 -1.1676 -1.2819 -0.1627
  312MOL0     H42064   3.796   3.793  12.066  0.1701  1.3432 -0.9869
  312MOL0     H42065   3.800   3.855  11.797 -0.3238  2.2264 -1.1892
  312MOL0     H42066   3.627   3.827  11.815  1.2002 -2.8672 -2.0594
  312MOL0     H42067   3.780   4.023  11.989 -0.4503  0.1539 -0.7115
  312MOL0     H42068   3.702   4.051  11.838  0.6849  0.0101 -0.5046
  312MOL0     H42069   3.574   3.966  12.106  2.3858 -2.5829 -1.8402
  312MOL0     H42070   3.490   3.974  11.939 -0.3452  1.9559 -1.3925
  312MOL0     H42071   3.753   4.216  12.098  0.5990  0.4048 -2.5457
  312MOL0     H42072   3.811   4.457  12.089  1.5582  4.5099 -0.9980
  312MOL0     H42073   3.718   4.517  11.951 -1.8091 -3.8163 -1.2271
  312MOL0     H42074   3.692   4.575  12.255  0.4084  3.8178  1.0924
  312MOL0     H42075   3.546   4.579  12.148  0.2208 -0.1597 -1.3389
  312MOL0     H42076   3.674   4.756  12.011  2.8309  1.2749 -0.4239
  312MOL0     H42077   3.794   4.751  12.123  0.2590  0.9912  1.8700
  312MOL0     H42078   3.493   4.815  12.199 -0.4636  0.2405 -2.1787
  312MOL0     H42079   3.612   4.928  12.153 -1.3864  2.5663  3.6754
  312MOL0     H42080   3.829   5.029  12.368 -1.1917 -1.3056 -1.6170
  312MOL0     H42081   3.942   5.172  12.506 -0.9117 -2.9415  2.4412
  312MOL0     H42082   3.848   5.319  12.494  3.8394  1.2481 -0.1284
  312MOL0     H42083   3.885   5.237  12.650 -0.0152  1.6493 -1.0888
  312MOL0     H42084   3.471   5.056  13.063  0.0736  0.5543  0.3781
  312MOL0     H42085   3.387   5.173  13.286  0.5720  0.7756  0.7342
  312MOL0     H42086   3.326   5.612  13.315  0.6692 -0.2668  2.0485
  312MOL0     H42087   3.204   5.483  13.262  0.9889 -0.3648 -0.2701
  312MOL0     H42088   3.303   5.534  13.543  3.0077  1.0137 -3.5402
  312MOL0     H42089   3.154   5.594  13.482 -0.5170  0.0600  2.7644
  312MOL0     H42090   3.206   5.300  13.476  0.4095  0.9878  0.2004
  312MOL0     H42091   3.067   5.374  13.411  1.7138 -0.5279 -1.1073
  312MOL0     H42092   3.144   5.347  13.712  1.0681  2.1130 -0.2355
  312MOL0     H42093   3.018   5.461  13.663 -2.3197 -1.6821  1.1562
  312MOL0     H42094   2.925   5.268  13.744 -0.7925  2.3984 -1.2267
  312MOL0     H42095   3.013   5.161  13.628  1.0755  0.4447  0.7502
  312MOL0     H42096   2.793   5.350  13.560 -2.4116 -1.2915  1.4810
  312MOL0     H42097   2.892   5.258  13.451 -0.0870 -3.7651 -0.1129
  312MOL0     H42098   2.689   5.154  13.660  0.0536 -0.6726 -0.0611
  312MOL0     H42099   2.806   5.045  13.575 -0.1662  0.0586 -1.0435
  312MOL0     H42100   2.613   5.025  13.431 -4.1683  2.6387 -0.4640
  312MOL0     H42101   2.692   5.159  13.357 -1.8977 -1.2456 -1.6951
  312MOL0     H42102   3.493   5.543  13.118 -0.4964  0.9948  3.5278
  312MOL0     H42103   3.537   5.439  12.911 -2.0154  1.2910  0.1318
  312MOL0     H42104   3.449   5.018  12.680 -0.5770  0.9216 -0.1234
  312MOL0     H42105   3.462   4.855  12.495 -1.1794  1.9559  0.3860
  312MOL0     H42106   4.131   3.340  11.684 -1.0379  1.7890 -1.2014
  312MOL0     H42107   4.303   3.234  11.542 -1.1628  2.9866  2.3363
  312MOL0     H42108   4.423   2.770  11.249  0.6671 -0.7585 -1.4018
  312MOL0     H42109   4.637   2.730  11.129 -2.9145 -0.2827 -1.7780
  312MOL0     H42110   4.846   3.054  10.875 -3.4671 -2.3778  0.4037
  312MOL0     H42111   4.903   3.060  11.041  1.2063  0.0510 -0.4191
  312MOL0     H42112   5.086   2.963  10.886  2.9784 -2.8509  0.3505
  312MOL0     H42113   4.991   2.831  10.849  3.8461 -0.2969 -1.3742
  312MOL0     H42114   4.961   2.740  11.072 -0.4140  1.0673  0.0077
  312MOL0     H42115   5.032   2.873  11.157 -1.8873 -0.8523  0.3156
  312MOL0     H42116   5.190   2.664  11.003 -2.1468 -0.0166  0.2186
  312MOL0     H42117   5.198   2.718  11.166  0.8133 -1.1474 -0.5770
  312MOL0     H42118   5.453   3.010  10.973  1.2747 -0.3811  0.3001
  312MOL0     H42119   4.661   3.150  11.037 -0.6641  1.5604  1.4064
  312MOL0     H42120   4.473   3.194  11.188  0.4441  0.3028 -0.9220
  313MOL0     O42121   5.793   7.707   1.827  0.6771 -0.4569  0.4117
  313MOL0     C42122   5.877   7.615   1.815  0.2226  0.8180  0.5076
  313MOL0     O42123   5.845   7.488   1.772  0.1535  0.1493  0.2096
  313MOL0     C42124   5.723   7.467   1.707 -0.1293 -0.8553  0.4865
  313MOL0     C42125   5.712   7.421   1.573 -0.1102 -0.2395  0.2917
  313MOL0     C42126   5.582   7.394   1.515  0.0697 -0.9300 -0.3962
  313MOL0     C42127   5.466   7.435   1.591 -0.3650 -0.2653 -0.2551
  313MOL0     O42128   5.331   7.431   1.559 -0.4812 -0.0749 -0.4756
  313MOL0     C42129   5.302   7.397   1.420  0.2891 -0.2229 -0.1892
  313MOL0     C42130   5.160   7.429   1.378  0.1647 -0.6627 -0.3802
  313MOL0     C42131   5.137   7.582   1.353  0.6273  0.1218 -0.8244
  313MOL0     C42132   4.993   7.609   1.315 -0.5590  0.0200  0.1407
  313MOL0     C42133   4.996   7.753   1.263  0.2478 -1.0111  0.8586
  313MOL0     C42134   4.980   7.849   1.381  0.2615  0.6506 -0.2865
  313MOL0     C42135   4.995   7.996   1.336 -0.0759 -0.4885 -0.8746
  313MOL0     C42136   4.951   8.047   1.205 -0.4574 -0.1926  0.1342
  313MOL0     N42137   5.057   8.079   1.110 -0.3736  0.2873 -0.2397
  313MOL0     C42138   5.121   8.202   1.090  0.7452  0.1095  0.1840
  313MOL0     C42139   5.216   8.175   0.999 -0.8883  0.8480  0.0280
  313MOL0     C42140   5.308   8.271   0.926 -0.2378 -0.7993 -0.2442
  313MOL0     C42141   5.451   8.251   0.969  0.6470  0.7913 -0.0516
  313MOL0     C42142   5.514   8.130   0.913  0.3490  0.2634 -0.9810
  313MOL0     C42143   5.662   8.131   0.945  0.9690  0.1327  0.8855
  313MOL0     O42144   5.732   8.027   0.875  0.3978  0.3773  0.0217
  313MOL0     C42145   5.831   7.958   0.940  1.3391 -0.0362  0.3857
  313MOL0     C42146   5.817   7.887   1.058 -0.3972  0.3925  0.3795
  313MOL0     C42147   5.914   7.802   1.107  0.1471  0.1731 -0.3516
  313MOL0     C42148   5.895   7.707   1.224  0.1130 -0.0327  0.2803
  313MOL0     C42149   6.040   7.795   1.040  0.1598  0.3018  0.5297
  313MOL0     C42150   6.157   7.701   1.065  0.3187  1.2121  0.1972
  313MOL0     O42151   6.287   7.732   1.020  0.0688 -0.2886  0.2254
  313MOL0     C42152   6.398   7.689   1.082 -0.3086 -0.2244 -1.0249
  313MOL0     C42153   6.526   7.674   1.018 -0.5719  0.2015  0.6204
  313MOL0     C42154   6.634   7.636   1.093  0.2252 -0.3599 -0.8724
  313MOL0     C42155   6.624   7.609   1.235  0.1779 -0.5553 -0.1903
  313MOL0     O42156   6.730   7.558   1.311 -0.0908  0.2050 -0.3935
  313MOL0     C42157   6.854   7.555   1.250  0.4028 -0.4115 -0.5633
  313MOL0     C42158   6.966   7.549   1.348 -0.4622 -0.8505  0.3057
  313MOL0     C42159   6.946   7.640   1.474 -0.3702  0.4782 -0.0050
  313MOL0     C42160   7.058   7.628   1.572 -0.6038 -0.5367  0.2519
  313MOL0     C42161   7.193   7.680   1.518  0.2085  0.0194  0.7723
  313MOL0     C42162   7.309   7.629   1.607 -0.1643  0.3499  0.3981
  313MOL0     C42163   7.454   7.670   1.556 -0.0784 -0.3657  0.2340
  313MOL0     C42164   7.551   7.552   1.572 -0.9570  0.3767  0.6612
  313MOL0    Cl42165   7.722   7.595   1.520 -0.6193  0.2211 -0.0962
  313MOL0     C42166   6.507   7.640   1.299 -0.0535 -0.6327  0.2073
  313MOL0     C42167   6.393   7.675   1.226 -0.0322 -0.0823 -0.2407
  313MOL0     O42168   6.127   7.587   1.115 -0.7019  0.2512 -0.7421
  313MOL0     C42169   6.056   7.874   0.923  0.1641 -0.1138 -0.6688
  313MOL0     C42170   5.949   7.953   0.873 -0.4703  0.7955 -0.2117
  313MOL0     N42171   5.215   8.037   0.972  0.1578 -0.5799 -0.4563
  313MOL0     N42172   5.128   7.985   1.045 -0.2439  0.1130  0.2523
  313MOL0     C42173   5.478   7.463   1.723  0.1333  0.1951  0.0729
  313MOL0     C42174   5.604   7.476   1.790  0.1202 -0.0628  0.0926
  313MOL0     C42175   6.014   7.641   1.846  0.1465 -0.4917  0.1129
  313MOL0     C42176   6.097   7.555   1.925  0.3948 -0.1125 -0.4485
  313MOL0     C42177   6.232   7.574   1.952  0.2436 -0.4757 -1.8395
  313MOL0     C42178   6.289   7.694   1.907  0.3898  0.2282  1.0046
  313MOL0     O42179   6.417   7.730   1.940  0.2297  0.1214 -0.3910
  313MOL0     C42180   6.476   7.670   2.054  1.0106 -0.2734 -0.6510
  313MOL0     C42181   6.570   7.777   2.120  0.6292  0.0491  1.4215
  313MOL0     C42182   6.678   7.815   2.017 -0.0001  0.7256 -0.2177
  313MOL0     C42183   6.724   7.960   2.020 -0.7839 -0.2057  0.2178
  313MOL0     C42184   6.800   7.993   1.896  0.4351 -0.1689 -0.1150
  313MOL0     C42185   6.862   8.046   1.802  0.3142  0.5559 -0.4281
  313MOL0     C42186   6.209   7.786   1.838  0.0788  0.1942 -0.8068
  313MOL0     C42187   6.073   7.764   1.808 -0.5312 -0.0414 -0.2413
  313MOL0     H42188   5.795   7.394   1.509 -1.0559 -4.7175  0.5881
  313MOL0     H42189   5.575   7.353   1.415 -0.4709  0.2117 -0.8517
  313MOL0     H42190   5.369   7.439   1.345  0.3974 -2.4512 -1.4470
  313MOL0     H42191   5.316   7.288   1.416  0.6496 -0.1346 -1.6999
  313MOL0     H42192   5.146   7.365   1.291 -1.0664 -1.9392  0.7201
  313MOL0     H42193   5.094   7.397   1.459  0.6615 -0.1789  0.2273
  313MOL0     H42194   5.165   7.642   1.440 -3.5848  1.1798  0.0419
  313MOL0     H42195   5.187   7.611   1.260 -1.0172  2.8033 -1.0042
  313MOL0     H42196   4.955   7.547   1.233 -3.2890  5.0098 -2.8156
  313MOL0     H42197   4.919   7.605   1.396 -2.4920  1.4649 -1.4652
  313MOL0     H42198   5.082   7.777   1.201  0.8738 -1.6879  1.4506
  313MOL0     H42199   4.909   7.763   1.198 -0.8812  2.8585  2.6620
  313MOL0     H42200   4.886   7.826   1.432  1.2967  0.9077  1.8401
  313MOL0     H42201   5.066   7.841   1.448 -0.6157  3.5379  1.3614
  313MOL0     H42202   4.931   8.040   1.413 -4.2109 -2.6835 -2.7542
  313MOL0     H42203   5.099   8.025   1.356 -0.2227 -0.6816  0.2388
  313MOL0     H42204   4.890   8.138   1.209  2.4310  1.8378  1.5531
  313MOL0     H42205   4.883   7.975   1.159  0.9710 -2.7069  1.7628
  313MOL0     H42206   5.107   8.303   1.127 -1.3890  0.7478 -2.0807
  313MOL0     H42207   5.289   8.260   0.819 -0.3629  0.9347 -0.4242
  313MOL0     H42208   5.273   8.374   0.940  1.3829  0.6303 -4.9240
  313MOL0     H42209   5.439   8.261   1.077  3.6344  3.1335  0.1921
  313MOL0     H42210   5.510   8.337   0.935  0.0315  0.6535 -1.5546
  313MOL0     H42211   5.496   8.121   0.806 -3.3854 -2.5766 -0.3132
  313MOL0     H42212   5.471   8.039   0.956  1.2760 -0.0853 -0.7490
  313MOL0     H42213   5.681   8.120   1.052  0.8457  1.4879  1.0618
  313MOL0     H42214   5.693   8.230   0.911  0.8786  0.5122  1.8740
  313MOL0     H42215   5.729   7.906   1.119  0.1998  1.1694  1.0211
  313MOL0     H42216   5.974   7.703   1.300  1.4117 -1.3593 -1.0872
  313MOL0     H42217   5.802   7.732   1.278 -0.7165  0.1305 -1.1790
  313MOL0     H42218   5.875   7.609   1.180 -2.4564  2.2432 -4.3754
  313MOL0     H42219   6.526   7.684   0.909  2.3337 -3.2883  0.1029
  313MOL0     H42220   6.720   7.610   1.032 -1.4075  0.8496 -3.8723
  313MOL0     H42221   6.869   7.469   1.185  2.3571 -0.7887  0.3031
  313MOL0     H42222   6.864   7.648   1.193  0.0538  1.8255  2.6979
  313MOL0     H42223   6.955   7.442   1.369 -0.0983 -1.3030 -1.6749
  313MOL0     H42224   7.058   7.554   1.289 -0.2328 -5.9415 -0.1750
  313MOL0     H42225   6.846   7.622   1.515 -0.7033 -0.3041 -1.1079
  313MOL0     H42226   6.938   7.745   1.442 -0.9022  0.2121 -0.7837
  313MOL0     H42227   7.030   7.691   1.657  1.4795  1.1528 -0.2301
  313MOL0     H42228   7.080   7.526   1.605  0.9930 -1.2622 -2.6820
  313MOL0     H42229   7.174   7.787   1.501 -2.0615 -0.5020 -0.4698
  313MOL0     H42230   7.222   7.647   1.418  0.6712 -0.4926  1.0714
  313MOL0     H42231   7.312   7.656   1.713  4.1740  0.0646  0.5104
  313MOL0     H42232   7.313   7.521   1.623  0.3342  0.4274  0.8255
  313MOL0     H42233   7.497   7.751   1.616  0.9403 -1.0438  0.4518
  313MOL0     H42234   7.453   7.717   1.458  2.8057  0.7571  0.6481
  313MOL0     H42235   7.501   7.471   1.518 -4.1470  2.4515  0.1883
  313MOL0     H42236   7.566   7.516   1.674  3.1780  0.8164  0.3783
  313MOL0     H42237   6.507   7.624   1.407  1.6111 -1.3581  0.1239
  313MOL0     H42238   6.302   7.705   1.278  0.8138 -0.6325  1.6380
  313MOL0     H42239   6.155   7.869   0.877  0.2442 -0.6137 -0.4404
  313MOL0     H42240   5.964   8.004   0.779 -2.0338  1.3200 -0.2094
  313MOL0     H42241   5.398   7.480   1.794 -0.4127  1.6373 -0.8432
  313MOL0     H42242   5.611   7.495   1.896  1.5265 -2.9262  0.6312
  313MOL0     H42243   6.060   7.459   1.957  0.3255  0.4249  1.1462
  313MOL0     H42244   6.288   7.504   2.014  0.5459  0.3170 -1.1948
  313MOL0     H42245   6.400   7.644   2.129  1.6757 -0.0392  0.1114
  313MOL0     H42246   6.524   7.573   2.041 -1.5542 -1.6576 -0.3932
  313MOL0     H42247   6.605   7.732   2.213  0.4808  0.0687  1.4868
  313MOL0     H42248   6.504   7.862   2.141 -1.5764 -1.0682 -0.5063
  313MOL0     H42249   6.635   7.812   1.917 -2.4728  5.6860  0.4033
  313MOL0     H42250   6.757   7.739   2.017 -2.1394 -1.6186 -0.0092
  313MOL0     H42251   6.796   7.962   2.102 -1.1451  1.4267  0.5404
  313MOL0     H42252   6.643   8.030   2.042 -0.5927  0.7985 -1.9709
  313MOL0     H42253   6.912   8.100   1.724 -0.0777 -0.0212 -1.0902
  313MOL0     H42254   6.259   7.879   1.814 -1.7228  1.1841 -0.9147
  313MOL0     H42255   6.023   7.850   1.764 -2.6679  0.9510  3.7051
  314MOL0     O42256   5.279   7.908   5.342 -0.0253 -0.1697 -0.0579
  314MOL0     C42257   5.184   7.936   5.264  0.0397 -0.1355  0.3657
  314MOL0     O42258   5.110   8.053   5.279  0.6800  0.1581  0.1956
  314MOL0     C42259   5.083   8.125   5.389 -1.4278 -0.8973 -0.6229
  314MOL0     C42260   4.960   8.189   5.392  0.5684  0.5810 -0.6455
  314MOL0     C42261   4.929   8.280   5.497 -0.0737 -0.1450 -0.3905
  314MOL0     C42262   5.029   8.303   5.598 -0.0149  0.4855  0.0669
  314MOL0     O42263   4.987   8.374   5.709  0.2813  0.5874  0.4999
  314MOL0     C42264   5.066   8.367   5.823  0.0811  0.4715 -0.4233
  314MOL0     C42265   5.007   8.473   5.912  0.0803  0.5463 -0.8102
  314MOL0     C42266   4.913   8.405   6.016 -0.4087  0.9201 -0.1156
  314MOL0     C42267   4.861   8.508   6.116  0.3426 -0.5690  1.0900
  314MOL0     C42268   4.780   8.465   6.240 -0.5717  0.3524  0.5081
  314MOL0     C42269   4.754   8.566   6.349 -0.2941 -0.3859 -0.2902
  314MOL0     C42270   4.673   8.524   6.468  0.5656  0.1790  0.4611
  314MOL0     C42271   4.522   8.497   6.436  0.2604  0.0134  0.6225
  314MOL0     N42272   4.473   8.406   6.535  0.8051  0.0446 -0.5730
  314MOL0     C42273   4.452   8.273   6.528  0.2126  0.1216 -0.8311
  314MOL0     C42274   4.420   8.235   6.654 -0.1363  1.0352 -0.0382
  314MOL0     C42275   4.375   8.091   6.686  0.1590  0.4864 -0.4077
  314MOL0     C42276   4.239   8.065   6.623 -0.2957  0.3563  0.7542
  314MOL0     C42277   4.181   7.930   6.661  0.6621 -0.3612  0.4662
  314MOL0     C42278   4.042   7.896   6.603 -0.4969  0.3970 -0.1547
  314MOL0     O42279   3.979   7.805   6.686  1.0160 -0.3984 -0.2685
  314MOL0     C42280   3.844   7.762   6.661 -0.0245  0.3535  0.3336
  314MOL0     C42281   3.754   7.842   6.582 -0.1591 -0.2882 -0.0767
  314MOL0     C42282   3.617   7.809   6.591  0.4324  0.1174  1.2933
  314MOL0     C42283   3.537   7.906   6.505  0.9017 -1.2966  0.2468
  314MOL0     C42284   3.573   7.702   6.670  0.1612  0.3512 -0.0387
  314MOL0     C42285   3.440   7.647   6.650  0.6511  0.2454  0.1277
  314MOL0     O42286   3.388   7.567   6.760 -1.0302 -0.1178  1.0443
  314MOL0     C42287   3.260   7.525   6.743  0.9868  0.2245  0.3198
  314MOL0     C42288   3.165   7.574   6.830 -0.1113 -0.3641  0.3661
  314MOL0     C42289   3.033   7.528   6.830 -0.0793 -0.8547 -0.0030
  314MOL0     C42290   2.995   7.425   6.741 -0.6111  1.1868 -0.1677
  314MOL0     O42291   2.872   7.383   6.714  0.2396 -0.3895  0.6607
  314MOL0     C42292   2.787   7.347   6.829 -0.8035 -0.1307  0.3526
  314MOL0     C42293   2.720   7.206   6.796 -1.1554 -0.5603 -0.1994
  314MOL0     C42294   2.829   7.093   6.810 -0.5703  0.6151  0.1178
  314MOL0     C42295   2.781   6.958   6.763 -0.7100 -0.8555  0.3483
  314MOL0     C42296   2.901   6.858   6.746 -0.2372 -0.2112 -0.4860
  314MOL0     C42297   2.933   6.786   6.876 -0.6217 -0.0321 -0.2564
  314MOL0     C42298   3.033   6.681   6.829  0.2582  0.2384  0.2971
  314MOL0     C42299   3.066   6.570   6.952 -0.7679 -0.4608  0.5051
  314MOL0    Cl42300   2.914   6.494   7.001 -0.3607  0.3390 -0.0224
  314MOL0     C42301   3.087   7.369   6.657  0.0074 -0.7294  0.5916
  314MOL0     C42302   3.224   7.418   6.653  0.3109 -0.9913 -0.4470
  314MOL0     O42303   3.378   7.671   6.542  0.2045 -0.4303 -1.0974
  314MOL0     C42304   3.654   7.632   6.758 -0.0005 -1.4702  0.3766
  314MOL0     C42305   3.790   7.663   6.745  0.0037 -0.1295  0.2539
  314MOL0     N42306   4.398   8.342   6.733  0.7348 -1.3477  0.2253
  314MOL0     N42307   4.431   8.447   6.663 -0.0979  0.4250 -0.0129
  314MOL0     C42308   5.155   8.234   5.589  0.9017  0.0121 -0.0300
  314MOL0     C42309   5.189   8.151   5.484  0.9581 -0.2071  0.9835
  314MOL0     C42310   5.176   7.877   5.123  0.5312  0.2032 -0.3624
  314MOL0     C42311   5.050   7.860   5.056 -0.4331  0.3953 -0.9120
  314MOL0     C42312   5.051   7.805   4.932  0.4302  0.3957 -1.0841
  314MOL0     C42313   5.170   7.752   4.872  0.5885 -0.4898 -0.1096
  314MOL0     O42314   5.173   7.707   4.741 -0.0915 -0.2357  0.2488
  314MOL0     C42315   5.051   7.716   4.659  0.4452  0.2379 -0.6423
  314MOL0     C42316   4.967   7.589   4.646  0.5262 -0.3465  0.0287
  314MOL0     C42317   4.829   7.640   4.575  0.0705 -0.2802 -0.6058
  314MOL0     C42318   4.708   7.552   4.614  0.2851 -0.0368 -0.2501
  314MOL0     C42319   4.678   7.589   4.756 -0.2402  0.7181  0.6151
  314MOL0     C42320   4.652   7.597   4.871 -0.0163  0.3809 -0.2045
  314MOL0     C42321   5.295   7.763   4.939 -0.0493 -0.7029 -0.2357
  314MOL0     C42322   5.293   7.834   5.062 -0.5094 -0.1143  0.1766
  314MOL0     H42323   4.885   8.156   5.321 -0.7775  0.1668  0.9060
  314MOL0     H42324   4.833   8.329   5.493  0.9300  1.8594 -1.1942
  314MOL0     H42325   5.065   8.265   5.861  0.4973  0.4073 -0.5786
  314MOL0     H42326   5.169   8.392   5.797  0.5059 -0.0418  0.6779
  314MOL0     H42327   5.081   8.527   5.973  0.7444 -1.9794  0.7887
  314MOL0     H42328   4.951   8.546   5.853 -1.6390 -0.3575 -0.3639
  314MOL0     H42329   4.828   8.373   5.956 -0.0789  0.4536 -0.3415
  314MOL0     H42330   4.962   8.321   6.066  0.8145 -0.2744 -3.1029
  314MOL0     H42331   4.938   8.582   6.140  0.2533  0.5602 -1.6850
  314MOL0     H42332   4.791   8.568   6.057  1.6912 -1.9197 -2.1777
  314MOL0     H42333   4.678   8.458   6.201 -0.3068  0.5171 -0.2296
  314MOL0     H42334   4.814   8.376   6.294  0.4860  1.7563  2.2482
  314MOL0     H42335   4.851   8.607   6.379  0.3594 -0.0863 -2.6475
  314MOL0     H42336   4.702   8.649   6.301 -4.1961 -0.3437  3.4169
  314MOL0     H42337   4.732   8.448   6.520  0.7312 -0.1842 -0.2428
  314MOL0     H42338   4.676   8.605   6.541  0.1285  1.6072 -1.0546
  314MOL0     H42339   4.505   8.446   6.340 -1.1570 -3.1857  2.4170
  314MOL0     H42340   4.479   8.598   6.434  3.6874  1.5858  0.1931
  314MOL0     H42341   4.460   8.205   6.444 -1.9436 -0.6291 -0.4855
  314MOL0     H42342   4.449   8.023   6.642  2.3212  2.5447 -0.1437
  314MOL0     H42343   4.374   8.070   6.793  2.6628  0.4779 -0.3147
  314MOL0     H42344   4.244   8.077   6.514 -3.0020  1.6626  0.6769
  314MOL0     H42345   4.161   8.139   6.644 -1.0896  0.7871 -2.8748
  314MOL0     H42346   4.165   7.927   6.769 -1.0023 -3.0524  0.2341
  314MOL0     H42347   4.261   7.860   6.637  1.9706  1.4428 -0.7036
  314MOL0     H42348   4.042   7.861   6.499 -1.5855 -0.9278  0.2581
  314MOL0     H42349   3.983   7.988   6.601 -0.9503  0.1374  0.8064
  314MOL0     H42350   3.780   7.935   6.531 -2.6626  0.5825  0.0729
  314MOL0     H42351   3.455   7.929   6.574  1.9272  0.9899  0.8002
  314MOL0     H42352   3.580   8.005   6.486 -0.6123 -0.5937  0.3430
  314MOL0     H42353   3.513   7.859   6.410  1.6319  0.4002 -0.8245
  314MOL0     H42354   3.199   7.654   6.894  0.2893  1.7241 -2.2551
  314MOL0     H42355   2.956   7.585   6.881  0.4605 -0.6873  0.6365
  314MOL0     H42356   2.832   7.357   6.928 -3.0773  2.7596  1.2384
  314MOL0     H42357   2.700   7.413   6.832 -2.2097 -1.8093 -0.8402
  314MOL0     H42358   2.638   7.170   6.859 -0.2685 -3.6464 -0.6472
  314MOL0     H42359   2.686   7.211   6.692 -2.7191 -1.0687  0.2626
  314MOL0     H42360   2.863   7.088   6.914  0.1215 -1.4465 -0.1558
  314MOL0     H42361   2.916   7.112   6.746 -1.9798 -2.8619 -3.1970
  314MOL0     H42362   2.709   6.924   6.839 -2.8656  1.1182 -0.7208
  314MOL0     H42363   2.724   6.973   6.671 -1.8032  2.6275  1.4373
  314MOL0     H42364   2.991   6.907   6.708  1.7240 -2.9223  0.3476
  314MOL0     H42365   2.871   6.790   6.666  0.2714  0.5203 -1.3079
  314MOL0     H42366   2.986   6.846   6.951 -2.5237 -0.0598  1.2156
  314MOL0     H42367   2.841   6.746   6.921 -1.7669  0.1210 -2.3138
  314MOL0     H42368   3.119   6.732   6.783  0.1143 -0.6561 -1.0116
  314MOL0     H42369   2.987   6.619   6.751 -1.9712 -1.1346  2.5548
  314MOL0     H42370   3.110   6.632   7.031 -1.8974  1.5335 -0.3618
  314MOL0     H42371   3.135   6.491   6.921 -2.1035 -0.7770 -1.8701
  314MOL0     H42372   3.059   7.278   6.605 -2.7138  0.4679 -0.2178
  314MOL0     H42373   3.298   7.378   6.585  0.0057 -0.1762 -1.2905
  314MOL0     H42374   3.622   7.555   6.827  0.0929  0.3549  2.5723
  314MOL0     H42375   3.860   7.619   6.815 -0.4140 -0.3523  0.5312
  314MOL0     H42376   5.239   8.256   5.654  0.9229 -1.6401  0.5492
  314MOL0     H42377   5.291   8.116   5.471  0.6848 -0.1080 -2.1244
  314MOL0     H42378   4.956   7.893   5.098 -0.0783 -1.9452  2.0744
  314MOL0     H42379   4.952   7.793   4.889 -0.0152 -0.1233  0.0548
  314MOL0     H42380   4.983   7.793   4.695 -2.3369 -1.2778 -2.2568
  314MOL0     H42381   5.084   7.744   4.558  1.4650 -0.7329 -0.6027
  314MOL0     H42382   4.936   7.539   4.738 -0.6323 -1.4335 -0.9122
  314MOL0     H42383   5.021   7.514   4.588  0.3252 -0.1439 -0.4250
  314MOL0     H42384   4.848   7.650   4.468  1.0516  0.8188 -0.3510
  314MOL0     H42385   4.796   7.740   4.604 -3.1794 -1.6496  0.9987
  314MOL0     H42386   4.717   7.444   4.597 -1.5194 -0.6582  2.1738
  314MOL0     H42387   4.623   7.593   4.559 -0.3837 -0.7963  0.1919
  314MOL0     H42388   4.641   7.599   4.977  1.5494 -2.4368  0.0961
  314MOL0     H42389   5.392   7.730   4.902  0.5224 -0.9726  1.4232
  314MOL0     H42390   5.387   7.851   5.114 -1.1238 -0.7161  1.5546
  315MOL0     O42391   8.883  10.101   5.154 -0.7345  0.0681 -0.4777
  315MOL0     C42392   8.988  10.130   5.095 -0.2667 -1.4111  0.7483
  315MOL0     O42393   9.002  10.204   4.986  0.0225  0.3065  0.0997
  315MOL0     C42394   8.890  10.254   4.930  0.5614 -0.7022  0.0366
  315MOL0     C42395   8.810  10.357   4.982  1.6469  0.4873  0.8009
  315MOL0     C42396   8.698  10.414   4.910  0.3304 -0.1086 -0.2828
  315MOL0     C42397   8.667  10.355   4.786  0.0675 -0.8990  0.3774
  315MOL0     O42398   8.565  10.392   4.709  0.6027  0.1978  0.1840
  315MOL0     C42399   8.456  10.303   4.723 -0.3077  0.1580  0.0873
  315MOL0     C42400   8.366  10.302   4.605 -1.1383  0.0061 -1.4092
  315MOL0     C42401   8.239  10.221   4.641 -0.9081  0.0643  0.6554
  315MOL0     C42402   8.120  10.247   4.563 -0.2029 -0.4853  0.2283
  315MOL0     C42403   8.095  10.157   4.447 -0.3127 -0.2487 -0.2020
  315MOL0     C42404   8.036  10.019   4.481  0.3120  0.7829  0.6610
  315MOL0     C42405   8.017   9.925   4.358  0.1924 -0.3060 -0.1818
  315MOL0     C42406   7.986   9.788   4.392  0.6394 -0.5541 -0.0912
  315MOL0     N42407   8.084   9.727   4.478 -0.4373 -0.5127  0.1010
  315MOL0     C42408   8.191   9.661   4.427  0.1454  0.1411  0.5190
  315MOL0     C42409   8.257   9.609   4.538 -0.4013 -0.0037  0.9871
  315MOL0     C42410   8.376   9.519   4.527 -0.9612 -0.0078  0.3427
  315MOL0     C42411   8.388   9.408   4.630  0.4223 -0.5168  0.0794
  315MOL0     C42412   8.300   9.294   4.604  0.7659  0.6518 -0.7410
  315MOL0     C42413   8.149   9.319   4.620 -0.4417  0.7541  1.1532
  315MOL0     O42414   8.071   9.196   4.618  0.1393 -0.1452  0.1073
  315MOL0     C42415   7.937   9.212   4.642 -0.1485  0.8043  0.4169
  315MOL0     C42416   7.852   9.099   4.633 -0.4974 -1.0432  1.3589
  315MOL0     C42417   7.726   9.094   4.673  0.9789  0.5024 -0.0586
  315MOL0     C42418   7.656   8.955   4.668  0.4069 -0.5424  0.5653
  315MOL0     C42419   7.668   9.215   4.724 -0.1052 -0.0739 -0.1675
  315MOL0     C42420   7.534   9.225   4.784  0.2095 -0.6684  0.6802
  315MOL0     O42421   7.491   9.346   4.822  0.6962  0.5509  0.0273
  315MOL0     C42422   7.378   9.373   4.895 -0.2772  0.0445  0.7502
  315MOL0     C42423   7.309   9.280   4.975  0.7126 -0.4548 -0.3829
  315MOL0     C42424   7.185   9.301   5.028 -0.5301  0.1282  0.2939
  315MOL0     C42425   7.126   9.434   5.007 -0.2861  0.0715 -0.3598
  315MOL0     O42426   7.003   9.479   5.052 -1.0142  0.8102 -0.4786
  315MOL0     C42427   6.926   9.387   5.136 -0.5813  0.3215 -0.7007
  315MOL0     C42428   6.782   9.435   5.138  0.4731 -1.1038 -0.4447
  315MOL0     C42429   6.719   9.384   5.006 -0.6385 -0.5334 -0.4721
  315MOL0     C42430   6.578   9.449   4.986 -0.8298 -0.4522  0.6608
  315MOL0     C42431   6.522   9.452   4.833 -0.2762  0.8338 -0.3574
  315MOL0     C42432   6.443   9.325   4.812 -0.4081  0.9235  0.0734
  315MOL0     C42433   6.389   9.319   4.667  0.6387  0.1425 -0.3345
  315MOL0     C42434   6.231   9.311   4.676 -0.0677  0.2332  0.5380
  315MOL0    Cl42435   6.163   9.166   4.736  0.2737 -0.2612  0.3459
  315MOL0     C42436   7.195   9.527   4.931 -0.3058 -0.6175 -0.2292
  315MOL0     C42437   7.327   9.500   4.883  0.6194  0.5053  0.0604
  315MOL0     O42438   7.467   9.123   4.794  0.0755  0.2196  0.0543
  315MOL0     C42439   7.739   9.329   4.714 -0.1740 -0.2068 -0.7206
  315MOL0     C42440   7.877   9.330   4.687 -0.1321  0.0002  0.2933
  315MOL0     N42441   8.192   9.654   4.645  0.4319 -0.1094 -0.3418
  315MOL0     N42442   8.089   9.720   4.616  0.0776 -0.2650 -0.7747
  315MOL0     C42443   8.749  10.253   4.733 -0.4784  0.0878  0.2527
  315MOL0     C42444   8.855  10.205   4.804 -0.9126  0.4819 -0.0295
  315MOL0     C42445   9.116  10.074   5.138  0.8673  0.0363 -0.2098
  315MOL0     C42446   9.126   9.990   5.246  0.8935 -0.3304 -0.0123
  315MOL0     C42447   9.250   9.939   5.284 -1.0279 -1.0484 -0.6719
  315MOL0     C42448   9.370   9.969   5.217  0.2979 -0.8205 -0.0488
  315MOL0     O42449   9.499   9.922   5.235  0.8086  0.6368  0.2981
  315MOL0     C42450   9.516   9.778   5.252 -0.0018  0.2464  0.2150
  315MOL0     C42451   9.647   9.755   5.310 -0.0565 -1.0126 -1.5324
  315MOL0     C42452   9.688   9.605   5.335  0.2630 -0.4326  0.1541
  315MOL0     C42453   9.744   9.538   5.212  0.9803  0.2393 -0.1186
  315MOL0     C42454   9.797   9.405   5.246  0.2504 -0.0991  0.2078
  315MOL0     C42455   9.828   9.290   5.268  0.2288  0.6983  0.1894
  315MOL0     C42456   9.353  10.059   5.106  0.2342 -0.9504 -1.2602
  315MOL0     C42457   9.231  10.107   5.069  0.9770 -0.5342 -1.2898
  315MOL0     H42458   8.846  10.392   5.079  1.3033 -3.3843  2.5253
  315MOL0     H42459   8.648  10.496   4.959 -0.4567 -0.4111 -0.5745
  315MOL0     H42460   8.494  10.201   4.729 -2.1535 -0.5607  0.2697
  315MOL0     H42461   8.399  10.340   4.809  2.2613 -1.6247  2.7613
  315MOL0     H42462   8.324  10.403   4.600 -0.8947  0.8438  4.8592
  315MOL0     H42463   8.420  10.266   4.518 -0.8130 -0.4513 -1.0198
  315MOL0     H42464   8.259  10.117   4.615  2.0160  0.6911  0.0847
  315MOL0     H42465   8.210  10.233   4.746 -0.1186 -0.2598  0.9181
  315MOL0     H42466   8.040  10.233   4.637  1.0600 -1.7137  1.4394
  315MOL0     H42467   8.114  10.352   4.534 -4.0784 -1.0468 -1.6407
  315MOL0     H42468   8.035  10.202   4.368 -1.6742 -1.6023  0.0047
  315MOL0     H42469   8.191  10.131   4.401  1.0216  1.2119  1.6122
  315MOL0     H42470   8.102   9.971   4.554 -0.3021 -1.4650 -0.1851
  315MOL0     H42471   7.934  10.017   4.519 -0.0930 -3.7712 -0.1192
  315MOL0     H42472   7.931   9.974   4.310 -1.4570 -1.3330  1.5778
  315MOL0     H42473   8.106   9.919   4.295  0.1422 -0.1389 -0.2711
  315MOL0     H42474   7.973   9.726   4.302  0.8702  0.3792 -0.7825
  315MOL0     H42475   7.890   9.792   4.445  0.5312  1.2343 -0.3844
  315MOL0     H42476   8.214   9.664   4.321  0.0967  0.3690  0.5127
  315MOL0     H42477   8.379   9.485   4.423 -1.8619 -0.2162  0.3735
  315MOL0     H42478   8.467   9.579   4.534 -0.2777 -1.1101  1.2629
  315MOL0     H42479   8.368   9.457   4.726  1.0982 -1.5197  0.7520
  315MOL0     H42480   8.491   9.372   4.625 -1.0544 -5.3362 -2.3189
  315MOL0     H42481   8.341   9.213   4.665 -1.4230  0.3323  0.3902
  315MOL0     H42482   8.321   9.256   4.503 -0.9449  0.0673 -0.9054
  315MOL0     H42483   8.113   9.371   4.531  0.6703 -1.2104 -0.5321
  315MOL0     H42484   8.147   9.384   4.708  0.8383  3.8783 -0.9341
  315MOL0     H42485   7.895   9.008   4.592  0.0371 -0.2372  0.0717
  315MOL0     H42486   7.553   8.956   4.633  0.1159  2.9387  1.1326
  315MOL0     H42487   7.714   8.880   4.614  2.3585 -0.2239  2.0976
  315MOL0     H42488   7.657   8.914   4.769 -0.4274 -2.8142 -0.2819
  315MOL0     H42489   7.361   9.188   4.999  1.1220 -0.2248 -0.3891
  315MOL0     H42490   7.136   9.235   5.097 -1.3831  1.7471  1.3035
  315MOL0     H42491   6.924   9.281   5.111  3.0115  0.6877 -3.3180
  315MOL0     H42492   6.973   9.378   5.235  1.2613  0.7108 -1.4921
  315MOL0     H42493   6.718   9.408   5.222  2.1729  2.0727  2.1147
  315MOL0     H42494   6.781   9.545   5.134 -4.3144 -0.9653 -1.4514
  315MOL0     H42495   6.714   9.275   5.012 -4.6521 -0.4128  1.9487
  315MOL0     H42496   6.777   9.419   4.920 -0.3426  1.1140  0.3591
  315MOL0     H42497   6.503   9.391   5.040  0.9244 -2.9899  0.5479
  315MOL0     H42498   6.566   9.554   5.013 -2.1824 -0.5275  0.4503
  315MOL0     H42499   6.605   9.473   4.765 -0.7205  1.4893 -0.7093
  315MOL0     H42500   6.449   9.534   4.831 -0.6180  0.5173 -1.1751
  315MOL0     H42501   6.514   9.242   4.825 -0.5289  0.9441  0.9071
  315MOL0     H42502   6.370   9.308   4.892  0.4880 -1.4636  0.4697
  315MOL0     H42503   6.420   9.221   4.631  0.2113 -0.0827 -0.0848
  315MOL0     H42504   6.424   9.399   4.601 -2.1047  2.1026  0.4156
  315MOL0     H42505   6.194   9.314   4.573  1.4548  1.8415 -0.0109
  315MOL0     H42506   6.194   9.404   4.721  4.3560  1.1323  2.8787
  315MOL0     H42507   7.144   9.623   4.925  0.3402 -0.2203  0.4279
  315MOL0     H42508   7.382   9.577   4.829  0.0735  1.2697  0.5824
  315MOL0     H42509   7.695   9.426   4.737  1.3821  0.3047  0.2651
  315MOL0     H42510   7.923   9.427   4.697  0.2762 -0.3135  1.6801
  315MOL0     H42511   8.717  10.216   4.636 -2.3906 -0.2760  0.9839
  315MOL0     H42512   8.927  10.133   4.766  1.6014  3.0911 -0.6042
  315MOL0     H42513   9.043   9.962   5.310  2.2937 -2.0617  1.1410
  315MOL0     H42514   9.245   9.878   5.373 -1.7282  0.7513  0.5905
  315MOL0     H42515   9.431   9.725   5.297  0.4951  0.1305  1.0273
  315MOL0     H42516   9.527   9.741   5.150  3.1956 -0.2254  0.6375
  315MOL0     H42517   9.650   9.806   5.407 -1.3446 -0.5592 -1.7193
  315MOL0     H42518   9.724   9.809   5.254  0.2675  3.1978  2.3559
  315MOL0     H42519   9.595   9.556   5.368  0.1309 -0.7319 -0.6415
  315MOL0     H42520   9.765   9.601   5.412  0.6662 -6.7324 -0.1051
  315MOL0     H42521   9.820   9.606   5.173 -0.0566  1.7199  0.3370
  315MOL0     H42522   9.667   9.514   5.137 -0.4119  1.8216  0.7363
  315MOL0     H42523   9.874   9.193   5.276  3.0222  1.9983  1.0660
  315MOL0     H42524   9.448  10.088   5.062  1.6543 -2.2382  0.7537
  315MOL0     H42525   9.223  10.176   4.985 -2.7890 -0.1178 -0.7754
  316MOL0     O42526   9.140   8.934   1.006  0.3142  1.1110 -0.0466
  316MOL0     C42527   9.057   9.013   1.054  0.5045 -0.1928  0.3188
  316MOL0     O42528   8.999   9.006   1.182 -0.4806  0.5404 -0.7873
  316MOL0     C42529   9.033   8.898   1.258  0.7056  0.0802 -0.4545
  316MOL0     C42530   9.026   8.772   1.211  0.0476  0.4572  0.0154
  316MOL0     C42531   9.055   8.672   1.299  0.1832  0.8935  0.5494
  316MOL0     C42532   9.088   8.697   1.435 -0.2799  0.8229 -0.8450
  316MOL0     O42533   9.096   8.585   1.517  0.2642  0.0886  0.2901
  316MOL0     C42534   9.213   8.497   1.497  0.5565 -0.4472 -0.6249
  316MOL0     C42535   9.160   8.353   1.518 -0.3998  0.5117  0.0826
  316MOL0     C42536   9.276   8.249   1.524  0.5374  0.2187  0.2904
  316MOL0     C42537   9.226   8.113   1.558 -0.1206  0.2324  0.4232
  316MOL0     C42538   9.340   8.003   1.532  0.8049 -1.1494  0.7060
  316MOL0     C42539   9.276   7.875   1.593 -0.3467 -0.5647 -0.2726
  316MOL0     C42540   9.389   7.768   1.606  0.9890 -0.1097  0.1956
  316MOL0     C42541   9.441   7.712   1.471  0.3834  0.1299  0.8187
  316MOL0     N42542   9.345   7.611   1.411  0.0879  0.0354 -0.2033
  316MOL0     C42543   9.228   7.632   1.345 -0.6188 -0.5029  0.0240
  316MOL0     C42544   9.203   7.521   1.283 -0.1345 -0.0803 -0.0429
  316MOL0     C42545   9.096   7.488   1.187  0.6912  0.5693  0.4250
  316MOL0     C42546   9.065   7.594   1.079  0.0366  0.5268  0.0771
  316MOL0     C42547   9.178   7.602   0.975 -0.0995 -0.0658  0.2722
  316MOL0     C42548   9.318   7.650   1.023  0.2177  1.1076  1.5917
  316MOL0     O42549   9.316   7.781   1.082 -0.3623 -0.3895  0.4960
  316MOL0     C42550   9.431   7.855   1.080  0.7338  0.0002  0.4459
  316MOL0     C42551   9.413   7.990   1.111 -0.2427  0.1472 -0.8732
  316MOL0     C42552   9.519   8.083   1.092  0.5901  0.5711  0.0867
  316MOL0     C42553   9.482   8.229   1.114 -0.0460  0.7916  0.9800
  316MOL0     C42554   9.648   8.036   1.058 -0.9856 -0.3785  0.0331
  316MOL0     C42555   9.771   8.124   1.048  0.5060 -0.3006 -0.2462
  316MOL0     O42556   9.870   8.079   0.979 -0.4563 -0.1787 -0.4405
  316MOL0     C42557   9.974   8.169   0.947 -0.1068  0.1010  0.1748
  316MOL0     C42558   9.937   8.280   0.868 -0.2032  0.1225 -0.0298
  316MOL0     C42559  10.031   8.377   0.822  0.8773 -0.4832  0.3138
  316MOL0     C42560  10.159   8.359   0.852 -0.0169  0.3648  0.7604
  316MOL0     O42561  10.266   8.441   0.807 -0.0322  0.0094 -0.5907
  316MOL0     C42562  10.243   8.534   0.700  0.6842 -0.3190  0.0061
  316MOL0     C42563  10.190   8.664   0.757  0.6578  0.0295 -0.3007
  316MOL0     C42564  10.297   8.733   0.841  0.6363 -0.4605 -0.1001
  316MOL0     C42565  10.416   8.786   0.765  1.1184 -0.1456  0.1134
  316MOL0     C42566  10.518   8.844   0.863  0.8202 -0.4094  0.0114
  316MOL0     C42567  10.468   8.922   0.990  0.1865  0.2761 -0.5498
  316MOL0     C42568  10.583   8.960   1.077 -0.2769 -0.1109  0.2053
  316MOL0     C42569  10.537   9.023   1.204  0.7348 -0.2466 -0.1677
  316MOL0    Cl42570  10.476   8.898   1.317 -0.0596  0.3516 -0.1679
  316MOL0     C42571  10.198   8.250   0.942  0.6109 -0.6723 -0.0339
  316MOL0     C42572  10.105   8.152   0.988  0.3471 -0.2208  0.3423
  316MOL0     O42573   9.772   8.231   1.111 -0.0794 -0.3378 -0.2296
  316MOL0     C42574   9.661   7.903   1.034 -1.0520 -0.2395  0.6908
  316MOL0     C42575   9.561   7.814   1.053 -0.1259 -0.7413 -0.2120
  316MOL0     N42576   9.288   7.426   1.334 -0.0361 -0.6448 -0.1573
  316MOL0     N42577   9.365   7.479   1.423 -0.8578 -0.2327 -0.4816
  316MOL0     C42578   9.098   8.822   1.484 -0.2925 -0.4206 -0.4180
  316MOL0     C42579   9.072   8.924   1.384 -0.9681  1.1018 -0.3296
  316MOL0     C42580   9.016   9.129   0.975 -0.3556 -0.4635 -0.0286
  316MOL0     C42581   8.942   9.231   1.038 -0.1698 -0.5437 -0.0997
  316MOL0     C42582   8.901   9.340   0.958  0.1784 -0.9012  0.4332
  316MOL0     C42583   8.939   9.352   0.821  0.3474 -0.4107  1.0896
  316MOL0     O42584   8.896   9.450   0.731 -0.3506  0.9513  0.4799
  316MOL0     C42585   8.805   9.552   0.767  0.1684 -0.1606 -0.1601
  316MOL0     C42586   8.755   9.634   0.654 -0.2475 -0.0702  0.1110
  316MOL0     C42587   8.647   9.563   0.571 -0.1029  0.0213  1.0681
  316MOL0     C42588   8.515   9.520   0.636  0.2929  0.3749  0.0220
  316MOL0     C42589   8.418   9.477   0.528 -1.0541 -0.2523  0.5205
  316MOL0     C42590   8.325   9.450   0.460  0.9082  0.2684  0.8380
  316MOL0     C42591   9.025   9.263   0.763 -0.9938  0.0806  0.7645
  316MOL0     C42592   9.058   9.147   0.834 -0.0617  0.3568 -0.3794
  316MOL0     H42593   9.004   8.746   1.108 -1.2470  2.0254 -0.1469
  316MOL0     H42594   9.054   8.567   1.272  0.6793  0.7347  1.1249
  316MOL0     H42595   9.262   8.503   1.399  0.7704 -0.6544 -0.5305
  316MOL0     H42596   9.279   8.542   1.572 -2.1590 -0.1188  1.7776
  316MOL0     H42597   9.099   8.343   1.608 -1.0999 -0.4920 -0.4805
  316MOL0     H42598   9.095   8.322   1.435 -1.8341  1.7032  0.7095
  316MOL0     H42599   9.326   8.240   1.427 -2.5085  2.2680 -1.6582
  316MOL0     H42600   9.358   8.278   1.591 -0.0392  1.3000  0.5460
  316MOL0     H42601   9.204   8.105   1.665  0.8450  1.3283  0.7135
  316MOL0     H42602   9.137   8.093   1.497  0.6424  0.4986 -0.8032
  316MOL0     H42603   9.368   7.983   1.428  1.7925 -0.1438  0.7602
  316MOL0     H42604   9.436   8.038   1.572  1.7231 -2.0478 -0.6333
  316MOL0     H42605   9.232   7.898   1.690  1.5450  1.7608  0.1322
  316MOL0     H42606   9.201   7.835   1.524  0.7809 -3.1863 -0.1039
  316MOL0     H42607   9.461   7.832   1.659 -2.4275  3.7322  0.6354
  316MOL0     H42608   9.365   7.685   1.674  1.5111  2.1393  3.3247
  316MOL0     H42609   9.536   7.661   1.490  1.7031  0.3626 -3.8361
  316MOL0     H42610   9.477   7.780   1.393  0.2427 -2.4598 -1.7136
  316MOL0     H42611   9.182   7.730   1.336  1.0492  0.5394  1.9892
  316MOL0     H42612   9.119   7.390   1.145  0.2609 -0.3157  2.1507
  316MOL0     H42613   9.009   7.476   1.253  1.2580  2.3196  1.5569
  316MOL0     H42614   9.063   7.691   1.129 -0.6357  0.5087  0.0933
  316MOL0     H42615   8.968   7.573   1.031  1.1611 -0.2555 -1.9756
  316MOL0     H42616   9.146   7.668   0.893  1.2174 -2.3657 -2.2677
  316MOL0     H42617   9.177   7.502   0.932 -0.2841 -0.9194  2.1633
  316MOL0     H42618   9.392   7.643   0.943 -2.0919  2.0020 -0.7882
  316MOL0     H42619   9.358   7.582   1.098 -0.9110 -2.2161 -0.6166
  316MOL0     H42620   9.317   8.019   1.153  0.3550  1.0249 -0.0783
  316MOL0     H42621   9.525   8.304   1.047  1.4285 -0.6842  0.2110
  316MOL0     H42622   9.373   8.231   1.099  0.1390  1.6893 -0.4375
  316MOL0     H42623   9.518   8.257   1.213  0.7727  1.8430  0.4027
  316MOL0     H42624   9.834   8.294   0.840 -0.4996  0.5931  1.2355
  316MOL0     H42625   9.992   8.466   0.774  1.1595 -1.8551 -2.7287
  316MOL0     H42626  10.334   8.546   0.640  0.3051  0.4290 -0.4328
  316MOL0     H42627  10.166   8.498   0.631 -0.2135 -1.1212  1.3714
  316MOL0     H42628  10.164   8.733   0.676 -1.6501  0.8928  1.0546
  316MOL0     H42629  10.104   8.640   0.820  0.3176  1.5094 -0.1496
  316MOL0     H42630  10.343   8.655   0.903  0.1965 -3.0487 -2.7790
  316MOL0     H42631  10.247   8.811   0.898 -2.2692 -0.6613 -2.1826
  316MOL0     H42632  10.467   8.715   0.699  1.0457  0.8387 -1.0294
  316MOL0     H42633  10.371   8.862   0.701  0.3349  2.5211  3.5421
  316MOL0     H42634  10.576   8.909   0.798  0.4044 -2.3886 -2.5026
  316MOL0     H42635  10.585   8.765   0.899  0.3899 -1.4808 -1.4564
  316MOL0     H42636  10.401   9.005   0.964 -2.1862 -1.3455  0.0588
  316MOL0     H42637  10.407   8.863   1.059 -1.6401 -0.9094 -3.0117
  316MOL0     H42638  10.643   9.040   1.031 -1.5629 -0.3598 -2.0388
  316MOL0     H42639  10.654   8.877   1.087  1.8206  1.7588  1.9469
  316MOL0     H42640  10.455   9.093   1.190 -0.4322 -1.3428  0.8754
  316MOL0     H42641  10.616   9.080   1.254  1.7470 -4.2747  3.4537
  316MOL0     H42642  10.303   8.244   0.970  1.4597  3.1942 -1.6946
  316MOL0     H42643  10.135   8.068   1.050 -0.5926  0.9434  2.4860
  316MOL0     H42644   9.755   7.871   0.989 -1.1389 -0.9211  0.9760
  316MOL0     H42645   9.571   7.710   1.023  3.4385 -0.5236 -0.2644
  316MOL0     H42646   9.107   8.847   1.589 -0.6518  2.5818 -1.0236
  316MOL0     H42647   9.090   9.027   1.411  3.2566  0.2741  0.7697
  316MOL0     H42648   8.924   9.226   1.145 -1.0100  1.4528 -0.0848
  316MOL0     H42649   8.830   9.411   1.000 -0.2252 -1.4660  0.7224
  316MOL0     H42650   8.711   9.519   0.811 -2.2257  2.6023 -2.7142
  316MOL0     H42651   8.851   9.614   0.845 -0.9610  3.6899 -2.3059
  316MOL0     H42652   8.844   9.673   0.603  0.2829 -0.1027  0.9874
  316MOL0     H42653   8.709   9.726   0.690  0.5254  0.1883  0.4712
  316MOL0     H42654   8.688   9.485   0.506  0.0083  0.5883  0.4552
  316MOL0     H42655   8.616   9.633   0.493 -0.0362 -0.8152  0.2822
  316MOL0     H42656   8.464   9.594   0.699  0.5941  0.9313 -0.3852
  316MOL0     H42657   8.536   9.432   0.698 -2.6175 -0.6845 -0.3258
  316MOL0     H42658   8.251   9.424   0.386  3.4496  3.1179 -3.1543
  316MOL0     H42659   9.056   9.279   0.660  4.3658 -0.2286  2.0365
  316MOL0     H42660   9.104   9.064   0.780 -4.3049 -1.4818 -1.6291
  317MOL0     O42661   9.771   9.201   7.546  0.5478  1.3236 -0.4240
  317MOL0     C42662   9.777   9.227   7.665  0.6538 -0.3597  0.0939
  317MOL0     O42663   9.719   9.341   7.721 -0.3449 -0.3249 -0.2862
  317MOL0     C42664   9.638   9.422   7.636 -0.1450 -0.2473  0.4069
  317MOL0     C42665   9.658   9.554   7.649  0.2915 -1.0216  0.2078
  317MOL0     C42666   9.596   9.647   7.559  0.0446  0.3098 -0.6931
  317MOL0     C42667   9.496   9.603   7.473  0.2577 -0.1891 -0.5435
  317MOL0     O42668   9.401   9.674   7.403 -0.6985  0.3388  0.4563
  317MOL0     C42669   9.382   9.810   7.449 -0.0626 -0.6604  0.7491
  317MOL0     C42670   9.257   9.865   7.371  0.1050  0.1052  1.0328
  317MOL0     C42671   9.257   9.832   7.220 -0.8685  0.1523  0.0976
  317MOL0     C42672   9.144   9.912   7.135 -0.3449 -0.1210  0.7281
  317MOL0     C42673   9.179   9.876   6.983 -0.6998 -0.2691  0.7678
  317MOL0     C42674   9.075   9.905   6.886  0.0025 -0.6253  0.0470
  317MOL0     C42675   8.952   9.811   6.899 -0.8575  0.3387  0.2671
  317MOL0     C42676   8.910   9.711   6.800  0.4732  0.3051  0.1561
  317MOL0     N42677   8.866   9.771   6.678  0.5154  0.7365  0.3482
  317MOL0     C42678   8.739   9.799   6.636 -0.1938  0.0812  0.4975
  317MOL0     C42679   8.754   9.847   6.514  0.0183  0.5441 -0.7516
  317MOL0     C42680   8.620   9.876   6.443  0.2887  0.1786  0.5418
  317MOL0     C42681   8.531   9.992   6.490 -0.1037  0.2686  0.4539
  317MOL0     C42682   8.590  10.131   6.490 -0.5923  0.5381  0.8385
  317MOL0     C42683   8.655  10.166   6.352 -0.0655 -0.2634  0.5040
  317MOL0     O42684   8.678  10.307   6.348  0.1295  0.2829  0.8474
  317MOL0     C42685   8.731  10.362   6.459 -0.2436 -0.2747  0.2620
  317MOL0     C42686   8.672  10.470   6.524 -0.7613 -0.0727  0.0506
  317MOL0     C42687   8.731  10.519   6.635 -0.4519 -0.3103  1.0202
  317MOL0     C42688   8.678  10.643   6.687 -0.6053  0.4529 -0.0806
  317MOL0     C42689   8.852  10.469   6.688  0.8747  0.4524  0.1276
  317MOL0     C42690   8.910  10.521   6.819 -0.8601 -0.8676  0.8596
  317MOL0     O42691   8.836  10.601   6.900 -0.1535 -1.0051 -0.0854
  317MOL0     C42692   8.884  10.689   6.994 -0.6814  0.1773  0.3393
  317MOL0     C42693   9.012  10.694   7.045 -0.8272  1.1331  0.5528
  317MOL0     C42694   9.050  10.774   7.152 -0.0860  0.1062 -0.4386
  317MOL0     C42695   8.965  10.868   7.208  0.9707 -0.7206  0.7903
  317MOL0     O42696   9.006  10.935   7.321 -0.3468 -0.2984  0.2379
  317MOL0     C42697   8.929  11.046   7.369  0.1520  0.2840  0.3350
  317MOL0     C42698   9.002  11.121   7.481 -0.0454 -0.4691 -1.0289
  317MOL0     C42699   8.910  11.203   7.558 -0.0726 -0.4187  0.3398
  317MOL0     C42700   8.988  11.277   7.668 -0.0888  0.1339 -0.0420
  317MOL0     C42701   8.920  11.393   7.731 -0.3420  1.0032  0.4350
  317MOL0     C42702   8.925  11.515   7.642 -0.3564  0.4594 -0.6600
  317MOL0     C42703   8.860  11.645   7.712 -0.3408 -0.1327 -0.3203
  317MOL0     C42704   8.966  11.733   7.776  1.0027 -0.5451  0.0860
  317MOL0    Cl42705   9.069  11.655   7.903 -0.0371 -0.3303  0.0396
  317MOL0     C42706   8.838  10.877   7.160  1.2332  0.4890  0.3975
  317MOL0     C42707   8.800  10.788   7.051 -0.7996  0.2861  0.8151
  317MOL0     O42708   9.018  10.472   6.850  0.2649  0.2237 -0.6793
  317MOL0     C42709   8.918  10.366   6.613 -0.0316 -0.5727 -0.1871
  317MOL0     C42710   8.861  10.317   6.499 -1.0150 -0.4290 -0.0442
  317MOL0     N42711   8.895   9.854   6.476  0.0570  0.2615  0.5490
  317MOL0     N42712   8.954   9.798   6.575 -0.3474  0.0040  1.0471
  317MOL0     C42713   9.482   9.466   7.462 -0.1012  1.1831  0.8612
  317MOL0     C42714   9.544   9.374   7.542 -0.3990  0.5290 -0.1745
  317MOL0     C42715   9.845   9.154   7.765  0.6348  0.4807 -0.3102
  317MOL0     C42716   9.843   9.196   7.904 -0.8790  0.0979 -0.0438
  317MOL0     C42717   9.895   9.093   7.991 -1.0093  0.4722 -0.8433
  317MOL0     C42718   9.934   8.968   7.948  0.2020  0.2330  0.0076
  317MOL0     O42719   9.975   8.870   8.041 -1.1665 -0.6527 -0.4104
  317MOL0     C42720   9.871   8.788   8.105  0.0902  0.2829  0.7461
  317MOL0     C42721   9.889   8.638   8.066 -0.2044 -0.0635  0.6395
  317MOL0     C42722  10.034   8.606   8.039 -0.7948 -0.0719 -0.2530
  317MOL0     C42723  10.071   8.460   8.041 -1.0388 -0.2016  0.0323
  317MOL0     C42724  10.038   8.395   8.167 -0.6213 -0.2769 -0.3214
  317MOL0     C42725  10.014   8.329   8.268  0.5118 -0.5119 -0.5398
  317MOL0     C42726   9.952   8.936   7.810 -0.4403  0.4599  0.3162
  317MOL0     C42727   9.893   9.027   7.722  0.2728 -0.1268  0.2487
  317MOL0     H42728   9.725   9.597   7.723 -2.5189  1.7889  1.3366
  317MOL0     H42729   9.619   9.752   7.578  1.9422 -0.2407  0.3088
  317MOL0     H42730   9.351   9.822   7.553 -1.7197  3.4101 -0.0289
  317MOL0     H42731   9.464   9.881   7.441 -2.3425  1.9481 -1.4395
  317MOL0     H42732   9.164   9.826   7.413 -0.2419  1.7519  1.8914
  317MOL0     H42733   9.254   9.974   7.386 -3.8782  0.7288 -2.5186
  317MOL0     H42734   9.358   9.863   7.191 -0.6687 -1.3425 -0.9434
  317MOL0     H42735   9.259   9.726   7.194 -3.8050 -0.1088  0.6271
  317MOL0     H42736   9.048   9.867   7.161 -1.9933  1.4852 -2.1342
  317MOL0     H42737   9.146  10.019   7.155 -1.5394  0.0744 -0.1036
  317MOL0     H42738   9.269   9.932   6.953  0.6775 -4.0696 -3.3263
  317MOL0     H42739   9.198   9.769   6.978 -3.7025 -0.9101  1.1734
  317MOL0     H42740   9.035  10.004   6.908 -1.8858 -1.5430  1.0687
  317MOL0     H42741   9.120   9.896   6.786 -3.1362 -0.4082 -1.5333
  317MOL0     H42742   8.970   9.738   6.979  1.0204 -0.1880 -0.5729
  317MOL0     H42743   8.870   9.877   6.929 -1.3961  0.0530 -0.5642
  317MOL0     H42744   8.822   9.653   6.830 -1.2758  1.6349 -2.0155
  317MOL0     H42745   8.988   9.645   6.762 -0.9202 -0.8890 -0.7594
  317MOL0     H42746   8.644   9.777   6.685 -0.5477  0.2478 -0.0986
  317MOL0     H42747   8.645   9.881   6.336  1.0854 -1.1629  0.6536
  317MOL0     H42748   8.567   9.782   6.457 -0.5064  0.5166 -0.1325
  317MOL0     H42749   8.496   9.976   6.593  2.1191 -2.1630  0.9339
  317MOL0     H42750   8.443   9.986   6.425  0.2250 -1.4898  0.1122
  317MOL0     H42751   8.668  10.135   6.567 -0.7504 -1.5214  1.1618
  317MOL0     H42752   8.508  10.201   6.510  0.0051  1.3351  0.5438
  317MOL0     H42753   8.581  10.141   6.275  0.1814 -2.1612  0.8404
  317MOL0     H42754   8.741  10.105   6.327 -0.2617  0.4773 -2.3069
  317MOL0     H42755   8.585  10.519   6.482 -1.0052 -1.3461 -1.0020
  317MOL0     H42756   8.610  10.691   6.616 -0.2534  0.3367 -0.4985
  317MOL0     H42757   8.623  10.612   6.776  0.3644 -0.8107  0.0950
  317MOL0     H42758   8.744  10.730   6.701 -1.3067  1.0463 -0.4037
  317MOL0     H42759   9.087  10.624   7.011 -2.7334 -0.1069 -1.2428
  317MOL0     H42760   9.155  10.793   7.171 -0.0665  0.2896 -0.7186
  317MOL0     H42761   8.923  11.113   7.283  1.4440  1.8986  1.4325
  317MOL0     H42762   8.833  11.003   7.399  0.6715 -1.6110 -0.5376
  317MOL0     H42763   9.048  11.042   7.539 -0.6992 -0.4120 -0.4257
  317MOL0     H42764   9.087  11.182   7.449  1.7465 -1.7720  1.0625
  317MOL0     H42765   8.844  11.133   7.611  0.8166 -0.6357  1.1835
  317MOL0     H42766   8.847  11.261   7.489 -0.6171 -0.3745  0.8608
  317MOL0     H42767   9.006  11.211   7.754 -1.5812 -2.2960 -1.4766
  317MOL0     H42768   9.078  11.316   7.618 -1.8921  0.1057 -3.6258
  317MOL0     H42769   8.978  11.410   7.822  1.4613 -2.0855  0.0154
  317MOL0     H42770   8.818  11.379   7.769 -0.4665  2.7549  0.8276
  317MOL0     H42771   9.028  11.539   7.614 -0.6468  3.5375  0.4994
  317MOL0     H42772   8.865  11.501   7.551 -0.6720 -0.7263 -0.2806
  317MOL0     H42773   8.792  11.624   7.795 -0.8535  3.2824  0.2514
  317MOL0     H42774   8.798  11.697   7.639 -0.0836  2.2579  1.0702
  317MOL0     H42775   8.912  11.817   7.819 -0.5336 -0.7579 -1.3246
  317MOL0     H42776   9.027  11.776   7.695  1.6553  0.9086  1.2977
  317MOL0     H42777   8.762  10.952   7.182 -0.0949 -1.1445  1.7280
  317MOL0     H42778   8.701  10.797   7.007 -1.5320 -2.1101  1.8081
  317MOL0     H42779   9.007  10.317   6.651 -0.8429 -1.5886  0.4670
  317MOL0     H42780   8.911  10.238   6.445 -0.1969 -0.2145  0.3919
  317MOL0     H42781   9.417   9.435   7.381  1.0918 -0.8543  0.6171
  317MOL0     H42782   9.522   9.268   7.529 -0.6769  0.6727 -0.9746
  317MOL0     H42783   9.823   9.300   7.929  0.9486  0.4159  0.2465
  317MOL0     H42784   9.918   9.110   8.095 -2.6967  1.0241 -0.5230
  317MOL0     H42785   9.894   8.807   8.210  0.0267  1.2952  0.5878
  317MOL0     H42786   9.769   8.817   8.081  0.4015  0.0128 -1.0312
  317MOL0     H42787   9.841   8.624   7.969 -0.1424  2.4953  0.1595
  317MOL0     H42788   9.839   8.581   8.145 -2.0329  0.4964 -0.0595
  317MOL0     H42789  10.085   8.653   8.124 -0.0464  2.1355 -1.8248
  317MOL0     H42790  10.062   8.652   7.944 -1.5609  0.4336 -0.2397
  317MOL0     H42791  10.178   8.444   8.021 -0.5917  0.5297  1.7150
  317MOL0     H42792  10.004   8.428   7.960 -0.4323  2.3372 -1.6237
  317MOL0     H42793   9.987   8.269   8.352 -0.2392 -2.0767 -1.8654
  317MOL0     H42794  10.003   8.853   7.763 -2.2410 -1.5673  1.7312
  317MOL0     H42795   9.882   9.010   7.616 -0.1563 -1.0701  0.4370
  318MOL0     O42796   1.252   5.089   9.986  0.1858 -0.4833  0.4291
  318MOL0     C42797   1.309   5.188  10.027 -0.6832  0.0547  0.6141
  318MOL0     O42798   1.360   5.294   9.945 -0.5229 -0.1774 -0.5827
  318MOL0     C42799   1.362   5.280   9.810 -0.9333  0.0617 -0.3008
  318MOL0     C42800   1.489   5.323   9.754  0.2490  0.2770 -0.2812
  318MOL0     C42801   1.505   5.311   9.615 -0.3503 -0.0285  0.4236
  318MOL0     C42802   1.404   5.248   9.534  0.5436 -0.3243 -0.5266
  318MOL0     O42803   1.435   5.191   9.415  0.2505  0.1895  1.2664
  318MOL0     C42804   1.354   5.229   9.303 -0.3165  0.0461  0.2578
  318MOL0     C42805   1.306   5.376   9.302  0.4292 -0.0277 -0.2477
  318MOL0     C42806   1.221   5.400   9.176  0.6114  0.3632 -0.0521
  318MOL0     C42807   1.179   5.540   9.161 -0.1134  0.0752 -0.6839
  318MOL0     C42808   1.105   5.561   9.038  0.0039  0.6302  0.1847
  318MOL0     C42809   1.039   5.700   9.022 -0.5921 -1.0066 -1.1104
  318MOL0     C42810   0.970   5.723   8.888 -1.1681 -0.2304  0.7625
  318MOL0     C42811   1.075   5.755   8.777  0.5465 -0.2292  0.2908
  318MOL0     N42812   1.000   5.794   8.660 -0.0579  0.2438 -0.6361
  318MOL0     C42813   0.951   5.928   8.652 -0.0757  1.0319 -0.0052
  318MOL0     C42814   0.920   5.935   8.524  0.1844 -0.7875 -0.0416
  318MOL0     C42815   0.843   6.053   8.455 -0.1558  0.2630  0.0274
  318MOL0     C42816   0.924   6.119   8.339 -0.1901  0.2399 -0.4215
  318MOL0     C42817   0.842   6.234   8.280 -0.1351  0.4704  0.7464
  318MOL0     C42818   0.702   6.201   8.234  0.1039 -0.1955  0.2372
  318MOL0     O42819   0.719   6.080   8.156  0.2568 -0.1531  0.3532
  318MOL0     C42820   0.602   6.033   8.113 -0.0324 -0.7014 -1.0148
  318MOL0     C42821   0.554   6.062   7.992  0.3960  0.5801  1.1277
  318MOL0     C42822   0.442   5.994   7.935 -0.1000  0.7010 -0.1748
  318MOL0     C42823   0.410   6.021   7.790  0.3348 -0.5743 -0.2537
  318MOL0     C42824   0.369   5.908   8.015 -0.3751  0.1540 -0.2845
  318MOL0     C42825   0.258   5.821   7.963  0.1626  0.4049  1.0008
  318MOL0     O42826   0.182   5.771   8.064  0.9713 -0.3750 -0.2433
  318MOL0     C42827   0.074   5.690   8.051  0.6495  1.1267 -0.2818
  318MOL0     C42828  -0.015   5.690   7.945  0.5643 -0.7337  0.2870
  318MOL0     C42829  -0.130   5.613   7.932 -1.3376 -0.4479  0.2082
  318MOL0     C42830  -0.139   5.513   8.024 -0.0267  0.8351 -0.8256
  318MOL0     O42831  -0.240   5.414   8.019 -0.2140 -0.6953 -1.1543
  318MOL0     C42832  -0.209   5.309   7.926 -0.7398 -1.2579 -0.3412
  318MOL0     C42833  -0.272   5.184   7.989 -0.0300  0.4997  0.3864
  318MOL0     C42834  -0.428   5.185   8.019 -0.2934 -0.1842 -0.3385
  318MOL0     C42835  -0.496   5.044   8.046  0.6859  0.7113  0.1820
  318MOL0     C42836  -0.635   5.052   8.124 -0.2935 -0.0172 -0.3271
  318MOL0     C42837  -0.732   5.126   8.031  0.6660  0.7010  0.2192
  318MOL0     C42838  -0.851   5.165   8.112 -0.3569  0.2465  0.4506
  318MOL0     C42839  -0.966   5.224   8.029  0.3155  0.2856 -0.1638
  318MOL0    Cl42840  -1.082   5.252   8.160  0.2497  0.0066  0.2680
  318MOL0     C42841  -0.054   5.495   8.132  0.4220  0.1980 -0.0871
  318MOL0     C42842   0.053   5.590   8.152  1.1721 -1.3065  0.8156
  318MOL0     O42843   0.253   5.794   7.841 -0.5307  0.1966  0.2445
  318MOL0     C42844   0.422   5.877   8.149 -0.7045 -0.4654 -0.2390
  318MOL0     C42845   0.538   5.939   8.191  0.0380  0.1452 -0.1078
  318MOL0     N42846   0.960   5.824   8.466 -0.0613  0.3038 -0.1443
  318MOL0     N42847   1.005   5.731   8.540  0.3221  0.0764 -0.2609
  318MOL0     C42848   1.286   5.209   9.599 -0.5713 -0.4398  0.2535
  318MOL0     C42849   1.263   5.222   9.731 -0.6922  0.4358  0.0982
  318MOL0     C42850   1.313   5.202  10.171 -0.2263  0.6772 -0.6770
  318MOL0     C42851   1.268   5.104  10.257  0.3372  0.0373  0.6634
  318MOL0     C42852   1.272   5.123  10.402  0.4886 -0.5942  0.1341
  318MOL0     C42853   1.337   5.238  10.452  0.0392 -0.4161 -0.3363
  318MOL0     O42854   1.351   5.271  10.586 -0.0029  0.2002 -0.3289
  318MOL0     C42855   1.313   5.167  10.689 -0.0573  0.2990 -0.2948
  318MOL0     C42856   1.162   5.175  10.721 -0.0414 -0.7709 -0.5212
  318MOL0     C42857   1.107   5.077  10.822 -0.7441 -0.0398  0.7054
  318MOL0     C42858   0.963   5.109  10.871  0.8082  0.6624 -0.2481
  318MOL0     C42859   0.863   5.139  10.762 -0.5713  0.6227  0.4837
  318MOL0     C42860   0.787   5.161  10.670 -0.6103  0.0279 -0.0597
  318MOL0     C42861   1.388   5.327  10.362 -1.1163  0.1138  1.2855
  318MOL0     C42862   1.372   5.320  10.227  0.1961 -0.2691  0.0868
  318MOL0     H42863   1.564   5.374   9.815  0.1719 -0.1550  0.1834
  318MOL0     H42864   1.596   5.340   9.565 -0.5243 -0.1453  0.0351
  318MOL0     H42865   1.411   5.205   9.213 -1.8701 -2.4337 -0.1557
  318MOL0     H42866   1.261   5.173   9.295  1.1123 -2.1393 -2.8354
  318MOL0     H42867   1.248   5.400   9.392 -1.5323 -2.1112 -0.8359
  318MOL0     H42868   1.390   5.445   9.298 -2.3296  3.7907  1.2993
  318MOL0     H42869   1.278   5.382   9.084 -0.0017  2.9543 -1.0296
  318MOL0     H42870   1.141   5.326   9.176  1.5600 -0.7167 -1.0919
  318MOL0     H42871   1.129   5.573   9.252 -0.2689 -1.0153 -0.3595
  318MOL0     H42872   1.274   5.595   9.152 -0.9335  1.5663 -0.5123
  318MOL0     H42873   1.169   5.547   8.950 -1.1848  0.0484 -0.6316
  318MOL0     H42874   1.034   5.480   9.017 -0.0388  1.0493 -1.4386
  318MOL0     H42875   0.976   5.718   9.110  1.6292 -0.8814  0.5763
  318MOL0     H42876   1.125   5.767   9.033 -0.9044 -0.8522  0.9253
  318MOL0     H42877   0.904   5.641   8.858 -1.6276 -0.3706  2.1160
  318MOL0     H42878   0.905   5.811   8.889 -1.8726 -0.7442  1.2110
  318MOL0     H42879   1.141   5.671   8.753  3.3426  0.3954  4.5564
  318MOL0     H42880   1.135   5.839   8.815  0.3340 -0.2859  0.7628
  318MOL0     H42881   0.921   5.984   8.740 -1.8319 -2.7679  2.1049
  318MOL0     H42882   0.748   6.014   8.417 -0.0890 -1.3836  1.4568
  318MOL0     H42883   0.817   6.129   8.529  1.1443 -0.3073  1.0982
  318MOL0     H42884   0.942   6.058   8.250  1.4377  1.2485 -0.8507
  318MOL0     H42885   1.021   6.149   8.380  0.2750  0.3424 -1.5703
  318MOL0     H42886   0.887   6.286   8.195 -4.3796  1.9866 -0.8449
  318MOL0     H42887   0.833   6.313   8.355  0.8780  1.3704 -0.0425
  318MOL0     H42888   0.669   6.283   8.170 -1.3102 -1.0497 -0.1866
  318MOL0     H42889   0.631   6.188   8.317 -1.2048 -2.5866 -1.1497
  318MOL0     H42890   0.607   6.132   7.929  1.7770 -0.1371  1.4448
  318MOL0     H42891   0.302   6.034   7.779  0.0361  0.6282  2.8921
  318MOL0     H42892   0.451   6.119   7.764 -0.3440 -0.0007  0.8055
  318MOL0     H42893   0.448   5.939   7.728  1.2145  1.2077 -2.1863
  318MOL0     H42894   0.001   5.772   7.875  0.6652  1.1956  2.4357
  318MOL0     H42895  -0.205   5.616   7.854 -1.0604  2.2541 -0.0407
  318MOL0     H42896  -0.252   5.345   7.833 -1.2377 -2.4740 -0.6001
  318MOL0     H42897  -0.101   5.300   7.912 -0.4044  1.9008 -0.4768
  318MOL0     H42898  -0.257   5.112   7.908  1.9295 -0.9918  1.9461
  318MOL0     H42899  -0.205   5.161   8.073  2.2167  1.5971 -0.9952
  318MOL0     H42900  -0.485   5.226   7.935  0.1127  1.2940  0.0902
  318MOL0     H42901  -0.451   5.257   8.098 -1.0113  1.2772 -1.8210
  318MOL0     H42902  -0.513   5.005   7.946 -1.6023  0.3358  0.6458
  318MOL0     H42903  -0.438   4.970   8.103 -0.1001 -1.4700 -1.7149
  318MOL0     H42904  -0.629   5.101   8.221  3.4903  1.5107 -1.1714
  318MOL0     H42905  -0.685   4.955   8.137 -3.9949  1.1085 -3.8697
  318MOL0     H42906  -0.679   5.217   7.999  3.0763 -0.1192  1.5585
  318MOL0     H42907  -0.760   5.066   7.944 -1.1091  0.8354  0.6674
  318MOL0     H42908  -0.811   5.227   8.192  1.7979  0.8018 -0.9836
  318MOL0     H42909  -0.879   5.066   8.148  1.3693  0.3257  2.1316
  318MOL0     H42910  -1.006   5.152   7.957  0.9282 -1.4991  1.2076
  318MOL0     H42911  -0.927   5.313   7.978  1.4968  1.9232  3.2752
  318MOL0     H42912  -0.073   5.416   8.205 -4.4154  0.4883 -0.7063
  318MOL0     H42913   0.118   5.603   8.238 -0.2864  4.7828  1.4497
  318MOL0     H42914   0.366   5.811   8.214 -2.0899  0.5998 -0.3113
  318MOL0     H42915   0.580   5.908   8.287 -0.4917 -3.0226 -0.7781
  318MOL0     H42916   1.219   5.155   9.532  0.0683  1.5752 -2.1835
  318MOL0     H42917   1.166   5.190   9.768 -1.0992 -0.1474 -1.3871
  318MOL0     H42918   1.215   5.021  10.213 -0.7821  2.3361 -2.7613
  318MOL0     H42919   1.231   5.049  10.469  1.4120 -2.0795 -0.8922
  318MOL0     H42920   1.340   5.066  10.655  0.0024 -0.1121  0.9154
  318MOL0     H42921   1.371   5.185  10.779  2.6952 -0.7252 -1.7595
  318MOL0     H42922   1.101   5.151  10.633  1.5999 -2.1285 -1.3600
  318MOL0     H42923   1.121   5.273  10.746 -2.7703 -2.2790  1.5165
  318MOL0     H42924   1.168   5.066  10.912 -0.5766 -4.2006  0.2725
  318MOL0     H42925   1.104   4.974  10.786  1.4288 -0.3327  1.2109
  318MOL0     H42926   0.967   5.202  10.928 -1.5934  1.2210 -0.8535
  318MOL0     H42927   0.916   5.034  10.936 -0.2082 -0.5442 -2.2600
  318MOL0     H42928   0.721   5.195  10.593 -0.4249  2.7169  0.8817
  318MOL0     H42929   1.441   5.417  10.390 -1.9465  0.8630  0.4856
  318MOL0     H42930   1.394   5.404  10.163 -1.1564  0.0175 -0.0360
  319MOL0     O42931   9.525  10.704   2.653  0.2601 -0.6026  0.7634
  319MOL0     C42932   9.641  10.747   2.647 -0.4273  0.4806  0.0339
  319MOL0     O42933   9.726  10.732   2.537 -0.2348  0.5724  0.6156
  319MOL0     C42934   9.676  10.673   2.429 -0.0559 -1.1602  0.0029
  319MOL0     C42935   9.631  10.757   2.329  0.0448  0.0566  0.2664
  319MOL0     C42936   9.584  10.706   2.209  0.5256  0.1138  0.3531
  319MOL0     C42937   9.572  10.566   2.181  0.1820 -1.1187 -0.1661
  319MOL0     O42938   9.533  10.503   2.061 -0.2247  0.5675  0.0461
  319MOL0     C42939   9.519  10.587   1.948  0.2547  0.6716 -0.8554
  319MOL0     C42940   9.496  10.513   1.816  0.2193  0.0580 -0.3734
  319MOL0     C42941   9.369  10.423   1.805 -0.1524  0.0049  0.6032
  319MOL0     C42942   9.396  10.331   1.679 -0.1989 -0.2433 -0.7475
  319MOL0     C42943   9.263  10.299   1.609 -0.0662  0.7225  0.1594
  319MOL0     C42944   9.209  10.164   1.656 -0.9836 -0.1704 -0.0760
  319MOL0     C42945   9.079  10.105   1.593 -0.3901  0.9243 -0.0459
  319MOL0     C42946   9.066   9.962   1.649 -0.0900  0.1894  0.4382
  319MOL0     N42947   8.953   9.896   1.584  0.0100  0.0981  0.6727
  319MOL0     C42948   8.962   9.804   1.488 -0.1514  0.4297 -0.9367
  319MOL0     C42949   8.833   9.767   1.463 -0.9617  0.4297 -0.1928
  319MOL0     C42950   8.786   9.662   1.367  0.1362 -0.5265 -0.6383
  319MOL0     C42951   8.765   9.527   1.440 -0.2179  1.0985  0.3069
  319MOL0     C42952   8.802   9.412   1.341 -0.0731 -1.0650 -0.0663
  319MOL0     C42953   8.748   9.282   1.401 -0.4172 -0.4716  0.3765
  319MOL0     O42954   8.820   9.248   1.518 -0.0807  0.0270 -0.2772
  319MOL0     C42955   8.808   9.128   1.575  0.9714  0.0558  0.8227
  319MOL0     C42956   8.892   9.097   1.683 -0.6016  0.5668 -0.4026
  319MOL0     C42957   8.889   8.970   1.745 -0.6464 -0.3908 -0.3352
  319MOL0     C42958   8.988   8.943   1.856 -0.6365  1.5575  0.2452
  319MOL0     C42959   8.812   8.863   1.690 -0.3568 -0.0199 -0.0239
  319MOL0     C42960   8.810   8.718   1.741 -0.1957  0.0770  0.3196
  319MOL0     O42961   8.727   8.627   1.668 -0.1842  0.0163 -0.3729
  319MOL0     C42962   8.719   8.499   1.712 -1.1452  0.7994 -0.1264
  319MOL0     C42963   8.614   8.453   1.791 -0.2404 -0.1239  0.2408
  319MOL0     C42964   8.601   8.314   1.824  0.7776 -0.4488 -0.3943
  319MOL0     C42965   8.693   8.219   1.775 -0.1384 -0.2831  1.0182
  319MOL0     O42966   8.668   8.087   1.787 -0.0928 -0.2740 -0.7704
  319MOL0     C42967   8.597   8.055   1.913  0.3585 -0.5021  0.1522
  319MOL0     C42968   8.592   7.903   1.931 -0.1669 -0.3520 -0.3887
  319MOL0     C42969   8.535   7.873   2.065  1.1356  0.0890 -0.1976
  319MOL0     C42970   8.387   7.902   2.079 -0.8451  0.0160  0.2143
  319MOL0     C42971   8.337   7.844   2.214 -0.2137 -0.1722 -0.6724
  319MOL0     C42972   8.193   7.839   2.245 -0.0501  0.2127  0.0645
  319MOL0     C42973   8.110   7.967   2.230 -0.9784  0.0214  0.2121
  319MOL0     C42974   8.177   8.090   2.298 -0.2378 -0.0673  0.1116
  319MOL0    Cl42975   8.086   8.240   2.277 -0.1191 -0.1513 -0.0884
  319MOL0     C42976   8.800   8.266   1.703 -0.1827 -0.7724  0.5179
  319MOL0     C42977   8.806   8.402   1.663  0.4340 -0.0113  0.0722
  319MOL0     O42978   8.866   8.686   1.843 -0.4247 -0.1274 -0.0365
  319MOL0     C42979   8.729   8.892   1.581  0.0079  0.0304 -0.5125
  319MOL0     C42980   8.716   9.022   1.530  0.0874 -0.2070 -0.6380
  319MOL0     N42981   8.757   9.845   1.540  0.5711 -0.3555  0.0841
  319MOL0     N42982   8.825   9.923   1.620  1.1637 -0.3092 -0.1474
  319MOL0     C42983   9.612  10.489   2.293 -0.4185  0.0137  0.7113
  319MOL0     C42984   9.658  10.542   2.411  0.5683  0.1374 -0.1677
  319MOL0     C42985   9.709  10.774   2.779  1.1647  0.3791  1.3662
  319MOL0     C42986   9.832  10.823   2.788 -1.2486 -0.2020 -0.7446
  319MOL0     C42987   9.893  10.836   2.911  0.1743  0.1699 -1.3352
  319MOL0     C42988   9.825  10.810   3.035 -0.4570 -0.3756  0.0988
  319MOL0     O42989   9.875  10.824   3.164  1.2087  0.2913 -0.4085
  319MOL0     C42990  10.001  10.876   3.173 -0.2678 -0.3620 -0.7409
  319MOL0     C42991   9.979  11.026   3.160 -0.1555  0.9388 -0.4229
  319MOL0     C42992  10.117  11.091   3.150 -0.2580  1.4021 -0.0738
  319MOL0     C42993  10.122  11.211   3.243 -0.1180  0.6170 -0.1493
  319MOL0     C42994  10.259  11.249   3.278  0.3562 -0.0541  0.8466
  319MOL0     C42995  10.366  11.294   3.323 -0.3153 -0.5210 -0.0742
  319MOL0     C42996   9.697  10.764   3.024 -0.4370 -0.5632 -0.1272
  319MOL0     C42997   9.633  10.749   2.899 -0.6117  0.3365  0.1729
  319MOL0     H42998   9.646  10.864   2.342  1.5324 -0.1855  0.7804
  319MOL0     H42999   9.560  10.771   2.126 -1.8365 -2.3961 -1.1103
  319MOL0     H43000   9.428  10.645   1.967 -1.3948 -1.8307 -0.5463
  319MOL0     H43001   9.618  10.634   1.950  1.9924 -2.6798  0.9044
  319MOL0     H43002   9.493  10.580   1.730 -1.2858  0.4040 -0.0683
  319MOL0     H43003   9.578  10.441   1.808 -0.6714 -0.9671 -0.4741
  319MOL0     H43004   9.360  10.361   1.894  1.6207 -0.4536  0.5018
  319MOL0     H43005   9.276  10.480   1.795  1.7645  3.3376  0.1772
  319MOL0     H43006   9.458  10.380   1.603  1.3520 -0.0130  0.6322
  319MOL0     H43007   9.446  10.240   1.711 -0.1343  0.4023  1.1438
  319MOL0     H43008   9.188  10.375   1.634  0.3201  2.1661 -2.7200
  319MOL0     H43009   9.283  10.286   1.502 -2.5474  0.4994 -0.3332
  319MOL0     H43010   9.287  10.088   1.645 -1.0663 -0.4043  0.8904
  319MOL0     H43011   9.199  10.177   1.764 -0.9250  1.3023 -0.2266
  319MOL0     H43012   8.994  10.169   1.619 -0.4000  0.8120  0.1982
  319MOL0     H43013   9.097  10.105   1.485 -1.7224  1.1884 -0.2909
  319MOL0     H43014   9.036   9.978   1.753 -0.2929  0.9615  0.2653
  319MOL0     H43015   9.155   9.901   1.626  0.2206  0.7249  0.2161
  319MOL0     H43016   9.050   9.760   1.441  0.3617  0.2083  0.2063
  319MOL0     H43017   8.692   9.697   1.323  0.5915  0.9716 -0.4872
  319MOL0     H43018   8.864   9.650   1.291  2.3569  0.0098  1.3981
  319MOL0     H43019   8.660   9.519   1.471 -0.1721  3.2337  1.2347
  319MOL0     H43020   8.830   9.512   1.526  0.5264  0.0692 -0.4212
  319MOL0     H43021   8.910   9.409   1.351 -0.0667 -2.6857 -0.4027
  319MOL0     H43022   8.761   9.430   1.241 -0.8449 -0.6582  0.3079
  319MOL0     H43023   8.758   9.195   1.336  2.4290 -1.9529  2.5346
  319MOL0     H43024   8.642   9.296   1.426 -0.4183 -0.9892  0.6685
  319MOL0     H43025   8.970   9.168   1.708  1.1365 -1.6302  0.8070
  319MOL0     H43026   9.043   9.035   1.878  1.6004  0.8931 -2.1040
  319MOL0     H43027   8.936   8.911   1.946 -2.1233  1.5834 -0.5677
  319MOL0     H43028   9.058   8.867   1.820 -2.9302 -0.3354 -0.5249
  319MOL0     H43029   8.541   8.523   1.831 -1.0646  0.0536 -1.4773
  319MOL0     H43030   8.518   8.289   1.889 -0.1381  1.7241 -0.6400
  319MOL0     H43031   8.640   8.106   1.999 -0.1642  3.7800 -1.8570
  319MOL0     H43032   8.490   8.075   1.903  0.5012 -0.3884 -1.3640
  319MOL0     H43033   8.538   7.860   1.846 -1.7488  0.2547  0.2804
  319MOL0     H43034   8.697   7.872   1.927  0.0816 -0.3569  3.1187
  319MOL0     H43035   8.592   7.921   2.145  1.7001  0.1010 -0.6052
  319MOL0     H43036   8.542   7.765   2.082 -1.1129 -0.3082 -1.4874
  319MOL0     H43037   8.372   8.010   2.068 -0.3249 -0.0967 -2.0267
  319MOL0     H43038   8.337   7.857   1.994  1.0610  4.3729 -3.6213
  319MOL0     H43039   8.384   7.908   2.289  2.0337  0.5845 -2.5881
  319MOL0     H43040   8.372   7.741   2.228 -3.6541 -1.4028 -0.2044
  319MOL0     H43041   8.146   7.763   2.181 -1.5257  0.1993  1.1193
  319MOL0     H43042   8.186   7.814   2.351 -1.4518  0.1123 -0.0202
  319MOL0     H43043   8.017   7.936   2.280  1.0114 -5.2845  1.3787
  319MOL0     H43044   8.108   7.988   2.123  0.3057 -2.2637 -0.3236
  319MOL0     H43045   8.268   8.106   2.238 -1.4831 -0.0987 -1.8659
  319MOL0     H43046   8.189   8.078   2.406  1.5354 -1.1076 -0.1465
  319MOL0     H43047   8.861   8.185   1.663 -1.2604 -1.0213 -0.6765
  319MOL0     H43048   8.866   8.420   1.575 -0.4621 -3.6082 -1.4531
  319MOL0     H43049   8.667   8.818   1.531  0.7170 -0.2148 -1.0561
  319MOL0     H43050   8.661   9.040   1.438  1.2004 -0.2031 -1.3314
  319MOL0     H43051   9.588  10.383   2.284 -0.4576  0.0375  0.5256
  319MOL0     H43052   9.678  10.469   2.489 -2.3373 -1.3260 -0.6423
  319MOL0     H43053   9.886  10.825   2.694 -0.8335 -0.9866 -0.5227
  319MOL0     H43054   9.997  10.868   2.919 -0.5350  2.5052 -0.7963
  319MOL0     H43055  10.029  10.866   3.278 -0.8164  4.0253  0.0018
  319MOL0     H43056  10.083  10.839   3.111 -0.4078  0.7333 -1.6035
  319MOL0     H43057   9.921  11.068   3.244  0.5458  1.7629 -0.3317
  319MOL0     H43058   9.919  11.056   3.074 -2.7802 -1.3919  0.4604
  319MOL0     H43059  10.146  11.119   3.048  2.0732  1.9538  0.7007
  319MOL0     H43060  10.195  11.017   3.170  0.3543  1.7195 -1.2032
  319MOL0     H43061  10.076  11.185   3.338  0.9438 -1.2103 -0.0881
  319MOL0     H43062  10.065  11.294   3.201 -1.1569 -0.3595 -0.7189
  319MOL0     H43063  10.462  11.340   3.340 -0.2147  0.9035 -3.5347
  319MOL0     H43064   9.646  10.743   3.118 -0.2975 -1.0368 -0.1567
  319MOL0     H43065   9.532  10.710   2.892 -0.7611  0.4058  1.6660
  320MOL0     O43066   4.774   9.949   7.017  0.2809 -0.3451 -0.3073
  320MOL0     C43067   4.731  10.037   7.085  0.9739  0.6514 -0.0233
  320MOL0     O43068   4.640  10.013   7.188 -0.4758  0.4509 -0.1453
  320MOL0     C43069   4.582   9.888   7.205  0.1973  0.9115  0.7775
  320MOL0     C43070   4.459   9.862   7.149  0.2710 -0.5279 -0.3625
  320MOL0     C43071   4.406   9.731   7.143  0.0151  0.2396 -0.8680
  320MOL0     C43072   4.491   9.624   7.177  1.0095  0.7080 -0.1164
  320MOL0     O43073   4.431   9.500   7.165 -0.8293  0.3460 -0.5959
  320MOL0     C43074   4.506   9.383   7.206  0.5138  0.8704  0.1139
  320MOL0     C43075   4.458   9.263   7.119 -0.5706  0.7170 -0.4043
  320MOL0     C43076   4.499   9.259   6.976  0.0928 -0.1752  0.6923
  320MOL0     C43077   4.423   9.153   6.894  0.3144 -0.4840 -0.8172
  320MOL0     C43078   4.449   9.147   6.741 -0.0252 -0.1658  0.4287
  320MOL0     C43079   4.369   9.252   6.662  0.9899 -0.5971  0.3099
  320MOL0     C43080   4.423   9.251   6.517 -0.3530 -0.8500  0.8749
  320MOL0     C43081   4.323   9.313   6.413  0.2885 -0.6922  0.4658
  320MOL0     N43082   4.368   9.331   6.272  0.3492  1.2195  0.8060
  320MOL0     C43083   4.483   9.400   6.233 -0.4512  1.4804 -0.4436
  320MOL0     C43084   4.456   9.420   6.101 -0.6689 -0.3452  0.1785
  320MOL0     C43085   4.542   9.497   6.012  0.4938  0.4134  0.8821
  320MOL0     C43086   4.648   9.410   5.957 -0.5464 -0.3820  0.6084
  320MOL0     C43087   4.759   9.491   5.899  0.4430 -0.8289  1.3277
  320MOL0     C43088   4.868   9.395   5.859 -0.1112  0.0103 -0.9909
  320MOL0     O43089   4.961   9.482   5.786  0.2122 -0.0783 -0.6828
  320MOL0     C43090   5.101   9.459   5.787  0.5682  0.0548  0.6505
  320MOL0     C43091   5.195   9.562   5.753  0.0400  0.7008  0.3532
  320MOL0     C43092   5.332   9.551   5.770  0.0595  0.0895  0.0204
  320MOL0     C43093   5.427   9.666   5.734  0.0005 -0.2637 -1.2923
  320MOL0     C43094   5.380   9.427   5.823 -1.2320  0.1951 -0.7207
  320MOL0     C43095   5.528   9.398   5.849 -0.3217  0.5383  0.1808
  320MOL0     O43096   5.594   9.494   5.905  0.1921  0.3509 -0.2067
  320MOL0     C43097   5.730   9.496   5.945  0.2518  0.3082  0.4768
  320MOL0     C43098   5.769   9.593   6.041  0.5627 -0.0007 -0.8283
  320MOL0     C43099   5.904   9.611   6.071 -0.0105  0.1391  0.1949
  320MOL0     C43100   5.998   9.511   6.039  0.5317 -0.2482  0.3592
  320MOL0     O43101   6.123   9.536   6.078 -0.3061  0.2647  0.6678
  320MOL0     C43102   6.177   9.436   6.165 -0.0181 -0.9328  0.5591
  320MOL0     C43103   6.321   9.481   6.184  0.1487  0.9676  0.0522
  320MOL0     C43104   6.402   9.405   6.289  0.0593  0.1526 -0.1501
  320MOL0     C43105   6.520   9.487   6.342 -0.3212  0.0538 -0.6524
  320MOL0     C43106   6.645   9.493   6.248  0.5657 -0.4335  0.2889
  320MOL0     C43107   6.745   9.595   6.303 -0.6663  0.7839  0.4446
  320MOL0     C43108   6.692   9.740   6.325  0.6694  0.4274  0.5029
  320MOL0     C43109   6.821   9.824   6.337 -0.1530 -0.2196 -0.9287
  320MOL0    Cl43110   6.911   9.851   6.171 -0.0798  0.0842  0.0053
  320MOL0     C43111   5.958   9.402   5.964  0.1305  0.1864 -0.4399
  320MOL0     C43112   5.822   9.397   5.912 -0.3368  0.0193  0.4341
  320MOL0     O43113   5.571   9.295   5.790  0.0739  0.5276 -0.5375
  320MOL0     C43114   5.290   9.320   5.847 -0.0016  0.7269 -0.0780
  320MOL0     C43115   5.154   9.336   5.828  0.0721  0.1801  0.4825
  320MOL0     N43116   4.336   9.369   6.060 -1.0447  0.1258  0.7395
  320MOL0     N43117   4.283   9.319   6.165  0.5364  0.4797  0.0592
  320MOL0     C43118   4.613   9.658   7.238 -0.9030  0.2552 -0.0561
  320MOL0     C43119   4.665   9.786   7.246 -0.2639  0.5019  0.1455
  320MOL0     C43120   4.780  10.171   7.070 -0.0159  1.0916  0.9186
  320MOL0     C43121   4.695  10.276   7.116  0.7700 -0.3166  0.0145
  320MOL0     C43122   4.729  10.407   7.072  0.5280 -0.1641  0.2521
  320MOL0     C43123   4.851  10.439   7.008 -0.4511 -0.0047 -0.9721
  320MOL0     O43124   4.892  10.569   6.987 -0.1010 -0.7657  0.0920
  320MOL0     C43125   4.990  10.600   6.887  0.5281 -0.1393  0.0310
  320MOL0     C43126   4.948  10.572   6.743 -0.5068  1.0737  0.3038
  320MOL0     C43127   5.023  10.654   6.628  0.5539  0.8524 -0.1874
  320MOL0     C43128   4.990  10.804   6.634 -0.8805  0.4675 -0.2241
  320MOL0     C43129   5.040  10.874   6.519  0.3681  1.0276 -0.3153
  320MOL0     C43130   5.084  10.927   6.426 -0.2165 -0.2457  0.0443
  320MOL0     C43131   4.935  10.333   6.981  1.0904  0.7313  0.2323
  320MOL0     C43132   4.907  10.198   7.016  0.3156 -0.2403 -0.5526
  320MOL0     H43133   4.403   9.945   7.107  0.3473 -0.9334 -1.2764
  320MOL0     H43134   4.315   9.691   7.101  1.0293 -2.6142 -0.5484
  320MOL0     H43135   4.612   9.393   7.185  0.5105  0.8250  0.0751
  320MOL0     H43136   4.494   9.370   7.314 -1.6180  2.1150  0.1029
  320MOL0     H43137   4.484   9.165   7.159  0.4819 -0.0545 -2.7874
  320MOL0     H43138   4.349   9.256   7.119 -0.5492  0.3724 -0.7402
  320MOL0     H43139   4.477   9.356   6.932 -4.7843 -2.4978 -3.1367
  320MOL0     H43140   4.605   9.233   6.971  0.0962 -0.4040  1.7283
  320MOL0     H43141   4.448   9.055   6.935  0.1409 -1.3440 -2.6373
  320MOL0     H43142   4.315   9.160   6.912  0.7910 -2.2963  4.2546
  320MOL0     H43143   4.557   9.163   6.732  0.0774 -0.5540  0.9279
  320MOL0     H43144   4.421   9.054   6.691 -1.2967 -0.0277  0.8576
  320MOL0     H43145   4.261   9.234   6.652  1.0312  0.1797 -2.2224
  320MOL0     H43146   4.383   9.352   6.705  2.1535  0.2308 -1.8443
  320MOL0     H43147   4.520   9.301   6.524  0.6811 -2.6843  0.0874
  320MOL0     H43148   4.447   9.151   6.480 -0.6350 -0.7577  0.4367
  320MOL0     H43149   4.285   9.411   6.445  2.3642 -0.1671  1.4544
  320MOL0     H43150   4.238   9.243   6.416 -0.4922  0.1530 -1.0229
  320MOL0     H43151   4.558   9.441   6.300  1.0319  1.1666 -1.8557
  320MOL0     H43152   4.484   9.543   5.932 -3.0901 -3.6566  0.7611
  320MOL0     H43153   4.593   9.572   6.072  0.5561  0.9006  0.2226
  320MOL0     H43154   4.596   9.338   5.893 -1.5973  3.2260 -2.9844
  320MOL0     H43155   4.687   9.350   6.040  1.8740 -0.4223 -0.4619
  320MOL0     H43156   4.804   9.565   5.966  2.6427  0.4714 -1.3683
  320MOL0     H43157   4.722   9.541   5.809  1.5457 -3.3472 -0.6646
  320MOL0     H43158   4.844   9.311   5.794 -1.6828 -0.9807  0.7812
  320MOL0     H43159   4.911   9.351   5.950  4.2055  2.4645 -1.5914
  320MOL0     H43160   5.156   9.653   5.708 -2.2614  0.5099  1.7776
  320MOL0     H43161   5.389   9.732   5.655 -0.7989 -1.5510 -2.0241
  320MOL0     H43162   5.442   9.719   5.828 -1.7768  0.6648 -1.4943
  320MOL0     H43163   5.515   9.622   5.686 -2.0295 -1.9878 -3.6658
  320MOL0     H43164   5.684   9.653   6.072 -0.9804 -2.6053  0.2335
  320MOL0     H43165   5.944   9.696   6.125 -1.8319  1.7410 -0.8447
  320MOL0     H43166   6.122   9.439   6.260  0.3788  0.1352  0.7662
  320MOL0     H43167   6.184   9.344   6.105 -1.2908  1.1037 -2.9919
  320MOL0     H43168   6.373   9.478   6.088  2.7933 -1.0199  1.3932
  320MOL0     H43169   6.308   9.580   6.228 -0.9875  0.5003  0.8143
  320MOL0     H43170   6.440   9.311   6.249  2.1891  1.3297 -1.0165
  320MOL0     H43171   6.332   9.393   6.372  0.5121  1.2556  0.4151
  320MOL0     H43172   6.494   9.590   6.365  1.0045 -0.2925  3.0148
  320MOL0     H43173   6.549   9.450   6.440 -2.1134 -0.5977 -0.3206
  320MOL0     H43174   6.613   9.521   6.147  2.8376 -0.4568 -0.4936
  320MOL0     H43175   6.686   9.392   6.260 -1.2453 -1.1127  1.1164
  320MOL0     H43176   6.775   9.554   6.400  1.7383  3.6304  1.0838
  320MOL0     H43177   6.831   9.618   6.239  1.8396  0.3196  3.4154
  320MOL0     H43178   6.623   9.753   6.408 -1.4227  0.5986 -1.1809
  320MOL0     H43179   6.641   9.772   6.234 -1.8748  1.3106  2.1430
  320MOL0     H43180   6.896   9.779   6.403  0.7746  0.1603 -1.7060
  320MOL0     H43181   6.800   9.920   6.385 -0.6978 -0.0595 -1.4766
  320MOL0     H43182   6.029   9.327   5.933 -0.1433 -1.2580  2.1743
  320MOL0     H43183   5.807   9.312   5.847 -2.9422  0.1744  0.7181
  320MOL0     H43184   5.319   9.226   5.893 -2.3136  0.7000  1.4812
  320MOL0     H43185   5.089   9.253   5.853 -1.4204  1.4642  1.0750
  320MOL0     H43186   4.690   9.588   7.268  1.1449  2.5092  0.2960
  320MOL0     H43187   4.772   9.792   7.266 -0.3803 -2.8336  2.6836
  320MOL0     H43188   4.604  10.259   7.174  2.1338  2.0540  3.0880
  320MOL0     H43189   4.672  10.495   7.099 -0.5163 -1.7115  3.6951
  320MOL0     H43190   5.011  10.707   6.896 -1.3922  0.4926 -2.0339
  320MOL0     H43191   5.086  10.555   6.916  0.6073  0.4800  0.7596
  320MOL0     H43192   4.843  10.604   6.733 -0.5830  0.8086  0.2525
  320MOL0     H43193   4.954  10.465   6.723 -2.7060  1.3043 -2.2798
  320MOL0     H43194   5.006  10.619   6.525  2.5167  4.5066 -1.9450
  320MOL0     H43195   5.131  10.647   6.641  0.6432  0.4864 -1.0183
  320MOL0     H43196   5.049  10.843   6.718 -0.8816 -1.8812  0.9430
  320MOL0     H43197   4.886  10.824   6.663 -0.8448  3.3181 -1.6960
  320MOL0     H43198   5.132  10.973   6.342 -1.3593 -1.7817 -1.5332
  320MOL0     H43199   5.030  10.346   6.930  0.4282  0.9288 -1.0024
  320MOL0     H43200   4.977  10.116   7.004  0.3815  0.0337 -2.2740
  321MOL0     O43201   1.035   8.397   9.733  0.0650 -1.0025 -0.9834
  321MOL0     C43202   1.020   8.485   9.820 -1.0457  0.7974  0.2459
  321MOL0     O43203   0.908   8.538   9.857  0.0226  0.5332  0.2533
  321MOL0     C43204   0.790   8.484   9.814  0.1804 -0.4174  0.2994
  321MOL0     C43205   0.760   8.353   9.812  0.5557  0.7302 -0.3496
  321MOL0     C43206   0.629   8.305   9.811  0.3726  1.0266  0.2119
  321MOL0     C43207   0.521   8.387   9.787  0.0531  0.0340  0.2686
  321MOL0     O43208   0.390   8.357   9.790  0.6067 -0.9529  0.5650
  321MOL0     C43209   0.351   8.237   9.716  0.1376  0.6501 -0.8487
  321MOL0     C43210   0.196   8.239   9.691  0.2764 -0.0667  1.0484
  321MOL0     C43211   0.140   8.373   9.640  0.0597 -0.0733 -0.2576
  321MOL0     C43212  -0.010   8.350   9.605 -0.4238 -0.0853  0.1527
  321MOL0     C43213  -0.081   8.478   9.564 -0.3991 -1.5583  0.2653
  321MOL0     C43214  -0.047   8.525   9.423  1.1766 -0.6169 -0.4298
  321MOL0     C43215  -0.145   8.636   9.374 -0.1442 -1.0785  0.3381
  321MOL0     C43216  -0.135   8.770   9.453  0.6312  0.5142 -0.4440
  321MOL0     N43217   0.010   8.822   9.457 -0.7421 -0.1265 -0.1425
  321MOL0     C43218   0.115   8.794   9.544 -0.0961  0.3864 -0.5437
  321MOL0     C43219   0.216   8.861   9.489 -0.2259  0.7979 -0.1889
  321MOL0     C43220   0.360   8.853   9.540  0.1554 -0.6460 -0.2522
  321MOL0     C43221   0.374   8.938   9.669  0.0702 -0.4902  0.4092
  321MOL0     C43222   0.504   8.926   9.744  0.8050  0.3985 -1.1837
  321MOL0     C43223   0.518   9.013   9.874  0.8624 -0.8033 -0.4840
  321MOL0     O43224   0.644   8.993   9.944 -0.6333 -0.4800 -0.4825
  321MOL0     C43225   0.767   9.014   9.900  0.7360 -0.0574  0.0496
  321MOL0     C43226   0.869   8.975   9.986 -1.0759  0.2889  0.6393
  321MOL0     C43227   1.003   9.027   9.974  0.3191 -0.1071  0.7568
  321MOL0     C43228   1.096   9.006  10.085 -0.0324 -0.7222 -0.1735
  321MOL0     C43229   1.030   9.110   9.862 -0.4767  0.6283 -0.4098
  321MOL0     C43230   1.157   9.174   9.824 -0.4193  0.5246  0.1971
  321MOL0     O43231   1.151   9.306   9.782  0.2788  0.3032  0.5336
  321MOL0     C43232   1.256   9.353   9.718 -0.3736  0.7911  0.9978
  321MOL0     C43233   1.300   9.303   9.596 -0.9389  0.7271  0.3713
  321MOL0     C43234   1.409   9.370   9.530  0.0552 -0.3377  0.0689
  321MOL0     C43235   1.470   9.480   9.583 -0.4378  0.2786  0.3159
  321MOL0     O43236   1.587   9.537   9.518 -0.3064  0.3455  0.5120
  321MOL0     C43237   1.590   9.535   9.374 -0.4835 -0.1340  1.1258
  321MOL0     C43238   1.698   9.626   9.323 -0.0424  0.0770  0.4612
  321MOL0     C43239   1.666   9.686   9.180 -0.3303  0.1226  0.1484
  321MOL0     C43240   1.761   9.800   9.146 -0.0645 -0.4763  0.5807
  321MOL0     C43241   1.864   9.737   9.052 -1.1954 -0.3558 -0.5015
  321MOL0     C43242   1.986   9.821   9.057  1.0922  0.1475 -0.3439
  321MOL0     C43243   1.970   9.953   8.976  0.7293  0.0814  0.7238
  321MOL0     C43244   2.087  10.044   9.009 -0.4530  0.6587  0.6086
  321MOL0    Cl43245   2.064  10.136   9.161  0.0226 -0.2103 -0.6054
  321MOL0     C43246   1.418   9.536   9.702 -0.0250  0.1602  1.0616
  321MOL0     C43247   1.308   9.469   9.766  0.0755  0.3298  0.0468
  321MOL0     O43248   1.264   9.105   9.821 -0.0866  0.2257  1.0229
  321MOL0     C43249   0.928   9.147   9.778 -0.7381  0.3829 -0.5547
  321MOL0     C43250   0.798   9.099   9.794 -0.5199 -0.7419  0.1045
  321MOL0     N43251   0.171   8.942   9.385 -0.3849 -0.3900 -0.2398
  321MOL0     N43252   0.046   8.924   9.378 -0.0438  0.9660  0.5020
  321MOL0     C43253   0.542   8.525   9.788 -0.2060 -0.8782 -0.2784
  321MOL0     C43254   0.679   8.575   9.812  0.1260  0.6553  0.8796
  321MOL0     C43255   1.145   8.543   9.880  0.6173 -0.6659  0.8640
  321MOL0     C43256   1.138   8.630   9.990  0.4761  0.5774 -0.5381
  321MOL0     C43257   1.256   8.670  10.052  0.9016  0.1077 -0.2598
  321MOL0     C43258   1.383   8.634  10.010 -0.2404  0.2581 -0.3115
  321MOL0     O43259   1.499   8.671  10.093 -0.3413  1.2537 -0.3790
  321MOL0     C43260   1.614   8.706  10.012 -0.4466  0.4484  0.2441
  321MOL0     C43261   1.712   8.594  10.037 -0.5155  0.2526  0.0965
  321MOL0     C43262   1.762   8.594  10.183  0.7128 -1.3187  0.0044
  321MOL0     C43263   1.900   8.653  10.201 -0.2239 -0.6166  0.5889
  321MOL0     C43264   1.904   8.788  10.137 -1.1136 -0.5223  0.9110
  321MOL0     C43265   1.902   8.902  10.088 -0.8284  0.6537 -0.2897
  321MOL0     C43266   1.389   8.548   9.905  0.1636  0.1183 -1.0778
  321MOL0     C43267   1.278   8.509   9.843  0.2644  0.1010  0.2556
  321MOL0     H43268   0.828   8.271   9.828 -0.4111 -0.0319 -0.0695
  321MOL0     H43269   0.617   8.198   9.826  2.1258  0.7509 -0.0684
  321MOL0     H43270   0.409   8.242   9.623  1.0043  1.1791 -0.2975
  321MOL0     H43271   0.375   8.149   9.776 -1.7150  0.4225 -0.3777
  321MOL0     H43272   0.167   8.159   9.623 -2.1101  0.7548  1.0070
  321MOL0     H43273   0.146   8.220   9.787  2.5365 -3.4129  1.7640
  321MOL0     H43274   0.147   8.456   9.710  0.0658 -1.2112  1.1491
  321MOL0     H43275   0.187   8.403   9.546  1.3854 -0.8897  0.1103
  321MOL0     H43276  -0.028   8.283   9.521 -0.3803  0.9994 -0.7481
  321MOL0     H43277  -0.051   8.311   9.699 -0.8402  0.9395  0.4178
  321MOL0     H43278  -0.186   8.454   9.583 -1.1597 -1.1224 -2.8152
  321MOL0     H43279  -0.052   8.562   9.628 -0.3830 -0.7595 -0.7655
  321MOL0     H43280   0.054   8.568   9.418  0.8506  0.5011  1.7584
  321MOL0     H43281  -0.056   8.442   9.351  1.0834 -2.0834  1.2165
  321MOL0     H43282  -0.124   8.658   9.269 -1.6070 -0.7275  0.0989
  321MOL0     H43283  -0.241   8.585   9.376 -0.5566 -0.3126  0.9187
  321MOL0     H43284  -0.161   8.745   9.556 -1.9712 -3.3937 -1.8461
  321MOL0     H43285  -0.209   8.846   9.427 -0.1808 -0.4556 -1.0097
  321MOL0     H43286   0.127   8.708   9.609 -0.7693 -0.6463 -1.7417
  321MOL0     H43287   0.387   8.748   9.553  0.2749 -0.4386  1.3431
  321MOL0     H43288   0.410   8.901   9.455  0.3208  1.2044  0.8282
  321MOL0     H43289   0.300   8.894   9.737  2.1002 -3.3787  0.9215
  321MOL0     H43290   0.348   9.044   9.657 -1.0359 -0.7532  0.3219
  321MOL0     H43291   0.583   8.951   9.672  0.9740 -2.0235 -1.9330
  321MOL0     H43292   0.531   8.822   9.764  0.9081  0.8367  1.1709
  321MOL0     H43293   0.447   8.993   9.954  2.3651  0.7302  1.3185
  321MOL0     H43294   0.496   9.115   9.841  3.9382 -0.4557 -1.8856
  321MOL0     H43295   0.843   8.923  10.078 -2.2644  0.0675  0.2082
  321MOL0     H43296   1.135   8.904  10.086  1.2436 -0.2654  1.1624
  321MOL0     H43297   1.180   9.076  10.089 -1.4512  1.4940 -3.7385
  321MOL0     H43298   1.033   9.018  10.173  0.8128 -3.0839  0.8237
  321MOL0     H43299   1.258   9.224   9.534 -1.0428 -0.4189  1.8671
  321MOL0     H43300   1.444   9.324   9.438  0.7925  0.9815 -0.3316
  321MOL0     H43301   1.600   9.431   9.343 -0.6098 -0.7344  2.9583
  321MOL0     H43302   1.497   9.574   9.331  1.4818  1.7398 -1.8821
  321MOL0     H43303   1.698   9.702   9.402 -1.3875  0.9369 -0.3099
  321MOL0     H43304   1.799   9.584   9.316  0.2840  0.5174  2.0950
  321MOL0     H43305   1.571   9.740   9.192  1.1370  4.1278 -3.6016
  321MOL0     H43306   1.654   9.610   9.103  1.5348 -1.9545  1.7726
  321MOL0     H43307   1.711   9.879   9.090  1.8262 -0.7448 -1.6569
  321MOL0     H43308   1.794   9.832   9.246  1.4231 -0.6110  0.1579
  321MOL0     H43309   1.827   9.731   8.950  0.6444 -0.3742 -1.2044
  321MOL0     H43310   1.888   9.636   9.086  3.0445  0.0882 -1.6001
  321MOL0     H43311   2.020   9.844   9.158  2.4351 -0.8122 -0.5422
  321MOL0     H43312   2.067   9.757   9.019  0.6754 -0.6207  0.0353
  321MOL0     H43313   1.878  10.010   8.993  0.8883  1.1736 -1.5933
  321MOL0     H43314   1.970   9.921   8.871  0.3818  1.2482  0.3489
  321MOL0     H43315   2.093  10.118   8.928  0.6793 -0.2663 -0.1889
  321MOL0     H43316   2.177   9.982   9.012 -1.3375 -0.9862 -2.6806
  321MOL0     H43317   1.452   9.631   9.742 -0.8782 -0.7810  4.3533
  321MOL0     H43318   1.257   9.493   9.859 -3.0423 -2.3669 -0.7872
  321MOL0     H43319   0.967   9.210   9.698  0.4378  0.2298 -0.1176
  321MOL0     H43320   0.728   9.142   9.723 -1.8312 -0.6145  1.4246
  321MOL0     H43321   0.457   8.592   9.799  1.4676  1.7170 -1.8617
  321MOL0     H43322   0.692   8.680   9.835 -1.1501  1.1642 -0.5520
  321MOL0     H43323   1.045   8.662  10.037  0.8693 -0.9826  1.4764
  321MOL0     H43324   1.264   8.730  10.142  3.5280 -2.6691  1.5648
  321MOL0     H43325   1.582   8.717   9.907  0.2473  1.5229  0.1329
  321MOL0     H43326   1.659   8.804  10.033 -0.0870 -0.3301  3.6424
  321MOL0     H43327   1.793   8.586   9.964  0.4664  0.3690  1.1293
  321MOL0     H43328   1.656   8.502  10.021  1.9721 -1.0679 -1.6234
  321MOL0     H43329   1.758   8.494  10.227 -1.1605 -1.0948  0.4455
  321MOL0     H43330   1.693   8.647  10.250 -1.8913 -3.3638 -0.8706
  321MOL0     H43331   1.979   8.591  10.159  2.9589  0.8572  3.9209
  321MOL0     H43332   1.936   8.674  10.302  0.6676  0.5068  0.0587
  321MOL0     H43333   1.921   8.996  10.040 -0.9479  0.9007  0.1397
  321MOL0     H43334   1.480   8.512   9.859  1.4464  2.1204 -0.2082
  321MOL0     H43335   1.305   8.443   9.762 -1.6228 -3.2005  2.0724
  322MOL0     O43336  10.940   3.193   3.645 -1.2854  0.2364  1.1350
  322MOL0     C43337  11.022   3.201   3.552 -0.3400  0.7111  0.0635
  322MOL0     O43338  11.010   3.134   3.433 -0.8486 -0.0861  0.2058
  322MOL0     C43339  10.895   3.070   3.394 -0.2155 -0.3135  0.4629
  322MOL0     C43340  10.768   3.107   3.435  0.5733  0.7427 -0.4760
  322MOL0     C43341  10.654   3.024   3.388 -0.1383 -0.1306 -0.1600
  322MOL0     C43342  10.676   2.904   3.313  0.0896  0.4928  0.3554
  322MOL0     O43343  10.579   2.812   3.275  0.0805 -0.0634 -0.1022
  322MOL0     C43344  10.444   2.842   3.309 -1.1241 -0.0115  0.3202
  322MOL0     C43345  10.367   2.910   3.198  0.2252 -0.0985 -0.0521
  322MOL0     C43346  10.214   2.920   3.229  0.3470 -0.7882 -0.3035
  322MOL0     C43347  10.150   2.781   3.274  0.4395 -0.4796 -0.2034
  322MOL0     C43348   9.992   2.786   3.298  0.1559 -0.2977 -0.1153
  322MOL0     C43349   9.949   2.926   3.357 -0.5502 -0.1188  0.0788
  322MOL0     C43350  10.008   2.957   3.486 -0.9171  0.3960 -0.2555
  322MOL0     C43351   9.907   2.968   3.591  0.3963 -0.8119  1.1561
  322MOL0     N43352   9.965   3.013   3.714 -0.2893 -0.3790  0.9192
  322MOL0     C43353   9.919   3.107   3.794  0.6764  0.7615 -0.2026
  322MOL0     C43354   9.980   3.108   3.909 -0.7051 -0.2315 -0.3581
  322MOL0     C43355   9.948   3.193   4.026  0.1265  0.4539 -0.5113
  322MOL0     C43356   9.804   3.242   4.047  1.0512 -0.2982 -0.3051
  322MOL0     C43357   9.711   3.127   4.082 -0.1702  0.3900  0.1865
  322MOL0     C43358   9.568   3.161   4.101 -0.5027  0.2063 -0.3338
  322MOL0     O43359   9.527   3.228   3.985  0.0588 -0.4587  0.2391
  322MOL0     C43360   9.391   3.254   3.974  0.3090  0.4991  0.1183
  322MOL0     C43361   9.356   3.314   3.856  0.4830  0.1613  0.2996
  322MOL0     C43362   9.226   3.361   3.835  0.3438 -0.2013  1.2105
  322MOL0     C43363   9.210   3.439   3.703 -0.5102 -0.7593  0.8068
  322MOL0     C43364   9.120   3.336   3.927  0.0218 -0.0467  0.2187
  322MOL0     C43365   8.978   3.372   3.908 -0.8137  0.4157  0.2043
  322MOL0     O43366   8.936   3.410   3.785  0.1388  0.2222 -0.0943
  322MOL0     C43367   8.801   3.412   3.776  0.6866 -0.6275 -0.2259
  322MOL0     C43368   8.735   3.337   3.676 -0.5387 -0.2442 -0.9018
  322MOL0     C43369   8.601   3.359   3.648 -0.3354  1.2270 -0.2880
  322MOL0     C43370   8.529   3.462   3.711 -0.2501 -0.2119 -0.0278
  322MOL0     O43371   8.407   3.483   3.659  0.1681 -0.1869 -0.2810
  322MOL0     C43372   8.313   3.565   3.725  0.8006 -1.2364  0.6901
  322MOL0     C43373   8.166   3.546   3.655 -0.9928  0.0640  0.4776
  322MOL0     C43374   8.100   3.424   3.736 -0.2239 -2.0349 -0.6245
  322MOL0     C43375   7.968   3.383   3.670  0.2339 -0.6430 -0.2989
  322MOL0     C43376   7.916   3.251   3.721  0.6010  0.0882  0.1796
  322MOL0     C43377   7.797   3.192   3.645 -0.5614 -1.1061 -0.1553
  322MOL0     C43378   7.745   3.059   3.699 -0.1995 -0.4692 -0.5925
  322MOL0     C43379   7.610   3.095   3.771  0.1824  0.5281 -0.0230
  322MOL0    Cl43380   7.488   3.155   3.656  0.0142  0.0195  0.1011
  322MOL0     C43381   8.594   3.550   3.807 -0.6604  0.1413  0.4583
  322MOL0     C43382   8.730   3.516   3.831  0.2418  0.0535  0.2199
  322MOL0     O43383   8.900   3.335   4.000 -0.5149  0.0032  0.0516
  322MOL0     C43384   9.156   3.266   4.047 -0.0069 -1.1361 -0.1128
  322MOL0     C43385   9.285   3.215   4.062 -0.4831 -0.6486  0.1598
  322MOL0     N43386  10.071   2.999   3.905  0.3561  0.0505 -0.2160
  322MOL0     N43387  10.059   2.952   3.780 -0.4734  0.5328 -0.2849
  322MOL0     C43388  10.811   2.868   3.276  0.3248  0.3129 -0.1480
  322MOL0     C43389  10.914   2.954   3.306 -0.5755 -0.3643 -0.0546
  322MOL0     C43390  11.141   3.285   3.564 -0.4430  0.5797 -0.3938
  322MOL0     C43391  11.139   3.395   3.647 -0.2222 -0.0659  0.2449
  322MOL0     C43392  11.258   3.463   3.658  0.2663  0.8364 -0.1134
  322MOL0     C43393  11.379   3.422   3.602 -0.4784  0.1275 -0.7652
  322MOL0     O43394  11.494   3.483   3.645 -0.6927  0.3113 -0.3527
  322MOL0     C43395  11.625   3.444   3.611  1.1374 -0.1260  0.4451
  322MOL0     C43396  11.725   3.537   3.677  1.1695  0.7281  0.4565
  322MOL0     C43397  11.863   3.492   3.640 -0.3571  0.8917  0.0556
  322MOL0     C43398  11.972   3.594   3.676 -0.3775 -0.5181  0.6399
  322MOL0     C43399  12.101   3.532   3.636 -0.0737  1.1860  0.2142
  322MOL0     C43400  12.196   3.470   3.583 -0.2712  0.0516 -0.6213
  322MOL0     C43401  11.379   3.310   3.519  0.1593 -0.6000  1.2097
  322MOL0     C43402  11.260   3.246   3.494  0.5685  0.3671 -0.3100
  322MOL0     H43403  10.734   3.170   3.517 -0.9052 -2.1781  1.3317
  322MOL0     H43404  10.559   3.059   3.425 -0.4024 -0.6156 -0.3738
  322MOL0     H43405  10.412   2.737   3.315  0.2982 -0.4841 -0.0085
  322MOL0     H43406  10.437   2.903   3.399  1.0454 -1.6619  1.7205
  322MOL0     H43407  10.412   3.008   3.180  4.5989 -1.9293 -0.2446
  322MOL0     H43408  10.380   2.861   3.101  1.6499  2.4074 -1.2196
  322MOL0     H43409  10.204   2.993   3.310 -0.3831 -1.2727  0.0551
  322MOL0     H43410  10.175   2.958   3.134 -1.1926  0.8495  0.9044
  322MOL0     H43411  10.175   2.711   3.194 -1.8706 -2.1468  0.4276
  322MOL0     H43412  10.184   2.746   3.372 -0.3719  3.2279  1.5718
  322MOL0     H43413   9.959   2.773   3.194  4.6874 -1.8901 -1.6066
  322MOL0     H43414   9.958   2.702   3.359  1.1901 -1.7716 -1.5091
  322MOL0     H43415   9.981   3.003   3.286 -0.5858  2.7213  2.9269
  322MOL0     H43416   9.840   2.931   3.365 -0.5157  0.7497  0.1011
  322MOL0     H43417  10.090   2.892   3.520  0.4185  2.5044  0.8026
  322MOL0     H43418  10.063   3.051   3.477  0.0584 -0.1041  0.2747
  322MOL0     H43419   9.856   2.872   3.607 -0.5781 -0.4834  0.1443
  322MOL0     H43420   9.827   3.028   3.549  1.7132 -0.8482 -1.7000
  322MOL0     H43421   9.834   3.168   3.764 -0.0097 -0.0176  0.1229
  322MOL0     H43422   9.982   3.131   4.110 -0.6393  0.9328  0.1705
  322MOL0     H43423  10.010   3.282   4.013 -0.3304  0.8630  0.0530
  322MOL0     H43424   9.760   3.302   3.968 -3.3641  1.3883  3.0279
  322MOL0     H43425   9.801   3.309   4.134  1.0547 -0.1114 -0.4494
  322MOL0     H43426   9.756   3.096   4.177  5.0216  3.2364 -0.9858
  322MOL0     H43427   9.696   3.054   4.002 -1.7382 -1.1302  1.7849
  322MOL0     H43428   9.549   3.230   4.184  1.3479 -0.0637  0.3562
  322MOL0     H43429   9.498   3.078   4.109 -0.1427  0.0453  1.6012
  322MOL0     H43430   9.432   3.343   3.784  0.7419  1.7071  1.1484
  322MOL0     H43431   9.303   3.419   3.649  0.6173  0.6953  2.1231
  322MOL0     H43432   9.120   3.410   3.647 -0.3084  0.6760 -0.3164
  322MOL0     H43433   9.206   3.547   3.719  0.2085 -0.5318 -0.4499
  322MOL0     H43434   8.781   3.252   3.627 -0.6314 -0.5434 -0.4789
  322MOL0     H43435   8.552   3.291   3.579 -0.8890  1.6538 -0.3207
  322MOL0     H43436   8.319   3.531   3.829  1.0489  0.9311  1.4373
  322MOL0     H43437   8.332   3.673   3.714  1.3772 -1.5110 -1.6914
  322MOL0     H43438   8.117   3.644   3.660  3.5833  2.7554 -0.9378
  322MOL0     H43439   8.176   3.531   3.547  1.5673 -0.1453  0.6832
  322MOL0     H43440   8.082   3.461   3.837 -0.0770  0.2478 -1.3877
  322MOL0     H43441   8.176   3.346   3.750 -0.5441 -1.7305  4.2657
  322MOL0     H43442   7.894   3.452   3.712 -1.0962 -3.2327  2.0095
  322MOL0     H43443   7.966   3.385   3.561  1.1166 -1.0205 -0.3297
  322MOL0     H43444   7.897   3.259   3.829  1.9698 -0.0002  0.4458
  322MOL0     H43445   8.004   3.187   3.713  0.7501  0.4990 -1.9673
  322MOL0     H43446   7.718   3.267   3.642  0.6824  0.2225 -0.6566
  322MOL0     H43447   7.834   3.178   3.543  0.3407 -0.6540  0.0944
  322MOL0     H43448   7.807   3.005   3.771  0.6941 -0.5810 -1.4289
  322MOL0     H43449   7.727   2.991   3.616  0.1930  0.8169 -1.7736
  322MOL0     H43450   7.626   3.172   3.847  1.9999 -1.1728  1.4290
  322MOL0     H43451   7.572   3.014   3.834 -1.2585 -2.2843 -4.1139
  322MOL0     H43452   8.536   3.631   3.849  0.4072  1.0701  0.2036
  322MOL0     H43453   8.784   3.587   3.894  2.0441  0.1777 -1.3500
  322MOL0     H43454   9.087   3.238   4.126 -0.2156 -0.2200  0.0332
  322MOL0     H43455   9.302   3.151   4.147 -0.3167  1.9754  2.2488
  322MOL0     H43456  10.830   2.784   3.211 -0.0561  0.1798 -0.0910
  322MOL0     H43457  11.016   2.934   3.276  0.4070 -0.4625  2.9827
  322MOL0     H43458  11.048   3.425   3.699  0.0524 -1.4771  1.5955
  322MOL0     H43459  11.258   3.548   3.726 -1.2252  0.7486  0.0386
  322MOL0     H43460  11.650   3.342   3.644  2.3461 -0.2553 -0.7686
  322MOL0     H43461  11.630   3.439   3.502  0.1565  1.1083  0.3277
  322MOL0     H43462  11.701   3.548   3.783 -0.6160 -0.9260  0.2874
  322MOL0     H43463  11.711   3.637   3.636 -0.9614  1.2240  2.2513
  322MOL0     H43464  11.865   3.489   3.531 -0.2304 -2.2377  0.0514
  322MOL0     H43465  11.887   3.392   3.678  2.0353  0.5555 -2.0879
  322MOL0     H43466  11.977   3.609   3.784  0.9315 -1.6738  0.7695
  322MOL0     H43467  11.959   3.687   3.619 -0.3603 -1.5414 -1.0959
  322MOL0     H43468  12.270   3.418   3.526 -0.6959  0.9971 -2.0867
  322MOL0     H43469  11.469   3.272   3.471 -1.1184 -0.6047 -1.3542
  322MOL0     H43470  11.269   3.159   3.430 -0.4185 -2.2406  2.8501
  323MOL0     O43471   6.184   1.015   0.065 -0.2065 -0.2090  0.4336
  323MOL0     C43472   6.181   0.979   0.179 -0.6213  0.3602 -0.4145
  323MOL0     O43473   6.081   0.915   0.242  0.1580  0.2096  0.7309
  323MOL0     C43474   5.973   0.865   0.180  0.5408 -0.1268  0.6351
  323MOL0     C43475   5.888   0.792   0.265 -1.3418  0.2653 -0.3683
  323MOL0     C43476   5.772   0.729   0.226 -1.0483 -0.4677  0.6388
  323MOL0     C43477   5.736   0.745   0.091  0.3865  0.5577 -0.6040
  323MOL0     O43478   5.632   0.663   0.053  0.0878  0.5643  1.1044
  323MOL0     C43479   5.567   0.689  -0.078 -0.4699 -0.5393  0.6867
  323MOL0     C43480   5.465   0.577  -0.113 -0.3385 -0.5796  0.0682
  323MOL0     C43481   5.408   0.599  -0.252 -0.4070  0.2898 -0.1823
  323MOL0     C43482   5.277   0.527  -0.257  0.5113 -0.6278  0.3686
  323MOL0     C43483   5.209   0.569  -0.393  0.5408  0.0217  0.0691
  323MOL0     C43484   5.091   0.472  -0.427  0.3589 -0.4344  0.1322
  323MOL0     C43485   4.969   0.484  -0.339 -0.0349 -0.1239 -0.7197
  323MOL0     C43486   4.888   0.617  -0.344  0.7610 -0.3906 -0.4817
  323MOL0     N43487   4.768   0.625  -0.269  1.3740 -0.0417  0.5155
  323MOL0     C43488   4.644   0.566  -0.296 -0.2169 -0.3929  0.2401
  323MOL0     C43489   4.549   0.627  -0.224 -0.0915 -0.0566 -0.2217
  323MOL0     C43490   4.400   0.610  -0.230 -0.1251 -0.1544 -0.7027
  323MOL0     C43491   4.347   0.477  -0.188 -0.1095  0.3487  0.4325
  323MOL0     C43492   4.357   0.448  -0.034 -0.7444  0.5845  0.3311
  323MOL0     C43493   4.264   0.529   0.055  0.6602 -0.1601  0.6259
  323MOL0     O43494   4.300   0.664   0.070  0.1057 -0.9434  0.1369
  323MOL0     C43495   4.218   0.760   0.123  0.2464 -1.1082  0.1863
  323MOL0     C43496   4.090   0.735   0.174 -0.0063  0.6715 -1.1405
  323MOL0     C43497   4.003   0.831   0.222 -0.7006 -0.3217  0.1337
  323MOL0     C43498   3.878   0.782   0.275  0.4342  0.8281  0.5216
  323MOL0     C43499   4.053   0.965   0.229  0.9749 -0.2965  0.4117
  323MOL0     C43500   3.964   1.080   0.264 -0.1112  0.5078  0.6735
  323MOL0     O43501   4.029   1.196   0.297  0.4249 -0.1901 -0.3316
  323MOL0     C43502   3.961   1.317   0.324  0.8236  0.8559  0.4543
  323MOL0     C43503   3.919   1.340   0.451  0.2712  0.6784 -0.2903
  323MOL0     C43504   3.861   1.461   0.488  0.3153  0.2235 -0.1625
  323MOL0     C43505   3.859   1.566   0.397  0.1936  0.2748  0.5676
  323MOL0     O43506   3.782   1.672   0.431 -0.5004  0.3437  0.1883
  323MOL0     C43507   3.768   1.790   0.347 -0.5337 -0.1154  1.1101
  323MOL0     C43508   3.683   1.902   0.407 -0.8964  0.9687 -0.0433
  323MOL0     C43509   3.678   2.017   0.308  0.6994  1.0502 -0.1426
  323MOL0     C43510   3.554   2.111   0.333  0.5637  0.9011 -0.0398
  323MOL0     C43511   3.576   2.193   0.463  0.7617 -0.7054  0.2012
  323MOL0     C43512   3.484   2.318   0.487 -0.5282  0.0721 -0.2893
  323MOL0     C43513   3.484   2.415   0.366 -0.1524 -1.0495 -0.3658
  323MOL0     C43514   3.604   2.509   0.373  0.1558 -0.6467  0.1969
  323MOL0    Cl43515   3.600   2.616   0.523  0.4020 -0.3047  0.7609
  323MOL0     C43516   3.906   1.542   0.263 -0.5831  0.1859  0.5353
  323MOL0     C43517   3.961   1.423   0.232  0.1777  0.0596 -0.1252
  323MOL0     O43518   3.844   1.071   0.261 -0.1220  0.8388 -1.2112
  323MOL0     C43519   4.185   0.988   0.192  0.7415 -0.1188 -0.4909
  323MOL0     C43520   4.267   0.884   0.147 -0.5256  0.0625 -0.9224
  323MOL0     N43521   4.613   0.723  -0.142  0.5546  0.1107 -0.1342
  323MOL0     N43522   4.736   0.724  -0.175 -0.4097 -0.0923  0.3891
  323MOL0     C43523   5.809   0.831   0.011  0.8846  0.3860  0.2239
  323MOL0     C43524   5.924   0.887   0.053  0.1893  0.6215  0.2948
  323MOL0     C43525   6.297   1.020   0.263  0.9549 -0.1607 -0.2022
  323MOL0     C43526   6.303   1.005   0.405  0.5285  0.3645  0.4020
  323MOL0     C43527   6.409   1.052   0.475  0.8370 -1.0817 -0.4570
  323MOL0     C43528   6.523   1.114   0.414 -0.3384 -0.4915  0.0725
  323MOL0     O43529   6.627   1.158   0.490  0.0594 -0.4742  0.1235
  323MOL0     C43530   6.745   1.226   0.438 -0.0118 -0.1562 -0.4730
  323MOL0     C43531   6.866   1.189   0.529  0.5481 -0.4958  0.1196
  323MOL0     C43532   6.896   1.036   0.529  0.3440  0.2358  0.8405
  323MOL0     C43533   7.023   1.020   0.611 -0.4853  0.0175 -0.2220
  323MOL0     C43534   7.062   0.882   0.615 -0.2796  1.1068 -0.5424
  323MOL0     C43535   7.094   0.765   0.620  0.5400  0.7772 -0.7316
  323MOL0     C43536   6.518   1.123   0.279  1.1086 -1.0560  0.2926
  323MOL0     C43537   6.406   1.077   0.202 -0.2504 -0.1380 -0.2226
  323MOL0     H43538   5.911   0.774   0.370 -0.1591 -1.7309 -0.9218
  323MOL0     H43539   5.715   0.682   0.305 -0.9446  2.4454  2.6105
  323MOL0     H43540   5.518   0.786  -0.069  0.2593 -0.2280  1.3284
  323MOL0     H43541   5.644   0.693  -0.154  1.2471 -0.7431  2.3467
  323MOL0     H43542   5.513   0.479  -0.099  0.2660 -0.4921 -1.2333
  323MOL0     H43543   5.384   0.579  -0.039  0.5473 -2.8345  1.2222
  323MOL0     H43544   5.390   0.707  -0.252  1.0443  0.7678  4.3801
  323MOL0     H43545   5.475   0.563  -0.331  0.4056 -0.2766  0.7442
  323MOL0     H43546   5.281   0.418  -0.251  3.7470 -0.8531 -2.8310
  323MOL0     H43547   5.214   0.549  -0.171  1.4149  2.9666  0.2456
  323MOL0     H43548   5.171   0.670  -0.374  3.1713  1.1039 -0.0959
  323MOL0     H43549   5.275   0.572  -0.480  3.2000  1.2189  2.0160
  323MOL0     H43550   5.059   0.502  -0.527  2.9399 -1.4640 -1.1133
  323MOL0     H43551   5.115   0.366  -0.438  0.1760 -0.5036  0.3892
  323MOL0     H43552   4.919   0.397  -0.381  2.1387 -1.6753 -0.2904
  323MOL0     H43553   4.982   0.457  -0.234 -1.5508  0.7413 -0.2801
  323MOL0     H43554   4.883   0.653  -0.447  1.3736 -0.7399 -0.6362
  323MOL0     H43555   4.955   0.689  -0.295 -1.0902  0.5098  0.8401
  323MOL0     H43556   4.623   0.488  -0.368  0.7750 -1.0434  0.6231
  323MOL0     H43557   4.348   0.691  -0.178  1.2428  1.2444 -1.4608
  323MOL0     H43558   4.364   0.643  -0.328 -2.0794  1.0448  0.3506
  323MOL0     H43559   4.395   0.398  -0.246  0.7601  1.9505 -1.1443
  323MOL0     H43560   4.242   0.472  -0.217  0.0770 -1.7079 -0.0467
  323MOL0     H43561   4.461   0.465  -0.004  0.3621  2.2445 -3.7314
  323MOL0     H43562   4.344   0.341  -0.016  0.2442  0.7239  2.0280
  323MOL0     H43563   4.280   0.476   0.149  1.2568 -0.1674  0.5255
  323MOL0     H43564   4.158   0.522   0.027  0.2967 -0.1416  1.9273
  323MOL0     H43565   4.043   0.638   0.159 -0.0169  0.7381 -1.5483
  323MOL0     H43566   3.869   0.833   0.372  5.5387 -0.6488  2.1017
  323MOL0     H43567   3.792   0.800   0.211  0.6387  0.1597  0.0559
  323MOL0     H43568   3.884   0.675   0.298  2.3155  1.1752  1.9172
  323MOL0     H43569   3.929   1.259   0.524  2.4445 -0.7185 -2.0083
  323MOL0     H43570   3.832   1.472   0.592  1.0118  2.0303 -0.1227
  323MOL0     H43571   3.868   1.832   0.334 -0.3803 -0.4563  1.1870
  323MOL0     H43572   3.728   1.758   0.251  1.7279  2.7446 -0.9515
  323MOL0     H43573   3.581   1.867   0.426 -0.5553  0.1973  0.4410
  323MOL0     H43574   3.726   1.944   0.498 -1.2549 -2.0227  1.6619
  323MOL0     H43575   3.655   1.979   0.208 -1.1372  4.7099 -1.2800
  323MOL0     H43576   3.766   2.081   0.309 -1.1119  3.7178 -1.1674
  323MOL0     H43577   3.541   2.176   0.247 -1.4558 -0.3616 -0.7654
  323MOL0     H43578   3.471   2.040   0.341  3.4155 -3.4678 -3.8649
  323MOL0     H43579   3.676   2.236   0.456  0.9804 -1.4486 -1.9803
  323MOL0     H43580   3.575   2.128   0.551  3.2544 -1.5137 -0.2825
  323MOL0     H43581   3.384   2.278   0.510 -0.6014 -0.1192 -0.9093
  323MOL0     H43582   3.524   2.365   0.577  1.5881  0.2591 -1.2726
  323MOL0     H43583   3.396   2.480   0.371  2.3407  2.5106  2.5324
  323MOL0     H43584   3.472   2.357   0.274  0.0486 -1.1104 -0.3538
  323MOL0     H43585   3.612   2.571   0.282  3.5309 -2.7277 -1.1244
  323MOL0     H43586   3.700   2.457   0.377 -0.3173 -1.5206  0.2413
  323MOL0     H43587   3.897   1.617   0.186  0.6340 -0.4862 -0.2858
  323MOL0     H43588   4.003   1.412   0.132  0.1721 -2.1833  0.0741
  323MOL0     H43589   4.216   1.091   0.183  1.6303 -0.0420  2.4123
  323MOL0     H43590   4.368   0.913   0.118 -0.1781 -0.3877 -0.1748
  323MOL0     H43591   5.772   0.861  -0.087  1.1276  0.2417  0.0884
  323MOL0     H43592   5.970   0.959  -0.015 -3.6776  2.6482 -0.4806
  323MOL0     H43593   6.229   0.956   0.468  0.2234  1.0097  0.5527
  323MOL0     H43594   6.398   1.058   0.583 -2.9064  3.7430 -0.7718
  323MOL0     H43595   6.782   1.193   0.341  2.3790 -2.1060  0.9822
  323MOL0     H43596   6.740   1.335   0.443 -0.4713 -0.2215  2.1705
  323MOL0     H43597   6.851   1.233   0.628 -2.2061  2.7019 -1.5168
  323MOL0     H43598   6.953   1.238   0.484  0.7047 -2.0877 -1.4304
  323MOL0     H43599   6.919   0.998   0.429 -1.0301 -0.0684  0.6258
  323MOL0     H43600   6.812   0.984   0.575 -0.4285 -0.1392 -0.9040
  323MOL0     H43601   7.013   1.061   0.712  0.4639 -0.0075 -0.1103
  323MOL0     H43602   7.098   1.079   0.557 -0.6085 -1.8918 -2.6459
  323MOL0     H43603   7.107   0.659   0.610  2.4217  0.8227  0.7760
  323MOL0     H43604   6.594   1.169   0.217 -3.0702  3.2647 -2.3317
  323MOL0     H43605   6.415   1.071   0.094 -1.7432  0.7187 -0.4386
  324MOL0     O43606   9.169   7.593   7.753 -0.2359 -0.9784  0.9808
  324MOL0     C43607   9.114   7.617   7.861  0.6052 -0.2114  0.2539
  324MOL0     O43608   9.174   7.676   7.968 -0.3587 -0.3319 -0.5683
  324MOL0     C43609   9.305   7.688   7.967  0.2388 -0.0646 -0.6011
  324MOL0     C43610   9.369   7.782   7.891 -0.3264  0.0406 -0.5961
  324MOL0     C43611   9.513   7.793   7.887  1.3304 -0.8160  0.4390
  324MOL0     C43612   9.587   7.702   7.963  0.5466 -0.0883  0.5327
  324MOL0     O43613   9.719   7.721   7.955 -0.6185 -0.0792  0.4028
  324MOL0     C43614   9.792   7.591   7.971  1.5710  0.5047 -0.0765
  324MOL0     C43615   9.932   7.633   7.929  0.4564  0.7739  1.2260
  324MOL0     C43616  10.028   7.517   7.935  0.0856 -1.2248  0.1960
  324MOL0     C43617  10.157   7.551   7.850  0.9742  0.4747 -0.4056
  324MOL0     C43618  10.231   7.423   7.794 -0.4841 -0.3987  0.3674
  324MOL0     C43619  10.341   7.458   7.698 -0.1969 -1.1386  0.1316
  324MOL0     C43620  10.397   7.332   7.628  0.2255 -0.1388  0.0156
  324MOL0     C43621  10.522   7.371   7.550 -0.8293  0.3157  0.3088
  324MOL0     N43622  10.624   7.450   7.622  0.0210  0.0725  0.1870
  324MOL0     C43623  10.729   7.392   7.687 -0.4488 -0.6189 -0.2139
  324MOL0     C43624  10.820   7.494   7.705  0.5518 -0.6993 -0.0635
  324MOL0     C43625  10.952   7.483   7.766  0.0758 -0.1404 -0.3746
  324MOL0     C43626  11.029   7.364   7.693 -0.0198  0.4324 -1.1598
  324MOL0     C43627  11.174   7.370   7.745 -0.4534  0.4323  0.3922
  324MOL0     C43628  11.262   7.250   7.706  0.5614 -0.9503  0.9710
  324MOL0     O43629  11.274   7.264   7.561 -0.3689  0.0621  0.3905
  324MOL0     C43630  11.330   7.159   7.495 -0.8294 -1.4562  0.3134
  324MOL0     C43631  11.370   7.037   7.552 -0.0632 -0.2690  0.7844
  324MOL0     C43632  11.432   6.935   7.468 -0.1807 -0.1072  0.8503
  324MOL0     C43633  11.488   6.819   7.552 -1.0174 -1.3684  0.6469
  324MOL0     C43634  11.442   6.957   7.325 -0.1613  0.3014  0.9545
  324MOL0     C43635  11.496   6.855   7.230  0.1763  0.3781 -0.1949
  324MOL0     O43636  11.431   6.849   7.111  0.7994  0.3599  1.0876
  324MOL0     C43637  11.455   6.761   7.001  0.1336 -0.7622 -0.3700
  324MOL0     C43638  11.405   6.804   6.877  0.3320  0.1374  0.0994
  324MOL0     C43639  11.444   6.733   6.762 -0.2094 -0.6744 -0.3184
  324MOL0     C43640  11.536   6.632   6.758  0.0489  0.8474  1.0848
  324MOL0     O43641  11.585   6.559   6.651  0.4717 -0.2260 -0.0429
  324MOL0     C43642  11.523   6.570   6.517  0.9199  0.4022  0.2169
  324MOL0     C43643  11.618   6.499   6.411  0.8657 -0.0227 -1.1042
  324MOL0     C43644  11.647   6.353   6.462 -0.2209 -0.0317  0.1043
  324MOL0     C43645  11.743   6.285   6.372 -0.3229  0.3052 -0.2909
  324MOL0     C43646  11.896   6.321   6.403 -0.2454 -0.3728  0.8855
  324MOL0     C43647  11.994   6.261   6.306 -0.0063 -0.3307  0.2811
  324MOL0     C43648  12.123   6.343   6.318  0.5972  0.3807 -0.7193
  324MOL0     C43649  12.251   6.262   6.319  0.5167 -0.9872 -0.3191
  324MOL0    Cl43650  12.404   6.367   6.324  0.2833 -0.2106 -0.3508
  324MOL0     C43651  11.582   6.592   6.885  0.3446 -0.2792 -0.2137
  324MOL0     C43652  11.550   6.660   6.999 -0.0845  0.0351 -0.5109
  324MOL0     O43653  11.591   6.786   7.279  0.5929  0.3984  0.1395
  324MOL0     C43654  11.393   7.080   7.271  0.2645 -0.7687  0.0373
  324MOL0     C43655  11.339   7.180   7.354  0.0108  0.4021  0.8661
  324MOL0     N43656  10.769   7.614   7.656  0.1156 -0.9690 -0.3356
  324MOL0     N43657  10.647   7.583   7.607  0.1196 -0.0251  0.4748
  324MOL0     C43658   9.517   7.597   8.039  0.4209  0.3814  0.7750
  324MOL0     C43659   9.377   7.596   8.053  0.8511  0.5468 -0.3631
  324MOL0     C43660   8.972   7.577   7.871  1.0270 -0.4573 -0.4054
  324MOL0     C43661   8.895   7.519   7.771  0.1015 -0.0415  0.6207
  324MOL0     C43662   8.766   7.476   7.776  0.4777 -0.6367 -0.0397
  324MOL0     C43663   8.693   7.504   7.898  0.5790 -0.3295  0.2982
  324MOL0     O43664   8.563   7.450   7.900 -0.4234 -0.0878 -0.6109
  324MOL0     C43665   8.486   7.446   8.027  0.5149  1.1253  0.2642
  324MOL0     C43666   8.344   7.401   8.009  0.3749  0.0482 -0.7985
  324MOL0     C43667   8.274   7.354   8.136  0.2864  0.2058 -0.2867
  324MOL0     C43668   8.334   7.222   8.186 -0.0409 -0.2563  0.1174
  324MOL0     C43669   8.241   7.156   8.283  0.7962 -0.0732 -0.4165
  324MOL0     C43670   8.170   7.100   8.373 -0.7544 -0.3375  0.3352
  324MOL0     C43671   8.758   7.566   8.000 -0.2826  0.1418  0.2719
  324MOL0     C43672   8.902   7.602   7.989  0.0626 -0.6248 -0.7394
  324MOL0     H43673   9.301   7.852   7.844 -0.2994  0.0338 -0.6450
  324MOL0     H43674   9.560   7.869   7.826 -1.3390  0.0817 -0.6512
  324MOL0     H43675   9.782   7.552   8.072 -0.6955 -1.6443 -1.0406
  324MOL0     H43676   9.756   7.512   7.904  0.0461 -0.1223  1.4298
  324MOL0     H43677   9.924   7.673   7.827 -1.8272 -3.2019 -0.3757
  324MOL0     H43678   9.982   7.706   7.993  1.2406 -0.0326  1.5517
  324MOL0     H43679  10.054   7.500   8.040 -1.1566 -0.9021  0.5743
  324MOL0     H43680   9.979   7.435   7.881 -2.8750  0.5394  0.0379
  324MOL0     H43681  10.136   7.624   7.772  1.8550  1.8683  0.5919
  324MOL0     H43682  10.222   7.593   7.928  0.2760 -1.2103  1.1710
  324MOL0     H43683  10.274   7.366   7.876 -2.9734  1.0711  2.8697
  324MOL0     H43684  10.147   7.365   7.753 -1.2939 -0.2935  1.8226
  324MOL0     H43685  10.301   7.527   7.623  0.7405  0.9407  1.4450
  324MOL0     H43686  10.426   7.502   7.753  0.6896  0.2457 -2.2083
  324MOL0     H43687  10.422   7.250   7.695 -0.8039 -1.4698 -1.1609
  324MOL0     H43688  10.325   7.291   7.557  0.9283  0.8368 -1.3015
  324MOL0     H43689  10.483   7.439   7.474 -2.0695  0.6427  1.1992
  324MOL0     H43690  10.561   7.282   7.502  1.5225  0.1167  2.4014
  324MOL0     H43691  10.744   7.287   7.710  0.9147 -0.5351 -0.6585
  324MOL0     H43692  11.005   7.577   7.749  0.2661 -0.2441 -0.3589
  324MOL0     H43693  10.946   7.469   7.874  1.3755  0.7525 -0.1625
  324MOL0     H43694  11.025   7.362   7.584 -1.3563  1.0902 -1.1452
  324MOL0     H43695  10.993   7.266   7.726  0.9352  0.6891  0.7839
  324MOL0     H43696  11.172   7.372   7.855 -3.8212  0.1867  0.4522
  324MOL0     H43697  11.231   7.458   7.714  2.2129 -1.3147 -0.0031
  324MOL0     H43698  11.212   7.161   7.746 -1.5876 -0.1505  0.2409
  324MOL0     H43699  11.360   7.266   7.751  1.3794 -0.2544 -0.9477
  324MOL0     H43700  11.346   7.006   7.653  0.5733 -3.2292  0.0986
  324MOL0     H43701  11.492   6.721   7.503  0.3534  0.0155 -2.2880
  324MOL0     H43702  11.590   6.847   7.579 -0.5872  2.6925 -3.6688
  324MOL0     H43703  11.417   6.797   7.632 -2.6856 -1.5027 -0.7948
  324MOL0     H43704  11.324   6.876   6.879  1.1478  1.0665  0.1164
  324MOL0     H43705  11.409   6.770   6.666 -2.1128  0.1278  0.6413
  324MOL0     H43706  11.427   6.518   6.523  1.9004 -1.8108 -1.5860
  324MOL0     H43707  11.512   6.675   6.488  1.9016  0.1497 -1.1865
  324MOL0     H43708  11.578   6.498   6.309 -0.9606 -1.6979 -0.4259
  324MOL0     H43709  11.714   6.551   6.416  0.4692  0.5969  0.2713
  324MOL0     H43710  11.555   6.294   6.472  2.1574 -3.9338  0.8702
  324MOL0     H43711  11.697   6.360   6.559 -2.0528  4.7818  1.0310
  324MOL0     H43712  11.732   6.177   6.386 -0.4323  0.4392  0.6770
  324MOL0     H43713  11.715   6.313   6.270 -1.5601 -1.0827 -0.3624
  324MOL0     H43714  11.923   6.294   6.505  2.3972 -0.3719  0.2527
  324MOL0     H43715  11.915   6.428   6.385 -0.5656 -0.1713  1.7234
  324MOL0     H43716  12.013   6.154   6.317  1.9084 -0.0335  0.2422
  324MOL0     H43717  11.959   6.264   6.202 -0.3627 -0.3725  0.3991
  324MOL0     H43718  12.120   6.418   6.397  0.5465 -0.2449 -0.1245
  324MOL0     H43719  12.137   6.408   6.231 -0.0214  0.8697 -0.4564
  324MOL0     H43720  12.242   6.203   6.228  2.3083  1.3373 -2.1159
  324MOL0     H43721  12.253   6.200   6.410  0.4184  1.4320  1.4085
  324MOL0     H43722  11.644   6.503   6.881 -0.7557 -1.0147 -1.9332
  324MOL0     H43723  11.595   6.617   7.088 -0.6311  0.0594 -0.2198
  324MOL0     H43724  11.399   7.113   7.167  0.9866 -0.6555  0.1085
  324MOL0     H43725  11.296   7.273   7.317  0.3161 -0.1434 -0.9632
  324MOL0     H43726   9.577   7.519   8.085  4.0914  2.3889 -0.1811
  324MOL0     H43727   9.327   7.515   8.106  2.1237 -0.3958 -0.5300
  324MOL0     H43728   8.947   7.500   7.678 -2.4931 -0.8287 -0.7558
  324MOL0     H43729   8.714   7.434   7.690  2.2355 -1.2569 -0.8490
  324MOL0     H43730   8.536   7.370   8.088 -1.5706 -1.2110 -0.7490
  324MOL0     H43731   8.488   7.543   8.078 -1.0076  0.6031  1.4001
  324MOL0     H43732   8.351   7.325   7.930 -5.0032 -2.7386  0.8764
  324MOL0     H43733   8.286   7.482   7.964 -2.5646  0.2260  2.8625
  324MOL0     H43734   8.168   7.340   8.112  0.1786 -1.0462  0.8158
  324MOL0     H43735   8.287   7.423   8.220  1.4971 -3.7006  3.0544
  324MOL0     H43736   8.433   7.237   8.231  0.0549  1.6826 -0.6175
  324MOL0     H43737   8.352   7.150   8.106  0.8068  1.3965 -1.2550
  324MOL0     H43738   8.110   7.059   8.452  0.3788 -2.8073  0.0065
  324MOL0     H43739   8.706   7.576   8.095  1.5410  3.8240  1.0467
  324MOL0     H43740   8.948   7.656   8.071  1.6229 -0.7661 -1.4851
  325MOL0     O43741   6.062   3.155   8.506  0.6122 -0.4422  0.1431
  325MOL0     C43742   6.024   3.073   8.588  0.2510  0.1420  0.2070
  325MOL0     O43743   5.964   3.100   8.703 -0.4040  0.5834  0.1207
  325MOL0     C43744   5.899   3.226   8.710  0.8007 -0.2938  0.3090
  325MOL0     C43745   5.949   3.321   8.802  0.0617  0.3334 -1.1459
  325MOL0     C43746   5.889   3.442   8.823  1.0970  0.1977 -0.4239
  325MOL0     C43747   5.761   3.463   8.769 -0.0435 -0.4963 -0.5634
  325MOL0     O43748   5.692   3.580   8.794  0.4093  0.0518  0.8106
  325MOL0     C43749   5.729   3.661   8.905  0.9269 -0.4302 -0.5373
  325MOL0     C43750   5.622   3.771   8.929  0.1580  0.1612 -0.5517
  325MOL0     C43751   5.633   3.883   9.044  0.0664  0.4564 -0.7456
  325MOL0     C43752   5.500   3.963   9.065 -0.9419  0.2479  0.1605
  325MOL0     C43753   5.503   4.062   9.182 -0.2463  0.9041  0.5430
  325MOL0     C43754   5.383   4.057   9.285 -0.0999 -1.0122  0.0193
  325MOL0     C43755   5.248   4.104   9.237  0.2839 -0.6976  0.4253
  325MOL0     C43756   5.136   4.136   9.337 -0.1242 -0.7332 -0.3017
  325MOL0     N43757   4.994   4.123   9.294 -0.3204  0.0883 -0.6859
  325MOL0     C43758   4.891   4.184   9.366 -0.1881 -0.7068  0.5266
  325MOL0     C43759   4.782   4.137   9.303  0.2592 -0.0685 -0.4702
  325MOL0     C43760   4.646   4.192   9.343  1.2264  0.5368 -0.3336
  325MOL0     C43761   4.623   4.336   9.286 -0.7855  0.8771 -0.2129
  325MOL0     C43762   4.648   4.354   9.134  0.6948  0.2778  0.5234
  325MOL0     C43763   4.549   4.455   9.090  0.4135  0.6213  0.2051
  325MOL0     O43764   4.567   4.579   9.156 -0.5209  0.0418 -0.4732
  325MOL0     C43765   4.484   4.688   9.124  0.5064  0.7806  1.0532
  325MOL0     C43766   4.533   4.819   9.120 -0.1548  0.2842 -0.1148
  325MOL0     C43767   4.472   4.921   9.050  0.9270 -0.6605  0.0336
  325MOL0     C43768   4.538   5.047   9.028 -0.5315  0.1686 -0.6176
  325MOL0     C43769   4.343   4.897   9.005  0.9427  0.4314  0.4098
  325MOL0     C43770   4.260   4.994   8.944  0.2846 -0.2275 -1.3787
  325MOL0     O43771   4.262   5.119   9.004  0.3280 -0.1406  0.0091
  325MOL0     C43772   4.158   5.202   8.970 -0.0310  0.7734 -0.2806
  325MOL0     C43773   4.022   5.162   8.987 -0.4941 -0.3748  0.3927
  325MOL0     C43774   3.921   5.263   8.981  0.5857  0.6948 -0.0084
  325MOL0     C43775   3.952   5.396   8.951  0.7361  0.5309  0.3965
  325MOL0     O43776   3.862   5.499   8.958 -0.5927 -0.0458  0.3666
  325MOL0     C43777   3.764   5.496   8.848 -0.1045  0.3302 -0.4206
  325MOL0     C43778   3.840   5.497   8.710 -0.1682  0.2093 -0.5742
  325MOL0     C43779   3.925   5.616   8.677 -0.3883 -0.0283 -0.0538
  325MOL0     C43780   4.006   5.589   8.548  0.2150  0.0239 -0.1726
  325MOL0     C43781   4.145   5.657   8.557 -0.0456 -0.0617 -0.6162
  325MOL0     C43782   4.200   5.685   8.417  0.3030  0.5796 -0.2766
  325MOL0     C43783   4.318   5.774   8.418 -0.1297 -0.1427  0.2187
  325MOL0     C43784   4.416   5.763   8.300  0.6130 -0.2456 -0.5565
  325MOL0    Cl43785   4.544   5.638   8.321 -0.2183  0.0728 -0.1416
  325MOL0     C43786   4.088   5.424   8.914 -0.2168  0.5929  0.6938
  325MOL0     C43787   4.194   5.327   8.920 -0.5462 -0.2733  0.0988
  325MOL0     O43788   4.192   4.964   8.841  0.0657  0.3278  0.0288
  325MOL0     C43789   4.284   4.771   9.012  0.8547 -0.2773 -0.1712
  325MOL0     C43790   4.356   4.668   9.072  0.2114  0.3519  0.1892
  325MOL0     N43791   4.817   4.042   9.210  0.7709  0.0134  0.1177
  325MOL0     N43792   4.943   4.036   9.209  0.3728  0.0392 -0.1136
  325MOL0     C43793   5.713   3.373   8.685 -0.1396  0.3114 -0.1780
  325MOL0     C43794   5.779   3.253   8.644  0.2511 -0.4023 -1.7569
  325MOL0     C43795   6.067   2.935   8.571  0.5164  0.5402  0.7485
  325MOL0     C43796   6.168   2.905   8.481 -0.2237 -0.5402 -0.0116
  325MOL0     C43797   6.210   2.776   8.465  0.8119 -0.3242  0.2588
  325MOL0     C43798   6.152   2.669   8.533 -0.8938 -1.0473  0.5314
  325MOL0     O43799   6.178   2.539   8.507 -0.2534  0.4847  0.0797
  325MOL0     C43800   6.278   2.503   8.402  1.1517  0.4043  0.0476
  325MOL0     C43801   6.233   2.530   8.259 -0.3370 -0.0390 -0.3133
  325MOL0     C43802   6.084   2.498   8.224  0.3129 -0.0564 -0.9965
  325MOL0     C43803   6.049   2.535   8.087 -0.2561  0.5430  0.3158
  325MOL0     C43804   5.965   2.444   8.002  0.2468 -0.4732  0.6867
  325MOL0     C43805   5.897   2.368   7.932  0.5596 -0.1618  0.5245
  325MOL0     C43806   6.071   2.707   8.634  0.2732  0.7579 -0.4144
  325MOL0     C43807   6.015   2.832   8.650 -0.2366  0.1240 -1.0352
  325MOL0     H43808   6.051   3.301   8.834  0.1177  2.0639 -0.1435
  325MOL0     H43809   5.944   3.518   8.879 -0.0997  1.8034 -1.3307
  325MOL0     H43810   5.742   3.591   8.987  3.7486 -3.8613 -3.5670
  325MOL0     H43811   5.823   3.709   8.876  1.8087 -1.5240  0.4718
  325MOL0     H43812   5.600   3.818   8.833  0.8106 -0.9473 -1.2683
  325MOL0     H43813   5.532   3.715   8.955 -0.1750  1.0648  0.3103
  325MOL0     H43814   5.657   3.821   9.131  1.3317 -0.6833 -1.8628
  325MOL0     H43815   5.714   3.953   9.023 -0.9804  1.5896 -1.1144
  325MOL0     H43816   5.485   4.031   8.980  0.6573  1.4434  0.7799
  325MOL0     H43817   5.416   3.898   9.088  0.4391 -0.8133  2.5276
  325MOL0     H43818   5.589   4.045   9.247 -0.4642 -0.8656  0.4102
  325MOL0     H43819   5.493   4.165   9.145  1.2167  0.2710 -1.8939
  325MOL0     H43820   5.374   3.951   9.311  2.0837 -0.6158  2.8270
  325MOL0     H43821   5.408   4.115   9.374  2.6529  0.2600 -1.4734
  325MOL0     H43822   5.264   4.189   9.170 -2.8550 -2.0254 -2.3233
  325MOL0     H43823   5.201   4.032   9.169 -1.6792  0.2295  0.7211
  325MOL0     H43824   5.145   4.235   9.383 -0.4410 -1.6297  1.8222
  325MOL0     H43825   5.144   4.063   9.418 -5.6673 -1.1160  0.3068
  325MOL0     H43826   4.873   4.238   9.459 -1.1092 -1.1119  0.6050
  325MOL0     H43827   4.566   4.127   9.308  0.7663  0.0951  1.4402
  325MOL0     H43828   4.624   4.184   9.450 -0.4052 -1.1740 -0.7442
  325MOL0     H43829   4.703   4.394   9.333  0.4664  0.0513 -1.2716
  325MOL0     H43830   4.521   4.363   9.317 -0.9039  0.0222  0.1856
  325MOL0     H43831   4.617   4.271   9.071 -0.2749  0.5788  0.5810
  325MOL0     H43832   4.749   4.391   9.111 -0.1450  1.5258 -1.4350
  325MOL0     H43833   4.444   4.424   9.097  0.7646 -0.4760  1.0419
  325MOL0     H43834   4.543   4.471   8.982 -4.1675  0.7387  0.2835
  325MOL0     H43835   4.635   4.810   9.157  0.2612 -1.4864 -1.5286
  325MOL0     H43836   4.526   5.071   8.922  1.1210  4.0183 -0.1015
  325MOL0     H43837   4.511   5.130   9.095  0.1352  0.0637 -0.2070
  325MOL0     H43838   4.647   5.040   9.035 -0.6232 -0.0152  1.3088
  325MOL0     H43839   4.004   5.059   9.014 -1.5680  0.0808  1.5449
  325MOL0     H43840   3.821   5.236   9.014  0.7732  1.1598  0.9705
  325MOL0     H43841   3.703   5.406   8.860  0.1713  0.0673 -1.0038
  325MOL0     H43842   3.703   5.587   8.848 -0.7311 -0.0611 -2.0663
  325MOL0     H43843   3.892   5.403   8.689  0.6737  0.9134 -1.7888
  325MOL0     H43844   3.766   5.494   8.630  0.4194  2.7345 -1.2847
  325MOL0     H43845   3.994   5.635   8.759  1.1520 -3.1877 -0.4515
  325MOL0     H43846   3.866   5.708   8.673 -0.1579  0.1439  0.4006
  325MOL0     H43847   4.018   5.482   8.525 -3.4747 -0.6159  0.1970
  325MOL0     H43848   3.943   5.617   8.463  1.1249 -2.6272 -1.8820
  325MOL0     H43849   4.208   5.586   8.612 -2.3367 -0.3968  1.8414
  325MOL0     H43850   4.137   5.756   8.602 -0.6796 -0.0637 -0.7081
  325MOL0     H43851   4.222   5.598   8.354  1.5360  1.6905 -1.4536
  325MOL0     H43852   4.116   5.729   8.362 -1.7387 -1.6468  0.8375
  325MOL0     H43853   4.378   5.768   8.508 -0.4190  2.4919  0.6620
  325MOL0     H43854   4.271   5.873   8.415 -1.5734 -0.8109 -1.4388
  325MOL0     H43855   4.449   5.867   8.303  0.7657 -0.2983 -0.3794
  325MOL0     H43856   4.370   5.751   8.202  0.0461 -1.1924 -0.1949
  325MOL0     H43857   4.118   5.523   8.880 -0.5554 -0.1129 -1.8677
  325MOL0     H43858   4.299   5.349   8.904 -0.1973 -1.4659  0.6868
  325MOL0     H43859   4.179   4.759   8.990  0.5407  1.3818  0.3165
  325MOL0     H43860   4.307   4.571   9.081 -2.3628  1.5986  0.6015
  325MOL0     H43861   5.618   3.400   8.641 -0.0083  1.0844  0.0041
  325MOL0     H43862   5.745   3.182   8.569 -0.7217 -0.8296 -0.9205
  325MOL0     H43863   6.212   2.987   8.426 -0.3377 -1.5044 -1.6018
  325MOL0     H43864   6.293   2.769   8.396 -2.1862 -1.0817 -3.6423
  325MOL0     H43865   6.370   2.561   8.417  3.0167 -2.5959  1.1712
  325MOL0     H43866   6.316   2.401   8.413  1.9682  0.8286  1.5166
  325MOL0     H43867   6.286   2.456   8.199  0.2378  1.1345 -1.3103
  325MOL0     H43868   6.271   2.629   8.231 -2.1751  1.3894  1.8543
  325MOL0     H43869   6.024   2.546   8.302  0.5071  0.0777 -0.9302
  325MOL0     H43870   6.065   2.392   8.241  0.3247 -0.2330 -2.0613
  325MOL0     H43871   6.135   2.548   8.021  0.0575 -2.6214 -0.0540
  325MOL0     H43872   5.997   2.630   8.102  0.0223  0.8070 -0.3578
  325MOL0     H43873   5.828   2.302   7.883 -1.1455 -1.0967  3.8866
  325MOL0     H43874   6.032   2.625   8.692 -0.8720  0.5167 -1.4773
  325MOL0     H43875   5.937   2.857   8.721 -0.2240  2.1474 -1.6647
  326MOL0     O43876   6.347   1.440  10.791  0.1229  0.0019 -0.4043
  326MOL0     C43877   6.391   1.492  10.894 -0.5244  0.2377  1.3435
  326MOL0     O43878   6.520   1.464  10.940 -0.4418  0.7048  0.1506
  326MOL0     C43879   6.606   1.387  10.867  0.6379 -0.2966 -0.4480
  326MOL0     C43880   6.686   1.437  10.761 -0.6705 -0.3367  0.4603
  326MOL0     C43881   6.772   1.362  10.678  0.7877  0.1178 -0.2770
  326MOL0     C43882   6.773   1.223  10.700  0.4095  0.3580  0.5127
  326MOL0     O43883   6.839   1.127  10.624 -0.0518 -0.4481  0.6883
  326MOL0     C43884   6.971   1.169  10.591 -0.1917  0.0252 -0.6974
  326MOL0     C43885   7.034   1.041  10.535 -1.0960 -0.4334 -0.2396
  326MOL0     C43886   7.016   0.921  10.631 -0.2292  0.2900  0.1033
  326MOL0     C43887   6.895   0.835  10.607 -0.4538 -0.0352  0.0930
  326MOL0     C43888   6.872   0.741  10.724  0.3885  0.3007 -0.9925
  326MOL0     C43889   6.953   0.614  10.704  0.6185  0.8771 -0.5092
  326MOL0     C43890   6.979   0.528  10.832  0.4260 -0.1118 -1.0432
  326MOL0     C43891   7.045   0.390  10.814 -0.3089 -0.7149 -0.4815
  326MOL0     N43892   7.160   0.390  10.730 -0.1695 -0.2843  0.4729
  326MOL0     C43893   7.169   0.356  10.601 -0.9697  0.2080  0.3141
  326MOL0     C43894   7.301   0.380  10.563  0.8925  0.2745  0.3898
  326MOL0     C43895   7.357   0.374  10.418 -0.0943  0.6332 -0.7213
  326MOL0     C43896   7.465   0.275  10.416  0.1949  0.1973 -0.8417
  326MOL0     C43897   7.590   0.283  10.507 -0.0025 -0.2092  0.4742
  326MOL0     C43898   7.678   0.156  10.492 -0.5422  0.0184  0.8405
  326MOL0     O43899   7.803   0.174  10.558 -0.0591 -0.6467 -0.8645
  326MOL0     C43900   7.908   0.087  10.547 -0.2488  0.5834  0.7217
  326MOL0     C43901   8.028   0.113  10.599 -0.2989  0.2182 -0.6592
  326MOL0     C43902   8.147   0.044  10.588  0.1147 -0.4014 -0.4927
  326MOL0     C43903   8.273   0.077  10.683  0.6528  0.0500  0.0987
  326MOL0     C43904   8.142  -0.066  10.504 -0.5997  0.0252  0.4355
  326MOL0     C43905   8.253  -0.159  10.475  0.5560  0.0358 -0.2504
  326MOL0     O43906   8.225  -0.284  10.427  0.5038  0.7636  0.3306
  326MOL0     C43907   8.313  -0.386  10.446  0.5561  0.9988  0.3008
  326MOL0     C43908   8.450  -0.377  10.438 -0.2094  0.2925 -0.8915
  326MOL0     C43909   8.527  -0.492  10.459  0.2510 -0.2043 -0.4986
  326MOL0     C43910   8.478  -0.615  10.490  0.3840 -1.0783  0.7754
  326MOL0     O43911   8.545  -0.733  10.511 -0.9437 -0.1735  0.6384
  326MOL0     C43912   8.689  -0.737  10.499 -0.3820  0.6314  0.6579
  326MOL0     C43913   8.711  -0.885  10.459 -0.5877  0.4968  0.7522
  326MOL0     C43914   8.860  -0.903  10.420  0.0896 -0.8562 -1.0421
  326MOL0     C43915   8.963  -0.880  10.539  0.3093 -0.1171  0.5676
  326MOL0     C43916   9.098  -0.942  10.501 -0.4773  0.7733 -0.2161
  326MOL0     C43917   9.165  -0.852  10.406 -0.0372 -1.1539  0.5579
  326MOL0     C43918   9.299  -0.905  10.342 -1.0579  0.0552  0.0638
  326MOL0     C43919   9.410  -0.897  10.444  0.2203 -0.1466  0.1811
  326MOL0    Cl43920   9.503  -1.042  10.424 -0.0983  0.0888  0.3730
  326MOL0     C43921   8.345  -0.624  10.493  0.3487  0.4955 -0.1066
  326MOL0     C43922   8.265  -0.517  10.464  0.2480 -0.4751 -0.7321
  326MOL0     O43923   8.363  -0.114  10.503 -0.0747 -0.3180  0.1201
  326MOL0     C43924   8.023  -0.099  10.433  0.1700 -0.6513  0.8281
  326MOL0     C43925   7.915  -0.024  10.457  0.5639 -0.4352 -0.0103
  326MOL0     N43926   7.364   0.421  10.674 -0.3862 -0.6162  0.8423
  326MOL0     N43927   7.285   0.407  10.780 -1.1608  0.6490 -0.2658
  326MOL0     C43928   6.694   1.168  10.804 -0.7590  0.0535  0.1570
  326MOL0     C43929   6.616   1.250  10.884 -0.6580  0.6637 -1.0612
  326MOL0     C43930   6.311   1.576  10.986  0.6038 -0.3684 -0.1494
  326MOL0     C43931   6.354   1.630  11.107  0.6828  0.8718 -0.0642
  326MOL0     C43932   6.262   1.691  11.198  0.1854 -0.5917 -0.1678
  326MOL0     C43933   6.127   1.690  11.180  0.0782  0.8514  0.1970
  326MOL0     O43934   6.030   1.736  11.263  0.2096 -0.2975  0.1171
  326MOL0     C43935   6.066   1.828  11.378 -0.0211 -0.7575  0.2370
  326MOL0     C43936   5.955   1.903  11.450  0.0582 -0.2109  0.5793
  326MOL0     C43937   5.905   2.012  11.356  0.6980  0.6815 -0.0503
  326MOL0     C43938   5.829   2.118  11.435  0.6016 -0.5661  0.4083
  326MOL0     C43939   5.793   2.241  11.353  0.1175  1.2623  0.1642
  326MOL0     C43940   5.767   2.350  11.292 -0.0810  0.7516 -0.0464
  326MOL0     C43941   6.081   1.629  11.059  0.8849  0.5193 -0.8809
  326MOL0     C43942   6.171   1.582  10.959  0.4925 -0.2236 -0.8158
  326MOL0     H43943   6.679   1.540  10.729  1.3791 -0.9169 -2.1277
  326MOL0     H43944   6.828   1.405  10.596  2.3038 -0.4097  0.4436
  326MOL0     H43945   6.969   1.251  10.519  0.4988  1.2804  0.6585
  326MOL0     H43946   7.029   1.207  10.676  0.0793 -1.0584 -0.3694
  326MOL0     H43947   6.992   1.030  10.434  0.1196 -0.8378 -0.7245
  326MOL0     H43948   7.142   1.051  10.516 -1.1696  0.3289 -0.3099
  326MOL0     H43949   7.099   0.851  10.617  2.4161  2.7513  2.3600
  326MOL0     H43950   7.024   0.950  10.736  1.0528 -1.5034  0.5383
  326MOL0     H43951   6.817   0.911  10.595  0.6647  1.1088 -0.1517
  326MOL0     H43952   6.911   0.781  10.513 -0.4330 -0.7410  0.4932
  326MOL0     H43953   6.904   0.788  10.817 -0.3302 -0.6505 -0.2294
  326MOL0     H43954   6.765   0.719  10.732  0.5477 -0.7063 -1.4345
  326MOL0     H43955   6.895   0.558  10.629  0.7006  0.9622 -0.6360
  326MOL0     H43956   7.050   0.640  10.662  0.2404  0.0253 -1.9882
  326MOL0     H43957   7.039   0.587  10.901 -2.0543  3.3065 -1.5518
  326MOL0     H43958   6.879   0.500  10.868 -0.6585  1.0050 -2.9894
  326MOL0     H43959   6.976   0.310  10.786 -0.1875 -2.1744  2.9051
  326MOL0     H43960   7.083   0.369  10.914 -2.1798 -0.4881  0.3039
  326MOL0     H43961   7.089   0.337  10.530 -0.1274 -2.6897  0.0008
  326MOL0     H43962   7.274   0.338  10.357  0.1515 -1.3437  0.0118
  326MOL0     H43963   7.389   0.475  10.391  0.3753  0.2687 -1.5430
  326MOL0     H43964   7.513   0.269  10.317 -0.0354 -0.7879 -0.9063
  326MOL0     H43965   7.428   0.173  10.433  3.0957 -0.6373  1.3142
  326MOL0     H43966   7.566   0.300  10.613  2.2198 -1.4440  1.2320
  326MOL0     H43967   7.648   0.369  10.472  4.2051 -3.4548 -1.4532
  326MOL0     H43968   7.702   0.144  10.386  1.5317  1.2693  1.1140
  326MOL0     H43969   7.626   0.068  10.531 -0.9882 -0.2672 -0.3421
  326MOL0     H43970   8.035   0.199  10.666 -0.5536 -0.7496  0.6443
  326MOL0     H43971   8.245   0.153  10.757  0.7050  1.7208 -1.5181
  326MOL0     H43972   8.324  -0.011  10.723  2.2373  1.1371  0.5720
  326MOL0     H43973   8.354   0.122  10.625 -0.5791  2.0149 -0.1698
  326MOL0     H43974   8.498  -0.282  10.420 -0.9010  0.7234 -0.5337
  326MOL0     H43975   8.635  -0.478  10.456  0.2232  0.0808 -3.3525
  326MOL0     H43976   8.732  -0.667  10.427  2.2312  0.7702  2.2293
  326MOL0     H43977   8.730  -0.719  10.599  2.8950 -2.4504  0.0891
  326MOL0     H43978   8.678  -0.955  10.536  0.8374  2.5282  3.3907
  326MOL0     H43979   8.652  -0.910  10.370  1.6523  0.4976 -0.8283
  326MOL0     H43980   8.872  -0.832  10.337  1.2410 -1.3448 -1.3021
  326MOL0     H43981   8.865  -1.005  10.382 -0.3238 -0.6614 -1.6255
  326MOL0     H43982   8.979  -0.772  10.546  0.8117 -0.1413 -0.1620
  326MOL0     H43983   8.920  -0.921  10.631 -2.0655  1.1103  0.0693
  326MOL0     H43984   9.082  -1.038  10.451 -0.0109  1.9022 -2.6925
  326MOL0     H43985   9.176  -0.957  10.576 -0.5141 -0.4328 -0.4004
  326MOL0     H43986   9.107  -0.838  10.314 -1.5509 -5.1910  0.7000
  326MOL0     H43987   9.186  -0.754  10.451 -1.8660  0.6124 -2.1250
  326MOL0     H43988   9.322  -0.847  10.252 -2.4929 -1.1728 -1.1407
  326MOL0     H43989   9.292  -1.010  10.314 -2.1090  0.1078  0.1048
  326MOL0     H43990   9.373  -0.908  10.546 -0.3479 -1.1625 -0.1258
  326MOL0     H43991   9.474  -0.808  10.435  0.7606 -0.6570 -1.6696
  326MOL0     H43992   8.314  -0.727  10.509 -1.8533  0.8430 -1.7655
  326MOL0     H43993   8.158  -0.505  10.475  0.3704 -1.6076  3.1603
  326MOL0     H43994   8.004  -0.179  10.362  0.5340 -1.2971  1.4492
  326MOL0     H43995   7.821  -0.049  10.408  1.2518 -0.2304 -1.4932
  326MOL0     H43996   6.686   1.061  10.820 -2.8284  0.1060 -0.2720
  326MOL0     H43997   6.552   1.208  10.960  0.2815  5.3300  2.7903
  326MOL0     H43998   6.460   1.624  11.128  0.6352  1.1428  0.2769
  326MOL0     H43999   6.297   1.760  11.274 -0.3929 -2.0268  1.4576
  326MOL0     H44000   6.113   1.760  11.449 -1.7003  1.1191  3.3950
  326MOL0     H44001   6.139   1.905  11.348 -0.6072 -1.2608 -2.8080
  326MOL0     H44002   6.000   1.943  11.541 -1.1368  0.4696  0.8952
  326MOL0     H44003   5.875   1.834  11.477 -1.0583  0.1304 -1.5625
  326MOL0     H44004   5.827   1.967  11.294  0.8656  0.4745 -0.1098
  326MOL0     H44005   5.986   2.055  11.296  0.0939  1.3706 -0.3914
  326MOL0     H44006   5.882   2.148  11.526 -2.2470  1.8167  1.4564
  326MOL0     H44007   5.732   2.077  11.466  0.9692  0.2011  2.7678
  326MOL0     H44008   5.757   2.439  11.234 -0.6886  1.0035  0.4271
  326MOL0     H44009   5.974   1.628  11.040  0.7662  2.5435 -0.5206
  326MOL0     H44010   6.129   1.531  10.873 -0.6088  0.1262 -0.4966
  327MOL0     O44011   7.670   3.665   0.203 -0.6169  0.1264 -0.2088
  327MOL0     C44012   7.618   3.707   0.301 -0.2808 -0.1280  0.1568
  327MOL0     O44013   7.675   3.709   0.417 -0.2951 -0.4973  0.1604
  327MOL0     C44014   7.805   3.656   0.440  0.5133  0.3432  0.4663
  327MOL0     C44015   7.917   3.670   0.357  0.1567 -1.1845 -0.5302
  327MOL0     C44016   8.056   3.648   0.377 -0.2670 -0.4116  0.3941
  327MOL0     C44017   8.084   3.604   0.506 -0.1702 -0.4496  0.0374
  327MOL0     O44018   8.216   3.572   0.525 -0.2738  0.1478 -0.1439
  327MOL0     C44019   8.253   3.524   0.660  0.6572  0.4208 -0.1972
  327MOL0     C44020   8.393   3.467   0.657 -0.4356 -0.2057 -0.1381
  327MOL0     C44021   8.494   3.582   0.628 -0.4433  0.3418  0.1838
  327MOL0     C44022   8.631   3.532   0.591 -0.1317 -0.0078 -0.2548
  327MOL0     C44023   8.750   3.634   0.578 -0.0503  0.4084 -0.5348
  327MOL0     C44024   8.871   3.546   0.549 -0.8459  0.3736  0.3577
  327MOL0     C44025   8.988   3.618   0.478 -0.0153 -0.2911 -0.4640
  327MOL0     C44026   9.053   3.725   0.573  0.4320 -0.6266  0.8549
  327MOL0     N44027   9.087   3.840   0.492  0.1732  0.0537  0.0457
  327MOL0     C44028   9.172   3.860   0.387 -0.7447 -0.0871 -0.5040
  327MOL0     C44029   9.165   3.991   0.346 -0.2489  0.6253 -0.5252
  327MOL0     C44030   9.248   4.043   0.226  0.0848 -0.4617 -0.0179
  327MOL0     C44031   9.214   3.978   0.085 -0.3872  0.2462 -0.4768
  327MOL0     C44032   9.084   4.048   0.046 -0.9567  0.0876  1.2125
  327MOL0     C44033   9.050   3.993  -0.092 -0.0849  0.3015 -0.3226
  327MOL0     O44034   8.956   3.885  -0.082 -0.7352  0.3827 -0.6986
  327MOL0     C44035   9.011   3.761  -0.077  1.0708 -0.8357 -0.4612
  327MOL0     C44036   9.058   3.698  -0.189  0.4799 -0.4056 -0.1269
  327MOL0     C44037   9.089   3.562  -0.184  0.7109 -0.1697 -1.1011
  327MOL0     C44038   9.099   3.494  -0.319  0.0285 -0.1420  0.1808
  327MOL0     C44039   9.099   3.493  -0.060 -0.5645 -1.0631 -0.1469
  327MOL0     C44040   9.121   3.346  -0.046  0.0313 -0.2979 -0.3363
  327MOL0     O44041   9.095   3.261  -0.150 -0.0505  0.0944  0.2299
  327MOL0     C44042   9.136   3.133  -0.142  1.0360 -0.0796 -0.0291
  327MOL0     C44043   9.266   3.092  -0.114  0.1764  0.0451  0.5988
  327MOL0     C44044   9.298   2.957  -0.093  0.1369  0.3182  0.3858
  327MOL0     C44045   9.201   2.854  -0.119  0.2212 -0.7637 -0.0584
  327MOL0     O44046   9.247   2.721  -0.111 -0.3018 -0.0009 -0.5459
  327MOL0     C44047   9.277   2.661  -0.236 -0.0852 -0.7772  0.6797
  327MOL0     C44048   9.421   2.609  -0.240  0.3420 -0.1692 -0.0587
  327MOL0     C44049   9.446   2.526  -0.367  0.0787 -0.2654 -0.6067
  327MOL0     C44050   9.571   2.434  -0.355  0.5054 -0.5259 -1.1468
  327MOL0     C44051   9.567   2.349  -0.475  0.2819  0.4082 -0.3865
  327MOL0     C44052   9.701   2.268  -0.483 -0.2505  0.0189 -0.0530
  327MOL0     C44053   9.680   2.154  -0.576 -0.8439  0.6953  0.2045
  327MOL0     C44054   9.811   2.082  -0.602 -0.2838 -0.1611  0.3135
  327MOL0    Cl44055   9.872   1.991  -0.448 -0.1502  0.2152  0.0589
  327MOL0     C44056   9.070   2.895  -0.149  0.5615 -0.8646  0.1475
  327MOL0     C44057   9.039   3.039  -0.165 -0.1264  0.4125  0.3931
  327MOL0     O44058   9.175   3.310   0.060  0.8786  0.3569 -0.3118
  327MOL0     C44059   9.070   3.567   0.054  0.0601 -0.4576  0.2919
  327MOL0     C44060   9.020   3.695   0.048  0.1265 -0.1604  0.2373
  327MOL0     N44061   9.064   4.055   0.422 -0.5581 -0.3951  0.6151
  327MOL0     N44062   9.021   3.960   0.500  0.4898 -0.0284 -0.2039
  327MOL0     C44063   7.980   3.590   0.607  0.0042 -1.0305  1.3026
  327MOL0     C44064   7.845   3.612   0.569  0.3226 -0.2327  0.3217
  327MOL0     C44065   7.490   3.785   0.288  1.1382  0.8424  0.5192
  327MOL0     C44066   7.424   3.833   0.401 -0.3792 -0.1457  0.4020
  327MOL0     C44067   7.315   3.921   0.390 -0.8025  0.8695  0.3531
  327MOL0     C44068   7.257   3.952   0.263  0.2884 -0.0753  0.2790
  327MOL0     O44069   7.134   4.023   0.266  0.7910 -0.3615 -0.1029
  327MOL0     C44070   7.067   4.062   0.141  0.4806  0.4930 -0.3460
  327MOL0     C44071   7.123   4.193   0.095 -0.0706 -0.2576  0.3560
  327MOL0     C44072   7.062   4.301   0.189 -1.0195 -0.3749 -0.4803
  327MOL0     C44073   7.129   4.443   0.175  0.1089  0.3593 -0.6136
  327MOL0     C44074   7.262   4.458   0.229  0.5327  0.1210 -0.0294
  327MOL0     C44075   7.377   4.465   0.262  0.3824 -0.2365 -0.5407
  327MOL0     C44076   7.311   3.892   0.148  0.0801  0.5241 -0.0477
  327MOL0     C44077   7.435   3.825   0.163  0.0905 -0.5105  0.3089
  327MOL0     H44078   7.904   3.720   0.262 -3.6985  1.3697  1.0996
  327MOL0     H44079   8.135   3.650   0.303 -0.6870 -3.1728 -0.2476
  327MOL0     H44080   8.246   3.609   0.728  1.0950  0.8097 -0.6284
  327MOL0     H44081   8.193   3.438   0.690  0.8740  0.2738 -0.1833
  327MOL0     H44082   8.418   3.419   0.752  0.4169 -2.7523 -1.5683
  327MOL0     H44083   8.400   3.389   0.581 -3.2089 -0.0209 -0.6959
  327MOL0     H44084   8.470   3.645   0.542  2.3974 -0.5389 -1.4224
  327MOL0     H44085   8.517   3.644   0.715 -2.2978  3.0148 -1.1216
  327MOL0     H44086   8.659   3.456   0.663  0.1043  1.2434  1.0164
  327MOL0     H44087   8.618   3.482   0.494 -1.8645  2.4045 -1.4022
  327MOL0     H44088   8.738   3.693   0.487  5.0621  0.5702 -1.4202
  327MOL0     H44089   8.774   3.704   0.659 -1.4861  1.2693 -0.8268
  327MOL0     H44090   8.902   3.494   0.639 -0.7675  0.4397  0.3692
  327MOL0     H44091   8.836   3.468   0.481 -2.5482  2.1518 -0.9566
  327MOL0     H44092   9.063   3.543   0.450  1.1364  0.0037  1.6439
  327MOL0     H44093   8.956   3.662   0.383  0.4423 -0.7496 -0.8371
  327MOL0     H44094   9.152   3.687   0.601  4.2582  5.2652 -2.2743
  327MOL0     H44095   8.989   3.757   0.655 -0.4010 -0.0356  0.0032
  327MOL0     H44096   9.243   3.798   0.334  1.8756  2.5871 -0.3631
  327MOL0     H44097   9.234   4.149   0.203 -1.5123 -0.9350 -1.4660
  327MOL0     H44098   9.356   4.029   0.236  0.4602  0.4004 -2.2042
  327MOL0     H44099   9.197   3.870   0.087 -0.5071  0.2731  0.9199
  327MOL0     H44100   9.292   4.005   0.012  0.8166  0.0295  0.6933
  327MOL0     H44101   9.091   4.157   0.038 -0.3755 -0.0107  0.0947
  327MOL0     H44102   9.000   4.019   0.110  1.1824 -1.6050  3.4086
  327MOL0     H44103   9.138   3.954  -0.144  0.4953 -0.5710  1.2345
  327MOL0     H44104   8.995   4.057  -0.163  0.1293 -1.4064 -2.1136
  327MOL0     H44105   9.052   3.757  -0.280  2.6722  1.8412  1.0582
  327MOL0     H44106   9.119   3.570  -0.395  1.6009 -0.0796  0.6171
  327MOL0     H44107   9.179   3.420  -0.314 -0.8214 -1.0726  0.3565
  327MOL0     H44108   9.007   3.442  -0.347 -0.3390 -0.5266  1.9600
  327MOL0     H44109   9.342   3.169  -0.111 -0.9468  1.1450  1.9632
  327MOL0     H44110   9.405   2.939  -0.088  0.4165  2.0292  1.6312
  327MOL0     H44111   9.200   2.591  -0.269 -0.1693 -0.6560  0.6182
  327MOL0     H44112   9.274   2.738  -0.314 -1.4350 -1.4420  0.0371
  327MOL0     H44113   9.490   2.694  -0.242 -0.3716  0.4748  1.3447
  327MOL0     H44114   9.432   2.543  -0.154  0.6999  0.2766  0.2404
  327MOL0     H44115   9.471   2.595  -0.448 -0.8701  0.0206 -0.6751
  327MOL0     H44116   9.356   2.465  -0.375 -0.7992  0.1072  3.7199
  327MOL0     H44117   9.665   2.491  -0.347  1.3134 -1.6762 -2.0361
  327MOL0     H44118   9.564   2.380  -0.260  2.6014 -0.2062 -0.7448
  327MOL0     H44119   9.546   2.411  -0.563  2.0467  0.8014 -0.5822
  327MOL0     H44120   9.483   2.280  -0.466 -1.1816  2.1545 -0.1831
  327MOL0     H44121   9.783   2.330  -0.521  1.6188 -0.7606  2.4412
  327MOL0     H44122   9.727   2.223  -0.386  2.6862  0.3837 -0.5677
  327MOL0     H44123   9.639   2.181  -0.674  1.7489  0.9696 -0.8882
  327MOL0     H44124   9.624   2.069  -0.538  2.1555 -1.9611 -0.8843
  327MOL0     H44125   9.885   2.147  -0.650 -1.5640 -0.1475 -1.7743
  327MOL0     H44126   9.792   2.006  -0.679 -0.3215  0.2312 -0.0692
  327MOL0     H44127   8.995   2.818  -0.162 -0.1196 -0.6214  2.1743
  327MOL0     H44128   8.937   3.065  -0.191 -1.3221 -0.2697  3.8291
  327MOL0     H44129   9.076   3.535   0.158 -1.5234  1.9224  1.2125
  327MOL0     H44130   8.987   3.744   0.138  2.0307 -0.0079  0.8915
  327MOL0     H44131   8.009   3.553   0.704  2.7348 -0.8689  0.6404
  327MOL0     H44132   7.774   3.608   0.651  2.8177 -1.1948  2.5832
  327MOL0     H44133   7.470   3.805   0.495 -0.6002  1.1539  0.9167
  327MOL0     H44134   7.281   3.971   0.481 -3.1699  0.6665 -0.3601
  327MOL0     H44135   7.091   3.988   0.063  3.9238  1.2158 -0.1197
  327MOL0     H44136   6.959   4.074   0.153  0.3211  0.6934 -1.7775
  327MOL0     H44137   7.083   4.206  -0.006 -0.9348  2.3263  0.9541
  327MOL0     H44138   7.232   4.187   0.098 -0.0300  0.3510  0.3609
  327MOL0     H44139   7.076   4.280   0.296 -0.8425  0.6434 -0.2901
  327MOL0     H44140   6.954   4.301   0.175 -1.0763  1.2935 -0.2773
  327MOL0     H44141   7.074   4.521   0.229  0.9298 -0.8270  2.0894
  327MOL0     H44142   7.134   4.478   0.071 -0.2629 -1.0252 -1.1269
  327MOL0     H44143   7.478   4.467   0.296 -0.4359  0.4061  2.0626
  327MOL0     H44144   7.277   3.904   0.045  1.0024  0.7115 -0.3392
  327MOL0     H44145   7.488   3.782   0.078 -2.1995 -3.0812  0.0297
  328MOL0     O44146   7.098   1.906   7.420 -0.8718  0.8367 -0.5598
  328MOL0     C44147   7.182   1.985   7.434  0.3291 -0.3022 -0.2072
  328MOL0     O44148   7.158   2.125   7.419  0.0839 -0.5188 -0.5672
  328MOL0     C44149   7.025   2.157   7.387 -0.3311 -0.6047 -0.3681
  328MOL0     C44150   6.938   2.160   7.490 -1.0056 -0.3074  0.0858
  328MOL0     C44151   6.802   2.176   7.462  0.6499 -0.5702 -1.1768
  328MOL0     C44152   6.757   2.192   7.328 -0.0411 -0.1204  0.4984
  328MOL0     O44153   6.623   2.195   7.288  0.8242  0.1435 -0.0760
  328MOL0     C44154   6.511   2.197   7.388 -0.8119  0.8605 -0.0662
  328MOL0     C44155   6.518   2.321   7.473 -0.6455 -0.8932 -0.2042
  328MOL0     C44156   6.390   2.355   7.537 -0.3486 -0.2525  0.2976
  328MOL0     C44157   6.327   2.482   7.478 -0.1353 -0.1059  0.1493
  328MOL0     C44158   6.191   2.515   7.557 -0.4319  0.6859  0.4315
  328MOL0     C44159   6.146   2.654   7.531  0.4311 -0.3201 -0.2251
  328MOL0     C44160   6.000   2.680   7.586 -0.1512 -0.4386 -0.5961
  328MOL0     C44161   5.890   2.642   7.490 -0.1956 -0.5825 -0.2249
  328MOL0     N44162   5.843   2.757   7.408  0.2770  0.1795 -0.1022
  328MOL0     C44163   5.725   2.820   7.441  0.4701 -0.0966  0.4731
  328MOL0     C44164   5.716   2.902   7.330  0.0939  0.1435  0.1270
  328MOL0     C44165   5.610   2.998   7.288  0.7613 -0.1410 -1.0321
  328MOL0     C44166   5.556   2.970   7.143 -0.6316  0.2820 -0.1977
  328MOL0     C44167   5.408   2.998   7.120 -0.3902 -0.7103  0.0328
  328MOL0     C44168   5.355   2.903   7.008  0.6482 -0.3608  0.8441
  328MOL0     O44169   5.216   2.878   7.024 -0.4420  0.6571 -0.5138
  328MOL0     C44170   5.130   2.945   6.947  0.8474  0.0977  0.4879
  328MOL0     C44171   4.996   2.920   6.958 -0.0803 -0.1299 -0.5616
  328MOL0     C44172   4.891   2.977   6.885 -0.2968 -0.3000  0.2378
  328MOL0     C44173   4.759   2.933   6.911  0.4774 -0.1483 -0.1466
  328MOL0     C44174   4.924   3.090   6.808  0.1147 -0.3402 -0.4375
  328MOL0     C44175   4.830   3.160   6.716  1.0417 -0.1749 -0.6311
  328MOL0     O44176   4.775   3.100   6.610  0.0582  0.4904 -0.1291
  328MOL0     C44177   4.683   3.165   6.543 -1.0578 -0.0666 -0.5308
  328MOL0     C44178   4.549   3.132   6.559  0.5356  0.6603 -0.2004
  328MOL0     C44179   4.449   3.204   6.484  0.2557 -0.4833 -0.6540
  328MOL0     C44180   4.489   3.301   6.403  0.1177 -0.8610  0.4956
  328MOL0     O44181   4.402   3.373   6.329  1.1485  0.1890 -0.5708
  328MOL0     C44182   4.283   3.421   6.391 -0.0157 -0.5417 -0.3899
  328MOL0     C44183   4.181   3.426   6.278  0.7825  0.5158  0.4198
  328MOL0     C44184   4.051   3.495   6.321 -0.0048 -0.9732  0.2434
  328MOL0     C44185   3.935   3.452   6.235  0.7120 -0.0091  0.7916
  328MOL0     C44186   3.821   3.555   6.252  0.4976 -0.0838 -0.6418
  328MOL0     C44187   3.689   3.519   6.185 -0.2978  0.6799 -0.4185
  328MOL0     C44188   3.583   3.618   6.229  0.2387  0.5718  0.2392
  328MOL0     C44189   3.439   3.572   6.203 -0.7162  0.3568  0.1337
  328MOL0    Cl44190   3.406   3.429   6.311  0.2847 -0.1991  0.6740
  328MOL0     C44191   4.624   3.337   6.387  1.3062 -0.2218  0.9224
  328MOL0     C44192   4.719   3.265   6.458  0.1476  0.2504 -0.1105
  328MOL0     O44193   4.829   3.282   6.735 -0.2455  0.1354 -0.2713
  328MOL0     C44194   5.066   3.122   6.785 -0.1275  0.6151  0.2404
  328MOL0     C44195   5.161   3.057   6.866 -0.2716  0.1304 -0.5722
  328MOL0     N44196   5.831   2.904   7.262 -0.3381 -0.3764  0.2689
  328MOL0     N44197   5.914   2.820   7.305 -0.5894 -1.2315 -0.3180
  328MOL0     C44198   6.851   2.188   7.225 -0.0959  0.5182 -1.2057
  328MOL0     C44199   6.987   2.175   7.247 -0.5777  0.1864 -0.4766
  328MOL0     C44200   7.306   1.940   7.490  0.0260 -0.0177 -0.1191
  328MOL0     C44201   7.407   2.040   7.505 -1.2080 -0.2899  0.7545
  328MOL0     C44202   7.534   2.016   7.551 -0.0889  0.4582 -0.4016
  328MOL0     C44203   7.570   1.889   7.600  0.6453 -0.3208  0.1949
  328MOL0     O44204   7.692   1.846   7.653 -0.0518 -0.6108  0.7816
  328MOL0     C44205   7.805   1.924   7.667 -0.1803 -0.4285 -0.0206
  328MOL0     C44206   7.922   1.837   7.709  0.3483 -0.7793 -0.4917
  328MOL0     C44207   7.968   1.755   7.590 -0.0254  0.4336  0.3391
  328MOL0     C44208   8.054   1.627   7.626 -0.2379 -0.3370 -0.1950
  328MOL0     C44209   8.179   1.663   7.704  0.4786  0.5984  0.2540
  328MOL0     C44210   8.272   1.678   7.778 -0.1435 -0.0360  0.5627
  328MOL0     C44211   7.482   1.788   7.584  1.4080 -0.2157 -0.0498
  328MOL0     C44212   7.348   1.817   7.538  0.4977 -0.0866  0.4280
  328MOL0     H44213   6.969   2.148   7.593 -4.1933  3.1657  1.6818
  328MOL0     H44214   6.726   2.170   7.539  1.0711  2.7213 -0.3777
  328MOL0     H44215   6.424   2.214   7.324 -0.4976  0.2277 -0.6737
  328MOL0     H44216   6.510   2.103   7.444  2.1491 -1.5866 -3.6774
  328MOL0     H44217   6.592   2.305   7.552 -0.2686 -2.4725 -0.8377
  328MOL0     H44218   6.564   2.402   7.415  0.7272 -0.3260  1.5791
  328MOL0     H44219   6.318   2.273   7.530 -0.0032 -1.1495  4.6898
  328MOL0     H44220   6.413   2.367   7.643 -0.2804 -1.4373  0.4313
  328MOL0     H44221   6.395   2.568   7.490  0.7863 -0.8923  0.7455
  328MOL0     H44222   6.303   2.464   7.373  1.4920 -0.7105 -0.1426
  328MOL0     H44223   6.115   2.437   7.543 -0.2041  0.6695 -0.7961
  328MOL0     H44224   6.214   2.515   7.664 -0.7825 -0.9141  0.5340
  328MOL0     H44225   6.213   2.726   7.579  1.1958  0.5843 -2.5202
  328MOL0     H44226   6.146   2.677   7.424  0.1570  1.5925  0.1474
  328MOL0     H44227   5.984   2.614   7.672 -1.4373  1.3210  0.6043
  328MOL0     H44228   5.978   2.786   7.604  0.6201 -0.1619 -1.2233
  328MOL0     H44229   5.810   2.601   7.552  0.2052 -1.8810 -0.5509
  328MOL0     H44230   5.919   2.557   7.428  0.6884 -0.7876  0.4411
  328MOL0     H44231   5.656   2.817   7.525  1.5570  2.0820  1.5466
  328MOL0     H44232   5.523   2.992   7.355  0.2340  0.4955 -1.6371
  328MOL0     H44233   5.656   3.098   7.294  3.6908 -1.4991  1.9505
  328MOL0     H44234   5.571   2.867   7.110  0.6301  0.5307 -0.4840
  328MOL0     H44235   5.612   3.026   7.067  0.5587  0.7483  0.9989
  328MOL0     H44236   5.384   3.090   7.066  2.1605 -1.2979 -2.2998
  328MOL0     H44237   5.354   2.975   7.212 -0.4149 -3.8430 -0.6288
  328MOL0     H44238   5.404   2.808   7.028 -1.3798 -0.8046  4.7986
  328MOL0     H44239   5.375   2.933   6.905 -0.2137  3.3840  1.6191
  328MOL0     H44240   4.963   2.848   7.033 -2.6202  1.0588 -0.4458
  328MOL0     H44241   4.715   2.991   6.993  1.9826 -2.5728  2.5554
  328MOL0     H44242   4.689   2.963   6.831  1.4277  1.2568 -0.4956
  328MOL0     H44243   4.757   2.829   6.943  2.0015  0.3789  1.8318
  328MOL0     H44244   4.514   3.056   6.628  0.6662  0.9847  0.2278
  328MOL0     H44245   4.349   3.161   6.489  1.5014 -3.5751  1.1194
  328MOL0     H44246   4.253   3.362   6.479  2.2669  1.1617  1.6539
  328MOL0     H44247   4.296   3.526   6.418  3.0892 -0.5254 -1.5332
  328MOL0     H44248   4.219   3.461   6.181 -0.2363 -2.3854 -1.1294
  328MOL0     H44249   4.157   3.320   6.267  0.1851  0.1632  4.0083
  328MOL0     H44250   4.065   3.603   6.310  2.7727 -1.3384 -0.3507
  328MOL0     H44251   4.037   3.475   6.428  0.3751  1.8980  0.8995
  328MOL0     H44252   3.948   3.455   6.126 -1.6441  0.2274  0.4611
  328MOL0     H44253   3.901   3.352   6.266  0.9598  0.0802  1.3641
  328MOL0     H44254   3.853   3.655   6.221 -0.0005 -0.6807 -3.3276
  328MOL0     H44255   3.804   3.556   6.360  1.9928 -0.5272 -0.3862
  328MOL0     H44256   3.706   3.523   6.077  1.2472 -0.1851 -0.2455
  328MOL0     H44257   3.654   3.419   6.212 -0.9570  1.5587  2.1944
  328MOL0     H44258   3.608   3.714   6.183  1.5305  1.1928  2.1064
  328MOL0     H44259   3.589   3.638   6.337  1.2252 -1.1048  0.5349
  328MOL0     H44260   3.426   3.539   6.099  0.9862 -0.9967  0.2993
  328MOL0     H44261   3.377   3.657   6.233  2.0032  0.9455  5.0880
  328MOL0     H44262   4.648   3.418   6.318  2.6425 -0.5005  1.0410
  328MOL0     H44263   4.820   3.301   6.440 -0.6324  1.5632 -2.2129
  328MOL0     H44264   5.093   3.191   6.706 -1.6857 -0.0388 -0.9140
  328MOL0     H44265   5.263   3.090   6.857  0.8303 -3.3055 -2.9676
  328MOL0     H44266   6.819   2.197   7.122  2.2925 -3.2213 -2.4911
  328MOL0     H44267   7.060   2.178   7.167  1.2954  2.7587  1.1886
  328MOL0     H44268   7.397   2.139   7.462 -0.0383  0.5069  2.2570
  328MOL0     H44269   7.601   2.102   7.557 -0.0128  0.3807 -0.0860
  328MOL0     H44270   7.825   1.986   7.579 -0.6576  0.8443  0.7324
  328MOL0     H44271   7.792   1.990   7.754  0.8558 -0.4866  0.1959
  328MOL0     H44272   7.898   1.766   7.789 -2.7365  2.3748  1.6377
  328MOL0     H44273   8.002   1.898   7.752 -0.0808 -0.0356 -0.7415
  328MOL0     H44274   8.012   1.822   7.516  0.3602 -1.4355 -1.2180
  328MOL0     H44275   7.873   1.722   7.547 -0.3251  1.9589 -0.2351
  328MOL0     H44276   8.098   1.585   7.535  3.3184 -2.5635  2.2582
  328MOL0     H44277   8.004   1.557   7.694  2.8363  0.8299  3.6774
  328MOL0     H44278   8.351   1.692   7.849 -0.5156 -2.1822  1.4750
  328MOL0     H44279   7.524   1.689   7.595  2.3235  0.2299  0.5719
  328MOL0     H44280   7.273   1.741   7.520 -0.4585  1.5511 -3.8108
  329MOL0     O44281   5.449  10.644   3.177 -0.6748 -0.0684 -0.1422
  329MOL0     C44282   5.404  10.721   3.094 -0.1729  0.0367 -1.0948
  329MOL0     O44283   5.370  10.846   3.125 -0.9454 -0.1017 -0.6190
  329MOL0     C44284   5.409  10.924   3.239  0.1858 -0.1718 -0.1366
  329MOL0     C44285   5.346  11.047   3.254  0.0560 -0.6880  0.2565
  329MOL0     C44286   5.363  11.118   3.374 -0.1054 -0.2444  0.8611
  329MOL0     C44287   5.457  11.078   3.464  0.3725  0.5623 -0.1929
  329MOL0     O44288   5.500  11.150   3.574  0.1513 -0.6386  0.2772
  329MOL0     C44289   5.483  11.294   3.560 -0.2747  0.8582 -0.4023
  329MOL0     C44290   5.592  11.362   3.639  1.1707 -0.2349 -1.1100
  329MOL0     C44291   5.532  11.426   3.768 -0.9454 -1.8872 -0.3942
  329MOL0     C44292   5.613  11.382   3.899  0.3689  0.9259  0.0584
  329MOL0     C44293   5.554  11.427   4.033  0.6493 -0.0542  0.8191
  329MOL0     C44294   5.531  11.584   4.034  0.3477 -0.4961  1.0910
  329MOL0     C44295   5.663  11.661   4.029  0.7803  0.0272 -0.3514
  329MOL0     C44296   5.655  11.798   4.080  0.7327 -0.1618  0.3349
  329MOL0     N44297   5.784  11.861   4.088 -0.1849  0.5765 -0.2201
  329MOL0     C44298   5.796  11.983   4.146  1.0975  0.1931 -0.1026
  329MOL0     C44299   5.926  12.018   4.114  0.5379 -0.5339 -0.5430
  329MOL0     C44300   5.992  12.145   4.159 -0.6249  0.4283  0.0342
  329MOL0     C44301   6.109  12.122   4.245  0.2326  1.3552 -0.6830
  329MOL0     C44302   6.186  12.243   4.290  0.3332  0.2505 -0.3800
  329MOL0     C44303   6.325  12.219   4.350  0.4060  0.4607 -0.2098
  329MOL0     O44304   6.345  12.328   4.440 -0.5316 -1.0032  0.2146
  329MOL0     C44305   6.466  12.361   4.477 -0.0895  0.8449  0.6677
  329MOL0     C44306   6.497  12.494   4.498 -0.3733 -0.8040  0.4028
  329MOL0     C44307   6.624  12.536   4.551 -0.4159 -0.7466  0.2459
  329MOL0     C44308   6.628  12.680   4.588  0.0519 -1.1222  1.1166
  329MOL0     C44309   6.718  12.434   4.569  0.8445 -0.1003  0.2310
  329MOL0     C44310   6.864  12.464   4.585  0.6690 -0.3135 -0.7386
  329MOL0     O44311   6.919  12.372   4.668 -0.4951 -0.2887  0.4329
  329MOL0     C44312   7.048  12.385   4.687 -0.0726  0.6804 -0.4167
  329MOL0     C44313   7.085  12.366   4.817  0.2307 -1.1313 -0.1129
  329MOL0     C44314   7.225  12.341   4.851  0.5213  0.2700  0.2076
  329MOL0     C44315   7.330  12.344   4.752  0.1466  0.5762 -0.9443
  329MOL0     O44316   7.463  12.318   4.763 -0.2228  0.4569 -0.6635
  329MOL0     C44317   7.501  12.253   4.882  0.2920 -1.2856 -0.3799
  329MOL0     C44318   7.655  12.255   4.868 -0.7332 -0.9456  0.2036
  329MOL0     C44319   7.726  12.173   4.984  1.1928  0.2791  0.3425
  329MOL0     C44320   7.876  12.173   4.969  0.7450 -0.3277 -0.6102
  329MOL0     C44321   7.935  12.099   5.081 -0.0242 -0.1315 -0.4340
  329MOL0     C44322   8.089  12.110   5.074 -0.2252  0.1041  0.0151
  329MOL0     C44323   8.155  12.025   5.181  0.0329  0.1681  0.1731
  329MOL0     C44324   8.309  12.041   5.185  0.0675 -0.3754 -0.3209
  329MOL0    Cl44325   8.369  11.947   5.320  0.0373 -0.1910 -0.1449
  329MOL0     C44326   7.277  12.368   4.620  0.7621 -0.0590 -1.1886
  329MOL0     C44327   7.143  12.387   4.586 -0.0544  0.6968 -0.1167
  329MOL0     O44328   6.917  12.559   4.535  0.3771 -0.2048  0.3431
  329MOL0     C44329   6.689  12.307   4.538 -0.3232  0.0780  0.6684
  329MOL0     C44330   6.562  12.267   4.493 -0.3097  0.4657  0.0584
  329MOL0     N44331   5.990  11.917   4.051 -0.4635  0.3280 -0.4131
  329MOL0     N44332   5.904  11.823   4.030 -0.1091  0.4333  0.0737
  329MOL0     C44333   5.523  10.953   3.450  0.0183  0.5961 -0.3117
  329MOL0     C44334   5.496  10.877   3.331 -0.5553 -0.3942 -0.3506
  329MOL0     C44335   5.391  10.659   2.960 -0.2989 -1.4640  0.5240
  329MOL0     C44336   5.303  10.718   2.863  0.4344 -0.2319 -0.7333
  329MOL0     C44337   5.273  10.648   2.747  1.2536 -0.1269  0.4333
  329MOL0     C44338   5.348  10.534   2.710 -0.8299 -0.6288 -0.8702
  329MOL0     O44339   5.316  10.482   2.596  0.4586  0.1299  0.5458
  329MOL0     C44340   5.412  10.383   2.538  0.9330 -0.6558 -0.2541
  329MOL0     C44341   5.375  10.236   2.567  0.0610 -0.4650 -0.5658
  329MOL0     C44342   5.219  10.202   2.539  0.2791  0.1821  0.5888
  329MOL0     C44343   5.153  10.242   2.402  0.3905  0.4157  0.0929
  329MOL0     C44344   5.252  10.218   2.298  1.5565  0.6115 -0.2084
  329MOL0     C44345   5.330  10.184   2.211 -0.0549  0.6814 -0.3582
  329MOL0     C44346   5.451  10.494   2.798 -0.1719 -0.1858 -0.0377
  329MOL0     C44347   5.468  10.551   2.925 -0.3552 -0.2879 -0.2401
  329MOL0     H44348   5.279  11.085   3.178 -1.9176 -0.6113  1.9410
  329MOL0     H44349   5.302  11.204   3.401  0.1133 -0.0483  0.7359
  329MOL0     H44350   5.487  11.324   3.455  0.6354 -0.4262 -0.7508
  329MOL0     H44351   5.380  11.319   3.588  0.0532  1.3031  0.4706
  329MOL0     H44352   5.663  11.286   3.675  0.4908 -0.2240  0.3621
  329MOL0     H44353   5.640  11.428   3.567  0.2973 -0.9351 -2.3679
  329MOL0     H44354   5.555  11.532   3.754 -1.1455 -2.0162 -1.8859
  329MOL0     H44355   5.423  11.418   3.776 -1.1390 -0.8467 -1.7035
  329MOL0     H44356   5.598  11.274   3.899  0.0281  0.9348  2.1805
  329MOL0     H44357   5.719  11.391   3.876 -0.1290 -0.2768 -3.2603
  329MOL0     H44358   5.455  11.382   4.046 -0.7043  2.0101 -1.3599
  329MOL0     H44359   5.617  11.396   4.117 -0.3619  1.5792  2.2483
  329MOL0     H44360   5.470  11.618   3.950  2.9852  1.2042 -0.2800
  329MOL0     H44361   5.477  11.595   4.128  0.0429 -2.8064  1.2395
  329MOL0     H44362   5.726  11.607   4.100 -0.3820 -1.1090 -0.1528
  329MOL0     H44363   5.692  11.666   3.924 -0.7777  1.2210 -0.7686
  329MOL0     H44364   5.608  11.802   4.178 -0.2274  1.8203 -0.1640
  329MOL0     H44365   5.605  11.865   4.009  1.2394 -2.3738 -2.2841
  329MOL0     H44366   5.727  12.044   4.203  1.0822  1.6750 -1.6311
  329MOL0     H44367   6.025  12.203   4.072  0.9833 -0.7403 -0.1835
  329MOL0     H44368   5.918  12.200   4.217 -2.2708 -0.9935 -0.6396
  329MOL0     H44369   6.183  12.053   4.204 -1.8638 -1.1741 -0.4786
  329MOL0     H44370   6.077  12.074   4.338  1.0605 -1.1762 -1.6117
  329MOL0     H44371   6.113  12.298   4.349 -2.5848 -1.7070 -1.9397
  329MOL0     H44372   6.210  12.305   4.204 -1.1803  0.7451 -0.4751
  329MOL0     H44373   6.408  12.213   4.280  0.8304 -0.9421  0.3794
  329MOL0     H44374   6.327  12.121   4.398  1.7071  1.3877  1.7770
  329MOL0     H44375   6.415  12.565   4.492 -0.0965 -0.5100  0.1237
  329MOL0     H44376   6.704  12.686   4.667  1.8903  0.7617 -0.6800
  329MOL0     H44377   6.666  12.739   4.504  0.8810 -3.6570 -0.3859
  329MOL0     H44378   6.529  12.717   4.616 -0.3479  1.1764 -2.7348
  329MOL0     H44379   7.011  12.330   4.887  0.9302 -1.9026  0.2433
  329MOL0     H44380   7.239  12.313   4.955  2.5988 -0.9490 -0.3552
  329MOL0     H44381   7.471  12.308   4.972  2.6300 -0.0207 -0.2879
  329MOL0     H44382   7.461  12.153   4.899 -0.3537 -1.1017 -0.7910
  329MOL0     H44383   7.691  12.215   4.772 -3.3686 -0.1588 -1.2221
  329MOL0     H44384   7.677  12.361   4.877 -1.3571 -0.8385  0.5014
  329MOL0     H44385   7.685  12.072   4.970  0.2537  0.4608  1.6048
  329MOL0     H44386   7.696  12.212   5.082  1.7765 -0.4233  0.8173
  329MOL0     H44387   7.909  12.136   4.872 -3.4054 -1.1230 -1.9067
  329MOL0     H44388   7.896  12.280   4.977  0.8851 -0.2498 -1.7904
  329MOL0     H44389   7.919  11.993   5.064  0.1725  0.0808 -2.1590
  329MOL0     H44390   7.898  12.134   5.178 -2.9282  2.6757 -2.3574
  329MOL0     H44391   8.133  12.081   4.978 -0.5142  1.0108 -0.4058
  329MOL0     H44392   8.111  12.217   5.077 -0.2963  0.1060  2.0274
  329MOL0     H44393   8.156  11.917   5.162  0.2624 -0.0900  1.5439
  329MOL0     H44394   8.124  12.058   5.281 -0.1554 -1.3092  0.6305
  329MOL0     H44395   8.332  12.148   5.197  1.6161 -0.4579 -2.0385
  329MOL0     H44396   8.365  12.015   5.095  3.6939  2.3980  0.8856
  329MOL0     H44397   7.352  12.384   4.544  3.7546 -3.8574  0.6537
  329MOL0     H44398   7.124  12.411   4.482  2.1709  1.3109 -0.4482
  329MOL0     H44399   6.767  12.233   4.556  0.8766  1.0876 -0.1929
  329MOL0     H44400   6.537  12.165   4.466 -0.8750  0.8928 -1.0842
  329MOL0     H44401   5.605  10.928   3.517 -0.6013  1.6824  0.8965
  329MOL0     H44402   5.572  10.806   3.298  0.3863 -0.2541  1.3987
  329MOL0     H44403   5.239  10.805   2.879 -1.4423 -1.9479  2.0085
  329MOL0     H44404   5.200  10.680   2.674 -0.1805  0.1391  1.9111
  329MOL0     H44405   5.401  10.398   2.430  0.2342  1.3418  0.0491
  329MOL0     H44406   5.517  10.407   2.554  1.4079 -0.3148 -3.2291
  329MOL0     H44407   5.409  10.205   2.667 -2.3514 -1.1446  0.1262
  329MOL0     H44408   5.428  10.163   2.505  1.4347  0.9791 -1.1579
  329MOL0     H44409   5.170  10.257   2.620  1.3826  0.6225  0.9752
  329MOL0     H44410   5.213  10.093   2.547  0.3260 -0.3368 -3.9580
  329MOL0     H44411   5.129  10.349   2.403  1.6256  0.7038 -0.2213
  329MOL0     H44412   5.056  10.194   2.380 -0.8166  2.6487  0.2423
  329MOL0     H44413   5.412  10.139   2.158  0.3617 -0.6146  1.3052
  329MOL0     H44414   5.499  10.399   2.774 -1.0172 -0.3772 -1.0685
  329MOL0     H44415   5.542  10.525   3.000  1.6565  0.0295 -2.0280
  330MOL0     O44416   5.678   9.943   4.044 -0.1131 -0.3518  0.3897
  330MOL0     C44417   5.724   9.888   4.144  0.6204 -0.7373  0.0923
  330MOL0     O44418   5.682   9.766   4.189  0.3824  0.4133  0.3196
  330MOL0     C44419   5.593   9.695   4.121  0.3647 -0.6703  1.0005
  330MOL0     C44420   5.621   9.650   3.988 -0.8225 -0.0147 -0.5690
  330MOL0     C44421   5.525   9.573   3.921  0.1186 -0.2777 -0.4529
  330MOL0     C44422   5.398   9.539   3.980  0.0388 -0.2810 -0.6144
  330MOL0     O44423   5.294   9.477   3.917 -0.3211  0.3626  0.4953
  330MOL0     C44424   5.339   9.352   3.857  0.0547  0.9532 -0.5955
  330MOL0     C44425   5.239   9.249   3.817  0.0998 -1.0221 -0.7369
  330MOL0     C44426   5.134   9.307   3.720 -1.0569  0.2263 -0.1231
  330MOL0     C44427   5.017   9.203   3.708 -0.3092 -0.4161  0.5761
  330MOL0     C44428   4.891   9.286   3.669  0.2180 -0.1249 -0.6649
  330MOL0     C44429   4.768   9.194   3.679  0.3483 -0.4391 -0.4703
  330MOL0     C44430   4.699   9.189   3.818 -0.4567 -0.3057 -0.2582
  330MOL0     C44431   4.630   9.328   3.848 -0.0569  0.8853 -0.4312
  330MOL0     N44432   4.481   9.317   3.822 -0.5051 -0.6835  0.7650
  330MOL0     C44433   4.388   9.244   3.896  0.5072 -0.4836 -0.6354
  330MOL0     C44434   4.270   9.245   3.834  0.6590 -0.0745  0.4985
  330MOL0     C44435   4.136   9.196   3.887 -0.3813 -0.6393 -0.0274
  330MOL0     C44436   4.124   9.041   3.880 -0.3341  0.4763 -0.1978
  330MOL0     C44437   4.039   9.000   3.754  0.0343 -0.3675  0.4490
  330MOL0     C44438   4.039   8.850   3.722 -0.4397 -0.2293  0.2723
  330MOL0     O44439   4.175   8.806   3.676 -0.5042 -0.2824 -0.1946
  330MOL0     C44440   4.229   8.847   3.562 -0.0308  0.0069 -0.1067
  330MOL0     C44441   4.351   8.910   3.557 -0.2611 -0.1756  0.0133
  330MOL0     C44442   4.407   8.976   3.442  0.7015  0.6703  0.3258
  330MOL0     C44443   4.551   9.006   3.452 -0.1575 -1.0586 -0.2900
  330MOL0     C44444   4.325   8.974   3.324 -0.6659 -0.4642 -0.3704
  330MOL0     C44445   4.370   9.018   3.180  0.2343  0.6396  0.1727
  330MOL0     O44446   4.294   8.999   3.073 -0.4171  0.8423  0.7549
  330MOL0     C44447   4.317   9.043   2.945  0.0786  0.2329 -0.7586
  330MOL0     C44448   4.234   8.990   2.838  0.1357 -0.1659  0.2338
  330MOL0     C44449   4.259   9.033   2.707  0.7668  0.1564 -0.5404
  330MOL0     C44450   4.368   9.109   2.674  0.0365 -0.1397 -0.0331
  330MOL0     O44451   4.376   9.142   2.546  0.3749 -0.4135  0.3825
  330MOL0     C44452   4.440   9.271   2.527 -0.4872 -0.6207 -0.4403
  330MOL0     C44453   4.416   9.294   2.375  0.7420  0.1614  0.9176
  330MOL0     C44454   4.267   9.300   2.333 -0.1684 -0.6831 -0.6954
  330MOL0     C44455   4.183   9.405   2.412  0.0950 -1.2336  0.1338
  330MOL0     C44456   4.048   9.432   2.334  0.2463 -0.6240 -0.6403
  330MOL0     C44457   3.951   9.303   2.320 -0.3015 -0.5634  0.4118
  330MOL0     C44458   3.878   9.276   2.459 -0.0688 -0.4211  0.0775
  330MOL0     C44459   3.745   9.208   2.424  0.2336 -0.2841 -0.5142
  330MOL0    Cl44460   3.654   9.163   2.572  0.5443 -0.0434 -0.0369
  330MOL0     C44461   4.455   9.156   2.777 -0.1140  0.9818  0.4448
  330MOL0     C44462   4.420   9.123   2.909 -0.3781 -0.0211  0.8628
  330MOL0     O44463   4.469   9.085   3.177 -0.1254  0.2926 -0.8525
  330MOL0     C44464   4.200   8.912   3.332 -0.3913 -0.0091 -0.0679
  330MOL0     C44465   4.148   8.852   3.449 -0.0027  0.7482  0.0310
  330MOL0     N44466   4.289   9.320   3.721 -0.7887  0.1694  0.2996
  330MOL0     N44467   4.417   9.344   3.702  0.7223  0.5877  0.1368
  330MOL0     C44468   5.378   9.577   4.114 -0.6800 -0.3237  0.4851
  330MOL0     C44469   5.481   9.650   4.178 -0.1984  0.6735 -0.4241
  330MOL0     C44470   5.821   9.948   4.219 -0.8910 -0.9224  0.1255
  330MOL0     C44471   5.835  10.084   4.225  0.0462 -0.1621 -1.6945
  330MOL0     C44472   5.949  10.145   4.288  0.0950 -1.1117 -0.8972
  330MOL0     C44473   6.046  10.069   4.357 -0.2672 -0.5566  0.4656
  330MOL0     O44474   6.152  10.124   4.415 -0.1708 -0.7687 -0.5337
  330MOL0     C44475   6.218  10.060   4.526 -0.1720 -0.4400 -0.6428
  330MOL0     C44476   6.289  10.165   4.617  0.0467  0.3886  0.0178
  330MOL0     C44477   6.377  10.255   4.533  0.2324 -0.3284 -0.5889
  330MOL0     C44478   6.489  10.313   4.631 -0.2041  0.0202 -0.7013
  330MOL0     C44479   6.562  10.435   4.587  0.3069 -0.5564  0.3244
  330MOL0     C44480   6.641  10.527   4.563  0.2767 -0.1111  0.6442
  330MOL0     C44481   6.020   9.933   4.356 -1.0250 -0.1331 -0.1169
  330MOL0     C44482   5.916   9.870   4.287  0.0523  0.6854 -1.3945
  330MOL0     H44483   5.712   9.683   3.938 -1.4393 -0.4828 -2.0803
  330MOL0     H44484   5.529   9.529   3.821 -2.7108 -5.4146  1.2989
  330MOL0     H44485   5.387   9.368   3.760  0.0029 -2.2504 -1.2579
  330MOL0     H44486   5.409   9.303   3.925  0.0611  1.2454 -0.3913
  330MOL0     H44487   5.291   9.164   3.772 -0.2935 -1.4420 -0.4034
  330MOL0     H44488   5.185   9.216   3.907 -2.8821 -1.4820 -2.5575
  330MOL0     H44489   5.095   9.397   3.769 -1.4964  0.1739 -0.3707
  330MOL0     H44490   5.183   9.327   3.625  1.4028  0.4552  1.1269
  330MOL0     H44491   5.038   9.135   3.625  2.1863 -0.4635  1.1680
  330MOL0     H44492   5.007   9.144   3.799  0.5937 -0.4724  0.6497
  330MOL0     H44493   4.881   9.385   3.713 -5.0684  0.7958 -3.1553
  330MOL0     H44494   4.887   9.321   3.566 -1.7484  1.4802 -0.1165
  330MOL0     H44495   4.696   9.223   3.602 -0.7897  1.2924  1.1886
  330MOL0     H44496   4.793   9.092   3.646 -2.3411 -1.2597 -0.2087
  330MOL0     H44497   4.627   9.107   3.827 -1.9680  0.9780 -0.0854
  330MOL0     H44498   4.776   9.166   3.891 -0.4006 -0.2625 -0.3039
  330MOL0     H44499   4.673   9.410   3.789  2.2757  0.5439  0.6588
  330MOL0     H44500   4.654   9.348   3.953  3.2644  1.3777 -1.1609
  330MOL0     H44501   4.399   9.205   3.997 -0.4536  0.6440 -0.0691
  330MOL0     H44502   4.137   9.223   3.993  0.3182  1.5715 -0.5465
  330MOL0     H44503   4.055   9.247   3.835  1.1068 -0.6613 -2.4947
  330MOL0     H44504   4.076   9.009   3.973  0.0938  1.2886  0.3125
  330MOL0     H44505   4.228   9.012   3.862 -0.5811  0.2468 -1.3737
  330MOL0     H44506   4.075   9.055   3.667  2.7768  2.1383  2.8972
  330MOL0     H44507   3.936   9.032   3.773 -0.4501 -2.2835  1.3310
  330MOL0     H44508   3.957   8.842   3.650 -0.8497  1.2469  0.5522
  330MOL0     H44509   4.013   8.788   3.808 -0.7455 -1.0876 -0.4270
  330MOL0     H44510   4.407   8.915   3.651  1.4665 -1.0623 -0.9135
  330MOL0     H44511   4.573   9.112   3.438  1.4957 -0.7310  3.5755
  330MOL0     H44512   4.589   8.982   3.551  0.9029 -0.7436 -0.6120
  330MOL0     H44513   4.614   8.951   3.382 -0.1758 -0.1884 -1.0112
  330MOL0     H44514   4.146   8.934   2.869 -1.2180  1.1274 -1.1641
  330MOL0     H44515   4.191   9.016   2.624 -0.6717 -3.2821  1.1469
  330MOL0     H44516   4.396   9.351   2.587  0.7893  0.0153 -0.3378
  330MOL0     H44517   4.542   9.259   2.564 -0.4820 -1.1750 -0.6223
  330MOL0     H44518   4.453   9.389   2.334  0.5692 -0.6304 -1.2060
  330MOL0     H44519   4.472   9.214   2.325 -2.1845 -1.6104  0.2229
  330MOL0     H44520   4.217   9.203   2.336 -4.6542  1.2776 -2.6954
  330MOL0     H44521   4.270   9.344   2.233  2.6588  0.4387 -0.2229
  330MOL0     H44522   4.156   9.387   2.517  1.6681 -2.8241  0.3180
  330MOL0     H44523   4.235   9.501   2.422 -1.2091 -0.5334  0.5084
  330MOL0     H44524   4.078   9.456   2.231 -3.4560 -1.8375 -2.1883
  330MOL0     H44525   3.993   9.520   2.368 -2.8306 -2.2012 -1.1787
  330MOL0     H44526   3.874   9.320   2.244 -0.3662 -3.0965 -0.1861
  330MOL0     H44527   4.007   9.218   2.281 -0.2141  0.2017 -1.1951
  330MOL0     H44528   3.862   9.372   2.509 -1.9387  0.8277 -2.6639
  330MOL0     H44529   3.934   9.214   2.529  0.2742 -1.0213 -0.7183
  330MOL0     H44530   3.772   9.118   2.369  2.9558 -0.4572  0.9497
  330MOL0     H44531   3.686   9.270   2.355 -0.6361  1.0149  1.3023
  330MOL0     H44532   4.546   9.214   2.770  1.3659 -1.3144 -0.4084
  330MOL0     H44533   4.480   9.177   2.981  1.9360  0.4219 -1.2701
  330MOL0     H44534   4.139   8.909   3.242 -0.8103  0.4567  0.1983
  330MOL0     H44535   4.052   8.803   3.437  0.9229 -0.9334 -1.0536
  330MOL0     H44536   5.292   9.533   4.163 -0.0497 -2.2162 -0.0414
  330MOL0     H44537   5.484   9.672   4.284  1.3402 -0.6016 -0.1764
  330MOL0     H44538   5.757  10.139   4.173 -1.9698 -1.4433 -0.2201
  330MOL0     H44539   5.948  10.253   4.299 -1.1947 -1.1890 -0.0696
  330MOL0     H44540   6.152  10.009   4.596  0.9356  1.4026  1.9068
  330MOL0     H44541   6.295   9.992   4.489  2.3035  1.9348 -0.1339
  330MOL0     H44542   6.352  10.104   4.682 -1.6862 -1.2368  0.2760
  330MOL0     H44543   6.219  10.215   4.684 -2.0121 -2.1959 -0.0028
  330MOL0     H44544   6.307  10.334   4.502  1.3444 -0.4698 -3.7749
  330MOL0     H44545   6.421  10.218   4.440 -2.2968 -0.7612 -1.6948
  330MOL0     H44546   6.563  10.234   4.643  0.1666  0.2564 -1.3920
  330MOL0     H44547   6.448  10.339   4.729  1.3502  1.4606 -0.3956
  330MOL0     H44548   6.715  10.602   4.543  0.6479 -0.3939  0.9453
  330MOL0     H44549   6.086   9.868   4.413 -0.0082 -1.2318 -2.3820
  330MOL0     H44550   5.905   9.762   4.282 -0.5261  0.6871 -0.5245
  331MOL0     O44551   0.430   0.606   5.790  0.4043  0.1982 -0.8582
  331MOL0     C44552   0.353   0.517   5.763  0.9268  1.6994 -0.7896
  331MOL0     O44553   0.219   0.526   5.725 -0.1906  0.4224 -0.1891
  331MOL0     C44554   0.151   0.646   5.717 -0.7402  0.6516 -0.1336
  331MOL0     C44555   0.204   0.762   5.664 -0.5777  0.1215 -0.0152
  331MOL0     C44556   0.134   0.881   5.656  0.4461 -0.2190  0.0507
  331MOL0     C44557  -0.001   0.888   5.700  0.2342  0.0017 -0.4241
  331MOL0     O44558  -0.066   1.010   5.686  0.1829  0.4963  0.1248
  331MOL0     C44559  -0.016   1.127   5.761 -0.7064  0.3198 -0.5918
  331MOL0     C44560  -0.109   1.247   5.753  0.8160  0.0091  0.0010
  331MOL0     C44561  -0.246   1.215   5.819  0.0688 -0.6277 -0.1567
  331MOL0     C44562  -0.341   1.322   5.760  0.0243  0.1619 -0.2062
  331MOL0     C44563  -0.341   1.451   5.838 -0.4360  0.3812 -0.0249
  331MOL0     C44564  -0.424   1.547   5.747  0.8805  0.6085  0.3895
  331MOL0     C44565  -0.456   1.687   5.815  0.2785 -0.2582  1.2090
  331MOL0     C44566  -0.491   1.785   5.694 -0.4181 -0.7097 -0.1574
  331MOL0     N44567  -0.379   1.856   5.636  0.5066  0.3889 -0.3251
  331MOL0     C44568  -0.277   1.925   5.697  0.4142 -0.1134  0.3112
  331MOL0     C44569  -0.206   1.980   5.604 -0.1308  0.4417  0.7855
  331MOL0     C44570  -0.092   2.080   5.598 -0.0505  0.7922  1.0213
  331MOL0     C44571  -0.147   2.216   5.640 -0.9102  0.4214  0.6544
  331MOL0     C44572  -0.060   2.335   5.605  0.0550  0.1018 -0.6061
  331MOL0     C44573   0.084   2.301   5.551 -0.4661  0.2802  0.3215
  331MOL0     O44574   0.146   2.428   5.538 -1.0260 -0.7865  0.0240
  331MOL0     C44575   0.275   2.441   5.501  0.4211 -0.1794  0.5009
  331MOL0     C44576   0.312   2.562   5.444 -0.0011  0.3196  0.5990
  331MOL0     C44577   0.436   2.582   5.379  0.1844 -0.2455 -0.8292
  331MOL0     C44578   0.471   2.709   5.315 -0.4319 -0.3311 -0.2092
  331MOL0     C44579   0.535   2.482   5.393 -1.0820  0.3208 -1.0856
  331MOL0     C44580   0.683   2.486   5.364 -0.0971 -1.5496  0.9023
  331MOL0     O44581   0.755   2.393   5.419 -0.6014  0.4083  0.0772
  331MOL0     C44582   0.877   2.367   5.362  0.2594 -0.3327 -0.3226
  331MOL0     C44583   0.989   2.399   5.441  0.8144 -0.6037  0.0115
  331MOL0     C44584   1.121   2.386   5.393 -0.0333  0.3285 -0.8261
  331MOL0     C44585   1.140   2.332   5.261  0.3482  0.0706 -0.6383
  331MOL0     O44586   1.261   2.325   5.207  0.2745 -0.1206 -0.1720
  331MOL0     C44587   1.377   2.309   5.284  0.3177 -0.7559  0.0526
  331MOL0     C44588   1.376   2.175   5.365 -0.2838 -0.6314 -0.1785
  331MOL0     C44589   1.512   2.131   5.426  0.8041 -0.7302  0.9537
  331MOL0     C44590   1.615   2.099   5.314 -0.3604 -0.2807 -0.8244
  331MOL0     C44591   1.719   1.983   5.351  0.0383  0.6885  1.3403
  331MOL0     C44592   1.802   1.955   5.227  0.6492 -0.8468  0.4616
  331MOL0     C44593   1.916   1.858   5.263 -0.2367  0.3271 -0.3099
  331MOL0     C44594   1.907   1.720   5.193 -0.2189 -0.0887  0.4176
  331MOL0    Cl44595   1.751   1.630   5.217 -0.0136  0.0146 -0.2933
  331MOL0     C44596   1.028   2.288   5.194 -0.1490 -0.3757 -0.1668
  331MOL0     C44597   0.897   2.318   5.240 -0.7066  1.1124  0.1430
  331MOL0     O44598   0.725   2.571   5.276 -0.6801  0.3865 -1.0684
  331MOL0     C44599   0.499   2.361   5.455 -0.0219  1.2815 -0.0615
  331MOL0     C44600   0.369   2.338   5.505  0.6552  0.4632  0.4901
  331MOL0     N44601  -0.259   1.936   5.485  0.6078  0.3860 -0.1418
  331MOL0     N44602  -0.362   1.859   5.504 -1.0917  0.8978  0.1979
  331MOL0     C44603  -0.055   0.770   5.745 -0.6579  0.0175 -0.2113
  331MOL0     C44604   0.013   0.651   5.756  1.6526  0.2356  0.8529
  331MOL0     C44605   0.413   0.376   5.769 -0.8234 -0.4176 -1.2362
  331MOL0     C44606   0.325   0.269   5.751  0.1929 -0.9100  0.7864
  331MOL0     C44607   0.370   0.137   5.754 -0.4546  0.1659 -0.4859
  331MOL0     C44608   0.505   0.105   5.787  0.5226  0.9358  0.8112
  331MOL0     O44609   0.537  -0.029   5.788  0.0690 -0.0282  0.6660
  331MOL0     C44610   0.667  -0.067   5.828  0.0050 -0.7472  0.0807
  331MOL0     C44611   0.682  -0.221   5.815 -0.3202 -0.2846  0.2581
  331MOL0     C44612   0.833  -0.253   5.833  1.1010 -1.3192 -0.8287
  331MOL0     C44613   0.852  -0.398   5.873  0.6132  0.0118 -0.7630
  331MOL0     C44614   0.994  -0.414   5.901 -0.8010  0.4112  0.5533
  331MOL0     C44615   1.112  -0.438   5.919 -0.1060  0.5655 -0.4282
  331MOL0     C44616   0.594   0.217   5.808 -1.0747 -0.1048  0.0284
  331MOL0     C44617   0.551   0.349   5.792  0.2036 -0.4609  0.0318
  331MOL0     H44618   0.309   0.777   5.640 -0.0951  0.1082  1.9068
  331MOL0     H44619   0.182   0.962   5.603 -1.0926  0.6266 -0.1124
  331MOL0     H44620   0.005   1.112   5.867 -0.0723  0.7935 -0.6409
  331MOL0     H44621   0.078   1.148   5.708  0.3272 -2.5583 -0.0457
  331MOL0     H44622  -0.063   1.341   5.785  0.6498 -0.6654  2.3367
  331MOL0     H44623  -0.123   1.259   5.645  1.9862  2.9052  0.0670
  331MOL0     H44624  -0.279   1.117   5.785 -2.4948  0.8215 -2.2785
  331MOL0     H44625  -0.245   1.227   5.927 -2.2804  0.6563 -0.2218
  331MOL0     H44626  -0.322   1.343   5.654  2.7238 -2.0081 -0.2444
  331MOL0     H44627  -0.441   1.278   5.767 -0.4172  1.3045  1.1002
  331MOL0     H44628  -0.376   1.456   5.942  1.5541  3.3818  0.6456
  331MOL0     H44629  -0.244   1.500   5.842 -0.8684  1.3783 -1.1374
  331MOL0     H44630  -0.366   1.578   5.659 -1.4526  2.6504 -0.5217
  331MOL0     H44631  -0.515   1.497   5.713  0.4224 -0.9955  3.5532
  331MOL0     H44632  -0.546   1.677   5.876  0.4465 -0.0829  1.4893
  331MOL0     H44633  -0.370   1.710   5.880 -0.4108  1.1148  1.6554
  331MOL0     H44634  -0.562   1.864   5.723  0.1310  2.7088 -6.3484
  331MOL0     H44635  -0.537   1.733   5.610  2.6781 -3.5530 -0.2926
  331MOL0     H44636  -0.254   1.938   5.802 -0.3598 -0.6813  0.5560
  331MOL0     H44637  -0.011   2.056   5.667  1.9989  1.6751 -0.9575
  331MOL0     H44638  -0.049   2.083   5.498  0.9071 -1.7708  1.2920
  331MOL0     H44639  -0.151   2.211   5.749 -1.6339 -0.6939  0.5796
  331MOL0     H44640  -0.248   2.228   5.600 -0.6901 -0.6731 -0.2990
  331MOL0     H44641  -0.062   2.408   5.687  1.1816 -1.8151  1.2400
  331MOL0     H44642  -0.104   2.383   5.517 -0.1787  0.4359 -0.3074
  331MOL0     H44643   0.078   2.256   5.451  0.5447  0.0465  0.3559
  331MOL0     H44644   0.142   2.232   5.613  1.2408  1.0787 -0.3289
  331MOL0     H44645   0.237   2.640   5.436 -0.3655 -0.1651 -1.1582
  331MOL0     H44646   0.386   2.777   5.306  1.9217  2.7411 -0.6365
  331MOL0     H44647   0.556   2.752   5.370 -0.1738  1.3746 -1.8512
  331MOL0     H44648   0.504   2.689   5.213  2.1469  1.1713  0.2469
  331MOL0     H44649   0.955   2.434   5.538  0.0317 -1.1904 -0.0389
  331MOL0     H44650   1.204   2.413   5.457 -1.1462  0.7564  0.4967
  331MOL0     H44651   1.464   2.313   5.219 -0.3483  2.5332 -0.8150
  331MOL0     H44652   1.383   2.404   5.337  2.5129  0.2744 -1.8842
  331MOL0     H44653   1.305   2.179   5.447 -1.7809  0.9807 -1.4733
  331MOL0     H44654   1.343   2.101   5.292  0.5081  2.3887 -3.9551
  331MOL0     H44655   1.492   2.034   5.473 -0.0983 -1.2237 -0.3741
  331MOL0     H44656   1.556   2.201   5.498  1.0916 -1.9508  2.0070
  331MOL0     H44657   1.558   2.067   5.226 -1.6470 -0.6037  0.0865
  331MOL0     H44658   1.670   2.178   5.262  1.5285 -1.7483 -1.1742
  331MOL0     H44659   1.664   1.891   5.373 -1.5502  1.3707  0.3466
  331MOL0     H44660   1.764   2.024   5.443 -1.8233  3.4499  1.1387
  331MOL0     H44661   1.738   1.901   5.157 -0.0605  1.6599 -0.9429
  331MOL0     H44662   1.834   2.053   5.191 -1.0070  0.1499  1.5715
  331MOL0     H44663   1.930   1.844   5.370  1.7903 -2.2358 -0.8025
  331MOL0     H44664   2.004   1.900   5.213 -0.2598 -2.2149 -2.7395
  331MOL0     H44665   1.985   1.653   5.230  0.6697  0.7947  0.2045
  331MOL0     H44666   1.930   1.735   5.087  2.2999  3.0509  1.2313
  331MOL0     H44667   1.037   2.238   5.097 -3.0471  1.2584 -1.3928
  331MOL0     H44668   0.812   2.281   5.184 -0.4289 -1.6003  1.3586
  331MOL0     H44669   0.562   2.273   5.459  0.1065  1.2253 -2.3314
  331MOL0     H44670   0.341   2.236   5.528  0.4049 -0.2798 -2.6670
  331MOL0     H44671  -0.161   0.775   5.770 -0.8718  1.9644 -1.2994
  331MOL0     H44672  -0.041   0.562   5.785  1.7055  0.3925  1.4629
  331MOL0     H44673   0.225   0.280   5.712 -0.5095 -3.4911  1.6384
  331MOL0     H44674   0.312   0.051   5.721  0.5691  0.1467 -2.3790
  331MOL0     H44675   0.745  -0.022   5.766  1.2716 -2.0226  0.6979
  331MOL0     H44676   0.684  -0.038   5.932  1.5659  1.5423 -0.7262
  331MOL0     H44677   0.646  -0.261   5.720  0.8436 -3.2759  0.9588
  331MOL0     H44678   0.623  -0.276   5.889  0.7438 -2.7624 -0.6546
  331MOL0     H44679   0.871  -0.186   5.910  0.2157  2.0339 -3.0918
  331MOL0     H44680   0.890  -0.232   5.742  1.1468 -4.3045 -1.6002
  331MOL0     H44681   0.825  -0.463   5.789 -0.0636  0.1173 -0.6371
  331MOL0     H44682   0.789  -0.438   5.953  1.5170 -1.8919 -0.9486
  331MOL0     H44683   1.214  -0.472   5.922  0.1526  1.3145 -0.5112
  331MOL0     H44684   0.698   0.219   5.840 -1.3243  0.2205  0.8493
  331MOL0     H44685   0.614   0.435   5.811  1.9319 -1.7612  0.4752
  332MOL0     O44686  11.255   6.896   9.436  0.2654 -0.4013 -0.6796
  332MOL0     C44687  11.287   6.995   9.502 -0.1322  0.4919 -0.0099
  332MOL0     O44688  11.214   7.067   9.592 -0.0946 -0.1990  0.1147
  332MOL0     C44689  11.071   7.064   9.598  0.2538 -0.1145 -0.1144
  332MOL0     C44690  11.012   7.121   9.712 -0.1797  0.1630  0.7942
  332MOL0     C44691  10.875   7.122   9.734 -0.5536  1.3229  0.2113
  332MOL0     C44692  10.790   7.058   9.639 -0.1991 -0.9499 -0.6336
  332MOL0     O44693  10.653   7.036   9.656 -0.5032  0.1969  0.1030
  332MOL0     C44694  10.603   7.099   9.772  0.1715  0.9765  0.4395
  332MOL0     C44695  10.459   7.052   9.778 -0.0140 -0.3451 -0.6322
  332MOL0     C44696  10.400   7.114   9.908  0.0222  0.0759  0.1637
  332MOL0     C44697  10.264   7.043   9.926  0.6512 -0.0501 -0.8172
  332MOL0     C44698  10.189   7.084  10.050 -0.1511 -0.6803  0.8144
  332MOL0     C44699  10.235   7.019  10.174  0.0428  0.2931  0.1792
  332MOL0     C44700  10.233   6.867  10.175  0.0170  0.0688  0.8132
  332MOL0     C44701  10.231   6.804  10.315 -0.5593  0.2720  0.0334
  332MOL0     N44702  10.194   6.667  10.314 -0.5953  0.4745 -0.2576
  332MOL0     C44703  10.278   6.560  10.285 -0.9114  0.7024 -0.3531
  332MOL0     C44704  10.206   6.447  10.302 -0.5928  0.2619  0.0019
  332MOL0     C44705  10.265   6.307  10.285  0.2098  0.1544 -0.6870
  332MOL0     C44706  10.225   6.197  10.387 -0.5548 -0.2035  0.4027
  332MOL0     C44707  10.266   6.217  10.533  1.2575  0.2526  0.2505
  332MOL0     C44708  10.256   6.080  10.607 -0.3578  0.7632 -0.5400
  332MOL0     O44709  10.117   6.033  10.586 -0.6900  0.3728  0.1845
  332MOL0     C44710  10.095   5.898  10.615 -0.3707  0.2531 -0.0283
  332MOL0     C44711   9.997   5.825  10.543 -0.1384 -0.6660  0.3914
  332MOL0     C44712   9.947   5.696  10.571  0.1903  0.3145 -0.1189
  332MOL0     C44713   9.835   5.644  10.481  0.0299  0.0457  0.4208
  332MOL0     C44714  10.005   5.621  10.684 -0.1960  0.2201 -0.2237
  332MOL0     C44715   9.970   5.482  10.725  0.1933 -0.2329 -0.3561
  332MOL0     O44716  10.068   5.428  10.794  0.7265 -0.7890  0.1518
  332MOL0     C44717  10.044   5.300  10.844  0.3274 -0.0192 -1.0046
  332MOL0     C44718  10.143   5.210  10.846  0.0884 -0.0672 -0.2418
  332MOL0     C44719  10.145   5.086  10.904  0.2426  0.7030 -0.1342
  332MOL0     C44720  10.031   5.037  10.956  0.3753  0.1591  0.4827
  332MOL0     O44721  10.028   4.911  11.015  0.5477  0.8876 -0.2334
  332MOL0     C44722   9.938   4.816  10.962 -0.2929 -0.4323  0.6090
  332MOL0     C44723   9.793   4.822  11.024  0.4334  0.6021  0.4203
  332MOL0     C44724   9.708   4.703  10.990 -0.1447 -0.2172  0.0195
  332MOL0     C44725   9.565   4.704  11.054 -0.2601  0.0109  1.0201
  332MOL0     C44726   9.553   4.713  11.206  0.1523 -0.9676 -0.6582
  332MOL0     C44727   9.417   4.661  11.269  0.0724 -0.5260 -0.0806
  332MOL0     C44728   9.425   4.634  11.424  1.1623 -0.1841 -0.2780
  332MOL0     C44729   9.290   4.581  11.487  0.3385  0.1749  0.1482
  332MOL0    Cl44730   9.229   4.425  11.397  0.4827 -0.2275 -0.1130
  332MOL0     C44731   9.914   5.127  10.968 -1.3467 -0.7983 -0.9010
  332MOL0     C44732   9.932   5.258  10.917  0.8541  0.3356 -0.9656
  332MOL0     O44733   9.862   5.429  10.696  0.2178  0.8142 -0.4460
  332MOL0     C44734  10.099   5.694  10.752  0.2879 -0.4191  0.0222
  332MOL0     C44735  10.151   5.821  10.725 -0.3529  0.3261  0.3526
  332MOL0     N44736  10.075   6.487  10.335  0.7529  0.1623 -0.1403
  332MOL0     N44737  10.060   6.620  10.335 -0.8053  0.5724 -0.5627
  332MOL0     C44738  10.852   7.003   9.526  0.3654  0.2501 -0.3799
  332MOL0     C44739  10.984   7.012   9.499 -0.0015 -0.7687 -0.2208
  332MOL0     C44740  11.430   7.041   9.474  0.6145  0.6534 -0.4454
  332MOL0     C44741  11.487   7.134   9.559  0.6115  0.1351  0.8534
  332MOL0     C44742  11.620   7.192   9.543 -0.0632  0.6997  0.0753
  332MOL0     C44743  11.693   7.142   9.441 -0.5009  0.3199  0.4776
  332MOL0     O44744  11.813   7.206   9.414  0.4906 -0.1021 -0.0903
  332MOL0     C44745  11.877   7.193   9.285  0.2502  0.0365  0.1795
  332MOL0     C44746  11.971   7.313   9.282 -0.3621  0.0296 -0.1674
  332MOL0     C44747  12.082   7.312   9.183  0.1012  0.2372 -0.2781
  332MOL0     C44748  12.087   7.428   9.092  0.3136  0.2135  0.1236
  332MOL0     C44749  12.218   7.428   9.028 -0.0929  0.6488  0.4076
  332MOL0     C44750  12.337   7.407   9.003  0.7364 -0.0738  0.1203
  332MOL0     C44751  11.637   7.045   9.356  0.2702  0.6950 -0.0115
  332MOL0     C44752  11.506   6.992   9.371 -0.5967  0.7045  0.3245
  332MOL0     H44753  11.082   7.174   9.776 -1.2530  2.2100  0.3614
  332MOL0     H44754  10.839   7.156   9.830 -1.7923  1.4681 -0.2819
  332MOL0     H44755  10.645   7.058   9.865 -0.2515 -2.0369 -0.5926
  332MOL0     H44756  10.611   7.208   9.779 -0.3921  1.0495  0.0206
  332MOL0     H44757  10.415   7.102   9.691 -1.0537  0.6556  0.4391
  332MOL0     H44758  10.441   6.944   9.781 -2.5507  0.0543  0.3402
  332MOL0     H44759  10.465   7.096   9.995 -1.7412  1.4030  1.8635
  332MOL0     H44760  10.389   7.223   9.899  1.2317  0.2685  0.7200
  332MOL0     H44761  10.195   7.057   9.843 -1.5704  0.2340  0.9883
  332MOL0     H44762  10.278   6.935   9.936  2.7763  0.2497  0.0301
  332MOL0     H44763  10.181   7.193  10.065 -1.5369 -0.5720 -0.4118
  332MOL0     H44764  10.083   7.057  10.045 -0.2908  0.0294 -0.4500
  332MOL0     H44765  10.340   7.035  10.197  1.1426 -1.9040 -2.7139
  332MOL0     H44766  10.174   7.042  10.262  1.3783 -4.7115  2.7863
  332MOL0     H44767  10.140   6.838  10.126  0.8452 -2.0787  0.3657
  332MOL0     H44768  10.308   6.818  10.112 -1.4239  0.7900 -1.5958
  332MOL0     H44769  10.165   6.867  10.375 -1.1265  0.2785 -0.5938
  332MOL0     H44770  10.331   6.814  10.358 -0.4895  0.5974 -0.2072
  332MOL0     H44771  10.385   6.560  10.271 -0.7379 -1.5991  0.6402
  332MOL0     H44772  10.232   6.260  10.192 -3.8265 -1.8292  1.4509
  332MOL0     H44773  10.373   6.324  10.294 -0.1313  1.4158  2.0577
  332MOL0     H44774  10.276   6.106  10.353 -0.3398 -0.1298  0.5275
  332MOL0     H44775  10.118   6.177  10.371 -0.6087  0.4992 -0.2130
  332MOL0     H44776  10.194   6.291  10.567  0.8410 -0.0412  0.0133
  332MOL0     H44777  10.363   6.265  10.549  0.1909  2.4752  0.4174
  332MOL0     H44778  10.271   6.089  10.715  0.0361  1.9391 -0.6739
  332MOL0     H44779  10.319   6.002  10.564 -0.0365 -0.4541  1.9453
  332MOL0     H44780   9.960   5.875  10.454 -0.9788 -0.4938  0.8267
  332MOL0     H44781   9.741   5.658  10.534 -1.0706 -2.6121 -0.6553
  332MOL0     H44782   9.842   5.697  10.385  2.7523 -3.6191 -1.7058
  332MOL0     H44783   9.847   5.540  10.449 -1.9518  0.1877 -0.9908
  332MOL0     H44784  10.240   5.248  10.814  1.5952 -2.9936  0.3973
  332MOL0     H44785  10.239   5.038  10.930 -0.7259 -0.9714  0.4986
  332MOL0     H44786   9.938   4.826  10.853  1.7990  1.1017  0.6995
  332MOL0     H44787   9.986   4.720  10.985 -0.3439 -1.2920 -2.4260
  332MOL0     H44788   9.798   4.820  11.133 -1.6444 -0.9951  0.5473
  332MOL0     H44789   9.748   4.913  10.984  0.8192 -0.2054 -1.9886
  332MOL0     H44790   9.756   4.610  11.020 -2.3057 -1.9880 -1.6338
  332MOL0     H44791   9.698   4.693  10.881  1.0616 -1.8436  0.0172
  332MOL0     H44792   9.514   4.791  11.012 -0.6724 -1.4007 -1.6264
  332MOL0     H44793   9.507   4.616  11.021  0.3739  0.0517 -0.2624
  332MOL0     H44794   9.565   4.817  11.239 -2.6585 -0.9456  0.5067
  332MOL0     H44795   9.639   4.653  11.240 -0.7955 -3.0574 -1.7926
  332MOL0     H44796   9.340   4.738  11.257 -1.3854 -2.0322 -0.7602
  332MOL0     H44797   9.388   4.576  11.207  1.7395 -1.3518  0.2217
  332MOL0     H44798   9.459   4.722  11.479 -0.2458 -0.0848  0.4928
  332MOL0     H44799   9.498   4.553  11.438  1.5665  0.3182  0.6035
  332MOL0     H44800   9.215   4.660  11.479 -0.4308 -0.3942  1.4466
  332MOL0     H44801   9.318   4.543  11.585 -5.7077 -2.1705  1.4062
  332MOL0     H44802   9.825   5.094  11.021 -2.2001  2.1504 -0.3226
  332MOL0     H44803   9.850   5.324  10.942 -1.5009 -4.1519  5.7214
  332MOL0     H44804  10.120   5.646  10.848 -0.3374 -1.6160 -0.4115
  332MOL0     H44805  10.228   5.856  10.793  0.6796 -0.4891 -0.3622
  332MOL0     H44806  10.794   6.945   9.455  1.3863 -1.8574  0.4226
  332MOL0     H44807  11.029   6.972   9.409 -0.5629 -0.2522 -0.7423
  332MOL0     H44808  11.435   7.178   9.644 -1.2281 -1.4094  0.5693
  332MOL0     H44809  11.644   7.277   9.606  2.1068  1.4042 -1.5820
  332MOL0     H44810  11.921   7.094   9.276  0.9753  0.2179  1.5120
  332MOL0     H44811  11.813   7.203   9.197  0.7271  2.6041  0.0284
  332MOL0     H44812  12.019   7.324   9.380 -1.1926 -3.4641  0.7529
  332MOL0     H44813  11.906   7.401   9.273  0.3526  0.9470  2.5657
  332MOL0     H44814  12.078   7.222   9.120 -2.6637  0.4499 -0.5440
  332MOL0     H44815  12.176   7.291   9.235 -0.1023 -0.7928 -0.2916
  332MOL0     H44816  12.071   7.515   9.157  0.0924 -0.3786  0.8740
  332MOL0     H44817  12.021   7.431   9.005  0.3892 -2.2964 -0.0751
  332MOL0     H44818  12.435   7.400   8.959 -0.6736 -0.8641 -3.1811
  332MOL0     H44819  11.693   7.016   9.267 -0.1763  3.0325 -1.1308
  332MOL0     H44820  11.463   6.917   9.304 -1.8998  1.2729  0.4988
  333MOL0     O44821   7.762  10.135   9.924 -0.6830  0.1284 -0.0812
  333MOL0     C44822   7.805  10.125  10.043 -0.0586 -0.0940  0.3170
  333MOL0     O44823   7.812  10.227  10.132  0.0324  0.3731  0.5707
  333MOL0     C44824   7.823  10.353  10.086 -0.3434 -1.4599 -0.7108
  333MOL0     C44825   7.727  10.434  10.148 -0.4799 -0.2575  0.5413
  333MOL0     C44826   7.725  10.567  10.111  0.6057  0.0863 -0.6287
  333MOL0     C44827   7.805  10.626  10.011 -0.1964 -0.2202  0.3671
  333MOL0     O44828   7.791  10.762   9.978 -0.6327  0.0183 -0.1884
  333MOL0     C44829   7.872  10.810   9.870  1.3255 -0.0709  0.2106
  333MOL0     C44830   7.849  10.957   9.834 -0.6740 -0.8456  0.1193
  333MOL0     C44831   7.702  10.990   9.811  0.1255  0.4452 -0.2779
  333MOL0     C44832   7.686  11.141   9.791  1.1618  0.0631  0.7748
  333MOL0     C44833   7.559  11.187   9.719  0.1976  0.4743  0.2043
  333MOL0     C44834   7.540  11.113   9.579  0.3363 -0.4622  0.2369
  333MOL0     C44835   7.443  11.187   9.484  0.0959 -0.4046 -0.1295
  333MOL0     C44836   7.295  11.189   9.527 -0.2464  0.4169  0.9500
  333MOL0     N44837   7.220  11.264   9.421 -0.3780  0.0243  0.0268
  333MOL0     C44838   7.207  11.227   9.291  0.0778 -0.7005 -0.2298
  333MOL0     C44839   7.148  11.339   9.236  0.6936  0.0460  0.5139
  333MOL0     C44840   7.107  11.364   9.098 -0.6993  0.5959 -0.0971
  333MOL0     C44841   7.231  11.346   9.015  0.0809  0.8476 -0.2713
  333MOL0     C44842   7.332  11.461   9.031 -0.1200  1.6441 -0.1801
  333MOL0     C44843   7.463  11.459   8.952 -0.0948 -0.7993 -0.3207
  333MOL0     O44844   7.533  11.335   8.972  0.5841  0.2982 -0.2531
  333MOL0     C44845   7.653  11.322   8.910  0.6587  0.7589 -0.1324
  333MOL0     C44846   7.764  11.287   8.997  0.8665  0.3536  0.3439
  333MOL0     C44847   7.889  11.293   8.944 -0.4408  0.6557 -0.9368
  333MOL0     C44848   8.003  11.248   9.031  1.0076  0.2544  0.0882
  333MOL0     C44849   7.914  11.332   8.810  0.5410  0.1763 -0.0785
  333MOL0     C44850   8.038  11.371   8.745 -0.8133 -0.2547  1.3260
  333MOL0     O44851   8.135  11.411   8.827 -1.2717  0.1584 -0.1446
  333MOL0     C44852   8.264  11.431   8.768  0.2247  0.4678 -0.0584
  333MOL0     C44853   8.294  11.547   8.706 -0.5093 -0.2182 -0.5238
  333MOL0     C44854   8.409  11.553   8.622 -0.3253  0.0012 -0.5694
  333MOL0     C44855   8.502  11.443   8.613  0.8420 -0.6376  0.5134
  333MOL0     O44856   8.607  11.448   8.524 -0.0801  0.4824 -0.7354
  333MOL0     C44857   8.636  11.568   8.448  0.7787  0.0760  0.1448
  333MOL0     C44858   8.765  11.548   8.366  0.2568 -0.8601 -0.1049
  333MOL0     C44859   8.809  11.694   8.310 -0.0750 -0.3798 -0.2232
  333MOL0     C44860   8.722  11.723   8.188  0.0072  0.2678  0.1794
  333MOL0     C44861   8.720  11.866   8.139 -1.2466  0.8443 -0.0078
  333MOL0     C44862   8.645  11.888   8.009 -0.0282  0.0703  0.8825
  333MOL0     C44863   8.677  12.030   7.953  0.8946  0.5007  0.5040
  333MOL0     C44864   8.599  12.059   7.823  0.0637 -0.0392  0.1387
  333MOL0    Cl44865   8.604  11.918   7.708 -0.3587 -0.8562  0.7247
  333MOL0     C44866   8.469  11.327   8.684  0.2318 -0.5156 -0.4612
  333MOL0     C44867   8.349  11.317   8.768 -0.6397 -0.1411  1.5942
  333MOL0     O44868   8.046  11.370   8.617  0.8842  0.5070  0.1755
  333MOL0     C44869   7.801  11.355   8.731  0.2383  0.0980 -0.3510
  333MOL0     C44870   7.670  11.358   8.779 -0.4925  1.0964  0.0327
  333MOL0     N44871   7.116  11.432   9.335  0.2810 -0.5794  0.2317
  333MOL0     N44872   7.160  11.380   9.441  0.6192 -0.1277  0.1770
  333MOL0     C44873   7.895  10.536   9.945  0.2208  0.5722 -0.2041
  333MOL0     C44874   7.910  10.398   9.986  0.1731 -0.0947  0.2522
  333MOL0     C44875   7.825   9.987  10.083  0.9662  0.3819 -0.3026
  333MOL0     C44876   7.844   9.880   9.993  0.2801 -0.7143 -0.3534
  333MOL0     C44877   7.879   9.751  10.039 -0.4094  0.2578 -0.1824
  333MOL0     C44878   7.893   9.732  10.173  0.7581 -0.1189 -0.4178
  333MOL0     O44879   7.932   9.609  10.218 -0.7421  0.1887 -0.5162
  333MOL0     C44880   7.881   9.552  10.333 -0.1238 -0.3600 -0.4965
  333MOL0     C44881   7.942   9.415  10.333  0.3287 -0.0579  0.4256
  333MOL0     C44882   7.885   9.321  10.432  0.1637 -0.3080 -0.0175
  333MOL0     C44883   7.857   9.381  10.576 -0.7786  0.1892  0.8357
  333MOL0     C44884   7.804   9.271  10.659  0.0416  0.3067 -0.0337
  333MOL0     C44885   7.729   9.195  10.713  0.2901  0.3645  0.0103
  333MOL0     C44886   7.858   9.833  10.269 -0.6692 -0.0088 -0.1331
  333MOL0     C44887   7.814   9.956  10.220  0.6758 -0.5015  0.3740
  333MOL0     H44888   7.659  10.389  10.220 -2.1786  2.3173  0.6764
  333MOL0     H44889   7.645  10.628  10.152  2.1731  1.5265  0.4571
  333MOL0     H44890   7.979  10.798   9.890  1.8887  2.8527 -0.6744
  333MOL0     H44891   7.843  10.757   9.778  1.4970 -1.5206  0.9579
  333MOL0     H44892   7.888  11.017   9.916 -0.6270 -0.2753 -0.3147
  333MOL0     H44893   7.916  10.996   9.756  1.1280  0.6281  2.2829
  333MOL0     H44894   7.669  10.934   9.723  0.2723  0.7891 -0.5563
  333MOL0     H44895   7.644  10.959   9.898 -0.2261 -0.3991 -0.8047
  333MOL0     H44896   7.684  11.188   9.889  0.2869 -2.7104  2.1891
  333MOL0     H44897   7.772  11.181   9.736  0.0142 -0.1292 -1.2661
  333MOL0     H44898   7.465  11.183   9.774  0.5183  3.6223  1.2141
  333MOL0     H44899   7.582  11.291   9.695  0.5119  0.1285 -1.0507
  333MOL0     H44900   7.641  11.105   9.537  0.7925  0.7098  1.0612
  333MOL0     H44901   7.506  11.013   9.607  1.0133 -0.2308  1.9884
  333MOL0     H44902   7.482  11.288   9.468  2.1374 -1.0802  0.2618
  333MOL0     H44903   7.446  11.133   9.388 -0.2927  0.1781 -0.4770
  333MOL0     H44904   7.297  11.253   9.616 -0.9026  2.5695 -0.5028
  333MOL0     H44905   7.248  11.093   9.546  2.4458 -0.7929  1.9891
  333MOL0     H44906   7.249  11.139   9.242  0.9331  0.5961 -1.9241
  333MOL0     H44907   7.038  11.287   9.062  0.5326 -1.7004  2.1528
  333MOL0     H44908   7.080  11.468   9.080  1.9158  1.1624 -1.2328
  333MOL0     H44909   7.202  11.336   8.910  1.2407 -0.7846 -0.4681
  333MOL0     H44910   7.276  11.248   9.029  0.2619  1.2613  2.7281
  333MOL0     H44911   7.364  11.462   9.136 -0.5154 -0.9878  0.0324
  333MOL0     H44912   7.291  11.562   9.017  2.5674  2.8482 -0.1532
  333MOL0     H44913   7.501  11.554   8.991  0.2062 -0.4638 -1.3976
  333MOL0     H44914   7.444  11.471   8.845 -1.4229 -0.7424 -0.0998
  333MOL0     H44915   7.727  11.242   9.089 -1.0531  0.7437 -0.1862
  333MOL0     H44916   8.029  11.152   8.986 -3.3308 -0.6928 -0.8594
  333MOL0     H44917   8.091  11.312   9.046 -0.2097  1.7786  1.0258
  333MOL0     H44918   7.985  11.214   9.133 -1.4992 -1.6224 -0.8946
  333MOL0     H44919   8.224  11.629   8.719 -0.7879 -0.4641 -0.4705
  333MOL0     H44920   8.414  11.646   8.568 -1.8146  1.1795  1.1952
  333MOL0     H44921   8.554  11.592   8.379  0.9249  3.4925  0.9828
  333MOL0     H44922   8.638  11.653   8.516 -1.9754  0.2926  0.0603
  333MOL0     H44923   8.840  11.498   8.428 -1.2746  0.9492  3.4873
  333MOL0     H44924   8.734  11.477   8.288 -0.5544  0.5313 -1.0951
  333MOL0     H44925   8.916  11.697   8.289 -0.3823 -1.8029 -2.2181
  333MOL0     H44926   8.781  11.772   8.382  1.9082 -0.0045  0.2006
  333MOL0     H44927   8.743  11.655   8.105  0.6228 -1.4823  1.6980
  333MOL0     H44928   8.617  11.705   8.213 -0.1935  0.6783 -0.3456
  333MOL0     H44929   8.828  11.876   8.119 -1.4525  1.0430 -1.0570
  333MOL0     H44930   8.688  11.936   8.216  0.9159  1.2221  0.6353
  333MOL0     H44931   8.686  11.816   7.938  0.1577 -0.3167  1.3808
  333MOL0     H44932   8.536  11.886   8.021 -0.1375  1.4091  0.2625
  333MOL0     H44933   8.785  12.040   7.939  0.9465  1.6456  1.5692
  333MOL0     H44934   8.656  12.102   8.033 -0.8858 -0.4753  0.9744
  333MOL0     H44935   8.641  12.150   7.779 -2.3212  0.7888 -0.5895
  333MOL0     H44936   8.495  12.068   7.853 -0.7350 -2.8976 -1.4231
  333MOL0     H44937   8.533  11.240   8.673  2.6448  0.5819  3.1651
  333MOL0     H44938   8.314  11.224   8.813 -0.8890 -1.5411 -1.2372
  333MOL0     H44939   7.815  11.387   8.628  2.9948  3.7995  0.9481
  333MOL0     H44940   7.605  11.392   8.699  1.3256  0.7735 -1.6356
  333MOL0     H44941   7.957  10.573   9.864  1.1592 -1.7074 -0.6144
  333MOL0     H44942   7.981  10.325   9.947 -1.4230 -0.7566 -1.6070
  333MOL0     H44943   7.841   9.902   9.886  0.5389  1.0613 -0.0259
  333MOL0     H44944   7.901   9.674   9.966 -1.1208  2.1973 -2.5908
  333MOL0     H44945   7.904   9.611  10.422 -0.7444  1.3125 -1.4105
  333MOL0     H44946   7.774   9.547  10.310  0.0804 -1.7449 -1.2584
  333MOL0     H44947   8.052   9.409  10.333  0.2884 -0.8562  0.2575
  333MOL0     H44948   7.914   9.367  10.239 -0.1735 -0.3092  0.7005
  333MOL0     H44949   7.951   9.234  10.431  0.5632 -0.0798  2.0649
  333MOL0     H44950   7.791   9.283  10.391  0.0061  0.4101 -0.3391
  333MOL0     H44951   7.779   9.457  10.564 -2.3037 -1.3931  0.1047
  333MOL0     H44952   7.950   9.423  10.614 -0.7019 -0.4570  1.3876
  333MOL0     H44953   7.672   9.115  10.755  0.1598  1.4612  2.0573
  333MOL0     H44954   7.878   9.830  10.375  2.0673  2.3638 -0.4710
  333MOL0     H44955   7.791  10.042  10.282 -1.8243  1.0550 -2.4110
  334MOL0     O44956   0.566   2.951   8.790 -0.6769 -0.4937  0.2735
  334MOL0     C44957   0.684   2.954   8.746 -0.0644  0.1660 -0.5315
  334MOL0     O44958   0.774   2.854   8.778  0.3653 -0.8356 -0.2602
  334MOL0     C44959   0.724   2.734   8.825 -0.5938  0.1105 -0.7721
  334MOL0     C44960   0.691   2.716   8.964 -0.5078  0.3525 -0.1585
  334MOL0     C44961   0.655   2.586   9.012 -0.8570 -0.1331 -1.4547
  334MOL0     C44962   0.638   2.482   8.926 -0.1603  0.2877 -0.5402
  334MOL0     O44963   0.593   2.353   8.964 -0.5891 -0.0885 -0.1893
  334MOL0     C44964   0.497   2.339   9.074 -0.2114  0.3395 -0.6021
  334MOL0     C44965   0.354   2.390   9.069  0.0462  0.6108  0.8807
  334MOL0     C44966   0.261   2.345   8.950 -0.2403 -0.0387  0.0268
  334MOL0     C44967   0.130   2.431   8.961  0.0011 -0.4454  0.1544
  334MOL0     C44968   0.038   2.405   8.843  0.9015 -0.4870  0.4974
  334MOL0     C44969  -0.107   2.450   8.882  0.4602  1.1317  0.1421
  334MOL0     C44970  -0.201   2.466   8.764 -0.8721 -0.1677 -0.7446
  334MOL0     C44971  -0.156   2.570   8.667  0.8668  0.0378 -0.0383
  334MOL0     N44972  -0.256   2.622   8.574 -0.2293  1.1302  1.0383
  334MOL0     C44973  -0.369   2.561   8.523 -0.7024  0.0955  0.4157
  334MOL0     C44974  -0.431   2.657   8.450 -0.0420 -0.2692 -0.4604
  334MOL0     C44975  -0.537   2.618   8.356 -0.0276  0.6101 -0.2558
  334MOL0     C44976  -0.501   2.512   8.249  0.0501 -0.9245  0.6226
  334MOL0     C44977  -0.623   2.430   8.205  0.3765  0.0382 -0.5435
  334MOL0     C44978  -0.587   2.326   8.098  0.1105 -0.2884 -0.3538
  334MOL0     O44979  -0.556   2.393   7.971  0.2702  0.3168 -0.0310
  334MOL0     C44980  -0.658   2.444   7.887  0.0953 -0.4869  0.1656
  334MOL0     C44981  -0.619   2.475   7.755  0.4682  0.2112 -0.5039
  334MOL0     C44982  -0.721   2.507   7.660  0.4531 -0.6299  0.0605
  334MOL0     C44983  -0.676   2.550   7.520  0.6083  0.6348 -0.6488
  334MOL0     C44984  -0.862   2.505   7.696  0.4858  0.4808 -1.6913
  334MOL0     C44985  -0.971   2.536   7.611  0.1207  0.3161 -0.0144
  334MOL0     O44986  -0.953   2.555   7.482 -0.1212  0.1025 -0.3326
  334MOL0     C44987  -1.036   2.611   7.389 -0.2633 -0.0611  1.1816
  334MOL0     C44988  -1.174   2.637   7.403 -0.0777 -0.6569 -0.2048
  334MOL0     C44989  -1.238   2.694   7.298 -0.1294 -0.0742 -0.1738
  334MOL0     C44990  -1.191   2.720   7.172 -0.2670  1.2819 -1.0878
  334MOL0     O44991  -1.286   2.758   7.078 -0.0183  0.8682  0.0060
  334MOL0     C44992  -1.254   2.727   6.950  1.1799 -0.0615 -0.5145
  334MOL0     C44993  -1.397   2.696   6.896 -0.1990  0.2335  1.5923
  334MOL0     C44994  -1.512   2.796   6.942  0.7911 -0.7429  0.2236
  334MOL0     C44995  -1.642   2.797   6.852 -0.3953 -0.1586 -0.2955
  334MOL0     C44996  -1.717   2.656   6.864  0.3540  0.0045  0.1281
  334MOL0     C44997  -1.832   2.652   6.776  0.6991 -0.0348  0.4786
  334MOL0     C44998  -1.925   2.546   6.819  0.1251  0.0671  0.1062
  334MOL0     C44999  -2.020   2.518   6.698 -0.4019 -0.3233  0.2466
  334MOL0    Cl45000  -2.152   2.403   6.746  0.4115 -0.1273  0.1360
  334MOL0     C45001  -1.060   2.692   7.153 -1.4961  0.4860 -0.7059
  334MOL0     C45002  -0.986   2.639   7.260 -0.5454 -0.2381 -0.5495
  334MOL0     O45003  -1.075   2.556   7.666  0.6789  0.3565 -0.1029
  334MOL0     C45004  -0.887   2.473   7.833 -0.8523  0.3201 -0.5450
  334MOL0     C45005  -0.790   2.440   7.922  0.1402 -1.1309  1.2211
  334MOL0     N45006  -0.350   2.767   8.444 -0.2428 -0.0913  0.3101
  334MOL0     N45007  -0.247   2.746   8.520 -0.3039 -0.4937  0.4259
  334MOL0     C45008   0.668   2.498   8.788  0.4715 -0.0949 -0.2806
  334MOL0     C45009   0.709   2.621   8.738  0.1099 -0.2330  0.0556
  334MOL0     C45010   0.732   3.073   8.672 -0.4020 -0.7457  0.6535
  334MOL0     C45011   0.643   3.171   8.628  0.6395  0.0500 -0.9161
  334MOL0     C45012   0.686   3.286   8.559 -1.2294 -0.2742  0.3329
  334MOL0     C45013   0.821   3.316   8.536  0.4488 -0.0905  0.1119
  334MOL0     O45014   0.839   3.423   8.462  0.0835 -0.4869 -0.3438
  334MOL0     C45015   0.959   3.500   8.472  0.1081  0.1243 -0.2469
  334MOL0     C45016   1.032   3.483   8.345  0.3668  0.0998  0.9076
  334MOL0     C45017   0.948   3.534   8.218  0.1405 -0.7950 -0.3287
  334MOL0     C45018   0.921   3.426   8.120  0.3038  0.4742  0.6430
  334MOL0     C45019   0.835   3.471   8.014 -0.7069 -1.0678  0.4444
  334MOL0     C45020   0.764   3.532   7.946 -0.0950 -0.4186  0.2620
  334MOL0     C45021   0.911   3.222   8.581 -0.2952 -0.0141 -0.8129
  334MOL0     C45022   0.867   3.099   8.637  0.9313 -0.6129  0.4783
  334MOL0     H45023   0.694   2.805   9.026 -0.4270  1.7116 -2.0235
  334MOL0     H45024   0.643   2.569   9.119  0.8444 -1.5691 -1.4339
  334MOL0     H45025   0.482   2.232   9.089 -1.9947  0.4209 -1.5784
  334MOL0     H45026   0.538   2.385   9.164 -1.5822  1.4190 -0.4937
  334MOL0     H45027   0.311   2.364   9.166  1.0623 -0.1205  1.1600
  334MOL0     H45028   0.362   2.499   9.064  2.5999  0.4624  0.4694
  334MOL0     H45029   0.309   2.359   8.852  0.8653  0.9734  0.6946
  334MOL0     H45030   0.247   2.237   8.940  3.2162 -0.5116 -0.8592
  334MOL0     H45031   0.089   2.397   9.057  2.5631 -0.9603  1.1391
  334MOL0     H45032   0.143   2.539   8.971 -0.7162 -0.3322 -0.0497
  334MOL0     H45033   0.083   2.465   8.763  3.0203 -0.3489  1.7376
  334MOL0     H45034   0.038   2.300   8.810  1.7900 -1.3984  3.1687
  334MOL0     H45035  -0.144   2.372   8.950  1.0287  1.5339  0.9186
  334MOL0     H45036  -0.099   2.543   8.939  0.6971  1.5401 -0.5536
  334MOL0     H45037  -0.193   2.376   8.702 -1.5476 -0.2562 -0.7068
  334MOL0     H45038  -0.302   2.478   8.802 -1.0578  1.0887 -1.5911
  334MOL0     H45039  -0.070   2.536   8.608  1.0022  2.6108 -1.4597
  334MOL0     H45040  -0.125   2.651   8.733  1.2443 -0.4300  0.3689
  334MOL0     H45041  -0.398   2.456   8.523  1.0430 -0.4186  1.3035
  334MOL0     H45042  -0.606   2.570   8.426  0.1421 -0.9746 -1.1242
  334MOL0     H45043  -0.563   2.708   8.302  0.8550  1.0096 -0.0406
  334MOL0     H45044  -0.416   2.448   8.275  1.0345 -0.8079 -2.0470
  334MOL0     H45045  -0.465   2.569   8.163 -0.6020  0.3092  1.1470
  334MOL0     H45046  -0.701   2.497   8.167  0.5854  1.6671  1.7498
  334MOL0     H45047  -0.665   2.384   8.295  0.3720  0.9410 -0.0728
  334MOL0     H45048  -0.669   2.254   8.087 -2.9334  2.3974  2.2276
  334MOL0     H45049  -0.497   2.275   8.132 -0.5069 -0.6946  0.7259
  334MOL0     H45050  -0.513   2.474   7.732  0.7091 -2.0860  0.4067
  334MOL0     H45051  -0.567   2.559   7.531  0.4491 -0.0630  2.4606
  334MOL0     H45052  -0.698   2.474   7.444  1.2910  0.8229 -1.0520
  334MOL0     H45053  -0.724   2.641   7.483 -1.6565 -0.9025 -1.6950
  334MOL0     H45054  -1.229   2.616   7.494  1.5800 -0.1611  0.9548
  334MOL0     H45055  -1.342   2.725   7.301 -0.4275 -1.0408 -0.2515
  334MOL0     H45056  -1.202   2.802   6.891 -2.9635  1.9420 -1.9757
  334MOL0     H45057  -1.207   2.630   6.932 -0.5404 -1.8375  3.4210
  334MOL0     H45058  -1.387   2.694   6.787 -1.2328  2.2524  1.3995
  334MOL0     H45059  -1.418   2.591   6.919 -0.9464  0.2100  0.8497
  334MOL0     H45060  -1.471   2.897   6.942 -1.3751  0.2025  1.6836
  334MOL0     H45061  -1.553   2.766   7.039 -1.3019  0.4766 -0.2234
  334MOL0     H45062  -1.706   2.877   6.888 -0.4459 -0.3076 -0.0558
  334MOL0     H45063  -1.611   2.817   6.749 -4.3851 -1.0333 -1.8447
  334MOL0     H45064  -1.758   2.656   6.966 -0.6642  0.6831 -0.2667
  334MOL0     H45065  -1.646   2.576   6.842 -0.2310 -1.0007  1.6800
  334MOL0     H45066  -1.880   2.750   6.771  0.0995 -0.3579 -0.1211
  334MOL0     H45067  -1.794   2.621   6.679  0.8874 -0.3214  0.6416
  334MOL0     H45068  -1.988   2.583   6.901 -1.2628  0.7806 -1.2248
  334MOL0     H45069  -1.865   2.459   6.847  0.0244  0.4156  1.5068
  334MOL0     H45070  -1.947   2.477   6.627 -0.0777 -1.0285  0.9836
  334MOL0     H45071  -2.054   2.617   6.665  3.0676  0.1125 -2.6249
  334MOL0     H45072  -0.995   2.713   7.070 -1.4758  0.0569 -0.7999
  334MOL0     H45073  -0.878   2.631   7.250 -0.5119  0.3017 -0.6697
  334MOL0     H45074  -0.988   2.470   7.873 -0.7843 -1.9623 -0.4125
  334MOL0     H45075  -0.825   2.396   8.015 -0.6743 -2.2338  0.4226
  334MOL0     H45076   0.642   2.406   8.737  1.7979 -1.8527  2.0480
  334MOL0     H45077   0.733   2.634   8.633 -0.4198  2.1556  0.1838
  334MOL0     H45078   0.539   3.156   8.657  1.2707 -1.8619  0.6353
  334MOL0     H45079   0.607   3.354   8.529 -0.8805 -0.8510 -2.1561
  334MOL0     H45080   0.933   3.606   8.473  2.8007  0.8832 -1.2863
  334MOL0     H45081   1.021   3.477   8.559 -0.3313  1.5792  0.4928
  334MOL0     H45082   1.057   3.376   8.337 -1.0719 -0.1487 -0.8458
  334MOL0     H45083   1.128   3.536   8.338 -0.2114  0.9612 -1.5207
  334MOL0     H45084   1.006   3.608   8.161 -0.2217 -1.4831 -1.6295
  334MOL0     H45085   0.848   3.555   8.256  0.3888 -1.5662  0.8228
  334MOL0     H45086   0.875   3.348   8.183 -1.4641  2.0664  1.4471
  334MOL0     H45087   1.012   3.380   8.081 -0.8017  0.0277 -1.5939
  334MOL0     H45088   0.688   3.583   7.890 -3.0546 -2.9158  1.7035
  334MOL0     H45089   1.017   3.233   8.560 -0.6994  3.4897 -1.5601
  334MOL0     H45090   0.941   3.029   8.675 -1.0288 -1.5710  2.7679
  335MOL0     O45091   5.987   8.503   2.934  0.1430  0.2300 -0.6716
  335MOL0     C45092   5.907   8.417   2.893 -0.3090  0.6299  0.4206
  335MOL0     O45093   5.924   8.276   2.897 -0.8288 -0.5676 -0.3548
  335MOL0     C45094   6.029   8.220   2.971 -0.0987 -0.4635 -0.8044
  335MOL0     C45095   6.057   8.082   2.945  0.6076  0.6910 -1.0980
  335MOL0     C45096   6.150   8.009   3.021  0.2521 -0.3240 -0.5294
  335MOL0     C45097   6.218   8.068   3.117 -0.0293  0.9064 -0.1991
  335MOL0     O45098   6.300   8.006   3.199 -0.3782  0.1972 -0.9467
  335MOL0     C45099   6.297   7.859   3.209 -0.6429 -0.1753  0.4058
  335MOL0     C45100   6.401   7.792   3.306 -0.7557 -0.3091 -0.0916
  335MOL0     C45101   6.370   7.814   3.455 -0.3309 -0.0650  0.4262
  335MOL0     C45102   6.240   7.745   3.498 -0.4962 -0.5235  0.2212
  335MOL0     C45103   6.228   7.694   3.645  0.5054 -0.2345  1.0644
  335MOL0     C45104   6.289   7.781   3.760 -0.4703  0.8294  0.4972
  335MOL0     C45105   6.232   7.913   3.789 -0.0573 -1.5270 -0.1529
  335MOL0     C45106   6.320   8.011   3.869 -0.3795  0.1884  0.1351
  335MOL0     N45107   6.370   7.955   3.996 -0.2818 -0.0327  0.0112
  335MOL0     C45108   6.297   7.972   4.110 -0.0095  0.4163  0.1331
  335MOL0     C45109   6.362   7.893   4.202 -0.5194 -0.2188  0.3893
  335MOL0     C45110   6.302   7.887   4.333  0.1692  0.1913  0.4424
  335MOL0     C45111   6.257   7.742   4.362 -0.6994  0.2681  0.2016
  335MOL0     C45112   6.146   7.732   4.465 -0.1171 -0.1071  0.1769
  335MOL0     C45113   6.008   7.779   4.419 -0.4120 -0.5825 -0.4698
  335MOL0     O45114   5.957   7.697   4.319  1.0027  0.5223  0.2852
  335MOL0     C45115   5.927   7.769   4.206  0.1316 -0.5385 -0.8034
  335MOL0     C45116   5.827   7.871   4.223  0.3774 -0.2337  0.2411
  335MOL0     C45117   5.780   7.936   4.110  0.6617 -0.0775  0.5794
  335MOL0     C45118   5.676   8.032   4.145 -0.0687  0.4599 -0.3225
  335MOL0     C45119   5.824   7.911   3.981 -0.9126  0.2746  0.3296
  335MOL0     C45120   5.783   7.978   3.853 -0.5282  0.1204 -0.1018
  335MOL0     O45121   5.887   8.008   3.763 -0.2898 -0.0578 -0.1554
  335MOL0     C45122   5.854   8.067   3.641 -0.0019 -0.6415 -0.0652
  335MOL0     C45123   5.752   8.162   3.611  0.0692  0.2681 -0.0366
  335MOL0     C45124   5.734   8.225   3.485  0.1917  0.7343  0.6282
  335MOL0     C45125   5.827   8.191   3.383 -0.7890 -0.2128 -0.1867
  335MOL0     O45126   5.804   8.235   3.258 -0.6381  0.9072 -0.4669
  335MOL0     C45127   5.669   8.258   3.207  0.4741  0.3671  0.5313
  335MOL0     C45128   5.623   8.123   3.141  0.8864 -0.1719  0.4304
  335MOL0     C45129   5.478   8.114   3.081 -0.6221  0.0923  0.3160
  335MOL0     C45130   5.459   8.217   2.969  0.7452 -0.5262  0.2529
  335MOL0     C45131   5.310   8.230   2.939  0.1228  0.3377  0.3347
  335MOL0     C45132   5.278   8.336   2.846  0.5028  0.3619 -0.1394
  335MOL0     C45133   5.123   8.333   2.834  0.5887 -0.1432 -0.6236
  335MOL0     C45134   5.081   8.448   2.747 -0.0540 -0.4565 -0.7863
  335MOL0    Cl45135   5.114   8.379   2.585 -0.1094 -0.4888 -0.2335
  335MOL0     C45136   5.918   8.088   3.405 -0.4388 -0.0916  0.4375
  335MOL0     C45137   5.930   8.034   3.526 -0.0135  0.8300 -0.9351
  335MOL0     O45138   5.660   7.992   3.832  0.5452  0.4194 -0.3901
  335MOL0     C45139   5.923   7.805   3.969  0.5294 -1.1694  0.2959
  335MOL0     C45140   5.962   7.736   4.078  0.0735  0.3367  0.1323
  335MOL0     N45141   6.470   7.831   4.133  0.5712 -1.2972 -0.0367
  335MOL0     N45142   6.475   7.870   4.018 -0.9946 -0.1831  0.4910
  335MOL0     C45143   6.208   8.210   3.133 -0.0996  0.4459 -0.5779
  335MOL0     C45144   6.105   8.281   3.078 -0.7781  0.2594 -0.0696
  335MOL0     C45145   5.785   8.455   2.817 -0.7616  0.1109 -0.4317
  335MOL0     C45146   5.716   8.367   2.731  0.0478  0.3322  0.8438
  335MOL0     C45147   5.600   8.412   2.661  0.4764  0.5936  0.5083
  335MOL0     C45148   5.555   8.546   2.675 -0.4680  0.1086  0.5818
  335MOL0     O45149   5.442   8.602   2.618  0.0165  0.9507 -0.4447
  335MOL0     C45150   5.460   8.648   2.481 -0.0852 -0.2201  0.0433
  335MOL0     C45151   5.346   8.721   2.400  0.3769 -0.6445 -0.6035
  335MOL0     C45152   5.401   8.781   2.266  0.5434  0.2438 -0.0605
  335MOL0     C45153   5.319   8.898   2.223  0.4364  0.1432 -0.0216
  335MOL0     C45154   5.347   9.007   2.315 -0.0349  0.2602  0.1258
  335MOL0     C45155   5.373   9.110   2.383  0.8996  0.7340 -0.1781
  335MOL0     C45156   5.631   8.631   2.753  0.4551 -0.3912 -0.8347
  335MOL0     C45157   5.742   8.590   2.825  0.6612  0.2176  0.5436
  335MOL0     H45158   5.999   8.027   2.871 -0.9549  2.3544 -1.1748
  335MOL0     H45159   6.145   7.901   3.006 -1.0997 -0.0988 -2.0235
  335MOL0     H45160   6.191   7.840   3.228 -0.6886  1.1944  1.6853
  335MOL0     H45161   6.313   7.819   3.109 -0.6184 -4.2669  1.8814
  335MOL0     H45162   6.427   7.688   3.284 -0.6078  0.1251 -2.1055
  335MOL0     H45163   6.496   7.837   3.276 -1.9726  3.5139  1.2239
  335MOL0     H45164   6.448   7.777   3.522 -0.2928  3.3710  2.5490
  335MOL0     H45165   6.362   7.917   3.491 -0.5650 -0.2841  1.0351
  335MOL0     H45166   6.154   7.805   3.468 -1.6755 -1.1977  2.0738
  335MOL0     H45167   6.225   7.650   3.445 -4.9560  0.7195 -1.1902
  335MOL0     H45168   6.122   7.691   3.673  0.9191  0.3104  2.8755
  335MOL0     H45169   6.281   7.599   3.653 -0.9574 -1.0919  0.8915
  335MOL0     H45170   6.286   7.714   3.847 -0.6466 -0.6093 -0.5726
  335MOL0     H45171   6.396   7.787   3.739 -0.3544 -0.7725  0.4854
  335MOL0     H45172   6.212   7.963   3.694  0.7069  0.8770  0.8591
  335MOL0     H45173   6.129   7.900   3.826  0.0673  0.2234  0.9554
  335MOL0     H45174   6.277   8.106   3.902 -0.5272  0.5120 -0.9571
  335MOL0     H45175   6.406   8.018   3.802  0.0511 -2.0638  0.3730
  335MOL0     H45176   6.209   8.035   4.108  0.0131  0.4734 -2.4534
  335MOL0     H45177   6.376   7.925   4.403 -0.1048  3.3035 -0.7979
  335MOL0     H45178   6.213   7.950   4.333  0.1582  0.2194 -1.0488
  335MOL0     H45179   6.343   7.686   4.400 -0.1982  0.6370 -0.3755
  335MOL0     H45180   6.221   7.694   4.271 -0.5459 -1.5989  1.0763
  335MOL0     H45181   6.183   7.782   4.555  2.2546 -0.8274 -0.3169
  335MOL0     H45182   6.140   7.624   4.480 -0.0802 -0.0755  0.4147
  335MOL0     H45183   6.025   7.879   4.379  1.5256 -0.4192  0.6351
  335MOL0     H45184   5.939   7.771   4.503 -0.8210 -0.9056 -0.8324
  335MOL0     H45185   5.791   7.894   4.323  0.3024  2.4612 -0.3482
  335MOL0     H45186   5.618   8.070   4.061 -3.1221  2.4769  2.4814
  335MOL0     H45187   5.606   7.976   4.207  1.7344  0.4986  1.8842
  335MOL0     H45188   5.717   8.118   4.199  0.2762  0.5619 -0.7370
  335MOL0     H45189   5.678   8.193   3.685 -0.8814 -2.8119  0.4719
  335MOL0     H45190   5.653   8.297   3.478 -2.6530 -2.2065  1.0071
  335MOL0     H45191   5.598   8.292   3.284 -0.2715 -1.4097  0.6653
  335MOL0     H45192   5.671   8.340   3.134 -2.4525  1.1152  1.1309
  335MOL0     H45193   5.692   8.102   3.058 -0.3779 -1.8304 -0.2565
  335MOL0     H45194   5.634   8.042   3.214 -0.1340 -1.3031 -0.6222
  335MOL0     H45195   5.409   8.107   3.165  0.1214  0.1691  0.9411
  335MOL0     H45196   5.478   8.021   3.022  0.4472  0.6996 -0.6915
  335MOL0     H45197   5.488   8.316   3.007  0.1123  1.6397 -4.3133
  335MOL0     H45198   5.527   8.197   2.886  1.9393 -1.3748  1.3718
  335MOL0     H45199   5.265   8.250   3.037 -0.9959 -3.7561  0.8166
  335MOL0     H45200   5.267   8.134   2.911  3.7138 -1.3031 -0.0792
  335MOL0     H45201   5.325   8.430   2.878 -2.7577  1.6780  1.1426
  335MOL0     H45202   5.321   8.305   2.750  0.8588 -0.1190  0.1697
  335MOL0     H45203   5.073   8.349   2.931  0.6289  0.1168 -0.6454
  335MOL0     H45204   5.086   8.246   2.780  0.6033  0.7616 -2.1495
  335MOL0     H45205   5.143   8.537   2.757  1.2231 -1.5750  2.7617
  335MOL0     H45206   4.975   8.472   2.759  0.2794  0.3327  0.8358
  335MOL0     H45207   5.979   8.041   3.329 -0.4484 -2.4529  1.8012
  335MOL0     H45208   6.003   7.954   3.528 -0.9774 -0.0878  1.2821
  335MOL0     H45209   5.963   7.772   3.874  1.0855  1.2405 -0.3737
  335MOL0     H45210   6.025   7.652   4.052 -0.1472 -0.3348  1.6300
  335MOL0     H45211   6.275   8.257   3.204 -1.6309 -0.3987  1.5286
  335MOL0     H45212   6.088   8.378   3.122 -1.0934 -0.2387  0.9412
  335MOL0     H45213   5.734   8.260   2.742  1.7976  0.7526  2.6863
  335MOL0     H45214   5.533   8.341   2.613 -1.5704  0.7084  2.9891
  335MOL0     H45215   5.541   8.720   2.491  0.0555 -0.6474  2.4613
  335MOL0     H45216   5.517   8.574   2.425 -0.1140 -0.7466  0.7046
  335MOL0     H45217   5.300   8.807   2.450  2.9309  1.9819 -2.4616
  335MOL0     H45218   5.271   8.642   2.391  1.6329 -2.2927  2.0182
  335MOL0     H45219   5.396   8.700   2.191 -0.7777 -1.3513  1.6396
  335MOL0     H45220   5.506   8.808   2.277  0.1737  0.4699  6.0677
  335MOL0     H45221   5.217   8.858   2.230  1.3513 -2.0860  2.1136
  335MOL0     H45222   5.339   8.932   2.121  4.1442  2.4572  1.2840
  335MOL0     H45223   5.397   9.201   2.434  0.4888  0.2480  0.9129
  335MOL0     H45224   5.594   8.732   2.744  0.6922 -0.3524 -1.4358
  335MOL0     H45225   5.800   8.671   2.867 -0.0182  1.9663 -1.6794
  336MOL0     O45226   3.899  10.832   0.987  0.0469  0.6846  0.5358
  336MOL0     C45227   3.986  10.751   1.006  0.5224  0.2122 -0.8314
  336MOL0     O45228   3.971  10.614   1.036 -0.1934 -0.0476 -0.1416
  336MOL0     C45229   3.842  10.572   1.038  0.5640  0.5761 -0.4914
  336MOL0     C45230   3.814  10.458   0.961 -0.0669 -1.0297 -0.2293
  336MOL0     C45231   3.696  10.382   0.984  0.5599  0.2925  0.7468
  336MOL0     C45232   3.595  10.423   1.064 -0.6379  0.5007 -0.6386
  336MOL0     O45233   3.477  10.355   1.075  0.2280 -0.8872 -0.2558
  336MOL0     C45234   3.356  10.425   1.026 -0.3021  0.1721 -1.0525
  336MOL0     C45235   3.241  10.318   1.018 -0.3199 -0.1372  0.5011
  336MOL0     C45236   3.136  10.354   0.918 -0.3354 -0.0525  0.5144
  336MOL0     C45237   3.060  10.228   0.876 -0.7422  0.1246  0.5970
  336MOL0     C45238   2.947  10.266   0.773 -0.1489  0.5290 -0.2245
  336MOL0     C45239   2.853  10.142   0.747  0.3801 -0.5679 -0.3247
  336MOL0     C45240   2.724  10.202   0.665 -0.5187  0.0297  0.2498
  336MOL0     C45241   2.609  10.097   0.657 -0.9636 -0.4108  1.4788
  336MOL0     N45242   2.515  10.103   0.770 -0.0745 -0.1055  0.6263
  336MOL0     C45243   2.387  10.152   0.769 -0.2720 -0.3903 -0.2515
  336MOL0     C45244   2.361  10.178   0.896 -0.1991  0.4326 -0.7738
  336MOL0     C45245   2.249  10.269   0.937  0.9327  0.8174  0.1478
  336MOL0     C45246   2.116  10.190   0.958  0.3288 -0.2152  0.1744
  336MOL0     C45247   1.984  10.269   0.939 -0.1133 -0.3782  0.0855
  336MOL0     C45248   1.873  10.182   0.874 -0.5579 -0.1378 -0.3305
  336MOL0     O45249   1.851  10.209   0.731  0.1833 -0.6543  0.0271
  336MOL0     C45250   1.938  10.164   0.634  0.2155  0.3237 -1.0119
  336MOL0     C45251   2.008  10.042   0.648  0.3429 -0.1314  0.7734
  336MOL0     C45252   2.113  10.005   0.562 -0.7798  0.3891  0.0505
  336MOL0     C45253   2.175   9.867   0.587 -0.0771  0.2938  0.5085
  336MOL0     C45254   2.151  10.092   0.454  0.0296 -0.1519 -0.1860
  336MOL0     C45255   2.248  10.062   0.343 -0.3572 -0.6167  0.2070
  336MOL0     O45256   2.257  10.149   0.241  0.1263  0.1239 -0.1697
  336MOL0     C45257   2.334  10.093   0.138 -0.0601 -1.1015  0.5852
  336MOL0     C45258   2.466  10.114   0.125  0.4615  0.1043 -0.4159
  336MOL0     C45259   2.544  10.055   0.025 -0.3094  0.8346  0.3527
  336MOL0     C45260   2.485   9.976  -0.074  0.6520 -1.1097 -1.2110
  336MOL0     O45261   2.547   9.903  -0.172  0.0397  0.0714  0.5975
  336MOL0     C45262   2.674   9.852  -0.142  0.0790 -0.4288  0.3940
  336MOL0     C45263   2.720   9.757  -0.248 -0.4852  0.6648 -0.2297
  336MOL0     C45264   2.850   9.701  -0.203 -0.2840 -0.4366  0.2542
  336MOL0     C45265   2.960   9.808  -0.174  0.1283 -0.1517 -0.9545
  336MOL0     C45266   3.100   9.763  -0.145  0.0480  0.0270  0.0908
  336MOL0     C45267   3.204   9.874  -0.141  0.6346  0.0380  0.2841
  336MOL0     C45268   3.328   9.799  -0.087  0.1755 -0.5211 -0.6860
  336MOL0     C45269   3.455   9.881  -0.088  0.2672 -0.1854 -1.0001
  336MOL0    Cl45270   3.503   9.936  -0.250  0.3824  0.1762  0.0053
  336MOL0     C45271   2.349   9.946  -0.060 -0.2112 -0.6873 -0.0463
  336MOL0     C45272   2.282  10.004   0.041  0.0786 -0.0548 -0.6364
  336MOL0     O45273   2.302   9.950   0.345  0.0871  0.2912  0.4363
  336MOL0     C45274   2.073  10.208   0.441  0.6609 -0.7720 -0.5522
  336MOL0     C45275   1.972  10.250   0.527  0.0688  0.8708 -0.6592
  336MOL0     N45276   2.468  10.132   0.977  0.6012  0.5524  0.3837
  336MOL0     N45277   2.553  10.088   0.898 -1.1637 -1.3894  0.2570
  336MOL0     C45278   3.631  10.540   1.138  0.5796  0.9835 -0.3072
  336MOL0     C45279   3.753  10.607   1.133  0.1431 -0.1050 -0.9160
  336MOL0     C45280   4.123  10.804   1.006 -1.6179 -0.0107  0.1590
  336MOL0     C45281   4.217  10.739   1.094 -0.4206 -1.6289  0.1831
  336MOL0     C45282   4.352  10.780   1.093  0.2248 -1.0773 -0.5181
  336MOL0     C45283   4.394  10.893   1.005  0.1206 -0.2437 -0.6142
  336MOL0     O45284   4.512  10.952   1.007  0.3190  0.0801 -0.4277
  336MOL0     C45285   4.607  10.890   1.089 -0.0675  0.0364 -0.0249
  336MOL0     C45286   4.758  10.930   1.060  0.0304 -0.5519 -0.4360
  336MOL0     C45287   4.784  11.086   1.062 -0.1057 -0.7639 -0.7120
  336MOL0     C45288   4.752  11.147   1.197  0.2669 -0.4702 -0.5051
  336MOL0     C45289   4.851  11.100   1.292 -0.0006  0.2794  0.1851
  336MOL0     C45290   4.925  11.067   1.384  0.9765  0.3402  1.5728
  336MOL0     C45291   4.300  10.953   0.927  0.1842  0.6631  0.1233
  336MOL0     C45292   4.164  10.917   0.934  0.1684 -0.8051  0.9471
  336MOL0     H45293   3.888  10.418   0.893 -0.4847  0.0496 -1.3715
  336MOL0     H45294   3.675  10.293   0.927  0.7440  0.4569  0.4215
  336MOL0     H45295   3.327  10.504   1.096 -2.1540 -0.9001 -0.5538
  336MOL0     H45296   3.375  10.462   0.924 -2.9432  1.9896 -0.9782
  336MOL0     H45297   3.278  10.216   1.007  0.7327  0.1203  1.4346
  336MOL0     H45298   3.191  10.321   1.115 -2.3525 -3.8880 -0.2666
  336MOL0     H45299   3.060  10.422   0.958 -1.9608 -2.6739  2.1937
  336MOL0     H45300   3.169  10.388   0.820  0.3707  0.5377  0.9485
  336MOL0     H45301   3.138  10.169   0.827  0.0194  1.3239  0.3166
  336MOL0     H45302   3.013  10.174   0.959  1.2982 -3.7307 -0.5433
  336MOL0     H45303   2.895  10.353   0.814 -0.4318 -0.2600  1.1598
  336MOL0     H45304   3.006  10.298   0.687  0.1315 -2.4023 -1.2287
  336MOL0     H45305   2.897  10.056   0.696 -1.5891 -3.0077  1.7461
  336MOL0     H45306   2.816  10.108   0.845  3.5382 -1.9211  0.5096
  336MOL0     H45307   2.674  10.288   0.711 -1.2994 -0.6271  0.6546
  336MOL0     H45308   2.763  10.220   0.564  0.6459 -3.6370 -0.0917
  336MOL0     H45309   2.649   9.995   0.649 -0.9243 -0.2442 -1.7791
  336MOL0     H45310   2.556  10.115   0.563  3.0879 -1.3141 -1.2742
  336MOL0     H45311   2.322  10.183   0.688 -1.8889  0.7244  1.3939
  336MOL0     H45312   2.263  10.319   1.033 -1.9974 -0.5734  1.4518
  336MOL0     H45313   2.230  10.335   0.853  1.3426 -0.4427 -0.9727
  336MOL0     H45314   2.101  10.139   1.053 -2.2578 -1.3289 -0.7278
  336MOL0     H45315   2.115  10.110   0.883  0.0036  0.9560 -1.1245
  336MOL0     H45316   2.007  10.344   0.863 -2.8245 -1.4131 -1.9118
  336MOL0     H45317   1.965  10.312   1.038 -0.5068  7.3993 -2.7190
  336MOL0     H45318   1.779  10.207   0.923 -1.3647 -3.5397  0.0865
  336MOL0     H45319   1.890  10.077   0.899  1.0240  0.5856  2.0451
  336MOL0     H45320   1.986   9.973   0.729 -1.0385  1.4209  1.7704
  336MOL0     H45321   2.278   9.885   0.618  0.2757  1.5175 -1.2446
  336MOL0     H45322   2.115   9.815   0.662  1.1690 -3.0388 -0.6107
  336MOL0     H45323   2.172   9.806   0.496  1.8423  1.4206 -0.3544
  336MOL0     H45324   2.530  10.179   0.184  0.1405  0.1524 -0.1176
  336MOL0     H45325   2.649  10.079   0.035 -0.3694  1.4352 -0.3528
  336MOL0     H45326   2.730   9.946  -0.141 -1.8324  0.8337 -1.7082
  336MOL0     H45327   2.673   9.812  -0.040  0.0864 -0.1234  0.5157
  336MOL0     H45328   2.657   9.668  -0.249  0.0418  0.1045  3.2783
  336MOL0     H45329   2.726   9.800  -0.349  3.7791 -1.7023 -1.2310
  336MOL0     H45330   2.878   9.637  -0.288  0.0094  0.7911 -0.6031
  336MOL0     H45331   2.824   9.651  -0.109 -5.1375  1.9591  0.5191
  336MOL0     H45332   2.954   9.886  -0.251 -2.1577 -2.4312 -3.2883
  336MOL0     H45333   2.930   9.849  -0.077 -1.4917  1.4582 -2.0565
  336MOL0     H45334   3.123   9.695  -0.227 -4.2873 -1.9365  0.2224
  336MOL0     H45335   3.102   9.707  -0.051  0.8226 -0.8404 -0.4224
  336MOL0     H45336   3.217   9.901  -0.246 -0.6299 -1.1833 -0.2141
  336MOL0     H45337   3.183   9.963  -0.081  0.4187  0.6443 -0.6650
  336MOL0     H45338   3.347   9.718  -0.158 -0.8036 -1.6849  0.3154
  336MOL0     H45339   3.316   9.760   0.015  1.5661  0.1366 -0.2574
  336MOL0     H45340   3.532   9.813  -0.048  0.0908 -0.6052 -1.3667
  336MOL0     H45341   3.428   9.972  -0.033 -2.0870 -0.4773 -1.5594
  336MOL0     H45342   2.308   9.877  -0.133 -0.6502  1.8607 -2.3872
  336MOL0     H45343   2.178   9.976   0.048  0.1561  0.0049  3.1450
  336MOL0     H45344   2.088  10.281   0.363 -2.6487  0.5672 -0.0803
  336MOL0     H45345   1.928  10.348   0.514 -0.4411  0.6806 -0.4219
  336MOL0     H45346   3.565  10.573   1.217  1.0436  0.3096  0.3756
  336MOL0     H45347   3.778  10.687   1.202  2.6861 -1.2618 -0.4000
  336MOL0     H45348   4.187  10.654   1.155 -1.8358  0.5093  2.6829
  336MOL0     H45349   4.417  10.732   1.164  1.0463  1.4379  0.5313
  336MOL0     H45350   4.574  10.918   1.189  0.2187  1.1387 -0.2253
  336MOL0     H45351   4.608  10.782   1.071  0.7329  0.1372 -0.6293
  336MOL0     H45352   4.789  10.890   0.963  0.2720 -0.4998 -0.3828
  336MOL0     H45353   4.813  10.874   1.136 -1.6558  0.0791  1.3101
  336MOL0     H45354   4.733  11.147   0.988 -0.8376 -0.1462  0.2842
  336MOL0     H45355   4.891  11.099   1.040  0.2080 -1.6810  0.1339
  336MOL0     H45356   4.648  11.129   1.228  1.2768 -1.5599  2.5314
  336MOL0     H45357   4.749  11.257   1.190  1.6656 -0.4511 -1.1313
  336MOL0     H45358   4.993  11.039   1.462  1.1724 -1.1496  0.8996
  336MOL0     H45359   4.331  11.028   0.855 -3.1981 -0.5866 -2.9683
  336MOL0     H45360   4.079  10.951   0.875  0.1904 -1.0387  0.7794
  337MOL0     O45361   7.289  10.033   7.941  0.0305 -0.0412  0.2611
  337MOL0     C45362   7.328  10.083   7.834  0.8350  0.8648  0.2151
  337MOL0     O45363   7.343  10.014   7.715 -0.0993  0.0993  0.4948
  337MOL0     C45364   7.305   9.886   7.710  0.5329 -0.4140  0.3356
  337MOL0     C45365   7.175   9.842   7.737 -0.9673 -0.3497  0.7740
  337MOL0     C45366   7.141   9.706   7.702  0.1368  0.2232  0.3806
  337MOL0     C45367   7.230   9.617   7.653 -1.1091 -0.2542  0.3036
  337MOL0     O45368   7.183   9.488   7.636 -0.5377  0.8631  0.5187
  337MOL0     C45369   7.261   9.384   7.561  0.9179 -0.1212  0.2196
  337MOL0     C45370   7.195   9.249   7.596  0.2959  0.1346 -0.9168
  337MOL0     C45371   7.285   9.124   7.550 -0.8180 -0.5425  0.8345
  337MOL0     C45372   7.253   8.986   7.622 -0.4525  1.7805  0.8729
  337MOL0     C45373   7.329   8.869   7.541  0.0497  1.1535  0.5423
  337MOL0     C45374   7.354   8.741   7.620  0.4677  0.5537 -0.0582
  337MOL0     C45375   7.231   8.674   7.688  0.2175  0.2618  0.5560
  337MOL0     C45376   7.273   8.530   7.741  0.1529  0.1336  0.2212
  337MOL0     N45377   7.164   8.478   7.813 -0.0794 -0.7188  0.6885
  337MOL0     C45378   7.039   8.442   7.763 -0.4204  0.6434  0.8026
  337MOL0     C45379   6.980   8.404   7.881 -0.1186  0.4688  0.5857
  337MOL0     C45380   6.848   8.369   7.925 -1.4837 -0.2508 -0.0989
  337MOL0     C45381   6.811   8.229   7.897  0.1408 -0.1491 -0.2394
  337MOL0     C45382   6.674   8.183   7.952 -0.8606  0.3210  0.6021
  337MOL0     C45383   6.694   8.092   8.074 -0.1548  1.2389  0.0638
  337MOL0     O45384   6.575   8.036   8.127 -0.2398  0.1799  0.4233
  337MOL0     C45385   6.591   7.937   8.223  0.4108 -0.4758 -0.7511
  337MOL0     C45386   6.709   7.880   8.278 -0.7950  0.4478 -0.3402
  337MOL0     C45387   6.706   7.782   8.382  0.0598  0.2233  0.1976
  337MOL0     C45388   6.841   7.717   8.417  0.6845 -1.3388 -0.1559
  337MOL0     C45389   6.581   7.736   8.438 -0.1790 -0.7940  1.0335
  337MOL0     C45390   6.564   7.627   8.537 -0.1850 -0.2085  0.0129
  337MOL0     O45391   6.678   7.549   8.565  0.4475  0.8702 -0.4540
  337MOL0     C45392   6.651   7.473   8.674  0.5030  0.2121 -0.0499
  337MOL0     C45393   6.693   7.525   8.797 -0.3492  0.1094  0.1966
  337MOL0     C45394   6.670   7.443   8.917  0.8765  0.0500 -0.8225
  337MOL0     C45395   6.626   7.304   8.902  0.1191 -0.1858 -0.3074
  337MOL0     O45396   6.607   7.235   9.019 -0.0670 -0.2022 -0.5855
  337MOL0     C45397   6.473   7.183   9.048 -0.1853  0.5410  0.4286
  337MOL0     C45398   6.471   7.112   9.185 -0.2419 -1.3286 -0.1054
  337MOL0     C45399   6.333   7.061   9.226  0.3221 -0.1312  0.3246
  337MOL0     C45400   6.346   6.971   9.362 -0.0196  1.0558 -0.3298
  337MOL0     C45401   6.213   6.908   9.408  0.4310 -0.6935  0.0850
  337MOL0     C45402   6.149   6.803   9.314 -0.0567 -1.4068 -0.0530
  337MOL0     C45403   6.030   6.735   9.387  0.3020 -0.7079  0.0838
  337MOL0     C45404   6.069   6.625   9.492 -0.5758 -0.1500  0.0162
  337MOL0    Cl45405   6.155   6.482   9.410 -0.5047  0.7904 -0.3253
  337MOL0     C45406   6.590   7.264   8.775 -0.6971 -0.5937  0.4604
  337MOL0     C45407   6.597   7.346   8.664  0.2682 -0.1822 -0.3446
  337MOL0     O45408   6.449   7.611   8.580  0.4140  0.3271  0.3020
  337MOL0     C45409   6.469   7.792   8.387  0.3544 -0.1759  0.0402
  337MOL0     C45410   6.475   7.887   8.281  0.1064 -0.1955  0.7908
  337MOL0     N45411   7.071   8.413   7.988 -0.6149 -0.5505 -0.1557
  337MOL0     N45412   7.175   8.462   7.944 -0.0330 -0.7288  0.4520
  337MOL0     C45413   7.364   9.666   7.630 -0.1554  0.3969  1.0681
  337MOL0     C45414   7.402   9.793   7.668 -0.5314 -0.1802 -0.1354
  337MOL0     C45415   7.350  10.232   7.831  0.7240 -0.1904 -0.5683
  337MOL0     C45416   7.342  10.316   7.946 -0.2893  0.3019  0.5555
  337MOL0     C45417   7.377  10.451   7.945  0.9228 -0.2834  0.2430
  337MOL0     C45418   7.434  10.512   7.834 -1.2719  0.0984 -0.6242
  337MOL0     O45419   7.484  10.642   7.842 -0.3653  0.6199 -1.0734
  337MOL0     C45420   7.546  10.711   7.734  0.2790  0.2003 -0.2540
  337MOL0     C45421   7.698  10.713   7.747 -1.1367  0.2510 -0.3540
  337MOL0     C45422   7.767  10.697   7.613 -0.0005  1.0517  0.1804
  337MOL0     C45423   7.913  10.735   7.611 -0.0045  0.1565 -0.9745
  337MOL0     C45424   8.009  10.645   7.680 -0.9869 -0.3103 -0.7853
  337MOL0     C45425   8.089  10.586   7.748  0.3621 -0.3459 -0.1217
  337MOL0     C45426   7.442  10.434   7.717  0.1515 -0.1471 -0.3635
  337MOL0     C45427   7.407  10.300   7.714  0.2891 -0.0912 -0.3506
  337MOL0     H45428   7.109   9.923   7.765  0.3215  0.8678  0.3698
  337MOL0     H45429   7.041   9.668   7.714 -0.8533  2.1336 -1.1923
  337MOL0     H45430   7.279   9.402   7.454  1.2767  1.4795  0.5223
  337MOL0     H45431   7.360   9.386   7.607  0.8182  2.1565  0.4348
  337MOL0     H45432   7.187   9.236   7.705 -1.4890  2.1302 -0.7454
  337MOL0     H45433   7.096   9.250   7.550 -0.6840 -0.4516  1.0557
  337MOL0     H45434   7.282   9.121   7.441  2.5078  1.3269  0.5365
  337MOL0     H45435   7.389   9.156   7.565 -0.9794  0.7970 -0.6711
  337MOL0     H45436   7.294   8.980   7.723 -0.8766 -1.3255  0.9293
  337MOL0     H45437   7.147   8.962   7.617  0.4928 -3.2523 -0.1811
  337MOL0     H45438   7.270   8.840   7.453  1.3834  1.1535 -0.3857
  337MOL0     H45439   7.432   8.904   7.528 -0.8096  3.4756 -0.5233
  337MOL0     H45440   7.398   8.665   7.556  1.2014  0.8133  0.1268
  337MOL0     H45441   7.413   8.767   7.709 -2.0211 -1.8160  2.5005
  337MOL0     H45442   7.200   8.737   7.772 -0.3385  0.4020  0.2488
  337MOL0     H45443   7.150   8.676   7.615 -1.6865 -1.3285  2.4913
  337MOL0     H45444   7.362   8.548   7.802  0.6545 -0.4501 -0.3203
  337MOL0     H45445   7.304   8.454   7.669 -0.0346 -0.0553  0.3395
  337MOL0     H45446   6.995   8.450   7.664  1.9812  2.7903 -0.1947
  337MOL0     H45447   6.842   8.394   8.031 -0.1987 -2.7083  0.6289
  337MOL0     H45448   6.779   8.437   7.873  0.9153  4.0817  1.8103
  337MOL0     H45449   6.882   8.158   7.940 -1.4624 -2.2680 -0.9189
  337MOL0     H45450   6.804   8.200   7.792 -1.3013 -0.8753  0.0397
  337MOL0     H45451   6.628   8.127   7.870 -0.2132  2.9325 -1.6594
  337MOL0     H45452   6.606   8.265   7.974 -2.4351 -0.4434 -1.1291
  337MOL0     H45453   6.740   8.157   8.149 -0.9591  0.0942  1.5888
  337MOL0     H45454   6.755   8.005   8.051 -2.1501 -1.2243  3.3207
  337MOL0     H45455   6.803   7.911   8.234 -1.6188  2.4154 -0.8243
  337MOL0     H45456   6.925   7.781   8.386 -0.7540  1.5928  1.5626
  337MOL0     H45457   6.843   7.713   8.526  1.5258 -2.6443 -0.2012
  337MOL0     H45458   6.855   7.615   8.380  1.8379 -0.3907 -2.5843
  337MOL0     H45459   6.730   7.626   8.810  0.4861 -0.5106  3.4818
  337MOL0     H45460   6.705   7.490   9.009 -0.8833  0.1990 -0.1937
  337MOL0     H45461   6.403   7.266   9.041 -0.4543  0.1968 -1.9326
  337MOL0     H45462   6.430   7.117   8.971 -1.8465 -0.6004  2.2337
  337MOL0     H45463   6.553   7.040   9.188  0.7871 -0.2686 -1.3664
  337MOL0     H45464   6.502   7.185   9.261  2.2154 -1.9661 -0.4054
  337MOL0     H45465   6.322   6.983   9.150 -0.7826  1.8393 -1.6098
  337MOL0     H45466   6.247   7.128   9.222 -1.8391 -2.7431  0.2048
  337MOL0     H45467   6.423   6.894   9.355 -0.7467  0.2888  0.1056
  337MOL0     H45468   6.378   7.036   9.444  0.9680 -1.5282  1.4552
  337MOL0     H45469   6.150   6.996   9.427  3.9047  1.9458  0.3951
  337MOL0     H45470   6.249   6.854   9.496 -1.0377 -1.8085  0.0553
  337MOL0     H45471   6.121   6.855   9.222  1.7404 -4.1154 -2.3126
  337MOL0     H45472   6.222   6.730   9.279 -0.8471 -1.4467 -1.7011
  337MOL0     H45473   5.960   6.687   9.318  1.1042  1.3632 -2.3151
  337MOL0     H45474   5.976   6.815   9.439  1.9223  0.8614 -0.5212
  337MOL0     H45475   5.981   6.594   9.549  1.5343 -1.6457  2.7111
  337MOL0     H45476   6.137   6.672   9.564  0.2387  1.0139 -1.4389
  337MOL0     H45477   6.550   7.164   8.757 -0.7359 -0.7367  1.2960
  337MOL0     H45478   6.553   7.310   8.572 -2.3038 -2.1074  1.4630
  337MOL0     H45479   6.369   7.769   8.423 -0.5403  2.0556 -0.8714
  337MOL0     H45480   6.386   7.934   8.240 -0.2189 -2.3121 -1.1712
  337MOL0     H45481   7.435   9.607   7.572 -0.2881  2.2188 -1.0549
  337MOL0     H45482   7.508   9.813   7.661  0.3538 -3.1590  2.4180
  337MOL0     H45483   7.311  10.279   8.043  2.4382 -1.5826  0.7948
  337MOL0     H45484   7.360  10.506   8.037  2.9743 -1.1072  1.1888
  337MOL0     H45485   7.522  10.681   7.631  0.8442  1.2461 -0.7124
  337MOL0     H45486   7.517  10.813   7.760  0.9319 -0.4105  3.3330
  337MOL0     H45487   7.721  10.624   7.805  2.6685  1.0124 -0.4489
  337MOL0     H45488   7.742  10.804   7.789  0.3802  0.0597 -1.4395
  337MOL0     H45489   7.725  10.773   7.546  2.0807  2.9009  0.8248
  337MOL0     H45490   7.755  10.594   7.577  1.0016  1.0158 -0.0984
  337MOL0     H45491   7.915  10.833   7.659  0.9766  0.2460 -1.1864
  337MOL0     H45492   7.940  10.750   7.506 -1.6820  2.0804 -1.1924
  337MOL0     H45493   8.159  10.540   7.816 -0.5998 -0.0930  1.0650
  337MOL0     H45494   7.467  10.482   7.623  3.6643  0.2077  0.6269
  337MOL0     H45495   7.389  10.251   7.619 -4.0994  0.4905 -0.0397
  338MOL0     O45496   9.422   3.058   9.685 -0.7905  0.0659  0.1097
  338MOL0     C45497   9.422   2.939   9.706 -0.0267  0.3528  0.6263
  338MOL0     O45498   9.314   2.855   9.710 -0.1906 -0.3845 -0.3029
  338MOL0     C45499   9.200   2.893   9.638  0.2618  0.0219  0.2992
  338MOL0     C45500   9.200   2.905   9.496  0.9228 -0.6371  0.0618
  338MOL0     C45501   9.078   2.947   9.448 -0.0580 -0.7010  0.7898
  338MOL0     C45502   8.960   2.985   9.518 -0.9066  0.2223  0.8325
  338MOL0     O45503   8.832   3.010   9.469 -0.2677 -0.3637  0.0654
  338MOL0     C45504   8.817   3.102   9.357  0.8487  0.7987 -0.7819
  338MOL0     C45505   8.808   3.247   9.416  0.2164 -0.1200 -0.1210
  338MOL0     C45506   8.806   3.329   9.294  0.6087  0.2270  0.8042
  338MOL0     C45507   8.781   3.482   9.326 -0.2301  0.3788  0.0072
  338MOL0     C45508   8.920   3.538   9.356 -0.2007  0.3665  0.0448
  338MOL0     C45509   8.931   3.692   9.347  0.9074 -0.1412 -0.0075
  338MOL0     C45510   9.062   3.739   9.410  0.3169 -0.5114  0.1958
  338MOL0     C45511   9.195   3.681   9.351 -0.3284  0.3308  0.1425
  338MOL0     N45512   9.204   3.712   9.205  0.3266  0.8645 -0.6633
  338MOL0     C45513   9.194   3.843   9.163 -0.8513 -0.2622  0.8754
  338MOL0     C45514   9.181   3.825   9.023 -0.4262 -0.3249 -1.1614
  338MOL0     C45515   9.168   3.929   8.920 -0.1700  0.0147  0.2943
  338MOL0     C45516   9.272   3.909   8.805  1.1524  0.5512 -0.4669
  338MOL0     C45517   9.265   4.021   8.695  0.0402  0.6565  0.2965
  338MOL0     C45518   9.390   4.038   8.619  0.3255  0.7051  0.4070
  338MOL0     O45519   9.492   4.084   8.703  0.1626  0.1271 -0.1839
  338MOL0     C45520   9.622   4.070   8.662  0.8051  0.2618 -0.2711
  338MOL0     C45521   9.679   4.018   8.542 -0.7230  0.1414 -0.9163
  338MOL0     C45522   9.817   4.011   8.526 -0.1152  0.5982 -0.2788
  338MOL0     C45523   9.857   3.926   8.417 -0.8214 -1.1071  0.5856
  338MOL0     C45524   9.900   4.062   8.626 -0.2460 -0.2949  0.3601
  338MOL0     C45525  10.050   4.043   8.640 -0.1048  0.3575  0.2156
  338MOL0     O45526  10.115   4.145   8.690 -0.6671 -0.3547 -0.1569
  338MOL0     C45527  10.249   4.156   8.672  0.4674  0.6257  0.5100
  338MOL0     C45528  10.303   4.170   8.545  0.7827 -0.6658  0.0345
  338MOL0     C45529  10.444   4.191   8.531  1.6638 -0.8785 -0.2190
  338MOL0     C45530  10.528   4.213   8.646  0.7216 -0.1462  0.2551
  338MOL0     O45531  10.663   4.229   8.630  0.5409  0.4547  0.6424
  338MOL0     C45532  10.718   4.229   8.503  0.4719  0.0250  0.0646
  338MOL0     C45533  10.868   4.233   8.522 -0.6279  0.2366  0.4589
  338MOL0     C45534  10.954   4.195   8.393  0.3903  0.0008  0.5634
  338MOL0     C45535  11.099   4.242   8.422  0.2119  0.0163 -0.3500
  338MOL0     C45536  11.192   4.212   8.306 -0.6869  0.9914  0.0975
  338MOL0     C45537  11.333   4.274   8.334  0.9317  0.4165 -0.3290
  338MOL0     C45538  11.393   4.237   8.477 -0.4090  0.1096  0.6713
  338MOL0     C45539  11.545   4.236   8.469  0.0640  0.6692 -0.5769
  338MOL0    Cl45540  11.595   4.406   8.518 -0.0218 -0.3042  0.1330
  338MOL0     C45541  10.465   4.203   8.773  0.0757 -0.3093  0.3672
  338MOL0     C45542  10.327   4.180   8.791 -0.1280  0.9177 -0.0209
  338MOL0     O45543  10.099   3.945   8.588  0.1427  0.9810 -0.4726
  338MOL0     C45544   9.841   4.140   8.726 -0.2932  0.6736 -1.2564
  338MOL0     C45545   9.706   4.138   8.748 -0.7441 -0.4854 -0.4966
  338MOL0     N45546   9.173   3.693   8.994  0.5120 -0.4008  0.4712
  338MOL0     N45547   9.189   3.626   9.102 -0.0956  0.3126  0.1998
  338MOL0     C45548   8.962   2.963   9.659 -0.0628  0.0912 -0.2010
  338MOL0     C45549   9.081   2.902   9.710 -0.0854  0.7401 -0.4759
  338MOL0     C45550   9.547   2.894   9.759  0.1580 -0.4280 -0.5407
  338MOL0     C45551   9.553   2.794   9.865  0.8375 -0.3355 -0.1085
  338MOL0     C45552   9.667   2.760   9.934 -0.4020  0.1181 -0.3944
  338MOL0     C45553   9.782   2.825   9.900  0.2091  0.0498  0.5595
  338MOL0     O45554   9.902   2.802   9.960 -0.2629 -0.2018  1.1056
  338MOL0     C45555   9.900   2.714  10.068  0.3953  0.0061 -0.2237
  338MOL0     C45556  10.041   2.703  10.121 -0.2084  0.5612 -0.1556
  338MOL0     C45557  10.126   2.830  10.112  0.5313 -0.0033  0.2616
  338MOL0     C45558  10.251   2.820  10.195  0.4489  0.5474  0.4880
  338MOL0     C45559  10.358   2.734  10.135 -0.4069 -0.7249  0.5410
  338MOL0     C45560  10.445   2.662  10.098  0.1148 -0.6664 -0.0743
  338MOL0     C45561   9.782   2.928   9.802 -0.0774 -1.0485  0.3149
  338MOL0     C45562   9.666   2.956   9.728  0.1201  0.2726  0.4762
  338MOL0     H45563   9.290   2.900   9.436  2.0144 -0.2798  1.6171
  338MOL0     H45564   9.069   2.961   9.341  0.9330 -1.7854  0.5414
  338MOL0     H45565   8.905   3.104   9.292  2.1644  2.2211  0.9278
  338MOL0     H45566   8.727   3.079   9.300  0.2493  0.9004  0.1128
  338MOL0     H45567   8.708   3.264   9.456 -1.7400 -3.0349 -3.2133
  338MOL0     H45568   8.886   3.284   9.483 -2.1534  1.3480  2.0411
  338MOL0     H45569   8.898   3.310   9.238 -0.3036 -0.9577 -0.3506
  338MOL0     H45570   8.733   3.298   9.219  3.9990 -0.1188 -2.6509
  338MOL0     H45571   8.751   3.530   9.232  1.0357 -1.8992 -1.6594
  338MOL0     H45572   8.707   3.494   9.406  0.8492 -3.8430  1.9444
  338MOL0     H45573   8.948   3.506   9.457 -1.2882  0.2561  0.3346
  338MOL0     H45574   9.006   3.497   9.302  0.2107  0.8469  0.3271
  338MOL0     H45575   8.917   3.729   9.245  3.3856 -0.8228 -0.6589
  338MOL0     H45576   8.845   3.720   9.409  0.5433 -1.3621  0.0713
  338MOL0     H45577   9.065   3.848   9.400  0.2738 -0.2687  2.3607
  338MOL0     H45578   9.046   3.723   9.517 -2.2953 -1.8685 -0.2923
  338MOL0     H45579   9.203   3.575   9.373  1.5691  0.7688  1.9040
  338MOL0     H45580   9.275   3.730   9.408 -1.9751  3.8026 -0.2477
  338MOL0     H45581   9.218   3.937   9.213 -2.0590 -0.5041  1.9550
  338MOL0     H45582   9.068   3.923   8.875 -1.1727 -0.0952  2.4435
  338MOL0     H45583   9.186   4.028   8.963  1.0575 -0.1565  0.2234
  338MOL0     H45584   9.272   3.808   8.763  1.8880  0.4148 -0.1559
  338MOL0     H45585   9.367   3.923   8.857 -0.0536  1.0297  1.7712
  338MOL0     H45586   9.244   4.113   8.750 -0.2879 -0.1733  1.6166
  338MOL0     H45587   9.188   4.018   8.617  1.3573 -1.1906 -1.0374
  338MOL0     H45588   9.379   4.104   8.533  2.3008  4.4061  2.7072
  338MOL0     H45589   9.425   3.946   8.572  1.6449  1.4328 -0.1142
  338MOL0     H45590   9.621   3.967   8.465 -0.5288 -1.3602 -0.0979
  338MOL0     H45591   9.911   3.838   8.454 -3.2075 -1.8001  2.6817
  338MOL0     H45592   9.782   3.888   8.347  0.8034 -1.0376 -1.2866
  338MOL0     H45593   9.924   3.989   8.357 -1.6177 -1.5121 -0.7762
  338MOL0     H45594  10.235   4.171   8.460 -1.0045  2.1023  1.3447
  338MOL0     H45595  10.477   4.209   8.429  0.8562  1.3903 -0.1340
  338MOL0     H45596  10.692   4.136   8.451  1.3126 -0.8855  1.1991
  338MOL0     H45597  10.690   4.321   8.451  0.7674  1.5993  2.4985
  338MOL0     H45598  10.899   4.332   8.557  2.4920 -0.4959  0.1213
  338MOL0     H45599  10.900   4.164   8.601  1.0687  3.8682  3.2601
  338MOL0     H45600  10.924   4.253   8.306  1.9555 -0.4590 -0.3213
  338MOL0     H45601  10.953   4.087   8.377 -2.8474  0.0938 -0.3694
  338MOL0     H45602  11.091   4.349   8.440  0.0733  0.0621 -0.6779
  338MOL0     H45603  11.140   4.184   8.505  4.5474  2.7824 -0.2902
  338MOL0     H45604  11.157   4.264   8.216 -0.3331  3.2021  1.1996
  338MOL0     H45605  11.214   4.107   8.283  1.6048  1.2104  1.0529
  338MOL0     H45606  11.402   4.248   8.253 -0.3545 -1.7976 -0.8037
  338MOL0     H45607  11.309   4.380   8.341 -1.6212 -0.2034  1.6073
  338MOL0     H45608  11.359   4.139   8.513  1.4869 -0.9048 -0.1368
  338MOL0     H45609  11.360   4.316   8.545 -1.5988  1.4799 -1.3978
  338MOL0     H45610  11.582   4.200   8.373  0.9541 -1.9108  0.6585
  338MOL0     H45611  11.592   4.165   8.537 -0.9033  0.0284 -0.5647
  338MOL0     H45612  10.527   4.198   8.862  0.3485 -2.7772  0.1162
  338MOL0     H45613  10.279   4.157   8.886 -0.7046 -2.5756 -1.0017
  338MOL0     H45614   9.898   4.190   8.803 -2.4233 -0.2380  1.0390
  338MOL0     H45615   9.666   4.178   8.841  0.4601  1.3347 -0.7035
  338MOL0     H45616   8.869   2.964   9.715 -0.5296 -0.3724 -0.9576
  338MOL0     H45617   9.092   2.870   9.813 -2.0038 -0.5953 -0.6375
  338MOL0     H45618   9.461   2.746   9.896  1.0447  1.0451  3.0287
  338MOL0     H45619   9.665   2.682  10.010  1.5040 -0.8479 -1.2531
  338MOL0     H45620   9.838   2.761  10.145 -1.9246  0.5252 -2.2891
  338MOL0     H45621   9.865   2.613  10.046 -0.2032 -0.5441  2.7178
  338MOL0     H45622  10.096   2.624  10.070 -1.3286 -0.2953 -0.0824
  338MOL0     H45623  10.035   2.667  10.224 -0.4530 -0.4028 -0.4995
  338MOL0     H45624  10.067   2.913  10.151 -4.9505 -2.0316 -2.6495
  338MOL0     H45625  10.151   2.849  10.007 -2.6346 -1.7815 -0.9411
  338MOL0     H45626  10.228   2.796  10.299 -0.2676  1.8811  0.6613
  338MOL0     H45627  10.282   2.925  10.202  0.9466  0.5359 -1.0430
  338MOL0     H45628  10.525   2.592  10.084  1.0075  0.1977  0.5868
  338MOL0     H45629   9.873   2.981   9.778  0.0772 -1.1383  0.7037
  338MOL0     H45630   9.661   3.037   9.656  0.8965  1.1570  1.3838
  339MOL0     O45631   5.523   9.237   6.580 -0.0946  0.0748 -0.9872
  339MOL0     C45632   5.413   9.296   6.566  0.0218  0.6711 -0.1291
  339MOL0     O45633   5.388   9.427   6.531  0.2403  0.0550  0.9523
  339MOL0     C45634   5.495   9.492   6.469  0.1023  0.2230  0.0408
  339MOL0     C45635   5.584   9.430   6.374 -0.5307 -0.1321  0.6512
  339MOL0     C45636   5.701   9.499   6.342 -0.5596 -0.6306 -0.1055
  339MOL0     C45637   5.720   9.630   6.394  1.0032 -0.4441  0.4767
  339MOL0     O45638   5.833   9.705   6.370 -0.3947 -0.3628  0.5818
  339MOL0     C45639   5.933   9.721   6.475 -0.0409 -1.4838 -0.0460
  339MOL0     C45640   6.036   9.837   6.457 -0.2692 -0.2424 -0.0673
  339MOL0     C45641   6.118   9.830   6.334 -0.3646  0.0524  0.8238
  339MOL0     C45642   6.222   9.950   6.337  0.4481  0.0442 -0.4190
  339MOL0     C45643   6.332   9.939   6.228  0.4483  0.6418 -0.0185
  339MOL0     C45644   6.276   9.899   6.090  0.5113  0.0434  0.6975
  339MOL0     C45645   6.396   9.868   5.999  0.6370  0.0494  0.1280
  339MOL0     C45646   6.355   9.803   5.870  0.4325 -0.4433  0.3439
  339MOL0     N45647   6.254   9.888   5.806  0.6264 -0.3554  0.5112
  339MOL0     C45648   6.124   9.850   5.772 -0.6757 -0.3317  0.6691
  339MOL0     C45649   6.076   9.961   5.713 -0.5996 -0.0436  0.4973
  339MOL0     C45650   5.931   9.974   5.668  0.6244 -1.2519 -0.2379
  339MOL0     C45651   5.828   9.981   5.778 -0.8373 -0.8656  0.0010
  339MOL0     C45652   5.686  10.008   5.718  0.4309  0.0804 -0.0272
  339MOL0     C45653   5.579  10.029   5.815 -0.2549 -0.0054 -0.6262
  339MOL0     O45654   5.452  10.015   5.749  0.3427 -0.9537 -0.5247
  339MOL0     C45655   5.347  10.028   5.834  0.7078  0.0837 -0.9576
  339MOL0     C45656   5.233   9.957   5.797  0.3424  0.1399 -0.2650
  339MOL0     C45657   5.126   9.934   5.885  0.5794  0.0704  0.4618
  339MOL0     C45658   5.025   9.837   5.839 -0.6923 -0.3578 -0.4057
  339MOL0     C45659   5.128   9.992   6.020 -0.2675 -1.2762  0.4817
  339MOL0     C45660   5.018   9.985   6.121  0.1180 -0.3097  0.0897
  339MOL0     O45661   4.931   9.891   6.108  0.8154  0.7368 -0.6494
  339MOL0     C45662   4.838   9.874   6.208  0.4452 -0.0156  0.4032
  339MOL0     C45663   4.848   9.757   6.277 -0.3967 -0.2750 -0.3372
  339MOL0     C45664   4.748   9.739   6.375  0.0140 -0.0916 -0.2279
  339MOL0     C45665   4.647   9.826   6.411  0.5825  0.3434  0.6769
  339MOL0     O45666   4.546   9.791   6.495  0.3055 -0.0471 -0.4453
  339MOL0     C45667   4.528   9.862   6.619 -0.1770  0.5928  0.0285
  339MOL0     C45668   4.471   9.769   6.727 -1.0422 -0.6712 -0.1456
  339MOL0     C45669   4.341   9.710   6.691 -0.8792 -0.4103 -0.3062
  339MOL0     C45670   4.253   9.652   6.804 -0.1384 -0.3977  0.5561
  339MOL0     C45671   4.102   9.635   6.754 -1.2269 -0.8870 -0.6535
  339MOL0     C45672   4.066   9.503   6.710 -0.5244  0.2723 -0.9530
  339MOL0     C45673   3.933   9.495   6.642 -0.1995 -0.7070 -0.7926
  339MOL0     C45674   3.881   9.357   6.624  0.1083 -0.2375 -0.6721
  339MOL0    Cl45675   3.982   9.277   6.510  0.1828 -0.3138  0.4761
  339MOL0     C45676   4.642   9.938   6.320  0.4078  1.2163 -0.9519
  339MOL0     C45677   4.727   9.965   6.220 -1.2364 -0.7863 -0.3762
  339MOL0     O45678   5.000  10.091   6.194  0.0591 -0.2631 -0.0833
  339MOL0     C45679   5.238  10.082   6.039  0.4732  0.4958 -0.5847
  339MOL0     C45680   5.351  10.087   5.960 -0.2143  0.1510 -0.3237
  339MOL0     N45681   6.175  10.058   5.700  1.0016 -0.2827  0.2155
  339MOL0     N45682   6.278  10.010   5.751 -0.5967 -0.2070  0.5698
  339MOL0     C45683   5.627   9.689   6.483 -0.1645 -0.2927  0.5920
  339MOL0     C45684   5.519   9.618   6.520  0.4036 -0.3862 -0.0954
  339MOL0     C45685   5.292   9.204   6.590 -1.1223 -0.3574 -0.0406
  339MOL0     C45686   5.297   9.116   6.695  0.3298  0.2563  0.4386
  339MOL0     C45687   5.184   9.031   6.725  0.2303 -0.1162 -0.0793
  339MOL0     C45688   5.069   9.056   6.653 -0.0392 -0.1114 -0.1234
  339MOL0     O45689   4.958   8.987   6.694 -0.1609  0.1404  0.2377
  339MOL0     C45690   4.825   8.999   6.630  0.3615 -0.5437 -0.2701
  339MOL0     C45691   4.753   8.869   6.665  0.4123  0.0542 -0.9302
  339MOL0     C45692   4.706   8.845   6.812 -0.1827  0.1065  0.5068
  339MOL0     C45693   4.648   8.708   6.828  0.1825 -0.2370 -0.0706
  339MOL0     C45694   4.582   8.698   6.961  0.4685  0.3499  0.0082
  339MOL0     C45695   4.526   8.676   7.064 -0.4317  0.4933 -0.1479
  339MOL0     C45696   5.057   9.153   6.551  0.1120 -0.1037  0.5866
  339MOL0     C45697   5.173   9.219   6.518  0.2394 -0.2156  0.1377
  339MOL0     H45698   5.576   9.327   6.341  2.7570 -0.7950  1.5320
  339MOL0     H45699   5.785   9.459   6.286  1.5974  1.8464  1.1404
  339MOL0     H45700   5.890   9.749   6.572 -0.0980 -1.5160 -0.0617
  339MOL0     H45701   5.986   9.627   6.494  1.4865 -0.5319  0.5958
  339MOL0     H45702   5.974   9.925   6.439 -1.6743 -1.4114 -1.2998
  339MOL0     H45703   6.103   9.837   6.543  1.9963  1.8207 -1.6893
  339MOL0     H45704   6.170   9.734   6.331 -0.4111  0.0270  0.8230
  339MOL0     H45705   6.061   9.835   6.241 -1.3396  1.2471  1.4411
  339MOL0     H45706   6.176  10.049   6.333  0.9698  0.3758  0.9739
  339MOL0     H45707   6.273   9.946   6.434  0.4423  1.4049 -0.3388
  339MOL0     H45708   6.385  10.035   6.229 -1.2066  1.5926  1.1651
  339MOL0     H45709   6.404   9.861   6.255 -0.3632 -0.8699 -1.9891
  339MOL0     H45710   6.205   9.816   6.093 -0.9752  1.1840 -0.8931
  339MOL0     H45711   6.218   9.985   6.056  0.5225 -1.2607 -3.0706
  339MOL0     H45712   6.460   9.956   5.990  0.7273  0.2874  2.4286
  339MOL0     H45713   6.467   9.803   6.051  0.3346  1.6612  2.7526
  339MOL0     H45714   6.314   9.706   5.897 -2.4873  0.8016  0.7276
  339MOL0     H45715   6.440   9.791   5.801  1.0009  1.9751  0.5076
  339MOL0     H45716   6.073   9.756   5.790 -0.7540 -0.8490 -1.8745
  339MOL0     H45717   5.919  10.064   5.607  0.6938 -2.5149 -2.2218
  339MOL0     H45718   5.917   9.889   5.600  1.4762 -1.1093 -0.6159
  339MOL0     H45719   5.858  10.066   5.840  1.0138 -1.5306  0.0742
  339MOL0     H45720   5.830   9.888   5.836 -0.9188 -0.7349  0.2141
  339MOL0     H45721   5.667   9.916   5.661 -0.7566 -1.1520  2.2264
  339MOL0     H45722   5.694  10.088   5.644  2.9598  0.5615  0.6597
  339MOL0     H45723   5.595  10.129   5.857 -0.3289  0.5979 -1.9766
  339MOL0     H45724   5.577   9.950   5.891 -0.1111 -0.3074 -0.9308
  339MOL0     H45725   5.229   9.912   5.699  0.2016 -0.7101  0.1227
  339MOL0     H45726   4.922   9.857   5.868 -0.3642  2.0000 -0.6683
  339MOL0     H45727   5.021   9.846   5.730 -1.7321 -1.2834 -0.4595
  339MOL0     H45728   5.060   9.737   5.867 -0.3416  0.4116  2.1737
  339MOL0     H45729   4.936   9.698   6.257 -0.1649  0.6980 -2.5573
  339MOL0     H45730   4.747   9.650   6.437 -0.5410  0.3642  0.4354
  339MOL0     H45731   4.621   9.895   6.666 -1.3497 -0.7038  3.6689
  339MOL0     H45732   4.461   9.949   6.607 -0.6282  0.1361 -0.8759
  339MOL0     H45733   4.542   9.692   6.759 -1.2298 -0.2906  1.2425
  339MOL0     H45734   4.447   9.826   6.817  1.4727 -0.3743  0.4251
  339MOL0     H45735   4.372   9.620   6.636 -2.5795 -0.4220 -1.3239
  339MOL0     H45736   4.275   9.770   6.628 -1.3987 -0.7642 -0.1080
  339MOL0     H45737   4.289   9.552   6.829  0.8192 -0.2442 -0.1684
  339MOL0     H45738   4.257   9.712   6.895  0.3934  0.6649 -0.1432
  339MOL0     H45739   4.072   9.702   6.673 -2.2799  0.9268  1.1464
  339MOL0     H45740   4.037   9.661   6.838  0.5584  3.3990 -0.3240
  339MOL0     H45741   4.144   9.465   6.644 -0.0055 -2.6954  1.1717
  339MOL0     H45742   4.063   9.430   6.792 -2.0438  1.1788 -0.1527
  339MOL0     H45743   3.934   9.559   6.553 -4.2024  0.2880 -0.2952
  339MOL0     H45744   3.858   9.549   6.702  0.7917 -1.1990  0.9594
  339MOL0     H45745   3.778   9.358   6.586  0.3231  0.3889 -1.2378
  339MOL0     H45746   3.892   9.296   6.715 -0.1943  1.8051  0.8106
  339MOL0     H45747   4.554  10.001   6.330 -1.7405 -1.6658 -0.5828
  339MOL0     H45748   4.712  10.038   6.141  1.5894  0.3385  0.0109
  339MOL0     H45749   5.238  10.141   6.130 -3.6358  2.8268 -1.8516
  339MOL0     H45750   5.428  10.153   5.998 -0.9010  0.3684  0.7089
  339MOL0     H45751   5.641   9.791   6.517 -0.6947  0.4758 -1.3461
  339MOL0     H45752   5.442   9.648   6.590 -1.6284 -4.3429 -0.3813
  339MOL0     H45753   5.386   9.120   6.757  1.6089  1.1297 -1.3501
  339MOL0     H45754   5.187   8.955   6.802  1.5404  0.1568  0.1668
  339MOL0     H45755   4.775   9.091   6.663  1.4193  0.0082 -0.1683
  339MOL0     H45756   4.847   9.008   6.524  1.3538  4.0647  0.0931
  339MOL0     H45757   4.808   8.783   6.627  1.8621  1.2530 -1.6194
  339MOL0     H45758   4.659   8.880   6.611  0.6381  1.1202 -1.1304
  339MOL0     H45759   4.630   8.912   6.854  0.0836  0.4328  0.4622
  339MOL0     H45760   4.797   8.845   6.873 -0.9604 -0.3125  1.7070
  339MOL0     H45761   4.725   8.632   6.814  1.7816  1.4931 -1.0985
  339MOL0     H45762   4.578   8.697   6.744 -1.1033  0.2798  0.9017
  339MOL0     H45763   4.472   8.687   7.156  0.0323 -2.7501  0.6229
  339MOL0     H45764   4.967   9.172   6.492 -0.9362 -4.7428  0.2867
  339MOL0     H45765   5.169   9.302   6.448 -1.7186  1.6976  2.3510
  340MOL0     O45766   3.406   8.696   4.113 -0.2882  0.0924  0.2234
  340MOL0     C45767   3.358   8.633   4.016 -0.1879  1.5533  0.5655
  340MOL0     O45768   3.304   8.690   3.905  0.6370 -0.2577  0.9197
  340MOL0     C45769   3.275   8.824   3.896  0.0576 -0.4146 -0.4284
  340MOL0     C45770   3.206   8.899   4.000  0.1951  0.1446  0.0971
  340MOL0     C45771   3.178   9.034   3.985 -0.1003 -0.7025 -0.5936
  340MOL0     C45772   3.212   9.103   3.871  1.0203  0.1066 -0.4761
  340MOL0     O45773   3.185   9.230   3.848  0.3944 -0.1796  0.3365
  340MOL0     C45774   3.088   9.306   3.929  0.5998  0.0088  0.3902
  340MOL0     C45775   3.168   9.378   4.036  1.7188  0.7255  0.9667
  340MOL0     C45776   3.076   9.441   4.147 -0.3504 -0.4089 -0.4770
  340MOL0     C45777   3.168   9.489   4.270 -0.1514  0.3849  0.8255
  340MOL0     C45778   3.246   9.612   4.239 -0.0992 -1.1296  0.4066
  340MOL0     C45779   3.340   9.634   4.357  0.9665  0.7709 -0.0102
  340MOL0     C45780   3.418   9.755   4.328 -1.0342 -0.6858  0.1819
  340MOL0     C45781   3.536   9.781   4.426 -0.5278 -1.0570 -0.0144
  340MOL0     N45782   3.464   9.821   4.547  0.5452  0.0770 -0.3084
  340MOL0     C45783   3.428   9.953   4.572  0.2761 -0.0508  0.9275
  340MOL0     C45784   3.382   9.953   4.697  0.2988 -0.4738 -0.5141
  340MOL0     C45785   3.333  10.061   4.794 -0.2580  0.4274 -0.7276
  340MOL0     C45786   3.437  10.115   4.896 -0.2417  1.0684  0.0269
  340MOL0     C45787   3.454  10.009   5.003 -0.8776  1.4311  0.1816
  340MOL0     C45788   3.536  10.055   5.129 -1.1231 -0.8004  0.3042
  340MOL0     O45789   3.671  10.024   5.121  0.2986 -1.0216  0.0530
  340MOL0     C45790   3.760  10.097   5.196 -0.3007 -0.2106  0.1008
  340MOL0     C45791   3.867  10.157   5.129  0.3455  0.6103  0.2146
  340MOL0     C45792   3.961  10.246   5.188  0.3839 -0.3914 -0.3117
  340MOL0     C45793   4.088  10.290   5.120  0.1983 -0.0637 -1.0148
  340MOL0     C45794   3.934  10.277   5.322  0.6532 -0.0866  0.0760
  340MOL0     C45795   4.014  10.378   5.403  0.2848  0.4045  0.0404
  340MOL0     O45796   4.013  10.360   5.542  0.1785 -0.0359  0.3935
  340MOL0     C45797   4.070  10.443   5.631 -0.6909  0.0574  0.2803
  340MOL0     C45798   4.126  10.391   5.748 -0.2214  0.1843  0.2196
  340MOL0     C45799   4.192  10.478   5.835 -0.1714  0.3693 -0.2591
  340MOL0     C45800   4.200  10.616   5.823 -0.2211 -0.1995 -0.0989
  340MOL0     O45801   4.271  10.695   5.912 -0.3311 -0.4613 -0.3374
  340MOL0     C45802   4.400  10.644   5.957  0.0464 -0.2189  0.0425
  340MOL0     C45803   4.460  10.757   6.044 -0.1827 -0.4087 -0.0759
  340MOL0     C45804   4.597  10.798   5.985  0.4921 -0.7008  0.1862
  340MOL0     C45805   4.680  10.890   6.068 -0.2857  0.1515  0.1884
  340MOL0     C45806   4.809  10.933   5.997  1.1210 -0.7108  0.9028
  340MOL0     C45807   4.912  10.981   6.092 -0.0292 -0.6705  0.7370
  340MOL0     C45808   5.033  11.035   6.007 -0.7592 -0.0597 -0.2495
  340MOL0     C45809   5.013  11.177   5.946 -0.9253 -0.1211  0.0406
  340MOL0    Cl45810   5.156  11.242   5.860 -0.3591 -0.3087  0.2811
  340MOL0     C45811   4.143  10.667   5.709  0.7353 -0.8218  0.0995
  340MOL0     C45812   4.070  10.584   5.620 -0.4138 -0.4451  0.5576
  340MOL0     O45813   4.056  10.483   5.349  0.0139  0.1809 -0.2342
  340MOL0     C45814   3.824  10.226   5.386 -0.3064  1.1233  0.0827
  340MOL0     C45815   3.741  10.131   5.328 -0.1206  0.3384 -0.1008
  340MOL0     N45816   3.381   9.823   4.746 -0.0170 -0.4746  0.2678
  340MOL0     N45817   3.432   9.742   4.656 -0.5509  0.4365 -0.3552
  340MOL0     C45818   3.273   9.039   3.765 -0.4745  0.2905 -0.8034
  340MOL0     C45819   3.301   8.897   3.775 -0.4990 -0.0520 -0.7203
  340MOL0     C45820   3.349   8.483   4.005  0.2033 -0.1019  0.4935
  340MOL0     C45821   3.377   8.403   4.115 -0.3631 -0.4811  0.0927
  340MOL0     C45822   3.348   8.262   4.111 -0.2047  1.2442  0.1704
  340MOL0     C45823   3.292   8.202   3.998  0.4427 -0.4187  0.6884
  340MOL0     O45824   3.276   8.065   3.995 -1.7211 -0.1792  0.3346
  340MOL0     C45825   3.221   7.991   3.878  0.0190  0.1975  0.1174
  340MOL0     C45826   3.277   7.847   3.867 -1.1095  0.7487 -1.1143
  340MOL0     C45827   3.434   7.856   3.860  0.5916 -0.0520 -0.9314
  340MOL0     C45828   3.501   7.713   3.875  0.9317 -0.5872 -0.5398
  340MOL0     C45829   3.469   7.641   4.001 -0.9000 -0.3779  0.0525
  340MOL0     C45830   3.476   7.586   4.103 -0.0805  0.4863 -0.1628
  340MOL0     C45831   3.274   8.286   3.881 -0.4092  0.2492 -0.5742
  340MOL0     C45832   3.302   8.421   3.886 -0.5677 -0.0652  0.6562
  340MOL0     H45833   3.182   8.848   4.092 -0.1046  0.9090  0.4491
  340MOL0     H45834   3.118   9.084   4.060  0.4603  1.2822 -1.3749
  340MOL0     H45835   3.029   9.375   3.868  0.8906 -2.9073 -3.5210
  340MOL0     H45836   3.014   9.233   3.962  0.4888 -0.5079 -0.9467
  340MOL0     H45837   3.238   9.315   4.091  1.6852  1.2949  1.6838
  340MOL0     H45838   3.225   9.452   3.979  0.4038  1.3972  0.4732
  340MOL0     H45839   3.006   9.517   4.111 -0.9854 -0.1336  1.2453
  340MOL0     H45840   3.010   9.361   4.182 -1.5976  0.3563 -0.9985
  340MOL0     H45841   3.092   9.511   4.346  0.0949  0.6846  0.9905
  340MOL0     H45842   3.236   9.409   4.300  0.4579 -0.5365 -2.6111
  340MOL0     H45843   3.312   9.604   4.152 -2.9055 -1.9841 -1.8235
  340MOL0     H45844   3.170   9.688   4.219 -0.6758 -1.9232 -0.5125
  340MOL0     H45845   3.287   9.638   4.452 -1.3651  0.8067 -1.2490
  340MOL0     H45846   3.399   9.542   4.369 -1.5486 -0.8896  0.4531
  340MOL0     H45847   3.459   9.750   4.226 -3.1413  0.1172 -0.7706
  340MOL0     H45848   3.352   9.842   4.339  1.0701  0.8201  1.7336
  340MOL0     H45849   3.605   9.859   4.391 -0.5041  0.7369  3.5582
  340MOL0     H45850   3.599   9.692   4.439  1.1354  0.3919  3.1376
  340MOL0     H45851   3.448  10.045   4.517 -0.0116  1.3238  3.0204
  340MOL0     H45852   3.300  10.149   4.739 -0.3933  2.0060  1.7050
  340MOL0     H45853   3.251  10.019   4.854  0.7283  0.4954  0.7464
  340MOL0     H45854   3.399  10.212   4.928  2.6573  2.1598  0.5214
  340MOL0     H45855   3.539  10.126   4.857 -0.9001  0.9858 -1.7750
  340MOL0     H45856   3.507   9.926   4.954  0.8749  1.2231  2.2532
  340MOL0     H45857   3.362   9.961   5.037 -1.9426  2.6449 -0.8807
  340MOL0     H45858   3.503  10.008   5.222 -1.7103 -0.4509  0.2786
  340MOL0     H45859   3.523  10.162   5.142 -1.4248 -0.8038  0.0293
  340MOL0     H45860   3.890  10.124   5.028 -1.5651 -1.2944  0.3089
  340MOL0     H45861   4.063  10.314   5.017 -2.1245  3.6643  0.2208
  340MOL0     H45862   4.126  10.388   5.153 -1.4349  0.3854 -0.3945
  340MOL0     H45863   4.157  10.205   5.113 -2.3596 -2.1383 -2.3154
  340MOL0     H45864   4.142  10.284   5.759 -0.5184 -0.0536 -1.4640
  340MOL0     H45865   4.234  10.437   5.926  1.8666  1.7702 -0.5065
  340MOL0     H45866   4.391  10.549   6.011  0.4707  0.3984  1.2436
  340MOL0     H45867   4.468  10.622   5.874 -0.3776 -1.7801  0.0616
  340MOL0     H45868   4.398  10.847   6.055  2.6487  1.5015  1.6436
  340MOL0     H45869   4.479  10.726   6.148  0.8595 -0.0172 -0.1399
  340MOL0     H45870   4.572  10.856   5.896  0.0631  0.5083  1.0740
  340MOL0     H45871   4.648  10.708   5.951  1.2838  0.4399 -1.8150
  340MOL0     H45872   4.636  10.988   6.093  0.7337  0.3525  1.2818
  340MOL0     H45873   4.707  10.843   6.163  4.3127  1.9303  0.0038
  340MOL0     H45874   4.794  11.012   5.922  3.9277 -0.4862  0.4668
  340MOL0     H45875   4.855  10.851   5.942  1.3143  0.2770 -0.4920
  340MOL0     H45876   4.881  11.057   6.165  0.1159 -0.2738  0.3872
  340MOL0     H45877   4.945  10.896   6.152 -3.1370 -0.6743  2.6968
  340MOL0     H45878   5.055  10.957   5.933 -1.8850 -1.3435  0.7144
  340MOL0     H45879   5.120  11.029   6.072 -0.5977 -0.1092 -0.4669
  340MOL0     H45880   5.000  11.244   6.031 -0.9167 -3.1137  2.5714
  340MOL0     H45881   4.929  11.182   5.876 -0.2102 -1.9434 -1.0185
  340MOL0     H45882   4.159  10.773   5.697 -1.4155  0.6469  6.4657
  340MOL0     H45883   4.008  10.629   5.542 -2.7074  1.7683  3.4092
  340MOL0     H45884   3.797  10.259   5.485  0.4595  0.0841  0.6534
  340MOL0     H45885   3.650  10.106   5.382  0.1178  1.9130  1.0900
  340MOL0     H45886   3.285   9.092   3.672 -0.6529 -0.8614 -1.5080
  340MOL0     H45887   3.353   8.852   3.691  2.7348  0.3532  0.9123
  340MOL0     H45888   3.433   8.434   4.203 -1.5771 -2.1836  1.5562
  340MOL0     H45889   3.369   8.199   4.197  2.8579  2.8469  0.7293
  340MOL0     H45890   3.111   7.988   3.885  0.0214 -0.9776 -0.1636
  340MOL0     H45891   3.243   8.039   3.782  1.9715 -0.1595  0.3554
  340MOL0     H45892   3.243   7.796   3.776  1.4380 -0.0037 -1.7492
  340MOL0     H45893   3.239   7.793   3.954  0.0521  2.8619  0.8000
  340MOL0     H45894   3.474   7.916   3.942  0.1643 -1.1807  0.1367
  340MOL0     H45895   3.470   7.895   3.764 -1.7420 -0.7080 -2.1507
  340MOL0     H45896   3.607   7.738   3.864  1.2496  0.0677  2.7601
  340MOL0     H45897   3.459   7.650   3.797 -2.8134 -2.3388  2.5335
  340MOL0     H45898   3.471   7.515   4.183 -2.0455 -0.6813 -1.2486
  340MOL0     H45899   3.258   8.247   3.781  1.3801 -3.5990  0.4749
  340MOL0     H45900   3.288   8.481   3.796 -2.9008 -2.8095 -0.9612
  341MOL0     O45901   7.210   7.005   3.009 -0.6569  0.7655  0.2339
  341MOL0     C45902   7.297   6.920   2.989  0.7420  0.3469 -0.5050
  341MOL0     O45903   7.433   6.942   2.987 -0.3583 -0.9553 -0.6146
  341MOL0     C45904   7.499   7.061   3.020 -0.0772  0.3066  0.5058
  341MOL0     C45905   7.636   7.046   3.008  0.2453  0.6212  0.1453
  341MOL0     C45906   7.726   7.144   3.061  0.0184  0.6547  0.0371
  341MOL0     C45907   7.684   7.270   3.100  0.7453  0.2271  1.2312
  341MOL0     O45908   7.765   7.379   3.122  0.3683 -0.1825  0.4628
  341MOL0     C45909   7.909   7.377   3.106  0.0238 -0.1347  1.0731
  341MOL0     C45910   7.981   7.373   3.242 -0.5135  0.5952 -0.2664
  341MOL0     C45911   7.946   7.240   3.310 -0.0149  0.8120 -0.6409
  341MOL0     C45912   7.999   7.239   3.449  0.1190 -0.3275 -0.0168
  341MOL0     C45913   7.976   7.106   3.510  0.0324 -0.0141 -0.7950
  341MOL0     C45914   7.836   7.083   3.574 -1.1663 -0.4041 -0.2531
  341MOL0     C45915   7.805   6.943   3.625  1.3596  0.6046 -1.0753
  341MOL0     C45916   7.885   6.904   3.750  0.8693 -1.0817 -0.6129
  341MOL0     N45917   7.862   6.761   3.781 -0.0489 -0.2651 -0.0876
  341MOL0     C45918   7.754   6.696   3.841 -0.1451 -0.1970  0.0222
  341MOL0     C45919   7.791   6.568   3.860 -0.4155 -0.2251 -0.8520
  341MOL0     C45920   7.714   6.478   3.940  1.3773 -0.4332 -0.4629
  341MOL0     C45921   7.763   6.451   4.080  0.9935  0.0450 -0.2297
  341MOL0     C45922   7.903   6.395   4.088 -0.2654  0.6143 -0.1843
  341MOL0     C45923   7.925   6.267   4.013  0.3722  0.4712 -0.5156
  341MOL0     O45924   7.841   6.169   4.080 -0.0890 -0.6090  0.1356
  341MOL0     C45925   7.873   6.040   4.047 -1.2712 -0.3956 -0.0380
  341MOL0     C45926   7.852   5.941   4.137  0.4252  0.3311 -0.3377
  341MOL0     C45927   7.892   5.806   4.126 -0.7767 -0.3319  0.3246
  341MOL0     C45928   7.867   5.714   4.249  0.4866 -0.6861  0.1161
  341MOL0     C45929   7.953   5.767   4.005 -0.3007  0.4673 -0.0344
  341MOL0     C45930   8.005   5.623   3.987 -0.3891 -0.2941  0.6155
  341MOL0     O45931   7.994   5.533   4.089 -0.0366 -0.0649  0.4309
  341MOL0     C45932   8.008   5.397   4.065  0.1255  0.0329  0.2145
  341MOL0     C45933   7.951   5.325   3.957 -0.3253  0.0379 -0.0190
  341MOL0     C45934   7.966   5.189   3.942 -1.2047  0.3633 -0.4833
  341MOL0     C45935   8.030   5.115   4.039  0.0329  0.6687 -0.4109
  341MOL0     O45936   8.048   4.988   4.006 -0.1144  0.2690 -0.2753
  341MOL0     C45937   8.108   4.907   4.112  0.2624  0.9721  0.4845
  341MOL0     C45938   8.003   4.862   4.212  0.4911 -0.5797 -1.2234
  341MOL0     C45939   8.060   4.816   4.346 -0.5321 -0.1432 -0.5584
  341MOL0     C45940   7.949   4.772   4.451 -0.2721 -0.4649 -0.3031
  341MOL0     C45941   7.865   4.657   4.412  0.8552 -0.3305 -0.6497
  341MOL0     C45942   7.749   4.633   4.519 -0.5116  0.6154 -1.1391
  341MOL0     C45943   7.639   4.736   4.526  0.5178  0.0126  0.4443
  341MOL0     C45944   7.567   4.770   4.390  0.0513 -0.6036  0.9345
  341MOL0    Cl45945   7.480   4.623   4.333  0.4292  0.2684  0.6312
  341MOL0     C45946   8.074   5.186   4.160  0.0955  0.4012  0.0006
  341MOL0     C45947   8.062   5.326   4.168 -1.0585 -0.2369  0.0665
  341MOL0     O45948   8.065   5.606   3.881 -0.3518  0.5602 -0.1984
  341MOL0     C45949   7.987   5.869   3.910  0.7322  0.6468  0.0664
  341MOL0     C45950   7.937   6.002   3.924  0.1297  0.2644  0.8305
  341MOL0     N45951   7.915   6.545   3.799  0.0053 -1.3077 -0.0590
  341MOL0     N45952   7.953   6.665   3.762 -0.2961  0.4703 -0.0514
  341MOL0     C45953   7.544   7.285   3.097  0.0882  0.3154  0.4626
  341MOL0     C45954   7.449   7.189   3.061  0.5654  0.1083 -0.4139
  341MOL0     C45955   7.257   6.797   2.925  0.1551 -0.4349  0.8289
  341MOL0     C45956   7.357   6.708   2.890  0.1072  0.1501 -0.5069
  341MOL0     C45957   7.328   6.594   2.809  0.6077 -0.4248 -0.3943
  341MOL0     C45958   7.196   6.560   2.775  0.6225 -0.0664 -0.5955
  341MOL0     O45959   7.161   6.446   2.716  0.8024  0.1930 -0.1403
  341MOL0     C45960   7.265   6.370   2.648 -0.5202  0.1268 -0.9754
  341MOL0     C45961   7.210   6.234   2.591 -0.4214  0.0484 -0.1665
  341MOL0     C45962   7.181   6.144   2.710  0.0168  0.4407  0.1707
  341MOL0     C45963   7.170   6.006   2.646 -0.0264  0.6123  0.3676
  341MOL0     C45964   7.287   5.919   2.657 -0.9097  0.3758  0.0182
  341MOL0     C45965   7.372   5.843   2.699  0.0228  0.0219  0.5333
  341MOL0     C45966   7.092   6.642   2.830 -0.3805  0.4059 -0.2713
  341MOL0     C45967   7.124   6.760   2.891 -0.2485 -0.6985 -0.2506
  341MOL0     H45968   7.679   6.950   2.980 -0.9023 -0.0334  0.5681
  341MOL0     H45969   7.832   7.122   3.069 -0.7821 -3.8072  0.8432
  341MOL0     H45970   7.934   7.293   3.040 -1.2142  1.3036 -1.4009
  341MOL0     H45971   7.944   7.469   3.058 -1.1452  0.3335  1.0995
  341MOL0     H45972   8.085   7.378   3.208 -0.0166 -2.7528  0.4563
  341MOL0     H45973   7.958   7.463   3.300 -0.5047  1.1388 -1.0840
  341MOL0     H45974   7.837   7.246   3.319 -0.0369 -1.0257  0.9295
  341MOL0     H45975   7.980   7.153   3.252 -1.1055  1.3953 -2.2070
  341MOL0     H45976   8.108   7.250   3.445 -0.0112  0.9111 -0.8635
  341MOL0     H45977   7.955   7.328   3.496  0.4700  0.4251 -1.0562
  341MOL0     H45978   7.990   7.030   3.433  1.5365 -0.0811 -0.4892
  341MOL0     H45979   8.048   7.089   3.591  0.2214 -1.0456 -1.1630
  341MOL0     H45980   7.829   7.144   3.665  0.4951 -1.3585  0.5685
  341MOL0     H45981   7.763   7.125   3.504 -0.1223 -0.9449 -1.7020
  341MOL0     H45982   7.700   6.930   3.652  1.7896  2.0668  1.7395
  341MOL0     H45983   7.847   6.865   3.560  2.8684  0.8031 -0.3991
  341MOL0     H45984   7.838   6.969   3.824 -2.2339 -0.6233 -2.7981
  341MOL0     H45985   7.990   6.926   3.728  0.0284  1.5011 -2.5948
  341MOL0     H45986   7.656   6.741   3.850 -1.5520 -2.8235 -1.1061
  341MOL0     H45987   7.613   6.518   3.953  1.2467 -0.5992 -0.9395
  341MOL0     H45988   7.704   6.382   3.889  2.2253 -0.6161 -0.2954
  341MOL0     H45989   7.700   6.387   4.143 -0.4969 -0.7096 -2.3690
  341MOL0     H45990   7.766   6.544   4.138 -1.4924 -1.2800  2.3027
  341MOL0     H45991   7.926   6.368   4.192  0.4237  1.3580 -0.1302
  341MOL0     H45992   7.968   6.479   4.063  0.8716 -0.0925  0.3300
  341MOL0     H45993   8.030   6.241   4.033 -0.6768 -1.7311  3.3354
  341MOL0     H45994   7.902   6.274   3.907 -0.3648 -1.7587 -0.5609
  341MOL0     H45995   7.784   5.980   4.211 -0.2654 -1.9578  0.3186
  341MOL0     H45996   7.964   5.679   4.288  0.7497 -0.9758 -0.7785
  341MOL0     H45997   7.809   5.770   4.323 -0.1180 -3.7044  2.1615
  341MOL0     H45998   7.802   5.630   4.222  0.6129 -1.2890  1.5460
  341MOL0     H45999   7.917   5.387   3.874 -2.2275  1.9000  2.0302
  341MOL0     H46000   7.945   5.138   3.848  1.6321  1.2611 -1.7242
  341MOL0     H46001   8.146   4.818   4.059 -0.9371  1.3563 -1.1142
  341MOL0     H46002   8.197   4.955   4.153  0.7664  0.7636 -0.3260
  341MOL0     H46003   7.928   4.938   4.234  1.5780 -0.4276  2.9650
  341MOL0     H46004   7.938   4.780   4.179 -0.9817  0.4790 -1.0417
  341MOL0     H46005   8.126   4.895   4.382 -0.2226 -1.1429  1.1612
  341MOL0     H46006   8.127   4.731   4.331  0.2960  0.5145 -0.6591
  341MOL0     H46007   8.003   4.749   4.543 -1.0098 -3.3388 -0.4844
  341MOL0     H46008   7.885   4.859   4.467  3.1135  2.2325 -0.3154
  341MOL0     H46009   7.934   4.574   4.392 -0.1328 -1.7560  1.5019
  341MOL0     H46010   7.801   4.668   4.324 -1.8331 -3.9299  0.5918
  341MOL0     H46011   7.693   4.545   4.486  2.6656 -2.5659  1.2673
  341MOL0     H46012   7.800   4.610   4.613 -0.7170 -0.9431 -1.3932
  341MOL0     H46013   7.680   4.830   4.564 -0.9930  0.1416  1.8868
  341MOL0     H46014   7.558   4.710   4.595 -0.5972  4.4079  1.0536
  341MOL0     H46015   7.629   4.809   4.309 -0.9176 -0.4135  0.2614
  341MOL0     H46016   7.492   4.843   4.422 -0.3924 -0.6806  0.0937
  341MOL0     H46017   8.131   5.138   4.238 -1.6492 -0.2899  0.9080
  341MOL0     H46018   8.099   5.381   4.254  1.7934  1.8497 -2.2810
  341MOL0     H46019   8.031   5.840   3.816  0.9612  1.3095 -0.0373
  341MOL0     H46020   7.966   6.073   3.847 -1.3311 -0.1100 -0.1042
  341MOL0     H46021   7.504   7.385   3.109 -0.4143  0.2219 -0.3147
  341MOL0     H46022   7.341   7.199   3.073  0.3402 -2.6805  0.7894
  341MOL0     H46023   7.463   6.729   2.900  0.0801  0.4317 -0.8055
  341MOL0     H46024   7.417   6.542   2.775  0.2755 -1.6177  0.4743
  341MOL0     H46025   7.318   6.425   2.570 -1.8511  3.0501  0.0376
  341MOL0     H46026   7.337   6.340   2.725 -2.3357  2.0921  1.6390
  341MOL0     H46027   7.287   6.212   2.517  1.3016 -0.1903  1.6181
  341MOL0     H46028   7.113   6.252   2.545 -0.7358 -1.8605 -0.3684
  341MOL0     H46029   7.089   6.180   2.756  2.1257  3.2127  2.5395
  341MOL0     H46030   7.261   6.150   2.784 -0.0649  2.7164  0.1421
  341MOL0     H46031   7.150   6.011   2.539 -1.3071  1.5326  0.6241
  341MOL0     H46032   7.087   5.944   2.681 -1.3284  1.2097 -1.5238
  341MOL0     H46033   7.450   5.772   2.721 -0.1636 -0.3335  0.0743
  341MOL0     H46034   6.990   6.607   2.815  0.0251 -1.5322  1.1311
  341MOL0     H46035   7.049   6.832   2.923 -1.8770 -2.1196 -0.6665
  342MOL0     O46036  11.196   4.367   0.845  0.7249 -0.4517 -0.6327
  342MOL0     C46037  11.294   4.318   0.900  0.1408  0.1873  0.7801
  342MOL0     O46038  11.336   4.338   1.020  0.4951 -0.2580 -0.4449
  342MOL0     C46039  11.290   4.434   1.103  0.2029 -0.3301 -0.3123
  342MOL0     C46040  11.333   4.426   1.228 -1.0981  0.4355  0.4880
  342MOL0     C46041  11.311   4.528   1.325 -0.0319  0.4734 -0.6046
  342MOL0     C46042  11.245   4.639   1.282  0.8997 -0.1904 -0.1937
  342MOL0     O46043  11.221   4.758   1.351 -0.7962  0.7890 -0.4229
  342MOL0     C46044  11.238   4.745   1.502 -0.4934  0.3438  0.0925
  342MOL0     C46045  11.205   4.884   1.559 -0.0928  0.1472 -1.1085
  342MOL0     C46046  11.213   4.891   1.712  0.9576  0.5114  0.3196
  342MOL0     C46047  11.179   5.025   1.779  0.6370 -0.6558 -1.2294
  342MOL0     C46048  11.145   5.020   1.928  0.3250 -0.5459  0.0764
  342MOL0     C46049  11.135   5.167   1.991 -0.0616  1.2805 -0.7175
  342MOL0     C46050  11.070   5.153   2.132  0.4381 -0.3069  0.1119
  342MOL0     C46051  11.099   5.277   2.220  0.2610 -0.2362  0.6150
  342MOL0     N46052  11.047   5.403   2.160  0.2596 -0.2945 -0.4498
  342MOL0     C46053  10.926   5.417   2.089 -0.3923  0.2692  0.1575
  342MOL0     C46054  10.939   5.526   2.010 -0.4816  0.8631  0.4376
  342MOL0     C46055  10.842   5.575   1.898 -0.7760  0.4376  0.0680
  342MOL0     C46056  10.898   5.579   1.756 -0.7011  0.3430  0.6510
  342MOL0     C46057  10.977   5.706   1.733  0.0389 -0.0947  0.7374
  342MOL0     C46058  11.043   5.721   1.590 -0.2066 -0.3968  0.4048
  342MOL0     O46059  11.141   5.824   1.584 -0.9666 -0.2592  0.8296
  342MOL0     C46060  11.119   5.921   1.491 -0.8948 -0.5824  0.0622
  342MOL0     C46061  11.145   5.883   1.364  0.0734 -0.7807 -0.0329
  342MOL0     C46062  11.122   5.975   1.264 -0.0800 -1.1820 -0.4344
  342MOL0     C46063  11.123   5.915   1.122  0.1667  0.2057 -0.4317
  342MOL0     C46064  11.109   6.115   1.297 -0.8686 -0.0694  0.6305
  342MOL0     C46065  11.104   6.231   1.202  0.2937  0.4941  1.3811
  342MOL0     O46066  11.106   6.358   1.256  0.9057 -0.1996  0.0703
  342MOL0     C46067  11.061   6.458   1.176 -0.0246 -1.0452  0.1827
  342MOL0     C46068  11.146   6.562   1.147  0.0464 -0.1926 -0.7623
  342MOL0     C46069  11.095   6.676   1.082  0.8841 -0.4558  1.0238
  342MOL0     C46070  10.953   6.686   1.048  0.2854  0.4083 -0.6781
  342MOL0     O46071  10.909   6.803   0.986 -0.1710 -0.1994  0.4500
  342MOL0     C46072  10.794   6.801   0.896  0.2900 -0.5421 -0.6104
  342MOL0     C46073  10.688   6.896   0.968  0.4311 -0.0031  0.4979
  342MOL0     C46074  10.563   6.880   0.883  0.9159  0.4281  0.1627
  342MOL0     C46075  10.455   6.986   0.920 -0.2269  0.2044  0.4276
  342MOL0     C46076  10.401   6.982   1.067 -0.0447  0.4431  0.2984
  342MOL0     C46077  10.294   7.089   1.094 -0.8573  1.0070  0.4909
  342MOL0     C46078  10.226   7.072   1.232  0.2867  0.5571  0.2242
  342MOL0     C46079  10.126   6.953   1.246 -0.2362  0.8592  0.1752
  342MOL0    Cl46080   9.963   7.012   1.180 -0.3518  0.1385 -0.1836
  342MOL0     C46081  10.872   6.578   1.085  0.4480 -0.3100  0.0864
  342MOL0     C46082  10.929   6.471   1.150 -0.3960  0.9147 -0.8476
  342MOL0     O46083  11.104   6.199   1.081  0.0375 -0.2734  0.1107
  342MOL0     C46084  11.092   6.154   1.429 -0.8478  0.7658  0.2193
  342MOL0     C46085  11.107   6.056   1.522 -0.1601 -0.6680 -1.1025
  342MOL0     N46086  11.073   5.572   2.023  0.9181 -0.0576 -0.2090
  342MOL0     N46087  11.136   5.500   2.120  0.2883 -0.1351  0.0886
  342MOL0     C46088  11.199   4.654   1.149 -0.2397  0.3714  0.4104
  342MOL0     C46089  11.224   4.552   1.063 -0.3219  0.6889  0.9655
  342MOL0     C46090  11.361   4.212   0.819 -0.4283 -0.2694  0.1505
  342MOL0     C46091  11.404   4.090   0.880  0.6708  1.0136 -0.4905
  342MOL0     C46092  11.466   3.991   0.802 -0.4792 -1.3962  1.2167
  342MOL0     C46093  11.485   4.005   0.662  0.5702  0.6277 -0.7636
  342MOL0     O46094  11.548   3.900   0.602  0.0605  0.7246  0.0396
  342MOL0     C46095  11.481   3.773   0.604  0.3456 -0.1812  0.3187
  342MOL0     C46096  11.542   3.681   0.503 -0.5342 -0.4787  0.4458
  342MOL0     C46097  11.683   3.627   0.543  0.0529  0.6218  0.1127
  342MOL0     C46098  11.749   3.667   0.672 -0.9929  0.3116  0.6293
  342MOL0     C46099  11.712   3.598   0.792  0.3640 -0.3919  0.3765
  342MOL0     C46100  11.701   3.559   0.902 -0.2939  0.6477  0.6744
  342MOL0     C46101  11.448   4.117   0.602  0.7869  0.5475 -0.1975
  342MOL0     C46102  11.393   4.224   0.680  0.6775 -1.1415 -0.1320
  342MOL0     H46103  11.405   4.346   1.239 -2.5538 -0.6716  2.6916
  342MOL0     H46104  11.361   4.512   1.420  3.2091 -2.0187 -2.4931
  342MOL0     H46105  11.171   4.681   1.560  0.8518  0.2413  1.6184
  342MOL0     H46106  11.338   4.723   1.539 -0.9876  0.3248  1.4637
  342MOL0     H46107  11.279   4.956   1.522 -0.2361  0.1265 -1.4460
  342MOL0     H46108  11.106   4.906   1.516 -0.0458 -1.0178 -1.8718
  342MOL0     H46109  11.149   4.811   1.752 -0.1309  1.5042  0.6247
  342MOL0     H46110  11.317   4.874   1.740  1.3783 -0.4520 -1.7006
  342MOL0     H46111  11.267   5.090   1.773  0.3400 -0.2157 -0.7527
  342MOL0     H46112  11.098   5.079   1.729 -0.9643  1.3928  3.1245
  342MOL0     H46113  11.051   4.976   1.963 -0.7197  0.9445 -0.7518
  342MOL0     H46114  11.216   4.963   1.989 -0.3869  0.9273  2.4457
  342MOL0     H46115  11.231   5.218   1.981  0.9343 -0.4857 -0.6678
  342MOL0     H46116  11.060   5.229   1.939  0.9235  2.6768 -0.5202
  342MOL0     H46117  10.963   5.137   2.118 -0.6083  2.6764  3.3153
  342MOL0     H46118  11.103   5.066   2.189 -0.9713  0.8452  2.8722
  342MOL0     H46119  11.207   5.285   2.231  0.4780  0.0141 -1.3635
  342MOL0     H46120  11.046   5.274   2.316 -0.4834  3.6020  0.4990
  342MOL0     H46121  10.839   5.352   2.087 -0.8753  0.7828  2.0702
  342MOL0     H46122  10.759   5.504   1.892 -0.2313 -0.0946 -1.8297
  342MOL0     H46123  10.811   5.672   1.935 -1.3490 -0.4374  1.9925
  342MOL0     H46124  10.821   5.578   1.678  2.8955 -3.2835 -3.4435
  342MOL0     H46125  10.969   5.500   1.726  2.4246  3.0535  0.2819
  342MOL0     H46126  11.056   5.709   1.809 -0.0530 -0.9980  0.8816
  342MOL0     H46127  10.904   5.787   1.741  0.9157  0.9848 -1.5954
  342MOL0     H46128  10.972   5.739   1.509 -0.4598 -1.7344  0.2920
  342MOL0     H46129  11.094   5.626   1.569 -0.8697 -0.7543  0.3972
  342MOL0     H46130  11.171   5.782   1.335  1.7600  0.3478 -2.8719
  342MOL0     H46131  11.129   5.806   1.124 -0.2951  0.1694 -0.9388
  342MOL0     H46132  11.033   5.928   1.060 -0.1144  1.1825  0.1519
  342MOL0     H46133  11.208   5.957   1.067 -0.5993  0.0571 -1.7867
  342MOL0     H46134  11.249   6.552   1.178 -0.2011 -0.4284  0.0082
  342MOL0     H46135  11.163   6.749   1.040 -0.6885  0.6302  0.2475
  342MOL0     H46136  10.820   6.839   0.797  1.1428 -2.3528 -1.1103
  342MOL0     H46137  10.766   6.697   0.881  1.4767 -0.8015 -1.1242
  342MOL0     H46138  10.669   6.870   1.072 -0.5520 -0.0830  0.3059
  342MOL0     H46139  10.709   7.003   0.954 -0.3323  0.1206  0.2506
  342MOL0     H46140  10.525   6.781   0.910  0.1836 -0.1490 -2.6812
  342MOL0     H46141  10.590   6.883   0.777  0.0190  0.5198 -0.0755
  342MOL0     H46142  10.484   7.090   0.904 -1.1246  0.4232  0.1643
  342MOL0     H46143  10.361   6.981   0.865 -1.4436  0.0633  2.4370
  342MOL0     H46144  10.468   6.995   1.153  0.1029  0.2603  0.2111
  342MOL0     H46145  10.357   6.883   1.070 -0.2483  0.4934 -0.7062
  342MOL0     H46146  10.337   7.189   1.084  0.5736  0.7563  3.2341
  342MOL0     H46147  10.223   7.080   1.011  0.0651  0.9217 -0.3146
  342MOL0     H46148  10.177   7.167   1.254 -3.1104 -0.1183 -3.2630
  342MOL0     H46149  10.312   7.051   1.296  0.5870 -1.8058 -0.8288
  342MOL0     H46150  10.108   6.928   1.351  2.0205  1.3284  0.7414
  342MOL0     H46151  10.159   6.869   1.185  0.1368 -0.9281  2.6702
  342MOL0     H46152  10.764   6.571   1.077  0.3776 -0.6806  1.1582
  342MOL0     H46153  10.866   6.387   1.177  0.3870  0.3892 -0.6677
  342MOL0     H46154  11.087   6.255   1.468 -1.7067  0.4648  0.9180
  342MOL0     H46155  11.107   6.079   1.628  3.2701 -1.2836 -0.8623
  342MOL0     H46156  11.151   4.746   1.118  0.9742 -0.1896 -3.5892
  342MOL0     H46157  11.204   4.565   0.957  0.3122  1.0203  0.8779
  342MOL0     H46158  11.394   4.079   0.987 -0.8956  0.3288 -0.6829
  342MOL0     H46159  11.500   3.896   0.842  1.9827 -1.3132 -0.4965
  342MOL0     H46160  11.481   3.730   0.705  2.1027  0.4235  0.6153
  342MOL0     H46161  11.377   3.794   0.576  0.5278 -0.1450 -0.3514
  342MOL0     H46162  11.560   3.728   0.406  1.3866  0.4399  1.1945
  342MOL0     H46163  11.470   3.600   0.489 -2.8793  1.5964 -0.1229
  342MOL0     H46164  11.765   3.656   0.476  1.2744  0.1822  1.3659
  342MOL0     H46165  11.664   3.519   0.547 -2.7310  0.9981 -0.7870
  342MOL0     H46166  11.743   3.773   0.698  1.1517  0.8329 -0.7421
  342MOL0     H46167  11.857   3.647   0.666 -1.2739 -1.0050 -0.5877
  342MOL0     H46168  11.664   3.508   0.988 -0.8931  1.2371  0.7740
  342MOL0     H46169  11.459   4.135   0.496  2.0728  1.3225  0.0485
  342MOL0     H46170  11.360   4.313   0.627  0.0692 -0.2548  1.6499
  343MOL0     O46171   5.248  11.377   3.135 -0.3389  0.4311  0.4864
  343MOL0     C46172   5.251  11.495   3.111  1.1169 -0.6836  0.0563
  343MOL0     O46173   5.364  11.574   3.105 -0.4313  0.3708  0.0383
  343MOL0     C46174   5.483  11.510   3.090 -0.7936 -0.0880  0.4765
  343MOL0     C46175   5.584  11.550   3.179  0.5705  0.2307 -0.2915
  343MOL0     C46176   5.710  11.496   3.153 -0.7245  0.5965 -0.5694
  343MOL0     C46177   5.738  11.402   3.050  0.3061  0.4148 -0.9214
  343MOL0     O46178   5.866  11.352   3.041  0.4326  0.2471 -0.6677
  343MOL0     C46179   5.889  11.259   2.933  0.3524 -0.3560 -0.3438
  343MOL0     C46180   6.024  11.187   2.941  0.5358  0.8199 -0.4394
  343MOL0     C46181   6.013  11.105   2.820  0.1812  0.3687  0.0180
  343MOL0     C46182   6.133  11.020   2.787  0.2488 -0.1502  0.4090
  343MOL0     C46183   6.145  10.891   2.866 -0.0255  0.6135  0.2460
  343MOL0     C46184   6.260  10.807   2.811  1.1255  1.5188 -0.6044
  343MOL0     C46185   6.257  10.651   2.850 -0.5003 -0.8011  0.0518
  343MOL0     C46186   6.380  10.576   2.813 -0.6692  1.1764  0.0936
  343MOL0     N46187   6.416  10.594   2.672 -0.5169 -1.1011  0.5601
  343MOL0     C46188   6.338  10.542   2.578 -0.5568 -0.4846 -0.6123
  343MOL0     C46189   6.404  10.583   2.464  0.8828 -0.1290 -0.5220
  343MOL0     C46190   6.381  10.540   2.321  0.0496  0.0599 -0.4073
  343MOL0     C46191   6.442  10.414   2.262  0.4625  0.1522 -0.5364
  343MOL0     C46192   6.602  10.440   2.249 -0.2338  0.3798  0.6385
  343MOL0     C46193   6.673  10.310   2.203 -0.0885  0.0687  0.2876
  343MOL0     O46194   6.599  10.268   2.086 -0.1730 -0.0946 -0.4475
  343MOL0     C46195   6.599  10.133   2.083  0.5946 -0.3238 -0.3170
  343MOL0     C46196   6.472  10.077   2.061  1.0794  0.6971  0.9096
  343MOL0     C46197   6.441   9.933   2.062  0.4472 -0.2477 -0.1910
  343MOL0     C46198   6.296   9.882   2.042 -0.0903  0.3161 -0.0259
  343MOL0     C46199   6.554   9.852   2.065 -0.0880 -0.4122 -0.4378
  343MOL0     C46200   6.552   9.702   2.080  0.9889 -0.2753  0.4382
  343MOL0     O46201   6.664   9.646   2.147  0.3067  1.0996  0.3391
  343MOL0     C46202   6.668   9.515   2.186 -1.0336  0.1850  0.5204
  343MOL0     C46203   6.790   9.480   2.239 -0.1566  0.3158 -0.2569
  343MOL0     C46204   6.821   9.352   2.287 -0.0171 -0.2741 -0.4005
  343MOL0     C46205   6.724   9.254   2.273  0.3393  0.1318 -0.3598
  343MOL0     O46206   6.761   9.127   2.303 -0.9520  0.1503 -0.1269
  343MOL0     C46207   6.674   9.021   2.249  0.1088 -0.1938 -0.6077
  343MOL0     C46208   6.746   8.897   2.274  0.5492 -0.2833  0.7477
  343MOL0     C46209   6.670   8.767   2.247 -0.0889 -0.4680 -0.1246
  343MOL0     C46210   6.756   8.651   2.286 -0.1118 -0.3187 -0.5865
  343MOL0     C46211   6.703   8.509   2.250 -0.4978  0.4864  0.0765
  343MOL0     C46212   6.662   8.491   2.105  0.5572 -0.3264 -0.3483
  343MOL0     C46213   6.638   8.340   2.079  0.2945 -0.6568 -0.0071
  343MOL0     C46214   6.622   8.310   1.927 -0.7831  0.7296 -0.3121
  343MOL0    Cl46215   6.504   8.400   1.839 -0.1741  0.5812 -0.0617
  343MOL0     C46216   6.588   9.282   2.229 -0.3768 -0.0110 -0.0413
  343MOL0     C46217   6.565   9.413   2.180  0.0635  0.6662  0.0535
  343MOL0     O46218   6.471   9.643   2.015  0.5613 -0.1997 -0.5336
  343MOL0     C46219   6.679   9.915   2.071  0.3391  0.5794 -0.3314
  343MOL0     C46220   6.699  10.052   2.081  0.1572  0.8242  0.3266
  343MOL0     N46221   6.498  10.683   2.497  0.0987 -0.2398  0.4509
  343MOL0     N46222   6.506  10.686   2.627 -0.8067  1.0578 -0.2697
  343MOL0     C46223   5.631  11.376   2.962 -0.0055 -0.0948  0.3096
  343MOL0     C46224   5.504  11.418   2.982  0.6873  0.5616 -0.0530
  343MOL0     C46225   5.123  11.579   3.087 -0.1647  0.0917  0.9971
  343MOL0     C46226   5.123  11.717   3.053 -0.3830 -0.9974  0.0804
  343MOL0     C46227   5.014  11.785   2.990 -0.8359 -0.7394 -0.7313
  343MOL0     C46228   4.894  11.721   2.978 -0.6407 -0.0478 -0.2394
  343MOL0     O46229   4.789  11.761   2.901  0.3728 -0.2524 -1.0923
  343MOL0     C46230   4.799  11.887   2.832  0.0668 -0.0363 -0.3198
  343MOL0     C46231   4.704  11.881   2.707 -0.7436  0.2628 -0.2913
  343MOL0     C46232   4.673  12.018   2.633 -0.5632  0.6663 -0.8859
  343MOL0     C46233   4.569  11.986   2.530 -0.2813  0.9911  0.6545
  343MOL0     C46234   4.473  12.099   2.487 -0.5599 -0.2045 -0.2166
  343MOL0     C46235   4.397  12.191   2.458  0.6667  0.6688  0.4338
  343MOL0     C46236   4.880  11.591   3.026  0.7724 -0.5781  0.2080
  343MOL0     C46237   4.993  11.519   3.079  0.7258 -0.1413  0.4123
  343MOL0     H46238   5.567  11.629   3.252 -3.9523 -1.3592  0.6511
  343MOL0     H46239   5.796  11.516   3.216  2.2361 -0.5114 -3.9067
  343MOL0     H46240   5.816  11.177   2.936  0.6957 -0.7684 -2.2300
  343MOL0     H46241   5.883  11.314   2.839  1.8689  0.0461 -0.2452
  343MOL0     H46242   6.107  11.258   2.932 -1.4798  3.1163 -2.5500
  343MOL0     H46243   6.027  11.120   3.028 -1.2731  0.2294 -0.7927
  343MOL0     H46244   5.926  11.038   2.816  0.8769 -0.5566 -0.0786
  343MOL0     H46245   5.996  11.166   2.730 -1.3932 -2.4040 -1.7094
  343MOL0     H46246   6.112  10.988   2.684 -0.9879 -1.2898  0.9950
  343MOL0     H46247   6.227  11.074   2.774  1.7828 -1.8285  3.4765
  343MOL0     H46248   6.137  10.908   2.973 -1.9928 -0.4624  0.3263
  343MOL0     H46249   6.052  10.839   2.840  0.5977 -0.4549  0.0873
  343MOL0     H46250   6.261  10.814   2.701  1.7196 -1.2268 -0.8494
  343MOL0     H46251   6.356  10.854   2.835  0.8844  1.4587  0.4869
  343MOL0     H46252   6.246  10.653   2.959  0.6729  1.4447  0.1946
  343MOL0     H46253   6.174  10.597   2.804  0.6953 -0.7246 -2.3285
  343MOL0     H46254   6.364  10.470   2.833  0.0166  1.0681  0.0955
  343MOL0     H46255   6.458  10.620   2.876 -0.9946  1.4949  0.2783
  343MOL0     H46256   6.260  10.467   2.578  0.6889 -1.8707 -2.1217
  343MOL0     H46257   6.272  10.536   2.310 -0.2615 -2.3016  2.3117
  343MOL0     H46258   6.420  10.621   2.259  1.5766 -1.3536 -1.3942
  343MOL0     H46259   6.383  10.386   2.175 -5.3373  0.8075  2.7117
  343MOL0     H46260   6.426  10.329   2.329  0.4765 -0.4581 -1.2952
  343MOL0     H46261   6.641  10.469   2.347  1.0564  0.7756  0.0319
  343MOL0     H46262   6.614  10.529   2.186  0.3491  0.7334  1.2418
  343MOL0     H46263   6.681  10.243   2.289  2.5038  2.4880  2.1299
  343MOL0     H46264   6.777  10.335   2.179 -0.6380 -0.9912 -3.8717
  343MOL0     H46265   6.384  10.140   2.059  0.8895  0.4354  0.9002
  343MOL0     H46266   6.237   9.974   2.037 -0.7038  0.0282  1.4590
  343MOL0     H46267   6.272   9.833   1.947 -0.7179  0.3818  0.0960
  343MOL0     H46268   6.264   9.817   2.124 -1.6059  1.1583  0.1027
  343MOL0     H46269   6.868   9.555   2.241  1.6402 -1.4804 -0.0750
  343MOL0     H46270   6.920   9.333   2.325  0.1977 -2.9439 -2.0847
  343MOL0     H46271   6.585   9.008   2.311 -0.1784 -0.5944 -1.1021
  343MOL0     H46272   6.641   9.042   2.147  1.0338  3.1843 -0.3477
  343MOL0     H46273   6.833   8.900   2.208  0.0682 -1.1495  0.0469
  343MOL0     H46274   6.786   8.893   2.376 -0.0315  1.8222  1.0953
  343MOL0     H46275   6.628   8.769   2.146 -2.6965 -1.5268  0.8512
  343MOL0     H46276   6.575   8.767   2.301  0.0485  1.2399  0.1599
  343MOL0     H46277   6.862   8.662   2.261 -0.0074  1.1307  0.3489
  343MOL0     H46278   6.763   8.655   2.396  0.8098  0.3007 -0.6542
  343MOL0     H46279   6.618   8.478   2.312  1.8193 -0.6394  2.9390
  343MOL0     H46280   6.780   8.433   2.265 -1.0970 -0.9434 -3.2373
  343MOL0     H46281   6.574   8.552   2.082  0.1957 -0.7360 -0.0652
  343MOL0     H46282   6.740   8.532   2.040  0.3359 -1.0384 -1.0819
  343MOL0     H46283   6.545   8.295   2.117  1.1028 -1.8202  0.6474
  343MOL0     H46284   6.710   8.277   2.132 -1.1404 -0.6595  2.0686
  343MOL0     H46285   6.593   8.205   1.914 -1.1341  0.2962  2.9482
  343MOL0     H46286   6.722   8.310   1.882 -0.1968 -1.3832  0.8597
  343MOL0     H46287   6.507   9.210   2.231 -1.9866  1.7211  0.2823
  343MOL0     H46288   6.472   9.443   2.132 -0.5301  2.5530  2.1808
  343MOL0     H46289   6.771   9.857   2.070 -0.3484 -0.5422 -0.9449
  343MOL0     H46290   6.797  10.100   2.082  0.9189 -0.4378 -2.4515
  343MOL0     H46291   5.647  11.310   2.877  4.9826 -1.0166  1.6330
  343MOL0     H46292   5.433  11.391   2.906 -0.3466  2.2990  0.2380
  343MOL0     H46293   5.217  11.771   3.059  0.0810 -1.6491 -1.1356
  343MOL0     H46294   5.033  11.885   2.952  1.5306 -0.4543  0.9507
  343MOL0     H46295   4.777  11.975   2.894  3.2830  1.4137 -1.0560
  343MOL0     H46296   4.898  11.903   2.788  1.3069 -3.7989  0.7498
  343MOL0     H46297   4.610  11.831   2.732 -0.4367 -1.3264 -2.0665
  343MOL0     H46298   4.750  11.811   2.636 -0.1377  0.8274 -0.4592
  343MOL0     H46299   4.773  12.056   2.611  0.4048  0.4529  2.5286
  343MOL0     H46300   4.626  12.087   2.705 -0.4165 -1.2778  1.1773
  343MOL0     H46301   4.503  11.920   2.586 -0.6452 -0.1896 -1.0947
  343MOL0     H46302   4.623  11.940   2.447  0.4955  1.1673  1.0534
  343MOL0     H46303   4.332  12.276   2.456  3.0317  2.7531  2.7217
  343MOL0     H46304   4.791  11.530   3.018  0.8731 -1.1323  2.6258
  343MOL0     H46305   4.999  11.415   3.108  0.2254 -0.5895 -1.0544
  344MOL0     O46306   0.803   1.890  10.224 -0.2287 -0.4587 -0.2235
  344MOL0     C46307   0.904   1.822  10.235  0.3103  0.2620  0.0535
  344MOL0     O46308   0.910   1.705  10.298 -0.3003  0.4469 -1.2336
  344MOL0     C46309   0.800   1.671  10.369  0.2300 -0.1954 -0.0837
  344MOL0     C46310   0.808   1.634  10.502  0.0575 -0.0908 -0.3527
  344MOL0     C46311   0.698   1.610  10.589  0.8901  0.4256  0.6036
  344MOL0     C46312   0.571   1.607  10.534  0.2533  0.0504 -0.3311
  344MOL0     O46313   0.462   1.579  10.627 -0.2361  0.6016  0.4216
  344MOL0     C46314   0.339   1.537  10.576  1.3253  0.2722  0.9275
  344MOL0     C46315   0.233   1.547  10.688 -1.3041  0.0704 -0.6839
  344MOL0     C46316   0.103   1.486  10.641  0.6356 -0.9491  0.4112
  344MOL0     C46317   0.114   1.336  10.601 -0.2829 -0.1381  0.2361
  344MOL0     C46318  -0.025   1.277  10.575 -0.3461 -0.7303 -0.0256
  344MOL0     C46319  -0.000   1.154  10.474  0.9781  0.4671  0.8128
  344MOL0     C46320  -0.131   1.081  10.428  0.2742 -0.0935 -0.7782
  344MOL0     C46321  -0.115   0.961  10.339 -0.0579  0.6770  0.5981
  344MOL0     N46322  -0.255   0.914  10.313 -0.0643  1.1971  0.2812
  344MOL0     C46323  -0.335   0.864  10.399  0.4170  0.7233 -0.0986
  344MOL0     C46324  -0.452   0.857  10.332  1.2085  1.2775  1.1341
  344MOL0     C46325  -0.593   0.805  10.376 -0.7543  0.2276 -0.1667
  344MOL0     C46326  -0.610   0.662  10.321 -0.0138 -0.6287 -0.8012
  344MOL0     C46327  -0.517   0.559  10.381 -0.2505 -0.6650 -0.4103
  344MOL0     C46328  -0.523   0.559  10.538 -0.5711  0.2822  0.1004
  344MOL0     O46329  -0.415   0.633  10.582  0.0677  0.3854  0.9037
  344MOL0     C46330  -0.350   0.610  10.695  0.0773  0.6351 -0.1778
  344MOL0     C46331  -0.237   0.689  10.716 -0.4802 -0.1019  0.1843
  344MOL0     C46332  -0.187   0.706  10.851  1.0003 -0.9506 -0.3657
  344MOL0     C46333  -0.064   0.790  10.874 -0.0506 -0.4514  0.8393
  344MOL0     C46334  -0.249   0.633  10.965 -0.4851 -0.5173  0.7084
  344MOL0     C46335  -0.202   0.628  11.107  0.2425  0.0523 -0.3311
  344MOL0     O46336  -0.280   0.551  11.197  0.0608 -0.6134 -0.0235
  344MOL0     C46337  -0.268   0.576  11.327  1.0521  1.0287  0.0680
  344MOL0     C46338  -0.384   0.573  11.397  0.2808 -0.1448 -0.1567
  344MOL0     C46339  -0.385   0.589  11.535 -0.0292  0.5266 -0.3262
  344MOL0     C46340  -0.265   0.598  11.608 -0.2496  0.4215  0.1930
  344MOL0     O46341  -0.274   0.621  11.743  0.4754 -0.2220  0.0296
  344MOL0     C46342  -0.159   0.616  11.814 -0.0506  0.0138 -0.0833
  344MOL0     C46343  -0.180   0.650  11.961 -0.2977 -0.1951  0.5213
  344MOL0     C46344  -0.208   0.536  12.045 -0.5061 -0.7183  0.8069
  344MOL0     C46345  -0.364   0.522  12.049  0.2867 -0.1095  0.5354
  344MOL0     C46346  -0.405   0.428  12.165  0.1043 -0.1720  0.8473
  344MOL0     C46347  -0.539   0.455  12.214 -0.8676  0.2044  0.5208
  344MOL0     C46348  -0.584   0.346  12.312 -0.4581 -0.7232  0.1119
  344MOL0     C46349  -0.733   0.374  12.342  1.5004  0.3618 -0.3014
  344MOL0    Cl46350  -0.763   0.526  12.430  0.3714 -0.0309 -0.0696
  344MOL0     C46351  -0.150   0.614  11.530 -0.9765 -0.4651 -0.2788
  344MOL0     C46352  -0.142   0.600  11.396 -0.9561 -0.0013  0.5954
  344MOL0     O46353  -0.111   0.705  11.139 -0.5551  0.2977  0.0787
  344MOL0     C46354  -0.368   0.558  10.935 -0.5392 -0.4895 -0.2925
  344MOL0     C46355  -0.409   0.547  10.800 -0.6991 -0.4515  0.3788
  344MOL0     N46356  -0.432   0.884  10.201  0.4046 -0.1797 -0.5399
  344MOL0     N46357  -0.310   0.916  10.185 -0.2754 -0.2559  0.2763
  344MOL0     C46358   0.560   1.637  10.398  0.7606  1.2296 -0.3719
  344MOL0     C46359   0.668   1.655  10.314  0.5724  0.2823  0.1746
  344MOL0     C46360   1.027   1.883  10.181  0.3872 -1.1004 -0.0747
  344MOL0     C46361   1.025   2.012  10.126  0.3701  0.4428 -0.1154
  344MOL0     C46362   1.140   2.064  10.066 -0.7189 -0.4043  0.7274
  344MOL0     C46363   1.254   1.991  10.053 -0.6694 -0.2076  0.0630
  344MOL0     O46364   1.375   2.042  10.008  0.4437 -0.0122 -0.9030
  344MOL0     C46365   1.380   2.153   9.930  0.8720 -0.1985  0.3054
  344MOL0     C46366   1.531   2.159   9.899  0.1060 -0.0244 -0.7959
  344MOL0     C46367   1.621   2.190  10.023 -0.0379 -0.4342 -0.2314
  344MOL0     C46368   1.766   2.249   9.996 -0.1761  0.5101  0.3302
  344MOL0     C46369   1.770   2.368   9.913  0.7443 -0.3140 -1.3294
  344MOL0     C46370   1.784   2.454   9.833  0.0713 -0.0646  0.1963
  344MOL0     C46371   1.259   1.858  10.104  0.6365 -0.7475 -0.8884
  344MOL0     C46372   1.147   1.804  10.169  0.1209 -0.7345  0.0688
  344MOL0     H46373   0.904   1.620  10.551 -1.1683  0.1782  2.3170
  344MOL0     H46374   0.701   1.610  10.698 -0.3111  1.6903  0.6623
  344MOL0     H46375   0.301   1.597  10.493  2.4451 -0.3861 -0.0942
  344MOL0     H46376   0.348   1.434  10.541 -1.0419  0.5702 -0.7777
  344MOL0     H46377   0.270   1.502  10.781 -1.0013 -1.0164 -1.3063
  344MOL0     H46378   0.218   1.654  10.701 -1.2822  0.0291 -0.3016
  344MOL0     H46379   0.032   1.476  10.723  0.8302  0.6102  0.7969
  344MOL0     H46380   0.050   1.547  10.568 -2.3430 -1.9095  1.6061
  344MOL0     H46381   0.159   1.344  10.502 -1.3775  1.0565 -0.1892
  344MOL0     H46382   0.173   1.277  10.672  2.9941 -1.4129 -3.1861
  344MOL0     H46383  -0.068   1.244  10.670 -1.6805 -0.5075 -0.5307
  344MOL0     H46384  -0.101   1.348  10.540 -0.4963 -0.1135  1.4491
  344MOL0     H46385   0.051   1.192  10.385  1.1316 -0.3047  0.5605
  344MOL0     H46386   0.056   1.076  10.526  0.9549 -2.6828 -3.3426
  344MOL0     H46387  -0.182   1.050  10.520  0.5494  1.7109  0.0209
  344MOL0     H46388  -0.201   1.156  10.392 -1.9131 -0.8733  1.5376
  344MOL0     H46389  -0.048   0.888  10.385 -0.2854  0.4160  0.5199
  344MOL0     H46390  -0.061   0.983  10.246 -3.2797 -1.7594 -2.1104
  344MOL0     H46391  -0.314   0.842  10.503  2.3558  2.6661 -0.0311
  344MOL0     H46392  -0.605   0.799  10.484  0.7762 -1.5025 -0.0511
  344MOL0     H46393  -0.673   0.873  10.344 -0.6879  0.2211 -0.3445
  344MOL0     H46394  -0.596   0.671  10.213  1.1558  2.2469 -0.4935
  344MOL0     H46395  -0.709   0.623  10.345  0.3180  0.7108  3.7795
  344MOL0     H46396  -0.417   0.594  10.354 -0.5435  2.8558  2.3309
  344MOL0     H46397  -0.530   0.455  10.350 -0.6255 -0.6468 -0.3112
  344MOL0     H46398  -0.505   0.453  10.558  0.8393  0.6378  0.8053
  344MOL0     H46399  -0.616   0.594  10.584 -0.9175  0.3406 -0.6359
  344MOL0     H46400  -0.185   0.736  10.634 -2.8651 -1.2481 -2.1343
  344MOL0     H46401   0.014   0.724  10.912 -0.3714 -2.7624 -2.2034
  344MOL0     H46402  -0.028   0.852  10.791 -1.6281 -0.3487  0.2017
  344MOL0     H46403  -0.095   0.865  10.948 -0.5532  0.5946 -0.3981
  344MOL0     H46404  -0.477   0.559  11.342 -1.2637  1.9871  1.7618
  344MOL0     H46405  -0.469   0.569  11.601  0.3398 -0.1594 -0.0434
  344MOL0     H46406  -0.116   0.516  11.802  0.8720  0.3929  0.0095
  344MOL0     H46407  -0.096   0.699  11.781 -0.8543  0.8747  0.5179
  344MOL0     H46408  -0.078   0.677  11.991 -0.0317 -0.5557 -0.0440
  344MOL0     H46409  -0.244   0.737  11.980  0.1938  0.1408  0.6739
  344MOL0     H46410  -0.169   0.551  12.146 -1.3801  0.7319  0.9521
  344MOL0     H46411  -0.161   0.448  11.999 -2.4421 -1.4204  0.0973
  344MOL0     H46412  -0.412   0.620  12.057  0.1269  0.1437 -2.4228
  344MOL0     H46413  -0.402   0.475  11.957 -0.1618 -0.7529  1.0439
  344MOL0     H46414  -0.333   0.450  12.245 -0.1442  1.3909  0.6659
  344MOL0     H46415  -0.396   0.323  12.133 -1.3783 -0.4559  1.2868
  344MOL0     H46416  -0.535   0.556  12.255 -0.2916 -0.6442  2.6709
  344MOL0     H46417  -0.601   0.442  12.125 -4.0346 -3.3970  2.9530
  344MOL0     H46418  -0.527   0.349  12.405  0.9983  0.1261 -0.7667
  344MOL0     H46419  -0.578   0.244  12.273  0.5864  0.1713 -2.2419
  344MOL0     H46420  -0.776   0.288  12.394  1.2355  0.2130 -0.7572
  344MOL0     H46421  -0.791   0.373  12.249 -1.1045 -1.0138  1.2079
  344MOL0     H46422  -0.057   0.632  11.581  0.2053  1.5973 -2.9065
  344MOL0     H46423  -0.051   0.613  11.339 -1.3923 -1.0481 -0.3720
  344MOL0     H46424  -0.419   0.507  11.016 -3.1942 -0.8901 -2.0666
  344MOL0     H46425  -0.499   0.491  10.777  0.3815 -1.1101 -2.7530
  344MOL0     H46426   0.463   1.640  10.349 -1.8167  0.2088  4.0182
  344MOL0     H46427   0.636   1.668  10.211  3.3490 -0.9873 -0.9707
  344MOL0     H46428   0.945   2.084  10.140  1.6409  1.7189  0.8883
  344MOL0     H46429   1.136   2.158  10.013  2.1220 -0.9966 -0.7204
  344MOL0     H46430   1.312   2.128   9.848 -0.5732  3.4658  0.1924
  344MOL0     H46431   1.343   2.246   9.974  0.7084 -0.1598  0.0882
  344MOL0     H46432   1.535   2.238   9.823  1.8322  0.2242 -0.4826
  344MOL0     H46433   1.570   2.065   9.859  2.4300  0.6217 -0.2253
  344MOL0     H46434   1.647   2.097  10.076  1.4880 -0.0747 -0.3095
  344MOL0     H46435   1.561   2.246  10.095  0.0748  0.0957 -0.5508
  344MOL0     H46436   1.825   2.169   9.950  2.2777  1.1868  2.0803
  344MOL0     H46437   1.803   2.269  10.097 -2.4252 -0.5023  1.4394
  344MOL0     H46438   1.805   2.523   9.754 -2.5354  2.5888  1.6300
  344MOL0     H46439   1.349   1.797  10.108  0.5173 -0.8603  1.6628
  344MOL0     H46440   1.146   1.704  10.212  0.5596 -1.3920 -1.4025
  345MOL0     O46441  10.459   4.991   8.784 -0.4003 -0.3738  0.6862
  345MOL0     C46442  10.356   4.956   8.722  0.8227 -0.1843 -0.3235
  345MOL0     O46443  10.227   4.977   8.764  0.1690 -0.7193 -0.2252
  345MOL0     C46444  10.200   5.038   8.881 -0.4221 -0.6684  1.0048
  345MOL0     C46445  10.111   4.984   8.974  1.0186  0.5847  1.1407
  345MOL0     C46446  10.086   5.048   9.093 -0.3945 -0.2505  0.6625
  345MOL0     C46447  10.154   5.164   9.121 -0.6138  0.2256  0.8389
  345MOL0     O46448  10.127   5.212   9.248  0.5240 -0.5227 -0.3196
  345MOL0     C46449  10.229   5.295   9.308 -0.2168 -0.8759 -0.4013
  345MOL0     C46450  10.185   5.336   9.447 -0.0957 -0.2540 -0.3118
  345MOL0     C46451  10.300   5.401   9.536  0.4019  0.0727  0.0814
  345MOL0     C46452  10.307   5.553   9.530 -0.2382  0.2849 -0.0969
  345MOL0     C46453  10.422   5.610   9.615  0.2464  0.1567  0.2912
  345MOL0     C46454  10.445   5.757   9.620 -0.2881 -0.1698  0.4520
  345MOL0     C46455  10.330   5.832   9.689 -0.2976  0.8663  0.6227
  345MOL0     C46456  10.383   5.971   9.722  0.3581 -0.8225 -1.3228
  345MOL0     N46457  10.274   6.060   9.780  0.1781 -0.0170  0.2331
  345MOL0     C46458  10.278   6.197   9.752 -0.1835  0.6495  0.7608
  345MOL0     C46459  10.212   6.256   9.855 -0.6063 -0.9383 -0.6536
  345MOL0     C46460  10.180   6.404   9.870  0.9026 -0.1510  0.1949
  345MOL0     C46461  10.272   6.508   9.800  0.2918  0.8288  0.8164
  345MOL0     C46462  10.407   6.518   9.857 -0.1076  0.4376  0.6554
  345MOL0     C46463  10.458   6.654   9.813  0.4896 -0.3177  0.4161
  345MOL0     O46464  10.444   6.702   9.678  0.2900  0.3715 -0.2610
  345MOL0     C46465  10.535   6.642   9.601  0.5026 -0.4519  0.9266
  345MOL0     C46466  10.671   6.653   9.608  0.5831  0.0665  0.9305
  345MOL0     C46467  10.757   6.591   9.514  0.2135  0.2307 -0.2483
  345MOL0     C46468  10.905   6.625   9.527 -0.0856 -0.1710  0.4733
  345MOL0     C46469  10.704   6.511   9.410  0.1182 -0.1798 -0.0978
  345MOL0     C46470  10.787   6.449   9.301  0.1071  0.1602  0.5449
  345MOL0     O46471  10.715   6.414   9.187 -0.4546  0.1899  0.7704
  345MOL0     C46472  10.772   6.336   9.087  0.0992 -0.1203 -1.0855
  345MOL0     C46473  10.890   6.374   9.023 -0.2156 -0.0610 -0.1266
  345MOL0     C46474  10.937   6.287   8.923 -0.2057  0.1941  0.6325
  345MOL0     C46475  10.863   6.174   8.869  1.3356 -0.0343 -0.3590
  345MOL0     O46476  10.916   6.088   8.771 -0.0005 -0.3009 -0.0133
  345MOL0     C46477  10.836   5.991   8.702 -0.6127  0.3223  0.1193
  345MOL0     C46478  10.935   5.897   8.625 -0.0227  0.2074  0.5707
  345MOL0     C46479  11.025   5.798   8.705 -0.4975  0.8251  0.2003
  345MOL0     C46480  11.090   5.695   8.606 -0.6717 -0.0032  0.5671
  345MOL0     C46481  11.211   5.633   8.674 -0.1578  0.9883  0.0446
  345MOL0     C46482  11.331   5.733   8.648 -0.0866  0.4713  0.9087
  345MOL0     C46483  11.465   5.700   8.720 -0.7619 -0.8266 -0.0245
  345MOL0     C46484  11.517   5.569   8.685 -0.6888  0.2865 -0.5384
  345MOL0    Cl46485  11.545   5.554   8.502  0.1923  0.1774  0.7078
  345MOL0     C46486  10.738   6.156   8.931  0.3575 -0.3467  0.0959
  345MOL0     C46487  10.699   6.230   9.038  0.1139  1.5987 -0.8086
  345MOL0     O46488  10.904   6.424   9.326  0.2919 -0.6261 -0.2963
  345MOL0     C46489  10.567   6.499   9.404 -0.4012 -0.1668  0.1061
  345MOL0     C46490  10.480   6.559   9.495  0.2201  0.4538 -0.7309
  345MOL0     N46491  10.194   6.161   9.955  0.2339 -0.7759  0.8466
  345MOL0     N46492  10.228   6.045   9.905 -0.4579 -0.6579  0.0895
  345MOL0     C46493  10.243   5.219   9.034  0.3164 -0.4494  0.4693
  345MOL0     C46494  10.257   5.157   8.912 -1.0463 -0.5333  0.0315
  345MOL0     C46495  10.372   4.907   8.584  0.4451 -0.8413 -0.5059
  345MOL0     C46496  10.262   4.868   8.512  0.2016 -0.7333  0.1114
  345MOL0     C46497  10.276   4.816   8.381 -0.2643  0.7393  0.7916
  345MOL0     C46498  10.399   4.811   8.320  0.5752  0.5169 -0.3019
  345MOL0     O46499  10.407   4.755   8.199  0.2348 -0.0605  0.1617
  345MOL0     C46500  10.438   4.615   8.187  0.0307  0.0290 -0.0477
  345MOL0     C46501  10.575   4.591   8.128 -0.7707 -0.2873 -0.2095
  345MOL0     C46502  10.628   4.463   8.177  0.5503  0.8518  0.5596
  345MOL0     C46503  10.768   4.443   8.113  0.0253 -0.0763  0.3381
  345MOL0     C46504  10.875   4.483   8.202  0.0598 -0.1772 -0.7259
  345MOL0     C46505  10.975   4.522   8.257 -0.2173  0.7096 -0.6060
  345MOL0     C46506  10.509   4.853   8.395  0.7148 -0.0807 -0.7298
  345MOL0     C46507  10.497   4.897   8.530  1.1518 -0.1520  0.5136
  345MOL0     H46508  10.070   4.886   8.952 -3.4351  1.5434  3.7752
  345MOL0     H46509  10.037   5.000   9.177 -0.1261  0.3388  1.1593
  345MOL0     H46510  10.328   5.251   9.322  0.2379  0.6974  1.8354
  345MOL0     H46511  10.251   5.382   9.245  2.2916 -0.5462  0.8366
  345MOL0     H46512  10.100   5.404   9.456  0.0297 -0.0944 -0.3532
  345MOL0     H46513  10.145   5.246   9.496 -0.1563  0.6956  1.4906
  345MOL0     H46514  10.285   5.372   9.640  3.5883  1.5566  1.0779
  345MOL0     H46515  10.397   5.362   9.503 -0.4757 -1.8039 -0.4398
  345MOL0     H46516  10.316   5.590   9.427 -4.2624  0.3314 -0.6289
  345MOL0     H46517  10.213   5.599   9.563  0.6585  0.8345  1.8157
  345MOL0     H46518  10.410   5.580   9.720 -0.4608  0.9769  0.4587
  345MOL0     H46519  10.518   5.575   9.577  0.6296  0.9896  0.4680
  345MOL0     H46520  10.538   5.769   9.676 -0.0812 -0.3043  0.1391
  345MOL0     H46521  10.457   5.793   9.517  1.8532 -0.6005  0.5153
  345MOL0     H46522  10.253   5.839   9.613 -0.2441  1.2269  0.6038
  345MOL0     H46523  10.302   5.780   9.782  1.0254 -2.9036 -0.8638
  345MOL0     H46524  10.413   6.024   9.632 -3.3966  0.6314 -1.8790
  345MOL0     H46525  10.462   5.972   9.798 -0.7794  1.8627 -0.0702
  345MOL0     H46526  10.317   6.243   9.662 -1.4468  2.1892  0.9577
  345MOL0     H46527  10.083   6.416   9.820  0.9407  0.0088  0.1593
  345MOL0     H46528  10.179   6.434   9.975 -0.5545 -1.1570  0.5151
  345MOL0     H46529  10.210   6.598   9.800 -0.5643  0.2670 -0.5398
  345MOL0     H46530  10.283   6.478   9.696  1.4145  1.7084  0.6737
  345MOL0     H46531  10.465   6.437   9.812 -2.6056  0.4122 -2.9500
  345MOL0     H46532  10.415   6.517   9.966  1.4574  2.4386  0.6203
  345MOL0     H46533  10.563   6.653   9.840  0.5907 -2.3711  0.0879
  345MOL0     H46534  10.416   6.734   9.875 -1.7625 -0.0428 -1.2932
  345MOL0     H46535  10.712   6.724   9.679 -1.4365  1.6329  0.6285
  345MOL0     H46536  10.953   6.657   9.434  2.4294 -0.1224  1.6949
  345MOL0     H46537  10.920   6.701   9.604  1.5246  1.2238 -1.1215
  345MOL0     H46538  10.973   6.544   9.556  0.6538 -0.4815 -1.9390
  345MOL0     H46539  10.940   6.466   9.051 -0.3736 -0.0039 -0.0264
  345MOL0     H46540  11.041   6.307   8.899 -0.3822  1.1133  0.6046
  345MOL0     H46541  10.768   5.927   8.759 -1.7872 -0.0459 -1.6171
  345MOL0     H46542  10.777   6.042   8.625  0.6644  0.4283 -0.8254
  345MOL0     H46543  10.869   5.838   8.560  1.8685 -0.4574 -0.8530
  345MOL0     H46544  10.993   5.953   8.551 -1.0902 -1.1383 -1.3864
  345MOL0     H46545  10.977   5.748   8.789  0.3489 -2.9251 -1.3221
  345MOL0     H46546  11.107   5.860   8.742  1.8257 -1.6114 -0.4674
  345MOL0     H46547  11.028   5.612   8.570  2.5405 -2.2287 -0.3856
  345MOL0     H46548  11.122   5.762   8.525 -0.3256 -2.3394 -1.3559
  345MOL0     H46549  11.233   5.543   8.617  0.0942  0.5325  0.8486
  345MOL0     H46550  11.187   5.625   8.781  2.2259 -1.1834  0.5245
  345MOL0     H46551  11.343   5.754   8.542 -1.4930  0.4620  0.7294
  345MOL0     H46552  11.308   5.832   8.689  3.7005  1.9537 -0.1615
  345MOL0     H46553  11.450   5.698   8.829  0.1806 -2.1696  0.1142
  345MOL0     H46554  11.538   5.779   8.698 -0.6236 -0.9383  0.0285
  345MOL0     H46555  11.452   5.489   8.721 -0.8709  1.0743  0.9367
  345MOL0     H46556  11.605   5.548   8.745 -1.3773  0.5565  0.5964
  345MOL0     H46557  10.675   6.072   8.901  2.2841 -1.3278 -1.4953
  345MOL0     H46558  10.604   6.203   9.084 -0.3272  3.8177 -0.2890
  345MOL0     H46559  10.521   6.429   9.335 -2.4074  0.5095  0.6915
  345MOL0     H46560  10.373   6.542   9.492 -0.3509  2.9133  1.6900
  345MOL0     H46561  10.307   5.303   9.058 -0.2683 -0.0837  0.7816
  345MOL0     H46562  10.323   5.211   8.845 -0.3908  3.1583  3.2909
  345MOL0     H46563  10.161   4.872   8.549  0.5429  3.0212  1.0866
  345MOL0     H46564  10.191   4.772   8.330  0.8510  0.8670 -1.3041
  345MOL0     H46565  10.440   4.580   8.291  1.8575  3.9952  1.4871
  345MOL0     H46566  10.355   4.557   8.145 -0.3366 -0.0822  0.8084
  345MOL0     H46567  10.641   4.664   8.177  1.1513 -2.9123  1.3759
  345MOL0     H46568  10.570   4.590   8.019  0.2655  1.3625 -0.3145
  345MOL0     H46569  10.561   4.384   8.142  2.1829  1.0189 -3.6562
  345MOL0     H46570  10.633   4.458   8.286 -3.4271  1.3884  0.9201
  345MOL0     H46571  10.782   4.504   8.024  1.2561 -1.9915 -0.8376
  345MOL0     H46572  10.782   4.340   8.080  0.3938  0.4583 -1.2710
  345MOL0     H46573  11.072   4.554   8.291  1.5550 -1.8205 -2.7989
  345MOL0     H46574  10.605   4.838   8.346  0.7314 -0.6255 -0.5289
  345MOL0     H46575  10.586   4.931   8.583  2.4336 -0.0617 -1.5738
  346MOL0     O46576   9.047   6.378   6.880  0.3506 -0.1692  0.5461
  346MOL0     C46577   8.959   6.459   6.908  0.1996  0.4640 -0.3709
  346MOL0     O46578   8.953   6.593   6.878 -0.1294 -0.0041 -0.0047
  346MOL0     C46579   9.034   6.657   6.781  0.6140  0.2765  0.5957
  346MOL0     C46580   8.996   6.782   6.741 -0.3173 -1.0044  0.5339
  346MOL0     C46581   9.076   6.865   6.661  0.5096  0.2911 -0.7006
  346MOL0     C46582   9.198   6.828   6.614 -0.5398 -1.4735  0.3110
  346MOL0     O46583   9.271   6.916   6.533  0.0263 -0.4782  0.2923
  346MOL0     C46584   9.251   7.057   6.547 -0.6212  0.0437  0.4760
  346MOL0     C46585   9.175   7.122   6.429  0.7257 -0.3836  0.1779
  346MOL0     C46586   9.249   7.168   6.298 -0.1434  0.8527 -0.2191
  346MOL0     C46587   9.337   7.299   6.322 -1.1952  0.3606  0.1541
  346MOL0     C46588   9.429   7.340   6.208  0.0331  0.0933  1.0381
  346MOL0     C46589   9.514   7.462   6.250  0.0261  1.0413 -0.2723
  346MOL0     C46590   9.607   7.507   6.131 -0.0667 -1.2577 -0.5102
  346MOL0     C46591   9.701   7.618   6.177 -0.2246 -0.1179 -0.1827
  346MOL0     N46592   9.827   7.575   6.248  0.2730  0.1036 -0.8846
  346MOL0     C46593   9.873   7.628   6.361  0.3767 -0.1751 -0.1336
  346MOL0     C46594   9.992   7.575   6.374 -0.5180 -0.3826 -0.0938
  346MOL0     C46595  10.074   7.591   6.496  0.6237  0.2362  0.2644
  346MOL0     C46596  10.101   7.459   6.559  0.3458 -0.8205 -0.5809
  346MOL0     C46597  10.167   7.483   6.701  0.5551  0.0216 -0.6394
  346MOL0     C46598  10.309   7.540   6.702  0.5498 -0.2784  1.0153
  346MOL0     O46599  10.404   7.451   6.637  0.3375  0.2145  0.9213
  346MOL0     C46600  10.531   7.492   6.637 -0.0189 -0.7473 -0.6332
  346MOL0     C46601  10.590   7.594   6.715 -0.0732  1.0987 -0.2868
  346MOL0     C46602  10.721   7.628   6.717 -0.4028 -0.0052 -0.2156
  346MOL0     C46603  10.771   7.741   6.802  0.3798 -0.0392 -0.8182
  346MOL0     C46604  10.812   7.563   6.628  0.2634 -0.0184 -0.2188
  346MOL0     C46605  10.966   7.575   6.635 -0.0678 -0.8261  0.4120
  346MOL0     O46606  11.035   7.544   6.523  0.3624  0.6397 -0.0346
  346MOL0     C46607  11.175   7.535   6.530  0.8246  0.0843  0.4589
  346MOL0     C46608  11.256   7.643   6.479 -0.0161  0.2573  0.7277
  346MOL0     C46609  11.386   7.632   6.482  0.4132  0.4601  0.2535
  346MOL0     C46610  11.452   7.523   6.541 -0.7022  0.6395  0.9386
  346MOL0     O46611  11.592   7.524   6.546  0.1960 -0.0022 -0.6141
  346MOL0     C46612  11.676   7.412   6.525  0.2060  0.1337 -0.3216
  346MOL0     C46613  11.646   7.344   6.398  0.2522  0.3284 -0.2619
  346MOL0     C46614  11.719   7.207   6.386  0.3739 -0.6527  0.6530
  346MOL0     C46615  11.635   7.100   6.456 -0.6261  0.9435 -0.2637
  346MOL0     C46616  11.503   7.046   6.399 -0.6443  0.4828  0.6066
  346MOL0     C46617  11.497   7.025   6.237 -1.2470  1.2963  0.0650
  346MOL0     C46618  11.548   6.879   6.194 -0.4108  0.1386  0.0113
  346MOL0     C46619  11.701   6.872   6.180 -0.1356 -0.0091  0.2542
  346MOL0    Cl46620  11.740   6.715   6.105 -0.2196  0.2983  0.3005
  346MOL0     C46621  11.377   7.409   6.587 -0.2772 -0.5784 -0.0721
  346MOL0     C46622  11.238   7.421   6.584  0.0875 -0.3265 -0.9373
  346MOL0     O46623  11.019   7.618   6.736 -0.5057  0.3945 -0.2253
  346MOL0     C46624  10.756   7.461   6.548  0.7872 -0.4185  1.1852
  346MOL0     C46625  10.616   7.428   6.550 -1.5790  0.0441  0.7553
  346MOL0     N46626  10.030   7.505   6.264 -0.4619 -0.1680  0.3063
  346MOL0     N46627   9.923   7.500   6.189 -1.0511 -0.3183  0.1439
  346MOL0     C46628   9.240   6.703   6.642  0.1973  0.8317 -0.1153
  346MOL0     C46629   9.158   6.622   6.726 -0.3939  0.4378  0.8926
  346MOL0     C46630   8.848   6.410   7.005  0.3843  0.5727 -0.1658
  346MOL0     C46631   8.771   6.502   7.072  0.7500 -0.6229  0.7021
  346MOL0     C46632   8.656   6.461   7.151 -0.1456  0.3219  0.5639
  346MOL0     C46633   8.626   6.325   7.171 -0.6859  0.7886  0.4217
  346MOL0     O46634   8.531   6.285   7.254 -0.0977 -0.1594 -0.5413
  346MOL0     C46635   8.447   6.170   7.218  0.3540  1.6344 -0.6968
  346MOL0     C46636   8.322   6.224   7.142 -0.9132  0.8823  0.1673
  346MOL0     C46637   8.221   6.304   7.216  0.2716 -0.7819  0.1620
  346MOL0     C46638   8.080   6.292   7.151  0.3353 -0.2112  0.7599
  346MOL0     C46639   8.052   6.409   7.061 -0.7781 -0.1115  0.7107
  346MOL0     C46640   8.042   6.494   6.969 -0.3244  0.1718  0.0262
  346MOL0     C46641   8.710   6.234   7.108  0.7636 -0.6679  0.2499
  346MOL0     C46642   8.823   6.272   7.030  0.2366  0.0105 -0.6666
  346MOL0     H46643   8.909   6.824   6.791 -0.7268 -0.2700 -0.7431
  346MOL0     H46644   9.037   6.961   6.627  1.5908  1.3251  0.8309
  346MOL0     H46645   9.200   7.077   6.641  1.0653  1.7699  1.0766
  346MOL0     H46646   9.343   7.114   6.553 -0.0374 -0.9137  0.8433
  346MOL0     H46647   9.099   7.045   6.410  0.1398 -0.2818  1.9084
  346MOL0     H46648   9.114   7.209   6.456  0.9239  0.5772 -2.2320
  346MOL0     H46649   9.312   7.086   6.262 -0.2142  0.8142 -0.2521
  346MOL0     H46650   9.175   7.216   6.234  2.0284  5.3378  0.2399
  346MOL0     H46651   9.261   7.374   6.344 -0.0543  2.1978 -1.8408
  346MOL0     H46652   9.421   7.289   6.391  1.2724  1.0693 -2.5705
  346MOL0     H46653   9.490   7.253   6.184 -1.4938 -0.9860  0.9015
  346MOL0     H46654   9.371   7.363   6.118  1.1997  2.0969  0.7364
  346MOL0     H46655   9.455   7.554   6.257 -1.4303  0.3678 -2.5920
  346MOL0     H46656   9.556   7.441   6.349 -1.4304 -0.7469  0.0173
  346MOL0     H46657   9.666   7.424   6.091 -0.6572 -2.1339  0.3811
  346MOL0     H46658   9.548   7.550   6.050 -1.3361  1.0154  1.5077
  346MOL0     H46659   9.650   7.692   6.239 -0.7475 -2.7691  2.8378
  346MOL0     H46660   9.734   7.668   6.085  0.0407 -0.7089 -0.4149
  346MOL0     H46661   9.821   7.678   6.443  1.4414  0.4285  0.1864
  346MOL0     H46662  10.171   7.631   6.465  0.0933  0.3686 -1.3093
  346MOL0     H46663  10.030   7.659   6.569 -2.3965 -1.4639  0.1794
  346MOL0     H46664  10.167   7.394   6.501 -0.9092 -2.4903 -0.2286
  346MOL0     H46665  10.011   7.405   6.589 -0.4682  1.1444  0.7382
  346MOL0     H46666  10.171   7.391   6.761  5.9014  2.3018  3.2528
  346MOL0     H46667  10.102   7.549   6.760  2.5893 -0.2672  2.1121
  346MOL0     H46668  10.329   7.561   6.808  0.8515 -2.3125  1.3943
  346MOL0     H46669  10.322   7.636   6.651 -0.3899 -0.9871 -0.6521
  346MOL0     H46670  10.540   7.651   6.793 -1.5239  0.7019 -0.8819
  346MOL0     H46671  10.684   7.797   6.837 -1.0356 -1.6756 -1.5643
  346MOL0     H46672  10.824   7.705   6.891 -1.7966 -0.2855  0.4415
  346MOL0     H46673  10.833   7.807   6.741  0.2158 -1.6205 -2.7991
  346MOL0     H46674  11.208   7.727   6.430  0.5789 -0.8961 -2.0134
  346MOL0     H46675  11.451   7.711   6.446 -0.0981  0.5359 -0.5500
  346MOL0     H46676  11.783   7.435   6.520  0.1244  0.4836 -0.4341
  346MOL0     H46677  11.676   7.352   6.617 -1.9110  2.3947  1.3039
  346MOL0     H46678  11.539   7.337   6.377  0.4408  2.3001 -2.4377
  346MOL0     H46679  11.679   7.421   6.327  0.0444  0.5874 -0.0783
  346MOL0     H46680  11.816   7.207   6.437 -0.5576 -2.2679  2.5424
  346MOL0     H46681  11.735   7.185   6.280  0.0823  2.0807 -0.0542
  346MOL0     H46682  11.692   7.007   6.448 -2.4999 -0.1903 -1.2663
  346MOL0     H46683  11.630   7.131   6.561  1.6537  0.8337 -0.0796
  346MOL0     H46684  11.427   7.124   6.411  0.5038  1.5983  0.9085
  346MOL0     H46685  11.468   6.959   6.455  2.4441 -1.8131 -0.7458
  346MOL0     H46686  11.392   7.035   6.209 -1.7740 -1.8088  0.5625
  346MOL0     H46687  11.548   7.109   6.188  3.8235 -1.3669  0.1043
  346MOL0     H46688  11.511   6.849   6.095 -1.4672 -2.9121  1.1837
  346MOL0     H46689  11.524   6.796   6.261  1.9035 -0.9912 -0.4664
  346MOL0     H46690  11.748   6.868   6.279  1.5717 -1.4909 -0.5520
  346MOL0     H46691  11.745   6.958   6.127  1.7732 -1.9685 -1.5357
  346MOL0     H46692  11.417   7.319   6.633  0.6100 -1.1950 -1.9484
  346MOL0     H46693  11.191   7.329   6.618  2.6216 -1.6447 -0.7644
  346MOL0     H46694  10.822   7.400   6.488 -1.3264 -3.8018  1.9698
  346MOL0     H46695  10.577   7.349   6.486 -3.1915  0.1811  1.5162
  346MOL0     H46696   9.329   6.668   6.590  0.1347 -1.3360  1.1097
  346MOL0     H46697   9.205   6.529   6.758  0.3666  0.4578 -0.1179
  346MOL0     H46698   8.801   6.607   7.072  1.5246 -0.8377  1.2918
  346MOL0     H46699   8.599   6.538   7.201 -2.1005 -0.6243 -0.1211
  346MOL0     H46700   8.496   6.084   7.174 -0.1297  0.3103  1.2118
  346MOL0     H46701   8.404   6.125   7.308  0.5443  1.6659 -0.5888
  346MOL0     H46702   8.263   6.134   7.121  0.7120 -0.8480  2.5215
  346MOL0     H46703   8.332   6.274   7.045 -2.0575 -0.2607 -0.5802
  346MOL0     H46704   8.253   6.408   7.224  2.6964 -1.2921 -1.7761
  346MOL0     H46705   8.212   6.251   7.312 -0.1713 -1.0141 -0.0062
  346MOL0     H46706   7.997   6.290   7.222  0.6685 -1.8677  1.1612
  346MOL0     H46707   8.072   6.196   7.098  2.6161  0.2304 -0.5142
  346MOL0     H46708   8.029   6.558   6.884 -1.2152 -0.5274 -0.3795
  346MOL0     H46709   8.682   6.129   7.103 -2.4496  0.0801  0.6036
  346MOL0     H46710   8.877   6.199   6.971  0.3439  2.6193 -4.1204
  347MOL0     O46711   4.796   8.381   9.602 -0.3781 -0.1385  0.1163
  347MOL0     C46712   4.903   8.323   9.614  0.0493  0.0827 -0.0433
  347MOL0     O46713   4.930   8.187   9.614  0.2126  0.0013  0.5880
  347MOL0     C46714   4.839   8.094   9.609 -0.6049  0.2481  0.3303
  347MOL0     C46715   4.766   8.081   9.494  0.5337 -0.2612 -0.1566
  347MOL0     C46716   4.657   7.984   9.486  0.4677 -0.2221  0.2128
  347MOL0     C46717   4.639   7.895   9.589  0.0522 -0.2564  0.5921
  347MOL0     O46718   4.555   7.791   9.585  0.9472 -0.2586 -0.0752
  347MOL0     C46719   4.422   7.843   9.565  0.4739 -0.8757 -0.0853
  347MOL0     C46720   4.322   7.730   9.590  0.1986 -0.1105  0.2327
  347MOL0     C46721   4.298   7.693   9.741 -0.2524  0.3841  0.3528
  347MOL0     C46722   4.421   7.663   9.831 -0.1156 -0.3938 -0.2422
  347MOL0     C46723   4.376   7.592   9.969 -0.7669 -0.7011  0.0352
  347MOL0     C46724   4.486   7.530  10.050 -0.6256  0.2180 -0.2359
  347MOL0     C46725   4.619   7.606  10.069  0.7756 -0.5150 -0.8617
  347MOL0     C46726   4.610   7.741  10.151 -0.0056  0.5751 -0.3481
  347MOL0     N46727   4.529   7.729  10.271  0.2941  0.7571 -0.6644
  347MOL0     C46728   4.571   7.678  10.392  0.2406 -0.7271 -0.5543
  347MOL0     C46729   4.466   7.710  10.473  0.6905 -0.9270 -0.4503
  347MOL0     C46730   4.476   7.677  10.622  0.7468 -0.6786  0.6214
  347MOL0     C46731   4.531   7.796  10.700 -0.1326  0.7741 -0.2674
  347MOL0     C46732   4.532   7.765  10.855 -0.7062 -0.1879 -0.5592
  347MOL0     C46733   4.599   7.883  10.931  0.3945  0.4745  0.2653
  347MOL0     O46734   4.601   7.862  11.070 -0.3798 -0.8496  0.1121
  347MOL0     C46735   4.695   7.769  11.129 -0.3300  0.6420 -0.0294
  347MOL0     C46736   4.672   7.728  11.261 -1.4697 -0.3926 -0.6894
  347MOL0     C46737   4.724   7.610  11.319  0.4687 -0.5855 -0.1310
  347MOL0     C46738   4.682   7.584  11.465 -1.1870 -0.2852 -0.0706
  347MOL0     C46739   4.820   7.533  11.243  0.3817 -0.1601 -0.6523
  347MOL0     C46740   4.890   7.426  11.318  0.4798  0.5678  0.6088
  347MOL0     O46741   4.967   7.350  11.228  0.5972  0.5565  0.6833
  347MOL0     C46742   5.038   7.242  11.255 -0.3075 -0.0547  0.1951
  347MOL0     C46743   5.033   7.167  11.374  0.2952 -0.0697 -0.0261
  347MOL0     C46744   5.111   7.069  11.409  0.1829 -0.7159 -0.2923
  347MOL0     C46745   5.216   7.032  11.331 -1.3816  1.1237  1.1424
  347MOL0     O46746   5.301   6.925  11.370  0.4893  1.0299  0.3641
  347MOL0     C46747   5.425   6.910  11.316 -0.6578 -0.2119  0.0337
  347MOL0     C46748   5.514   7.024  11.346 -0.3084 -0.1667  0.3696
  347MOL0     C46749   5.670   6.996  11.344 -0.5886  0.7098 -0.6103
  347MOL0     C46750   5.714   6.883  11.445 -0.2295  0.2284 -0.3627
  347MOL0     C46751   5.860   6.848  11.413  0.2039 -0.6922 -0.2091
  347MOL0     C46752   5.916   6.737  11.500  0.4312 -0.1491  0.1147
  347MOL0     C46753   6.072   6.705  11.470  0.2624 -0.1866 -0.0115
  347MOL0     C46754   6.174   6.794  11.544  0.7991  0.7494 -0.2459
  347MOL0    Cl46755   6.127   6.774  11.722  0.3777  0.2360  0.1321
  347MOL0     C46756   5.238   7.114  11.211  0.4157 -0.2787 -0.5409
  347MOL0     C46757   5.144   7.213  11.175  1.3019  0.5975  0.5569
  347MOL0     O46758   4.889   7.410  11.438  0.1951 -0.0547  0.1445
  347MOL0     C46759   4.842   7.577  11.112 -0.2074 -0.2320 -0.0359
  347MOL0     C46760   4.783   7.691  11.055 -0.5327 -0.7416  0.1368
  347MOL0     N46761   4.365   7.777  10.402  0.0284  0.7203 -0.1706
  347MOL0     N46762   4.406   7.785  10.282 -0.0713 -0.2281  0.3060
  347MOL0     C46763   4.712   7.912   9.708  1.3050 -0.4279  0.3650
  347MOL0     C46764   4.809   8.012   9.722  0.1029 -0.3908  0.4615
  347MOL0     C46765   5.019   8.408   9.619  0.1681 -0.4084 -0.5408
  347MOL0     C46766   5.147   8.347   9.650  0.4883 -0.4094 -0.2353
  347MOL0     C46767   5.261   8.431   9.666  0.0071 -0.3011  0.3955
  347MOL0     C46768   5.261   8.570   9.640  0.1865 -0.5393  0.0979
  347MOL0     O46769   5.369   8.654   9.644  1.0182  0.0454 -0.3219
  347MOL0     C46770   5.477   8.597   9.572  0.6871 -0.0606  0.5126
  347MOL0     C46771   5.579   8.707   9.537 -0.0087 -0.0610 -0.2338
  347MOL0     C46772   5.709   8.640   9.496  0.3693 -0.0121 -0.7310
  347MOL0     C46773   5.818   8.742   9.451  0.3263  0.6248  1.2240
  347MOL0     C46774   5.857   8.834   9.558  0.0837 -0.4142 -0.2799
  347MOL0     C46775   5.898   8.931   9.621  0.4360  0.1365 -0.7698
  347MOL0     C46776   5.139   8.629   9.626  0.8882  0.6147  0.1841
  347MOL0     C46777   5.025   8.546   9.606  0.0204 -0.6225 -0.4414
  347MOL0     H46778   4.793   8.143   9.409  0.7148 -0.0495  0.0542
  347MOL0     H46779   4.618   7.973   9.385  2.8016 -1.6502 -0.5882
  347MOL0     H46780   4.408   7.926   9.635 -0.4661 -1.5953  0.6067
  347MOL0     H46781   4.400   7.884   9.466 -2.0718  2.3033  1.5957
  347MOL0     H46782   4.228   7.748   9.537 -0.7227 -0.9288  1.5292
  347MOL0     H46783   4.360   7.639   9.543 -1.5127 -1.5323  1.4744
  347MOL0     H46784   4.226   7.767   9.776 -0.0973  1.0604 -0.6999
  347MOL0     H46785   4.243   7.598   9.742 -0.5196  0.5353  1.2469
  347MOL0     H46786   4.495   7.599   9.782  2.3620  0.5442  2.0257
  347MOL0     H46787   4.463   7.760   9.857 -1.6952  0.0955  0.6607
  347MOL0     H46788   4.332   7.671  10.029 -0.2715  1.0957 -1.8590
  347MOL0     H46789   4.307   7.508   9.951  0.2523 -1.8278  1.1419
  347MOL0     H46790   4.458   7.511  10.154  0.5298  1.9193  0.4475
  347MOL0     H46791   4.511   7.437   9.998  1.7426  1.8513 -2.2838
  347MOL0     H46792   4.681   7.536  10.127 -0.9406  0.0438  1.8106
  347MOL0     H46793   4.660   7.624   9.969 -2.4545 -1.1274 -2.4104
  347MOL0     H46794   4.569   7.816  10.082  1.2022  0.4991 -1.1790
  347MOL0     H46795   4.707   7.786  10.177 -1.2339  2.7155  0.8334
  347MOL0     H46796   4.654   7.612  10.417  1.4065 -0.5253 -3.5205
  347MOL0     H46797   4.380   7.643  10.662  0.4937  0.7762  1.3211
  347MOL0     H46798   4.541   7.590  10.638  1.6622 -0.1226  0.0342
  347MOL0     H46799   4.477   7.889  10.684 -2.7903 -0.0470  3.0222
  347MOL0     H46800   4.632   7.823  10.667 -0.6256  2.6120 -0.3558
  347MOL0     H46801   4.588   7.673  10.873 -0.7638 -0.5169 -1.9040
  347MOL0     H46802   4.432   7.757  10.896  0.6497 -0.2300  3.0710
  347MOL0     H46803   4.524   7.961  10.917  1.6542  1.7788  0.5107
  347MOL0     H46804   4.684   7.923  10.875 -0.5224  1.8340 -0.2253
  347MOL0     H46805   4.605   7.793  11.316  0.1199  1.4768 -0.8385
  347MOL0     H46806   4.651   7.480  11.478 -1.0969 -0.3875 -0.6621
  347MOL0     H46807   4.768   7.614  11.526 -2.6472  2.9260  0.5947
  347MOL0     H46808   4.605   7.653  11.501 -1.0445  0.5268 -1.2590
  347MOL0     H46809   4.948   7.177  11.440  0.0095 -1.7652 -0.0758
  347MOL0     H46810   5.091   7.019  11.503  1.8760 -1.0123 -0.0531
  347MOL0     H46811   5.473   6.816  11.345 -1.0676 -0.1806  0.8478
  347MOL0     H46812   5.425   6.896  11.208  1.0598 -3.0302  0.2877
  347MOL0     H46813   5.508   7.112  11.281  0.8884 -1.7516 -2.0227
  347MOL0     H46814   5.494   7.068  11.444  0.8154  0.6278  0.2564
  347MOL0     H46815   5.713   7.092  11.374  1.6388  0.0341 -1.4156
  347MOL0     H46816   5.706   6.961  11.246 -1.1126  1.3270 -1.0285
  347MOL0     H46817   5.707   6.922  11.547 -1.2034  2.1850 -1.1355
  347MOL0     H46818   5.653   6.796  11.420 -0.3085  0.6872 -1.8666
  347MOL0     H46819   5.919   6.938  11.433 -0.0538 -0.6008  0.1416
  347MOL0     H46820   5.871   6.828  11.306  0.5236  1.8875 -0.7343
  347MOL0     H46821   5.891   6.760  11.604  0.8311 -1.3477  0.4835
  347MOL0     H46822   5.854   6.649  11.480 -1.2914  0.9464  0.4258
  347MOL0     H46823   6.096   6.717  11.364 -0.3387 -0.1436 -0.1457
  347MOL0     H46824   6.102   6.604  11.500  0.4346  0.5011  2.2548
  347MOL0     H46825   6.162   6.899  11.516 -2.1661  0.2994 -1.0668
  347MOL0     H46826   6.276   6.758  11.528  1.2911  0.4114  2.9437
  347MOL0     H46827   5.322   7.094  11.145  0.6455  0.1175 -0.3712
  347MOL0     H46828   5.157   7.274  11.086 -3.5208 -2.5129 -2.7226
  347MOL0     H46829   4.907   7.515  11.051  0.9650  1.4629 -0.5651
  347MOL0     H46830   4.809   7.724  10.955 -0.1175  1.2443  0.8645
  347MOL0     H46831   4.686   7.851   9.794  0.0874  0.9982  1.0526
  347MOL0     H46832   4.878   8.020   9.806 -2.8329  0.6769  2.9252
  347MOL0     H46833   5.165   8.241   9.666  0.5866 -0.2942  0.4381
  347MOL0     H46834   5.362   8.392   9.676 -0.8049 -2.3562  1.2254
  347MOL0     H46835   5.525   8.521   9.635  0.4897 -0.7101 -0.0959
  347MOL0     H46836   5.437   8.551   9.481 -0.0490 -0.6437  1.1120
  347MOL0     H46837   5.599   8.778   9.617 -0.7668  2.8540 -2.4323
  347MOL0     H46838   5.537   8.760   9.450  0.0539 -0.2286 -0.3661
  347MOL0     H46839   5.688   8.563   9.421 -4.3711  0.3967 -0.0933
  347MOL0     H46840   5.753   8.580   9.576 -3.2895 -0.9851  0.7233
  347MOL0     H46841   5.783   8.792   9.360  0.7377  1.1811  1.3700
  347MOL0     H46842   5.910   8.687   9.429  0.1585  0.6697  0.3687
  347MOL0     H46843   5.938   9.009   9.682 -1.5556  0.0883  0.7008
  347MOL0     H46844   5.139   8.738   9.625  1.4853  0.6289 -1.3045
  347MOL0     H46845   4.935   8.605   9.597  1.5147  1.6249 -1.6931
  348MOL0     O46846   7.235  10.693   5.491 -0.0776 -0.1947  0.7555
  348MOL0     C46847   7.116  10.690   5.526 -0.2589  0.6252 -0.4454
  348MOL0     O46848   7.021  10.784   5.499 -0.6162 -0.7152  0.1778
  348MOL0     C46849   7.061  10.914   5.473  0.2049 -0.4135  0.4027
  348MOL0     C46850   7.016  10.973   5.360 -0.2476  0.5646  0.1743
  348MOL0     C46851   7.032  11.108   5.340 -0.5525 -0.0930  1.0585
  348MOL0     C46852   7.107  11.185   5.424 -0.2597 -0.2741  0.8299
  348MOL0     O46853   7.125  11.320   5.398 -0.4337 -0.6499 -0.0968
  348MOL0     C46854   7.129  11.411   5.499 -0.4499 -0.2367 -0.3460
  348MOL0     C46855   7.077  11.546   5.428  0.4360 -0.0287  0.1311
  348MOL0     C46856   6.944  11.511   5.362  0.3751 -0.3772  0.7796
  348MOL0     C46857   6.880  11.637   5.314 -0.0039  0.2447 -1.5071
  348MOL0     C46858   6.757  11.626   5.229  0.5264  0.5713  0.7563
  348MOL0     C46859   6.705  11.766   5.184  0.2431 -0.8172  0.3006
  348MOL0     C46860   6.565  11.762   5.131 -0.0812  0.7045  0.3805
  348MOL0     C46861   6.487  11.896   5.165 -0.0982  0.0836  0.1259
  348MOL0     N46862   6.361  11.873   5.242 -0.6045  0.7683 -0.4316
  348MOL0     C46863   6.358  11.854   5.377 -0.8791 -0.4148 -0.4002
  348MOL0     C46864   6.225  11.868   5.415 -0.5465 -0.2270  0.3019
  348MOL0     C46865   6.183  11.856   5.553 -0.0187  0.6844 -0.6549
  348MOL0     C46866   6.136  11.989   5.607 -0.3901  0.0292 -0.3752
  348MOL0     C46867   5.994  12.033   5.564 -0.0490  0.2293 -0.2547
  348MOL0     C46868   5.869  11.940   5.603  0.1044  1.1486 -0.4530
  348MOL0     O46869   5.757  12.009   5.539  0.3848 -0.0541 -0.2256
  348MOL0     C46870   5.651  11.949   5.482  0.3081 -0.7170  0.1748
  348MOL0     C46871   5.550  12.033   5.432 -0.5513  0.2142 -0.0287
  348MOL0     C46872   5.433  11.978   5.378  0.8482  0.2112  0.0553
  348MOL0     C46873   5.340  12.084   5.333 -0.7771 -0.2929  0.8961
  348MOL0     C46874   5.412  11.839   5.372 -0.7084  0.2392 -0.2105
  348MOL0     C46875   5.287  11.774   5.340 -0.4872 -0.0020  0.1272
  348MOL0     O46876   5.287  11.645   5.322  0.8269 -0.1980  0.3130
  348MOL0     C46877   5.178  11.583   5.268 -0.7360 -0.0215  0.2242
  348MOL0     C46878   5.086  11.517   5.344  0.7369  0.3879  0.0964
  348MOL0     C46879   4.974  11.441   5.298 -0.3589 -0.4827  0.8279
  348MOL0     C46880   4.961  11.424   5.155  0.2746 -0.4859 -0.3963
  348MOL0     O46881   4.853  11.369   5.089 -0.0273 -0.5820  0.0684
  348MOL0     C46882   4.725  11.388   5.147 -0.2614  0.1076  0.1636
  348MOL0     C46883   4.605  11.353   5.050 -0.1625  0.0992 -0.8246
  348MOL0     C46884   4.594  11.461   4.939  0.1824 -0.6320 -0.0663
  348MOL0     C46885   4.700  11.444   4.832  0.0511  1.2829  0.2522
  348MOL0     C46886   4.643  11.484   4.693 -0.6636  0.4795 -0.3586
  348MOL0     C46887   4.743  11.419   4.600  0.7271 -0.6813  1.5103
  348MOL0     C46888   4.691  11.439   4.461  0.3778  0.2557  0.1932
  348MOL0     C46889   4.785  11.370   4.364  0.0106  0.6150 -0.0871
  348MOL0    Cl46890   4.695  11.350   4.210 -0.2851 -0.3789  0.3805
  348MOL0     C46891   5.059  11.491   5.075 -0.2050  0.7138  0.1494
  348MOL0     C46892   5.167  11.559   5.132 -0.2921  0.2712 -0.1896
  348MOL0     O46893   5.197  11.844   5.321 -0.2068 -0.3890 -1.1250
  348MOL0     C46894   5.519  11.760   5.421  0.3763 -0.5212  0.4397
  348MOL0     C46895   5.632  11.814   5.475  0.9279 -0.9239 -0.5304
  348MOL0     N46896   6.154  11.905   5.304 -0.6310  0.1303 -0.6844
  348MOL0     N46897   6.233  11.923   5.210 -0.5870  0.5416 -0.6469
  348MOL0     C46898   7.170  11.118   5.530  0.6264 -0.2873 -0.3159
  348MOL0     C46899   7.145  10.984   5.555 -0.9778  0.4940  0.7475
  348MOL0     C46900   7.075  10.573   5.614  0.8774  0.8308 -0.0600
  348MOL0     C46901   7.006  10.599   5.725 -0.0782 -0.1468  1.2612
  348MOL0     C46902   6.991  10.493   5.816 -0.5473 -0.1441 -0.7527
  348MOL0     C46903   7.045  10.365   5.800 -0.6252 -0.0966 -0.5058
  348MOL0     O46904   7.021  10.278   5.902  0.0374  0.1939  0.0414
  348MOL0     C46905   7.004  10.141   5.877 -0.5455 -0.4445  0.0104
  348MOL0     C46906   6.876  10.114   5.800  0.1193  0.3199  0.1305
  348MOL0     C46907   6.837   9.967   5.825 -0.2697  0.3535 -0.1801
  348MOL0     C46908   6.814   9.898   5.687 -1.0601 -0.4327 -0.4186
  348MOL0     C46909   6.702   9.949   5.622  0.5466  0.4385  0.6722
  348MOL0     C46910   6.598  10.000   5.581 -0.2558 -0.1623  1.3332
  348MOL0     C46911   7.114  10.330   5.691  0.9815 -1.4519  0.2063
  348MOL0     C46912   7.138  10.440   5.595 -0.0313  0.3408 -0.2521
  348MOL0     H46913   6.966  10.902   5.294  0.9215  0.4978 -0.6797
  348MOL0     H46914   6.988  11.172   5.263  3.0913  3.0015  1.2505
  348MOL0     H46915   7.068  11.379   5.585 -0.2690  3.4990  1.3460
  348MOL0     H46916   7.233  11.429   5.526 -0.9200  3.6208 -0.5278
  348MOL0     H46917   7.066  11.617   5.510  0.0834  0.6971 -0.5334
  348MOL0     H46918   7.149  11.584   5.355 -0.2693  0.7343 -0.1817
  348MOL0     H46919   6.967  11.452   5.273  1.7976 -1.8783  2.0761
  348MOL0     H46920   6.877  11.458   5.431  0.8333 -0.4075  1.2061
  348MOL0     H46921   6.842  11.691   5.401  2.8949  0.1114 -0.0595
  348MOL0     H46922   6.940  11.713   5.264 -1.4927  2.2370 -0.4298
  348MOL0     H46923   6.777  11.557   5.146  1.2146  1.4425  0.1876
  348MOL0     H46924   6.680  11.574   5.287 -0.1548 -0.3321 -0.8722
  348MOL0     H46925   6.718  11.827   5.275  1.7434 -1.2576  0.4110
  348MOL0     H46926   6.767  11.812   5.106 -3.9981  3.7203 -0.9101
  348MOL0     H46927   6.570  11.737   5.025 -1.0023  0.8336  0.2938
  348MOL0     H46928   6.513  11.682   5.186  1.6663 -0.5405  0.2823
  348MOL0     H46929   6.456  11.953   5.077 -1.6790 -0.2767  0.4326
  348MOL0     H46930   6.559  11.964   5.212  1.6517 -0.4352 -1.6372
  348MOL0     H46931   6.449  11.834   5.433 -0.4262 -1.3285 -1.4269
  348MOL0     H46932   6.098  11.789   5.569  0.7458 -0.0465  0.5424
  348MOL0     H46933   6.266  11.825   5.618 -0.6630  0.9889  0.3358
  348MOL0     H46934   6.206  12.072   5.597  2.5756 -1.6555  3.6659
  348MOL0     H46935   6.138  11.992   5.716  2.8300  0.5359 -0.3687
  348MOL0     H46936   6.002  12.048   5.456  3.6722 -0.6546 -0.2455
  348MOL0     H46937   5.979  12.134   5.603  0.8068  1.6520 -3.3092
  348MOL0     H46938   5.861  11.911   5.708 -2.0544  0.4538 -0.7743
  348MOL0     H46939   5.891  11.843   5.558 -2.4581  0.3525 -0.0908
  348MOL0     H46940   5.556  12.142   5.436 -0.9716  0.3863 -2.5075
  348MOL0     H46941   5.279  12.062   5.245  1.9154  0.2220 -1.2308
  348MOL0     H46942   5.280  12.120   5.418 -2.7813 -0.3909 -0.3961
  348MOL0     H46943   5.403  12.149   5.272  0.8655 -2.7499 -0.1657
  348MOL0     H46944   5.089  11.530   5.452  0.6722 -0.2106  0.1729
  348MOL0     H46945   4.915  11.397   5.378  1.6529  1.2026  3.3960
  348MOL0     H46946   4.715  11.335   5.243 -0.9810  2.7351  1.6529
  348MOL0     H46947   4.714  11.493   5.176 -0.4511 -0.0042  0.5140
  348MOL0     H46948   4.630  11.255   5.008 -0.5869 -0.0697 -0.6865
  348MOL0     H46949   4.512  11.352   5.108  0.5508  5.5719  0.8958
  348MOL0     H46950   4.578  11.562   4.980 -3.1170 -0.7589 -0.7936
  348MOL0     H46951   4.503  11.437   4.885  1.9300  0.4608 -3.8045
  348MOL0     H46952   4.793  11.491   4.865  1.0108 -1.6081  1.9713
  348MOL0     H46953   4.721  11.337   4.836 -3.6971  0.2335  7.5736
  348MOL0     H46954   4.647  11.593   4.684  1.6746  0.7578  2.5408
  348MOL0     H46955   4.540  11.454   4.674 -1.1141  1.7196  0.0233
  348MOL0     H46956   4.844  11.461   4.600  0.1744  0.8306 -0.6527
  348MOL0     H46957   4.740  11.311   4.617 -1.0336 -1.3869 -2.1668
  348MOL0     H46958   4.691  11.544   4.432  0.1489  0.4081  0.7255
  348MOL0     H46959   4.595  11.388   4.457  1.3862 -1.7010 -0.8865
  348MOL0     H46960   4.818  11.275   4.408  1.4643  0.4222 -1.5152
  348MOL0     H46961   4.871  11.437   4.354 -0.1038  0.7204 -0.3704
  348MOL0     H46962   5.029  11.499   4.971  1.3621 -4.6945 -1.0379
  348MOL0     H46963   5.238  11.607   5.065  0.5458 -1.7156 -0.7684
  348MOL0     H46964   5.518  11.652   5.424  4.3569 -0.9698 -3.3060
  348MOL0     H46965   5.689  11.742   5.533 -0.9180 -2.4531 -0.5058
  348MOL0     H46966   7.252  11.165   5.583  0.8258 -2.6578  1.6440
  348MOL0     H46967   7.191  10.938   5.641  1.1488 -0.0605 -0.6026
  348MOL0     H46968   6.954  10.693   5.742 -0.1487  0.1559 -0.3918
  348MOL0     H46969   6.935  10.513   5.907  2.1266 -2.2449  1.5704
  348MOL0     H46970   7.095  10.092   5.843 -1.3583 -2.4041  0.5192
  348MOL0     H46971   6.997  10.107   5.981 -1.0004 -0.1678  0.0783
  348MOL0     H46972   6.893  10.124   5.693 -0.0283 -2.1896 -0.1686
  348MOL0     H46973   6.795  10.184   5.827  2.7298  2.6928  2.5295
  348MOL0     H46974   6.741   9.958   5.878 -1.1563 -2.5370 -2.0025
  348MOL0     H46975   6.912   9.911   5.881  1.3681 -1.8241 -4.1418
  348MOL0     H46976   6.811   9.789   5.688 -0.0022 -0.4725 -1.1099
  348MOL0     H46977   6.906   9.917   5.633 -0.8061  1.4768  0.6059
  348MOL0     H46978   6.512  10.054   5.548  0.8421  1.2651  0.6888
  348MOL0     H46979   7.172  10.238   5.693  2.6790 -0.4386  2.9154
  348MOL0     H46980   7.196  10.431   5.503  2.0796  1.4325  0.9055
  349MOL0     O46981   4.844   2.239   4.229 -0.3179 -0.1193 -0.7683
  349MOL0     C46982   4.723   2.257   4.212 -0.1349  0.5373  0.2531
  349MOL0     O46983   4.667   2.367   4.147  0.2573 -0.4112 -0.1705
  349MOL0     C46984   4.727   2.491   4.147 -0.1098 -0.2684 -0.6512
  349MOL0     C46985   4.717   2.574   4.033  0.1601 -0.4381 -0.5937
  349MOL0     C46986   4.807   2.679   4.017 -0.6052 -0.9441 -0.9078
  349MOL0     C46987   4.896   2.720   4.117  0.9911  0.0954 -0.0844
  349MOL0     O46988   4.981   2.822   4.088 -0.3847 -0.0227  0.1856
  349MOL0     C46989   4.994   2.911   4.196  0.2547 -0.8820 -0.1600
  349MOL0     C46990   5.099   3.018   4.158 -0.3758  0.0715  0.3125
  349MOL0     C46991   5.197   3.037   4.277  0.6561  0.1787  0.9871
  349MOL0     C46992   5.306   3.138   4.236 -0.3013 -0.0737 -0.5740
  349MOL0     C46993   5.264   3.285   4.273  0.4721  0.0809  0.3518
  349MOL0     C46994   5.373   3.382   4.240 -0.3514 -0.3190  0.4960
  349MOL0     C46995   5.436   3.418   4.380 -0.7780  0.4235 -0.0938
  349MOL0     C46996   5.583   3.474   4.363  0.0928  0.1334 -0.7159
  349MOL0     N46997   5.664   3.472   4.484  0.6870  0.2195  0.6188
  349MOL0     C46998   5.713   3.353   4.547 -0.4193 -0.2160 -0.4381
  349MOL0     C46999   5.785   3.400   4.648 -0.2964  0.1949 -0.4720
  349MOL0     C47000   5.862   3.342   4.763  0.5335 -0.6467 -0.2177
  349MOL0     C47001   5.802   3.217   4.820 -0.3891  0.3716  0.6947
  349MOL0     C47002   5.830   3.196   4.974 -0.0792 -0.3494  0.2392
  349MOL0     C47003   5.974   3.178   5.008 -1.1587  0.3070  0.3394
  349MOL0     O47004   6.052   3.079   4.932  0.3666 -0.6944 -0.6879
  349MOL0     C47005   6.182   3.066   4.968  0.5531  0.2799 -0.5638
  349MOL0     C47006   6.243   3.141   5.068 -0.7958  0.2418 -0.1497
  349MOL0     C47007   6.377   3.110   5.103  1.0179 -0.0711  0.1779
  349MOL0     C47008   6.439   3.212   5.192  0.8423  0.3003 -0.0363
  349MOL0     C47009   6.442   3.006   5.029 -0.0841 -0.8134 -0.7011
  349MOL0     C47010   6.587   2.979   5.052 -0.1242  1.0777 -0.3564
  349MOL0     O47011   6.661   3.044   5.152  0.0254  0.0783 -0.2662
  349MOL0     C47012   6.798   3.023   5.137 -0.0866  0.5732 -0.4299
  349MOL0     C47013   6.890   3.102   5.056 -0.1018 -0.1877 -0.5752
  349MOL0     C47014   7.023   3.080   5.059  0.6363  0.7067  0.2512
  349MOL0     C47015   7.075   2.971   5.129 -0.0266  0.4308 -0.6101
  349MOL0     O47016   7.211   2.940   5.121 -0.0738  0.1308  0.4504
  349MOL0     C47017   7.263   2.810   5.146 -0.5889  0.0360  0.4882
  349MOL0     C47018   7.413   2.821   5.173  0.6049 -0.0417 -0.3653
  349MOL0     C47019   7.458   2.684   5.239 -0.2816  0.1804 -0.0704
  349MOL0     C47020   7.454   2.562   5.150 -0.7822  0.1719  0.3210
  349MOL0     C47021   7.505   2.439   5.236  0.7745 -0.1440  0.5444
  349MOL0     C47022   7.647   2.457   5.287 -1.3139  0.8310 -0.5874
  349MOL0     C47023   7.712   2.322   5.329 -1.0076 -0.8258  0.7308
  349MOL0     C47024   7.866   2.327   5.369 -1.2323  0.0964  1.3476
  349MOL0    Cl47025   7.960   2.412   5.236  0.0833  0.4928 -0.3876
  349MOL0     C47026   6.986   2.890   5.210  0.4293  0.4230 -0.4277
  349MOL0     C47027   6.847   2.914   5.210  0.8213 -0.7298  0.4600
  349MOL0     O47028   6.646   2.924   4.953 -0.5772  0.0757  1.2775
  349MOL0     C47029   6.372   2.937   4.929 -0.9016  0.1748  0.9617
  349MOL0     C47030   6.241   2.968   4.900  0.3092  0.7758  0.1050
  349MOL0     N47031   5.770   3.538   4.652  0.0061  0.0142 -0.3987
  349MOL0     N47032   5.705   3.581   4.554 -0.0352 -0.6964  0.6214
  349MOL0     C47033   4.903   2.639   4.232 -0.1429  0.0588  1.2666
  349MOL0     C47034   4.822   2.521   4.243 -0.3437  0.1219  0.7215
  349MOL0     C47035   4.634   2.135   4.225 -0.3589 -0.7181  0.5290
  349MOL0     C47036   4.497   2.147   4.233 -1.3852  0.1761  0.8229
  349MOL0     C47037   4.418   2.034   4.228 -0.6334 -0.7485  0.2753
  349MOL0     C47038   4.469   1.902   4.221  0.2192 -0.5593  0.6738
  349MOL0     O47039   4.372   1.817   4.191 -0.5461  0.3324  0.4198
  349MOL0     C47040   4.428   1.685   4.173 -0.0018  1.1437  0.0713
  349MOL0     C47041   4.307   1.592   4.170 -0.4782  0.2352 -0.6037
  349MOL0     C47042   4.204   1.612   4.057 -0.0793  0.3985  0.2341
  349MOL0     C47043   4.243   1.567   3.913 -0.0386 -0.4862 -0.1388
  349MOL0     C47044   4.144   1.627   3.826 -0.0882  0.5832 -0.3437
  349MOL0     C47045   4.073   1.702   3.764  0.2744  0.6733  0.8169
  349MOL0     C47046   4.614   1.885   4.219  0.0328 -0.0560 -0.0809
  349MOL0     C47047   4.686   2.001   4.218 -0.5348  0.1499 -0.1402
  349MOL0     H47048   4.646   2.531   3.963 -0.6938  0.0614 -0.0499
  349MOL0     H47049   4.809   2.718   3.916 -1.5797 -0.5092 -0.7669
  349MOL0     H47050   4.898   2.959   4.217 -0.0820  0.5747 -4.2333
  349MOL0     H47051   5.030   2.860   4.286  4.2179 -1.7355 -1.9881
  349MOL0     H47052   5.143   2.991   4.061 -1.3204  3.1132 -1.0931
  349MOL0     H47053   5.049   3.114   4.145 -0.2723  0.4152  2.2272
  349MOL0     H47054   5.143   3.072   4.366  1.2116  1.0778  0.9822
  349MOL0     H47055   5.236   2.936   4.288 -0.9387 -1.1068 -3.3041
  349MOL0     H47056   5.399   3.118   4.291  0.2360 -2.7466 -2.2760
  349MOL0     H47057   5.321   3.129   4.128 -0.6509 -1.4662 -0.5324
  349MOL0     H47058   5.186   3.318   4.203  0.2415  0.8152  0.9448
  349MOL0     H47059   5.217   3.308   4.369 -1.3336  1.0720 -0.7149
  349MOL0     H47060   5.447   3.346   4.168  1.6806  5.1434 -0.6374
  349MOL0     H47061   5.326   3.470   4.195  0.4575 -0.6482 -1.0889
  349MOL0     H47062   5.364   3.497   4.407 -0.2212  1.0964 -0.5310
  349MOL0     H47063   5.442   3.336   4.451 -1.5757  0.7633  0.3885
  349MOL0     H47064   5.589   3.573   4.315  0.1169  1.0644  1.1236
  349MOL0     H47065   5.633   3.413   4.287  0.4284 -2.3544  1.3742
  349MOL0     H47066   5.693   3.253   4.509 -0.6174  0.8385 -3.4017
  349MOL0     H47067   5.965   3.319   4.736  0.6516 -1.0714  0.5685
  349MOL0     H47068   5.862   3.408   4.851  2.0107 -0.2893 -0.4616
  349MOL0     H47069   5.836   3.129   4.764  1.7969  1.4474  0.2347
  349MOL0     H47070   5.696   3.202   4.800 -0.3794 -1.3887  1.7250
  349MOL0     H47071   5.780   3.108   5.015 -1.1340  0.3630  0.5439
  349MOL0     H47072   5.794   3.287   5.024 -1.8290 -0.2088 -1.1460
  349MOL0     H47073   5.981   3.159   5.116  0.9004  0.8889  0.3484
  349MOL0     H47074   6.023   3.275   4.996 -0.2869 -0.4368 -3.2579
  349MOL0     H47075   6.193   3.222   5.121  0.7269  1.6566 -0.7972
  349MOL0     H47076   6.534   3.237   5.143  0.3611 -1.3247 -1.9247
  349MOL0     H47077   6.388   3.308   5.209  1.2491  0.0745  3.1711
  349MOL0     H47078   6.470   3.171   5.289  0.9796 -0.4695 -0.3975
  349MOL0     H47079   6.858   3.191   5.003 -3.2190 -0.8263  0.0239
  349MOL0     H47080   7.099   3.143   5.014  1.9423 -0.7879  0.2696
  349MOL0     H47081   7.207   2.758   5.224 -0.9647  0.0706  0.2416
  349MOL0     H47082   7.239   2.754   5.055 -2.4394  0.0988  0.8984
  349MOL0     H47083   7.473   2.838   5.083 -1.2429  0.0739 -1.6330
  349MOL0     H47084   7.424   2.901   5.247 -0.8766  0.7091 -0.9141
  349MOL0     H47085   7.397   2.661   5.327 -1.5729  0.0768 -0.9701
  349MOL0     H47086   7.566   2.697   5.253 -0.0044 -0.1242 -1.7368
  349MOL0     H47087   7.354   2.534   5.115 -1.1230  0.6508  0.8873
  349MOL0     H47088   7.518   2.577   5.063  0.5704  0.0579  1.2673
  349MOL0     H47089   7.488   2.353   5.170  2.1939  1.9169 -2.7670
  349MOL0     H47090   7.442   2.435   5.326 -0.7735  0.3827 -0.4641
  349MOL0     H47091   7.709   2.507   5.213 -1.3224  0.2977 -0.9564
  349MOL0     H47092   7.636   2.521   5.376 -4.0135 -0.8757  0.4497
  349MOL0     H47093   7.697   2.259   5.241  0.7967 -0.8541  0.4201
  349MOL0     H47094   7.667   2.283   5.422  0.3019 -1.1376  1.2547
  349MOL0     H47095   7.900   2.223   5.380  2.7464  0.9851 -0.6184
  349MOL0     H47096   7.882   2.386   5.459 -0.3302 -1.2704  2.1231
  349MOL0     H47097   7.035   2.830   5.286 -0.1465 -1.4079 -1.4581
  349MOL0     H47098   6.786   2.859   5.280  1.7314  0.2878  2.1254
  349MOL0     H47099   6.421   2.872   4.856  0.4812  1.5367  0.6186
  349MOL0     H47100   6.203   2.933   4.805  0.5238 -2.5400  1.1156
  349MOL0     H47101   4.978   2.647   4.310  2.3055 -0.4154 -0.8920
  349MOL0     H47102   4.830   2.464   4.335 -0.4702 -0.4125  0.4050
  349MOL0     H47103   4.456   2.248   4.229 -0.3655  0.5792 -0.2291
  349MOL0     H47104   4.311   2.051   4.216 -0.0448  1.4495 -3.3940
  349MOL0     H47105   4.494   1.670   4.087  1.7341  0.3082  1.4731
  349MOL0     H47106   4.486   1.650   4.259 -1.3708 -1.2335  0.1172
  349MOL0     H47107   4.256   1.613   4.264 -1.0824  1.4099 -1.1703
  349MOL0     H47108   4.344   1.489   4.171  3.5718  1.4429 -2.4235
  349MOL0     H47109   4.164   1.714   4.055 -2.1117 -0.3604  0.4312
  349MOL0     H47110   4.120   1.548   4.084 -1.3091  0.7307 -2.5562
  349MOL0     H47111   4.251   1.460   3.893  3.3791 -0.0369 -1.7198
  349MOL0     H47112   4.337   1.614   3.884 -0.8174 -0.0937 -2.2200
  349MOL0     H47113   4.017   1.766   3.699  3.0375  1.3017 -1.1422
  349MOL0     H47114   4.654   1.785   4.204  1.0342  0.0814  1.4167
  349MOL0     H47115   4.790   1.976   4.198 -0.8068 -0.3901 -0.9693
  350MOL0     O47116   0.987   6.715   5.427 -0.0422  0.1377  0.1234
  350MOL0     C47117   0.894   6.742   5.504  0.1219 -0.0144 -0.3992
  350MOL0     O47118   0.805   6.646   5.558  0.3537 -0.2579  0.6282
  350MOL0     C47119   0.828   6.521   5.514 -0.6441  0.1902 -0.1124
  350MOL0     C47120   0.729   6.447   5.447 -0.3611  0.0709  1.3166
  350MOL0     C47121   0.735   6.313   5.411  0.2234  0.7541 -0.1377
  350MOL0     C47122   0.846   6.240   5.458  0.4708  0.2171  0.7479
  350MOL0     O47123   0.825   6.109   5.431  0.3637  0.3348 -0.3052
  350MOL0     C47124   0.939   6.020   5.452 -0.2817 -0.1665 -0.3065
  350MOL0     C47125   0.919   5.888   5.364  0.4668  0.0973  0.3861
  350MOL0     C47126   0.775   5.847   5.321  0.8274  0.3888 -0.5736
  350MOL0     C47127   0.777   5.700   5.279 -0.5881  0.0432  0.4558
  350MOL0     C47128   0.649   5.649   5.221 -0.3138  0.3489  0.7004
  350MOL0     C47129   0.657   5.510   5.161  0.2775 -0.4841 -1.2589
  350MOL0     C47130   0.507   5.471   5.118  0.1392  0.5090  0.3616
  350MOL0     C47131   0.516   5.316   5.085  0.5153  0.5018 -0.2740
  350MOL0     N47132   0.406   5.266   5.006 -1.1868  0.1106  1.0665
  350MOL0     C47133   0.281   5.245   5.063  0.0895 -0.3221 -0.4938
  350MOL0     C47134   0.206   5.166   4.971  0.9273  0.0602  0.2453
  350MOL0     C47135   0.067   5.122   4.982  0.4665 -0.6030 -0.6850
  350MOL0     C47136   0.009   5.075   5.121 -1.2424  0.0540 -0.3286
  350MOL0     C47137  -0.128   5.023   5.086  0.2370 -0.2519 -0.0427
  350MOL0     C47138  -0.172   4.962   5.221  0.4002 -0.1903  0.1036
  350MOL0     O47139  -0.303   4.896   5.201  0.2593 -0.0630  0.3185
  350MOL0     C47140  -0.363   4.799   5.282  0.3479 -0.4867 -0.4897
  350MOL0     C47141  -0.338   4.786   5.422 -0.4634  0.8375 -0.0694
  350MOL0     C47142  -0.427   4.707   5.501  0.1053  0.3758 -0.1453
  350MOL0     C47143  -0.395   4.699   5.648 -0.1766 -0.1218 -0.0011
  350MOL0     C47144  -0.543   4.631   5.441 -0.0195  0.2816 -0.1417
  350MOL0     C47145  -0.640   4.546   5.508  0.1086  0.7212  0.0915
  350MOL0     O47146  -0.696   4.449   5.425  0.0328  0.6080 -0.4232
  350MOL0     C47147  -0.774   4.346   5.485  0.9066 -0.2344  0.1503
  350MOL0     C47148  -0.881   4.304   5.411  0.4288  0.2996 -0.7539
  350MOL0     C47149  -0.950   4.187   5.446  1.3245  0.1043  0.2295
  350MOL0     C47150  -0.910   4.111   5.559  0.3502 -0.0512 -0.1447
  350MOL0     O47151  -0.975   3.998   5.601  0.1883 -0.5647 -0.3284
  350MOL0     C47152  -1.081   3.934   5.534  0.2049 -0.6264  0.2001
  350MOL0     C47153  -1.132   3.818   5.606  0.2426 -0.1119  0.0831
  350MOL0     C47154  -1.184   3.845   5.746 -0.0975  0.0773 -0.1903
  350MOL0     C47155  -1.228   3.719   5.824  0.0500  0.6588 -0.0009
  350MOL0     C47156  -1.362   3.666   5.776 -0.7702  0.3253 -0.7452
  350MOL0     C47157  -1.470   3.721   5.861 -0.2513  0.2091  0.2667
  350MOL0     C47158  -1.600   3.664   5.803  0.3853  0.0788  0.3771
  350MOL0     C47159  -1.721   3.657   5.902  0.6630  0.6011  0.1752
  350MOL0    Cl47160  -1.874   3.630   5.820 -0.2542 -0.5028 -0.2797
  350MOL0     C47161  -0.798   4.150   5.633 -0.2500  0.1977  0.4788
  350MOL0     C47162  -0.731   4.263   5.593  0.5079 -0.6092 -1.0856
  350MOL0     O47163  -0.662   4.561   5.625  0.2782  0.8640  0.1604
  350MOL0     C47164  -0.557   4.646   5.296  0.0175 -1.0895  0.2830
  350MOL0     C47165  -0.474   4.736   5.231  0.0449  0.4596  0.6149
  350MOL0     N47166   0.288   5.152   4.862 -0.1028  0.7937 -0.3121
  350MOL0     N47167   0.403   5.211   4.883 -0.1070 -0.2128  0.1898
  350MOL0     C47168   0.946   6.308   5.528  0.1158 -0.0479  0.8412
  350MOL0     C47169   0.944   6.448   5.548 -0.5009  0.1846  0.4409
  350MOL0     C47170   0.884   6.883   5.543  1.2479 -0.6214 -0.2641
  350MOL0     C47171   0.789   6.923   5.640 -0.9329  0.1404 -0.5981
  350MOL0     C47172   0.763   7.053   5.682 -0.4692 -0.0272 -0.6881
  350MOL0     C47173   0.832   7.160   5.614  0.0577  0.3446 -0.4718
  350MOL0     O47174   0.811   7.289   5.635  0.0240  0.8049 -0.0950
  350MOL0     C47175   0.707   7.317   5.721  0.5069  0.0637 -0.6541
  350MOL0     C47176   0.726   7.472   5.723  0.8347  0.5150 -0.8288
  350MOL0     C47177   0.653   7.551   5.618  0.1917 -0.1302  0.5213
  350MOL0     C47178   0.723   7.533   5.482 -0.5415  0.4644  1.3260
  350MOL0     C47179   0.637   7.604   5.381 -0.2154 -0.3586 -0.1236
  350MOL0     C47180   0.584   7.669   5.292 -0.0395 -0.2234  0.7157
  350MOL0     C47181   0.920   7.124   5.514 -0.9184  0.3592  0.9039
  350MOL0     C47182   0.946   6.988   5.478 -1.0966 -0.1145  0.6503
  350MOL0     H47183   0.644   6.503   5.408  1.3220  2.5896  0.9900
  350MOL0     H47184   0.644   6.266   5.373 -0.0990  1.2696 -0.0044
  350MOL0     H47185   1.028   6.078   5.425 -1.6684  2.6595  0.8164
  350MOL0     H47186   0.938   5.995   5.558 -2.0456 -5.0055 -1.1932
  350MOL0     H47187   0.969   5.909   5.268  0.7944  0.6481  0.6689
  350MOL0     H47188   0.973   5.807   5.413 -0.2114  0.0249  1.0262
  350MOL0     H47189   0.687   5.853   5.385  1.0819  2.0409 -0.3324
  350MOL0     H47190   0.750   5.918   5.242  1.0817  0.3290 -0.7097
  350MOL0     H47191   0.855   5.672   5.207 -1.2748 -1.4705  0.2562
  350MOL0     H47192   0.796   5.633   5.363  2.7921 -2.3444 -1.9447
  350MOL0     H47193   0.580   5.657   5.306 -0.6188 -0.2419  0.5098
  350MOL0     H47194   0.615   5.719   5.143 -4.0772 -2.6932 -0.7177
  350MOL0     H47195   0.721   5.519   5.073  2.6717  1.6086  0.5454
  350MOL0     H47196   0.702   5.441   5.233 -0.3761  1.6854  1.3722
  350MOL0     H47197   0.435   5.487   5.199 -0.4329  0.3391 -0.1129
  350MOL0     H47198   0.476   5.529   5.032  0.2873 -0.0983 -0.1100
  350MOL0     H47199   0.527   5.263   5.180 -3.4591  0.3021  0.2252
  350MOL0     H47200   0.610   5.299   5.032  0.2781  2.3810 -1.3941
  350MOL0     H47201   0.233   5.290   5.149  2.1491  2.7089 -0.7562
  350MOL0     H47202   0.006   5.205   4.945  0.2518  0.2818  1.4753
  350MOL0     H47203   0.059   5.031   4.923  0.4436 -0.2322 -1.2612
  350MOL0     H47204   0.006   5.158   5.192 -4.0175  0.5595 -0.9170
  350MOL0     H47205   0.070   4.993   5.161  0.1134  1.2570  0.1415
  350MOL0     H47206  -0.120   4.947   5.009  2.7796  0.5063 -0.6353
  350MOL0     H47207  -0.192   5.101   5.046  1.7604  0.5011 -1.1112
  350MOL0     H47208  -0.185   5.031   5.305 -0.8434 -1.0791  0.6806
  350MOL0     H47209  -0.103   4.886   5.257  0.5238 -0.7666 -1.2988
  350MOL0     H47210  -0.250   4.826   5.471 -0.4665  1.8961 -0.8931
  350MOL0     H47211  -0.299   4.740   5.680 -1.2811  0.8790  2.2062
  350MOL0     H47212  -0.464   4.751   5.715 -0.9353 -0.8864 -0.1582
  350MOL0     H47213  -0.400   4.593   5.673 -2.0382 -0.0826 -0.0791
  350MOL0     H47214  -0.909   4.369   5.329  1.2277 -0.6575 -1.8222
  350MOL0     H47215  -1.041   4.159   5.396  1.0227 -0.8418  1.2708
  350MOL0     H47216  -1.159   4.008   5.514  2.6186  1.9447 -0.4812
  350MOL0     H47217  -1.046   3.900   5.436 -1.5703 -0.5029 -0.5072
  350MOL0     H47218  -1.212   3.772   5.548 -1.9470  0.9478  2.1097
  350MOL0     H47219  -1.050   3.745   5.606  0.1339 -0.2876  2.1371
  350MOL0     H47220  -1.272   3.910   5.751  0.6664  1.1695 -0.6783
  350MOL0     H47221  -1.108   3.902   5.799 -1.1905  3.8551 -2.3243
  350MOL0     H47222  -1.164   3.632   5.804 -1.2505  0.1797 -2.5007
  350MOL0     H47223  -1.231   3.746   5.930  3.2334 -0.5720  0.5441
  350MOL0     H47224  -1.368   3.557   5.788 -0.9991  0.3838 -0.2500
  350MOL0     H47225  -1.381   3.691   5.672 -3.1227 -1.1282 -0.7503
  350MOL0     H47226  -1.465   3.683   5.963  0.9716  3.0041  1.3475
  350MOL0     H47227  -1.471   3.830   5.855  1.3754  0.2401  0.3214
  350MOL0     H47228  -1.582   3.564   5.763 -1.5769 -0.2226  0.1513
  350MOL0     H47229  -1.629   3.722   5.714 -2.0628  0.6995  1.4777
  350MOL0     H47230  -1.726   3.748   5.962 -1.8010  0.7564 -0.1546
  350MOL0     H47231  -1.702   3.575   5.972  0.6027  0.3444 -0.1062
  350MOL0     H47232  -0.766   4.107   5.728 -0.1518 -1.2308 -0.1709
  350MOL0     H47233  -0.642   4.294   5.648 -0.8966  0.8169  0.4980
  350MOL0     H47234  -0.627   4.593   5.232  0.6379 -0.1482 -1.2260
  350MOL0     H47235  -0.491   4.758   5.126  2.3963  2.1698  0.5242
  350MOL0     H47236   1.030   6.254   5.569  1.1555  2.3287  2.0787
  350MOL0     H47237   1.025   6.496   5.604  0.0160  2.4184 -2.0227
  350MOL0     H47238   0.715   6.852   5.677 -2.3936  1.6550 -0.5056
  350MOL0     H47239   0.678   7.071   5.747 -0.7796  0.4112 -1.2078
  350MOL0     H47240   0.603   7.288   5.702 -0.3053  0.6314  2.4340
  350MOL0     H47241   0.732   7.286   5.823  2.0064 -2.1116 -1.6018
  350MOL0     H47242   0.829   7.510   5.732  0.2754  1.7283  0.9913
  350MOL0     H47243   0.677   7.505   5.815 -1.1585  1.5297 -2.1878
  350MOL0     H47244   0.656   7.654   5.656  2.1338  0.2445 -0.4985
  350MOL0     H47245   0.548   7.521   5.623  0.7195 -2.3428 -0.4988
  350MOL0     H47246   0.742   7.430   5.450 -1.3908  0.2919  1.3408
  350MOL0     H47247   0.825   7.571   5.490  0.3664 -1.1217 -1.4230
  350MOL0     H47248   0.544   7.728   5.212  1.4358  0.8844  0.7520
  350MOL0     H47249   0.972   7.208   5.470 -3.1093  1.0394 -0.5242
  350MOL0     H47250   1.014   6.971   5.395 -0.3224 -1.6603  1.5545
  351MOL0     O47251   3.378  11.127   1.110  0.2885  0.1519 -0.0084
  351MOL0     C47252   3.307  11.120   1.209  0.0543  0.2480  0.4890
  351MOL0     O47253   3.336  11.059   1.334  0.1466 -0.0991  0.1745
  351MOL0     C47254   3.466  11.023   1.352 -1.1625 -0.3420 -1.3477
  351MOL0     C47255   3.573  11.099   1.319  0.3687  0.5413  0.0723
  351MOL0     C47256   3.694  11.042   1.351 -0.9747 -0.0737 -0.9516
  351MOL0     C47257   3.723  10.926   1.429  0.5821 -0.3628 -0.5659
  351MOL0     O47258   3.840  10.874   1.472  0.5500 -0.4653  0.5976
  351MOL0     C47259   3.970  10.942   1.459 -0.0207  0.6196 -0.0325
  351MOL0     C47260   4.049  10.897   1.336 -0.5040 -0.5847 -0.3713
  351MOL0     C47261   4.190  10.968   1.335 -0.0647  0.9533 -0.3650
  351MOL0     C47262   4.289  10.888   1.431  1.1304 -0.1174 -0.1156
  351MOL0     C47263   4.418  10.958   1.463  0.2732  0.2035 -0.8685
  351MOL0     C47264   4.517  10.873   1.530  0.1006 -0.6167 -0.4686
  351MOL0     C47265   4.663  10.931   1.551  0.2744  0.4205  0.1296
  351MOL0     C47266   4.666  11.039   1.660 -0.5389 -0.2439  0.1992
  351MOL0     N47267   4.794  11.056   1.729  0.1862 -0.8253  0.5590
  351MOL0     C47268   4.870  10.967   1.804  0.4070 -0.9503  0.4988
  351MOL0     C47269   4.968  11.034   1.859  0.0929  0.7991  0.0350
  351MOL0     C47270   5.080  10.991   1.944  0.3933  0.8722  0.1326
  351MOL0     C47271   5.202  10.944   1.859  0.3541 -0.0344  0.0725
  351MOL0     C47272   5.331  10.924   1.948  0.1687 -0.9865 -0.0425
  351MOL0     C47273   5.440  10.871   1.848 -0.6599  0.0673  0.8586
  351MOL0     O47274   5.551  10.820   1.929  0.0316 -0.1838  0.1265
  351MOL0     C47275   5.619  10.701   1.889  0.8111  0.6420 -0.6356
  351MOL0     C47276   5.607  10.646   1.758  0.3868  0.0114  0.5251
  351MOL0     C47277   5.680  10.546   1.704  0.5740  0.1726  0.1003
  351MOL0     C47278   5.649  10.505   1.564 -0.2575  0.1224 -0.3973
  351MOL0     C47279   5.796  10.504   1.777  1.1867  0.3555 -0.2026
  351MOL0     C47280   5.907  10.412   1.721  0.7670 -1.0367  0.1664
  351MOL0     O47281   6.014  10.410   1.804 -0.2729  1.1756 -0.6875
  351MOL0     C47282   6.126  10.324   1.774 -0.9889  0.7533  0.5475
  351MOL0     C47283   6.261  10.371   1.760 -0.0464 -0.3722 -1.3247
  351MOL0     C47284   6.365  10.291   1.714 -0.2498  0.1262 -0.3686
  351MOL0     C47285   6.334  10.156   1.694 -0.0005 -0.1271 -0.4467
  351MOL0     O47286   6.432  10.070   1.651  0.4756 -0.0071 -0.3457
  351MOL0     C47287   6.574  10.081   1.688  0.7586  0.3440  0.3848
  351MOL0     C47288   6.647   9.955   1.634  0.3387 -0.6729  0.4889
  351MOL0     C47289   6.766   9.905   1.723  0.3926  0.4832  0.8060
  351MOL0     C47290   6.833   9.793   1.650 -0.5881 -0.2867  0.4371
  351MOL0     C47291   6.956   9.732   1.719  0.9688  0.2397 -0.3239
  351MOL0     C47292   6.905   9.661   1.845  0.2347 -0.1407 -0.5168
  351MOL0     C47293   7.018   9.589   1.924  0.0326 -0.4336  0.0531
  351MOL0     C47294   7.123   9.685   1.961  0.0818  0.3812 -0.3062
  351MOL0    Cl47295   7.048   9.827   2.057 -0.1859  0.0254 -0.4368
  351MOL0     C47296   6.212  10.100   1.719 -0.0937  0.1700 -0.3084
  351MOL0     C47297   6.103  10.182   1.756 -1.0305 -0.6551 -1.5445
  351MOL0     O47298   5.908  10.371   1.604 -0.6895 -0.5525 -0.3209
  351MOL0     C47299   5.809  10.549   1.915 -0.0064 -1.0517  0.8544
  351MOL0     C47300   5.722  10.649   1.969  0.0520  0.0575 -0.4127
  351MOL0     N47301   4.957  11.155   1.791  0.7225  0.5117  1.4024
  351MOL0     N47302   4.864  11.166   1.707  0.7656 -0.6868  0.6038
  351MOL0     C47303   3.607  10.850   1.453 -0.0753 -0.4302 -0.9547
  351MOL0     C47304   3.487  10.893   1.411 -0.2852  0.3440  0.2089
  351MOL0     C47305   3.170  11.182   1.186 -1.4631 -0.0224  0.2744
  351MOL0     C47306   3.076  11.203   1.285 -0.4260  1.0693 -0.0760
  351MOL0     C47307   2.950  11.253   1.246  0.0226  0.1033  0.1050
  351MOL0     C47308   2.913  11.292   1.114  0.4824 -0.3767 -0.6827
  351MOL0     O47309   2.796  11.351   1.096  0.8951  0.4976 -0.0479
  351MOL0     C47310   2.745  11.376   0.963  0.1315 -0.2498 -0.3390
  351MOL0     C47311   2.599  11.428   0.949 -0.9530 -0.0454  0.0804
  351MOL0     C47312   2.534  11.413   0.805 -1.2739  0.4383  0.3034
  351MOL0     C47313   2.400  11.472   0.786  0.3799 -0.3718  0.2930
  351MOL0     C47314   2.283  11.407   0.860 -0.0678 -0.5466  0.0073
  351MOL0     C47315   2.205  11.335   0.926 -0.8999 -0.1920  0.1697
  351MOL0     C47316   3.014  11.284   1.008 -1.1302  0.5566  0.4252
  351MOL0     C47317   3.136  11.214   1.047  0.2726 -0.4814 -0.2528
  351MOL0     H47318   3.562  11.196   1.271  1.4565  0.9423  0.5956
  351MOL0     H47319   3.784  11.099   1.331 -0.3607  0.5530  2.8910
  351MOL0     H47320   3.943  11.048   1.459  0.3411  0.7310  1.2607
  351MOL0     H47321   4.029  10.910   1.546 -1.1292  0.6112  0.7282
  351MOL0     H47322   4.054  10.788   1.344 -1.1074 -0.6778 -1.1779
  351MOL0     H47323   3.995  10.931   1.248 -1.2774  0.2216  0.3953
  351MOL0     H47324   4.231  10.998   1.239  2.0404  0.7173  0.4193
  351MOL0     H47325   4.179  11.068   1.377 -0.9646  0.6599  0.1421
  351MOL0     H47326   4.229  10.858   1.518  0.0097 -1.7752 -1.3984
  351MOL0     H47327   4.296  10.795   1.374 -1.1990 -0.1431 -0.4734
  351MOL0     H47328   4.447  11.007   1.370 -0.6581 -1.4470 -2.0899
  351MOL0     H47329   4.395  11.034   1.538 -0.0931  0.0609 -0.8330
  351MOL0     H47330   4.474  10.846   1.627 -0.8765  0.0048 -0.7127
  351MOL0     H47331   4.529  10.780   1.473  1.2183 -1.0264  0.3950
  351MOL0     H47332   4.729  10.846   1.568 -0.9093 -0.5780 -0.1397
  351MOL0     H47333   4.692  10.976   1.456 -3.9018 -3.4151 -3.3746
  351MOL0     H47334   4.598  11.001   1.737 -1.2454 -1.7214 -1.1062
  351MOL0     H47335   4.624  11.131   1.619  0.0476 -0.4317 -0.8438
  351MOL0     H47336   4.863  10.859   1.807  1.5459 -1.1145 -1.2474
  351MOL0     H47337   5.107  11.074   2.010  0.3048  3.0354 -2.3607
  351MOL0     H47338   5.038  10.908   2.000 -0.2892  0.5388 -0.8432
  351MOL0     H47339   5.213  11.018   1.779 -0.2522  1.4956  1.3344
  351MOL0     H47340   5.181  10.847   1.814 -5.9793  0.4749  0.9914
  351MOL0     H47341   5.302  10.854   2.027 -1.5950 -0.3933 -0.1302
  351MOL0     H47342   5.365  11.017   1.993 -1.7741 -0.1763 -0.1659
  351MOL0     H47343   5.467  10.945   1.772  0.6447  0.7833  1.9876
  351MOL0     H47344   5.393  10.790   1.791  1.5766 -1.5618  1.1788
  351MOL0     H47345   5.543  10.698   1.688  1.4622  0.1464 -0.3905
  351MOL0     H47346   5.621  10.399   1.559  1.3593 -0.4104  0.8836
  351MOL0     H47347   5.567  10.560   1.518 -1.7671  0.0818  2.1142
  351MOL0     H47348   5.736  10.520   1.498  1.0340 -3.1898  0.3383
  351MOL0     H47349   6.272  10.476   1.786  0.0100 -0.7500  0.2436
  351MOL0     H47350   6.467  10.325   1.704  0.3542 -1.2054  0.8184
  351MOL0     H47351   6.592  10.177   1.638  0.4946 -0.1962 -0.7929
  351MOL0     H47352   6.583  10.097   1.796 -0.3825  2.0967  0.2660
  351MOL0     H47353   6.583   9.872   1.602  0.6904 -1.2619  1.2739
  351MOL0     H47354   6.694   9.993   1.544  0.8942  1.5800  1.6566
  351MOL0     H47355   6.724   9.861   1.813  0.1856 -1.1494 -0.0587
  351MOL0     H47356   6.845   9.974   1.753  1.2436 -0.4457  0.7251
  351MOL0     H47357   6.756   9.720   1.623 -2.8817  2.0013  0.4703
  351MOL0     H47358   6.857   9.836   1.553  0.5160  1.4549  1.4230
  351MOL0     H47359   7.030   9.810   1.736  1.5331 -0.6234  1.4094
  351MOL0     H47360   7.011   9.653   1.666  1.1758  0.0994  0.0945
  351MOL0     H47361   6.843   9.734   1.897  1.3278  0.7712 -0.4572
  351MOL0     H47362   6.836   9.585   1.809 -2.1684  1.3717  0.6698
  351MOL0     H47363   7.060   9.505   1.868  1.4821  0.9421 -0.9948
  351MOL0     H47364   6.966   9.547   2.011  0.5015 -1.7000 -0.2531
  351MOL0     H47365   7.190   9.713   1.879  0.0361 -0.1782 -0.5412
  351MOL0     H47366   7.195   9.642   2.032 -0.7328  0.7586  0.7673
  351MOL0     H47367   6.199   9.993   1.709  2.5022 -0.2684  0.3661
  351MOL0     H47368   6.002  10.143   1.768 -0.5145 -1.3948  1.1740
  351MOL0     H47369   5.896  10.514   1.970  0.5949 -1.5067 -0.3479
  351MOL0     H47370   5.743  10.695   2.066 -0.7365 -0.9016  0.2376
  351MOL0     H47371   3.618  10.747   1.487  0.2635  0.5959  2.3612
  351MOL0     H47372   3.404  10.830   1.442  0.7866 -0.8610  0.7291
  351MOL0     H47373   3.112  11.179   1.385 -1.8991  2.4170  0.8215
  351MOL0     H47374   2.883  11.262   1.331  1.1813  2.6246  0.8571
  351MOL0     H47375   2.807  11.450   0.912 -1.1806  0.6535 -0.6649
  351MOL0     H47376   2.750  11.290   0.896 -2.2620 -0.6763 -0.0469
  351MOL0     H47377   2.585  11.529   0.988 -0.2507  0.0325  0.1404
  351MOL0     H47378   2.539  11.373   1.023 -1.7887  2.1664  1.1384
  351MOL0     H47379   2.517  11.309   0.776 -0.3904  0.6871 -1.2185
  351MOL0     H47380   2.607  11.452   0.734 -0.8201 -0.0504  0.4907
  351MOL0     H47381   2.366  11.484   0.682 -1.5717 -0.3826  0.8822
  351MOL0     H47382   2.402  11.576   0.819  0.8869  0.1838 -1.3555
  351MOL0     H47383   2.149  11.266   0.986 -0.0151 -2.2413 -1.2464
  351MOL0     H47384   2.986  11.295   0.903 -0.9019  0.3149  0.3388
  351MOL0     H47385   3.197  11.199   0.958 -1.2699 -0.8622 -1.2977
  352MOL0     O47386  10.719   3.646   6.104  0.6172 -0.3869 -0.2212
  352MOL0     C47387  10.628   3.678   6.186  0.6335 -0.0764  0.7650
  352MOL0     O47388  10.632   3.770   6.284  0.1634 -1.3353  0.0890
  352MOL0     C47389  10.743   3.853   6.323  0.0676 -0.0924  1.0147
  352MOL0     C47390  10.711   3.970   6.385 -0.5893  0.0301  0.2101
  352MOL0     C47391  10.813   4.050   6.421 -0.6778 -0.7913 -0.3635
  352MOL0     C47392  10.951   4.026   6.398 -0.7038 -0.4159 -0.1112
  352MOL0     O47393  11.041   4.114   6.453 -0.8692  0.4862 -0.0265
  352MOL0     C47394  11.177   4.117   6.389  0.2173 -1.1191  0.2307
  352MOL0     C47395  11.263   4.186   6.495 -0.0127  0.1590  0.5464
  352MOL0     C47396  11.259   4.336   6.499  0.5212 -0.9565  0.5710
  352MOL0     C47397  11.337   4.389   6.606 -0.6420 -0.4160 -0.0898
  352MOL0     C47398  11.319   4.538   6.629 -0.1057  0.8832 -0.4074
  352MOL0     C47399  11.350   4.626   6.509  0.4145 -0.2103  0.2736
  352MOL0     C47400  11.338   4.778   6.541 -0.8547  0.1663  0.9038
  352MOL0     C47401  11.206   4.830   6.596  1.0520 -0.3580  0.8963
  352MOL0     N47402  11.210   4.969   6.626  0.2695  0.1742 -0.6771
  352MOL0     C47403  11.181   5.070   6.536  0.7008  0.0169  1.4357
  352MOL0     C47404  11.208   5.181   6.610  0.7506  0.7271 -0.0871
  352MOL0     C47405  11.196   5.327   6.576  0.0606  0.4728  0.4785
  352MOL0     C47406  11.316   5.381   6.494 -0.6181  0.4002 -0.7044
  352MOL0     C47407  11.454   5.365   6.569 -0.5751 -0.0176  0.9981
  352MOL0     C47408  11.536   5.498   6.557 -0.0655  0.0665  0.3189
  352MOL0     O47409  11.562   5.504   6.416 -0.0261 -0.3071  1.0632
  352MOL0     C47410  11.623   5.408   6.334  0.3023  0.1793  0.0155
  352MOL0     C47411  11.571   5.393   6.206 -0.8720 -0.3240 -0.2848
  352MOL0     C47412  11.630   5.315   6.114  0.0657  0.5772 -0.1432
  352MOL0     C47413  11.556   5.306   5.979  0.3102 -1.0032  0.0312
  352MOL0     C47414  11.755   5.256   6.142  0.2141  1.0866 -0.4537
  352MOL0     C47415  11.839   5.198   6.039 -0.1126 -0.1949  0.1641
  352MOL0     O47416  11.913   5.092   6.061 -0.3310  0.1439 -0.2390
  352MOL0     C47417  11.968   5.030   5.961  0.1495  0.0468  0.2053
  352MOL0     C47418  11.935   4.896   5.943 -0.5979  0.7188  0.0740
  352MOL0     C47419  11.990   4.807   5.850 -0.0931  0.6214 -0.7931
  352MOL0     C47420  12.096   4.853   5.777 -0.0381 -0.2176  0.4167
  352MOL0     O47421  12.171   4.767   5.700  0.0829 -0.5863 -0.1830
  352MOL0     C47422  12.099   4.725   5.583 -0.0462  0.1533 -0.3603
  352MOL0     C47423  12.192   4.666   5.488  0.8421 -0.3196 -0.4516
  352MOL0     C47424  12.131   4.651   5.348 -0.3779  0.1248  0.1823
  352MOL0     C47425  12.157   4.777   5.255  0.0841 -0.1000 -0.8440
  352MOL0     C47426  12.078   4.763   5.131  0.1901  0.0820 -0.4033
  352MOL0     C47427  11.927   4.798   5.148  0.3694  0.3156 -0.2066
  352MOL0     C47428  11.858   4.780   5.014  0.8146 -0.4814  0.4613
  352MOL0     C47429  11.713   4.829   5.024  0.4774  0.4539 -1.2252
  352MOL0    Cl47430  11.607   4.744   5.151 -0.3621 -0.0497  0.1551
  352MOL0     C47431  12.135   4.992   5.789  0.4379  0.1396  0.3580
  352MOL0     C47432  12.070   5.076   5.881 -0.1074 -0.0630 -0.7637
  352MOL0     O47433  11.845   5.270   5.940 -0.9993  0.2489 -0.0990
  352MOL0     C47434  11.812   5.264   6.272 -0.0769 -0.2573  1.0024
  352MOL0     C47435  11.741   5.343   6.368 -0.0695  0.0670 -0.8443
  352MOL0     N47436  11.261   5.153   6.738 -0.4551  0.3490 -0.2146
  352MOL0     N47437  11.250   5.021   6.755 -0.0855 -0.2752  0.6301
  352MOL0     C47438  10.990   3.905   6.333  0.4927  0.3590  0.1099
  352MOL0     C47439  10.883   3.822   6.291  0.2115 -1.1405 -0.6926
  352MOL0     C47440  10.491   3.620   6.161  0.5019  0.3232 -0.3048
  352MOL0     C47441  10.482   3.504   6.087 -0.0482  0.7249 -0.0725
  352MOL0     C47442  10.362   3.429   6.057 -0.1614 -0.3517  1.4397
  352MOL0     C47443  10.243   3.482   6.102  0.6799  0.1893 -0.4770
  352MOL0     O47444  10.111   3.435   6.077 -0.5049 -0.3016 -0.6662
  352MOL0     C47445  10.099   3.290   6.059  0.0896 -0.1535  0.5180
  352MOL0     C47446   9.970   3.242   6.119  0.0115  0.0537  0.3632
  352MOL0     C47447   9.841   3.295   6.043 -0.4968  0.1349 -0.8817
  352MOL0     C47448   9.721   3.254   6.119 -0.2223 -0.5253  0.4554
  352MOL0     C47449   9.600   3.309   6.045  0.5679 -0.6415 -0.4567
  352MOL0     C47450   9.510   3.335   5.966  0.0704  0.2253  0.2105
  352MOL0     C47451  10.245   3.603   6.178 -0.3558 -0.1319  0.4691
  352MOL0     C47452  10.366   3.671   6.204  0.3792  0.7209 -0.0595
  352MOL0     H47453  10.605   3.992   6.399 -0.5303  1.7341 -1.6437
  352MOL0     H47454  10.800   4.149   6.464  0.9580  0.2774 -2.1665
  352MOL0     H47455  11.218   4.020   6.360  1.7535 -1.2477  2.5616
  352MOL0     H47456  11.169   4.182   6.301  0.9373  2.4883  2.6319
  352MOL0     H47457  11.229   4.145   6.590 -2.4584  0.9041  0.0716
  352MOL0     H47458  11.366   4.154   6.476 -1.5171 -4.2975 -1.6876
  352MOL0     H47459  11.292   4.376   6.403 -0.0458  0.1895  0.8337
  352MOL0     H47460  11.154   4.360   6.521  0.8393 -1.7276  3.2876
  352MOL0     H47461  11.312   4.343   6.702  2.6571 -0.1533  1.0083
  352MOL0     H47462  11.442   4.375   6.580 -0.8541 -1.1019 -0.6100
  352MOL0     H47463  11.213   4.555   6.649 -0.7077 -0.3907 -2.2183
  352MOL0     H47464  11.374   4.561   6.721 -1.0561  2.0185 -0.1030
  352MOL0     H47465  11.457   4.614   6.490  0.5284  1.4507 -0.2711
  352MOL0     H47466  11.293   4.607   6.418 -1.0201  0.6721  0.9638
  352MOL0     H47467  11.415   4.795   6.617 -2.1520 -2.1932  2.8761
  352MOL0     H47468  11.373   4.824   6.449  2.8542 -0.4161  1.8680
  352MOL0     H47469  11.177   4.772   6.684 -1.8203 -2.2022 -1.0608
  352MOL0     H47470  11.120   4.807   6.532  2.6221 -0.8353 -1.1666
  352MOL0     H47471  11.156   5.071   6.430  0.7973  1.3608  1.4038
  352MOL0     H47472  11.109   5.355   6.516 -0.3217 -0.9342  0.3473
  352MOL0     H47473  11.188   5.400   6.657 -3.0317  0.2292  0.5099
  352MOL0     H47474  11.305   5.489   6.480 -0.0633  0.6208  0.4228
  352MOL0     H47475  11.310   5.333   6.396  2.0299  0.9158 -1.1725
  352MOL0     H47476  11.504   5.278   6.525 -1.3840 -0.9015  1.7698
  352MOL0     H47477  11.425   5.348   6.673 -3.5529 -2.2176 -0.0184
  352MOL0     H47478  11.625   5.488   6.619  0.4227  4.8752  0.7768
  352MOL0     H47479  11.477   5.581   6.596 -4.0614 -2.7783  0.9501
  352MOL0     H47480  11.477   5.442   6.183 -0.3263  0.4918 -0.8052
  352MOL0     H47481  11.536   5.204   5.947  1.5231 -1.4194  0.5548
  352MOL0     H47482  11.464   5.366   5.983  0.1066 -1.3313  0.3552
  352MOL0     H47483  11.615   5.345   5.896 -1.9720  1.7159 -0.4951
  352MOL0     H47484  11.855   4.852   6.002 -0.2124 -0.3681 -0.1847
  352MOL0     H47485  11.944   4.709   5.852  0.3695  0.3606  2.7366
  352MOL0     H47486  12.018   4.654   5.604 -1.4962  2.4358  2.4159
  352MOL0     H47487  12.055   4.815   5.540  0.8908  1.0465  0.5000
  352MOL0     H47488  12.283   4.727   5.481  0.5429 -0.0044 -1.9900
  352MOL0     H47489  12.224   4.564   5.511 -2.8835 -1.4120  0.4610
  352MOL0     H47490  12.028   4.619   5.364  0.1325 -0.5529  2.4943
  352MOL0     H47491  12.188   4.572   5.297  4.1791  2.1368  1.6541
  352MOL0     H47492  12.127   4.871   5.303  0.0336  0.0241 -1.1207
  352MOL0     H47493  12.263   4.784   5.232 -0.1293  4.6020 -1.2042
  352MOL0     H47494  12.095   4.665   5.085 -0.2705 -1.0926  1.8160
  352MOL0     H47495  12.121   4.828   5.054  1.4515 -0.8743 -0.5227
  352MOL0     H47496  11.879   4.738   5.226 -0.4975  1.4023  0.1318
  352MOL0     H47497  11.918   4.901   5.185  0.2599 -0.3896  1.8489
  352MOL0     H47498  11.871   4.679   4.975  2.3542  0.0503 -0.4930
  352MOL0     H47499  11.897   4.842   4.933 -1.7305  1.7618  0.8167
  352MOL0     H47500  11.677   4.829   4.920 -1.4620 -4.3060 -0.8074
  352MOL0     H47501  11.705   4.935   5.053 -0.2804  0.6241 -1.9897
  352MOL0     H47502  12.222   5.032   5.738  0.3063 -0.1552 -0.1031
  352MOL0     H47503  12.118   5.170   5.903  2.5191 -1.7581  1.4833
  352MOL0     H47504  11.911   5.229   6.298  1.2037  0.2803 -2.5615
  352MOL0     H47505  11.782   5.367   6.466 -0.6189 -1.5043 -0.2039
  352MOL0     H47506  11.092   3.874   6.309 -0.7169 -0.9017 -4.3216
  352MOL0     H47507  10.909   3.739   6.226 -3.0091  0.2839 -4.1762
  352MOL0     H47508  10.575   3.468   6.043  0.1481 -1.6765  2.0466
  352MOL0     H47509  10.364   3.347   5.986  0.1630  0.9510 -0.1292
  352MOL0     H47510  10.115   3.263   5.954  1.4712  0.4575  0.5519
  352MOL0     H47511  10.177   3.239   6.115 -1.2370 -0.8539  1.7897
  352MOL0     H47512   9.969   3.288   6.218 -1.2081  2.6354 -0.7493
  352MOL0     H47513   9.967   3.133   6.122 -3.3399 -0.1569 -3.0514
  352MOL0     H47514   9.829   3.251   5.944 -0.0977 -0.5500 -0.6378
  352MOL0     H47515   9.833   3.402   6.060 -2.3768 -0.1729  0.4529
  352MOL0     H47516   9.731   3.299   6.218  1.2197 -1.1946  0.6425
  352MOL0     H47517   9.720   3.147   6.143 -0.4869 -0.6030  0.1044
  352MOL0     H47518   9.431   3.357   5.896  2.2190 -1.5530 -3.0537
  352MOL0     H47519  10.158   3.641   6.231 -0.2754 -0.8884  1.1664
  352MOL0     H47520  10.357   3.760   6.265 -0.3568  1.0786 -0.6684
  353MOL0     O47521   3.916   5.893   2.194 -0.1323 -0.3716 -0.4568
  353MOL0     C47522   4.017   5.834   2.186 -1.1550  0.4190 -0.8656
  353MOL0     O47523   4.112   5.809   2.287 -0.1483  0.2194  0.3166
  353MOL0     C47524   4.093   5.888   2.393  0.1363 -0.7197  0.3958
  353MOL0     C47525   4.041   5.822   2.504 -0.2207 -0.1306  0.3555
  353MOL0     C47526   4.032   5.900   2.620 -0.5001 -0.2852 -0.4914
  353MOL0     C47527   4.062   6.036   2.626 -0.0071  0.0091  0.0637
  353MOL0     O47528   4.052   6.097   2.750 -0.0365 -0.2602 -0.5507
  353MOL0     C47529   4.062   6.247   2.755  0.6618  0.3019  0.3848
  353MOL0     C47530   4.203   6.302   2.769 -0.3235  0.8066  0.1621
  353MOL0     C47531   4.261   6.295   2.906  0.5770 -0.7983 -0.2379
  353MOL0     C47532   4.186   6.401   3.003 -0.4541 -0.3739  0.3860
  353MOL0     C47533   4.268   6.398   3.134  0.5640  0.2887 -0.6057
  353MOL0     C47534   4.200   6.497   3.238  0.3430  0.2749 -0.7847
  353MOL0     C47535   4.251   6.489   3.388  0.0275  0.0776  0.0439
  353MOL0     C47536   4.199   6.598   3.477  0.2055 -0.2295 -0.0468
  353MOL0     N47537   4.219   6.569   3.616  0.8476 -0.0527 -0.3922
  353MOL0     C47538   4.299   6.640   3.696  0.1458  0.4008  0.5230
  353MOL0     C47539   4.277   6.590   3.818 -0.6675  0.2787 -1.4128
  353MOL0     C47540   4.348   6.610   3.942 -0.2140  0.2110 -0.2428
  353MOL0     C47541   4.272   6.682   4.049  0.2538  0.4165  0.2929
  353MOL0     C47542   4.350   6.709   4.176  0.1468 -0.4304 -0.6910
  353MOL0     C47543   4.264   6.753   4.293  0.9709  0.2482 -0.0776
  353MOL0     O47544   4.206   6.879   4.256 -0.5300 -0.6910 -0.1234
  353MOL0     C47545   4.251   6.993   4.317  1.0749 -0.1864  0.0808
  353MOL0     C47546   4.378   7.022   4.370 -0.3676  0.1357 -0.3012
  353MOL0     C47547   4.410   7.154   4.415  0.4164 -0.6505  0.3145
  353MOL0     C47548   4.538   7.181   4.483 -0.4889  0.2246 -0.9261
  353MOL0     C47549   4.306   7.250   4.415 -1.1738 -0.7141 -0.1985
  353MOL0     C47550   4.327   7.392   4.458  1.0890 -0.3039  0.4833
  353MOL0     O47551   4.214   7.468   4.499  0.2782 -0.4345  0.1553
  353MOL0     C47552   4.214   7.604   4.528  0.0450  0.2664 -0.2696
  353MOL0     C47553   4.263   7.665   4.647 -0.4244  0.5193 -0.0447
  353MOL0     C47554   4.268   7.799   4.662 -0.2963 -0.1155  0.3068
  353MOL0     C47555   4.208   7.876   4.564 -0.2117  1.0299  0.3765
  353MOL0     O47556   4.213   8.012   4.569 -0.3889 -0.4490 -0.5043
  353MOL0     C47557   4.307   8.078   4.480 -0.2123 -0.0100 -0.6045
  353MOL0     C47558   4.267   8.225   4.447  0.6283 -0.0474 -0.0090
  353MOL0     C47559   4.372   8.291   4.355  0.5095 -0.0039  0.5641
  353MOL0     C47560   4.333   8.428   4.293 -0.0416 -0.7067  0.0695
  353MOL0     C47561   4.230   8.422   4.181  0.0988  0.1282 -1.4710
  353MOL0     C47562   4.213   8.563   4.121 -0.7199  0.1834 -0.3848
  353MOL0     C47563   4.087   8.583   4.028 -0.7257  0.8713 -0.3637
  353MOL0     C47564   4.120   8.507   3.894 -1.2432 -0.2014  0.0030
  353MOL0    Cl47565   3.979   8.520   3.773  0.2117 -0.0309  0.0655
  353MOL0     C47566   4.146   7.820   4.449  0.1408 -0.5757 -0.6840
  353MOL0     C47567   4.148   7.683   4.434 -0.2189 -0.0536 -0.0028
  353MOL0     O47568   4.430   7.433   4.437 -0.9246 -0.6060  0.5827
  353MOL0     C47569   4.184   7.218   4.375 -0.7645  0.3694  1.1256
  353MOL0     C47570   4.157   7.098   4.320 -0.0984  0.2333  0.4426
  353MOL0     N47571   4.181   6.482   3.801 -0.7524  0.0602  0.0028
  353MOL0     N47572   4.143   6.482   3.684  0.0731  0.4084  0.4949
  353MOL0     C47573   4.110   6.100   2.509  0.4788  0.8130 -0.0805
  353MOL0     C47574   4.116   6.026   2.388  0.4515  1.3635 -0.2474
  353MOL0     C47575   4.036   5.762   2.056 -0.1815 -0.1124  0.0046
  353MOL0     C47576   4.098   5.634   2.064  0.3891  0.4388  0.4792
  353MOL0     C47577   4.123   5.557   1.950 -0.8753 -0.7344 -0.4150
  353MOL0     C47578   4.106   5.613   1.823 -0.1851 -0.5796 -1.1925
  353MOL0     O47579   4.142   5.552   1.710  0.0702 -0.3295  0.1688
  353MOL0     C47580   4.189   5.416   1.696 -0.5151 -0.1430  0.4097
  353MOL0     C47581   4.075   5.322   1.723  0.0621  0.0228 -0.0857
  353MOL0     C47582   3.962   5.316   1.615 -0.4862 -1.0660 -0.8155
  353MOL0     C47583   3.903   5.179   1.584 -0.1849  0.1615  0.0892
  353MOL0     C47584   3.901   5.086   1.700 -0.5075  1.5849 -0.4273
  353MOL0     C47585   3.898   5.023   1.804 -0.4817  0.7658  0.5957
  353MOL0     C47586   4.046   5.746   1.816 -1.0529 -0.5917  0.6854
  353MOL0     C47587   4.004   5.814   1.933  0.7917  0.6930  0.3173
  353MOL0     H47588   4.009   5.719   2.496  0.8462 -0.3042 -3.8629
  353MOL0     H47589   3.985   5.843   2.699  0.5712 -0.5399 -0.0272
  353MOL0     H47590   4.019   6.291   2.664 -1.1154 -0.5257  0.7866
  353MOL0     H47591   4.006   6.274   2.845 -2.7285 -0.7656 -1.2325
  353MOL0     H47592   4.263   6.250   2.693  0.1005  1.4411  0.0561
  353MOL0     H47593   4.211   6.406   2.736 -1.7856  1.3086  1.3404
  353MOL0     H47594   4.224   6.200   2.946 -0.8027 -1.2938 -2.5012
  353MOL0     H47595   4.369   6.307   2.891  0.5548  0.7186  0.7046
  353MOL0     H47596   4.198   6.505   2.971  1.4312 -1.0835 -1.4617
  353MOL0     H47597   4.083   6.380   3.031 -0.1126 -0.4823  1.6453
  353MOL0     H47598   4.262   6.297   3.176  1.1111  0.7766  0.7058
  353MOL0     H47599   4.372   6.421   3.109  1.3504 -3.1098 -0.9987
  353MOL0     H47600   4.219   6.596   3.194  0.1591  0.8362  0.3718
  353MOL0     H47601   4.094   6.471   3.245  0.4963  0.0422  0.9780
  353MOL0     H47602   4.230   6.390   3.431  1.5905  1.0291  3.3787
  353MOL0     H47603   4.359   6.497   3.371 -0.1277  1.3071 -0.4773
  353MOL0     H47604   4.094   6.618   3.451  0.3498 -1.5103 -1.8261
  353MOL0     H47605   4.243   6.695   3.454  2.5263 -1.7861 -2.9282
  353MOL0     H47606   4.357   6.725   3.662  0.8129 -0.0865  0.4227
  353MOL0     H47607   4.363   6.508   3.979  2.6335  0.8856  0.7525
  353MOL0     H47608   4.447   6.654   3.926 -1.4445  3.2650 -0.1887
  353MOL0     H47609   4.172   6.638   4.057  1.6773 -3.5847 -1.1649
  353MOL0     H47610   4.244   6.781   4.013  0.3243  0.3524  0.0598
  353MOL0     H47611   4.411   6.796   4.152 -3.8476  2.3528 -1.9001
  353MOL0     H47612   4.414   6.627   4.209  1.9871  0.5964 -1.5484
  353MOL0     H47613   4.316   6.760   4.389 -1.7243 -2.5727  1.7646
  353MOL0     H47614   4.185   6.681   4.318 -1.6100  2.0467 -2.3991
  353MOL0     H47615   4.454   6.945   4.378  0.1327  0.5153 -1.3041
  353MOL0     H47616   4.609   7.099   4.467 -0.1505 -0.1540  1.9658
  353MOL0     H47617   4.581   7.260   4.421 -0.7225  0.5066 -0.7303
  353MOL0     H47618   4.533   7.216   4.587 -0.5098 -0.0777 -0.8231
  353MOL0     H47619   4.308   7.606   4.727  0.5476  1.0857 -0.1505
  353MOL0     H47620   4.291   7.836   4.762  0.9836 -2.6947  1.0620
  353MOL0     H47621   4.404   8.091   4.530  0.2827 -1.5595 -1.0993
  353MOL0     H47622   4.334   8.018   4.392 -1.5464  0.0955 -1.1050
  353MOL0     H47623   4.167   8.225   4.404 -0.6337  3.0504  2.5134
  353MOL0     H47624   4.259   8.290   4.535 -2.4224 -1.6239  0.9931
  353MOL0     H47625   4.409   8.216   4.284 -2.5413 -0.9072 -0.2431
  353MOL0     H47626   4.460   8.309   4.418  2.0569  1.8940 -1.9691
  353MOL0     H47627   4.288   8.491   4.370  2.0482 -1.3727  1.9340
  353MOL0     H47628   4.427   8.478   4.267 -0.2929  0.8360  1.9180
  353MOL0     H47629   4.138   8.380   4.223  1.5100 -0.2755  1.4691
  353MOL0     H47630   4.275   8.357   4.104  0.6263 -0.3693 -0.7554
  353MOL0     H47631   4.207   8.635   4.202  0.0785 -1.7187  1.4712
  353MOL0     H47632   4.308   8.580   4.070 -1.3605 -1.5979 -2.3568
  353MOL0     H47633   4.080   8.687   3.996  1.1101  0.4058 -2.5984
  353MOL0     H47634   3.997   8.534   4.068  0.7182 -0.4238  1.4520
  353MOL0     H47635   4.150   8.404   3.917 -0.6061  0.4775  2.4596
  353MOL0     H47636   4.217   8.532   3.850 -0.8065  0.0169  1.0649
  353MOL0     H47637   4.094   7.887   4.381 -0.0515  0.6632  0.6208
  353MOL0     H47638   4.092   7.634   4.355 -1.7901 -1.6498  2.0124
  353MOL0     H47639   4.098   7.282   4.357 -0.1282  0.7289 -0.9198
  353MOL0     H47640   4.061   7.073   4.275  0.8813 -0.4951 -1.3318
  353MOL0     H47641   4.141   6.203   2.493  0.8146  0.3294 -3.3304
  353MOL0     H47642   4.143   6.076   2.296  1.3101  0.7416 -0.3424
  353MOL0     H47643   4.113   5.592   2.163 -2.0606  0.4865  0.9499
  353MOL0     H47644   4.164   5.457   1.960 -2.5584 -1.4986 -0.8208
  353MOL0     H47645   4.234   5.399   1.598  4.2577  1.2559  2.1035
  353MOL0     H47646   4.268   5.403   1.770  2.0469 -1.2167 -2.3030
  353MOL0     H47647   4.018   5.350   1.812 -0.6475 -3.0189  0.5198
  353MOL0     H47648   4.116   5.223   1.744 -1.9307 -1.1338 -1.3401
  353MOL0     H47649   4.010   5.362   1.528  1.8679 -1.5754  0.1346
  353MOL0     H47650   3.886   5.389   1.646  0.8858 -0.6356  1.8178
  353MOL0     H47651   3.954   5.129   1.501 -0.4540 -1.8735  1.0934
  353MOL0     H47652   3.801   5.199   1.550 -0.0018 -1.9105 -1.9128
  353MOL0     H47653   3.894   4.963   1.892 -1.7254 -0.1371 -0.0481
  353MOL0     H47654   4.024   5.797   1.723  1.0119 -0.4809  0.2240
  353MOL0     H47655   3.964   5.914   1.918  2.5217  1.2812 -0.6184
  354MOL0     O47656   4.377   2.181   6.544  0.2152  0.1908 -0.8597
  354MOL0     C47657   4.353   2.212   6.659 -0.2237 -0.2936 -0.4072
  354MOL0     O47658   4.450   2.234   6.753  0.4507  0.8782  0.1332
  354MOL0     C47659   4.585   2.206   6.735 -0.1669  0.6350 -0.0478
  354MOL0     C47660   4.639   2.077   6.733 -0.5842  0.1910  0.7148
  354MOL0     C47661   4.773   2.060   6.713  0.8270  0.0891 -0.1463
  354MOL0     C47662   4.863   2.174   6.710  0.4971  0.1940  1.0639
  354MOL0     O47663   4.999   2.166   6.700  0.2144  0.7500 -0.2731
  354MOL0     C47664   5.078   2.044   6.696  0.2010  0.0631  0.3697
  354MOL0     C47665   5.229   2.071   6.729  0.0580 -0.4193 -0.2779
  354MOL0     C47666   5.243   2.093   6.888  0.1958  0.0694  0.1749
  354MOL0     C47667   5.362   2.009   6.934  0.0404  1.1736  0.0598
  354MOL0     C47668   5.425   2.054   7.067 -0.0028  0.0650 -1.0056
  354MOL0     C47669   5.522   2.175   7.064  0.0339  1.0033  0.3644
  354MOL0     C47670   5.637   2.174   7.164 -0.0499  0.9262  0.3327
  354MOL0     C47671   5.573   2.175   7.308 -0.5656  0.7332  0.0838
  354MOL0     N47672   5.689   2.199   7.397 -0.1698  0.2605  0.2182
  354MOL0     C47673   5.743   2.111   7.486 -0.1234  0.5063 -0.4471
  354MOL0     C47674   5.825   2.173   7.567  0.6350  0.0541 -0.2237
  354MOL0     C47675   5.906   2.096   7.664  0.0233  0.0644  0.1485
  354MOL0     C47676   6.050   2.126   7.630  0.7672  0.6768  0.0017
  354MOL0     C47677   6.154   2.048   7.717  0.4634  0.0034  0.7094
  354MOL0     C47678   6.159   2.104   7.863 -0.6356  0.6811  0.3553
  354MOL0     O47679   6.237   2.223   7.883 -0.2306 -0.3103  0.3407
  354MOL0     C47680   6.380   2.219   7.881 -0.2098  0.0425  0.3584
  354MOL0     C47681   6.460   2.105   7.859  0.9209  0.3272 -0.9456
  354MOL0     C47682   6.602   2.112   7.849  0.8839 -0.3848 -0.6560
  354MOL0     C47683   6.678   1.985   7.807  0.4731 -0.5580  0.1034
  354MOL0     C47684   6.667   2.236   7.879 -0.0580  0.2816  0.3942
  354MOL0     C47685   6.812   2.257   7.887  0.5196 -0.0341  0.6339
  354MOL0     O47686   6.899   2.146   7.865  0.0881  0.0046  0.3404
  354MOL0     C47687   7.038   2.165   7.867 -0.1799  0.3689 -0.0617
  354MOL0     C47688   7.110   2.270   7.809  0.0002 -0.9150  0.3751
  354MOL0     C47689   7.253   2.268   7.823 -0.2799  0.3388  0.1571
  354MOL0     C47690   7.323   2.159   7.882  0.5922  0.7443 -0.6912
  354MOL0     O47691   7.464   2.141   7.885 -0.0178  0.0313  0.0743
  354MOL0     C47692   7.551   2.256   7.857  0.0909  0.3598  1.1228
  354MOL0     C47693   7.705   2.227   7.844  0.2794 -0.8122 -0.5594
  354MOL0     C47694   7.759   2.144   7.973 -0.4111 -0.1261 -0.6522
  354MOL0     C47695   7.844   2.238   8.054 -0.8282 -0.0294  0.3854
  354MOL0     C47696   7.885   2.180   8.191 -0.0667  0.7127  0.2408
  354MOL0     C47697   7.982   2.259   8.277  0.5045  0.6495  0.1857
  354MOL0     C47698   7.939   2.395   8.309 -0.3317  1.3403 -0.4329
  354MOL0     C47699   7.987   2.496   8.208 -0.2913 -0.7648 -0.3609
  354MOL0    Cl47700   7.912   2.659   8.258 -0.0453  0.8517  0.0484
  354MOL0     C47701   7.246   2.062   7.943  0.5811  0.4638  0.1386
  354MOL0     C47702   7.107   2.070   7.936 -0.2725 -0.4831  0.2420
  354MOL0     O47703   6.851   2.366   7.924 -0.4504  0.0358  0.2174
  354MOL0     C47704   6.579   2.348   7.894 -0.4920 -0.7487  0.8600
  354MOL0     C47705   6.444   2.337   7.900 -0.5407 -1.2991  1.2510
  354MOL0     N47706   5.819   2.307   7.528  0.3995 -1.1828 -0.7457
  354MOL0     N47707   5.746   2.324   7.424 -1.2298 -0.2522 -0.2230
  354MOL0     C47708   4.806   2.295   6.704  0.6030  0.6498 -0.2862
  354MOL0     C47709   4.667   2.313   6.713  0.1641  0.9401 -0.3654
  354MOL0     C47710   4.213   2.238   6.688 -0.3325 -1.4222  0.4733
  354MOL0     C47711   4.183   2.281   6.819  0.1228 -0.0238 -0.7070
  354MOL0     C47712   4.049   2.290   6.859  0.2573  0.0544 -0.0223
  354MOL0     C47713   3.951   2.277   6.758 -0.3740  0.6791  0.6370
  354MOL0     O47714   3.816   2.300   6.771  0.9049  0.6660  0.5941
  354MOL0     C47715   3.776   2.408   6.855 -0.2702  1.1312 -0.2374
  354MOL0     C47716   3.777   2.536   6.768  0.3385  0.5138 -0.9140
  354MOL0     C47717   3.664   2.549   6.674 -0.2326  0.4305  0.4083
  354MOL0     C47718   3.689   2.652   6.561  0.2919 -0.1328 -0.6066
  354MOL0     C47719   3.782   2.602   6.456 -0.5332 -0.8795  0.5113
  354MOL0     C47720   3.858   2.534   6.389  0.1244 -0.1699  0.8000
  354MOL0     C47721   3.983   2.225   6.634 -0.3095  0.1431  0.8803
  354MOL0     C47722   4.115   2.203   6.604  0.6462 -0.3062  0.2732
  354MOL0     H47723   4.573   1.993   6.748  0.6898 -0.5577  2.6083
  354MOL0     H47724   4.813   1.959   6.712 -0.5997 -0.5361 -3.0912
  354MOL0     H47725   5.044   1.968   6.768 -3.0361  1.6003  0.6661
  354MOL0     H47726   5.061   1.999   6.598 -1.2358  0.8645  0.2263
  354MOL0     H47727   5.280   1.983   6.688 -1.2000 -0.6721 -1.3748
  354MOL0     H47728   5.267   2.160   6.678  1.3949  0.2759  1.7748
  354MOL0     H47729   5.269   2.199   6.901  0.8330 -0.1483  0.7520
  354MOL0     H47730   5.155   2.080   6.952 -0.0631  3.6882  0.7970
  354MOL0     H47731   5.336   1.903   6.944  2.0859  0.7097  0.8914
  354MOL0     H47732   5.438   2.012   6.855  0.2248  0.0573  0.1849
  354MOL0     H47733   5.355   2.063   7.151  4.1410 -1.3356  2.9555
  354MOL0     H47734   5.480   1.962   7.090 -0.3005  0.6533  2.6282
  354MOL0     H47735   5.554   2.194   6.960 -4.8621  1.2435 -1.3689
  354MOL0     H47736   5.460   2.263   7.084 -2.9093 -1.1460  1.1682
  354MOL0     H47737   5.700   2.087   7.149  0.8840  2.0750 -3.5892
  354MOL0     H47738   5.700   2.261   7.141  2.1252 -1.0562 -1.8036
  354MOL0     H47739   5.520   2.080   7.322 -1.1478  0.3349 -3.8378
  354MOL0     H47740   5.503   2.255   7.335 -1.8323 -1.3550  3.7398
  354MOL0     H47741   5.729   2.004   7.476 -0.8826  0.5657 -0.0747
  354MOL0     H47742   5.882   2.129   7.765 -0.9170 -1.2141  0.3722
  354MOL0     H47743   5.891   1.987   7.669  1.0678 -0.0726  0.6888
  354MOL0     H47744   6.062   2.231   7.659 -0.0818  1.1335 -1.2415
  354MOL0     H47745   6.075   2.107   7.525 -1.5622  1.8955 -0.8410
  354MOL0     H47746   6.251   2.054   7.668 -0.6378 -0.8295 -1.7141
  354MOL0     H47747   6.129   1.941   7.723 -0.3287  0.1487  0.2189
  354MOL0     H47748   6.205   2.035   7.935 -0.6991  0.6355  0.3531
  354MOL0     H47749   6.060   2.121   7.908  0.5804  2.5790  2.5148
  354MOL0     H47750   6.416   2.011   7.828 -0.0482  0.3056  0.4068
  354MOL0     H47751   6.729   1.932   7.888  0.9745 -0.7825 -0.3500
  354MOL0     H47752   6.616   1.908   7.759  0.4456 -0.4416 -0.0459
  354MOL0     H47753   6.758   1.999   7.734 -0.9184  0.0738 -1.3788
  354MOL0     H47754   7.060   2.351   7.757  0.0663 -2.2117 -1.7926
  354MOL0     H47755   7.304   2.362   7.803 -2.2427  1.4579  0.0349
  354MOL0     H47756   7.519   2.292   7.759  1.3901  0.3073  0.6590
  354MOL0     H47757   7.529   2.333   7.932  0.2671  0.7553  0.7755
  354MOL0     H47758   7.723   2.169   7.753  0.9156 -0.4858 -0.6512
  354MOL0     H47759   7.768   2.316   7.834 -1.2237  0.1864 -1.5587
  354MOL0     H47760   7.832   2.068   7.943  0.9724  1.5922 -1.9025
  354MOL0     H47761   7.678   2.102   8.033 -0.9803 -2.9448 -3.1672
  354MOL0     H47762   7.934   2.265   7.998 -2.6651 -0.7123 -3.1871
  354MOL0     H47763   7.782   2.328   8.068 -2.6583 -0.9870 -1.1788
  354MOL0     H47764   7.944   2.091   8.170 -2.0969 -0.8077  0.6053
  354MOL0     H47765   7.799   2.145   8.249  0.8395  3.2547  3.4432
  354MOL0     H47766   7.989   2.197   8.367 -1.8187 -0.9618 -0.6659
  354MOL0     H47767   8.084   2.273   8.238 -0.1253  0.7403 -1.4802
  354MOL0     H47768   7.985   2.416   8.406  1.1452  0.5395 -0.9344
  354MOL0     H47769   7.832   2.392   8.335 -0.2943 -4.4378  0.5039
  354MOL0     H47770   7.956   2.479   8.105 -1.4877 -1.3410  0.0713
  354MOL0     H47771   8.096   2.504   8.203 -0.3532 -0.3372 -1.2077
  354MOL0     H47772   7.300   1.976   7.982 -0.1540 -1.3428 -2.5316
  354MOL0     H47773   7.050   1.993   7.987 -0.2373 -1.3641 -0.9953
  354MOL0     H47774   6.622   2.446   7.910  2.6629 -1.5044 -1.9044
  354MOL0     H47775   6.379   2.421   7.923 -2.4983 -1.6420 -2.4029
  354MOL0     H47776   4.883   2.371   6.701  0.3930  0.8508 -0.6774
  354MOL0     H47777   4.640   2.418   6.701  1.8044  1.1433 -3.1298
  354MOL0     H47778   4.257   2.280   6.898  1.1064  1.4205 -1.5748
  354MOL0     H47779   4.029   2.325   6.960  2.3422  2.0118 -0.2087
  354MOL0     H47780   3.681   2.403   6.908  0.9227 -1.5002  1.8826
  354MOL0     H47781   3.852   2.419   6.933 -0.1985 -1.3938  0.1274
  354MOL0     H47782   3.869   2.531   6.709  0.3203  1.4680 -1.0388
  354MOL0     H47783   3.774   2.618   6.840 -0.3775  1.0538 -1.5504
  354MOL0     H47784   3.570   2.578   6.721 -0.1429  0.6331  0.4599
  354MOL0     H47785   3.644   2.452   6.626 -0.3854 -0.2069  1.7248
  354MOL0     H47786   3.743   2.732   6.613 -1.3977  0.9894 -0.5169
  354MOL0     H47787   3.591   2.680   6.522 -0.3237 -0.0113  0.9488
  354MOL0     H47788   3.928   2.480   6.328  0.1385  0.8733 -0.1269
  354MOL0     H47789   3.907   2.226   6.556  2.5007 -1.3387 -2.1328
  354MOL0     H47790   4.129   2.163   6.504  0.7687 -0.3456  0.3056
  355MOL0     O47791   4.179  10.665   9.949 -0.0957  0.4762  0.3063
  355MOL0     C47792   4.162  10.787   9.951  1.0494 -0.1728 -1.0899
  355MOL0     O47793   4.232  10.889   9.889 -0.0013  0.2543 -0.1376
  355MOL0     C47794   4.343  10.854   9.808  0.1977 -0.2568  0.0560
  355MOL0     C47795   4.468  10.857   9.877  0.3826 -0.2430  0.3432
  355MOL0     C47796   4.585  10.825   9.818  0.4541 -0.0276 -0.4759
  355MOL0     C47797   4.588  10.783   9.686  0.7797  0.8858 -0.1920
  355MOL0     O47798   4.703  10.743   9.628 -0.0366  0.7600  0.2839
  355MOL0     C47799   4.814  10.699   9.706  0.8259  0.5341 -0.1705
  355MOL0     C47800   4.896  10.602   9.622  0.1310  0.2384  0.0739
  355MOL0     C47801   5.022  10.665   9.557 -0.4692  0.2682  0.2280
  355MOL0     C47802   5.073  10.575   9.440 -0.4178 -0.3024  0.3381
  355MOL0     C47803   5.221  10.594   9.396  0.1139 -0.2199  0.3395
  355MOL0     C47804   5.273  10.742   9.354 -0.0386  0.3763 -0.5831
  355MOL0     C47805   5.201  10.802   9.239 -1.1374 -0.4503  0.1489
  355MOL0     C47806   5.277  10.826   9.108  0.2485  0.9197  0.7431
  355MOL0     N47807   5.408  10.885   9.123 -0.7122 -0.0006 -0.3109
  355MOL0     C47808   5.452  11.016   9.150  0.2489  0.2923 -0.9360
  355MOL0     C47809   5.589  11.019   9.128 -0.1088  0.4990  0.3585
  355MOL0     C47810   5.682  11.134   9.144  0.6689 -0.8413  0.0901
  355MOL0     C47811   5.756  11.155   9.016 -0.1314  0.5024  0.1450
  355MOL0     C47812   5.843  11.279   9.008 -0.2298 -0.5839 -0.8244
  355MOL0     C47813   5.979  11.266   9.079  0.8592 -0.1124 -0.2863
  355MOL0     O47814   5.961  11.266   9.214  0.8133  0.3302 -0.1203
  355MOL0     C47815   6.048  11.207   9.295 -0.4210  0.3316 -0.3670
  355MOL0     C47816   6.012  11.126   9.410  0.0935  0.2444 -0.0563
  355MOL0     C47817   6.107  11.050   9.486 -0.2648 -0.2317 -0.3806
  355MOL0     C47818   6.051  10.982   9.614  0.2513  0.2422 -0.1886
  355MOL0     C47819   6.245  11.054   9.447  0.3375 -0.7111  0.2802
  355MOL0     C47820   6.357  10.983   9.503 -0.0681 -0.0953  0.3429
  355MOL0     O47821   6.454  10.965   9.413 -0.1367 -0.1244 -0.0672
  355MOL0     C47822   6.556  10.882   9.455  0.6885 -0.0723  0.1458
  355MOL0     C47823   6.588  10.772   9.369 -0.2200  0.0166  0.1147
  355MOL0     C47824   6.706  10.701   9.388  0.1319 -0.5181 -0.5306
  355MOL0     C47825   6.791  10.720   9.496 -0.1943 -0.4933  0.5592
  355MOL0     O47826   6.892  10.628   9.521  0.3204  0.0250 -0.1277
  355MOL0     C47827   7.008  10.669   9.599  0.3403 -0.0734  0.3702
  355MOL0     C47828   7.084  10.541   9.624 -0.2103 -0.6265  0.6940
  355MOL0     C47829   7.002  10.428   9.678  0.0483 -0.0397  0.2602
  355MOL0     C47830   7.069  10.294   9.666 -0.4728 -0.2149  0.0778
  355MOL0     C47831   6.983  10.180   9.715  0.9220 -0.8798  0.9069
  355MOL0     C47832   7.049  10.046   9.717 -0.2309  0.3887  0.3580
  355MOL0     C47833   7.117  10.028   9.849  0.2762 -0.3153  0.3351
  355MOL0     C47834   7.180   9.890   9.869  0.0580 -0.7931  0.0770
  355MOL0    Cl47835   7.303   9.876   9.742  0.1558  0.2190 -0.2420
  355MOL0     C47836   6.760  10.826   9.579  0.3473 -0.6073  0.0768
  355MOL0     C47837   6.644  10.911   9.565 -0.4309  0.7186 -0.1146
  355MOL0     O47838   6.356  10.949   9.626 -0.4534 -0.2705 -0.0666
  355MOL0     C47839   6.277  11.144   9.343  0.2705 -0.1104  0.2452
  355MOL0     C47840   6.186  11.213   9.265  0.5354 -0.3992 -0.1893
  355MOL0     N47841   5.633  10.895   9.095 -0.3012 -0.0931 -0.0069
  355MOL0     N47842   5.527  10.819   9.079  0.9215 -0.2340 -0.4778
  355MOL0     C47843   4.459  10.780   9.612 -0.4745 -0.3877 -0.1385
  355MOL0     C47844   4.344  10.817   9.676  0.3842  0.5876 -0.5873
  355MOL0     C47845   4.042  10.829  10.029  0.2052 -1.1736  0.6128
  355MOL0     C47846   4.048  10.955  10.098  0.5474 -0.3419  0.0773
  355MOL0     C47847   3.950  10.993  10.182 -0.4255 -0.0086 -1.2862
  355MOL0     C47848   3.841  10.911  10.222 -0.3385  0.2809  0.2956
  355MOL0     O47849   3.752  10.961  10.311 -0.1242  0.2303 -0.1737
  355MOL0     C47850   3.656  10.871  10.383  0.9135  0.2227 -0.4480
  355MOL0     C47851   3.612  10.947  10.502  0.4294 -0.3386 -0.0411
  355MOL0     C47852   3.734  10.980  10.590  0.2610  0.3127 -1.4499
  355MOL0     C47853   3.693  10.987  10.743  0.1405  0.2424  0.8052
  355MOL0     C47854   3.582  11.073  10.769  0.8041 -0.0608 -0.4924
  355MOL0     C47855   3.493  11.154  10.787  0.1196  0.3333 -0.2631
  355MOL0     C47856   3.832  10.787  10.153  0.3196 -0.3717 -0.1476
  355MOL0     C47857   3.930  10.747  10.061  0.0235  0.3264  0.4201
  355MOL0     H47858   4.472  10.892   9.980  1.9885 -1.5170  0.7625
  355MOL0     H47859   4.675  10.823   9.878 -0.3534 -0.3165  0.7501
  355MOL0     H47860   4.863  10.792   9.736  2.8931  0.2187 -2.2655
  355MOL0     H47861   4.779  10.653   9.799  0.5102 -0.2845 -0.6833
  355MOL0     H47862   4.933  10.521   9.686 -4.2315 -0.3451  2.1711
  355MOL0     H47863   4.831  10.555   9.548  1.0690 -2.7904  1.0254
  355MOL0     H47864   5.017  10.769   9.524  2.3490  0.3854 -0.0966
  355MOL0     H47865   5.094  10.676   9.639 -2.2604 -0.9330  2.0502
  355MOL0     H47866   5.067  10.473   9.479  2.0971 -0.7517 -0.2659
  355MOL0     H47867   5.005  10.588   9.355  1.2851 -0.4581 -1.1134
  355MOL0     H47868   5.274  10.567   9.487 -3.7470  1.2908  3.3032
  355MOL0     H47869   5.243  10.524   9.315  0.0138  2.6634 -2.4177
  355MOL0     H47870   5.254  10.806   9.440  0.8623 -1.1997  0.8408
  355MOL0     H47871   5.380  10.746   9.334  0.2798  3.4379  1.0324
  355MOL0     H47872   5.123  10.736   9.199  0.6977 -2.4914 -0.2607
  355MOL0     H47873   5.147  10.893   9.269 -0.2251 -0.0379  0.5684
  355MOL0     H47874   5.210  10.883   9.042  1.9826 -0.6127 -2.5763
  355MOL0     H47875   5.283  10.728   9.059  2.2739  0.6690  1.4143
  355MOL0     H47876   5.385  11.099   9.171 -0.4111 -0.3291 -0.5382
  355MOL0     H47877   5.625  11.224   9.169  1.9508 -0.2707  1.1147
  355MOL0     H47878   5.752  11.114   9.227 -0.7260  1.3035  1.8878
  355MOL0     H47879   5.670  11.163   8.949 -1.5063  1.9661  1.9664
  355MOL0     H47880   5.818  11.074   8.977 -1.4775 -2.0756  2.9159
  355MOL0     H47881   5.798  11.369   9.051 -0.2843 -0.9298 -0.1486
  355MOL0     H47882   5.872  11.304   8.905  1.5596  1.5927  0.1390
  355MOL0     H47883   6.042  11.353   9.059 -0.5900  0.4906 -2.7293
  355MOL0     H47884   6.037  11.177   9.051  0.3157 -1.3553  2.2211
  355MOL0     H47885   5.911  11.124   9.450 -1.0575 -3.1389 -2.7022
  355MOL0     H47886   5.988  11.051   9.671  1.1389 -0.7710  2.1952
  355MOL0     H47887   6.002  10.888   9.586  0.2483 -0.3572  1.6538
  355MOL0     H47888   6.133  10.956   9.683  0.4214 -2.6446 -1.3129
  355MOL0     H47889   6.529  10.749   9.281 -0.7502 -1.4438  0.8304
  355MOL0     H47890   6.721  10.614   9.325  0.7112 -0.2623 -0.7555
  355MOL0     H47891   7.076  10.740   9.552  0.3462 -0.4656 -0.2357
  355MOL0     H47892   6.952  10.694   9.689 -3.5389  0.9624 -2.0880
  355MOL0     H47893   7.131  10.515   9.529 -2.3590 -2.4682  0.0494
  355MOL0     H47894   7.165  10.566   9.694  1.0228 -1.7087 -0.3016
  355MOL0     H47895   6.907  10.422   9.622 -0.7747  1.1541  1.4752
  355MOL0     H47896   6.991  10.443   9.785  1.6936 -0.2690  0.4878
  355MOL0     H47897   7.086  10.274   9.560  1.5072  1.0035  0.1201
  355MOL0     H47898   7.168  10.309   9.709 -1.6708  2.5053  2.1426
  355MOL0     H47899   6.896  10.172   9.649  2.0498 -0.3969 -0.6892
  355MOL0     H47900   6.947  10.217   9.812  0.7319  0.3223  0.3995
  355MOL0     H47901   6.972   9.969   9.706 -1.3309  1.4621  0.3712
  355MOL0     H47902   7.116  10.040   9.631 -0.9974  0.4612 -0.2468
  355MOL0     H47903   7.050  10.048   9.933  1.5932  1.7930  0.9750
  355MOL0     H47904   7.194  10.103   9.869 -1.0425  0.8896  1.1263
  355MOL0     H47905   7.104   9.811   9.865 -2.7271  0.8705  6.6464
  355MOL0     H47906   7.235   9.885   9.963 -0.4227 -1.8422  0.3223
  355MOL0     H47907   6.825  10.849   9.662  0.0301 -1.3316  0.5392
  355MOL0     H47908   6.635  10.999   9.628  2.0719  0.2654  0.9998
  355MOL0     H47909   6.379  11.179   9.329  0.0048  1.8103  2.5503
  355MOL0     H47910   6.223  11.267   9.179 -0.6260 -0.9777 -1.0895
  355MOL0     H47911   4.463  10.751   9.507  2.2080 -3.1546  0.5781
  355MOL0     H47912   4.256  10.817   9.612  0.8418 -1.1220 -1.2457
  355MOL0     H47913   4.128  11.024  10.075 -0.0393  0.6428  0.9307
  355MOL0     H47914   3.949  11.090  10.232  0.1524 -0.5367 -0.2162
  355MOL0     H47915   3.571  10.864  10.313  2.4714 -0.6184 -2.3409
  355MOL0     H47916   3.700  10.774  10.408 -1.1100 -0.2896  1.4707
  355MOL0     H47917   3.547  10.877  10.555 -1.1043  0.6875 -0.4772
  355MOL0     H47918   3.548  11.033  10.480 -0.2650  0.3372  3.9044
  355MOL0     H47919   3.799  11.062  10.558 -1.5840  1.5481 -2.2597
  355MOL0     H47920   3.797  10.891  10.590 -1.1950 -0.7694 -1.9420
  355MOL0     H47921   3.783  11.022  10.795 -0.3957 -1.9883  3.4091
  355MOL0     H47922   3.681  10.880  10.763  0.2706 -0.5054 -2.5240
  355MOL0     H47923   3.422  11.229  10.814 -1.3842 -1.1115 -0.0680
  355MOL0     H47924   3.752  10.718  10.179  1.3076 -1.8248 -0.8234
  355MOL0     H47925   3.923  10.651  10.010  2.6125  0.1584  0.2870
  356MOL0     O47926   1.578   5.398   5.268 -0.1457 -0.2168 -0.8015
  356MOL0     C47927   1.600   5.311   5.186  0.2336  0.3173 -0.1909
  356MOL0     O47928   1.555   5.181   5.209 -0.0598  0.3414  0.2844
  356MOL0     C47929   1.560   5.131   5.329 -0.4999  0.3501  0.6395
  356MOL0     C47930   1.467   5.028   5.357 -0.3285 -0.5034 -0.0348
  356MOL0     C47931   1.469   4.961   5.474 -0.0764  0.5272 -0.1548
  356MOL0     C47932   1.566   4.989   5.571 -0.1848  1.1144  0.2439
  356MOL0     O47933   1.576   4.904   5.674 -0.7118  0.1557  0.1497
  356MOL0     C47934   1.556   4.968   5.798  0.2826 -0.3207  0.6461
  356MOL0     C47935   1.500   4.883   5.911  0.7331  0.3496  0.8162
  356MOL0     C47936   1.355   4.846   5.898  0.6731  0.5479  0.1177
  356MOL0     C47937   1.298   4.762   6.011  0.6764  0.8803 -0.1135
  356MOL0     C47938   1.141   4.739   6.004 -0.1350  0.0892  0.4385
  356MOL0     C47939   1.115   4.631   5.894  0.2177  0.9957  0.5488
  356MOL0     C47940   0.966   4.625   5.880 -0.9401 -0.3917 -0.2387
  356MOL0     C47941   0.930   4.512   5.772 -0.6996 -0.3606 -0.0604
  356MOL0     N47942   0.790   4.454   5.782  0.5206  1.3202 -0.0194
  356MOL0     C47943   0.733   4.417   5.898 -0.0731  1.3295 -0.5740
  356MOL0     C47944   0.614   4.366   5.860  0.6209  1.0202 -0.0187
  356MOL0     C47945   0.498   4.316   5.948  0.5348 -0.0001 -1.0945
  356MOL0     C47946   0.388   4.228   5.888 -1.4322 -0.8541 -0.0332
  356MOL0     C47947   0.464   4.096   5.851  0.5175  0.1610 -0.0588
  356MOL0     C47948   0.366   4.027   5.765 -0.6010  0.6848  0.2792
  356MOL0     O47949   0.405   3.904   5.710 -0.3646 -0.2420  0.3056
  356MOL0     C47950   0.337   3.855   5.596 -0.5511 -0.0501 -0.5953
  356MOL0     C47951   0.201   3.880   5.576 -0.5974 -0.0272 -0.5622
  356MOL0     C47952   0.125   3.792   5.498  0.1266 -0.5117 -0.2568
  356MOL0     C47953  -0.020   3.827   5.481  1.4610 -0.4261  1.1604
  356MOL0     C47954   0.187   3.683   5.439  0.0777  0.1975  0.2576
  356MOL0     C47955   0.118   3.578   5.362  0.7545  0.0369 -0.4158
  356MOL0     O47956  -0.004   3.537   5.418 -0.3252 -0.0682 -0.3549
  356MOL0     C47957  -0.074   3.437   5.360 -0.0291  0.2871 -0.2431
  356MOL0     C47958  -0.049   3.302   5.375 -0.6094 -0.2745 -0.1861
  356MOL0     C47959  -0.134   3.203   5.331  0.1440  0.3366  0.0115
  356MOL0     C47960  -0.239   3.242   5.253  0.7820 -0.3227 -0.6981
  356MOL0     O47961  -0.317   3.146   5.188 -0.4107  0.8880 -0.2027
  356MOL0     C47962  -0.452   3.178   5.152  0.3979 -0.0066 -0.5168
  356MOL0     C47963  -0.547   3.065   5.137  0.4766  0.1814 -0.2453
  356MOL0     C47964  -0.538   2.949   5.240 -0.0509 -0.8479  0.5682
  356MOL0     C47965  -0.613   2.827   5.191 -0.1881 -0.0809 -0.5681
  356MOL0     C47966  -0.758   2.821   5.241 -0.3122  0.2660 -0.5862
  356MOL0     C47967  -0.844   2.710   5.180 -0.0703 -0.0547 -0.3484
  356MOL0     C47968  -0.988   2.741   5.226 -0.8544 -0.3554 -1.0628
  356MOL0     C47969  -1.078   2.608   5.227  0.2141  0.7794 -0.5798
  356MOL0    Cl47970  -1.224   2.618   5.315  0.0200  0.0220  0.0623
  356MOL0     C47971  -0.265   3.377   5.235 -0.1341  0.1901  0.2421
  356MOL0     C47972  -0.180   3.476   5.291  0.6942 -0.0332 -0.4145
  356MOL0     O47973   0.187   3.522   5.274 -0.9615  0.1613 -0.3887
  356MOL0     C47974   0.327   3.672   5.447  0.3965  0.0259  0.8168
  356MOL0     C47975   0.400   3.756   5.532  0.0032 -0.0301 -0.6388
  356MOL0     N47976   0.596   4.382   5.727 -0.1258  0.0620  0.2033
  356MOL0     N47977   0.704   4.419   5.681  1.0248 -0.1499 -0.5360
  356MOL0     C47978   1.653   5.087   5.544 -0.0155  1.0145  0.4271
  356MOL0     C47979   1.664   5.150   5.423  0.4493 -0.3738  0.0741
  356MOL0     C47980   1.647   5.348   5.053 -0.1428 -0.2359  0.7076
  356MOL0     C47981   1.681   5.475   5.026  0.6484 -0.5041 -0.4794
  356MOL0     C47982   1.722   5.519   4.898 -0.2507  0.1030  1.0315
  356MOL0     C47983   1.752   5.428   4.795 -0.5934  0.2021 -0.1392
  356MOL0     O47984   1.801   5.454   4.669 -0.3565  0.1328 -0.1292
  356MOL0     C47985   1.806   5.590   4.616  0.7326  0.6673 -1.1422
  356MOL0     C47986   1.943   5.637   4.594 -0.0131  0.1585  0.1767
  356MOL0     C47987   1.948   5.781   4.543  0.1863 -0.4027 -0.3891
  356MOL0     C47988   2.096   5.844   4.534  0.5215 -0.2537 -0.2337
  356MOL0     C47989   2.166   5.770   4.430  0.6417 -0.9452 -0.6767
  356MOL0     C47990   2.253   5.703   4.366  0.3086 -1.3666  0.2223
  356MOL0     C47991   1.724   5.297   4.822  0.0244  0.2816 -0.1098
  356MOL0     C47992   1.671   5.256   4.948  0.2759 -0.7244 -0.3129
  356MOL0     H47993   1.405   4.996   5.274 -0.0986  2.3747 -1.4318
  356MOL0     H47994   1.407   4.871   5.481  0.1521  0.0955 -2.7765
  356MOL0     H47995   1.649   5.012   5.837  1.4796 -0.4978 -1.8046
  356MOL0     H47996   1.493   5.056   5.785 -2.1831 -2.2939 -1.8579
  356MOL0     H47997   1.557   4.790   5.914 -0.7441 -0.5895  0.9488
  356MOL0     H47998   1.511   4.931   6.009  0.5655  1.2792  0.3974
  356MOL0     H47999   1.284   4.929   5.895 -1.7405 -1.4329 -0.8529
  356MOL0     H48000   1.333   4.787   5.809 -0.3105 -3.4360  2.7649
  356MOL0     H48001   1.356   4.669   6.012  0.2490  0.5679 -1.5606
  356MOL0     H48002   1.321   4.809   6.107  0.3916 -1.1926  1.0498
  356MOL0     H48003   1.108   4.682   6.091  1.0977 -3.0980 -1.0080
  356MOL0     H48004   1.085   4.831   5.988  1.4998  1.4107  1.9635
  356MOL0     H48005   1.150   4.663   5.796 -0.9698  1.3108  0.2197
  356MOL0     H48006   1.160   4.535   5.924  1.3075  1.0884 -0.6879
  356MOL0     H48007   0.914   4.611   5.975 -3.4370 -0.3748 -1.5410
  356MOL0     H48008   0.945   4.724   5.838  3.2236  0.5921 -0.5091
  356MOL0     H48009   0.999   4.428   5.778 -0.0561  0.2822  2.7876
  356MOL0     H48010   0.948   4.551   5.671  1.1847 -3.8269 -1.2167
  356MOL0     H48011   0.764   4.429   6.001 -1.9562  1.9566 -0.0314
  356MOL0     H48012   0.539   4.259   6.033  0.5366  0.6439 -0.6575
  356MOL0     H48013   0.452   4.403   5.996 -0.7545 -2.0377  1.6761
  356MOL0     H48014   0.352   4.278   5.798  1.6677 -1.1060 -1.5456
  356MOL0     H48015   0.309   4.209   5.961 -1.9962  0.6150 -0.2296
  356MOL0     H48016   0.487   4.052   5.949 -2.4992  1.7081  1.4981
  356MOL0     H48017   0.554   4.117   5.792  0.8148 -0.5754  0.1238
  356MOL0     H48018   0.331   4.096   5.688 -2.7900 -1.5002 -0.7980
  356MOL0     H48019   0.276   4.000   5.821 -2.1992 -0.3851 -2.5892
  356MOL0     H48020   0.150   3.961   5.627 -0.5241  2.2125 -3.7673
  356MOL0     H48021  -0.035   3.935   5.484 -0.6499 -0.5887 -0.9297
  356MOL0     H48022  -0.064   3.793   5.387  0.4718  0.6838  1.1899
  356MOL0     H48023  -0.073   3.784   5.567 -1.0166  1.4212  0.6848
  356MOL0     H48024   0.040   3.279   5.433  0.5866  2.2564 -0.8747
  356MOL0     H48025  -0.139   3.096   5.348 -0.9151  0.4019  0.1832
  356MOL0     H48026  -0.502   3.234   5.232 -0.1416  0.0375 -0.8787
  356MOL0     H48027  -0.444   3.237   5.060  2.2915 -0.3659 -0.6230
  356MOL0     H48028  -0.644   3.115   5.141  0.7411  0.6976 -0.2045
  356MOL0     H48029  -0.532   3.020   5.038  0.6203  0.7504 -0.4874
  356MOL0     H48030  -0.572   2.988   5.336 -0.2798  1.3755 -0.3532
  356MOL0     H48031  -0.429   2.941   5.253  0.5113  4.3585  1.1513
  356MOL0     H48032  -0.606   2.808   5.083  3.8835  2.4477 -0.9779
  356MOL0     H48033  -0.559   2.736   5.221  1.1244  1.9713  4.2885
  356MOL0     H48034  -0.806   2.919   5.228 -0.7800  0.5179  2.4737
  356MOL0     H48035  -0.762   2.802   5.348 -3.7871  0.9721 -0.4946
  356MOL0     H48036  -0.820   2.721   5.074  2.5269 -0.6318  0.1064
  356MOL0     H48037  -0.814   2.607   5.198  0.7095  0.2539  0.2053
  356MOL0     H48038  -1.035   2.815   5.161  3.0138  1.6648 -1.8442
  356MOL0     H48039  -0.986   2.785   5.326  1.0591 -0.4348 -1.0291
  356MOL0     H48040  -1.030   2.520   5.272 -1.0569  0.8563  1.0452
  356MOL0     H48041  -1.103   2.589   5.123  1.0934  2.7304 -1.1835
  356MOL0     H48042  -0.359   3.413   5.193 -0.5394 -2.0006 -0.9137
  356MOL0     H48043  -0.207   3.581   5.294  2.4956  0.4559  0.6731
  356MOL0     H48044   0.379   3.588   5.403 -0.0743  0.9663 -1.7535
  356MOL0     H48045   0.505   3.741   5.558  0.6657  0.2332 -2.9393
  356MOL0     H48046   1.730   5.112   5.616 -0.3406  1.9377  0.4670
  356MOL0     H48047   1.736   5.231   5.422 -2.9998  3.1310  2.1340
  356MOL0     H48048   1.670   5.548   5.106 -0.3941 -1.0166 -0.1333
  356MOL0     H48049   1.732   5.625   4.879 -2.4871 -0.2474 -3.1776
  356MOL0     H48050   1.756   5.599   4.519 -2.3137 -1.5988  0.0403
  356MOL0     H48051   1.758   5.662   4.684 -0.0101  0.3147 -1.2796
  356MOL0     H48052   1.993   5.571   4.522 -0.9659  0.5254 -0.8589
  356MOL0     H48053   2.006   5.626   4.683  1.4839 -0.8940 -0.9528
  356MOL0     H48054   1.888   5.830   4.620 -0.3491 -0.1861 -0.9330
  356MOL0     H48055   1.902   5.788   4.444 -0.3311  3.2366 -0.0287
  356MOL0     H48056   2.146   5.842   4.632  0.8186 -0.8127 -0.3924
  356MOL0     H48057   2.092   5.948   4.501 -0.4095 -0.6512 -1.4310
  356MOL0     H48058   2.325   5.650   4.307  0.2562 -1.4679  0.2501
  356MOL0     H48059   1.750   5.223   4.747 -3.7109 -0.6134 -0.7375
  356MOL0     H48060   1.655   5.150   4.969  0.4846 -0.7466 -0.2642
  357MOL0     O48061   9.609   0.974   3.460  0.9358  0.2312  0.5314
  357MOL0     C48062   9.691   0.899   3.507  0.1679  0.3715 -0.4844
  357MOL0     O48063   9.676   0.760   3.506 -0.3418  0.0442 -0.5975
  357MOL0     C48064   9.559   0.698   3.471  0.1726  0.6589 -1.1024
  357MOL0     C48065   9.443   0.733   3.536  0.9654 -1.1151  1.1501
  357MOL0     C48066   9.320   0.682   3.503  0.1972 -0.4820 -0.5318
  357MOL0     C48067   9.313   0.579   3.402  0.5272 -0.4633  0.1137
  357MOL0     O48068   9.188   0.523   3.379 -0.0998  0.6588 -0.4490
  357MOL0     C48069   9.160   0.426   3.277  0.5459 -0.0686 -0.1828
  357MOL0     C48070   9.012   0.387   3.273 -0.2165  0.3493 -0.1450
  357MOL0     C48071   8.988   0.238   3.282 -0.1713 -0.0604  0.2456
  357MOL0     C48072   8.849   0.192   3.228 -0.2275 -0.5827 -1.0337
  357MOL0     C48073   8.844   0.047   3.230 -0.0837  0.0988 -0.6053
  357MOL0     C48074   8.692   0.008   3.211  0.0928 -0.7033 -1.0278
  357MOL0     C48075   8.625   0.068   3.079  0.7821  0.4317  0.3538
  357MOL0     C48076   8.479   0.014   3.091 -0.5658  0.5125  0.3322
  357MOL0     N48077   8.410   0.026   2.969  0.0586  0.3505  0.1542
  357MOL0     C48078   8.313   0.114   2.934  0.4605 -0.6276 -0.0978
  357MOL0     C48079   8.314   0.107   2.801  0.5557 -0.1837  0.1197
  357MOL0     C48080   8.252   0.226   2.722 -0.5100 -0.5635  0.0230
  357MOL0     C48081   8.362   0.317   2.659  0.9648 -0.3009  0.0164
  357MOL0     C48082   8.444   0.388   2.768  0.6777  0.4643  0.4504
  357MOL0     C48083   8.375   0.487   2.866 -0.7170  0.0512 -0.3621
  357MOL0     O48084   8.329   0.598   2.798  0.8931 -0.6652 -0.7923
  357MOL0     C48085   8.207   0.650   2.851 -0.2259  0.3547  0.6324
  357MOL0     C48086   8.206   0.742   2.958  0.5822  0.2020  0.1227
  357MOL0     C48087   8.083   0.791   3.005 -0.0601 -1.3161 -0.0624
  357MOL0     C48088   8.096   0.888   3.118 -0.6506 -0.4133  0.0579
  357MOL0     C48089   7.960   0.752   2.950  0.5649 -0.8076  0.3342
  357MOL0     C48090   7.827   0.796   3.002 -1.1230  0.1056 -0.3606
  357MOL0     O48091   7.716   0.738   2.934 -0.2363 -0.6794  0.0363
  357MOL0     C48092   7.596   0.790   2.965  0.0479 -0.2728  0.0721
  357MOL0     C48093   7.545   0.782   3.099 -0.2928 -0.7165 -0.4502
  357MOL0     C48094   7.419   0.828   3.131 -0.0063 -0.3322  0.4038
  357MOL0     C48095   7.345   0.886   3.035 -0.3398 -0.7370 -0.2858
  357MOL0     O48096   7.221   0.940   3.056  0.5925  0.3761 -0.1097
  357MOL0     C48097   7.151   0.905   3.179 -0.1538  0.0950 -0.7149
  357MOL0     C48098   7.178   1.006   3.298  0.4221  0.7829 -0.4287
  357MOL0     C48099   7.142   1.153   3.277 -0.3975  0.5841  0.0770
  357MOL0     C48100   6.999   1.182   3.233  0.4542 -0.1676  0.7947
  357MOL0     C48101   6.960   1.332   3.189 -0.3547 -0.7278 -0.2915
  357MOL0     C48102   6.954   1.421   3.314  0.7597 -0.6324 -0.2120
  357MOL0     C48103   6.828   1.387   3.402  0.2835 -0.6793  0.2371
  357MOL0     C48104   6.777   1.503   3.499  0.5091 -0.2869  0.1486
  357MOL0    Cl48105   6.618   1.440   3.573 -0.4007 -0.5119  0.5330
  357MOL0     C48106   7.393   0.903   2.904 -0.4903 -0.5397 -0.2478
  357MOL0     C48107   7.519   0.848   2.863  0.8177  0.4637  0.3018
  357MOL0     O48108   7.813   0.892   3.085  0.0929 -0.2910  0.4351
  357MOL0     C48109   7.960   0.657   2.848 -0.6785  0.3259  0.0691
  357MOL0     C48110   8.088   0.614   2.794  0.0717  0.2272  0.2623
  357MOL0     N48111   8.398   0.007   2.756 -0.8176  0.7608 -0.2453
  357MOL0     N48112   8.462  -0.040   2.863  0.3738 -0.8958 -0.0682
  357MOL0     C48113   9.427   0.536   3.333 -0.0834  0.2077 -0.0501
  357MOL0     C48114   9.549   0.595   3.371  0.4195 -0.2704 -0.3673
  357MOL0     C48115   9.827   0.954   3.548  0.7504  0.7206 -0.1205
  357MOL0     C48116   9.933   0.875   3.594  0.3566  0.1204 -0.8917
  357MOL0     C48117  10.044   0.944   3.640 -0.3777 -0.5589  0.6176
  357MOL0     C48118  10.061   1.078   3.630  0.7919 -0.9173 -0.0952
  357MOL0     O48119  10.170   1.149   3.675  0.7807  0.0197 -0.4487
  357MOL0     C48120  10.284   1.084   3.740  0.6589 -0.6017 -0.7885
  357MOL0     C48121  10.395   1.178   3.789  0.1636 -0.0201 -0.9885
  357MOL0     C48122  10.322   1.287   3.868  0.4130  0.0024  0.9121
  357MOL0     C48123  10.423   1.363   3.949  0.6399  0.0438  0.1988
  357MOL0     C48124  10.346   1.460   4.017 -0.1447  0.5040 -0.0033
  357MOL0     C48125  10.281   1.534   4.086 -0.0609  0.3013 -0.3156
  357MOL0     C48126   9.958   1.157   3.591 -0.2862 -0.5820  1.6520
  357MOL0     C48127   9.838   1.098   3.553  0.8505  0.1628  0.2651
  357MOL0     H48128   9.448   0.808   3.614 -1.0499 -0.7395  0.9500
  357MOL0     H48129   9.226   0.718   3.543  0.9740 -0.4955  1.3621
  357MOL0     H48130   9.175   0.474   3.180 -0.8116 -3.7120 -2.4038
  357MOL0     H48131   9.223   0.338   3.292  1.9499  0.5544 -2.1290
  357MOL0     H48132   8.961   0.434   3.358  2.5259 -1.0939  2.4872
  357MOL0     H48133   8.969   0.426   3.181  2.9911 -0.2413 -2.0571
  357MOL0     H48134   9.062   0.183   3.222 -1.6853 -2.8875  0.8109
  357MOL0     H48135   8.998   0.222   3.389 -1.0483  1.4732  0.5911
  357MOL0     H48136   8.781   0.226   3.306 -0.4137 -2.1142 -0.5023
  357MOL0     H48137   8.822   0.235   3.131  1.7827  0.1307 -1.3247
  357MOL0     H48138   8.894   0.003   3.142 -1.9876 -0.9817 -1.2104
  357MOL0     H48139   8.879  -0.011   3.316 -2.5864 -2.4626 -1.1688
  357MOL0     H48140   8.693  -0.101   3.211 -0.3449 -0.7804  1.8151
  357MOL0     H48141   8.629   0.031   3.297  1.3382  0.5986 -0.4262
  357MOL0     H48142   8.618   0.177   3.076  0.0761  0.3799 -0.5734
  357MOL0     H48143   8.671   0.035   2.985 -1.1954 -0.5291 -0.3367
  357MOL0     H48144   8.415   0.078   3.152 -3.4544 -1.5109 -0.3393
  357MOL0     H48145   8.474  -0.091   3.120 -0.3161 -0.0561 -1.5423
  357MOL0     H48146   8.266   0.187   2.999 -2.6522  0.0637 -2.8330
  357MOL0     H48147   8.208   0.176   2.635 -1.4240 -1.2828  0.8926
  357MOL0     H48148   8.176   0.286   2.774  0.2219 -1.3031  2.0348
  357MOL0     H48149   8.294   0.389   2.614 -1.8755 -1.9755  1.3690
  357MOL0     H48150   8.419   0.261   2.584  0.4377  2.5732 -2.7781
  357MOL0     H48151   8.525   0.440   2.716  0.3051  0.9699  0.3654
  357MOL0     H48152   8.495   0.305   2.819  1.9875  0.5186 -0.7066
  357MOL0     H48153   8.443   0.523   2.943 -1.6496  0.7972  0.1303
  357MOL0     H48154   8.293   0.432   2.914 -0.3115  1.1349  1.6758
  357MOL0     H48155   8.306   0.770   2.988  1.2429 -0.3725 -1.4028
  357MOL0     H48156   8.052   0.986   3.096  1.6385  0.4725 -0.8463
  357MOL0     H48157   8.048   0.841   3.204  1.2561  3.4951  3.6004
  357MOL0     H48158   8.200   0.906   3.145 -1.0611 -0.1794  1.5383
  357MOL0     H48159   7.595   0.734   3.182  2.9817 -1.3111 -2.5739
  357MOL0     H48160   7.403   0.809   3.237  1.4818  0.3894  0.7899
  357MOL0     H48161   7.042   0.904   3.170 -0.1378  0.7346 -0.9821
  357MOL0     H48162   7.177   0.802   3.206  0.3694  0.0625 -1.3159
  357MOL0     H48163   7.133   0.968   3.390 -0.7848 -2.5412 -2.2160
  357MOL0     H48164   7.282   1.002   3.333  0.4103  2.6508 -0.1034
  357MOL0     H48165   7.206   1.189   3.196 -2.8125  2.0309 -1.2889
  357MOL0     H48166   7.164   1.204   3.371 -1.5586 -1.6727  1.6787
  357MOL0     H48167   6.973   1.129   3.141 -1.2818  2.8892 -0.6410
  357MOL0     H48168   6.933   1.150   3.315  2.6037 -0.2217  2.5999
  357MOL0     H48169   6.869   1.340   3.129 -0.8414  3.5593  0.6644
  357MOL0     H48170   7.038   1.365   3.120  0.3568 -1.0408  0.3488
  357MOL0     H48171   7.033   1.418   3.390 -0.0828  3.3289  1.0645
  357MOL0     H48172   6.939   1.523   3.276 -2.1971 -1.3766 -1.3278
  357MOL0     H48173   6.865   1.309   3.468 -0.2578 -0.0038  1.3757
  357MOL0     H48174   6.748   1.358   3.334  0.4049 -0.8381  0.1611
  357MOL0     H48175   6.765   1.605   3.462  2.6498  0.7798  2.2178
  357MOL0     H48176   6.843   1.507   3.586 -2.5534  0.1341  2.6261
  357MOL0     H48177   7.330   0.965   2.841 -1.0245  1.4123  2.0514
  357MOL0     H48178   7.572   0.855   2.769  1.2070  1.6663  0.5933
  357MOL0     H48179   7.867   0.627   2.799 -0.1333  1.2743 -1.5915
  357MOL0     H48180   8.100   0.547   2.710  2.2874  3.4629 -2.2392
  357MOL0     H48181   9.429   0.458   3.257 -0.2218  3.4408 -3.6643
  357MOL0     H48182   9.636   0.558   3.317 -1.0420 -1.0050 -2.3213
  357MOL0     H48183   9.935   0.766   3.597  0.3188  0.0606 -2.2303
  357MOL0     H48184  10.126   0.881   3.673 -0.4155 -2.0378 -1.8707
  357MOL0     H48185  10.245   1.031   3.827 -0.0151  2.5969  1.0272
  357MOL0     H48186  10.344   1.022   3.673  1.4827 -0.0420 -0.5880
  357MOL0     H48187  10.461   1.218   3.711  2.8859  1.6377  1.9068
  357MOL0     H48188  10.459   1.129   3.863 -1.0856  1.8523  1.4568
  357MOL0     H48189  10.241   1.252   3.933  0.2495  0.4782  0.9759
  357MOL0     H48190  10.274   1.353   3.794  0.6060 -0.3852  0.4339
  357MOL0     H48191  10.497   1.401   3.877  0.0862 -1.9100 -1.4809
  357MOL0     H48192  10.478   1.297   4.016 -0.0904 -1.5716 -0.7390
  357MOL0     H48193  10.217   1.594   4.147 -1.7051 -0.0342 -1.6297
  357MOL0     H48194   9.968   1.265   3.581 -3.3275 -0.4316 -2.6650
  357MOL0     H48195   9.760   1.164   3.516  1.3139  0.0731 -0.9252
  358MOL0     O48196   5.197   3.340   8.922 -0.7207  0.1504 -0.8725
  358MOL0     C48197   5.296   3.368   8.857  0.1752 -1.4135  0.6118
  358MOL0     O48198   5.400   3.281   8.826  0.6214  0.3502  0.2997
  358MOL0     C48199   5.384   3.150   8.874  1.2726 -0.5653  0.0111
  358MOL0     C48200   5.495   3.093   8.923  0.1525  0.2464  0.9720
  358MOL0     C48201   5.506   2.959   8.962 -0.7207  0.3064 -0.0043
  358MOL0     C48202   5.388   2.881   8.963  0.3753  0.3667  1.2896
  358MOL0     O48203   5.389   2.749   9.008 -0.5069 -0.3734  0.2715
  358MOL0     C48204   5.273   2.666   9.009 -0.4450 -0.1121 -0.3345
  358MOL0     C48205   5.296   2.521   9.059  0.8125  0.7308  0.8948
  358MOL0     C48206   5.287   2.504   9.210  0.1566  0.9773 -0.0243
  358MOL0     C48207   5.138   2.548   9.271  0.3914 -0.2930 -0.3595
  358MOL0     C48208   5.108   2.497   9.412 -0.3177 -0.4194 -0.0145
  358MOL0     C48209   5.003   2.593   9.482 -0.9039 -0.2592  0.6289
  358MOL0     C48210   4.959   2.543   9.619 -0.5283  0.1056 -0.4045
  358MOL0     C48211   5.063   2.559   9.727  0.3991 -0.6152  0.2153
  358MOL0     N48212   5.011   2.565   9.861  0.3481  0.6306  0.3072
  358MOL0     C48213   4.885   2.604   9.911  0.5287  0.5589  0.2907
  358MOL0     C48214   4.905   2.619  10.041  0.1506  0.6919  0.1606
  358MOL0     C48215   4.791   2.651  10.148 -0.3496  0.0655 -0.1452
  358MOL0     C48216   4.763   2.805  10.157  0.2989 -0.1624  0.5290
  358MOL0     C48217   4.766   2.884  10.023  0.3623  0.1936  0.0715
  358MOL0     C48218   4.741   3.031  10.062 -0.4416 -0.4404  0.2686
  358MOL0     O48219   4.609   3.037  10.129  0.3851 -0.7736 -0.3115
  358MOL0     C48220   4.564   3.153  10.195  0.2789 -0.2769  0.3925
  358MOL0     C48221   4.460   3.136  10.291 -0.2601  0.1512  0.2102
  358MOL0     C48222   4.406   3.242  10.369 -0.5822  0.4229  0.1674
  358MOL0     C48223   4.301   3.200  10.466 -0.2361 -0.3285  0.0564
  358MOL0     C48224   4.470   3.372  10.361 -0.2541  0.9498  0.2343
  358MOL0     C48225   4.421   3.487  10.440 -0.2391  0.9042 -0.0324
  358MOL0     O48226   4.295   3.483  10.497  1.0287  0.3484 -0.0035
  358MOL0     C48227   4.258   3.605  10.556  0.8331  0.2238 -0.4702
  358MOL0     C48228   4.256   3.728  10.490  0.0769  0.5266  0.4704
  358MOL0     C48229   4.218   3.842  10.565 -0.0692 -0.2040 -0.9593
  358MOL0     C48230   4.178   3.834  10.698 -0.2373 -0.0739  0.4405
  358MOL0     O48231   4.142   3.951  10.757 -0.0689 -0.6748  0.1711
  358MOL0     C48232   4.013   3.946  10.819 -0.3077  0.1909  0.5089
  358MOL0     C48233   3.973   4.084  10.849  0.6980 -0.2823 -0.0605
  358MOL0     C48234   3.834   4.086  10.920  0.5729  0.4547  0.4722
  358MOL0     C48235   3.838   4.011  11.054  0.0432 -0.2690  0.3911
  358MOL0     C48236   3.701   4.019  11.119 -0.0668  0.2550  0.3445
  358MOL0     C48237   3.702   3.924  11.245  0.3565  0.1571 -1.1117
  358MOL0     C48238   3.795   3.976  11.360  0.3878 -0.0821  0.1221
  358MOL0     C48239   3.794   3.875  11.481  0.1711 -0.4259 -0.8494
  358MOL0    Cl48240   3.892   3.732  11.424 -0.0507  0.0410  0.2026
  358MOL0     C48241   4.190   3.719  10.765  0.3370  0.6417 -0.3790
  358MOL0     C48242   4.227   3.601  10.696 -0.2264  0.2526 -0.0384
  358MOL0     O48243   4.491   3.581  10.434  0.3643 -0.4831  0.4271
  358MOL0     C48244   4.564   3.387  10.253  0.8142 -0.2956 -0.1539
  358MOL0     C48245   4.607   3.279  10.177 -0.6924  0.5188 -0.0333
  358MOL0     N48246   5.034   2.599  10.073 -0.9647 -0.5655 -0.0354
  358MOL0     N48247   5.094   2.559   9.967  0.3742 -0.4325  0.1363
  358MOL0     C48248   5.267   2.942   8.920 -0.5174  0.4978 -0.2259
  358MOL0     C48249   5.263   3.071   8.874 -0.1250  0.1415  0.3937
  358MOL0     C48250   5.311   3.510   8.808 -0.0948 -0.1046 -1.0498
  358MOL0     C48251   5.245   3.613   8.885 -0.0121  0.0169  0.6934
  358MOL0     C48252   5.264   3.745   8.858 -0.4814 -0.8336  0.1076
  358MOL0     C48253   5.336   3.780   8.742 -0.3293  0.6555 -1.5859
  358MOL0     O48254   5.347   3.914   8.731 -0.4232 -0.1654 -0.0822
  358MOL0     C48255   5.389   3.970   8.597 -0.8658  0.3274 -0.8723
  358MOL0     C48256   5.391   4.123   8.588 -0.4720  0.2409 -0.0381
  358MOL0     C48257   5.461   4.213   8.692 -1.1719  0.2955  0.3177
  358MOL0     C48258   5.455   4.359   8.672  1.3923 -0.8417  0.0810
  358MOL0     C48259   5.564   4.408   8.590  0.5826 -0.1201  0.8040
  358MOL0     C48260   5.656   4.453   8.518 -1.0892  0.4835 -0.7936
  358MOL0     C48261   5.386   3.677   8.663 -0.2086  0.3169  0.1157
  358MOL0     C48262   5.382   3.548   8.701 -0.4574  0.3193  0.7473
  358MOL0     H48263   5.580   3.160   8.917  1.3980 -1.2050  1.5806
  358MOL0     H48264   5.594   2.917   9.010 -2.6346  0.4673  4.1150
  358MOL0     H48265   5.194   2.700   9.076 -0.4738 -2.8544  1.2133
  358MOL0     H48266   5.227   2.663   8.910  0.7795 -1.6061 -0.9068
  358MOL0     H48267   5.218   2.458   9.017 -0.2401  0.2352  3.4315
  358MOL0     H48268   5.398   2.494   9.031  1.2401  1.2913  1.8455
  358MOL0     H48269   5.308   2.400   9.236  3.3690  1.0358 -1.9203
  358MOL0     H48270   5.361   2.564   9.264  0.8625 -2.1626  2.8262
  358MOL0     H48271   5.120   2.655   9.281  0.0415  0.1722 -4.2616
  358MOL0     H48272   5.058   2.501   9.213  1.7590 -0.0935 -2.5275
  358MOL0     H48273   5.068   2.395   9.404 -1.8176  0.2478 -1.6867
  358MOL0     H48274   5.202   2.484   9.466  0.7604  1.1817 -1.3868
  358MOL0     H48275   5.036   2.697   9.489  1.2139 -0.7690 -0.7625
  358MOL0     H48276   4.919   2.592   9.412 -0.7690  0.7027  0.4487
  358MOL0     H48277   4.875   2.609   9.644  0.7303  1.9995 -0.9607
  358MOL0     H48278   4.948   2.434   9.615 -0.4368 -0.1243  2.8014
  358MOL0     H48279   5.118   2.653   9.710 -1.9063  0.7261 -0.3288
  358MOL0     H48280   5.137   2.480   9.727  1.4027  0.2761  1.6388
  358MOL0     H48281   4.792   2.615   9.856  0.6875 -4.8754 -1.6440
  358MOL0     H48282   4.692   2.611  10.123 -0.3384 -0.8609  1.1760
  358MOL0     H48283   4.810   2.625  10.253  0.0503 -0.1385 -0.2684
  358MOL0     H48284   4.829   2.855  10.227 -2.8192  2.5509  1.7831
  358MOL0     H48285   4.662   2.819  10.196 -0.7904  0.8739 -2.4024
  358MOL0     H48286   4.682   2.847   9.964 -1.5075  2.9558  0.7610
  358MOL0     H48287   4.863   2.880   9.973  0.0716  1.3967 -0.6402
  358MOL0     H48288   4.742   3.083   9.965  0.2953 -0.0713  0.4656
  358MOL0     H48289   4.826   3.057  10.125 -0.9083  0.3754  0.5738
  358MOL0     H48290   4.427   3.032  10.291  2.1330 -0.6879 -0.4011
  358MOL0     H48291   4.321   3.233  10.568 -2.9224  0.7123  0.3309
  358MOL0     H48292   4.213   3.258  10.438 -0.9039 -1.1196  0.4639
  358MOL0     H48293   4.280   3.092  10.469  2.3380 -0.9151 -0.4046
  358MOL0     H48294   4.285   3.746  10.387 -2.3970  2.2565 -0.0180
  358MOL0     H48295   4.211   3.936  10.511  2.2361 -1.9090 -4.6593
  358MOL0     H48296   3.934   3.906  10.756 -0.6060 -0.9844  1.6010
  358MOL0     H48297   4.016   3.892  10.914 -0.5743  0.8291  0.8906
  358MOL0     H48298   4.051   4.129  10.911 -1.0121  4.4704 -0.9205
  358MOL0     H48299   3.962   4.135  10.753 -1.3641  2.4445  1.4935
  358MOL0     H48300   3.756   4.046  10.856 -0.7364  1.7180  1.2098
  358MOL0     H48301   3.806   4.191  10.928 -0.6765  0.4406 -2.6629
  358MOL0     H48302   3.862   3.905  11.049 -2.7546 -1.1520  2.9545
  358MOL0     H48303   3.912   4.059  11.120 -0.2150 -0.7514  1.0418
  358MOL0     H48304   3.620   3.988  11.052  0.4683 -0.3089 -0.0584
  358MOL0     H48305   3.676   4.119  11.155  0.1016 -0.0452  1.3043
  358MOL0     H48306   3.601   3.903  11.281  0.6620 -0.3887 -0.5516
  358MOL0     H48307   3.747   3.833  11.207  2.0423  2.1659 -4.3261
  358MOL0     H48308   3.753   4.071  11.394  0.4297 -0.5425  1.5070
  358MOL0     H48309   3.897   3.994  11.324 -0.4575  1.9286 -1.5008
  358MOL0     H48310   3.691   3.851  11.508 -0.1219  0.8283 -0.7916
  358MOL0     H48311   3.837   3.918  11.573  1.2728 -6.7516  2.1427
  358MOL0     H48312   4.159   3.712  10.869 -0.8654  1.3612 -0.6731
  358MOL0     H48313   4.218   3.510  10.756 -1.0173 -1.2436 -2.3023
  358MOL0     H48314   4.599   3.486  10.226  0.2376  0.2869  1.1746
  358MOL0     H48315   4.684   3.295  10.102  0.5769 -0.7772  0.9250
  358MOL0     H48316   5.169   2.896   8.927 -0.0513 -0.3939  0.8480
  358MOL0     H48317   5.173   3.110   8.828  2.0196  1.3128 -3.2748
  358MOL0     H48318   5.176   3.587   8.965 -1.7919  0.3512 -0.6745
  358MOL0     H48319   5.209   3.812   8.923 -1.6191 -3.2139  1.7307
  358MOL0     H48320   5.492   3.942   8.572 -0.1690  1.6181  0.4137
  358MOL0     H48321   5.313   3.942   8.523 -0.1685  2.7153 -2.5780
  358MOL0     H48322   5.286   4.149   8.580 -0.1204  2.3735  1.3769
  358MOL0     H48323   5.429   4.153   8.489 -0.5266  1.7439  0.3608
  358MOL0     H48324   5.563   4.174   8.708 -2.2851 -2.5573  1.1570
  358MOL0     H48325   5.423   4.187   8.791 -0.0546 -2.3352  0.1636
  358MOL0     H48326   5.457   4.404   8.772 -1.4226 -2.3350  0.9085
  358MOL0     H48327   5.365   4.385   8.616  0.5387  3.5479  2.9512
  358MOL0     H48328   5.718   4.468   8.432  0.0640 -0.2170 -0.1073
  358MOL0     H48329   5.455   3.707   8.585  0.5505  0.8284  0.9656
  358MOL0     H48330   5.425   3.462   8.650 -2.0119  0.0175 -0.0972
  359MOL0     O48331   7.647   4.408   2.738  0.5397  0.2354  0.5650
  359MOL0     C48332   7.657   4.294   2.687  0.8235  0.3605 -0.6813
  359MOL0     O48333   7.546   4.212   2.658  0.4692 -0.2370 -0.0506
  359MOL0     C48334   7.431   4.241   2.726 -0.7444  0.2247  0.0962
  359MOL0     C48335   7.419   4.180   2.857 -0.7106 -1.0290  0.7129
  359MOL0     C48336   7.305   4.186   2.935 -0.8403 -0.5006 -0.3658
  359MOL0     C48337   7.193   4.258   2.880  0.0230  0.4674 -0.5933
  359MOL0     O48338   7.073   4.267   2.952  0.0968  0.2916  0.2365
  359MOL0     C48339   7.023   4.153   3.024 -0.6337  0.3416 -0.1278
  359MOL0     C48340   6.890   4.174   3.085 -0.2904 -0.5683 -0.3496
  359MOL0     C48341   6.891   4.310   3.162 -1.0515  0.4614 -0.1836
  359MOL0     C48342   6.789   4.326   3.272  0.4121 -0.4973  0.0534
  359MOL0     C48343   6.754   4.471   3.298 -0.8468  0.1702 -0.3090
  359MOL0     C48344   6.863   4.573   3.295  0.3511 -0.2046 -1.3267
  359MOL0     C48345   6.797   4.715   3.333 -1.2718 -0.3329 -0.7670
  359MOL0     C48346   6.912   4.823   3.347  0.2757  1.2811  0.1882
  359MOL0     N48347   6.858   4.956   3.356 -0.0992  0.1308 -0.1674
  359MOL0     C48348   6.921   5.057   3.421 -0.2471 -0.9147 -0.0728
  359MOL0     C48349   6.851   5.167   3.395  0.3403  0.1177  0.0123
  359MOL0     C48350   6.882   5.309   3.433 -0.5645 -0.2551 -0.5412
  359MOL0     C48351   6.812   5.354   3.564 -0.1963  0.1661 -0.1872
  359MOL0     C48352   6.666   5.308   3.567 -0.2650 -0.1039  0.2574
  359MOL0     C48353   6.575   5.383   3.459  0.0908 -0.1969 -0.1981
  359MOL0     O48354   6.575   5.521   3.503 -0.4668 -0.2127  0.1180
  359MOL0     C48355   6.470   5.587   3.444  0.0908  0.0656  0.6315
  359MOL0     C48356   6.371   5.639   3.523  0.6342 -0.5870  0.2655
  359MOL0     C48357   6.278   5.731   3.469 -0.1654 -1.1253  0.0183
  359MOL0     C48358   6.173   5.777   3.571 -0.5853 -0.2185  0.0446
  359MOL0     C48359   6.292   5.766   3.334 -0.8136 -0.0869  0.7397
  359MOL0     C48360   6.195   5.860   3.259  0.4330  0.4077 -0.0435
  359MOL0     O48361   6.167   5.816   3.132  0.3339 -0.0659 -0.4301
  359MOL0     C48362   6.043   5.854   3.074 -0.2218 -0.4740 -0.3492
  359MOL0     C48363   5.939   5.756   3.073  0.8999 -0.0946 -0.3629
  359MOL0     C48364   5.813   5.785   3.012  0.2074  0.0329  0.0118
  359MOL0     C48365   5.786   5.908   2.958  0.5782  0.2677  0.4607
  359MOL0     O48366   5.664   5.951   2.905  0.7090 -0.3618 -0.4089
  359MOL0     C48367   5.550   5.927   2.990 -0.6693 -0.0694 -0.7263
  359MOL0     C48368   5.432   5.952   2.905  1.0351  1.1416 -0.0341
  359MOL0     C48369   5.421   6.107   2.870  1.0281  0.3649 -0.4514
  359MOL0     C48370   5.335   6.137   2.753  0.0564 -0.4483 -0.6048
  359MOL0     C48371   5.307   6.295   2.754 -1.1662  0.0713  0.6410
  359MOL0     C48372   5.183   6.326   2.849 -0.4129 -0.3041 -0.2662
  359MOL0     C48373   5.133   6.465   2.835 -0.2510 -0.4016 -0.1640
  359MOL0     C48374   4.993   6.475   2.905  0.7508 -0.4861 -1.1045
  359MOL0    Cl48375   4.996   6.442   3.083  0.1284  0.0681 -0.0768
  359MOL0     C48376   5.884   6.007   2.963  0.0438 -0.1936  0.2088
  359MOL0     C48377   6.013   5.976   3.023  0.2151  0.2731 -0.4172
  359MOL0     O48378   6.152   5.962   3.310 -0.5279 -0.0088  0.5125
  359MOL0     C48379   6.390   5.705   3.247  0.6588  0.5196 -0.9595
  359MOL0     C48380   6.480   5.613   3.306 -0.4560  0.1552 -0.8015
  359MOL0     N48381   6.754   5.136   3.307  0.1667 -0.2571  0.7516
  359MOL0     N48382   6.761   5.013   3.282 -0.2858 -0.1630  0.0804
  359MOL0     C48383   7.204   4.311   2.749 -0.0203  0.3245 -0.6987
  359MOL0     C48384   7.319   4.301   2.675 -0.0220  0.8896 -0.4501
  359MOL0     C48385   7.788   4.242   2.649  0.1062 -0.8410 -0.6364
  359MOL0     C48386   7.902   4.316   2.686  0.1318  0.0059 -0.4652
  359MOL0     C48387   8.032   4.268   2.656  0.0671  0.5124  0.8792
  359MOL0     C48388   8.048   4.132   2.615  0.4751 -0.8792 -0.9518
  359MOL0     O48389   8.175   4.088   2.580  0.7751 -0.7726  0.8267
  359MOL0     C48390   8.185   3.974   2.486 -0.5361 -0.3038  0.1390
  359MOL0     C48391   8.318   3.987   2.399 -0.5370 -0.2611 -0.0848
  359MOL0     C48392   8.323   4.098   2.289 -0.5900 -0.3997 -1.5364
  359MOL0     C48393   8.344   4.249   2.337  0.5143  0.8871  0.0995
  359MOL0     C48394   8.280   4.336   2.235  0.4587  0.0587  0.6606
  359MOL0     C48395   8.243   4.416   2.147  0.1727  0.1664  0.1816
  359MOL0     C48396   7.938   4.052   2.606  2.0209  0.0778 -0.0821
  359MOL0     C48397   7.806   4.110   2.617  0.1648  0.1429 -0.1158
  359MOL0     H48398   7.498   4.108   2.876 -0.0773 -0.9862 -1.5222
  359MOL0     H48399   7.293   4.142   3.033 -0.3403 -1.6102 -0.7847
  359MOL0     H48400   7.026   4.063   2.963 -0.3159 -2.1302  3.2540
  359MOL0     H48401   7.085   4.136   3.112  2.1760 -0.6160 -2.1650
  359MOL0     H48402   6.809   4.175   3.011 -0.2832 -1.7004 -0.3797
  359MOL0     H48403   6.868   4.098   3.160  1.8684 -1.6159 -0.7044
  359MOL0     H48404   6.990   4.331   3.203 -1.0547  2.0401 -0.8982
  359MOL0     H48405   6.869   4.376   3.078 -0.1317 -1.1154 -1.7218
  359MOL0     H48406   6.699   4.269   3.248  1.3768 -2.0436  0.0066
  359MOL0     H48407   6.815   4.281   3.368 -0.8838  1.8972  1.6493
  359MOL0     H48408   6.679   4.497   3.223 -0.4342  0.5497 -0.5870
  359MOL0     H48409   6.704   4.480   3.395 -3.8345 -1.8484 -1.4947
  359MOL0     H48410   6.935   4.544   3.373 -3.9937 -1.7114  2.5772
  359MOL0     H48411   6.909   4.578   3.196  0.5430 -1.4854 -1.3196
  359MOL0     H48412   6.730   4.735   3.249 -0.9019 -0.3470 -1.0695
  359MOL0     H48413   6.738   4.707   3.425 -0.3631  1.3341 -0.0132
  359MOL0     H48414   6.962   4.827   3.249 -0.8937  1.1742 -0.4307
  359MOL0     H48415   6.989   4.788   3.417 -0.1536 -0.2268 -0.0558
  359MOL0     H48416   7.018   5.042   3.468  1.0824  0.0972 -2.3332
  359MOL0     H48417   6.987   5.340   3.425 -1.1096  1.5393 -1.2458
  359MOL0     H48418   6.837   5.367   3.352  0.7785  1.4416 -0.1258
  359MOL0     H48419   6.823   5.460   3.588 -0.4866 -0.1267  1.3353
  359MOL0     H48420   6.850   5.307   3.655 -1.8779 -0.3163  0.3064
  359MOL0     H48421   6.625   5.323   3.668  0.5394  1.9210  0.3420
  359MOL0     H48422   6.665   5.200   3.554  2.8638  0.0256 -1.8890
  359MOL0     H48423   6.474   5.342   3.456  0.1099 -0.3741  0.9674
  359MOL0     H48424   6.619   5.384   3.359  1.0534 -1.9050  0.1653
  359MOL0     H48425   6.375   5.616   3.629  0.0678 -1.6213  0.0723
  359MOL0     H48426   6.121   5.689   3.609 -0.4906 -0.7328 -0.9686
  359MOL0     H48427   6.206   5.840   3.654 -0.4811  1.9669 -1.5591
  359MOL0     H48428   6.097   5.831   3.514 -0.1625  0.6999  0.3272
  359MOL0     H48429   5.953   5.660   3.120 -0.9514 -1.1401 -1.8171
  359MOL0     H48430   5.740   5.705   3.004  2.4551 -2.1507 -0.0283
  359MOL0     H48431   5.545   5.825   3.030 -1.1073 -0.4511 -1.7106
  359MOL0     H48432   5.561   6.003   3.068  1.7993  1.8541 -2.7858
  359MOL0     H48433   5.443   5.888   2.817  0.5400 -0.4085  0.9884
  359MOL0     H48434   5.339   5.925   2.957  0.5148 -0.1287 -1.5580
  359MOL0     H48435   5.521   6.147   2.849  0.3931  2.2729 -0.0199
  359MOL0     H48436   5.391   6.162   2.960  1.3394 -0.7796  0.3827
  359MOL0     H48437   5.391   6.104   2.664 -1.3153  1.9628 -2.4739
  359MOL0     H48438   5.240   6.083   2.747  0.9149 -1.9572 -1.2693
  359MOL0     H48439   5.280   6.326   2.653  1.1532  0.1826 -0.0068
  359MOL0     H48440   5.395   6.345   2.796  0.2542 -3.8312  2.9035
  359MOL0     H48441   5.100   6.262   2.817 -1.8651  1.6098 -0.5096
  359MOL0     H48442   5.201   6.308   2.956 -0.1023 -1.1339 -0.4523
  359MOL0     H48443   5.130   6.481   2.727  0.9576 -0.4465 -0.2201
  359MOL0     H48444   5.202   6.534   2.886 -0.3344  0.0443 -0.6458
  359MOL0     H48445   4.917   6.409   2.863  0.8417 -2.5624  1.6904
  359MOL0     H48446   4.951   6.576   2.908 -0.1187 -0.8575  0.8699
  359MOL0     H48447   5.875   6.110   2.932  2.9480 -0.4100 -1.7143
  359MOL0     H48448   6.097   6.045   3.031  1.6426 -1.5932  5.1395
  359MOL0     H48449   6.393   5.716   3.139  0.1829  0.3425 -0.9955
  359MOL0     H48450   6.559   5.573   3.243  1.2843  0.6061  1.0058
  359MOL0     H48451   7.115   4.360   2.710 -1.4986 -0.1756  1.8318
  359MOL0     H48452   7.333   4.324   2.570 -0.2747  0.8760 -0.4882
  359MOL0     H48453   7.872   4.414   2.722  0.9045 -0.5235  1.7825
  359MOL0     H48454   8.112   4.341   2.671  0.2512  0.3509  0.6790
  359MOL0     H48455   8.176   3.877   2.535 -1.7828 -0.7119 -0.8615
  359MOL0     H48456   8.102   3.971   2.416  0.4761 -3.3365 -1.1031
  359MOL0     H48457   8.340   3.892   2.349 -1.2964  0.2666 -1.4930
  359MOL0     H48458   8.400   4.002   2.470  0.0949  0.1276 -0.8778
  359MOL0     H48459   8.226   4.096   2.238 -2.1386  4.7945  0.5013
  359MOL0     H48460   8.405   4.072   2.220  1.4899 -0.4166  0.8029
  359MOL0     H48461   8.452   4.265   2.343  1.1493 -1.8269 -2.0222
  359MOL0     H48462   8.291   4.273   2.430 -0.5053  2.7044 -0.8901
  359MOL0     H48463   8.218   4.485   2.069  3.4031 -0.4769 -1.5915
  359MOL0     H48464   7.932   3.949   2.572 -1.6591  0.0944  0.0916
  359MOL0     H48465   7.712   4.057   2.611  0.7422 -1.8568  4.6026
  360MOL0     O48466   4.334   7.759   7.726 -0.3183  0.4490  0.2490
  360MOL0     C48467   4.362   7.767   7.611  0.7038  0.0202  0.1002
  360MOL0     O48468   4.435   7.862   7.556 -0.0884  0.7595 -0.1875
  360MOL0     C48469   4.445   7.985   7.622 -0.2351 -0.0881  0.6290
  360MOL0     C48470   4.354   8.088   7.592 -1.1878  0.0219  0.3389
  360MOL0     C48471   4.361   8.212   7.660  0.1016  0.4043 -0.1057
  360MOL0     C48472   4.461   8.226   7.761 -0.0512  0.3501 -0.0581
  360MOL0     O48473   4.452   8.350   7.827  0.2520  0.5432  0.6399
  360MOL0     C48474   4.451   8.349   7.968  0.1248 -0.0301  0.4308
  360MOL0     C48475   4.368   8.448   8.041 -0.0356 -0.0819 -0.3191
  360MOL0     C48476   4.215   8.413   8.060  0.0874 -0.3067  0.0505
  360MOL0     C48477   4.111   8.537   8.072 -0.9855 -0.2175 -0.5881
  360MOL0     C48478   4.105   8.596   8.211  0.8447 -0.9994  0.1071
  360MOL0     C48479   3.997   8.710   8.227 -0.5577  0.1683 -0.9967
  360MOL0     C48480   3.964   8.725   8.375 -0.7691  0.0075  0.3544
  360MOL0     C48481   3.896   8.858   8.399  0.1047 -0.1794  0.0005
  360MOL0     N48482   3.769   8.869   8.333  0.1712 -0.5565 -0.2052
  360MOL0     C48483   3.734   8.933   8.210  0.0624  0.4238  0.0869
  360MOL0     C48484   3.600   8.916   8.195  0.3788 -0.4274  0.2163
  360MOL0     C48485   3.509   8.964   8.083  0.5737  0.7846 -0.7298
  360MOL0     C48486   3.415   8.851   8.027 -0.9165 -0.7108 -0.0930
  360MOL0     C48487   3.286   8.843   8.110 -0.2549  0.3170  0.6181
  360MOL0     C48488   3.203   8.727   8.077  0.2483 -0.1286  0.0808
  360MOL0     O48489   3.169   8.714   7.932 -0.5689 -0.2886 -1.5448
  360MOL0     C48490   3.087   8.611   7.896  0.4830 -0.9200 -0.0644
  360MOL0     C48491   3.007   8.529   7.980  0.8342 -0.1388  0.5692
  360MOL0     C48492   2.917   8.436   7.927  0.5714  0.3469  0.3125
  360MOL0     C48493   2.814   8.381   8.022 -0.0938 -0.3200 -1.0843
  360MOL0     C48494   2.925   8.410   7.784  0.0130  0.1086 -0.2727
  360MOL0     C48495   2.855   8.297   7.726  0.5809 -0.7821 -0.0371
  360MOL0     O48496   2.811   8.197   7.810 -0.3191 -0.0026 -0.7556
  360MOL0     C48497   2.708   8.114   7.778  0.7421 -0.7585 -0.0926
  360MOL0     C48498   2.715   7.980   7.806 -1.2561  0.8630 -0.0114
  360MOL0     C48499   2.621   7.889   7.767 -0.0862 -0.1868 -0.6208
  360MOL0     C48500   2.501   7.938   7.710  0.3353 -0.7697  0.5426
  360MOL0     O48501   2.385   7.859   7.698 -0.0221 -0.8484 -0.2031
  360MOL0     C48502   2.374   7.716   7.707  0.7904  1.0029 -0.2167
  360MOL0     C48503   2.246   7.663   7.646 -0.2469 -0.5623 -0.1259
  360MOL0     C48504   2.118   7.744   7.693 -0.4982 -0.5035  0.3266
  360MOL0     C48505   1.988   7.676   7.638 -0.7005 -0.5894 -0.3687
  360MOL0     C48506   1.853   7.734   7.698  0.0427 -0.7734 -0.0125
  360MOL0     C48507   1.741   7.639   7.661 -0.8166 -0.3616  0.2515
  360MOL0     C48508   1.620   7.672   7.744  1.1549 -0.3568 -0.0795
  360MOL0     C48509   1.531   7.547   7.750  0.3808  1.0265 -0.5569
  360MOL0    Cl48510   1.389   7.587   7.843 -0.2389  0.4136  0.2819
  360MOL0     C48511   2.484   8.076   7.693  1.2923 -0.6040 -0.0382
  360MOL0     C48512   2.591   8.164   7.723  0.6341  0.0224  0.4945
  360MOL0     O48513   2.845   8.291   7.605  0.5450  0.3323 -0.0140
  360MOL0     C48514   3.000   8.496   7.702 -0.3191 -0.0117  0.3162
  360MOL0     C48515   3.090   8.591   7.760  1.0785 -0.3328 -0.7961
  360MOL0     N48516   3.554   8.851   8.306  0.0601 -0.5543 -0.6231
  360MOL0     N48517   3.650   8.812   8.381 -0.1404 -0.6541 -0.9216
  360MOL0     C48518   4.559   8.132   7.781 -0.1043 -0.5771  0.3221
  360MOL0     C48519   4.552   8.009   7.715 -1.2222 -0.2471  0.3602
  360MOL0     C48520   4.323   7.644   7.525 -0.2765  0.7410 -0.1839
  360MOL0     C48521   4.366   7.639   7.389 -0.2671  0.2890  0.2979
  360MOL0     C48522   4.334   7.526   7.319  0.5219 -0.8983  1.0499
  360MOL0     C48523   4.243   7.419   7.362 -0.3303  1.4909  0.1643
  360MOL0     O48524   4.201   7.309   7.295  0.0027  0.5282  0.3249
  360MOL0     C48525   4.242   7.305   7.154  0.7826  0.7882 -1.0588
  360MOL0     C48526   4.214   7.166   7.102  0.1284  0.0102  0.1377
  360MOL0     C48527   4.285   7.133   6.965  0.4021  0.0171 -0.2371
  360MOL0     C48528   4.239   7.000   6.907 -0.5202 -0.0140 -0.3367
  360MOL0     C48529   4.356   6.943   6.843 -0.1281  0.1832  0.5488
  360MOL0     C48530   4.457   6.890   6.790 -0.5683 -0.4566 -0.0845
  360MOL0     C48531   4.208   7.420   7.497  0.2922 -0.0282  0.2696
  360MOL0     C48532   4.245   7.533   7.574 -0.4388  0.2187  0.0805
  360MOL0     H48533   4.281   8.071   7.514 -2.1263  0.0730  1.1874
  360MOL0     H48534   4.276   8.279   7.651  0.0328  0.0979 -1.9709
  360MOL0     H48535   4.428   8.244   7.989  0.9092 -0.8966 -2.5830
  360MOL0     H48536   4.555   8.365   8.001  0.1448  2.9769 -0.7800
  360MOL0     H48537   4.401   8.465   8.144 -0.6185  0.4306 -0.2069
  360MOL0     H48538   4.380   8.535   7.976 -0.3590 -1.5909 -2.4885
  360MOL0     H48539   4.185   8.361   7.968 -0.0092 -1.1421  0.5377
  360MOL0     H48540   4.210   8.343   8.145 -1.6220 -0.3536 -0.0517
  360MOL0     H48541   4.139   8.624   8.012  2.0553 -0.2679  0.5825
  360MOL0     H48542   4.012   8.490   8.064 -2.1870  1.8543  1.1846
  360MOL0     H48543   4.072   8.510   8.271  1.6636 -0.5682  1.2020
  360MOL0     H48544   4.204   8.627   8.244  0.9513 -2.0092  0.8032
  360MOL0     H48545   4.034   8.805   8.188  0.3557 -0.5038 -1.8195
  360MOL0     H48546   3.901   8.694   8.177 -0.7871 -0.5582 -0.3649
  360MOL0     H48547   3.911   8.638   8.415  2.0779 -1.1221  1.9849
  360MOL0     H48548   4.056   8.739   8.432  0.9433  0.1961 -2.2387
  360MOL0     H48549   3.964   8.938   8.371 -0.6896  0.4689 -0.1342
  360MOL0     H48550   3.874   8.872   8.505 -1.5984 -2.0444 -0.0345
  360MOL0     H48551   3.796   8.982   8.135  0.2972  0.8795  0.5770
  360MOL0     H48552   3.447   9.048   8.116  1.9990  0.6885  2.6217
  360MOL0     H48553   3.564   9.016   8.005  1.2093  2.9963  1.0791
  360MOL0     H48554   3.467   8.755   8.030  3.6747  1.4314 -1.3607
  360MOL0     H48555   3.398   8.875   7.922 -1.6845 -3.4401 -0.6526
  360MOL0     H48556   3.229   8.935   8.097 -0.4469 -0.1905 -3.1935
  360MOL0     H48557   3.308   8.841   8.217  0.1582 -1.0967  0.5346
  360MOL0     H48558   3.113   8.739   8.138  0.7484  2.9249  0.3769
  360MOL0     H48559   3.251   8.632   8.102 -1.3296 -1.9570 -3.1730
  360MOL0     H48560   3.004   8.555   8.086  2.7897  0.1521  0.5945
  360MOL0     H48561   2.794   8.456   8.099  0.5903  0.2955 -1.4894
  360MOL0     H48562   2.723   8.345   7.972 -1.3925  1.5195 -0.1367
  360MOL0     H48563   2.864   8.294   8.066  0.7976  0.1814 -1.0895
  360MOL0     H48564   2.812   7.967   7.854 -2.4778  1.9691  3.0064
  360MOL0     H48565   2.633   7.782   7.780 -1.3536 -0.0253  3.1174
  360MOL0     H48566   2.468   7.666   7.682  0.5282 -0.7439  1.8989
  360MOL0     H48567   2.364   7.691   7.814  0.2300 -1.4590 -0.7779
  360MOL0     H48568   2.256   7.676   7.538  0.4480  1.2159  0.1159
  360MOL0     H48569   2.239   7.557   7.675  2.6395 -1.4460 -2.1806
  360MOL0     H48570   2.120   7.847   7.655 -1.1063 -1.0362 -1.1923
  360MOL0     H48571   2.117   7.759   7.802  0.1692  1.3273  0.1251
  360MOL0     H48572   1.993   7.669   7.529 -1.0014  0.5179 -0.4618
  360MOL0     H48573   1.995   7.574   7.677  0.7813 -0.7881 -1.0932
  360MOL0     H48574   1.825   7.832   7.657  1.5483  0.4743  1.7114
  360MOL0     H48575   1.864   7.750   7.806  2.1060  0.6476 -0.3695
  360MOL0     H48576   1.735   7.657   7.553  3.1421  2.2587  0.2791
  360MOL0     H48577   1.776   7.539   7.689 -1.0457  0.2214  2.7959
  360MOL0     H48578   1.563   7.757   7.706  0.9422 -0.5004 -0.0843
  360MOL0     H48579   1.643   7.708   7.845 -2.9100  0.2370  0.8047
  360MOL0     H48580   1.588   7.472   7.805 -1.4608  1.1540  1.6670
  360MOL0     H48581   1.517   7.508   7.648  1.8380 -1.5521  0.1428
  360MOL0     H48582   2.390   8.116   7.655  2.3504 -0.1637 -2.3418
  360MOL0     H48583   2.580   8.268   7.696 -0.8816 -0.8317 -2.5308
  360MOL0     H48584   2.999   8.474   7.596  0.8516 -1.4475  0.5785
  360MOL0     H48585   3.142   8.655   7.690 -1.2205 -1.3406 -3.5989
  360MOL0     H48586   4.632   8.160   7.857  2.4404 -2.5604 -1.2111
  360MOL0     H48587   4.621   7.927   7.730 -1.4001 -0.4852 -0.0907
  360MOL0     H48588   4.429   7.711   7.339 -1.5892  2.4757  1.6309
  360MOL0     H48589   4.388   7.516   7.225  1.0433 -1.3120  1.3879
  360MOL0     H48590   4.198   7.381   7.090  3.4561 -0.7343 -5.0601
  360MOL0     H48591   4.345   7.338   7.144  0.5146  1.6251 -1.1233
  360MOL0     H48592   4.106   7.165   7.084  0.1450 -0.3722  0.0460
  360MOL0     H48593   4.254   7.096   7.176 -1.0840 -1.4666 -0.5399
  360MOL0     H48594   4.394   7.135   6.972  0.3385  0.2295  0.8321
  360MOL0     H48595   4.258   7.211   6.893 -0.1291  2.3299  2.3088
  360MOL0     H48596   4.165   7.023   6.830  1.1135 -3.2910 -3.1835
  360MOL0     H48597   4.197   6.931   6.981  1.8729 -0.2304  0.9512
  360MOL0     H48598   4.542   6.843   6.745 -1.5144 -1.8055 -0.5282
  360MOL0     H48599   4.154   7.339   7.544 -1.1897  1.6546  1.6150
  360MOL0     H48600   4.227   7.527   7.680 -1.9186  0.9415 -0.1021
  361MOL0     O48601   6.967  10.617   0.020  0.3324  0.4189  0.4215
  361MOL0     C48602   7.007  10.728  -0.004  1.0804  0.2375  0.0848
  361MOL0     O48603   6.927  10.835  -0.033  0.1471  0.0298 -0.0664
  361MOL0     C48604   6.789  10.823  -0.045  0.5249  0.8752  0.2853
  361MOL0     C48605   6.733  10.922  -0.128  0.9890 -0.1181 -0.5939
  361MOL0     C48606   6.589  10.934  -0.145 -0.5577  0.3641 -0.1275
  361MOL0     C48607   6.506  10.833  -0.091 -0.1315  0.1858 -0.0572
  361MOL0     O48608   6.366  10.849  -0.111  0.2383 -0.2675 -0.1997
  361MOL0     C48609   6.279  10.737  -0.115 -0.3822 -0.0944 -0.3785
  361MOL0     C48610   6.138  10.786  -0.147 -0.0071  0.3065  0.4789
  361MOL0     C48611   6.035  10.676  -0.183  0.4932  0.4010 -0.6603
  361MOL0     C48612   5.964  10.638  -0.054 -0.4069  0.7029 -0.0260
  361MOL0     C48613   5.918  10.489  -0.049 -0.6930  0.2220 -0.2418
  361MOL0     C48614   5.882  10.438   0.096 -0.7558  0.3375  0.0898
  361MOL0     C48615   5.831  10.296   0.090  0.1615  0.0147  0.3098
  361MOL0     C48616   5.865  10.218   0.223 -0.5828  0.6978 -0.5259
  361MOL0     N48617   5.859  10.069   0.212 -0.2476 -0.1720 -0.3715
  361MOL0     C48618   5.938   9.995   0.125  0.9309  0.4035  0.5754
  361MOL0     C48619   5.890   9.869   0.154 -0.0298  0.6090  0.3315
  361MOL0     C48620   5.952   9.744   0.102  0.3448  0.3028 -0.0246
  361MOL0     C48621   5.996   9.644   0.212 -0.1394  0.4594  0.3245
  361MOL0     C48622   6.044   9.505   0.145  0.1221 -0.2297  0.5826
  361MOL0     C48623   6.082   9.395   0.246 -0.4522  0.0049  0.5341
  361MOL0     O48624   5.993   9.376   0.350 -0.1347  0.5247 -0.3288
  361MOL0     C48625   6.026   9.264   0.429 -0.5908  0.8943  1.0372
  361MOL0     C48626   5.947   9.240   0.546  0.0872  0.7511  0.7639
  361MOL0     C48627   5.966   9.134   0.637  0.4112 -0.6681  0.2041
  361MOL0     C48628   5.875   9.131   0.755  0.0196 -0.5161 -0.0923
  361MOL0     C48629   6.063   9.035   0.605 -0.1084 -0.4813  0.5556
  361MOL0     C48630   6.097   8.921   0.687 -0.5452  0.4794  0.2224
  361MOL0     O48631   6.144   8.804   0.622  0.2198 -0.4104 -0.5378
  361MOL0     C48632   6.182   8.706   0.706 -0.6840  0.7180 -0.3393
  361MOL0     C48633   6.314   8.706   0.761  0.0979 -0.8927  0.1568
  361MOL0     C48634   6.372   8.598   0.821 -0.6666  0.0954  0.5357
  361MOL0     C48635   6.294   8.478   0.831 -0.1268  0.1414  0.2769
  361MOL0     O48636   6.346   8.372   0.905 -0.0285  0.2626 -0.4172
  361MOL0     C48637   6.245   8.290   0.969  0.6500  0.1399  1.2300
  361MOL0     C48638   6.299   8.232   1.098  0.2220 -0.0124 -0.0548
  361MOL0     C48639   6.424   8.141   1.089 -0.6677  0.0378 -0.3141
  361MOL0     C48640   6.450   8.088   1.235 -0.0752 -0.5363 -0.7052
  361MOL0     C48641   6.556   7.973   1.223  0.8653 -0.5710  0.3558
  361MOL0     C48642   6.693   8.046   1.221 -0.1227  0.6322 -0.4236
  361MOL0     C48643   6.799   7.931   1.240  0.1260 -0.6407 -0.3968
  361MOL0     C48644   6.931   8.002   1.250 -0.4297  0.6066 -0.2202
  361MOL0    Cl48645   7.071   7.893   1.265  0.2442 -0.4688  0.2725
  361MOL0     C48646   6.161   8.476   0.783  0.5794 -0.4790  0.4390
  361MOL0     C48647   6.105   8.592   0.726  0.4067 -0.1400 -0.0788
  361MOL0     O48648   6.080   8.933   0.810  0.1224 -0.2757  1.2162
  361MOL0     C48649   6.128   9.052   0.483  0.3473  0.5984  0.7716
  361MOL0     C48650   6.130   9.168   0.399  0.6719 -0.2644  0.0359
  361MOL0     N48651   5.785   9.874   0.248 -0.5340 -0.6159  0.3659
  361MOL0     N48652   5.776   9.992   0.289  0.7694  0.2373  0.8676
  361MOL0     C48653   6.566  10.717  -0.037  0.0268 -0.3477 -0.2148
  361MOL0     C48654   6.701  10.712  -0.013 -0.9352  0.0503  1.0459
  361MOL0     C48655   7.150  10.758   0.007  0.1442 -0.5834  0.5897
  361MOL0     C48656   7.229  10.652   0.051  0.5930  0.1438 -0.1670
  361MOL0     C48657   7.363  10.683   0.087 -0.8927 -0.3565 -0.8515
  361MOL0     C48658   7.419  10.814   0.080 -0.9586  0.1399 -0.3815
  361MOL0     O48659   7.551  10.850   0.092  0.9175  0.3157  0.0452
  361MOL0     C48660   7.651  10.752   0.117 -0.2065 -0.1100  0.2132
  361MOL0     C48661   7.657  10.679   0.251  0.6414 -0.5036 -0.1389
  361MOL0     C48662   7.765  10.560   0.239 -0.7781  0.1789  0.5566
  361MOL0     C48663   7.751  10.461   0.352 -0.1249 -0.7054  0.3536
  361MOL0     C48664   7.644  10.374   0.325  0.5891 -0.0630  0.6435
  361MOL0     C48665   7.533  10.321   0.300  0.4189 -1.0226 -0.3630
  361MOL0     C48666   7.341  10.913   0.031 -0.4727 -0.3767 -0.2516
  361MOL0     C48667   7.201  10.890  -0.008  0.6360 -0.1677  0.4447
  361MOL0     H48668   6.802  11.000  -0.159  1.7186 -1.2257 -1.8619
  361MOL0     H48669   6.550  11.025  -0.188 -0.2853  0.4980 -0.0921
  361MOL0     H48670   6.311  10.672  -0.197 -3.5916 -1.6837 -0.5528
  361MOL0     H48671   6.276  10.682  -0.020  1.4552  0.2986 -0.0599
  361MOL0     H48672   6.101  10.855  -0.071  0.2676 -2.3359  3.1561
  361MOL0     H48673   6.140  10.845  -0.240  1.7103 -1.3903 -0.6353
  361MOL0     H48674   5.953  10.720  -0.240 -0.1091 -1.4290 -1.2822
  361MOL0     H48675   6.087  10.598  -0.239  0.2068 -0.3719  0.1291
  361MOL0     H48676   6.022  10.659   0.036 -0.7878 -1.2164  0.7229
  361MOL0     H48677   5.881  10.706  -0.032  0.0199  0.6033  2.0955
  361MOL0     H48678   5.831  10.491  -0.115 -1.2422 -0.1104  0.4527
  361MOL0     H48679   5.993  10.421  -0.088  0.8772  0.3306  2.3232
  361MOL0     H48680   5.969  10.437   0.162  0.2806 -0.5792 -1.2579
  361MOL0     H48681   5.813  10.504   0.149  1.5232  3.3501 -0.4252
  361MOL0     H48682   5.722  10.298   0.082  0.2206 -1.3297 -1.7814
  361MOL0     H48683   5.880  10.243   0.007  0.2002  2.5456 -1.4085
  361MOL0     H48684   5.796  10.255   0.301  0.4140  3.4064 -0.8195
  361MOL0     H48685   5.968  10.230   0.257 -0.6027 -0.9016  0.1816
  361MOL0     H48686   6.030  10.024   0.073  2.4397 -2.7889  1.2491
  361MOL0     H48687   5.883   9.695   0.033  2.5625 -1.5735 -1.0591
  361MOL0     H48688   6.045   9.759   0.047 -0.2497 -0.2202 -1.1895
  361MOL0     H48689   5.915   9.626   0.284  0.2615 -0.8241  0.4722
  361MOL0     H48690   6.083   9.692   0.256  0.9296  4.5501 -5.1936
  361MOL0     H48691   6.129   9.521   0.078 -0.5740 -1.8204 -0.7451
  361MOL0     H48692   5.962   9.464   0.086  2.6473 -1.3965 -2.3711
  361MOL0     H48693   6.177   9.425   0.292 -0.8684  1.8939  0.2522
  361MOL0     H48694   6.089   9.303   0.188 -1.9262  0.5653 -0.6075
  361MOL0     H48695   5.864   9.306   0.567 -0.2042  0.8480 -0.5765
  361MOL0     H48696   5.841   9.029   0.776 -0.3748 -0.1837  0.9586
  361MOL0     H48697   5.941   9.160   0.837  1.3784  1.1673 -1.6954
  361MOL0     H48698   5.788   9.197   0.760  1.0715  0.8655  4.1711
  361MOL0     H48699   6.363   8.803   0.768 -0.2273 -0.6325 -1.0018
  361MOL0     H48700   6.463   8.598   0.880  0.3119  3.1289 -0.8169
  361MOL0     H48701   6.154   8.338   1.005 -1.5392 -2.8208  0.0948
  361MOL0     H48702   6.225   8.210   0.896  0.3586  0.9603  0.3846
  361MOL0     H48703   6.320   8.311   1.170  1.0307 -0.2476 -0.0241
  361MOL0     H48704   6.212   8.171   1.124 -0.1583  0.4532 -0.2297
  361MOL0     H48705   6.510   8.189   1.041 -0.4435 -1.1425 -1.1117
  361MOL0     H48706   6.404   8.050   1.032 -1.2646 -1.3947  2.0446
  361MOL0     H48707   6.487   8.170   1.298  0.3898 -1.0880 -0.2353
  361MOL0     H48708   6.363   8.032   1.272 -1.4784  1.1337 -1.3934
  361MOL0     H48709   6.539   7.914   1.132 -0.4791 -5.9499  3.6090
  361MOL0     H48710   6.540   7.905   1.308  0.8573 -1.3908 -0.2884
  361MOL0     H48711   6.709   8.110   1.133  1.7323 -0.5782 -1.0481
  361MOL0     H48712   6.707   8.104   1.312  4.0863  2.7250 -2.1057
  361MOL0     H48713   6.788   7.865   1.153  1.1094  0.4891 -1.4092
  361MOL0     H48714   6.781   7.879   1.334 -2.8983 -0.1964 -0.6321
  361MOL0     H48715   6.932   8.058   1.344  0.2051  0.5675 -0.2048
  361MOL0     H48716   6.949   8.070   1.166  0.9057 -0.3669 -0.7482
  361MOL0     H48717   6.102   8.385   0.790  1.6090 -1.1051  1.4663
  361MOL0     H48718   6.005   8.594   0.684  0.3002  1.2217  0.2056
  361MOL0     H48719   6.212   8.987   0.461  0.9494  0.9997  1.8426
  361MOL0     H48720   6.203   9.174   0.319  0.5243 -1.6257 -0.2224
  361MOL0     H48721   6.501  10.635  -0.009 -1.2938  0.5968 -0.4623
  361MOL0     H48722   6.734  10.618   0.029  0.1106  0.0225  0.2037
  361MOL0     H48723   7.191  10.552   0.064  0.9184 -0.1068 -1.0429
  361MOL0     H48724   7.429  10.605   0.123 -0.8494  0.1972  0.3181
  361MOL0     H48725   7.654  10.678   0.037  0.5283  0.8823 -0.6986
  361MOL0     H48726   7.744  10.808   0.100 -1.0056  1.4063  0.6322
  361MOL0     H48727   7.561  10.648   0.294  0.4177  0.4794  0.0745
  361MOL0     H48728   7.686  10.750   0.328 -1.5969  0.0336  0.2894
  361MOL0     H48729   7.860  10.613   0.230 -0.3433 -0.7904 -1.0039
  361MOL0     H48730   7.749  10.496   0.152  1.7231 -0.3319  0.4014
  361MOL0     H48731   7.730  10.518   0.443 -1.8680  2.2102 -1.6866
  361MOL0     H48732   7.848  10.414   0.369  2.9951  4.5399 -0.7278
  361MOL0     H48733   7.449  10.254   0.303 -0.4012 -0.0101  0.4404
  361MOL0     H48734   7.372  11.016   0.015 -3.4944  0.8069  0.8280
  361MOL0     H48735   7.139  10.972  -0.041  2.3036  0.3883 -1.5707
  362MOL0     O48736   5.144   0.209   6.151  0.6935  0.3446  0.5102
  362MOL0     C48737   5.161   0.327   6.135  0.3415 -0.6789 -0.3840
  362MOL0     O48738   5.279   0.390   6.153 -0.4477 -0.1874  0.1583
  362MOL0     C48739   5.397   0.331   6.198  0.6731 -0.7998  0.2326
  362MOL0     C48740   5.474   0.412   6.276 -0.5347 -0.1459  0.7380
  362MOL0     C48741   5.598   0.369   6.315  0.2776  0.3548 -0.7730
  362MOL0     C48742   5.644   0.249   6.282 -0.0189  0.1985 -0.2826
  362MOL0     O48743   5.770   0.234   6.342 -0.3271  0.6291  0.8383
  362MOL0     C48744   5.853   0.128   6.304 -0.4949 -0.4824 -0.6969
  362MOL0     C48745   5.989   0.169   6.356 -0.1118 -1.3347  0.7121
  362MOL0     C48746   6.015   0.097   6.494 -0.5265  0.4216  0.1833
  362MOL0     C48747   6.157   0.107   6.550  0.0396 -0.4288  0.2910
  362MOL0     C48748   6.164   0.060   6.697  0.2651  0.0263  0.1102
  362MOL0     C48749   6.312   0.050   6.758 -0.3355 -0.8361 -0.4617
  362MOL0     C48750   6.402  -0.038   6.682 -0.2191  0.1076  0.0381
  362MOL0     C48751   6.537  -0.071   6.749  1.0630 -0.6486 -0.1189
  362MOL0     N48752   6.637   0.038   6.762 -0.2730  0.5812 -0.3943
  362MOL0     C48753   6.678   0.104   6.872 -0.6994  0.0472 -1.0351
  362MOL0     C48754   6.764   0.201   6.831 -0.8952 -0.1990  0.0387
  362MOL0     C48755   6.812   0.321   6.917 -0.2985  0.3020  0.2177
  362MOL0     C48756   6.685   0.395   6.966  0.1258 -0.5252 -0.6634
  362MOL0     C48757   6.591   0.454   6.860 -1.1276 -0.1369  0.9321
  362MOL0     C48758   6.448   0.473   6.896  0.3954 -0.3756 -0.3163
  362MOL0     O48759   6.355   0.469   6.780  0.6008 -0.0557 -0.0806
  362MOL0     C48760   6.222   0.500   6.793  0.4471 -1.0548 -0.3631
  362MOL0     C48761   6.138   0.515   6.684 -0.4250  0.0255  0.0730
  362MOL0     C48762   5.997   0.541   6.697 -1.2110 -0.0725 -0.3536
  362MOL0     C48763   5.923   0.553   6.564 -0.1804 -0.2460  0.4753
  362MOL0     C48764   5.941   0.549   6.830  0.4806 -0.3886  0.0933
  362MOL0     C48765   5.795   0.572   6.849 -0.8968 -0.0113 -0.7997
  362MOL0     O48766   5.756   0.601   6.971 -0.2974 -0.2880 -0.1434
  362MOL0     C48767   5.621   0.634   7.001 -0.0983 -1.0138 -0.3220
  362MOL0     C48768   5.594   0.768   7.059  0.9421  1.1589 -0.8870
  362MOL0     C48769   5.468   0.814   7.081  0.0496  0.8237  0.0125
  362MOL0     C48770   5.353   0.733   7.050  0.9105  0.5161  0.1249
  362MOL0     O48771   5.219   0.771   7.065  0.9287 -0.4217  0.1814
  362MOL0     C48772   5.176   0.912   7.089  0.3601 -0.4928  0.8294
  362MOL0     C48773   5.024   0.928   7.096  0.2155  0.6817  0.0851
  362MOL0     C48774   4.964   0.913   6.960  0.0726 -0.3935  0.1944
  362MOL0     C48775   4.863   0.800   6.948 -0.2731  0.1368  0.3588
  362MOL0     C48776   4.780   0.810   6.811  0.5447 -0.5208  0.4829
  362MOL0     C48777   4.693   0.944   6.811 -0.6455  0.3823  0.2593
  362MOL0     C48778   4.607   0.934   6.686 -0.0983 -0.2770 -0.4324
  362MOL0     C48779   4.529   1.061   6.648 -1.0551 -0.1939 -0.2887
  362MOL0    Cl48780   4.417   1.094   6.777  0.1084 -0.2680  0.0907
  362MOL0     C48781   5.384   0.602   6.994  0.5089  0.7298  0.2621
  362MOL0     C48782   5.512   0.556   6.967 -0.2870 -0.4893  0.7187
  362MOL0     O48783   5.725   0.579   6.750 -0.1589 -0.1379 -0.3960
  362MOL0     C48784   6.030   0.541   6.940  0.0168  0.2729  0.0008
  362MOL0     C48785   6.164   0.522   6.924  0.3045  0.6645  0.1268
  362MOL0     N48786   6.781   0.191   6.692 -0.2170  0.3220 -0.0144
  362MOL0     N48787   6.711   0.088   6.655 -0.0556 -0.1157 -0.1845
  362MOL0     C48788   5.567   0.162   6.195  0.8351  0.1455  0.0672
  362MOL0     C48789   5.439   0.208   6.152 -0.3620  0.9198 -0.4995
  362MOL0     C48790   5.049   0.417   6.113 -0.5970  0.3784  0.1661
  362MOL0     C48791   4.914   0.371   6.083 -0.3587  0.5807 -0.1154
  362MOL0     C48792   4.808   0.453   6.056 -0.6845 -0.7131  0.1179
  362MOL0     C48793   4.830   0.590   6.074 -0.1058 -0.1200  0.0536
  362MOL0     O48794   4.723   0.674   6.054  0.2959 -0.0721 -0.3120
  362MOL0     C48795   4.662   0.663   5.928 -0.3867 -0.0236 -0.5245
  362MOL0     C48796   4.548   0.757   5.921  0.2851 -0.1935 -0.3071
  362MOL0     C48797   4.577   0.904   5.964 -0.8848 -0.7671 -0.5162
  362MOL0     C48798   4.681   0.983   5.888  0.3632 -0.2595 -0.2388
  362MOL0     C48799   4.654   1.005   5.745  0.5279  0.6410  1.0447
  362MOL0     C48800   4.634   1.010   5.625  0.6556 -0.0168 -0.0972
  362MOL0     C48801   4.952   0.646   6.114 -0.0312  0.5214 -0.4830
  362MOL0     C48802   5.057   0.551   6.136  0.2059 -0.9241  0.0049
  362MOL0     H48803   5.439   0.510   6.309  1.3954  0.5713  0.7893
  362MOL0     H48804   5.658   0.433   6.379 -0.8546  1.6359 -0.9322
  362MOL0     H48805   5.815   0.042   6.358  2.6388 -1.5571 -0.0147
  362MOL0     H48806   5.844   0.107   6.197 -1.3227  0.1859 -0.7697
  362MOL0     H48807   6.062   0.135   6.281 -0.5298  0.9481 -0.8370
  362MOL0     H48808   6.000   0.278   6.350  1.5789 -1.5481 -2.6917
  362MOL0     H48809   5.952   0.156   6.560 -1.2540 -0.0108 -0.1151
  362MOL0     H48810   5.993  -0.010   6.493 -0.3301  0.3797 -0.9092
  362MOL0     H48811   6.232   0.066   6.481  2.5405  1.2202  1.8363
  362MOL0     H48812   6.187   0.212   6.554  1.3058 -0.7922  1.1344
  362MOL0     H48813   6.108   0.127   6.762  0.8465  1.3149 -0.6757
  362MOL0     H48814   6.116  -0.038   6.706  0.9616 -0.1815  2.3030
  362MOL0     H48815   6.366   0.145   6.750  2.1966 -2.0089  1.3115
  362MOL0     H48816   6.312   0.019   6.863 -1.3073  0.9467  0.0945
  362MOL0     H48817   6.358  -0.136   6.662 -0.1705 -0.5529  2.8370
  362MOL0     H48818   6.422   0.005   6.583 -2.6640  4.2500  1.0635
  362MOL0     H48819   6.576  -0.153   6.687  0.8076  1.9610 -4.0997
  362MOL0     H48820   6.503  -0.104   6.847 -3.6885  0.7332 -1.0456
  362MOL0     H48821   6.635   0.090   6.971 -1.9338  1.3995 -1.3490
  362MOL0     H48822   6.852   0.279   7.010 -2.2003  0.6799  1.2577
  362MOL0     H48823   6.880   0.388   6.865 -2.4432  1.6497 -0.9876
  362MOL0     H48824   6.720   0.478   7.028  0.7817 -2.2260  1.3497
  362MOL0     H48825   6.636   0.328   7.037 -0.2311 -0.3196 -0.7109
  362MOL0     H48826   6.584   0.381   6.779  1.0277  2.4322 -1.7897
  362MOL0     H48827   6.621   0.551   6.817 -0.3798 -0.3988  0.8371
  362MOL0     H48828   6.436   0.564   6.955 -3.6784 -1.6672  1.1632
  362MOL0     H48829   6.432   0.385   6.959  0.0869 -0.0324  0.0899
  362MOL0     H48830   6.172   0.496   6.582  0.5876 -0.4977  0.4918
  362MOL0     H48831   5.861   0.643   6.560 -0.7477 -0.6709 -0.6925
  362MOL0     H48832   6.001   0.553   6.487  0.2531  1.9528  0.8353
  362MOL0     H48833   5.851   0.474   6.540 -1.5490  1.8468 -3.1221
  362MOL0     H48834   5.675   0.839   7.076  1.7404 -0.1341  1.1222
  362MOL0     H48835   5.452   0.906   7.138  1.0845  0.0482  1.6169
  362MOL0     H48836   5.218   0.962   7.177 -0.8011 -0.8323  1.6044
  362MOL0     H48837   5.212   0.978   7.009 -1.7516 -0.2809 -0.0199
  362MOL0     H48838   4.989   0.851   7.166  2.7435 -0.7193 -0.0712
  362MOL0     H48839   5.006   1.028   7.137 -0.8969 -0.0494  1.4804
  362MOL0     H48840   5.040   0.895   6.884  1.1506 -1.4058  1.4793
  362MOL0     H48841   4.914   1.007   6.935  2.5980  1.0788  0.4225
  362MOL0     H48842   4.907   0.700   6.950  0.0514  0.1727 -2.1538
  362MOL0     H48843   4.788   0.814   7.028  2.8650  1.9563  3.2580
  362MOL0     H48844   4.710   0.727   6.807  0.6210 -0.5847  0.4746
  362MOL0     H48845   4.843   0.797   6.722  3.7672 -0.1140  2.5369
  362MOL0     H48846   4.635   0.953   6.904 -1.1363 -2.5835  0.3362
  362MOL0     H48847   4.763   1.027   6.797  0.9869 -0.0978  4.0599
  362MOL0     H48848   4.543   0.846   6.697 -1.8933  0.8758 -1.1931
  362MOL0     H48849   4.671   0.906   6.601  1.4762  0.3741  0.5014
  362MOL0     H48850   4.477   1.045   6.553  2.0174  0.5319 -2.2303
  362MOL0     H48851   4.589   1.152   6.642 -1.1099  0.0308  1.7962
  362MOL0     H48852   5.304   0.533   6.969 -0.2050  1.8899 -0.7304
  362MOL0     H48853   5.526   0.462   6.915 -1.4491 -1.5722  2.2620
  362MOL0     H48854   5.999   0.564   7.042 -0.7590  0.5319 -0.2820
  362MOL0     H48855   6.221   0.512   7.016  0.8080  1.4818 -0.0778
  362MOL0     H48856   5.611   0.069   6.159  3.4953  2.1732 -2.3998
  362MOL0     H48857   5.374   0.149   6.088 -0.1775 -1.9526  1.7267
  362MOL0     H48858   4.922   0.263   6.073  4.3019  0.6008  0.8023
  362MOL0     H48859   4.714   0.409   6.023 -1.1220 -0.4114  0.9518
  362MOL0     H48860   4.728   0.700   5.850 -0.2430  2.5140  0.6906
  362MOL0     H48861   4.639   0.558   5.904  1.0027 -0.8230  1.3829
  362MOL0     H48862   4.479   0.713   5.994 -1.0631  1.8857 -0.2563
  362MOL0     H48863   4.500   0.767   5.823 -2.7386  3.4975  1.3120
  362MOL0     H48864   4.602   0.904   6.070 -4.0986  1.8694  0.4224
  362MOL0     H48865   4.479   0.950   5.950 -1.2769 -1.1980  0.7258
  362MOL0     H48866   4.780   0.938   5.900  0.4520 -0.0587 -0.2085
  362MOL0     H48867   4.688   1.072   5.952 -2.8485 -0.5658  0.7186
  362MOL0     H48868   4.618   1.014   5.519  0.7384  1.1818 -0.0830
  362MOL0     H48869   4.973   0.752   6.119  4.5597 -0.2057 -0.2037
  362MOL0     H48870   5.149   0.592   6.176 -0.1986 -0.7063  0.7278
  363MOL0     O48871   1.329   9.721   1.513 -0.3269  0.2522 -0.2200
  363MOL0     C48872   1.326   9.695   1.636 -0.4467  0.1929  0.5006
  363MOL0     O48873   1.231   9.731   1.728 -0.4955  0.1731 -0.2797
  363MOL0     C48874   1.162   9.835   1.674  0.7575  0.8459 -0.2879
  363MOL0     C48875   1.031   9.815   1.630 -0.5347  0.9154  0.3488
  363MOL0     C48876   0.955   9.925   1.585  0.4942  0.0840 -0.3360
  363MOL0     C48877   1.026  10.050   1.562  0.3111 -0.3023 -0.2653
  363MOL0     O48878   0.954  10.149   1.505  0.2389 -0.3741  0.8758
  363MOL0     C48879   1.019  10.262   1.451  0.2727 -0.0423 -0.3668
  363MOL0     C48880   0.923  10.331   1.353  0.4231  0.3640 -0.4505
  363MOL0     C48881   0.911  10.241   1.227 -0.6119  0.4213  0.1618
  363MOL0     C48882   0.862  10.325   1.108  0.3150 -0.4915 -0.4992
  363MOL0     C48883   0.829  10.232   0.992 -0.1881  0.4260  0.6984
  363MOL0     C48884   0.873  10.308   0.862  0.3183 -0.0523  0.4603
  363MOL0     C48885   0.772  10.400   0.802 -0.5424 -0.6210  0.0462
  363MOL0     C48886   0.736  10.511   0.906 -0.2475 -1.4191 -0.2558
  363MOL0     N48887   0.650  10.610   0.842 -0.6259 -0.4442 -0.2603
  363MOL0     C48888   0.514  10.607   0.852  0.5857  0.0179  0.0663
  363MOL0     C48889   0.472  10.702   0.766  0.3615 -0.0315  0.1540
  363MOL0     C48890   0.338  10.716   0.709 -1.3095  0.4106  0.3738
  363MOL0     C48891   0.273  10.596   0.638 -0.2097 -0.5450 -0.6560
  363MOL0     C48892   0.352  10.561   0.510 -1.1923 -0.4487 -0.2356
  363MOL0     C48893   0.474  10.467   0.526 -1.1572 -0.3322 -0.1378
  363MOL0     O48894   0.442  10.335   0.567 -0.4616 -0.3096  1.0067
  363MOL0     C48895   0.394  10.243   0.474 -0.6155 -0.6694 -0.2440
  363MOL0     C48896   0.375  10.271   0.342  0.4190 -0.0619 -1.1583
  363MOL0     C48897   0.334  10.171   0.250 -0.3700  0.8886 -0.6180
  363MOL0     C48898   0.329  10.209   0.106  0.6831 -0.3320 -0.4508
  363MOL0     C48899   0.309  10.035   0.288 -0.0761  0.7773  0.2269
  363MOL0     C48900   0.267   9.926   0.200 -0.2878 -0.3474  0.0357
  363MOL0     O48901   0.236   9.945   0.073 -0.1473 -0.4041  0.2809
  363MOL0     C48902   0.174   9.844  -0.005  0.3773  0.1126 -0.5068
  363MOL0     C48903   0.206   9.814  -0.136 -0.2187  0.1895  0.6514
  363MOL0     C48904   0.121   9.735  -0.214  0.3971 -0.1178 -0.1858
  363MOL0     C48905  -0.003   9.690  -0.169  0.4996  0.2231 -0.7358
  363MOL0     O48906  -0.085   9.626  -0.266 -0.6880  0.1459 -0.3028
  363MOL0     C48907  -0.227   9.665  -0.259  0.1289  0.4075  1.0821
  363MOL0     C48908  -0.306   9.542  -0.238 -0.9027  0.4247 -1.3688
  363MOL0     C48909  -0.459   9.567  -0.235  0.2060  0.0912  0.3757
  363MOL0     C48910  -0.534   9.441  -0.177  0.3960  0.4505  0.0734
  363MOL0     C48911  -0.683   9.468  -0.173  0.5086  0.6986  0.7914
  363MOL0     C48912  -0.756   9.411  -0.307 -0.1865 -0.2952  0.1474
  363MOL0     C48913  -0.907   9.432  -0.291 -0.7257 -0.9443 -0.7981
  363MOL0     C48914  -1.004   9.370  -0.395  0.4217 -0.9413  0.0740
  363MOL0    Cl48915  -0.991   9.196  -0.444 -0.0504  0.1730 -0.3521
  363MOL0     C48916  -0.032   9.709  -0.040 -0.7011  1.3041 -0.2245
  363MOL0     C48917   0.048   9.793   0.039 -0.2623 -0.3027  0.4476
  363MOL0     O48918   0.272   9.813   0.250  0.1290  0.3599 -0.3581
  363MOL0     C48919   0.343  10.016   0.429 -0.4804 -0.3463  0.2771
  363MOL0     C48920   0.378  10.109   0.526 -0.2798  0.1754  0.8367
  363MOL0     N48921   0.585  10.773   0.715  0.5279 -0.6252  0.1356
  363MOL0     N48922   0.688  10.721   0.773 -0.5892 -0.0130  0.3959
  363MOL0     C48923   1.161  10.064   1.597 -0.0991 -0.1378 -0.4400
  363MOL0     C48924   1.219   9.958   1.663 -0.8578 -0.1067 -0.6374
  363MOL0     C48925   1.425   9.616   1.691  0.0541 -0.2686  0.2736
  363MOL0     C48926   1.448   9.606   1.825 -0.3480 -0.2702 -0.2778
  363MOL0     C48927   1.552   9.528   1.873 -0.6051 -0.4708  0.3048
  363MOL0     C48928   1.632   9.448   1.791  0.0823  0.7049  0.1964
  363MOL0     O48929   1.739   9.371   1.833 -0.2717 -0.2321  0.2097
  363MOL0     C48930   1.739   9.324   1.970  1.5394 -0.3683 -0.2557
  363MOL0     C48931   1.816   9.196   1.991 -0.4916 -0.6558 -0.6447
  363MOL0     C48932   1.972   9.219   1.978 -0.7417  0.0210 -0.2270
  363MOL0     C48933   2.053   9.097   1.977 -0.2344  0.8565  0.1118
  363MOL0     C48934   2.200   9.114   1.994  0.4157  0.2718 -0.3439
  363MOL0     C48935   2.319   9.124   1.988 -0.1790  0.0364  0.2514
  363MOL0     C48936   1.608   9.454   1.655 -0.4571 -0.1829  0.1001
  363MOL0     C48937   1.511   9.536   1.608  1.0253  0.6693 -0.1713
  363MOL0     H48938   0.969   9.729   1.650 -1.0295  1.3760  0.8548
  363MOL0     H48939   0.847   9.913   1.585  0.5168 -0.1544  0.4644
  363MOL0     H48940   1.043  10.336   1.528  1.4935 -1.4596  0.6668
  363MOL0     H48941   1.110  10.218   1.408  0.0284 -1.1261  0.1880
  363MOL0     H48942   0.825  10.349   1.398  0.8216  5.7391 -1.0770
  363MOL0     H48943   0.969  10.429   1.338  2.2982 -0.4158 -0.1170
  363MOL0     H48944   1.016  10.209   1.215  0.5113  3.6402  0.4500
  363MOL0     H48945   0.847  10.154   1.244 -0.9718  0.9530  1.7693
  363MOL0     H48946   0.772  10.381   1.132  2.1410  2.0028  0.9389
  363MOL0     H48947   0.944  10.395   1.092  0.5056 -1.0802 -2.3840
  363MOL0     H48948   0.893  10.147   1.014 -1.8128 -0.2351  3.2675
  363MOL0     H48949   0.724  10.202   0.982  0.0319 -0.2208  0.2646
  363MOL0     H48950   0.973  10.345   0.889  0.2664 -0.8757  1.8655
  363MOL0     H48951   0.888  10.219   0.800  0.9667  0.2707  0.1378
  363MOL0     H48952   0.810  10.445   0.710  2.4316  0.0672  1.4888
  363MOL0     H48953   0.685  10.344   0.767 -0.9409  2.4092 -4.5428
  363MOL0     H48954   0.821  10.566   0.947  1.1234 -2.1862 -1.8873
  363MOL0     H48955   0.667  10.469   0.980 -1.2214 -0.3484 -0.5351
  363MOL0     H48956   0.450  10.541   0.909 -0.8971  1.2459 -0.0923
  363MOL0     H48957   0.266  10.752   0.783 -2.3451  2.1255 -1.3812
  363MOL0     H48958   0.356  10.807   0.651  1.5463  0.8743  1.7905
  363MOL0     H48959   0.169  10.620   0.613  0.4002  1.5172 -1.4832
  363MOL0     H48960   0.279  10.512   0.707 -1.5431 -0.8663 -0.9175
  363MOL0     H48961   0.400  10.655   0.482  0.8485 -0.3947  2.9632
  363MOL0     H48962   0.286  10.519   0.433 -1.9540  0.5667 -0.1646
  363MOL0     H48963   0.532  10.507   0.610  0.1067 -0.4316 -0.9404
  363MOL0     H48964   0.534  10.475   0.435 -2.7085 -4.2834 -1.7336
  363MOL0     H48965   0.385  10.369   0.298  1.3991 -0.0254 -0.8697
  363MOL0     H48966   0.229  10.208   0.061  1.2273  0.5669 -1.7533
  363MOL0     H48967   0.367  10.310   0.096 -1.8792  0.8536  0.8766
  363MOL0     H48968   0.397  10.145   0.049  1.1604  2.1528 -2.9128
  363MOL0     H48969   0.305   9.842  -0.171 -0.7622  0.9237 -0.3556
  363MOL0     H48970   0.161   9.709  -0.312  1.3194  1.4905 -0.2738
  363MOL0     H48971  -0.244   9.756  -0.201 -2.2723  2.1087 -2.0388
  363MOL0     H48972  -0.247   9.690  -0.363 -0.4597 -0.0312  1.0846
  363MOL0     H48973  -0.274   9.476  -0.319 -1.0467  0.0916 -1.1554
  363MOL0     H48974  -0.270   9.495  -0.146 -0.2276  2.8752 -0.2953
  363MOL0     H48975  -0.493   9.588  -0.336 -1.0303 -0.0807  0.7338
  363MOL0     H48976  -0.484   9.647  -0.164  4.2123  1.0422  0.9403
  363MOL0     H48977  -0.511   9.353  -0.237 -2.3334 -0.0962 -0.2995
  363MOL0     H48978  -0.493   9.422  -0.077 -1.6212  2.9778  1.5039
  363MOL0     H48979  -0.698   9.576  -0.167  1.3656  1.0449 -1.8305
  363MOL0     H48980  -0.730   9.422  -0.086 -2.2897  1.9802  0.0766
  363MOL0     H48981  -0.731   9.461  -0.401 -1.8016  1.2563  0.4810
  363MOL0     H48982  -0.750   9.303  -0.320 -1.2722 -0.2402 -1.0658
  363MOL0     H48983  -0.925   9.539  -0.280 -0.0848 -1.0497  1.8710
  363MOL0     H48984  -0.938   9.398  -0.192 -1.4629 -1.3518 -1.1538
  363MOL0     H48985  -0.990   9.424  -0.489  1.6231 -0.1153  0.7002
  363MOL0     H48986  -1.108   9.393  -0.369 -0.4299 -1.9009 -2.1704
  363MOL0     H48987  -0.125   9.681   0.008 -0.8317 -1.2393 -1.7545
  363MOL0     H48988   0.030   9.820   0.142  3.4902 -0.0273  1.1975
  363MOL0     H48989   0.329   9.919   0.474  1.2842 -0.3138  0.9633
  363MOL0     H48990   0.395  10.088   0.632  1.0904  1.0160  0.8228
  363MOL0     H48991   1.217  10.153   1.571  0.1202 -0.3983 -0.8787
  363MOL0     H48992   1.325   9.965   1.684 -0.0077 -2.2174 -3.5713
  363MOL0     H48993   1.394   9.661   1.902  2.6423  1.6187  0.6599
  363MOL0     H48994   1.564   9.525   1.981 -1.4730 -0.8282  0.4050
  363MOL0     H48995   1.766   9.413   2.027 -1.6760  1.5815 -1.4992
  363MOL0     H48996   1.636   9.298   1.997  2.4850 -1.9886  2.1362
  363MOL0     H48997   1.779   9.116   1.927  1.4425  0.0291 -2.7762
  363MOL0     H48998   1.796   9.170   2.096  2.0359  1.4463  0.4814
  363MOL0     H48999   1.989   9.291   2.059  0.6839 -0.3033 -0.2072
  363MOL0     H49000   2.008   9.270   1.888  0.3556  0.3525  0.3849
  363MOL0     H49001   2.030   9.037   1.889 -0.7855 -0.9815  1.4232
  363MOL0     H49002   2.017   9.027   2.053  1.4058  0.7726  0.8749
  363MOL0     H49003   2.425   9.134   1.973  0.3029  0.4641  3.2232
  363MOL0     H49004   1.661   9.406   1.573  1.0173  2.0620 -0.3642
  363MOL0     H49005   1.505   9.546   1.500  0.0723 -1.4189 -0.3784
  364MOL0     O49006   7.695   5.810   6.731  0.1699 -0.3398 -0.8554
  364MOL0     C49007   7.776   5.788   6.826  0.2300 -0.3229  0.5825
  364MOL0     O49008   7.798   5.874   6.927 -0.8420  0.3022  0.2224
  364MOL0     C49009   7.743   6.001   6.907  0.2860 -0.0494  0.3507
  364MOL0     C49010   7.817   6.110   6.874  0.0486 -0.3215  0.5218
  364MOL0     C49011   7.763   6.237   6.846  0.4363  0.2294  0.2128
  364MOL0     C49012   7.628   6.263   6.872 -0.0089  0.6679  0.1495
  364MOL0     O49013   7.574   6.383   6.838  0.0016 -0.2204 -0.1968
  364MOL0     C49014   7.490   6.439   6.934  0.1236  0.7125 -0.4590
  364MOL0     C49015   7.435   6.567   6.894  0.2959 -0.3528  0.0871
  364MOL0     C49016   7.380   6.653   7.013  0.2678  0.0093 -0.3831
  364MOL0     C49017   7.378   6.799   6.984  1.0549  0.8360  0.6206
  364MOL0     C49018   7.297   6.832   6.851 -0.1287 -0.5121 -0.2672
  364MOL0     C49019   7.293   6.988   6.831 -0.3254 -0.7757 -0.0905
  364MOL0     C49020   7.151   7.034   6.838  0.3029 -0.4570 -0.2492
  364MOL0     C49021   7.069   6.980   6.716 -0.2474  0.7033  1.0610
  364MOL0     N49022   6.951   7.066   6.697 -0.0774  0.3244  0.3067
  364MOL0     C49023   6.833   7.059   6.762  1.2704  0.4467 -0.3672
  364MOL0     C49024   6.753   7.161   6.711 -0.9091  1.2575  0.4817
  364MOL0     C49025   6.622   7.212   6.751  0.1325 -0.7077  0.0684
  364MOL0     C49026   6.517   7.133   6.666 -0.3830 -0.7621  0.0833
  364MOL0     C49027   6.386   7.210   6.662 -0.1300  0.3161  0.6163
  364MOL0     C49028   6.262   7.122   6.622  0.4288  0.5187  0.6925
  364MOL0     O49029   6.147   7.209   6.590 -0.1741  0.1076  0.6179
  364MOL0     C49030   6.050   7.156   6.511  0.3054 -1.3866 -0.8767
  364MOL0     C49031   5.930   7.225   6.522 -0.4559  0.2076 -0.3511
  364MOL0     C49032   5.830   7.206   6.443  0.7858  0.1625 -0.9538
  364MOL0     C49033   5.715   7.297   6.452  1.2518 -0.0742 -0.1926
  364MOL0     C49034   5.836   7.109   6.340  0.1988  0.6835  0.2657
  364MOL0     C49035   5.732   7.101   6.237 -0.4804 -0.4926 -0.8500
  364MOL0     O49036   5.623   7.027   6.251  0.0337 -0.0725  0.6898
  364MOL0     C49037   5.608   6.915   6.324  0.6148  0.3455 -1.1541
  364MOL0     C49038   5.613   6.783   6.277  0.3892 -0.4706 -1.2134
  364MOL0     C49039   5.608   6.669   6.362  0.1245 -0.0318 -0.1093
  364MOL0     C49040   5.589   6.692   6.496  0.4617 -0.2970 -0.9846
  364MOL0     O49041   5.593   6.593   6.587  0.1985  0.6398  0.0091
  364MOL0     C49042   5.535   6.463   6.558 -0.2835 -0.3604 -0.0483
  364MOL0     C49043   5.382   6.467   6.526 -0.2924 -0.3431 -0.0314
  364MOL0     C49044   5.304   6.549   6.626  0.1600  0.3208  0.7458
  364MOL0     C49045   5.156   6.542   6.603 -0.0754 -0.2927  0.1231
  364MOL0     C49046   5.076   6.648   6.685 -1.0479 -0.4589 -0.9920
  364MOL0     C49047   4.924   6.638   6.669 -0.2683  0.3775 -0.6387
  364MOL0     C49048   4.843   6.734   6.765 -0.4948  0.7569  0.4636
  364MOL0     C49049   4.861   6.877   6.726  1.2128 -0.0946 -0.3130
  364MOL0    Cl49050   4.762   6.988   6.821 -0.5061  0.3230  0.0968
  364MOL0     C49051   5.573   6.811   6.545  0.3097 -1.1802  1.1542
  364MOL0     C49052   5.570   6.928   6.457 -0.0697  0.9437 -0.0690
  364MOL0     O49053   5.745   7.188   6.150  0.1925 -0.8775  0.1138
  364MOL0     C49054   5.945   7.020   6.337  0.0732  0.0464 -0.2925
  364MOL0     C49055   6.047   7.042   6.431 -0.4511  0.1953  0.6115
  364MOL0     N49056   6.830   7.222   6.614 -1.1451  0.1799 -0.2467
  364MOL0     N49057   6.945   7.165   6.602 -0.3368 -0.2510  0.4834
  364MOL0     C49058   7.551   6.154   6.913 -0.7170  0.4667 -0.3544
  364MOL0     C49059   7.604   6.023   6.925  0.1545 -0.3588 -0.0400
  364MOL0     C49060   7.876   5.680   6.809 -1.2968 -1.0855  1.5386
  364MOL0     C49061   8.009   5.678   6.864  0.2998  0.3808  0.3927
  364MOL0     C49062   8.096   5.571   6.851  0.1785  0.3117 -0.1389
  364MOL0     C49063   8.052   5.466   6.771  0.2452  0.6450 -0.3518
  364MOL0     O49064   8.134   5.363   6.727  0.9205 -0.4339 -0.5477
  364MOL0     C49065   8.227   5.402   6.636  0.3616  0.2133  0.2410
  364MOL0     C49066   8.298   5.276   6.605  0.1715  1.0528  0.5702
  364MOL0     C49067   8.427   5.291   6.511  0.4696  0.3266 -0.2430
  364MOL0     C49068   8.398   5.298   6.362 -0.5778 -0.3289  0.7588
  364MOL0     C49069   8.523   5.313   6.276 -0.4856  0.1127 -0.0761
  364MOL0     C49070   8.616   5.319   6.201 -0.7484 -0.0794 -0.1291
  364MOL0     C49071   7.920   5.471   6.718 -1.0946  0.4154  0.2162
  364MOL0     C49072   7.834   5.571   6.738 -0.3099  1.0913  0.3454
  364MOL0     H49073   7.924   6.097   6.856  0.8938  3.6810  1.6878
  364MOL0     H49074   7.819   6.317   6.801  2.4067 -0.9919  0.3563
  364MOL0     H49075   7.404   6.376   6.957 -1.8119  3.5109  0.4310
  364MOL0     H49076   7.551   6.449   7.025 -0.8444  0.4621  0.2277
  364MOL0     H49077   7.520   6.614   6.845 -0.9391 -2.6252 -4.9623
  364MOL0     H49078   7.358   6.554   6.817  0.8210 -2.0065 -0.1930
  364MOL0     H49079   7.288   6.612   7.055  0.3327 -0.9688 -1.1623
  364MOL0     H49080   7.445   6.648   7.101 -0.7243  1.4677  0.4856
  364MOL0     H49081   7.333   6.853   7.068  0.3638 -0.1897  0.9367
  364MOL0     H49082   7.483   6.825   6.972  2.0526 -3.2211 -0.8012
  364MOL0     H49083   7.332   6.786   6.758 -1.7529 -1.0867 -0.6121
  364MOL0     H49084   7.198   6.793   6.874  0.1662  0.1713  2.4932
  364MOL0     H49085   7.348   7.028   6.917  0.2969 -2.4676  0.3300
  364MOL0     H49086   7.351   7.027   6.747  0.4599  1.8981  1.5443
  364MOL0     H49087   7.109   7.003   6.934 -2.6021 -0.1000 -1.2804
  364MOL0     H49088   7.157   7.142   6.823  0.0932 -0.3928  0.1153
  364MOL0     H49089   7.043   6.874   6.715  0.5996  0.4769 -0.7275
  364MOL0     H49090   7.126   6.995   6.625  0.3078 -0.1782  1.2546
  364MOL0     H49091   6.810   7.003   6.853  1.0666  1.2052  0.0624
  364MOL0     H49092   6.608   7.188   6.857 -0.8775 -1.4719 -0.2216
  364MOL0     H49093   6.615   7.320   6.731  1.0293 -0.9661 -1.8167
  364MOL0     H49094   6.516   7.036   6.716 -0.3948  0.6421  3.0664
  364MOL0     H49095   6.543   7.117   6.561  0.0578  0.4638 -0.0097
  364MOL0     H49096   6.385   7.283   6.581 -1.4046 -4.2604 -4.0314
  364MOL0     H49097   6.361   7.251   6.760 -0.8121 -0.4070  0.7514
  364MOL0     H49098   6.219   7.068   6.707 -2.8490  1.5417 -0.1771
  364MOL0     H49099   6.285   7.053   6.540  0.8247  1.3993  0.0595
  364MOL0     H49100   5.928   7.302   6.598  1.5267  2.0987 -2.0547
  364MOL0     H49101   5.631   7.230   6.475  1.5807  0.0052  1.3777
  364MOL0     H49102   5.729   7.382   6.520 -4.2841  1.4594 -0.4941
  364MOL0     H49103   5.697   7.333   6.351  3.5895 -1.5381 -1.2239
  364MOL0     H49104   5.625   6.772   6.169 -1.0343  1.7347 -1.6558
  364MOL0     H49105   5.616   6.565   6.330 -2.7820 -0.1886 -0.5724
  364MOL0     H49106   5.588   6.418   6.474  0.3867 -1.0766  0.7452
  364MOL0     H49107   5.550   6.414   6.655 -2.4719  2.6525  2.0544
  364MOL0     H49108   5.365   6.503   6.425 -0.1749  3.6974  1.2184
  364MOL0     H49109   5.351   6.363   6.541  0.1013 -0.1879  2.4094
  364MOL0     H49110   5.326   6.655   6.611 -3.1951  0.8736 -1.3025
  364MOL0     H49111   5.327   6.513   6.727 -0.0691  1.3228  1.1693
  364MOL0     H49112   5.141   6.556   6.495 -0.1971  2.6781  0.4484
  364MOL0     H49113   5.114   6.448   6.640 -3.2844  1.1130  0.3785
  364MOL0     H49114   5.106   6.750   6.657  0.6746 -1.1142 -1.6158
  364MOL0     H49115   5.107   6.637   6.789  2.7341 -0.2017 -1.9571
  364MOL0     H49116   4.890   6.647   6.565 -0.2235  0.3117 -0.6599
  364MOL0     H49117   4.902   6.536   6.701  1.4677  0.4230  0.8253
  364MOL0     H49118   4.885   6.708   6.863  0.9722 -2.4589 -0.9075
  364MOL0     H49119   4.742   6.692   6.764  0.8755 -2.9826  1.5796
  364MOL0     H49120   4.827   6.890   6.623 -3.1887  2.3370  1.2073
  364MOL0     H49121   4.966   6.905   6.741  0.6682  2.3391 -0.6470
  364MOL0     H49122   5.553   6.825   6.651 -1.9768 -2.3220  0.9378
  364MOL0     H49123   5.554   7.023   6.506 -0.1091  0.9736 -0.1403
  364MOL0     H49124   5.949   6.945   6.258 -1.3112  1.7215 -2.0349
  364MOL0     H49125   6.129   6.971   6.430 -1.9017 -1.5431  0.5966
  364MOL0     H49126   7.447   6.173   6.938  0.3582  3.2518  2.7247
  364MOL0     H49127   7.546   5.936   6.954 -1.5888  0.3232 -1.3487
  364MOL0     H49128   8.033   5.759   6.932 -1.6161  1.0217  0.3597
  364MOL0     H49129   8.191   5.574   6.903  1.9509  0.8546 -3.1674
  364MOL0     H49130   8.174   5.441   6.549 -0.5740  1.5938  1.4008
  364MOL0     H49131   8.291   5.477   6.684 -0.0741  1.9089 -1.6962
  364MOL0     H49132   8.231   5.198   6.569  1.2950 -0.3255  1.3425
  364MOL0     H49133   8.335   5.235   6.700 -1.8376  3.7482  2.6734
  364MOL0     H49134   8.485   5.200   6.530 -2.2286 -1.7194 -1.2984
  364MOL0     H49135   8.481   5.384   6.533 -2.5207  1.7000  1.9372
  364MOL0     H49136   8.326   5.377   6.336  1.4620  0.6689 -2.3923
  364MOL0     H49137   8.349   5.209   6.321 -1.4606  1.2355 -1.8345
  364MOL0     H49138   8.707   5.335   6.147  0.6334 -1.0340  1.7820
  364MOL0     H49139   7.872   5.387   6.668 -0.9285  1.0427 -1.0430
  364MOL0     H49140   7.737   5.560   6.691  0.4959 -1.5770 -0.8512
  365MOL0     O49141  10.392   6.999  10.536 -0.0296 -0.1481 -0.3809
  365MOL0     C49142  10.447   7.094  10.594  0.4489 -0.5810 -1.1076
  365MOL0     O49143  10.384   7.212  10.630  0.4530 -0.5322 -0.1912
  365MOL0     C49144  10.251   7.231  10.588  0.2589  0.0163 -0.5111
  365MOL0     C49145  10.168   7.278  10.691 -0.6333 -0.2314  0.1254
  365MOL0     C49146  10.036   7.285  10.673  0.5826  0.4965  0.5649
  365MOL0     C49147   9.981   7.264  10.546  0.5505  0.1368  0.5977
  365MOL0     O49148   9.852   7.272  10.514  0.4930  0.3490 -0.1567
  365MOL0     C49149   9.749   7.311  10.597  0.6949 -0.8409 -1.2162
  365MOL0     C49150   9.749   7.462  10.598  0.8878  0.1595 -0.8739
  365MOL0     C49151   9.647   7.533  10.689  0.3999 -0.2078  0.0599
  365MOL0     C49152   9.653   7.684  10.673 -0.1404 -0.6365 -0.8104
  365MOL0     C49153   9.552   7.766  10.754  0.1540 -1.2958 -0.8346
  365MOL0     C49154   9.597   7.916  10.759  0.5168  0.1838 -0.4278
  365MOL0     C49155   9.528   8.000  10.864 -0.2433  0.5047  0.5158
  365MOL0     C49156   9.380   8.010  10.848  0.6265  0.0047  0.4112
  365MOL0     N49157   9.332   8.144  10.890 -1.1359 -0.4415 -0.0219
  365MOL0     C49158   9.325   8.265  10.813  0.0921 -0.4121 -0.8755
  365MOL0     C49159   9.282   8.355  10.906  0.3256  0.0919  0.1755
  365MOL0     C49160   9.283   8.499  10.889 -0.8307 -1.0852  0.1487
  365MOL0     C49161   9.135   8.547  10.866 -0.6673 -0.9111 -0.4070
  365MOL0     C49162   9.077   8.504  10.736  0.6071 -0.0728 -0.5323
  365MOL0     C49163   8.949   8.580  10.690 -0.0721 -0.5542  0.4157
  365MOL0     O49164   8.910   8.532  10.564  0.2284 -0.3338 -0.7019
  365MOL0     C49165   8.814   8.433  10.585 -0.6712  0.0458 -0.0954
  365MOL0     C49166   8.680   8.457  10.612  0.5596  1.4085 -0.2631
  365MOL0     C49167   8.580   8.350  10.617  0.1532  0.2191 -0.7891
  365MOL0     C49168   8.434   8.377  10.646 -0.2146 -0.7956 -0.4614
  365MOL0     C49169   8.622   8.216  10.619  0.1280  0.1210 -0.1421
  365MOL0     C49170   8.536   8.108  10.680  0.5107 -0.7117  0.0215
  365MOL0     O49171   8.490   8.126  10.809  0.0300  0.4768 -0.5130
  365MOL0     C49172   8.402   8.033  10.853  0.0257  0.1148  0.8677
  365MOL0     C49173   8.272   8.018  10.791  0.0855 -0.3360 -0.6111
  365MOL0     C49174   8.178   7.923  10.834 -0.1760 -0.1203 -0.0877
  365MOL0     C49175   8.201   7.847  10.947 -0.6229  0.3384  0.3162
  365MOL0     O49176   8.089   7.779  10.985  0.4781  0.1923  0.0178
  365MOL0     C49177   8.055   7.783  11.123  0.1576 -0.3460 -0.5798
  365MOL0     C49178   7.909   7.747  11.144  0.2114 -0.1821  1.5436
  365MOL0     C49179   7.807   7.860  11.113 -0.5753  0.2455 -0.2620
  365MOL0     C49180   7.675   7.801  11.150 -0.3750  0.3606  0.0531
  365MOL0     C49181   7.555   7.897  11.131  0.3038  0.4719 -0.2057
  365MOL0     C49182   7.516   7.906  10.987 -0.0866  1.0219 -0.4503
  365MOL0     C49183   7.390   7.982  10.950 -0.0400  0.0671  0.1007
  365MOL0     C49184   7.268   7.897  10.986 -0.3905 -0.0062  0.2806
  365MOL0    Cl49185   7.121   7.985  10.939 -0.0527 -0.3103 -0.3975
  365MOL0     C49186   8.330   7.860  11.007  0.0941 -0.2164 -0.0961
  365MOL0     C49187   8.431   7.948  10.963 -0.5176  0.8274 -0.3070
  365MOL0     O49188   8.521   8.007  10.611 -0.2234  0.3744 -0.6855
  365MOL0     C49189   8.757   8.192  10.593  0.0899 -0.4776  0.4643
  365MOL0     C49190   8.844   8.298  10.572 -0.4722  0.4651  0.1256
  365MOL0     N49191   9.287   8.297  11.035 -0.1516 -0.5100  0.9824
  365MOL0     N49192   9.312   8.168  11.021  0.5971  0.3953 -0.1970
  365MOL0     C49193  10.065   7.231  10.435  0.9707 -0.0017  0.6014
  365MOL0     C49194  10.201   7.211  10.466  0.5655 -0.0249  0.3841
  365MOL0     C49195  10.586   7.086  10.648 -0.4910  1.1599  0.5341
  365MOL0     C49196  10.663   7.201  10.664 -0.0750 -0.5309  0.5098
  365MOL0     C49197  10.788   7.197  10.710  0.3769  0.0725 -0.3021
  365MOL0     C49198  10.853   7.079  10.747  1.1258 -0.2153 -0.3443
  365MOL0     O49199  10.983   7.080  10.785  0.9122 -0.3234 -0.5920
  365MOL0     C49200  11.004   7.174  10.891 -1.2318 -0.2616 -0.4531
  365MOL0     C49201  11.104   7.122  11.000  0.0676  0.0283 -0.4709
  365MOL0     C49202  11.059   6.983  11.059 -0.0626 -0.3207 -1.1469
  365MOL0     C49203  11.154   6.932  11.163  1.0822 -0.5738  0.1155
  365MOL0     C49204  11.102   6.808  11.223 -0.6398 -0.6071  0.0147
  365MOL0     C49205  11.049   6.699  11.242 -0.0017  0.0132  0.0433
  365MOL0     C49206  10.778   6.963  10.757 -0.0935 -0.2017 -1.2858
  365MOL0     C49207  10.644   6.957  10.704  1.0658 -0.6407  0.2465
  365MOL0     H49208  10.205   7.294  10.792 -1.1349  2.0210  0.0095
  365MOL0     H49209   9.980   7.317  10.759 -0.0198  1.0574 -0.0248
  365MOL0     H49210   9.652   7.270  10.567 -1.2372  1.7510  0.9610
  365MOL0     H49211   9.764   7.287  10.702 -0.4360  0.5984 -0.6901
  365MOL0     H49212   9.845   7.489  10.643 -0.5989 -1.6826  4.1135
  365MOL0     H49213   9.728   7.483  10.493 -0.9989 -0.2134 -0.5988
  365MOL0     H49214   9.556   7.482  10.658  0.9738 -0.8634 -0.5805
  365MOL0     H49215   9.661   7.518  10.797  0.2701  1.1601  0.2971
  365MOL0     H49216   9.757   7.710  10.695  0.8539 -3.5085 -1.6428
  365MOL0     H49217   9.640   7.710  10.568 -1.4762  0.4776 -0.4018
  365MOL0     H49218   9.457   7.759  10.701  0.8494  0.2834 -2.3819
  365MOL0     H49219   9.544   7.728  10.856  0.2069 -0.8414 -0.6561
  365MOL0     H49220   9.704   7.929  10.776  0.4565 -0.9031  0.9605
  365MOL0     H49221   9.580   7.966  10.663 -0.8004 -1.0730 -0.8896
  365MOL0     H49222   9.549   7.962  10.964 -1.5931 -0.6643  0.3907
  365MOL0     H49223   9.568   8.102  10.862 -1.2307  0.9090  0.8835
  365MOL0     H49224   9.340   7.925  10.904  1.3055 -0.9312 -0.4620
  365MOL0     H49225   9.359   8.001  10.741  3.3586 -0.5547 -0.1627
  365MOL0     H49226   9.339   8.278  10.706  2.3286 -1.9599 -0.8455
  365MOL0     H49227   9.308   8.543  10.986 -0.9590  0.9930 -0.7084
  365MOL0     H49228   9.350   8.537  10.811  0.0926  0.9658  1.8487
  365MOL0     H49229   9.146   8.655  10.877  3.2222 -1.2323  0.6104
  365MOL0     H49230   9.083   8.521  10.958  3.1327 -0.9670  1.9528
  365MOL0     H49231   9.056   8.398  10.750  0.2769  0.1616  0.8790
  365MOL0     H49232   9.150   8.508  10.655  1.6315 -2.8405  0.1364
  365MOL0     H49233   8.983   8.684  10.681  1.8474 -1.2182 -0.4436
  365MOL0     H49234   8.872   8.565  10.767 -0.1195 -4.7492 -0.2622
  365MOL0     H49235   8.646   8.559  10.601 -5.4967 -0.4040 -2.3023
  365MOL0     H49236   8.418   8.368  10.754  2.0408  2.1131  0.2794
  365MOL0     H49237   8.411   8.481  10.618  3.2712  0.1078 -0.5176
  365MOL0     H49238   8.369   8.306  10.594  0.7437 -0.8072 -1.7130
  365MOL0     H49239   8.254   8.080  10.704  0.9728  0.8618  0.0235
  365MOL0     H49240   8.089   7.905  10.774  1.8916 -2.6800 -2.6603
  365MOL0     H49241   8.121   7.718  11.181 -2.8787 -1.9810  1.3340
  365MOL0     H49242   8.085   7.880  11.163  2.8300 -2.1290  2.0769
  365MOL0     H49243   7.888   7.646  11.108 -0.6376  1.4520 -3.2929
  365MOL0     H49244   7.903   7.727  11.251 -2.0248  1.5857  1.8267
  365MOL0     H49245   7.810   7.895  11.010  0.3303 -1.0424 -0.7032
  365MOL0     H49246   7.828   7.948  11.174  0.7206  0.2402 -0.6577
  365MOL0     H49247   7.653   7.712  11.091 -0.8051  1.1926 -1.0748
  365MOL0     H49248   7.668   7.772  11.255  2.0997  0.1134  0.2235
  365MOL0     H49249   7.573   7.998  11.170 -3.7019  0.8437  1.0294
  365MOL0     H49250   7.477   7.845  11.186  1.9965 -0.2415  1.6601
  365MOL0     H49251   7.596   7.970  10.946  0.4312  0.4692 -0.3108
  365MOL0     H49252   7.515   7.813  10.929  0.2026  0.8252 -0.1421
  365MOL0     H49253   7.387   8.004  10.843 -1.6977 -0.1768  0.0732
  365MOL0     H49254   7.387   8.078  11.001 -0.3599 -0.5502  1.2851
  365MOL0     H49255   7.280   7.880  11.093  0.9033 -1.7412 -0.1013
  365MOL0     H49256   7.260   7.802  10.933  0.5383 -0.8525  1.6203
  365MOL0     H49257   8.359   7.793  11.087  2.8338  0.3630 -0.5118
  365MOL0     H49258   8.532   7.945  11.003 -0.7150  3.0869  0.4721
  365MOL0     H49259   8.780   8.086  10.588  0.8046 -0.3663  1.2491
  365MOL0     H49260   8.948   8.276  10.547  0.1435  2.5231  0.6642
  365MOL0     H49261  10.030   7.199  10.338  0.7412 -1.9268  1.2826
  365MOL0     H49262  10.269   7.186  10.385 -0.6321  0.1079 -0.6940
  365MOL0     H49263  10.620   7.294  10.628  0.8734 -0.8705 -1.6715
  365MOL0     H49264  10.835   7.295  10.716  2.3224 -0.7859 -0.8674
  365MOL0     H49265  11.034   7.273  10.854  2.1741 -1.0107 -0.0831
  365MOL0     H49266  10.910   7.185  10.945  0.8210 -2.4547  4.1282
  365MOL0     H49267  11.113   7.192  11.083  3.2362  0.0619 -0.6976
  365MOL0     H49268  11.208   7.111  10.967  2.2525  0.1533  5.1623
  365MOL0     H49269  11.042   6.909  10.980  1.6053  1.6585 -3.5247
  365MOL0     H49270  10.963   7.005  11.108 -0.2465  0.8220 -1.9777
  365MOL0     H49271  11.170   7.010  11.239 -0.4172  1.7808 -1.8208
  365MOL0     H49272  11.245   6.909  11.108  0.9402 -1.0397  0.0711
  365MOL0     H49273  11.014   6.602  11.271  2.1618 -1.3561 -1.5771
  365MOL0     H49274  10.811   6.868  10.796 -1.9827 -0.8829 -1.2685
  365MOL0     H49275  10.601   6.861  10.682  0.8244 -0.0834 -1.8837
  366MOL0     O49276   7.094   0.193  10.009 -0.0477  0.1576  0.0566
  366MOL0     C49277   7.095   0.126  10.114  0.0080  0.4422  0.3450
  366MOL0     O49278   7.008   0.143  10.210  0.8067  0.1159 -0.0441
  366MOL0     C49279   6.913   0.245  10.184  0.1858  0.2154 -0.4635
  366MOL0     C49280   6.814   0.216  10.094  0.1825 -0.8197 -1.0398
  366MOL0     C49281   6.707   0.310  10.075 -0.0482  0.0182 -0.1000
  366MOL0     C49282   6.710   0.431  10.140 -0.7388 -0.8907  0.6932
  366MOL0     O49283   6.606   0.529  10.125 -0.6023 -0.3628  0.5392
  366MOL0     C49284   6.481   0.495  10.074 -0.5821  0.5298  0.5682
  366MOL0     C49285   6.409   0.386  10.162 -0.4829  0.0959  0.0425
  366MOL0     C49286   6.368   0.425  10.309  1.0961  0.2189 -0.8543
  366MOL0     C49287   6.247   0.342  10.362  0.0373  0.0642 -0.2150
  366MOL0     C49288   6.178   0.448  10.463 -0.8032 -0.1321  0.4761
  366MOL0     C49289   6.263   0.472  10.589 -0.8022 -0.3124 -0.3245
  366MOL0     C49290   6.172   0.537  10.694  0.0427 -0.7600  0.8068
  366MOL0     C49291   6.250   0.565  10.817 -0.3565 -0.5369 -0.7251
  366MOL0     N49292   6.294   0.444  10.884 -0.0087  0.4200  0.8691
  366MOL0     C49293   6.224   0.368  10.973  0.8728  0.0708  0.3303
  366MOL0     C49294   6.314   0.301  11.040  0.6223 -0.7143 -0.4321
  366MOL0     C49295   6.295   0.212  11.161 -0.6537 -0.2007 -0.0988
  366MOL0     C49296   6.158   0.227  11.234 -0.2389 -0.2877 -0.1339
  366MOL0     C49297   6.134   0.119  11.339 -0.9603 -0.0223  0.1951
  366MOL0     C49298   6.001   0.042  11.317 -0.4062 -0.8439 -0.2185
  366MOL0     O49299   5.892   0.142  11.293 -1.2570 -0.0565 -0.8644
  366MOL0     C49300   5.801   0.162  11.396 -0.0460 -0.4823 -0.1084
  366MOL0     C49301   5.743   0.068  11.477  0.0555 -0.6636 -0.2010
  366MOL0     C49302   5.659   0.100  11.587  1.3888  0.2333  0.1338
  366MOL0     C49303   5.604  -0.026  11.641 -0.5614  0.0482 -0.2266
  366MOL0     C49304   5.639   0.231  11.625  0.0355  0.9120  0.4078
  366MOL0     C49305   5.545   0.270  11.731  0.1506  0.5824 -0.6674
  366MOL0     O49306   5.484   0.165  11.789 -0.1037  0.3506  0.2790
  366MOL0     C49307   5.389   0.185  11.882 -0.4073  0.0678 -1.2868
  366MOL0     C49308   5.267   0.264  11.858 -0.3059 -0.1224 -0.8319
  366MOL0     C49309   5.176   0.277  11.964  1.4033  0.2662 -0.7952
  366MOL0     C49310   5.187   0.232  12.099 -0.5196  0.5476  0.1233
  366MOL0     O49311   5.090   0.241  12.185 -0.7045 -0.1528 -0.2086
  366MOL0     C49312   5.100   0.204  12.321  0.7706  0.0105 -0.2717
  366MOL0     C49313   4.979   0.269  12.388 -0.0720 -0.6624  0.0158
  366MOL0     C49314   4.847   0.199  12.346  1.0716 -0.3099  0.0448
  366MOL0     C49315   4.722   0.215  12.453  0.8460 -0.3604 -0.2351
  366MOL0     C49316   4.598   0.121  12.421  0.5645  0.4322  0.2769
  366MOL0     C49317   4.522   0.177  12.297  0.4594  1.1377  0.2117
  366MOL0     C49318   4.391   0.096  12.277  1.2086  0.1693 -0.3190
  366MOL0     C49319   4.314   0.126  12.139  0.1188 -0.1220  0.5609
  366MOL0    Cl49320   4.239   0.286  12.158 -0.4485  0.1608 -0.2751
  366MOL0     C49321   5.317   0.157  12.114  1.3810  0.3709  0.3478
  366MOL0     C49322   5.403   0.123  12.009  0.5266  0.8358 -0.0724
  366MOL0     O49323   5.531   0.391  11.758 -0.4287 -0.0286 -0.2021
  366MOL0     C49324   5.703   0.329  11.551 -0.7292 -1.2210  0.2781
  366MOL0     C49325   5.779   0.296  11.434 -0.8532  0.2502  0.5609
  366MOL0     N49326   6.440   0.332  10.998  0.7158  0.0676 -0.1587
  366MOL0     N49327   6.429   0.426  10.910 -0.2743  0.5891  0.0544
  366MOL0     C49328   6.816   0.466  10.225  0.8694  0.2920  0.2938
  366MOL0     C49329   6.919   0.370  10.250  0.2172 -0.0029 -0.2416
  366MOL0     C49330   7.210   0.031  10.129  0.0944  0.5542 -1.0277
  366MOL0     C49331   7.298   0.009  10.025  0.0134  0.4188  0.2894
  366MOL0     C49332   7.412  -0.074  10.031 -0.4723  0.4536  0.2417
  366MOL0     C49333   7.435  -0.145  10.147  0.4251 -0.8271 -0.4388
  366MOL0     O49334   7.540  -0.228  10.145  0.4678  0.2321 -0.1914
  366MOL0     C49335   7.563  -0.328  10.253 -0.0562 -0.6721  0.9995
  366MOL0     C49336   7.670  -0.426  10.211  0.2358  0.5153 -0.1419
  366MOL0     C49337   7.822  -0.374  10.235  1.0401  0.6243  0.2166
  366MOL0     C49338   7.870  -0.437  10.366  0.3658  0.6605 -0.2267
  366MOL0     C49339   7.901  -0.583  10.353 -0.4757  1.2688 -0.3372
  366MOL0     C49340   7.919  -0.706  10.358 -0.1440  0.5727 -0.6765
  366MOL0     C49341   7.341  -0.122  10.255  0.7212  0.3274  0.8180
  366MOL0     C49342   7.237  -0.029  10.247 -0.0768 -0.6407 -0.1813
  366MOL0     H49343   6.812   0.119  10.046 -0.7394 -0.1211 -2.4434
  366MOL0     H49344   6.620   0.287  10.014  1.8241  0.6250 -3.2045
  366MOL0     H49345   6.418   0.584  10.073 -0.0808  0.8838 -0.2046
  366MOL0     H49346   6.497   0.461   9.971  0.0367  0.2942  0.7416
  366MOL0     H49347   6.315   0.364  10.111 -2.2241  2.6147  1.9087
  366MOL0     H49348   6.470   0.295  10.162  0.2183  0.5354 -1.9180
  366MOL0     H49349   6.448   0.414  10.382 -0.1062  1.0926  0.6530
  366MOL0     H49350   6.335   0.530  10.306 -1.5817 -0.4335  1.7752
  366MOL0     H49351   6.181   0.313  10.279  1.5096 -3.3876 -0.3365
  366MOL0     H49352   6.292   0.258  10.415 -0.0167 -0.4176 -0.9192
  366MOL0     H49353   6.136   0.540  10.422 -3.4483 -1.5794 -0.3548
  366MOL0     H49354   6.096   0.388  10.506 -0.7254 -1.2082 -0.7850
  366MOL0     H49355   6.297   0.376  10.630  2.1180  0.6051 -0.3886
  366MOL0     H49356   6.340   0.546  10.566 -0.6728  0.2157  1.5729
  366MOL0     H49357   6.131   0.629  10.650 -1.3171 -0.5590  2.4078
  366MOL0     H49358   6.089   0.470  10.717 -0.8751  0.4400  1.1364
  366MOL0     H49359   6.184   0.620  10.885 -0.3932 -2.4884  0.9240
  366MOL0     H49360   6.335   0.627  10.787 -0.1584 -2.0646 -3.7168
  366MOL0     H49361   6.116   0.370  10.978  0.4084  3.0883 -4.6836
  366MOL0     H49362   6.305   0.108  11.128  1.1973  0.1946 -0.9336
  366MOL0     H49363   6.373   0.227  11.236 -2.8652 -0.0588  2.3252
  366MOL0     H49364   6.078   0.222  11.160 -0.1423 -1.6218 -0.1822
  366MOL0     H49365   6.157   0.325  11.282 -1.4756 -0.1176 -0.4759
  366MOL0     H49366   6.139   0.179  11.430 -2.1485  2.6234 -1.3608
  366MOL0     H49367   6.222   0.054  11.341 -1.5019 -0.7829 -0.0918
  366MOL0     H49368   5.979  -0.020  11.404  1.3385  1.4512  2.0039
  366MOL0     H49369   6.021  -0.015  11.226  3.5337  1.2043 -0.8839
  366MOL0     H49370   5.758  -0.032  11.437  2.2519  0.3316 -2.1136
  366MOL0     H49371   5.494  -0.022  11.638 -0.7250 -2.5519 -0.1002
  366MOL0     H49372   5.644  -0.120  11.602 -2.3505 -0.2244 -1.5401
  366MOL0     H49373   5.625  -0.035  11.748 -0.4693 -4.4969 -0.4428
  366MOL0     H49374   5.242   0.306  11.761  0.9014 -0.2230 -1.2089
  366MOL0     H49375   5.094   0.347  11.953 -0.8481 -2.1721 -0.4794
  366MOL0     H49376   5.108   0.095  12.334 -0.0261 -0.2094 -1.3626
  366MOL0     H49377   5.186   0.246  12.373  0.7099  0.7613 -0.7627
  366MOL0     H49378   4.987   0.249  12.495 -0.9457  0.7025  0.3611
  366MOL0     H49379   4.974   0.376  12.367  0.6905 -1.1406 -3.3158
  366MOL0     H49380   4.869   0.093  12.336 -0.7656 -0.6987 -0.2680
  366MOL0     H49381   4.825   0.248  12.251 -2.0807 -0.3053  0.6528
  366MOL0     H49382   4.749   0.185  12.555  3.0903 -2.6567 -1.3783
  366MOL0     H49383   4.697   0.321  12.462 -0.6421 -0.6924 -0.2208
  366MOL0     H49384   4.529   0.124  12.506 -0.3901 -0.2200 -0.4604
  366MOL0     H49385   4.621   0.016  12.403 -3.7621 -0.6007 -0.2255
  366MOL0     H49386   4.503   0.283  12.320 -1.0737  1.1885 -1.1314
  366MOL0     H49387   4.567   0.176  12.197 -1.8360 -0.3248 -0.8909
  366MOL0     H49388   4.326   0.122  12.361  1.2993  2.6088 -0.9450
  366MOL0     H49389   4.409  -0.011  12.295 -0.9960 -0.2569 -0.3005
  366MOL0     H49390   4.239   0.047  12.131 -0.6186  0.3309  2.4568
  366MOL0     H49391   4.380   0.139  12.053  1.4722  1.1046  1.7313
  366MOL0     H49392   5.327   0.116  12.214  1.5513  0.0172  0.1872
  366MOL0     H49393   5.490   0.073  12.051 -1.1986 -2.9190 -0.5953
  366MOL0     H49394   5.691   0.432  11.584 -2.6453 -1.5970  0.9211
  366MOL0     H49395   5.838   0.368  11.378 -0.3249 -0.1854  0.5476
  366MOL0     H49396   6.817   0.567  10.265 -1.0392  1.3129 -2.0743
  366MOL0     H49397   7.003   0.382  10.318  0.9876  1.1126 -1.3526
  366MOL0     H49398   7.277   0.060   9.931 -0.4525 -2.7300 -1.4584
  366MOL0     H49399   7.474  -0.088   9.943 -1.8542 -3.8776 -0.3018
  366MOL0     H49400   7.592  -0.279  10.347 -1.2767 -0.2843  1.1908
  366MOL0     H49401   7.470  -0.383  10.269 -0.9671  0.7022  0.6595
  366MOL0     H49402   7.649  -0.456  10.108 -1.1895 -3.6647  1.1656
  366MOL0     H49403   7.657  -0.520  10.265  2.0191  0.4415  0.2195
  366MOL0     H49404   7.833  -0.266  10.244 -0.1683  0.8213 -0.4397
  366MOL0     H49405   7.881  -0.401  10.147  0.5908 -1.4618  0.4970
  366MOL0     H49406   7.800  -0.419  10.447  0.6896 -2.2020  0.8262
  366MOL0     H49407   7.967  -0.400  10.401 -0.6305  1.6986  1.5214
  366MOL0     H49408   7.961  -0.805  10.362  0.6486  0.9296  1.2930
  366MOL0     H49409   7.371  -0.158  10.353  0.4731  2.3229  1.6693
  366MOL0     H49410   7.189  -0.009  10.342 -0.3485 -0.2680 -0.3954
  367MOL0     O49411   0.218   5.968   9.971 -0.3398 -0.9044 -0.0601
  367MOL0     C49412   0.225   5.843   9.962  0.1257  0.0589  0.3316
  367MOL0     O49413   0.323   5.761  10.004  0.5929 -0.6491 -0.1893
  367MOL0     C49414   0.428   5.818  10.080  0.4500 -0.4287  0.8910
  367MOL0     C49415   0.473   5.750  10.201 -0.1018  0.8556  0.3988
  367MOL0     C49416   0.585   5.803  10.257 -0.4395  0.7049  0.7604
  367MOL0     C49417   0.655   5.908  10.203 -0.5065 -0.5840  0.5228
  367MOL0     O49418   0.781   5.937  10.252 -0.5692 -0.4690  0.5170
  367MOL0     C49419   0.812   6.069  10.291 -0.0902  0.5113  0.3026
  367MOL0     C49420   0.956   6.077  10.349 -0.3812 -0.0993  0.6258
  367MOL0     C49421   0.971   6.187  10.446  0.3937 -0.7836 -0.1798
  367MOL0     C49422   1.115   6.257  10.459 -0.7556 -0.1952 -0.0192
  367MOL0     C49423   1.218   6.143  10.496  0.2374 -0.8483  0.1532
  367MOL0     C49424   1.358   6.207  10.512 -0.2378 -0.5264 -0.5552
  367MOL0     C49425   1.412   6.262  10.383  0.2247 -0.3352  0.6982
  367MOL0     C49426   1.554   6.305  10.397  0.0453 -0.0072 -0.3740
  367MOL0     N49427   1.608   6.392  10.291 -0.1443  0.7138  0.7242
  367MOL0     C49428   1.651   6.522  10.314  0.0312 -0.2199  0.1854
  367MOL0     C49429   1.656   6.587  10.193  0.6627  0.5627  0.7264
  367MOL0     C49430   1.691   6.723  10.155 -0.8480  0.1759 -0.5036
  367MOL0     C49431   1.842   6.739  10.104  0.0158 -0.3335 -0.6589
  367MOL0     C49432   1.898   6.872  10.104 -0.5897 -0.1687  0.5831
  367MOL0     C49433   2.054   6.869  10.076 -0.0804 -0.2939  0.5363
  367MOL0     O49434   2.124   6.943  10.182 -0.3603 -0.2243 -0.5891
  367MOL0     C49435   2.224   7.036  10.148 -0.3351 -0.4129  0.3337
  367MOL0     C49436   2.282   7.106  10.259 -0.8426 -0.5725 -0.0161
  367MOL0     C49437   2.368   7.215  10.236  0.5796  0.3863  1.6043
  367MOL0     C49438   2.422   7.284  10.351  0.6401  0.4823  0.4522
  367MOL0     C49439   2.408   7.256  10.103  0.9084 -0.2287 -0.1864
  367MOL0     C49440   2.513   7.351  10.073  0.7542 -0.7330 -1.2469
  367MOL0     O49441   2.631   7.352  10.152  0.6290  1.0299 -0.2804
  367MOL0     C49442   2.709   7.457  10.133  0.1903 -0.6101 -0.3012
  367MOL0     C49443   2.697   7.555  10.226 -0.7594 -0.6385  0.2209
  367MOL0     C49444   2.792   7.664  10.230 -0.1122 -0.2082 -0.4774
  367MOL0     C49445   2.891   7.673  10.137 -0.4065  0.3388  0.1943
  367MOL0     O49446   2.992   7.764  10.125 -0.1032 -1.0876 -0.5863
  367MOL0     C49447   2.986   7.887  10.207 -0.0613 -0.3597  0.0439
  367MOL0     C49448   3.112   7.942  10.236 -0.6473  0.0686 -0.4860
  367MOL0     C49449   3.218   7.836  10.288 -0.0606 -0.1585  0.3742
  367MOL0     C49450   3.163   7.734  10.400 -0.6017 -0.2098 -0.9274
  367MOL0     C49451   3.118   7.807  10.531  0.0374 -1.2391 -0.1265
  367MOL0     C49452   3.064   7.704  10.631 -1.1720 -0.0395  0.6421
  367MOL0     C49453   2.951   7.604  10.579 -0.5130 -0.1625 -0.2961
  367MOL0     C49454   2.806   7.643  10.621  0.0150 -0.6285  0.6914
  367MOL0    Cl49455   2.704   7.506  10.565  0.1683  0.7144  0.0821
  367MOL0     C49456   2.890   7.578  10.031  0.2591  0.0886  0.0932
  367MOL0     C49457   2.801   7.467  10.030 -1.3197 -0.0939  0.0902
  367MOL0     O49458   2.499   7.416   9.971  0.2001 -0.1477  0.0820
  367MOL0     C49459   2.355   7.181   9.994 -0.7691  0.4771  0.5578
  367MOL0     C49460   2.260   7.077  10.011 -0.1629 -0.1375 -0.4013
  367MOL0     N49461   1.615   6.495  10.096 -0.0739  0.1006 -0.0308
  367MOL0     N49462   1.588   6.385  10.157 -0.6269  0.9577  0.9432
  367MOL0     C49463   0.618   5.962  10.083  0.4347 -0.5899  1.1198
  367MOL0     C49464   0.507   5.923  10.020  1.3452 -0.4709 -0.4853
  367MOL0     C49465   0.103   5.789   9.895 -0.8965  0.4619 -0.1717
  367MOL0     C49466  -0.008   5.875   9.867 -0.0014 -0.1783  0.4280
  367MOL0     C49467  -0.130   5.828   9.817 -0.2153  1.7161  0.5109
  367MOL0     C49468  -0.139   5.695   9.788  0.2794 -0.2416  0.0143
  367MOL0     O49469  -0.259   5.642   9.732  0.3559 -0.0218 -0.5657
  367MOL0     C49470  -0.374   5.714   9.741 -0.4261 -0.2865 -0.7948
  367MOL0     C49471  -0.485   5.623   9.696  0.4950 -0.2734 -0.4160
  367MOL0     C49472  -0.476   5.566   9.557  0.9050 -0.0419  0.7056
  367MOL0     C49473  -0.612   5.543   9.472 -0.4464  0.3737 -0.6073
  367MOL0     C49474  -0.672   5.416   9.521  0.6288  0.1349  0.2427
  367MOL0     C49475  -0.735   5.322   9.565 -0.7245  0.0746  0.1373
  367MOL0     C49476  -0.035   5.605   9.810 -0.1762  0.3649  0.0562
  367MOL0     C49477   0.088   5.653   9.863 -0.8377 -0.9950 -0.0243
  367MOL0     H49478   0.413   5.663  10.228 -1.0665  0.4327 -2.6860
  367MOL0     H49479   0.619   5.758  10.350 -0.1211 -0.2621  0.1810
  367MOL0     H49480   0.803   6.137  10.205 -3.0681  1.0552  0.9174
  367MOL0     H49481   0.736   6.113  10.357 -0.7680 -1.6940  1.0935
  367MOL0     H49482   0.986   5.980  10.390  0.6454 -0.7770 -1.5885
  367MOL0     H49483   1.023   6.107  10.268  0.0072 -0.4466  0.8164
  367MOL0     H49484   0.895   6.262  10.421 -1.3610  0.0030  5.7467
  367MOL0     H49485   0.933   6.147  10.541 -3.5303  0.0230 -1.2460
  367MOL0     H49486   1.145   6.288  10.359 -2.1479  4.7252  0.7986
  367MOL0     H49487   1.111   6.342  10.528  2.8149 -1.1696  1.5858
  367MOL0     H49488   1.197   6.098  10.593 -0.4849  0.0345  0.4204
  367MOL0     H49489   1.221   6.067  10.417  0.8045 -0.1937 -0.4669
  367MOL0     H49490   1.358   6.283  10.592 -2.8094 -0.9216 -0.0708
  367MOL0     H49491   1.435   6.135  10.539  0.4749  0.8247  1.2250
  367MOL0     H49492   1.411   6.176  10.315  4.4326  0.1682 -0.2923
  367MOL0     H49493   1.351   6.347  10.348  0.1723 -1.5623 -2.5742
  367MOL0     H49494   1.617   6.217  10.413 -0.1781 -0.1067 -0.0427
  367MOL0     H49495   1.554   6.372  10.483 -1.8422 -0.6423  0.1634
  367MOL0     H49496   1.674   6.568  10.410 -1.3415  1.0423 -0.0522
  367MOL0     H49497   1.624   6.764  10.079 -2.1277 -0.2059  0.3858
  367MOL0     H49498   1.682   6.776  10.251 -2.7522  4.0591 -2.5903
  367MOL0     H49499   1.845   6.685  10.009 -4.0515 -0.1294 -1.0960
  367MOL0     H49500   1.908   6.684  10.172  0.8203  1.0488 -0.2892
  367MOL0     H49501   1.883   6.921  10.201  1.5538  0.8090  0.5025
  367MOL0     H49502   1.850   6.938  10.031 -2.4897  1.1223  2.8479
  367MOL0     H49503   2.056   6.917   9.978  1.3851 -2.1701 -0.3988
  367MOL0     H49504   2.095   6.770  10.056  2.1263  1.0241 -2.1026
  367MOL0     H49505   2.256   7.089  10.363  0.5632  1.6174  0.7722
  367MOL0     H49506   2.531   7.287  10.363  1.0030 -0.6231 -1.9363
  367MOL0     H49507   2.382   7.385  10.347  0.2482  0.3846  1.7040
  367MOL0     H49508   2.385   7.242  10.445 -1.4497  4.5365  1.6478
  367MOL0     H49509   2.625   7.537  10.304  1.5452 -0.4403  2.5295
  367MOL0     H49510   2.784   7.745  10.301  1.0838  0.7954 -1.4493
  367MOL0     H49511   2.935   7.972  10.161  2.2487  1.4417  0.6524
  367MOL0     H49512   2.927   7.877  10.298  1.7340 -0.7189  1.2039
  367MOL0     H49513   3.154   7.979  10.142  0.2220  0.7751  0.1626
  367MOL0     H49514   3.104   8.022  10.309  1.0878 -0.0782 -0.0842
  367MOL0     H49515   3.292   7.904  10.331 -1.1785  3.4839 -2.8210
  367MOL0     H49516   3.257   7.781  10.202 -1.9006 -1.3408  0.2374
  367MOL0     H49517   3.082   7.678  10.351 -3.3384  1.9723  0.7680
  367MOL0     H49518   3.241   7.668  10.438  1.2286  2.8599  1.0490
  367MOL0     H49519   3.038   7.877  10.504  1.9114  1.4490  0.8081
  367MOL0     H49520   3.204   7.861  10.571 -0.5669  1.2662 -1.9418
  367MOL0     H49521   3.145   7.641  10.668 -0.5477 -0.9894 -2.1215
  367MOL0     H49522   3.020   7.752  10.719  0.6783  1.2837  0.9040
  367MOL0     H49523   2.978   7.509  10.627 -2.1892  0.0891  1.2988
  367MOL0     H49524   2.945   7.599  10.470 -0.0653  2.9475 -0.5637
  367MOL0     H49525   2.786   7.738  10.570  0.4303 -1.6109 -1.4417
  367MOL0     H49526   2.784   7.667  10.725 -0.3302  1.2911  0.2096
  367MOL0     H49527   2.961   7.594   9.950 -0.1909 -1.4506 -0.6386
  367MOL0     H49528   2.821   7.387   9.959  1.9317  1.4912 -1.0034
  367MOL0     H49529   2.382   7.211   9.893 -0.5387  0.3222  0.5721
  367MOL0     H49530   2.198   7.031   9.936  0.3650 -0.0145 -0.9177
  367MOL0     H49531   0.688   6.032  10.039  0.3585 -0.5016  1.1376
  367MOL0     H49532   0.478   5.986   9.937  1.9568  0.3118 -0.1156
  367MOL0     H49533  -0.012   5.981   9.891 -0.6801  0.4258 -2.0481
  367MOL0     H49534  -0.203   5.906   9.796  1.1726  2.7688 -0.5855
  367MOL0     H49535  -0.383   5.759   9.840  2.5582  2.6110 -1.6410
  367MOL0     H49536  -0.372   5.805   9.680 -3.9879  1.1613  0.9708
  367MOL0     H49537  -0.579   5.679   9.702 -0.5351 -2.0688  2.1612
  367MOL0     H49538  -0.504   5.545   9.771  2.6187 -2.9748 -2.4765
  367MOL0     H49539  -0.411   5.478   9.562  2.4912  0.9649 -1.0034
  367MOL0     H49540  -0.419   5.636   9.495 -2.0614  0.2380 -1.9145
  367MOL0     H49541  -0.581   5.537   9.367  2.5058 -1.4863  0.2351
  367MOL0     H49542  -0.677   5.628   9.496  0.7466  0.2205  4.3213
  367MOL0     H49543  -0.804   5.245   9.593 -2.8882  1.6018 -0.6687
  367MOL0     H49544  -0.037   5.498   9.792  0.3954  0.2382  0.7015
  367MOL0     H49545   0.171   5.587   9.888 -0.0712  0.7112  2.3423
  368MOL0     O49546   0.967   1.844  11.344  0.4423  0.0390 -0.4055
  368MOL0     C49547   0.899   1.941  11.392 -1.2785 -0.5338  0.1212
  368MOL0     O49548   0.946   2.070  11.410 -0.2785  0.0297  0.5085
  368MOL0     C49549   1.064   2.122  11.343 -0.0436  0.1359  1.0537
  368MOL0     C49550   1.146   2.059  11.243  0.1177  1.0928 -1.1967
  368MOL0     C49551   1.260   2.114  11.190  1.6097  0.4972  0.0625
  368MOL0     C49552   1.302   2.239  11.210 -0.5423  0.9545 -0.0308
  368MOL0     O49553   1.413   2.279  11.137 -0.2134 -0.8824  0.1505
  368MOL0     C49554   1.442   2.417  11.146 -0.4003 -0.1890  0.3701
  368MOL0     C49555   1.535   2.461  11.034  0.3553  0.5267  0.0462
  368MOL0     C49556   1.681   2.434  11.077 -0.7200 -0.9526 -0.3155
  368MOL0     C49557   1.773   2.496  10.970 -0.3676 -0.1728 -1.4237
  368MOL0     C49558   1.780   2.647  10.981 -0.0079  0.0298  0.1449
  368MOL0     C49559   1.884   2.676  10.873 -0.6654  0.1088  0.3904
  368MOL0     C49560   1.902   2.828  10.861 -0.2947 -0.6354  0.2771
  368MOL0     C49561   1.969   2.863  10.725  0.3090  0.3731  0.0992
  368MOL0     N49562   1.990   3.011  10.704 -1.1953  0.4544  0.1083
  368MOL0     C49563   1.898   3.113  10.734  0.8655  0.2261  0.2531
  368MOL0     C49564   1.963   3.233  10.720  0.3741  0.3061 -0.5051
  368MOL0     C49565   1.894   3.362  10.750  0.1914 -0.4590  0.1815
  368MOL0     C49566   1.890   3.436  10.612  0.0502 -0.2743  0.9474
  368MOL0     C49567   2.009   3.441  10.510  0.2610  0.8902 -0.2449
  368MOL0     C49568   2.118   3.526  10.578 -0.2717  0.4173  0.2123
  368MOL0     O49569   2.100   3.671  10.567 -0.7346 -1.0457 -0.5351
  368MOL0     C49570   2.132   3.754  10.677  0.3726 -0.7507 -0.8341
  368MOL0     C49571   2.138   3.724  10.816  0.4584 -0.3778 -0.1504
  368MOL0     C49572   2.167   3.831  10.910 -0.1989 -0.7110 -0.3972
  368MOL0     C49573   2.145   3.796  11.060 -0.9152  0.5887  0.4059
  368MOL0     C49574   2.195   3.959  10.865  0.0615 -0.1858 -0.0689
  368MOL0     C49575   2.236   4.062  10.961  0.1299 -0.0283 -0.3414
  368MOL0     O49576   2.309   4.032  11.065 -0.4572  0.2804 -0.8117
  368MOL0     C49577   2.356   4.136  11.142  0.2338 -0.5505  0.1086
  368MOL0     C49578   2.339   4.119  11.274  0.1973 -0.2685 -0.6457
  368MOL0     C49579   2.392   4.202  11.365  0.5629 -0.5818  0.8406
  368MOL0     C49580   2.463   4.310  11.320  0.7076 -0.6412  0.1499
  368MOL0     O49581   2.508   4.395  11.421  0.5071  0.2432  1.1241
  368MOL0     C49582   2.628   4.472  11.382  0.7727  0.5906  0.5711
  368MOL0     C49583   2.707   4.505  11.508 -0.3139 -0.5756  0.7050
  368MOL0     C49584   2.783   4.633  11.494 -0.2498  0.6665 -0.6672
  368MOL0     C49585   2.918   4.626  11.419  0.7072 -0.7346 -0.0997
  368MOL0     C49586   2.991   4.755  11.425  0.5728 -0.2080 -0.7205
  368MOL0     C49587   3.098   4.758  11.540 -0.5447 -0.2702 -0.0396
  368MOL0     C49588   3.176   4.887  11.537  0.3763 -0.7464  0.2004
  368MOL0     C49589   3.117   5.001  11.619  0.0586  0.3444 -0.0974
  368MOL0    Cl49590   3.218   5.151  11.600 -0.1428 -0.4823 -0.0112
  368MOL0     C49591   2.474   4.344  11.182 -0.5608 -0.2593 -0.3058
  368MOL0     C49592   2.420   4.252  11.091 -0.7789  0.0270 -0.3216
  368MOL0     O49593   2.175   4.167  10.954 -0.1398  0.5122  0.2582
  368MOL0     C49594   2.187   3.990  10.727  0.4136  0.1962 -0.1314
  368MOL0     C49595   2.152   3.890  10.639 -0.1568 -0.0649 -0.1599
  368MOL0     N49596   2.095   3.203  10.698 -0.3844  0.4386  0.0677
  368MOL0     N49597   2.110   3.072  10.684  0.5398 -0.0711  0.1228
  368MOL0     C49598   1.219   2.314  11.308 -1.1224 -0.1577 -0.4804
  368MOL0     C49599   1.104   2.256  11.364  0.5113 -0.7896 -0.4772
  368MOL0     C49600   0.771   1.919  11.450  0.2081 -0.6353  0.5559
  368MOL0     C49601   0.705   1.803  11.456 -0.0980  0.2024  0.2453
  368MOL0     C49602   0.573   1.784  11.509 -0.7269 -0.7611  0.0257
  368MOL0     C49603   0.509   1.894  11.557  0.4814  0.0621  0.0432
  368MOL0     O49604   0.380   1.893  11.600  0.6255 -0.2223 -0.8375
  368MOL0     C49605   0.301   1.778  11.587  0.7322 -0.2103  0.1878
  368MOL0     C49606   0.301   1.706  11.714  0.4056  0.8382  0.0175
  368MOL0     C49607   0.231   1.789  11.832  0.0378 -0.0901  0.2782
  368MOL0     C49608   0.232   1.733  11.972 -0.3093  0.2932  0.0359
  368MOL0     C49609   0.137   1.627  11.987 -0.4778 -0.2945  1.2243
  368MOL0     C49610   0.067   1.531  11.988  0.0752  0.6563  0.2393
  368MOL0     C49611   0.570   2.021  11.549  0.2583  0.4430 -0.2240
  368MOL0     C49612   0.698   2.025  11.504 -1.3327 -0.7606  0.3996
  368MOL0     H49613   1.140   1.956  11.211 -1.6811  1.1096 -1.0120
  368MOL0     H49614   1.317   2.055  11.118  0.5085 -2.1924  1.2552
  368MOL0     H49615   1.357   2.480  11.117  2.7023  3.5300 -1.5809
  368MOL0     H49616   1.481   2.447  11.244 -4.5397  0.9060  1.8695
  368MOL0     H49617   1.516   2.411  10.939 -0.4436 -0.9432  0.9454
  368MOL0     H49618   1.514   2.568  11.026 -4.3357 -0.0957  1.3016
  368MOL0     H49619   1.680   2.478  11.178 -0.1690 -0.8015 -0.3737
  368MOL0     H49620   1.702   2.327  11.085  0.7202 -0.7713 -1.4291
  368MOL0     H49621   1.868   2.447  10.995  0.0613 -0.2610 -3.0814
  368MOL0     H49622   1.738   2.460  10.873 -0.0564 -3.2526 -0.5146
  368MOL0     H49623   1.683   2.696  10.965  0.4485  0.7300 -0.5752
  368MOL0     H49624   1.826   2.674  11.076  0.1426 -1.4107  0.5118
  368MOL0     H49625   1.984   2.635  10.889  0.3597  1.9913 -0.8942
  368MOL0     H49626   1.847   2.635  10.778  0.3544  1.4096 -0.6079
  368MOL0     H49627   1.814   2.892  10.878 -0.0776 -0.2872  0.1061
  368MOL0     H49628   1.957   2.877  10.943  0.5069  1.9271 -1.6538
  368MOL0     H49629   1.897   2.824  10.652 -1.9070 -2.0335  3.2851
  368MOL0     H49630   2.062   2.805  10.720 -1.0132 -1.7446 -2.0807
  368MOL0     H49631   1.791   3.100  10.744  0.8055  0.4337 -0.0940
  368MOL0     H49632   1.793   3.335  10.783  0.6133 -2.2560  0.0876
  368MOL0     H49633   1.952   3.420  10.822 -0.3635 -0.9538  1.0439
  368MOL0     H49634   1.859   3.538  10.635 -1.7176 -0.0608 -1.9444
  368MOL0     H49635   1.808   3.392  10.554  0.8700 -1.8182  0.9161
  368MOL0     H49636   1.978   3.490  10.417 -1.1781  0.9685  0.2362
  368MOL0     H49637   2.035   3.338  10.485  0.0165  0.2611  1.8681
  368MOL0     H49638   2.212   3.502  10.528 -0.7660  1.2615 -1.1837
  368MOL0     H49639   2.133   3.505  10.684 -0.4826  1.4834  0.4587
  368MOL0     H49640   2.123   3.620  10.844  1.4640 -0.9222 -1.5165
  368MOL0     H49641   2.240   3.761  11.100 -0.7576 -2.4649 -2.2911
  368MOL0     H49642   2.098   3.876  11.119  2.5741  3.1595  0.0413
  368MOL0     H49643   2.071   3.716  11.068  0.3506 -0.7002 -0.4724
  368MOL0     H49644   2.286   4.030  11.306 -2.3952  2.2573  2.7816
  368MOL0     H49645   2.386   4.179  11.471  0.5489 -1.8470  0.5845
  368MOL0     H49646   2.695   4.415  11.318  0.7263 -1.5993  2.3575
  368MOL0     H49647   2.594   4.561  11.327  1.5219  0.3493 -0.3077
  368MOL0     H49648   2.639   4.519  11.592 -0.1287  0.0127  0.7584
  368MOL0     H49649   2.779   4.423  11.514  0.6294 -0.1090 -2.2773
  368MOL0     H49650   2.793   4.675  11.595  0.6233  0.1838 -0.5451
  368MOL0     H49651   2.726   4.703  11.432  1.8681  2.1166 -1.1070
  368MOL0     H49652   2.973   4.547  11.471  1.4072  2.1401  4.0566
  368MOL0     H49653   2.894   4.596  11.317 -1.2729 -1.6651  0.5862
  368MOL0     H49654   2.915   4.833  11.439 -1.8819 -2.0675 -2.9534
  368MOL0     H49655   3.043   4.758  11.329  2.6312 -2.5855  0.2228
  368MOL0     H49656   3.050   4.739  11.637 -0.4740 -0.4461 -0.0379
  368MOL0     H49657   3.176   4.682  11.530 -0.1362 -0.0067  0.9806
  368MOL0     H49658   3.186   4.913  11.431 -0.1833  0.3270  0.3966
  368MOL0     H49659   3.279   4.867  11.569  1.0496 -0.4458 -1.6769
  368MOL0     H49660   3.110   4.966  11.723  0.9048 -2.3749 -0.8888
  368MOL0     H49661   3.022   5.026  11.571  0.8591  2.6955 -0.5962
  368MOL0     H49662   2.523   4.438  11.158  0.4332 -0.1357  1.9750
  368MOL0     H49663   2.439   4.255  10.984  0.8558 -0.2891 -0.0627
  368MOL0     H49664   2.197   4.095  10.701 -0.8504  0.4503  0.3434
  368MOL0     H49665   2.151   3.912  10.533 -1.1162 -0.7279 -0.3083
  368MOL0     H49666   1.242   2.416  11.339  2.0882 -0.5067 -1.3495
  368MOL0     H49667   1.030   2.290  11.435 -1.8862 -5.9423  0.0044
  368MOL0     H49668   0.729   1.710  11.404 -3.5437  0.0400 -1.4101
  368MOL0     H49669   0.529   1.685  11.518 -1.1236 -0.4444  1.9413
  368MOL0     H49670   0.202   1.819  11.566  1.3957  1.8844  0.9555
  368MOL0     H49671   0.324   1.719  11.498 -1.4854 -0.8188 -0.0514
  368MOL0     H49672   0.404   1.678  11.741  0.1000  1.4071  1.9300
  368MOL0     H49673   0.234   1.621  11.702  2.2648 -1.1606  2.5583
  368MOL0     H49674   0.125   1.792  11.804  0.4916  2.6440 -1.5801
  368MOL0     H49675   0.262   1.894  11.832 -0.7541  0.1576  0.9464
  368MOL0     H49676   0.197   1.807  12.046 -1.2530  0.6591 -0.7490
  368MOL0     H49677   0.330   1.701  12.008  0.4191  0.6166 -1.6056
  368MOL0     H49678   0.007   1.442  11.999 -0.0399  1.0758  5.4124
  368MOL0     H49679   0.519   2.111  11.584 -1.6026 -1.3150  1.9484
  368MOL0     H49680   0.750   2.120  11.505 -3.3132  0.4414 -1.5739
  369MOL0     O49681   1.768   8.881   4.656  0.6316  0.3674 -0.1482
  369MOL0     C49682   1.746   8.979   4.719  0.7315  0.4868 -0.0385
  369MOL0     O49683   1.625   9.036   4.741  0.6604  0.3625  0.3932
  369MOL0     C49684   1.505   9.003   4.674  0.3976  0.6966 -0.7052
  369MOL0     C49685   1.497   8.977   4.543 -0.3155  0.1226 -0.4791
  369MOL0     C49686   1.382   8.954   4.483 -0.1180  0.0274 -0.9197
  369MOL0     C49687   1.256   8.958   4.552 -0.1220  0.3157  0.0900
  369MOL0     O49688   1.139   8.946   4.474  0.5068 -0.4457 -0.1188
  369MOL0     C49689   1.021   8.989   4.546 -0.2894  0.2686 -0.4704
  369MOL0     C49690   0.911   8.951   4.465 -0.0524  0.1548 -0.0093
  369MOL0     C49691   0.906   9.027   4.334  0.9186  0.0753 -1.1281
  369MOL0     C49692   0.760   9.026   4.291  0.4303  0.5201 -0.4550
  369MOL0     C49693   0.694   9.153   4.336 -0.6120 -1.2512 -0.8351
  369MOL0     C49694   0.545   9.139   4.334  0.6155  0.6026 -0.0045
  369MOL0     C49695   0.472   9.257   4.386  0.2554 -0.2256  0.6241
  369MOL0     C49696   0.338   9.237   4.449  0.7536 -0.1948 -0.2294
  369MOL0     N49697   0.246   9.166   4.351 -0.4100  0.3295 -0.2513
  369MOL0     C49698   0.204   9.221   4.231 -0.0640 -0.5734  0.8877
  369MOL0     C49699   0.149   9.117   4.164 -0.4817  0.7783  0.4940
  369MOL0     C49700   0.074   9.128   4.042 -0.3194  0.2029  0.0359
  369MOL0     C49701  -0.070   9.184   4.061  0.2964  0.0298 -0.6599
  369MOL0     C49702  -0.158   9.111   4.173  0.2122 -0.5927  0.0913
  369MOL0     C49703  -0.164   8.963   4.132  1.3782  0.6780 -0.6227
  369MOL0     O49704  -0.273   8.915   4.209 -0.0098  0.2174  0.2895
  369MOL0     C49705  -0.312   8.781   4.191  0.1499 -1.1556  0.2424
  369MOL0     C49706  -0.286   8.713   4.074 -0.2057  0.4335 -0.4712
  369MOL0     C49707  -0.342   8.589   4.059 -1.0522  0.3707  0.5693
  369MOL0     C49708  -0.329   8.529   3.919  0.0501 -0.1023 -0.2054
  369MOL0     C49709  -0.428   8.529   4.161 -0.4747  0.1980 -0.2569
  369MOL0     C49710  -0.481   8.383   4.155  0.0405 -0.5342 -0.1493
  369MOL0     O49711  -0.591   8.356   4.222  0.2181 -0.5980  0.9829
  369MOL0     C49712  -0.633   8.228   4.227  0.0714  0.6800 -0.2137
  369MOL0     C49713  -0.734   8.185   4.136  1.3303 -1.0188 -0.6841
  369MOL0     C49714  -0.773   8.053   4.146  0.9069 -0.7718  0.5226
  369MOL0     C49715  -0.719   7.965   4.241  0.3571  0.0073  0.4855
  369MOL0     O49716  -0.746   7.831   4.257 -0.6863  0.2882  0.1411
  369MOL0     C49717  -0.875   7.793   4.221 -0.0873  0.5669 -0.6071
  369MOL0     C49718  -0.884   7.639   4.260  0.0044  0.0633  0.3366
  369MOL0     C49719  -1.025   7.588   4.213 -0.0097  0.0381 -1.0629
  369MOL0     C49720  -1.040   7.441   4.260  0.0420  0.9419  0.7717
  369MOL0     C49721  -1.074   7.423   4.407  0.1733 -0.0368 -0.1270
  369MOL0     C49722  -1.202   7.490   4.464  0.2962 -0.1247  0.1157
  369MOL0     C49723  -1.291   7.400   4.549  0.0157 -0.5445  0.2552
  369MOL0     C49724  -1.393   7.478   4.628 -0.3683 -0.0341 -0.6931
  369MOL0    Cl49725  -1.315   7.568   4.771 -0.1581 -0.2481  0.5484
  369MOL0     C49726  -0.623   8.008   4.332  0.0331 -0.5935 -0.1458
  369MOL0     C49727  -0.576   8.138   4.324  0.3997  0.3518 -0.5257
  369MOL0     O49728  -0.413   8.302   4.086  0.1349  0.4979  0.3547
  369MOL0     C49729  -0.457   8.611   4.272 -0.1816 -0.0747 -0.2541
  369MOL0     C49730  -0.399   8.736   4.285  0.0458  0.1528  0.2397
  369MOL0     N49731   0.166   8.999   4.239 -0.9169  0.6001  0.3730
  369MOL0     N49732   0.215   9.030   4.353 -0.0452 -0.0796 -0.2638
  369MOL0     C49733   1.259   8.981   4.688  0.5680 -0.2314 -0.0033
  369MOL0     C49734   1.384   9.007   4.748  0.4675 -0.9233 -0.0665
  369MOL0     C49735   1.860   9.052   4.775 -1.1614 -0.3313  0.5848
  369MOL0     C49736   1.857   9.188   4.785 -0.6116 -0.1887  0.7460
  369MOL0     C49737   1.968   9.248   4.846  0.4462 -0.8826  0.3585
  369MOL0     C49738   2.080   9.180   4.888 -0.0061 -0.1967  1.1570
  369MOL0     O49739   2.196   9.245   4.922 -0.0582 -0.2304 -0.0608
  369MOL0     C49740   2.193   9.378   4.962  0.1575  0.4509  0.1731
  369MOL0     C49741   2.323   9.406   5.029 -0.1803  0.4030 -0.6457
  369MOL0     C49742   2.346   9.553   5.053 -0.0283 -0.2877  0.1539
  369MOL0     C49743   2.492   9.617   5.038  0.3487 -0.0546 -0.2972
  369MOL0     C49744   2.575   9.577   5.149 -0.0736  0.5408 -0.3712
  369MOL0     C49745   2.618   9.547   5.262 -0.4118  0.5160  0.1136
  369MOL0     C49746   2.079   9.040   4.883 -0.0099  1.4159  0.4817
  369MOL0     C49747   1.971   8.979   4.824 -0.4219  1.6744 -0.5288
  369MOL0     H49748   1.580   8.966   4.474  2.0786 -0.2429  2.2646
  369MOL0     H49749   1.379   8.954   4.375  1.7902  1.5610 -1.0327
  369MOL0     H49750   1.002   8.918   4.627 -3.1658  0.3108 -1.0049
  369MOL0     H49751   1.034   9.097   4.561 -1.3879  0.6826 -2.1784
  369MOL0     H49752   0.903   8.843   4.450 -1.6892  0.2694 -0.1238
  369MOL0     H49753   0.819   8.966   4.523 -0.4663 -1.8658 -0.0837
  369MOL0     H49754   0.947   9.128   4.343 -0.0396  0.2514  3.6101
  369MOL0     H49755   0.963   8.968   4.262 -1.7883 -0.8765 -2.6497
  369MOL0     H49756   0.757   9.019   4.182  2.0232 -1.8813 -0.4393
  369MOL0     H49757   0.709   8.939   4.333  0.6122  1.4709  1.8380
  369MOL0     H49758   0.729   9.181   4.436 -1.8368  3.3202 -1.4708
  369MOL0     H49759   0.715   9.230   4.262 -1.3286 -2.3082 -2.1909
  369MOL0     H49760   0.514   9.107   4.234 -1.5329  0.2575  0.7126
  369MOL0     H49761   0.530   9.057   4.405  0.5182 -1.0518 -1.8523
  369MOL0     H49762   0.537   9.315   4.453 -1.3684  3.6365 -0.8333
  369MOL0     H49763   0.456   9.326   4.303 -2.0781  1.9742  2.6892
  369MOL0     H49764   0.302   9.336   4.479 -2.3697 -1.0076 -0.9005
  369MOL0     H49765   0.339   9.180   4.542 -0.2898  2.5591  1.6237
  369MOL0     H49766   0.202   9.325   4.198  3.0475 -1.0534 -1.3178
  369MOL0     H49767   0.117   9.189   3.962  3.0814 -3.4356 -1.2025
  369MOL0     H49768   0.059   9.028   4.002  3.8456 -0.8817  0.7335
  369MOL0     H49769  -0.127   9.159   3.971 -5.4478  0.3657  2.4260
  369MOL0     H49770  -0.073   9.290   4.087 -2.3369 -0.4440  1.3708
  369MOL0     H49771  -0.254   9.163   4.164  0.6971  0.5513  1.1446
  369MOL0     H49772  -0.120   9.129   4.274  3.3925 -0.8166 -0.9743
  369MOL0     H49773  -0.077   8.901   4.156  2.4611  2.1836 -0.4946
  369MOL0     H49774  -0.196   8.951   4.028 -0.3002 -0.8691  0.0119
  369MOL0     H49775  -0.222   8.747   3.993 -2.3053  0.8163 -2.0519
  369MOL0     H49776  -0.283   8.603   3.852  2.3040 -0.1257  1.1956
  369MOL0     H49777  -0.267   8.439   3.908 -1.0251 -0.6450 -2.5812
  369MOL0     H49778  -0.428   8.517   3.875  1.4010  0.7649 -3.9434
  369MOL0     H49779  -0.776   8.253   4.063 -2.4882 -0.2937  1.8943
  369MOL0     H49780  -0.841   8.016   4.070 -0.1532 -2.1270  2.0549
  369MOL0     H49781  -0.946   7.835   4.293  0.2824 -1.3425  0.9470
  369MOL0     H49782  -0.904   7.817   4.119  0.7179 -0.9088 -1.2162
  369MOL0     H49783  -0.802   7.585   4.212  1.1404  3.6895 -2.2067
  369MOL0     H49784  -0.875   7.633   4.369  1.0545  0.7024  0.2963
  369MOL0     H49785  -1.044   7.610   4.108 -1.4878  0.5812 -0.7129
  369MOL0     H49786  -1.095   7.655   4.265  1.9419  0.6524  0.9401
  369MOL0     H49787  -1.106   7.384   4.195  0.1953 -0.0287  1.4512
  369MOL0     H49788  -0.949   7.384   4.243 -0.8195  0.3766 -2.5924
  369MOL0     H49789  -0.983   7.463   4.453  0.6542 -0.0706 -1.0264
  369MOL0     H49790  -1.085   7.316   4.425 -1.4010 -0.0739 -1.0496
  369MOL0     H49791  -1.170   7.589   4.497  0.4530  0.7095 -2.3165
  369MOL0     H49792  -1.269   7.509   4.379 -0.9819  2.2473  1.5295
  369MOL0     H49793  -1.228   7.348   4.622  0.9923  0.3923  0.1001
  369MOL0     H49794  -1.342   7.324   4.489  0.4675  0.2555 -1.2034
  369MOL0     H49795  -1.466   7.404   4.664  0.6855 -1.2621 -1.0202
  369MOL0     H49796  -1.446   7.558   4.576 -2.3992  0.7043  2.2432
  369MOL0     H49797  -0.566   7.947   4.402 -0.8501  0.1872  1.2933
  369MOL0     H49798  -0.510   8.182   4.399  0.2978  2.3936 -1.5839
  369MOL0     H49799  -0.521   8.572   4.351  0.8417  1.0727  1.1847
  369MOL0     H49800  -0.431   8.796   4.370  1.2518 -0.2581  1.0221
  369MOL0     H49801   1.167   8.998   4.742  0.2649 -2.8579  0.4043
  369MOL0     H49802   1.387   9.031   4.854 -5.0818  2.2300 -0.2386
  369MOL0     H49803   1.780   9.254   4.748 -0.0745  1.9126  3.1052
  369MOL0     H49804   1.962   9.356   4.848 -1.7714 -0.9474 -0.3809
  369MOL0     H49805   2.172   9.436   4.872 -2.6445 -1.6213 -0.6400
  369MOL0     H49806   2.113   9.392   5.035  0.0979 -0.7272  0.3442
  369MOL0     H49807   2.413   9.365   4.982  1.0402  2.3454 -0.1610
  369MOL0     H49808   2.329   9.354   5.125  1.7323  1.5194 -0.0886
  369MOL0     H49809   2.300   9.575   5.150  0.2766  1.2626 -0.0164
  369MOL0     H49810   2.289   9.615   4.983 -0.1323  0.6867  1.0652
  369MOL0     H49811   2.478   9.725   5.040 -1.1160 -0.2199 -0.6171
  369MOL0     H49812   2.537   9.593   4.941 -0.0573  2.0495 -1.0537
  369MOL0     H49813   2.656   9.509   5.354  0.0854 -2.6982 -1.2804
  369MOL0     H49814   2.170   8.987   4.907 -0.7808  0.9493  2.5131
  369MOL0     H49815   1.971   8.872   4.806  0.2603  1.2359  1.7275
  370MOL0     O49816   7.599   4.571  10.637 -0.4278 -0.1255  1.3364
  370MOL0     C49817   7.617   4.549  10.755 -1.1729 -0.4314  0.1208
  370MOL0     O49818   7.696   4.441  10.806 -0.2022  0.2220  0.1359
  370MOL0     C49819   7.726   4.341  10.720 -0.6270  1.2108  0.5763
  370MOL0     C49820   7.627   4.293  10.633 -0.0798 -0.2142 -0.3001
  370MOL0     C49821   7.656   4.197  10.541 -0.5358 -0.3899  0.0291
  370MOL0     C49822   7.779   4.123  10.546  0.6549 -0.4847  0.6426
  370MOL0     O49823   7.817   4.026  10.451 -0.0773  0.3352 -0.8508
  370MOL0     C49824   7.810   4.071  10.317 -0.4402 -0.3137  0.4351
  370MOL0     C49825   7.888   3.985  10.212 -0.0205  0.1711  0.4549
  370MOL0     C49826   8.038   4.009  10.217  0.3592  0.0251 -0.0273
  370MOL0     C49827   8.115   3.926  10.324  0.6119 -0.0984  0.1290
  370MOL0     C49828   8.265   3.937  10.319 -0.8084 -0.4575  0.6179
  370MOL0     C49829   8.330   3.879  10.442  0.7473  0.8754 -0.5160
  370MOL0     C49830   8.311   3.720  10.467 -1.1063  0.3191  0.3695
  370MOL0     C49831   8.421   3.660  10.553  0.3680 -0.2436  0.0901
  370MOL0     N49832   8.432   3.513  10.530 -0.4588 -0.5426 -0.5032
  370MOL0     C49833   8.354   3.416  10.580 -0.1912  0.4836  0.3120
  370MOL0     C49834   8.404   3.305  10.521 -0.5192 -0.6782  0.3260
  370MOL0     C49835   8.342   3.171  10.530  0.4845 -0.1324 -0.2028
  370MOL0     C49836   8.371   3.113  10.673 -0.8506 -0.0479  0.1964
  370MOL0     C49837   8.525   3.069  10.692  0.2328 -0.0051 -0.1566
  370MOL0     C49838   8.562   2.953  10.614 -0.4544 -0.1992  0.2010
  370MOL0     O49839   8.694   2.907  10.655  0.2036  0.3094  0.0058
  370MOL0     C49840   8.752   2.791  10.603  0.2657  0.3627 -0.3591
  370MOL0     C49841   8.844   2.735  10.702  0.2141 -0.6484  0.2608
  370MOL0     C49842   8.910   2.612  10.666 -0.3557  0.1342 -0.6203
  370MOL0     C49843   9.027   2.570  10.760 -0.1314 -0.5575 -1.1617
  370MOL0     C49844   8.892   2.548  10.544 -0.6350 -0.0735  0.8404
  370MOL0     C49845   8.962   2.425  10.502  0.6404  0.2381 -0.6613
  370MOL0     O49846   9.014   2.426  10.384 -0.4006  0.6487 -0.6107
  370MOL0     C49847   9.051   2.309  10.324  0.1748 -0.1533  0.0509
  370MOL0     C49848   8.964   2.250  10.231 -0.0134  0.3769 -0.3029
  370MOL0     C49849   9.001   2.144  10.152  0.5213  0.6962 -0.9467
  370MOL0     C49850   9.140   2.107  10.148  0.5619 -1.2240  0.8378
  370MOL0     O49851   9.173   2.014  10.053 -0.5062 -0.6470  0.4845
  370MOL0     C49852   9.302   1.976  10.005 -0.7809 -0.1188 -0.9099
  370MOL0     C49853   9.284   1.840   9.927  0.5303  0.7091 -0.1931
  370MOL0     C49854   9.420   1.781   9.884  0.6580  0.1794 -0.0585
  370MOL0     C49855   9.407   1.633   9.843 -0.2366 -0.4218 -0.1338
  370MOL0     C49856   9.526   1.606   9.746 -0.4677  0.4179  0.0700
  370MOL0     C49857   9.500   1.455   9.693  0.2988 -0.4480 -1.3570
  370MOL0     C49858   9.619   1.432   9.602 -0.0880 -1.1919 -0.4949
  370MOL0     C49859   9.623   1.287   9.551  0.1572  0.5557  0.2006
  370MOL0    Cl49860   9.772   1.262   9.453 -0.0369 -0.2744 -0.0159
  370MOL0     C49861   9.230   2.155  10.241  0.3327 -0.0694  0.6027
  370MOL0     C49862   9.183   2.257  10.329  0.5141  0.1422  0.1159
  370MOL0     O49863   8.957   2.318  10.571  0.6494 -0.4229  0.4077
  370MOL0     C49864   8.803   2.601  10.448 -0.0007  0.3598 -0.0174
  370MOL0     C49865   8.731   2.718  10.483 -0.1570 -0.6871 -0.2470
  370MOL0     N49866   8.503   3.330  10.428  0.2221 -0.6374  0.3983
  370MOL0     N49867   8.522   3.459  10.441 -1.4986 -0.1294 -0.8548
  370MOL0     C49868   7.868   4.151  10.655  0.0082 -0.4354 -0.3830
  370MOL0     C49869   7.841   4.261  10.734 -0.0630  0.2705  0.0012
  370MOL0     C49870   7.587   4.660  10.850  0.7505  0.0971 -0.3436
  370MOL0     C49871   7.549   4.624  10.978  0.2825 -0.0224 -1.0518
  370MOL0     C49872   7.493   4.725  11.060 -0.4557 -0.4568  0.0616
  370MOL0     C49873   7.479   4.852  11.013  0.4203 -0.4143 -0.4346
  370MOL0     O49874   7.462   4.964  11.095 -0.7965 -0.3763  0.4701
  370MOL0     C49875   7.382   4.951  11.209  0.0322 -0.5344  0.5894
  370MOL0     C49876   7.343   5.085  11.278  0.4093  0.2894  0.3584
  370MOL0     C49877   7.461   5.178  11.311 -0.6140 -0.5037  0.4690
  370MOL0     C49878   7.437   5.312  11.372 -0.0004  0.1821 -0.0330
  370MOL0     C49879   7.398   5.312  11.508 -0.1851  0.3859  0.1622
  370MOL0     C49880   7.370   5.310  11.630  0.2401  0.7298  0.4187
  370MOL0     C49881   7.510   4.877  10.881  0.3545  0.1094  0.0257
  370MOL0     C49882   7.558   4.783  10.800 -0.0107  0.2983 -0.8334
  370MOL0     H49883   7.531   4.343  10.644 -0.5090 -0.3113 -2.9063
  370MOL0     H49884   7.590   4.167  10.460  1.3996  0.0468 -1.8019
  370MOL0     H49885   7.705   4.064  10.288  0.1711 -1.0392 -1.8490
  370MOL0     H49886   7.844   4.175  10.310  2.0114 -1.1161 -1.3705
  370MOL0     H49887   7.861   3.880  10.223  1.7634 -0.4359 -0.4311
  370MOL0     H49888   7.855   4.023  10.115  1.6057  1.0962  0.2124
  370MOL0     H49889   8.083   3.993  10.119 -0.1443  1.1727 -0.4698
  370MOL0     H49890   8.060   4.113  10.242 -0.1740  0.2436 -0.4428
  370MOL0     H49891   8.086   3.971  10.420 -0.2034 -0.0720 -0.1247
  370MOL0     H49892   8.066   3.829  10.328 -0.8613  0.5280 -1.5196
  370MOL0     H49893   8.293   3.886  10.226  2.4315  0.3709  0.9888
  370MOL0     H49894   8.305   4.037  10.304 -1.3652 -0.4657 -1.1452
  370MOL0     H49895   8.431   3.920  10.445  1.1808 -0.2399  1.1167
  370MOL0     H49896   8.276   3.928  10.523  3.4189  1.6759  0.8723
  370MOL0     H49897   8.210   3.703  10.505 -1.9981 -2.1222 -2.7117
  370MOL0     H49898   8.312   3.668  10.371 -1.8880  0.2777  0.3768
  370MOL0     H49899   8.399   3.678  10.658  3.6396 -0.3949  0.8982
  370MOL0     H49900   8.515   3.710  10.529  0.2249 -1.4071 -3.5187
  370MOL0     H49901   8.272   3.419  10.651 -1.5911  0.0588 -1.2373
  370MOL0     H49902   8.234   3.171  10.515  0.8112 -3.0850 -4.5879
  370MOL0     H49903   8.383   3.117  10.444 -0.6928  0.8669 -1.4300
  370MOL0     H49904   8.309   3.025  10.691 -0.2222 -0.3153  1.1149
  370MOL0     H49905   8.343   3.190  10.747 -2.4126  0.5168 -0.9162
  370MOL0     H49906   8.543   3.048  10.798  2.3531  1.4082 -0.1510
  370MOL0     H49907   8.589   3.156  10.670 -0.0172  0.1771 -0.1644
  370MOL0     H49908   8.564   2.974  10.506 -0.8523  0.9427  0.4057
  370MOL0     H49909   8.492   2.872  10.636 -0.4834  0.2797  2.0120
  370MOL0     H49910   8.861   2.790  10.794 -0.1297 -2.1722  1.2810
  370MOL0     H49911   8.984   2.540  10.856  0.7709  3.4811  0.7469
  370MOL0     H49912   9.084   2.486  10.721 -1.0662 -2.4705  1.3158
  370MOL0     H49913   9.104   2.647  10.773 -1.1687  0.0883  1.8294
  370MOL0     H49914   8.867   2.293  10.206  1.0925  1.3527 -3.2991
  370MOL0     H49915   8.926   2.098  10.089 -1.0624 -2.0576  2.5911
  370MOL0     H49916   9.346   2.048   9.936  1.5087  0.2919  0.8613
  370MOL0     H49917   9.371   1.978  10.090 -2.5591 -1.3899  0.6564
  370MOL0     H49918   9.221   1.766   9.976  0.5727  1.4707  1.0297
  370MOL0     H49919   9.232   1.867   9.834 -0.7736 -1.3776 -0.1275
  370MOL0     H49920   9.491   1.784   9.967 -0.4725 -0.8367  0.9858
  370MOL0     H49921   9.452   1.827   9.790  1.9166 -3.8486 -1.8433
  370MOL0     H49922   9.430   1.572   9.931 -4.5390 -1.6505  0.3354
  370MOL0     H49923   9.314   1.614   9.790  0.8469 -1.1180 -1.8571
  370MOL0     H49924   9.631   1.604   9.775  0.0824 -2.0125 -1.7104
  370MOL0     H49925   9.520   1.676   9.662  0.4603 -0.8073 -1.0576
  370MOL0     H49926   9.502   1.388   9.779  0.8220  0.8998 -0.2817
  370MOL0     H49927   9.397   1.443   9.658  0.1376 -0.1981 -0.9766
  370MOL0     H49928   9.710   1.451   9.660 -1.0543 -1.7420  1.2946
  370MOL0     H49929   9.605   1.495   9.514 -0.3285 -3.1855 -1.9318
  370MOL0     H49930   9.541   1.265   9.482  0.3891 -1.3840  0.4966
  370MOL0     H49931   9.628   1.207   9.625 -0.2720 -0.5410 -0.9312
  370MOL0     H49932   9.335   2.127  10.243  1.2369  2.7848 -0.9159
  370MOL0     H49933   9.243   2.315  10.398 -3.4751  0.9327  3.2302
  370MOL0     H49934   8.778   2.552  10.354  0.6036  0.6804 -0.3551
  370MOL0     H49935   8.646   2.747  10.422  0.2458 -2.3145 -1.6813
  370MOL0     H49936   7.966   4.106  10.668 -0.9035 -1.7732  2.9140
  370MOL0     H49937   7.902   4.302  10.814 -2.0971  0.5289  1.4770
  370MOL0     H49938   7.561   4.519  11.002 -4.5389 -0.7946 -1.1090
  370MOL0     H49939   7.464   4.707  11.163  0.3051  0.5575  0.4667
  370MOL0     H49940   7.284   4.909  11.185  0.5356 -1.2190 -0.3284
  370MOL0     H49941   7.433   4.903  11.293 -0.2672 -0.4881  0.7991
  370MOL0     H49942   7.278   5.064  11.364 -0.9639  2.5615 -0.0259
  370MOL0     H49943   7.280   5.148  11.214  0.0466  0.6898  1.0871
  370MOL0     H49944   7.520   5.191  11.220 -2.5789 -4.1599 -1.5755
  370MOL0     H49945   7.526   5.111  11.367  1.6801  0.4117 -0.9679
  370MOL0     H49946   7.362   5.362  11.310  1.7357  0.0956 -2.3276
  370MOL0     H49947   7.526   5.374  11.359  0.0791  0.2291  0.6552
  370MOL0     H49948   7.356   5.312  11.736  0.5547 -1.1235  0.5367
  370MOL0     H49949   7.493   4.978  10.846 -1.8223  0.3699  1.6270
  370MOL0     H49950   7.568   4.812  10.696 -1.3401 -2.9207 -1.9537
  371MOL0     O49951   9.456   2.049   8.514  0.5848  1.1524 -0.3750
  371MOL0     C49952   9.404   2.146   8.464 -0.4813 -0.9867 -0.3412
  371MOL0     O49953   9.483   2.256   8.420 -0.0560 -0.0306  0.5742
  371MOL0     C49954   9.615   2.255   8.450  0.5243  0.0272 -0.5444
  371MOL0     C49955   9.659   2.335   8.558  0.5790 -0.3198 -0.0633
  371MOL0     C49956   9.790   2.340   8.596  0.4713 -0.0491 -0.4198
  371MOL0     C49957   9.885   2.255   8.531 -0.4481 -0.3598  0.6097
  371MOL0     O49958  10.019   2.254   8.570 -0.7259  0.1287  0.0052
  371MOL0     C49959  10.058   2.358   8.655  0.3483 -0.0175  0.2549
  371MOL0     C49960  10.210   2.381   8.654  0.9060 -0.2154  0.0257
  371MOL0     C49961  10.243   2.492   8.757 -0.6356 -0.6921  0.1052
  371MOL0     C49962  10.191   2.630   8.719 -0.0897 -0.1914 -0.3208
  371MOL0     C49963  10.210   2.730   8.835  0.3418 -0.0377  0.6447
  371MOL0     C49964  10.164   2.870   8.802 -0.3121 -0.4720 -0.0990
  371MOL0     C49965  10.222   2.981   8.900 -0.2086  0.6278  0.3810
  371MOL0     C49966  10.179   2.956   9.036  1.1490  0.3693 -0.8309
  371MOL0     N49967  10.032   2.961   9.063 -0.2557 -0.4465 -0.7622
  371MOL0     C49968   9.950   2.851   9.054 -0.5125 -0.4650  0.6016
  371MOL0     C49969   9.822   2.896   9.047 -0.6566 -0.6110  0.6662
  371MOL0     C49970   9.697   2.805   9.049  0.0961 -0.2707  1.3099
  371MOL0     C49971   9.625   2.804   8.905 -0.3920  0.2623  0.1230
  371MOL0     C49972   9.532   2.681   8.904 -0.0503  0.5672  0.0928
  371MOL0     C49973   9.403   2.710   8.832 -0.5506 -0.6437 -0.7855
  371MOL0     O49974   9.435   2.757   8.696 -0.4392 -0.2026 -0.1179
  371MOL0     C49975   9.315   2.800   8.639  0.6400  0.1272  0.0024
  371MOL0     C49976   9.251   2.724   8.537  0.5989 -0.5394 -0.3818
  371MOL0     C49977   9.130   2.773   8.481  0.5765  0.0066  0.0510
  371MOL0     C49978   9.061   2.685   8.383 -0.2226 -0.1767  0.8669
  371MOL0     C49979   9.065   2.888   8.522  0.1909  0.1725 -0.4854
  371MOL0     C49980   8.938   2.946   8.473  0.1756  0.2981  0.2680
  371MOL0     O49981   8.856   3.005   8.562 -0.8272  0.3932 -0.2411
  371MOL0     C49982   8.744   3.055   8.509 -0.2473 -0.5110 -0.4574
  371MOL0     C49983   8.723   3.194   8.502 -0.1897  0.2801 -0.2216
  371MOL0     C49984   8.606   3.229   8.437 -0.4642 -0.6517 -0.1352
  371MOL0     C49985   8.508   3.143   8.396  0.2144 -1.0914  0.7359
  371MOL0     O49986   8.382   3.188   8.361  0.0986  0.0479  0.8822
  371MOL0     C49987   8.372   3.194   8.217 -0.1833  0.4310 -0.5849
  371MOL0     C49988   8.238   3.229   8.170  0.6814  1.2285  0.5317
  371MOL0     C49989   8.130   3.137   8.231  0.6485  0.4500  0.1405
  371MOL0     C49990   7.994   3.202   8.215 -0.1732 -0.0936  0.8524
  371MOL0     C49991   7.877   3.106   8.210  1.0056  0.7369  0.2141
  371MOL0     C49992   7.744   3.183   8.218  0.1372  0.5875 -0.5218
  371MOL0     C49993   7.627   3.089   8.190 -0.1474  1.1390 -0.1997
  371MOL0     C49994   7.493   3.154   8.228  0.5059  0.3513 -0.7792
  371MOL0    Cl49995   7.336   3.047   8.187  0.3334 -0.2972  0.3373
  371MOL0     C49996   8.527   3.011   8.407 -0.2193  0.5473 -0.4905
  371MOL0     C49997   8.646   2.963   8.463  0.2824 -0.1846 -0.4428
  371MOL0     O49998   8.918   2.936   8.355  0.7882  0.2325  0.8698
  371MOL0     C49999   9.127   2.952   8.633 -0.5872  0.3047  0.1330
  371MOL0     C50000   9.248   2.909   8.694 -0.4117  0.7450 -0.4245
  371MOL0     N50001   9.832   3.040   9.040 -0.8906 -1.0525 -0.7362
  371MOL0     N50002   9.954   3.073   9.053 -0.8843  0.2313  0.4376
  371MOL0     C50003   9.846   2.179   8.419 -0.2808 -0.1101  0.0989
  371MOL0     C50004   9.714   2.181   8.379  0.1673  0.6786  0.5289
  371MOL0     C50005   9.264   2.136   8.414 -0.6298  1.1590  0.8222
  371MOL0     C50006   9.206   2.246   8.342 -0.0043 -2.1296  0.0951
  371MOL0     C50007   9.070   2.247   8.320  0.3674 -0.9615  0.1348
  371MOL0     C50008   8.990   2.143   8.351 -0.5582 -0.3497 -0.2208
  371MOL0     O50009   8.856   2.134   8.318  0.0418  0.0608  0.6871
  371MOL0     C50010   8.777   2.249   8.278  0.1641  0.8126 -0.2055
  371MOL0     C50011   8.634   2.206   8.289 -0.2917 -0.3491  0.6155
  371MOL0     C50012   8.530   2.266   8.182 -0.4403  0.3850  0.4684
  371MOL0     C50013   8.394   2.209   8.190  0.4893  0.4184  0.4667
  371MOL0     C50014   8.345   2.222   8.327 -0.1333  0.5787 -1.0522
  371MOL0     C50015   8.308   2.235   8.446 -0.7403 -0.3828 -0.2605
  371MOL0     C50016   9.045   2.032   8.415 -0.6159  0.5404  1.4934
  371MOL0     C50017   9.185   2.022   8.445  0.2484 -0.0489 -0.7204
  371MOL0     H50018   9.585   2.387   8.618 -0.6782 -2.3956  0.2585
  371MOL0     H50019   9.818   2.392   8.687 -0.2154  0.6001 -0.5695
  371MOL0     H50020  10.015   2.450   8.615  5.4464  1.8442 -1.7488
  371MOL0     H50021  10.018   2.329   8.753  1.7774  1.8540  1.4653
  371MOL0     H50022  10.263   2.286   8.663 -1.7214 -2.0522 -2.2626
  371MOL0     H50023  10.229   2.424   8.555  2.8125  0.9772  0.8377
  371MOL0     H50024  10.210   2.465   8.858  1.7081 -0.2739  1.0582
  371MOL0     H50025  10.352   2.493   8.759 -0.4743  2.7818 -1.8406
  371MOL0     H50026  10.254   2.656   8.633 -1.2049  1.0678 -0.8001
  371MOL0     H50027  10.089   2.620   8.681 -0.2359  0.6628 -0.1801
  371MOL0     H50028  10.147   2.697   8.918 -1.8510 -1.4558 -1.4605
  371MOL0     H50029  10.315   2.741   8.865  0.4141 -1.1822  0.8578
  371MOL0     H50030  10.192   2.912   8.705  1.0299  2.5958  1.4946
  371MOL0     H50031  10.055   2.865   8.806 -0.3235 -0.2944 -0.1945
  371MOL0     H50032  10.331   2.972   8.889 -0.5858 -3.7946 -2.4724
  371MOL0     H50033  10.184   3.080   8.875 -1.1234  0.1399 -0.2178
  371MOL0     H50034  10.227   3.022   9.109 -0.4510 -0.1086  0.7028
  371MOL0     H50035  10.211   2.856   9.067  1.7845  1.1460  1.1710
  371MOL0     H50036   9.986   2.749   9.061 -1.3693 -0.7898  0.4826
  371MOL0     H50037   9.736   2.704   9.066 -0.1476 -0.5590  0.2446
  371MOL0     H50038   9.624   2.832   9.125 -2.1305 -1.8004 -0.1879
  371MOL0     H50039   9.689   2.793   8.817  0.6481 -3.6730  1.2039
  371MOL0     H50040   9.584   2.906   8.894  0.5245  0.5356 -0.8804
  371MOL0     H50041   9.516   2.670   9.012  5.4868 -0.3971  1.0914
  371MOL0     H50042   9.577   2.587   8.872  1.4532  0.9374  1.0211
  371MOL0     H50043   9.354   2.786   8.894 -1.5724 -2.1643  0.3485
  371MOL0     H50044   9.338   2.622   8.836 -0.2590 -0.8070  1.2330
  371MOL0     H50045   9.297   2.632   8.502 -1.5367 -1.4945 -0.8422
  371MOL0     H50046   9.086   2.704   8.278  0.0411 -1.1647  0.7322
  371MOL0     H50047   9.098   2.585   8.410  1.7270  0.7351  1.7108
  371MOL0     H50048   8.954   2.697   8.401 -0.6490 -0.8802 -0.9211
  371MOL0     H50049   8.797   3.259   8.547  0.9866 -2.9946  3.0400
  371MOL0     H50050   8.586   3.336   8.442 -0.0289 -0.5562 -0.3666
  371MOL0     H50051   8.450   3.262   8.181  0.3265 -0.3623 -1.0073
  371MOL0     H50052   8.403   3.097   8.177  1.4401  0.3059  0.8268
  371MOL0     H50053   8.212   3.329   8.207  0.0360  1.3175 -0.1283
  371MOL0     H50054   8.231   3.232   8.061  2.4735 -0.0307  0.3521
  371MOL0     H50055   8.143   3.119   8.338  2.8472 -0.1559 -0.1827
  371MOL0     H50056   8.129   3.033   8.195 -1.1163  0.2537  0.6468
  371MOL0     H50057   7.975   3.268   8.299  0.1985  0.4553  0.5142
  371MOL0     H50058   8.006   3.265   8.126  1.5796  0.2837  1.3100
  371MOL0     H50059   7.883   3.046   8.302 -0.6951  1.9309  1.1641
  371MOL0     H50060   7.892   3.045   8.121  1.1667  0.4230  0.4548
  371MOL0     H50061   7.734   3.221   8.321 -1.8079 -1.1289 -0.0033
  371MOL0     H50062   7.748   3.269   8.151 -0.4493  3.7095  3.0544
  371MOL0     H50063   7.640   2.996   8.245 -3.7190 -1.0718 -2.5872
  371MOL0     H50064   7.637   3.057   8.086  1.3110 -3.0549  1.0531
  371MOL0     H50065   7.490   3.253   8.180 -2.0220  1.0511  0.6460
  371MOL0     H50066   7.507   3.170   8.335 -1.4440  3.2637 -0.8592
  371MOL0     H50067   8.449   2.941   8.378  0.5825  0.3170 -2.2455
  371MOL0     H50068   8.662   2.859   8.486 -1.6987 -1.4006 -3.8375
  371MOL0     H50069   9.072   3.038   8.671  1.1905  1.4170  0.3129
  371MOL0     H50070   9.295   2.970   8.771 -1.7932 -2.0507  2.8825
  371MOL0     H50071   9.919   2.126   8.359 -1.1419 -0.3664 -0.7422
  371MOL0     H50072   9.676   2.122   8.296 -3.4204 -1.9879  3.7213
  371MOL0     H50073   9.276   2.325   8.316  0.6248 -2.8160 -0.3344
  371MOL0     H50074   9.028   2.327   8.259 -1.0132 -0.6892  1.3804
  371MOL0     H50075   8.790   2.343   8.334  1.1108 -0.2933  1.5061
  371MOL0     H50076   8.795   2.271   8.173 -1.7614 -1.3617 -1.0607
  371MOL0     H50077   8.602   2.232   8.390  1.8710  0.1956  1.2053
  371MOL0     H50078   8.633   2.098   8.267  2.6683 -0.2510 -0.4717
  371MOL0     H50079   8.570   2.234   8.086 -2.8195  0.3171 -0.5681
  371MOL0     H50080   8.515   2.374   8.175  0.9673  0.5191 -1.0046
  371MOL0     H50081   8.406   2.102   8.173 -0.7332  0.3368  0.0052
  371MOL0     H50082   8.322   2.245   8.115  1.6452  0.2462 -0.7576
  371MOL0     H50083   8.293   2.237   8.552  1.0553 -0.8326  0.0438
  371MOL0     H50084   8.988   1.941   8.426  0.6525 -0.8695 -2.2093
  371MOL0     H50085   9.239   1.939   8.491 -0.5616  0.3797  1.0914
  372MOL0     O50086   1.473   7.340   0.683  0.2497 -0.2262  0.0936
  372MOL0     C50087   1.393   7.370   0.593 -0.0659  0.2269  0.2244
  372MOL0     O50088   1.258   7.409   0.624 -0.5106 -0.0952 -0.2564
  372MOL0     C50089   1.229   7.450   0.753 -0.1935  0.4247  0.0881
  372MOL0     C50090   1.172   7.362   0.842 -0.5677  0.2931 -0.8965
  372MOL0     C50091   1.145   7.404   0.975  0.4264 -0.0788  0.2289
  372MOL0     C50092   1.163   7.534   1.010  0.5839  1.1633 -0.9337
  372MOL0     O50093   1.125   7.562   1.140 -0.1763  0.3208  0.3117
  372MOL0     C50094   1.129   7.699   1.193  0.2880  0.5820  0.0963
  372MOL0     C50095   1.056   7.690   1.326 -0.0107  0.1165  0.5441
  372MOL0     C50096   0.902   7.676   1.314 -0.3361 -0.0952  0.7208
  372MOL0     C50097   0.839   7.651   1.455  0.1100 -0.5737  0.4615
  372MOL0     C50098   0.685   7.656   1.465 -0.0153 -0.0418 -0.6413
  372MOL0     C50099   0.636   7.796   1.438  0.2143 -1.0029 -0.3326
  372MOL0     C50100   0.479   7.798   1.446 -0.0481  0.6366  0.3620
  372MOL0     C50101   0.425   7.922   1.389  0.6659 -0.3916 -0.0624
  372MOL0     N50102   0.282   7.914   1.388  0.0703 -0.5747 -0.4675
  372MOL0     C50103   0.183   7.935   1.489 -1.0465  0.2570 -0.2891
  372MOL0     C50104   0.057   7.926   1.424 -1.2405 -0.6062  0.5302
  372MOL0     C50105  -0.072   7.958   1.502  0.1734  0.0877  0.3878
  372MOL0     C50106  -0.123   7.835   1.582 -0.5578  0.3204 -0.5660
  372MOL0     C50107  -0.269   7.840   1.630 -0.4254 -0.3281 -0.2290
  372MOL0     C50108  -0.297   7.714   1.712  0.0619 -1.0011 -0.2731
  372MOL0     O50109  -0.433   7.707   1.745  0.7238 -1.2412  0.0635
  372MOL0     C50110  -0.457   7.741   1.871  0.0896 -0.2038 -0.3159
  372MOL0     C50111  -0.571   7.676   1.926  0.0940 -0.3917 -0.2320
  372MOL0     C50112  -0.611   7.708   2.059 -0.5324 -1.0066  1.2425
  372MOL0     C50113  -0.720   7.626   2.114  0.2601  0.3725 -0.0225
  372MOL0     C50114  -0.521   7.786   2.141  1.2756  0.4820  0.0527
  372MOL0     C50115  -0.557   7.810   2.286 -0.8066  0.1910  0.0101
  372MOL0     O50116  -0.459   7.803   2.381 -0.1191  0.3418 -0.0221
  372MOL0     C50117  -0.474   7.815   2.521 -0.0715  0.4685  1.4301
  372MOL0     C50118  -0.354   7.805   2.592  0.0671 -0.4813  0.5421
  372MOL0     C50119  -0.349   7.829   2.730  0.7850 -1.0532 -0.6385
  372MOL0     C50120  -0.473   7.849   2.798 -1.2066 -0.0427  0.3358
  372MOL0     O50121  -0.450   7.845   2.930 -0.0052  0.2678 -0.3321
  372MOL0     C50122  -0.565   7.858   3.010  0.9707 -0.2135 -0.2247
  372MOL0     C50123  -0.538   7.865   3.157 -0.0470  0.4936 -0.3523
  372MOL0     C50124  -0.667   7.898   3.232 -0.0374  0.1109 -0.3842
  372MOL0     C50125  -0.652   7.852   3.381 -0.2545  0.1149  0.1090
  372MOL0     C50126  -0.794   7.832   3.437  0.0851  0.2946 -0.1864
  372MOL0     C50127  -0.796   7.773   3.577 -0.3074 -0.6266  0.0391
  372MOL0     C50128  -0.934   7.753   3.640  0.3677 -0.4764 -0.2207
  372MOL0     C50129  -0.923   7.660   3.770 -0.2356 -0.7167  0.3263
  372MOL0    Cl50130  -0.838   7.759   3.886  0.2561 -0.3026 -0.3353
  372MOL0     C50131  -0.594   7.856   2.727  0.3781  0.7660  0.1351
  372MOL0     C50132  -0.588   7.842   2.592  0.4422  0.0538  0.5461
  372MOL0     O50133  -0.671   7.862   2.297 -0.0822  0.6947  0.2090
  372MOL0     C50134  -0.411   7.847   2.088  1.1427  0.3486  0.0378
  372MOL0     C50135  -0.384   7.825   1.956  0.3226  0.4569  0.6476
  372MOL0     N50136   0.074   7.901   1.288  0.9487  0.3084  0.2062
  372MOL0     N50137   0.211   7.897   1.274  0.7842  0.2862  0.4372
  372MOL0     C50138   1.229   7.623   0.927  1.2587  0.0318 -0.6854
  372MOL0     C50139   1.266   7.576   0.801  0.3256  1.1371  0.2507
  372MOL0     C50140   1.433   7.371   0.454 -0.3517 -0.6318 -0.6695
  372MOL0     C50141   1.538   7.293   0.406 -0.0572  0.9861  0.2589
  372MOL0     C50142   1.576   7.303   0.263 -0.5835  0.3555 -0.2105
  372MOL0     C50143   1.517   7.400   0.180  1.1315 -0.2383  0.5875
  372MOL0     O50144   1.570   7.408   0.049  0.6920 -0.4427  0.6019
  372MOL0     C50145   1.525   7.517  -0.037  0.2564  0.5848  0.1653
  372MOL0     C50146   1.571   7.507  -0.186  0.3790 -0.5597  0.7214
  372MOL0     C50147   1.504   7.628  -0.253  0.2901 -0.9258 -0.3020
  372MOL0     C50148   1.519   7.627  -0.407  0.6191  0.5025 -1.1117
  372MOL0     C50149   1.415   7.548  -0.467  0.0765 -0.1719  0.1982
  372MOL0     C50150   1.324   7.486  -0.521 -0.6655 -1.2226  0.3897
  372MOL0     C50151   1.417   7.487   0.235 -0.3618 -0.3322 -0.0282
  372MOL0     C50152   1.377   7.461   0.365 -0.3801 -0.5935  0.4255
  372MOL0     H50153   1.151   7.257   0.827  0.3247 -0.5630  2.7447
  372MOL0     H50154   1.102   7.331   1.042  1.4705 -1.0459 -0.1304
  372MOL0     H50155   1.235   7.723   1.203  0.1487  1.1442  0.2273
  372MOL0     H50156   1.079   7.762   1.119  0.7031  1.5068  0.5962
  372MOL0     H50157   1.099   7.611   1.389  1.7609  1.2047  0.7851
  372MOL0     H50158   1.090   7.776   1.384  4.4156 -0.3782 -0.9280
  372MOL0     H50159   0.861   7.765   1.266 -0.3503 -0.2096  0.5151
  372MOL0     H50160   0.891   7.595   1.240  3.5205 -1.7984  1.7514
  372MOL0     H50161   0.873   7.563   1.510 -0.4529 -1.8883 -1.2164
  372MOL0     H50162   0.863   7.735   1.521 -3.2185  0.4993  0.5111
  372MOL0     H50163   0.641   7.587   1.392 -0.5994  1.5050 -1.8183
  372MOL0     H50164   0.657   7.625   1.566  1.3112 -0.7740 -0.4710
  372MOL0     H50165   0.679   7.873   1.501 -3.2085  1.5340 -0.8157
  372MOL0     H50166   0.660   7.819   1.334 -0.9471 -0.6439 -0.5349
  372MOL0     H50167   0.441   7.709   1.395 -0.6573  1.5516 -0.8372
  372MOL0     H50168   0.443   7.779   1.547 -3.7999  0.1702 -0.9218
  372MOL0     H50169   0.454   7.932   1.284  2.0018 -0.4080  0.2752
  372MOL0     H50170   0.458   8.013   1.440  3.1915 -2.1630  1.8122
  372MOL0     H50171   0.185   7.955   1.596 -1.5799 -0.3443 -0.1577
  372MOL0     H50172  -0.055   8.036   1.577  3.3291 -0.7163  0.6586
  372MOL0     H50173  -0.143   7.998   1.429 -0.6682  1.5683  1.9518
  372MOL0     H50174  -0.046   7.809   1.655  1.5078 -0.6439 -2.9100
  372MOL0     H50175  -0.126   7.759   1.503 -0.7610  0.6540 -0.8832
  372MOL0     H50176  -0.335   7.834   1.543  0.4405  0.7221 -0.9868
  372MOL0     H50177  -0.284   7.930   1.691  1.2078  0.8454 -1.4801
  372MOL0     H50178  -0.229   7.696   1.795  0.1884  1.8297  0.3523
  372MOL0     H50179  -0.278   7.636   1.638  3.0300  0.3752 -1.1017
  372MOL0     H50180  -0.630   7.607   1.868  0.7054 -1.5127  0.4494
  372MOL0     H50181  -0.746   7.550   2.040  0.6739  1.9645 -1.8841
  372MOL0     H50182  -0.696   7.589   2.214 -1.4636 -1.2635 -0.1571
  372MOL0     H50183  -0.806   7.689   2.138  0.2297  0.3614 -0.1053
  372MOL0     H50184  -0.257   7.807   2.543  1.1550 -0.7194  2.5577
  372MOL0     H50185  -0.256   7.832   2.786  0.6252 -1.4564 -0.3432
  372MOL0     H50186  -0.622   7.948   2.986  0.5518 -0.2620  0.5527
  372MOL0     H50187  -0.629   7.770   2.994 -0.3431  0.6853 -0.0524
  372MOL0     H50188  -0.488   7.772   3.186 -1.6972  0.6508  3.7273
  372MOL0     H50189  -0.460   7.938   3.181  0.6264 -0.2079 -0.3553
  372MOL0     H50190  -0.746   7.845   3.179  0.4428 -0.5191 -0.4952
  372MOL0     H50191  -0.680   8.005   3.214 -0.0813 -0.0427 -1.3509
  372MOL0     H50192  -0.601   7.755   3.390 -1.4633 -0.7779 -1.9961
  372MOL0     H50193  -0.595   7.922   3.444 -1.7750 -0.9906  2.9013
  372MOL0     H50194  -0.855   7.767   3.373 -1.4748 -0.2870  1.8142
  372MOL0     H50195  -0.837   7.932   3.444  0.9658  0.7245 -0.6842
  372MOL0     H50196  -0.736   7.681   3.571  1.4722  0.5303 -0.6248
  372MOL0     H50197  -0.738   7.842   3.639  1.2078 -2.4733  0.8113
  372MOL0     H50198  -1.003   7.712   3.565 -0.5516  1.5340 -0.5172
  372MOL0     H50199  -0.979   7.851   3.658 -0.1781 -0.3308 -2.1297
  372MOL0     H50200  -0.892   7.559   3.743 -1.5340 -0.8366 -0.8382
  372MOL0     H50201  -1.025   7.658   3.809 -0.3247 -0.0604  0.1386
  372MOL0     H50202  -0.694   7.851   2.768  1.2131 -0.5146  2.1502
  372MOL0     H50203  -0.681   7.862   2.539 -0.4782  0.4774  2.2456
  372MOL0     H50204  -0.353   7.907   2.158 -1.4055  0.4351  2.2426
  372MOL0     H50205  -0.294   7.870   1.915 -1.0368  3.6300  0.9102
  372MOL0     H50206   1.261   7.719   0.967  0.7029  0.0002 -0.1458
  372MOL0     H50207   1.321   7.644   0.737  0.9215 -0.4503 -1.0116
  372MOL0     H50208   1.581   7.213   0.465 -0.9300 -2.1082 -2.9681
  372MOL0     H50209   1.647   7.229   0.227 -1.0251 -0.1841  0.0072
  372MOL0     H50210   1.417   7.531  -0.026  0.2920  0.6442  0.4360
  372MOL0     H50211   1.566   7.614  -0.007 -0.4990  1.6446 -1.9662
  372MOL0     H50212   1.537   7.415  -0.235  1.2491 -0.1527 -0.7148
  372MOL0     H50213   1.680   7.497  -0.194  0.3724 -0.9124  1.0655
  372MOL0     H50214   1.551   7.723  -0.225 -1.8491 -0.2127  1.0603
  372MOL0     H50215   1.399   7.648  -0.229  0.6949 -2.5428  3.5060
  372MOL0     H50216   1.619   7.591  -0.433 -0.0589 -1.1969 -1.5308
  372MOL0     H50217   1.510   7.730  -0.441 -2.2790  1.0127  0.7854
  372MOL0     H50218   1.249   7.420  -0.561 -2.1377  0.1342  0.8351
  372MOL0     H50219   1.366   7.563   0.176  0.5389  0.4121  0.1267
  372MOL0     H50220   1.317   7.537   0.412  0.7412 -0.2060  1.2926
  373MOL0     O50221   2.078   5.521   0.918  0.1262  0.0368  1.3617
  373MOL0     C50222   2.033   5.419   0.963  0.5056  0.4171 -1.2057
  373MOL0     O50223   1.991   5.308   0.886 -0.1672 -0.2085 -0.3229
  373MOL0     C50224   1.973   5.334   0.752 -0.7524  0.0108 -0.2953
  373MOL0     C50225   2.083   5.325   0.666  0.1785 -0.7483 -0.3412
  373MOL0     C50226   2.059   5.334   0.523 -0.6775  0.1976  0.7214
  373MOL0     C50227   1.928   5.346   0.476  0.2738 -0.2894 -0.4473
  373MOL0     O50228   1.897   5.361   0.340 -0.3525 -0.0738 -0.8714
  373MOL0     C50229   1.954   5.473   0.280  0.2463 -0.4233  0.5024
  373MOL0     C50230   1.900   5.454   0.133 -0.0369  0.0326 -0.5764
  373MOL0     C50231   1.974   5.535   0.020 -0.3094 -0.7209 -0.0332
  373MOL0     C50232   1.971   5.692   0.059  0.7971 -1.1207  1.1584
  373MOL0     C50233   1.998   5.782  -0.062 -0.0451 -0.2927 -0.6618
  373MOL0     C50234   2.139   5.771  -0.125 -0.0633 -0.9308 -0.9597
  373MOL0     C50235   2.153   5.875  -0.238 -0.0586  0.0136  0.2543
  373MOL0     C50236   2.270   5.852  -0.317  0.0756 -0.4409  0.3314
  373MOL0     N50237   2.253   5.730  -0.398 -0.0123  0.5721  0.6030
  373MOL0     C50238   2.159   5.704  -0.492  0.2134 -0.4105 -0.1239
  373MOL0     C50239   2.195   5.587  -0.551  0.1321 -0.3368  0.0594
  373MOL0     C50240   2.115   5.503  -0.643 -0.3748 -0.2677  0.6725
  373MOL0     C50241   2.174   5.517  -0.786 -0.5217 -0.3293  0.0039
  373MOL0     C50242   2.121   5.409  -0.881 -1.1945  0.5064  0.0104
  373MOL0     C50243   2.212   5.412  -1.008  0.7254 -0.6484 -1.2825
  373MOL0     O50244   2.183   5.299  -1.095 -0.2109  0.7817  0.0472
  373MOL0     C50245   2.218   5.308  -1.229 -0.4359  0.1439 -0.2737
  373MOL0     C50246   2.197   5.194  -1.306  0.2230  0.5101  0.5811
  373MOL0     C50247   2.244   5.181  -1.448  0.8798  0.5206  0.3583
  373MOL0     C50248   2.220   5.054  -1.515  1.1316  0.7551  1.1624
  373MOL0     C50249   2.290   5.303  -1.505 -0.4470 -0.1981  0.3697
  373MOL0     C50250   2.292   5.307  -1.661  0.9400  0.4599  0.8937
  373MOL0     O50251   2.182   5.267  -1.737  0.4877 -0.0948 -0.2782
  373MOL0     C50252   2.213   5.254  -1.872  0.1039 -0.2751  0.8127
  373MOL0     C50253   2.242   5.126  -1.926 -0.1590  0.9812  0.2282
  373MOL0     C50254   2.249   5.107  -2.063 -0.4813 -0.1672  0.6696
  373MOL0     C50255   2.246   5.216  -2.154 -0.3563 -0.1145  0.1784
  373MOL0     O50256   2.249   5.195  -2.291  0.3365  0.3884  0.6802
  373MOL0     C50257   2.329   5.272  -2.365 -0.0968 -0.9835 -0.3011
  373MOL0     C50258   2.387   5.200  -2.487 -0.4401  0.3196 -0.7411
  373MOL0     C50259   2.468   5.280  -2.590 -0.3680  0.0616 -0.0528
  373MOL0     C50260   2.596   5.336  -2.526  0.6266 -0.0735  0.2258
  373MOL0     C50261   2.686   5.409  -2.630  0.5784  0.1747  0.5887
  373MOL0     C50262   2.805   5.493  -2.571 -0.2961 -0.5825 -0.4451
  373MOL0     C50263   2.881   5.570  -2.678 -0.5085  0.7715 -1.1797
  373MOL0     C50264   2.810   5.682  -2.751  1.2220 -0.0191  0.8465
  373MOL0    Cl50265   2.925   5.778  -2.853  0.0915 -0.1186  0.0081
  373MOL0     C50266   2.219   5.350  -2.093 -0.0822  0.0721  0.3180
  373MOL0     C50267   2.211   5.362  -1.956 -0.5149 -0.4370  0.1270
  373MOL0     O50268   2.384   5.369  -1.711 -0.6121 -0.1173 -0.0215
  373MOL0     C50269   2.314   5.419  -1.422  0.0452  1.4425 -0.0408
  373MOL0     C50270   2.286   5.415  -1.284 -1.0528 -0.5451 -0.5358
  373MOL0     N50271   2.314   5.547  -0.499  0.1061  0.8043 -0.1099
  373MOL0     N50272   2.343   5.625  -0.404  1.0981 -0.1875  0.1894
  373MOL0     C50273   1.817   5.349   0.561  0.3959  0.3143  0.3647
  373MOL0     C50274   1.840   5.346   0.701 -0.2501  0.3716 -0.3128
  373MOL0     C50275   2.044   5.392   1.110  0.2347  1.0147  0.4843
  373MOL0     C50276   2.034   5.273   1.171 -0.8065  0.0043  0.3215
  373MOL0     C50277   2.066   5.262   1.308  0.8406 -0.2216 -0.6860
  373MOL0     C50278   2.071   5.374   1.395 -0.3424  0.1979 -0.0653
  373MOL0     O50279   2.075   5.368   1.528 -0.0070 -0.3404 -0.1048
  373MOL0     C50280   2.178   5.290   1.587 -0.4009  0.2346 -0.5867
  373MOL0     C50281   2.118   5.160   1.627  0.2094  0.3049  0.0576
  373MOL0     C50282   2.015   5.168   1.742  0.1388  0.3338 -0.1790
  373MOL0     C50283   1.969   5.025   1.778  0.4579  0.5185  0.2868
  373MOL0     C50284   1.892   4.967   1.667  0.1098  0.1349 -0.1096
  373MOL0     C50285   1.839   4.940   1.562 -0.1345 -0.6815  0.0954
  373MOL0     C50286   2.071   5.498   1.332 -0.5056 -0.0084 -0.6391
  373MOL0     C50287   2.069   5.506   1.194 -0.1087 -1.4171 -0.5122
  373MOL0     H50288   2.186   5.306   0.695 -0.5384 -1.4545  1.9670
  373MOL0     H50289   2.142   5.334   0.453 -1.5713  1.0109 -0.3671
  373MOL0     H50290   1.920   5.569   0.318 -0.7097 -1.0302  1.2206
  373MOL0     H50291   2.061   5.459   0.264 -0.2486 -0.2477 -5.0730
  373MOL0     H50292   1.912   5.351   0.099 -0.0679 -0.0339 -0.3875
  373MOL0     H50293   1.795   5.486   0.135  0.1784  0.8631  2.1843
  373MOL0     H50294   2.077   5.500   0.015 -0.4442 -0.9589 -2.2930
  373MOL0     H50295   1.911   5.509  -0.067 -0.6533 -1.0221  0.3015
  373MOL0     H50296   1.866   5.715   0.078 -0.3462 -0.8382 -4.0370
  373MOL0     H50297   2.024   5.726   0.148 -1.3835  0.2523  1.9936
  373MOL0     H50298   1.929   5.763  -0.144 -1.6998 -1.9609  1.0141
  373MOL0     H50299   1.983   5.886  -0.034 -2.1660 -0.2675 -1.7157
  373MOL0     H50300   2.208   5.791  -0.043 -2.8071  0.2671  1.2416
  373MOL0     H50301   2.165   5.672  -0.164  0.3392 -1.1007 -0.2635
  373MOL0     H50302   2.070   5.870  -0.308 -0.1489 -4.1140  0.4221
  373MOL0     H50303   2.151   5.977  -0.197  1.0785  0.1412  0.0488
  373MOL0     H50304   2.360   5.845  -0.255  0.6380 -0.2738 -0.4576
  373MOL0     H50305   2.268   5.945  -0.374 -2.4460 -0.9370 -0.5181
  373MOL0     H50306   2.071   5.761  -0.521  0.2303  0.4047  1.3610
  373MOL0     H50307   2.137   5.403  -0.606  1.7028  0.7338  2.4125
  373MOL0     H50308   2.008   5.519  -0.630 -0.0503  2.2829  0.7711
  373MOL0     H50309   2.283   5.526  -0.794 -0.3606 -2.9843 -2.3631
  373MOL0     H50310   2.139   5.614  -0.821 -6.1048 -1.0201  2.6387
  373MOL0     H50311   2.019   5.425  -0.918 -1.6353 -2.2866 -0.2083
  373MOL0     H50312   2.129   5.312  -0.830  0.4582  0.0750 -0.9960
  373MOL0     H50313   2.316   5.411  -0.975  0.6094 -0.3398 -0.9011
  373MOL0     H50314   2.203   5.505  -1.064 -0.4760  0.6235  0.8635
  373MOL0     H50315   2.160   5.109  -1.249  1.4736  1.8362  3.6003
  373MOL0     H50316   2.263   5.056  -1.616 -3.0257 -2.2768 -0.9761
  373MOL0     H50317   2.272   4.976  -1.459 -0.4374 -2.1527 -1.1529
  373MOL0     H50318   2.113   5.037  -1.526  0.8726  1.8300  1.8696
  373MOL0     H50319   2.241   5.044  -1.855 -2.0242 -0.8032 -1.7115
  373MOL0     H50320   2.261   5.008  -2.107 -2.7745 -1.1177  2.0049
  373MOL0     H50321   2.270   5.354  -2.407 -2.5541 -2.0763  0.8058
  373MOL0     H50322   2.414   5.300  -2.303 -0.9067 -1.2402  0.9797
  373MOL0     H50323   2.440   5.112  -2.451  1.2572  1.1256 -1.1354
  373MOL0     H50324   2.308   5.148  -2.540 -0.0637 -2.7266  1.4212
  373MOL0     H50325   2.415   5.371  -2.618  1.9716  0.8662 -2.2507
  373MOL0     H50326   2.480   5.218  -2.679 -0.6136 -0.5179  0.3130
  373MOL0     H50327   2.571   5.402  -2.443  2.7062 -0.9359  1.6159
  373MOL0     H50328   2.653   5.253  -2.483  2.3907  1.0353  0.1235
  373MOL0     H50329   2.625   5.480  -2.687  3.5933  2.3640 -0.1194
  373MOL0     H50330   2.716   5.327  -2.696 -0.3127  0.8232 -0.6795
  373MOL0     H50331   2.767   5.561  -2.494 -1.7915 -0.2332 -1.4416
  373MOL0     H50332   2.879   5.420  -2.538  0.8740  0.5925 -0.3968
  373MOL0     H50333   2.906   5.514  -2.768 -1.4486 -2.7652  0.5955
  373MOL0     H50334   2.970   5.616  -2.632  0.1093 -0.4945 -1.0549
  373MOL0     H50335   2.768   5.753  -2.679 -2.1813 -0.2104 -0.7543
  373MOL0     H50336   2.722   5.652  -2.808 -0.4633  2.0032  2.2076
  373MOL0     H50337   2.222   5.434  -2.161  0.0078  0.4139  0.7404
  373MOL0     H50338   2.190   5.461  -1.917  1.5387 -0.4917  1.5587
  373MOL0     H50339   2.348   5.509  -1.473 -3.2574  1.5573 -2.3185
  373MOL0     H50340   2.323   5.491  -1.216  1.8383 -1.9053 -0.4298
  373MOL0     H50341   1.716   5.341   0.524 -0.1843  0.6534  1.8200
  373MOL0     H50342   1.748   5.336   0.758 -1.2680 -1.2227 -2.1376
  373MOL0     H50343   2.012   5.178   1.121 -0.6626 -1.1265  2.3033
  373MOL0     H50344   2.063   5.161   1.349 -4.8952 -0.3685 -0.6525
  373MOL0     H50345   2.264   5.272   1.522  1.0390  1.8925  0.7566
  373MOL0     H50346   2.218   5.331   1.680 -0.6184  1.5139 -1.0333
  373MOL0     H50347   2.200   5.091   1.649  0.7703  1.5776  2.2103
  373MOL0     H50348   2.075   5.114   1.537  0.6876  1.7220 -0.9193
  373MOL0     H50349   1.923   5.221   1.713 -0.9652 -0.3723  1.8188
  373MOL0     H50350   2.046   5.212   1.837 -3.1436  0.4176  0.9954
  373MOL0     H50351   1.909   5.029   1.870 -0.7738 -0.5873 -0.4288
  373MOL0     H50352   2.049   4.957   1.809  0.5243  0.5245  0.1278
  373MOL0     H50353   1.787   4.919   1.471 -3.3884  1.9041  1.1899
  373MOL0     H50354   2.087   5.587   1.391  1.4959 -2.0508  2.1657
  373MOL0     H50355   2.093   5.606   1.157  0.0224 -1.3770 -0.3203
  374MOL0     O50356   4.961   0.133  11.353  0.7063 -0.6386  0.3526
  374MOL0     C50357   5.062   0.183  11.398 -0.6481  0.6200 -0.6599
  374MOL0     O50358   5.072   0.268  11.512  0.5210  0.1541 -0.1865
  374MOL0     C50359   4.954   0.308  11.572 -0.3591  0.4632  0.5065
  374MOL0     C50360   4.869   0.396  11.502 -0.2140 -0.5772  0.1186
  374MOL0     C50361   4.764   0.457  11.578  0.7872  0.0849 -0.5413
  374MOL0     C50362   4.754   0.442  11.720  0.4352  0.7929 -0.3990
  374MOL0     O50363   4.676   0.509  11.815  0.1271  0.7364  0.2228
  374MOL0     C50364   4.583   0.610  11.763  0.0916  0.0861 -0.3048
  374MOL0     C50365   4.520   0.696  11.868  0.5268  0.3550 -0.4840
  374MOL0     C50366   4.417   0.606  11.940 -0.4926 -0.2305  0.6867
  374MOL0     C50367   4.355   0.672  12.062 -0.5613 -0.2062 -0.4272
  374MOL0     C50368   4.260   0.779  11.996 -0.3336  0.7114 -0.7911
  374MOL0     C50369   4.205   0.855  12.117  0.2567 -0.1700 -1.1795
  374MOL0     C50370   4.092   0.964  12.076 -0.3154 -0.4546  0.1042
  374MOL0     C50371   3.956   0.918  12.085 -0.0220  0.5816  0.0758
  374MOL0     N50372   3.918   0.906  12.226 -0.6781 -0.2381  0.5850
  374MOL0     C50373   3.875   1.000  12.312  0.0604 -0.4468 -0.3241
  374MOL0     C50374   3.827   0.938  12.420  0.0123 -0.6471  0.9900
  374MOL0     C50375   3.762   1.006  12.536 -0.4976 -0.3243  0.2588
  374MOL0     C50376   3.821   0.952  12.668  0.6970 -0.5582 -0.2895
  374MOL0     C50377   3.978   0.955  12.684 -0.6388  0.1158 -0.4924
  374MOL0     C50378   4.034   1.090  12.655 -0.8304 -0.5918  0.9098
  374MOL0     O50379   4.173   1.094  12.699  0.6001  0.0836 -0.1687
  374MOL0     C50380   4.270   1.028  12.624 -0.0157  0.5262  0.0452
  374MOL0     C50381   4.388   1.025  12.694  0.1982 -0.6781 -0.0332
  374MOL0     C50382   4.495   0.954  12.646  0.2754  0.3387 -0.7430
  374MOL0     C50383   4.614   0.961  12.736  0.3248  0.1423 -0.8661
  374MOL0     C50384   4.498   0.898  12.515 -0.6529  0.8618 -0.2377
  374MOL0     C50385   4.621   0.846  12.443 -0.7009  1.2792 -0.0386
  374MOL0     O50386   4.593   0.795  12.319 -0.2849 -0.3416  0.1521
  374MOL0     C50387   4.695   0.742  12.246  0.0556 -0.5869 -0.2489
  374MOL0     C50388   4.789   0.826  12.184  0.4707  0.0234 -0.4833
  374MOL0     C50389   4.887   0.785  12.097 -0.1754  0.5492 -0.0813
  374MOL0     C50390   4.896   0.646  12.064  0.1217  0.3156 -0.5171
  374MOL0     O50391   4.986   0.587  11.981 -0.0817 -0.0601 -0.0066
  374MOL0     C50392   5.052   0.682  11.900 -0.4890  0.1181  0.8301
  374MOL0     C50393   5.166   0.628  11.816 -0.2764 -0.1653 -0.0775
  374MOL0     C50394   5.213   0.721  11.710  0.1334  0.1432 -1.4777
  374MOL0     C50395   5.138   0.699  11.583 -0.4461  0.4132  0.5686
  374MOL0     C50396   5.183   0.792  11.469 -0.0180  0.7720 -0.4385
  374MOL0     C50397   5.078   0.801  11.360  0.4048 -0.0459 -0.6700
  374MOL0     C50398   5.135   0.881  11.243  0.7441 -0.2407  0.3583
  374MOL0     C50399   5.168   1.023  11.283 -0.9411  0.3282 -0.6535
  374MOL0    Cl50400   5.345   1.035  11.304 -0.2898 -0.0580 -0.1833
  374MOL0     C50401   4.820   0.556  12.146 -0.0748 -0.1559 -0.4505
  374MOL0     C50402   4.720   0.607  12.234 -0.1835  0.6855 -0.7188
  374MOL0     O50403   4.737   0.849  12.492 -0.6826  0.1291  0.2238
  374MOL0     C50404   4.371   0.898  12.450 -0.9442  0.3693  0.8991
  374MOL0     C50405   4.256   0.965  12.502  0.0628 -0.1768 -1.2472
  374MOL0     N50406   3.835   0.806  12.384  0.0430 -0.5777 -0.5883
  374MOL0     N50407   3.890   0.786  12.265 -0.1598 -0.6101 -0.3031
  374MOL0     C50408   4.825   0.330  11.773  0.3513  0.8461 -0.0951
  374MOL0     C50409   4.919   0.261  11.701 -0.7924 -0.1672  0.4875
  374MOL0     C50410   5.186   0.146  11.340 -0.0570  0.0869  0.4580
  374MOL0     C50411   5.316   0.190  11.382  0.3408  1.1319  0.3669
  374MOL0     C50412   5.427   0.156  11.313  0.0968 -0.8117  0.2993
  374MOL0     C50413   5.425   0.070  11.209 -0.4004 -0.0739  1.0230
  374MOL0     O50414   5.555   0.047  11.163  0.2373 -0.1711 -0.3606
  374MOL0     C50415   5.572  -0.044  11.052  0.1613  0.0844  0.8625
  374MOL0     C50416   5.578  -0.184  11.100 -0.6812  1.1843 -0.2085
  374MOL0     C50417   5.668  -0.201  11.220  0.0786 -0.1809 -0.6626
  374MOL0     C50418   5.741  -0.333  11.235 -0.4091  0.6933 -0.0298
  374MOL0     C50419   5.766  -0.353  11.375  1.2740  0.3041 -0.8902
  374MOL0     C50420   5.784  -0.374  11.496  0.6579 -0.4102  0.2441
  374MOL0     C50421   5.304   0.024  11.163  0.1036 -0.1810  0.3914
  374MOL0     C50422   5.185   0.068  11.226  0.5092  0.8362  0.0105
  374MOL0     H50423   4.888   0.433  11.401 -0.3446 -0.0689  0.2750
  374MOL0     H50424   4.705   0.536  11.534 -0.8504  0.2902  1.9075
  374MOL0     H50425   4.636   0.681  11.700 -1.5170 -0.2073 -2.0845
  374MOL0     H50426   4.511   0.566  11.693  0.0195  0.6557 -0.5967
  374MOL0     H50427   4.605   0.723  11.931 -0.6709 -3.2157  3.0605
  374MOL0     H50428   4.486   0.788  11.819 -1.3120  0.8328  1.5367
  374MOL0     H50429   4.341   0.581  11.865  1.5353 -2.2616 -0.8642
  374MOL0     H50430   4.441   0.505  11.974  0.0021 -0.4428 -0.2584
  374MOL0     H50431   4.293   0.610  12.127 -0.9577 -0.4451 -1.0320
  374MOL0     H50432   4.437   0.711  12.123 -0.4745  0.9724 -1.2695
  374MOL0     H50433   4.291   0.856  11.926  0.4581  0.0524 -1.1862
  374MOL0     H50434   4.187   0.715  11.946  0.5356 -0.7766 -0.2457
  374MOL0     H50435   4.158   0.784  12.185 -0.5882  0.7360 -0.7890
  374MOL0     H50436   4.292   0.897  12.169 -0.0792 -2.0372  1.0726
  374MOL0     H50437   4.107   1.047  12.144 -1.1091  0.2378 -0.5400
  374MOL0     H50438   4.105   1.009  11.977  3.3879  1.9035  1.4950
  374MOL0     H50439   3.931   0.825  12.034 -1.4845  1.5304 -1.0228
  374MOL0     H50440   3.890   0.989  12.034 -2.1874 -1.3632  0.0239
  374MOL0     H50441   3.864   1.108  12.298 -1.9115 -0.1352  2.6207
  374MOL0     H50442   3.782   1.114  12.529  2.5949 -0.9059 -1.4470
  374MOL0     H50443   3.653   1.001  12.523 -0.7492  1.8739  0.9504
  374MOL0     H50444   3.785   0.850  12.679 -1.9651  0.2949 -0.4159
  374MOL0     H50445   3.759   0.995  12.747 -1.4498 -2.0602 -1.0832
  374MOL0     H50446   4.019   0.882  12.614 -0.6198  0.2508 -0.6233
  374MOL0     H50447   4.014   0.926  12.783 -3.3581 -1.8084  0.0389
  374MOL0     H50448   3.979   1.164  12.713  0.0654  0.8476 -0.0087
  374MOL0     H50449   4.031   1.110  12.548 -0.5087  1.2583  1.2112
  374MOL0     H50450   4.385   1.076  12.790  0.0005 -0.5857 -0.0882
  374MOL0     H50451   4.593   1.020  12.827 -2.1328 -0.7824 -0.7412
  374MOL0     H50452   4.645   0.865  12.777  0.4411  1.6947  3.1797
  374MOL0     H50453   4.704   1.004  12.692  1.8131 -1.7512  0.2200
  374MOL0     H50454   4.787   0.933  12.204  2.6742 -0.4670  3.3812
  374MOL0     H50455   4.950   0.853  12.041  1.5626 -0.8936  0.0327
  374MOL0     H50456   4.985   0.738  11.835 -0.5290  0.7746  1.4173
  374MOL0     H50457   5.096   0.764  11.959 -1.7742  0.7401  0.9528
  374MOL0     H50458   5.247   0.597  11.883 -1.0355  0.0131  0.9372
  374MOL0     H50459   5.131   0.536  11.768 -1.8086  1.3109 -1.9496
  374MOL0     H50460   5.319   0.696  11.693  0.8293 -0.3667  2.5873
  374MOL0     H50461   5.192   0.823  11.741 -1.0675 -0.0282 -1.6960
  374MOL0     H50462   5.148   0.594  11.554  2.8710  0.6378  0.5697
  374MOL0     H50463   5.034   0.719  11.611  0.3367  1.1019  3.3051
  374MOL0     H50464   5.282   0.760  11.435 -0.6684 -3.5124  1.2216
  374MOL0     H50465   5.209   0.891  11.510 -0.1158  0.9893 -0.8907
  374MOL0     H50466   5.048   0.703  11.322 -2.6651  0.4448  0.2217
  374MOL0     H50467   4.988   0.852  11.395  1.5831  1.7732 -0.1280
  374MOL0     H50468   5.071   0.883  11.154  1.7182  0.9985 -0.3427
  374MOL0     H50469   5.220   0.829  11.199  1.1516  1.9564 -1.6411
  374MOL0     H50470   5.117   1.046  11.377 -1.1463 -1.9048 -0.1578
  374MOL0     H50471   5.148   1.099  11.208  0.4353  1.0802 -0.3021
  374MOL0     H50472   4.840   0.449  12.145  0.2326 -0.0972 -0.7245
  374MOL0     H50473   4.677   0.534  12.302  2.2253 -0.1794 -0.0052
  374MOL0     H50474   4.359   0.844  12.357 -1.3681 -1.0882  1.7706
  374MOL0     H50475   4.158   0.956  12.456 -1.3749 -1.8366  1.8796
  374MOL0     H50476   4.803   0.304  11.876  0.8307 -0.1158 -0.2198
  374MOL0     H50477   4.992   0.186  11.731  1.2897 -0.5251 -4.6172
  374MOL0     H50478   5.316   0.262  11.463  0.0465  2.4640 -0.7866
  374MOL0     H50479   5.524   0.190  11.346 -0.2425 -0.5680  1.0731
  374MOL0     H50480   5.486  -0.022  10.988  0.7220 -1.1958 -0.3654
  374MOL0     H50481   5.659  -0.005  10.999 -1.4826  1.6068 -0.8987
  374MOL0     H50482   5.612  -0.261  11.031 -2.7573  0.8806 -0.9557
  374MOL0     H50483   5.479  -0.218  11.131  0.8564 -2.4728  1.3113
  374MOL0     H50484   5.619  -0.176  11.314  1.4997 -2.5740  0.8103
  374MOL0     H50485   5.752  -0.133  11.203  1.3760 -1.0333  1.8437
  374MOL0     H50486   5.821  -0.345  11.162  1.2448  0.4022  1.7521
  374MOL0     H50487   5.667  -0.406  11.201  1.0114 -0.4459 -0.7827
  374MOL0     H50488   5.810  -0.401  11.597 -0.4403  2.8937  1.5785
  374MOL0     H50489   5.299  -0.041  11.076  1.2520 -2.3844  1.8900
  374MOL0     H50490   5.089   0.035  11.186  0.5290  0.3979  0.3135
  375MOL0     O50491  11.275  11.034   4.746  0.2072 -0.4551  0.5127
  375MOL0     C50492  11.238  11.130   4.811  0.1724  0.0958  0.0560
  375MOL0     O50493  11.304  11.182   4.918 -0.0627  0.1953 -0.2332
  375MOL0     C50494  11.402  11.101   4.960 -0.2866  0.1373 -0.0648
  375MOL0     C50495  11.385  10.992   5.039  0.1849 -0.3628 -0.2528
  375MOL0     C50496  11.487  10.907   5.073 -0.0234 -0.1166 -0.3896
  375MOL0     C50497  11.623  10.940   5.027 -0.1960  0.2357  0.2939
  375MOL0     O50498  11.716  10.845   5.056 -0.4249 -0.1225 -0.6031
  375MOL0     C50499  11.841  10.844   4.980 -0.1962  0.4260  0.3189
  375MOL0     C50500  11.943  10.768   5.063  0.2228  0.8952 -0.4890
  375MOL0     C50501  11.927  10.620   5.054  0.6195  0.4831 -1.0988
  375MOL0     C50502  12.055  10.560   5.091 -0.2873 -0.3468  0.1054
  375MOL0     C50503  12.030  10.408   5.125 -0.9353  0.1916  0.6483
  375MOL0     C50504  12.157  10.322   5.121  0.1906  0.3873  0.1774
  375MOL0     C50505  12.262  10.374   5.224  0.0561 -1.1742  0.2353
  375MOL0     C50506  12.396  10.326   5.174 -0.4316 -0.7713  0.3208
  375MOL0     N50507  12.488  10.444   5.149  0.4114 -0.2420  0.2818
  375MOL0     C50508  12.491  10.515   5.030  0.2110  0.0335 -0.2108
  375MOL0     C50509  12.608  10.587   5.035 -0.5767  0.8612  0.7193
  375MOL0     C50510  12.652  10.693   4.934 -0.2037  0.0012  0.0561
  375MOL0     C50511  12.612  10.829   4.971  0.5338  0.5006 -0.3145
  375MOL0     C50512  12.461  10.866   4.960  1.1794  0.5380  0.1493
  375MOL0     C50513  12.438  11.006   5.015 -0.6850  0.0620  0.3615
  375MOL0     O50514  12.304  10.990   5.052  0.0946  0.2267  0.0845
  375MOL0     C50515  12.224  11.098   5.094  0.1852 -0.4338  0.5536
  375MOL0     C50516  12.102  11.085   5.167 -0.9194  0.1616  0.8710
  375MOL0     C50517  12.016  11.181   5.210 -1.0410 -0.0920 -0.0311
  375MOL0     C50518  11.903  11.147   5.296 -0.2003  0.4722 -0.4190
  375MOL0     C50519  12.047  11.313   5.155  0.2498 -0.4981 -0.5295
  375MOL0     C50520  11.968  11.433   5.189 -0.1354 -0.1256  0.0499
  375MOL0     O50521  11.965  11.531   5.086 -0.3285  0.4172 -0.8531
  375MOL0     C50522  11.885  11.644   5.097  0.2977  0.7935 -0.8768
  375MOL0     C50523  11.936  11.770   5.068 -0.4538  0.6137  0.0736
  375MOL0     C50524  11.869  11.883   5.101 -0.2874  0.2693  0.0434
  375MOL0     C50525  11.733  11.878   5.133  0.8300 -0.3068 -0.9676
  375MOL0     O50526  11.670  12.000   5.137 -0.8171 -0.6248  0.0563
  375MOL0     C50527  11.533  12.007   5.171 -0.6124 -0.5062 -0.5685
  375MOL0     C50528  11.501  12.129   5.272  0.3580  0.0144  0.1264
  375MOL0     C50529  11.350  12.160   5.267  0.8246  0.1550 -0.2881
  375MOL0     C50530  11.310  12.253   5.147 -0.3365 -0.9196 -0.1065
  375MOL0     C50531  11.283  12.388   5.211  0.0752 -0.6988 -1.0200
  375MOL0     C50532  11.414  12.451   5.275  0.5538  0.1681 -0.3830
  375MOL0     C50533  11.389  12.598   5.315 -0.4779  0.4902 -0.3087
  375MOL0     C50534  11.514  12.677   5.353 -0.0190 -0.3394 -0.7917
  375MOL0    Cl50535  11.437  12.827   5.415 -0.3374 -0.4127 -0.6130
  375MOL0     C50536  11.676  11.750   5.152  0.0299  0.7844 -0.3805
  375MOL0     C50537  11.747  11.635   5.144 -0.3074  0.9472 -0.3584
  375MOL0     O50538  11.923  11.449   5.304  0.9935  0.0039  1.1595
  375MOL0     C50539  12.157  11.338   5.071  0.2101 -0.6772 -0.3252
  375MOL0     C50540  12.244  11.235   5.044 -0.0681 -0.2609 -0.8973
  375MOL0     N50541  12.664  10.571   5.151 -0.3517  0.3386 -0.5776
  375MOL0     N50542  12.603  10.473   5.207  0.5831  0.1117 -0.1337
  375MOL0     C50543  11.643  11.058   4.948 -0.2900  0.5157  0.6386
  375MOL0     C50544  11.533  11.132   4.911  0.7404 -0.0109  0.0988
  375MOL0     C50545  11.128  11.200   4.749  0.1917  0.6393 -0.7040
  375MOL0     C50546  11.045  11.274   4.834 -0.8673 -0.3646  0.2886
  375MOL0     C50547  10.948  11.359   4.787  0.4045  0.6346 -0.1830
  375MOL0     C50548  10.916  11.354   4.651  0.0967 -0.3860  0.2834
  375MOL0     O50549  10.804  11.429   4.624  0.4879  0.1700  0.2970
  375MOL0     C50550  10.757  11.425   4.488 -0.2990 -0.1140  0.4843
  375MOL0     C50551  10.615  11.482   4.464 -0.5727 -0.2418 -0.0133
  375MOL0     C50552  10.556  11.454   4.324  0.1454 -0.0718 -0.3937
  375MOL0     C50553  10.413  11.521   4.293 -0.5555  0.5853  0.0505
  375MOL0     C50554  10.373  11.498   4.156  0.4854  0.6577 -0.0793
  375MOL0     C50555  10.348  11.462   4.048  0.2632  0.5417 -0.0419
  375MOL0     C50556  10.996  11.270   4.563  0.3268 -0.1190 -0.1973
  375MOL0     C50557  11.103  11.195   4.614  0.3659 -0.1917 -0.1135
  375MOL0     H50558  11.281  10.983   5.070 -0.2874  2.5170 -0.7069
  375MOL0     H50559  11.467  10.819   5.133  0.9393  1.1915  1.9703
  375MOL0     H50560  11.835  10.789   4.886  0.1401  2.2118 -0.7887
  375MOL0     H50561  11.887  10.941   4.960 -2.0507  0.8092 -2.6470
  375MOL0     H50562  12.042  10.802   5.032 -0.0497  2.8073  0.5297
  375MOL0     H50563  11.927  10.799   5.167 -1.9969 -2.7550  0.4510
  375MOL0     H50564  11.856  10.598   5.134  2.2624 -1.4190 -0.0805
  375MOL0     H50565  11.890  10.581   4.959  1.9913  0.5996 -1.7042
  375MOL0     H50566  12.120  10.553   5.004  3.5112  5.2498  1.8951
  375MOL0     H50567  12.111  10.606   5.173 -0.7607 -1.7962  1.2799
  375MOL0     H50568  11.981  10.388   5.220 -1.0262 -3.3478  0.0221
  375MOL0     H50569  11.953  10.372   5.056 -2.4230 -1.6859  3.1351
  375MOL0     H50570  12.131  10.215   5.126  3.9766 -0.5920  2.3812
  375MOL0     H50571  12.192  10.332   5.018 -1.0384 -4.3059 -0.9642
  375MOL0     H50572  12.263  10.480   5.251  2.3952 -1.2496  0.7195
  375MOL0     H50573  12.255  10.318   5.317  3.1048 -3.1631 -0.5907
  375MOL0     H50574  12.390  10.270   5.080 -4.1500  0.6489 -0.4773
  375MOL0     H50575  12.439  10.253   5.243 -0.4129  1.1610  2.4629
  375MOL0     H50576  12.412  10.525   4.956  1.0222  0.2608 -1.0697
  375MOL0     H50577  12.761  10.693   4.931 -0.1604  0.0679  1.1637
  375MOL0     H50578  12.614  10.666   4.835 -1.9475 -3.5913  1.5296
  375MOL0     H50579  12.668  10.893   4.902  1.5683 -1.6313 -1.5295
  375MOL0     H50580  12.653  10.851   5.071 -0.7269 -0.3427  0.4047
  375MOL0     H50581  12.399  10.794   5.015  1.2473 -0.6883 -1.2906
  375MOL0     H50582  12.423  10.856   4.858  0.2678  1.2599  0.4041
  375MOL0     H50583  12.450  11.068   4.926 -3.7391 -2.3812 -1.9578
  375MOL0     H50584  12.503  11.036   5.098 -1.0680 -0.3685  0.8187
  375MOL0     H50585  12.095  10.986   5.211  1.0509 -0.0560  0.7702
  375MOL0     H50586  11.902  11.040   5.317  0.7190  0.5233 -0.0446
  375MOL0     H50587  11.902  11.208   5.387 -0.4104 -2.1083  1.4178
  375MOL0     H50588  11.811  11.182   5.249 -0.3517  2.5464  1.2521
  375MOL0     H50589  12.038  11.777   5.032 -1.5846  4.5538 -3.0435
  375MOL0     H50590  11.925  11.974   5.085  3.8499 -2.3315 -1.8771
  375MOL0     H50591  11.470  12.029   5.084 -0.7919  2.6550  0.2271
  375MOL0     H50592  11.490  11.920   5.222 -1.6177  0.9360  1.1877
  375MOL0     H50593  11.534  12.103   5.373  0.7661 -0.4259 -0.1194
  375MOL0     H50594  11.555  12.218   5.240  0.6122 -1.1377 -3.0601
  375MOL0     H50595  11.317  12.189   5.367  0.1133 -1.1789 -0.1228
  375MOL0     H50596  11.293  12.070   5.245 -0.3872  1.5058 -3.2251
  375MOL0     H50597  11.388  12.241   5.072  0.0928  1.0013 -0.0102
  375MOL0     H50598  11.217  12.223   5.098 -0.0249  0.1694 -1.4237
  375MOL0     H50599  11.209  12.388   5.292  2.3963  0.8059  1.2366
  375MOL0     H50600  11.241  12.452   5.133  1.0342 -0.1434 -1.0962
  375MOL0     H50601  11.442  12.392   5.364  0.6393 -2.7119 -2.1843
  375MOL0     H50602  11.494  12.453   5.200  0.2567  1.0509 -0.6779
  375MOL0     H50603  11.316  12.588   5.396  0.8310 -1.7210  0.6888
  375MOL0     H50604  11.336  12.648   5.233  0.0725  1.1515 -0.2626
  375MOL0     H50605  11.581  12.702   5.270 -1.2872  1.1486 -1.4273
  375MOL0     H50606  11.571  12.640   5.439  2.8186  0.9235 -2.0080
  375MOL0     H50607  11.579  11.735   5.197  0.8845  0.3932  1.4064
  375MOL0     H50608  11.701  11.543   5.179 -3.7224  1.3122 -3.3100
  375MOL0     H50609  12.175  11.438   5.034  0.7496  0.5063  2.8613
  375MOL0     H50610  12.310  11.266   4.963 -1.2297 -0.6545 -2.0228
  375MOL0     H50611  11.743  11.080   4.912 -0.2422 -0.4327  0.1547
  375MOL0     H50612  11.536  11.196   4.823 -1.1448 -1.1417 -0.8535
  375MOL0     H50613  11.057  11.269   4.942 -1.2376 -1.4349  0.2967
  375MOL0     H50614  10.893  11.429   4.850 -2.3544 -3.0645  1.9136
  375MOL0     H50615  10.813  11.482   4.414  0.2222 -2.3377 -0.9522
  375MOL0     H50616  10.748  11.319   4.459 -1.0498  0.7955 -3.0943
  375MOL0     H50617  10.634  11.590   4.468  0.2819 -0.1226 -3.7622
  375MOL0     H50618  10.540  11.461   4.541  0.7904 -0.7085  1.2470
  375MOL0     H50619  10.556  11.346   4.312 -0.1388  0.0643 -1.7182
  375MOL0     H50620  10.631  11.499   4.258  0.2814 -0.4104 -0.4694
  375MOL0     H50621  10.417  11.628   4.316 -1.2894  1.2376 -2.5438
  375MOL0     H50622  10.336  11.469   4.350  1.7284  1.2934  4.2173
  375MOL0     H50623  10.327  11.410   3.957 -0.6403  3.4047 -1.6105
  375MOL0     H50624  10.983  11.276   4.456  3.0554 -2.0047 -0.7391
  375MOL0     H50625  11.167  11.140   4.545  0.4466  1.5427 -1.4911
  376MOL0     O50626   8.864   6.752   5.234 -0.5942  0.5243  1.2570
  376MOL0     C50627   8.795   6.849   5.227  0.2804  0.0918  0.4984
  376MOL0     O50628   8.839   6.976   5.209 -0.3166  0.1485  0.2921
  376MOL0     C50629   8.966   7.025   5.229 -0.5242  0.3404  1.1608
  376MOL0     C50630   8.968   7.161   5.244  0.6118 -0.1868 -0.6612
  376MOL0     C50631   9.089   7.234   5.275 -0.0554 -0.0819  0.4194
  376MOL0     C50632   9.209   7.168   5.283 -0.0659  0.6916  0.1154
  376MOL0     O50633   9.319   7.251   5.297  0.1102  1.0869  0.0579
  376MOL0     C50634   9.453   7.200   5.297 -0.0064  0.7069 -0.3824
  376MOL0     C50635   9.571   7.295   5.266 -0.1831  0.4024 -0.3284
  376MOL0     C50636   9.696   7.255   5.346  0.2827 -0.6480  0.8228
  376MOL0     C50637   9.826   7.299   5.281  0.6684  0.8334 -0.2981
  376MOL0     C50638   9.946   7.224   5.343  0.7036 -1.0318  0.2057
  376MOL0     C50639  10.083   7.292   5.328  0.3723  0.1687  0.4177
  376MOL0     C50640  10.110   7.350   5.196 -0.7972  0.2495  0.5326
  376MOL0     C50641  10.120   7.239   5.088 -0.2904 -0.3819  0.2995
  376MOL0     N50642  10.246   7.174   5.095  0.2565 -0.2574  0.4122
  376MOL0     C50643  10.370   7.222   5.079 -0.2386  0.8855  0.0324
  376MOL0     C50644  10.448   7.125   5.141  0.8166 -1.1981 -0.1193
  376MOL0     C50645  10.589   7.144   5.163 -0.4739 -0.1423  0.1447
  376MOL0     C50646  10.653   7.188   5.036 -1.1045  0.1710  0.8502
  376MOL0     C50647  10.617   7.116   4.905  0.5048 -1.6402  0.0371
  376MOL0     C50648  10.719   7.136   4.796  0.4732 -1.1452 -0.2268
  376MOL0     O50649  10.657   7.082   4.678  0.4038  1.3441  0.6852
  376MOL0     C50650  10.732   7.081   4.560  0.3596 -0.7430 -0.0609
  376MOL0     C50651  10.827   7.174   4.521 -0.4026 -0.7396  0.7073
  376MOL0     C50652  10.885   7.175   4.400 -0.9982 -0.1543  0.4603
  376MOL0     C50653  11.004   7.281   4.391  0.6184 -0.3248 -0.1327
  376MOL0     C50654  10.856   7.069   4.314  0.2699  0.6615  0.0848
  376MOL0     C50655  10.923   7.046   4.187  0.3698  0.4954  0.3545
  376MOL0     O50656  10.856   6.958   4.112  0.6106 -0.2866  0.3315
  376MOL0     C50657  10.913   6.920   3.993 -0.7988  0.0469  0.0436
  376MOL0     C50658  10.877   6.984   3.869 -0.0881  0.1281  0.4289
  376MOL0     C50659  10.927   6.938   3.749 -0.0449  0.6471 -0.2248
  376MOL0     C50660  11.008   6.823   3.741  0.4619 -0.1069 -1.5820
  376MOL0     O50661  11.057   6.770   3.625  0.0641 -0.0450  0.5458
  376MOL0     C50662  11.095   6.869   3.528 -0.5065  0.1175 -0.6860
  376MOL0     C50663  11.207   6.976   3.575 -0.4406  0.2959  0.0592
  376MOL0     C50664  11.190   7.118   3.524  0.7011 -0.2252  0.4269
  376MOL0     C50665  11.174   7.232   3.626 -0.9680 -0.9155 -0.2530
  376MOL0     C50666  11.094   7.343   3.565 -0.8002  0.4908 -0.4791
  376MOL0     C50667  11.122   7.475   3.629 -0.1961  0.5893  1.4062
  376MOL0     C50668  11.031   7.576   3.570 -0.1355 -0.7782 -0.1321
  376MOL0     C50669  11.075   7.717   3.631 -0.0509 -0.2917 -0.1720
  376MOL0    Cl50670  11.229   7.757   3.553 -0.0632  0.2569 -0.2377
  376MOL0     C50671  11.045   6.766   3.871  0.4912  0.5813  0.3015
  376MOL0     C50672  11.000   6.810   3.997  0.3570 -0.3160 -0.1518
  376MOL0     O50673  11.018   7.115   4.153 -0.1325  0.5314 -0.7734
  376MOL0     C50674  10.754   6.977   4.353 -0.6449  0.0453  0.6779
  376MOL0     C50675  10.689   6.979   4.474 -0.0988  0.0400 -0.3430
  376MOL0     N50676  10.368   7.022   5.178 -0.3457 -0.6326 -0.1850
  376MOL0     N50677  10.255   7.045   5.138 -0.0742 -0.2794 -0.3073
  376MOL0     C50678   9.205   7.024   5.262 -0.2091  0.1270  0.1834
  376MOL0     C50679   9.086   6.954   5.240  1.1029  0.6564  0.0636
  376MOL0     C50680   8.650   6.816   5.247  0.1011 -0.6741  1.1473
  376MOL0     C50681   8.566   6.906   5.296  0.4644 -0.4905 -0.3152
  376MOL0     C50682   8.423   6.886   5.308 -0.5467  0.6570 -0.3358
  376MOL0     C50683   8.366   6.767   5.256  0.0255 -0.4414  0.2067
  376MOL0     O50684   8.231   6.749   5.242 -0.1537  0.7253 -0.6382
  376MOL0     C50685   8.144   6.868   5.234 -0.0871 -0.0642 -0.4933
  376MOL0     C50686   8.020   6.827   5.160 -0.0169  0.5737  0.1264
  376MOL0     C50687   8.032   6.722   5.051  0.3586  0.1522  0.2187
  376MOL0     C50688   8.139   6.738   4.941  0.2962 -0.3447  0.7466
  376MOL0     C50689   8.128   6.866   4.881  0.1505  0.1272 -0.6160
  376MOL0     C50690   8.136   6.980   4.830  0.7453  0.1727 -0.2502
  376MOL0     C50691   8.453   6.668   5.208 -0.1384 -0.3010  1.1027
  376MOL0     C50692   8.593   6.694   5.210 -0.5015  0.2284  0.1921
  376MOL0     H50693   8.877   7.220   5.241  0.4472  0.1463  3.6794
  376MOL0     H50694   9.092   7.342   5.281 -1.9975  0.3197 -3.0061
  376MOL0     H50695   9.463   7.159   5.398 -0.6176  1.5917  0.0507
  376MOL0     H50696   9.466   7.111   5.235 -0.3268 -0.5300  1.2371
  376MOL0     H50697   9.589   7.314   5.160 -1.2662 -1.0164 -0.7931
  376MOL0     H50698   9.550   7.394   5.308 -1.7560 -0.2733  0.5571
  376MOL0     H50699   9.705   7.294   5.448 -1.3036  0.7835  0.4445
  376MOL0     H50700   9.690   7.145   5.349  0.0800 -0.6231  2.1077
  376MOL0     H50701   9.827   7.289   5.172 -0.0754 -1.7545 -0.1335
  376MOL0     H50702   9.842   7.406   5.300  0.5780  0.4595  2.2157
  376MOL0     H50703   9.921   7.211   5.448  3.0384 -1.8074  0.7398
  376MOL0     H50704   9.943   7.120   5.308 -1.4159 -1.1957  0.7402
  376MOL0     H50705  10.094   7.378   5.393 -0.1595 -0.3719  1.2384
  376MOL0     H50706  10.162   7.223   5.361  0.9165  0.3516 -0.4578
  376MOL0     H50707  10.036   7.425   5.168 -0.7526  0.0564 -0.1209
  376MOL0     H50708  10.206   7.402   5.205 -1.2007  1.1951 -0.4610
  376MOL0     H50709  10.122   7.278   4.986 -2.2306 -1.2309 -0.1071
  376MOL0     H50710  10.034   7.172   5.100  0.3928 -0.7919  4.3197
  376MOL0     H50711  10.402   7.316   5.033  0.3636  1.2174  1.0878
  376MOL0     H50712  10.618   7.216   5.240 -0.4016 -0.5148  0.4718
  376MOL0     H50713  10.622   7.044   5.194  1.7127  0.4808 -0.0755
  376MOL0     H50714  10.761   7.189   5.054 -1.0057 -1.9448  0.5991
  376MOL0     H50715  10.623   7.290   5.010 -1.7302 -0.4244 -0.9526
  376MOL0     H50716  10.519   7.154   4.876  0.0933 -1.1110  2.0042
  376MOL0     H50717  10.602   7.009   4.919 -0.4814 -1.5455 -0.2066
  376MOL0     H50718  10.815   7.089   4.818 -0.0577 -1.9417  0.4782
  376MOL0     H50719  10.741   7.242   4.783  0.8563 -1.4902 -2.9076
  376MOL0     H50720  10.849   7.256   4.588 -0.6148 -0.1756  0.1005
  376MOL0     H50721  11.106   7.240   4.394  1.0892  0.6815 -1.3235
  376MOL0     H50722  10.994   7.351   4.307  0.0288  1.2928  1.2489
  376MOL0     H50723  11.005   7.346   4.478  0.9555  1.2856 -1.2856
  376MOL0     H50724  10.820   7.076   3.868  1.9069  1.4520  2.0357
  376MOL0     H50725  10.899   6.986   3.656 -0.0759 -0.8325 -1.0058
  376MOL0     H50726  11.134   6.816   3.441 -1.0623  0.1113 -0.9388
  376MOL0     H50727  11.009   6.915   3.479 -1.2747  0.8484  1.2300
  376MOL0     H50728  11.221   6.978   3.683  0.0502  0.4493 -0.0052
  376MOL0     H50729  11.306   6.944   3.542 -0.1952 -0.6284  1.6015
  376MOL0     H50730  11.100   7.127   3.463  1.6188  3.7175 -0.5951
  376MOL0     H50731  11.270   7.144   3.454 -0.1869  1.3374 -0.0492
  376MOL0     H50732  11.128   7.204   3.721  0.3544 -1.7771  0.1690
  376MOL0     H50733  11.275   7.267   3.650 -0.7694 -2.8172  2.0570
  376MOL0     H50734  10.988   7.320   3.580  0.0034 -1.7241  3.3300
  376MOL0     H50735  11.133   7.362   3.465 -1.6607  1.4013 -0.6557
  376MOL0     H50736  11.100   7.467   3.735 -0.0206 -0.3036  1.3869
  376MOL0     H50737  11.228   7.496   3.615 -0.1745 -1.0122 -1.6864
  376MOL0     H50738  10.926   7.561   3.597 -0.0447 -0.0991  0.6710
  376MOL0     H50739  11.036   7.581   3.461 -2.7693 -0.2246 -0.3060
  376MOL0     H50740  11.089   7.704   3.738 -1.2544  3.1812  0.5227
  376MOL0     H50741  11.004   7.798   3.613 -1.9354 -1.9969 -0.7697
  376MOL0     H50742  11.121   6.688   3.870  2.5648  2.4905 -1.2457
  376MOL0     H50743  11.025   6.761   4.090 -0.5621 -1.1593 -0.3350
  376MOL0     H50744  10.740   6.893   4.285  0.9574  0.4590 -0.2132
  376MOL0     H50745  10.613   6.908   4.503  0.7903 -0.9377 -0.3649
  376MOL0     H50746   9.303   6.978   5.272  0.0818  0.8737  0.9406
  376MOL0     H50747   9.086   6.846   5.228 -3.8708  0.5415 -1.0787
  376MOL0     H50748   8.613   6.999   5.328  4.1615 -2.4997  0.7173
  376MOL0     H50749   8.371   6.979   5.327 -1.4287 -0.0581  0.8198
  376MOL0     H50750   8.109   6.909   5.330 -2.8824 -0.7539 -1.1382
  376MOL0     H50751   8.202   6.937   5.173  1.4033  1.1038  2.0753
  376MOL0     H50752   7.962   6.909   5.117  0.4207  0.1974 -1.2302
  376MOL0     H50753   7.949   6.775   5.225  0.8796 -1.6587 -0.6006
  376MOL0     H50754   7.935   6.721   4.999  1.5223 -2.3835 -2.1704
  376MOL0     H50755   8.041   6.622   5.095 -0.2326 -0.4281 -0.9041
  376MOL0     H50756   8.130   6.659   4.865 -1.0192 -0.0255  0.5385
  376MOL0     H50757   8.235   6.718   4.990 -0.4472 -1.8030  1.7158
  376MOL0     H50758   8.136   7.071   4.774  0.6389  1.9434  2.4862
  376MOL0     H50759   8.393   6.581   5.182 -3.3174  2.4276 -1.4804
  376MOL0     H50760   8.663   6.616   5.183  1.9320  0.9592  3.6627
  377MOL0     O50761   4.113   1.618   8.948  0.2409  0.3397  0.2384
  377MOL0     C50762   4.107   1.518   8.877 -0.0730 -1.1239  0.9704
  377MOL0     O50763   4.020   1.510   8.772  0.1110  0.0704 -0.2811
  377MOL0     C50764   3.916   1.601   8.763  0.1768  0.3582  0.3828
  377MOL0     C50765   3.840   1.630   8.877 -1.0112  0.1578 -0.3912
  377MOL0     C50766   3.730   1.712   8.868  0.2587 -0.6553 -0.0664
  377MOL0     C50767   3.711   1.799   8.759 -0.0642 -0.6663 -0.9247
  377MOL0     O50768   3.625   1.906   8.754  0.8247 -0.4426  0.3812
  377MOL0     C50769   3.553   1.951   8.875 -0.0575 -0.2454 -0.7995
  377MOL0     C50770   3.484   2.086   8.854 -0.1315 -0.2421 -0.7038
  377MOL0     C50771   3.485   2.182   8.979  0.3256 -0.2690  0.5992
  377MOL0     C50772   3.415   2.125   9.102  0.0265  0.4398  0.7726
  377MOL0     C50773   3.270   2.110   9.077  0.0109  0.9560  1.3425
  377MOL0     C50774   3.188   2.092   9.211  0.1553  0.3671 -0.0232
  377MOL0     C50775   3.174   2.221   9.292  0.1236 -0.1977  0.3272
  377MOL0     C50776   3.041   2.233   9.362  0.4414  0.2459 -0.8648
  377MOL0     N50777   3.022   2.350   9.444  0.9970 -0.3843  0.3840
  377MOL0     C50778   2.923   2.438   9.435  0.0042 -0.6238 -0.1515
  377MOL0     C50779   2.936   2.521   9.541 -0.0170 -0.8922  0.0885
  377MOL0     C50780   2.844   2.644   9.552 -0.0839  0.3637  0.6922
  377MOL0     C50781   2.840   2.705   9.693  0.0540 -0.5618  0.3776
  377MOL0     C50782   2.948   2.822   9.700 -0.0518 -0.1505  0.1344
  377MOL0     C50783   2.949   2.881   9.841  0.1146  0.2847  0.2656
  377MOL0     O50784   2.968   2.790   9.945 -0.1555 -1.1112 -0.2072
  377MOL0     C50785   3.098   2.733   9.954  0.0878  0.2644  0.2758
  377MOL0     C50786   3.213   2.774   9.877 -0.4957  0.3891  0.3013
  377MOL0     C50787   3.338   2.703   9.887  1.2065  0.1856  1.4417
  377MOL0     C50788   3.455   2.766   9.812 -0.0640  0.7060 -0.7779
  377MOL0     C50789   3.337   2.587   9.967  0.4518 -0.0020  0.1154
  377MOL0     C50790   3.451   2.489   9.972 -0.3305  0.0790 -0.4273
  377MOL0     O50791   3.510   2.435   9.856 -0.2418 -0.2911  0.4819
  377MOL0     C50792   3.625   2.363   9.869 -0.0924  0.1892 -0.1314
  377MOL0     C50793   3.634   2.238   9.935  0.1663  0.8892 -0.4376
  377MOL0     C50794   3.756   2.163   9.930  0.6494  0.5935  0.4319
  377MOL0     C50795   3.861   2.218   9.866 -0.2270 -0.5398  0.8914
  377MOL0     O50796   3.978   2.157   9.873  0.4265  0.1174  0.3323
  377MOL0     C50797   3.979   2.021   9.841  0.2399 -0.3758 -0.8654
  377MOL0     C50798   4.113   1.967   9.789  0.1720  0.1954 -0.4129
  377MOL0     C50799   4.102   1.824   9.740  0.0706  0.8683  0.2273
  377MOL0     C50800   4.216   1.796   9.644 -0.1454  0.1373  0.5804
  377MOL0     C50801   4.230   1.646   9.588  0.4954 -0.0222 -0.6482
  377MOL0     C50802   4.365   1.628   9.513  0.4559 -0.0153 -0.9009
  377MOL0     C50803   4.388   1.480   9.476  1.0143 -0.1912  0.8440
  377MOL0     C50804   4.520   1.459   9.416 -0.4144 -0.9638 -0.1380
  377MOL0    Cl50805   4.529   1.286   9.368 -0.5479 -0.2465  0.1134
  377MOL0     C50806   3.859   2.340   9.801 -0.2283 -0.8024 -0.6498
  377MOL0     C50807   3.733   2.418   9.803  0.0348  1.3833  0.0029
  377MOL0     O50808   3.481   2.451  10.087  0.1613  0.3141 -0.3115
  377MOL0     C50809   3.226   2.552  10.046 -0.0381  0.2261  0.6928
  377MOL0     C50810   3.109   2.624  10.040  0.0890 -0.3603 -0.0941
  377MOL0     N50811   3.038   2.469   9.620  0.5281 -0.2336 -0.2875
  377MOL0     N50812   3.087   2.373   9.561 -0.5161 -0.2759 -0.8073
  377MOL0     C50813   3.786   1.772   8.642  0.3616  0.1077  0.3686
  377MOL0     C50814   3.894   1.670   8.643 -0.4064 -0.8250  0.1215
  377MOL0     C50815   4.189   1.399   8.913  0.2411 -0.3693 -0.0849
  377MOL0     C50816   4.188   1.284   8.831 -0.7709 -0.1480  0.0908
  377MOL0     C50817   4.256   1.171   8.875  0.4424  0.2078  1.0800
  377MOL0     C50818   4.327   1.160   8.996 -0.4680  0.7773  0.2336
  377MOL0     O50819   4.380   1.044   9.055 -0.3160 -0.5861 -0.3919
  377MOL0     C50820   4.356   0.920   8.989 -0.2478 -0.4361  0.8013
  377MOL0     C50821   4.423   0.807   9.067  0.0777  0.5039  0.5996
  377MOL0     C50822   4.384   0.661   9.014 -0.4628 -0.7599  0.0863
  377MOL0     C50823   4.254   0.607   9.069  0.2692 -0.1346  0.0593
  377MOL0     C50824   4.227   0.615   9.217  0.4137 -0.6127  0.4033
  377MOL0     C50825   4.200   0.634   9.335  0.5111  0.1490  0.1898
  377MOL0     C50826   4.326   1.279   9.078 -0.0437  1.0003  0.2433
  377MOL0     C50827   4.263   1.398   9.038 -0.0016 -0.3391 -0.3819
  377MOL0     H50828   3.856   1.592   8.977 -2.0832  3.0065  0.9871
  377MOL0     H50829   3.663   1.731   8.951 -1.3992  1.1194 -1.7275
  377MOL0     H50830   3.473   1.883   8.906 -2.1566  0.4515 -4.2127
  377MOL0     H50831   3.629   1.972   8.951 -1.4047  2.6357 -0.1526
  377MOL0     H50832   3.540   2.146   8.782  2.4152 -1.0599  0.4659
  377MOL0     H50833   3.382   2.070   8.819 -0.4271  2.3779 -1.1992
  377MOL0     H50834   3.591   2.182   9.006 -0.1331  2.0008  2.8283
  377MOL0     H50835   3.455   2.287   8.967 -2.2422 -0.3666  4.3532
  377MOL0     H50836   3.463   2.038   9.147  4.5864  1.1226 -2.0758
  377MOL0     H50837   3.426   2.212   9.168 -0.5928  1.4191 -0.3664
  377MOL0     H50838   3.233   2.200   9.027 -1.7505 -0.6619 -0.4765
  377MOL0     H50839   3.248   2.024   9.012  2.7263  2.0749 -1.2390
  377MOL0     H50840   3.084   2.063   9.194 -0.2532  0.0231  2.6853
  377MOL0     H50841   3.224   2.003   9.263 -1.5529 -3.1052 -4.1591
  377MOL0     H50842   3.248   2.210   9.371 -0.5595  0.9557  1.1553
  377MOL0     H50843   3.177   2.321   9.248 -0.8959  1.0323  2.8502
  377MOL0     H50844   3.026   2.146   9.426 -1.8799 -0.4231 -2.2225
  377MOL0     H50845   2.959   2.220   9.291 -1.1354 -4.2056  1.3788
  377MOL0     H50846   2.850   2.425   9.356 -0.3171 -0.7072  0.1542
  377MOL0     H50847   2.869   2.716   9.474 -1.9679 -0.2855 -0.5992
  377MOL0     H50848   2.753   2.592   9.520 -0.4128  2.1851 -1.5270
  377MOL0     H50849   2.860   2.622   9.761  4.8781  1.2726  1.6621
  377MOL0     H50850   2.738   2.744   9.705  0.1163  0.4266 -1.8177
  377MOL0     H50851   2.942   2.896   9.619 -4.8658 -2.1459 -1.6916
  377MOL0     H50852   3.045   2.777   9.678  0.1684 -1.1242  2.7635
  377MOL0     H50853   2.848   2.920   9.853 -0.3451 -1.0401  0.8960
  377MOL0     H50854   3.008   2.973   9.846 -0.4364  0.5802  1.7769
  377MOL0     H50855   3.216   2.860   9.811  6.2194 -0.5499 -1.3285
  377MOL0     H50856   3.532   2.767   9.889 -1.0727  0.1028  0.2683
  377MOL0     H50857   3.479   2.703   9.726 -1.8508  0.2750 -0.9965
  377MOL0     H50858   3.434   2.872   9.795  1.3420  1.2614  0.6735
  377MOL0     H50859   3.552   2.195   9.991  0.7229 -3.9167 -2.8437
  377MOL0     H50860   3.775   2.077   9.995 -2.2622 -1.5390 -1.2728
  377MOL0     H50861   3.963   1.968   9.935 -3.1117 -0.7473 -1.5196
  377MOL0     H50862   3.889   1.993   9.785 -2.5227 -1.7054  3.7087
  377MOL0     H50863   4.135   2.018   9.695 -1.9529  2.0418 -0.0030
  377MOL0     H50864   4.192   1.983   9.863 -0.5932  0.3234  0.3906
  377MOL0     H50865   4.012   1.818   9.678 -1.8718  0.6624  2.8932
  377MOL0     H50866   4.095   1.745   9.815  0.8743 -1.1153 -1.6707
  377MOL0     H50867   4.200   1.856   9.555  1.6508 -1.3066 -0.7993
  377MOL0     H50868   4.305   1.833   9.696 -1.2915  1.8440  1.4290
  377MOL0     H50869   4.141   1.619   9.529  1.1023 -2.4502 -0.5437
  377MOL0     H50870   4.212   1.582   9.674 -0.7978 -0.7902 -1.4498
  377MOL0     H50871   4.370   1.694   9.425  4.5409  1.6358  0.3407
  377MOL0     H50872   4.445   1.654   9.583  0.2962  0.2472 -0.8137
  377MOL0     H50873   4.307   1.461   9.404  1.2538 -0.7418  0.7164
  377MOL0     H50874   4.375   1.405   9.554 -0.4531 -2.3409 -1.3127
  377MOL0     H50875   4.601   1.472   9.488 -2.1162 -1.9607  2.0393
  377MOL0     H50876   4.537   1.524   9.329 -0.9522 -0.1727  0.3399
  377MOL0     H50877   3.952   2.374   9.756 -0.4460 -0.0497 -0.5529
  377MOL0     H50878   3.725   2.511   9.748  0.9049  1.1313 -0.5716
  377MOL0     H50879   3.237   2.465  10.110  1.7546  1.0495  1.5985
  377MOL0     H50880   3.026   2.594  10.103  3.9430 -5.8428  3.3363
  377MOL0     H50881   3.762   1.835   8.557 -0.2389 -1.3726 -0.5950
  377MOL0     H50882   3.963   1.650   8.561 -4.2586 -0.4534 -3.5337
  377MOL0     H50883   4.147   1.293   8.731 -0.6438 -0.8881 -0.0329
  377MOL0     H50884   4.256   1.083   8.811  0.7486  1.9075 -1.4336
  377MOL0     H50885   4.248   0.907   8.976  0.1308 -0.8567 -3.5810
  377MOL0     H50886   4.398   0.931   8.889 -0.6027  1.4087  0.8194
  377MOL0     H50887   4.393   0.824   9.171 -1.5109  1.5320  0.0100
  377MOL0     H50888   4.532   0.819   9.069  0.1079  0.2367  0.6792
  377MOL0     H50889   4.457   0.583   9.038  0.5738 -0.2993 -1.4008
  377MOL0     H50890   4.370   0.668   8.906 -1.7478  1.5212  0.3481
  377MOL0     H50891   4.261   0.509   9.021  2.1609  0.4484 -0.9677
  377MOL0     H50892   4.167   0.654   9.022 -1.9506 -1.7227  2.3132
  377MOL0     H50893   4.151   0.642   9.430 -3.9498 -2.9843 -1.5036
  377MOL0     H50894   4.369   1.267   9.177 -2.4183 -1.7651  1.0513
  377MOL0     H50895   4.263   1.480   9.109 -2.1578  0.6948 -1.4672
  378MOL0     O50896   8.186   5.199   8.557  0.3742  0.7572  0.1286
  378MOL0     C50897   8.105   5.139   8.630 -0.5082 -0.7329 -0.0224
  378MOL0     O50898   7.983   5.094   8.584  0.6454  0.0110 -0.4525
  378MOL0     C50899   7.937   5.100   8.458  0.5783  0.2393  0.1396
  378MOL0     C50900   7.997   5.135   8.341  0.4196  0.4240  0.9066
  378MOL0     C50901   7.925   5.109   8.217 -0.5280  1.0246  0.2433
  378MOL0     C50902   7.794   5.044   8.220  0.2551 -0.5195 -0.0932
  378MOL0     O50903   7.729   5.034   8.098  0.2601 -0.7418 -0.0657
  378MOL0     C50904   7.591   4.990   8.106  0.6156  0.0565 -0.1800
  378MOL0     C50905   7.539   4.986   7.959  0.3358  0.3536  0.3348
  378MOL0     C50906   7.553   5.131   7.915  0.7512  0.6445 -0.0472
  378MOL0     C50907   7.473   5.154   7.784 -0.6737 -0.6938  0.3036
  378MOL0     C50908   7.439   5.300   7.759 -0.6702  0.0727 -0.5524
  378MOL0     C50909   7.320   5.323   7.658 -0.8124 -0.1301 -0.2307
  378MOL0     C50910   7.348   5.264   7.520  0.3921  0.5884 -0.6719
  378MOL0     C50911   7.228   5.273   7.416  0.0075  0.1883  1.3886
  378MOL0     N50912   7.219   5.413   7.365 -0.0357  1.2744 -0.2316
  378MOL0     C50913   7.295   5.466   7.261 -0.7425  0.3030 -0.9756
  378MOL0     C50914   7.237   5.588   7.238 -0.4477 -0.0154 -0.4968
  378MOL0     C50915   7.296   5.685   7.135 -0.1256  0.6500 -0.0922
  378MOL0     C50916   7.275   5.826   7.175 -0.3775 -0.3827  0.5708
  378MOL0     C50917   7.124   5.858   7.159  0.5261 -0.1151 -0.0275
  378MOL0     C50918   7.094   6.015   7.146  0.2803  0.7309 -0.0252
  378MOL0     O50919   7.152   6.057   7.021 -0.5762 -0.1301 -0.2358
  378MOL0     C50920   7.120   6.188   6.982 -0.2136 -0.5537 -0.1874
  378MOL0     C50921   7.073   6.291   7.061  0.3708  0.8707 -0.2846
  378MOL0     C50922   7.041   6.417   7.013  0.2164  0.4384 -0.8087
  378MOL0     C50923   6.975   6.520   7.113 -0.3345  0.3749 -0.9493
  378MOL0     C50924   7.065   6.441   6.878  0.3210 -0.0304 -0.0144
  378MOL0     C50925   7.014   6.558   6.801  0.4506 -0.8683  0.6003
  378MOL0     O50926   7.010   6.537   6.659  0.7110 -0.2976 -0.1828
  378MOL0     C50927   6.960   6.642   6.585 -0.0459  0.1602 -0.5955
  378MOL0     C50928   7.049   6.688   6.497  0.3258  0.0252 -0.3093
  378MOL0     C50929   7.020   6.785   6.409  0.0500 -0.6588  0.4391
  378MOL0     C50930   6.895   6.846   6.406 -0.2961 -0.5639 -0.7458
  378MOL0     O50931   6.876   6.934   6.297 -0.0894 -0.6703 -0.4203
  378MOL0     C50932   6.747   6.974   6.264  0.3425 -0.7388 -0.4500
  378MOL0     C50933   6.668   6.862   6.199 -0.7798 -0.0258 -0.5541
  378MOL0     C50934   6.719   6.807   6.061  1.1161 -0.4266 -0.5052
  378MOL0     C50935   6.629   6.698   6.019  0.3415  1.1035  0.7980
  378MOL0     C50936   6.688   6.645   5.887  0.4023 -0.7585 -0.2148
  378MOL0     C50937   6.720   6.744   5.775  0.4571  0.3345  0.2730
  378MOL0     C50938   6.731   6.677   5.633  0.5712 -0.1712 -0.3983
  378MOL0     C50939   6.717   6.796   5.528  0.0864  0.4474 -0.4104
  378MOL0    Cl50940   6.820   6.753   5.381  0.1339  0.3556  0.0869
  378MOL0     C50941   6.805   6.801   6.496 -0.1489  0.4670 -0.1568
  378MOL0     C50942   6.826   6.695   6.585 -0.7954 -0.0213  1.1550
  378MOL0     O50943   6.969   6.659   6.864 -0.7471  0.1720 -0.1633
  378MOL0     C50944   7.123   6.340   6.799  0.5479  0.5198  0.2253
  378MOL0     C50945   7.153   6.218   6.853  0.1585  0.6092  0.2299
  378MOL0     N50946   7.139   5.611   7.334 -0.1629  0.1547 -0.6777
  378MOL0     N50947   7.121   5.504   7.408  0.1581 -0.2035  0.6840
  378MOL0     C50948   7.742   4.994   8.335  0.9899 -0.6135 -0.5691
  378MOL0     C50949   7.819   5.022   8.451  0.1784 -0.3436  0.4180
  378MOL0     C50950   8.159   5.113   8.766  0.8334  0.3253  0.2608
  378MOL0     C50951   8.290   5.133   8.804  0.4461 -0.6270  0.7697
  378MOL0     C50952   8.332   5.102   8.934 -0.4863  0.2758  0.2121
  378MOL0     C50953   8.243   5.044   9.022  0.4335 -0.5758 -0.3498
  378MOL0     O50954   8.284   5.004   9.147 -0.5318  0.3591 -0.0465
  378MOL0     C50955   8.424   4.973   9.178  0.4757  1.1349 -0.0776
  378MOL0     C50956   8.437   4.891   9.309 -0.8242 -0.7747 -0.0621
  378MOL0     C50957   8.313   4.798   9.333  0.1002 -1.0306 -0.4899
  378MOL0     C50958   8.329   4.672   9.241 -0.5714  1.1488 -0.2116
  378MOL0     C50959   8.193   4.638   9.203 -0.1465  0.1467  0.3374
  378MOL0     C50960   8.085   4.590   9.180 -0.1993 -0.2179 -0.5767
  378MOL0     C50961   8.107   5.018   8.986 -0.7510 -0.3074  0.3125
  378MOL0     C50962   8.064   5.056   8.859 -0.1116 -0.6598  0.5359
  378MOL0     H50963   8.096   5.177   8.328  0.8874 -0.7150  0.6740
  378MOL0     H50964   7.967   5.135   8.121  1.2928  0.5438  0.8520
  378MOL0     H50965   7.581   4.890   8.148  1.3910 -1.0757 -2.5002
  378MOL0     H50966   7.521   5.054   8.161  0.1159  0.7122 -1.5394
  378MOL0     H50967   7.596   4.911   7.903  1.6259  0.4227  1.5103
  378MOL0     H50968   7.434   4.956   7.954  0.5612 -0.6806  1.4220
  378MOL0     H50969   7.511   5.203   7.986  2.2939  1.0685  0.4592
  378MOL0     H50970   7.658   5.151   7.891  0.7795  1.6196  0.8166
  378MOL0     H50971   7.533   5.120   7.699  0.1384 -2.0626  1.3764
  378MOL0     H50972   7.379   5.099   7.789 -0.8955 -0.2317  2.3293
  378MOL0     H50973   7.431   5.373   7.840  0.3430 -0.2654 -0.1300
  378MOL0     H50974   7.529   5.327   7.702  0.8107 -0.9024  1.2537
  378MOL0     H50975   7.227   5.289   7.705 -2.1527  1.9593 -1.2201
  378MOL0     H50976   7.309   5.431   7.650  0.5588 -0.0533 -1.3183
  378MOL0     H50977   7.445   5.299   7.483  1.1140  0.4361  0.9456
  378MOL0     H50978   7.353   5.155   7.533 -2.2800  0.6288  1.7729
  378MOL0     H50979   7.137   5.246   7.471 -1.0249 -1.0407 -0.8019
  378MOL0     H50980   7.239   5.205   7.331 -2.6934  1.4865 -0.1408
  378MOL0     H50981   7.375   5.420   7.205 -1.4058 -1.0698 -0.8345
  378MOL0     H50982   7.406   5.680   7.135 -0.1033  1.0614 -0.5898
  378MOL0     H50983   7.256   5.651   7.039  2.8884  1.2948 -1.7355
  378MOL0     H50984   7.331   5.885   7.103 -1.8295 -0.2818 -0.5380
  378MOL0     H50985   7.313   5.857   7.273  0.6161  0.4230 -0.0557
  378MOL0     H50986   7.069   5.833   7.250 -0.7944 -1.2056 -1.0642
  378MOL0     H50987   7.082   5.805   7.073  1.2077 -1.7960  0.6222
  378MOL0     H50988   7.133   6.061   7.238 -0.2326 -1.6791  1.4859
  378MOL0     H50989   6.986   6.031   7.148  0.4858  2.2451  0.7078
  378MOL0     H50990   7.080   6.274   7.168  2.0018  1.7263 -0.2223
  378MOL0     H50991   6.871   6.546   7.090  0.1057  2.8535 -0.5048
  378MOL0     H50992   6.969   6.483   7.216  0.0168  4.0138  0.5469
  378MOL0     H50993   7.031   6.614   7.123 -0.9188  0.6864 -0.4976
  378MOL0     H50994   7.150   6.647   6.501 -0.3751 -2.0116 -1.6533
  378MOL0     H50995   7.096   6.819   6.339 -1.6394  2.4866 -0.0496
  378MOL0     H50996   6.699   7.009   6.356  2.8408  2.0573 -0.0388
  378MOL0     H50997   6.757   7.059   6.196  0.2210 -0.3577  0.0019
  378MOL0     H50998   6.668   6.776   6.266  2.1414 -0.0275 -0.4289
  378MOL0     H50999   6.567   6.899   6.179 -0.2269  0.8488 -1.8435
  378MOL0     H51000   6.824   6.777   6.069  1.3476  0.4681 -0.1022
  378MOL0     H51001   6.705   6.885   5.986 -0.2872  1.0338  1.1892
  378MOL0     H51002   6.618   6.623   6.098  0.0149 -2.2970 -2.1718
  378MOL0     H51003   6.528   6.734   5.999 -1.0257 -2.7242 -0.1580
  378MOL0     H51004   6.617   6.575   5.843  0.7990 -1.8849  0.8714
  378MOL0     H51005   6.784   6.595   5.904  0.7575  0.2890  0.9991
  378MOL0     H51006   6.635   6.813   5.765  0.9632  0.9434  0.1104
  378MOL0     H51007   6.805   6.808   5.797  0.5739  1.1655 -2.2321
  378MOL0     H51008   6.660   6.597   5.613 -0.5909  0.7537 -0.1125
  378MOL0     H51009   6.831   6.632   5.630 -0.7668 -3.7232  2.0246
  378MOL0     H51010   6.748   6.889   5.576  1.2232 -1.0375  1.9244
  378MOL0     H51011   6.613   6.802   5.496  0.3711 -0.8628 -1.6805
  378MOL0     H51012   6.706   6.844   6.497  0.3623  1.7119 -0.8006
  378MOL0     H51013   6.751   6.653   6.652 -2.6639 -1.8466 -1.8486
  378MOL0     H51014   7.135   6.346   6.692 -0.5833 -0.3892  0.0324
  378MOL0     H51015   7.193   6.142   6.787 -0.8161 -0.2384  0.5850
  378MOL0     H51016   7.651   4.937   8.346  1.2205 -0.5560  2.7410
  378MOL0     H51017   7.767   4.987   8.540 -4.5176  2.7742 -0.6958
  378MOL0     H51018   8.352   5.196   8.741 -0.9785  0.1364  0.0918
  378MOL0     H51019   8.432   5.127   8.969 -1.1682  0.7365  1.9654
  378MOL0     H51020   8.474   4.925   9.094  2.6109 -0.4157  1.9483
  378MOL0     H51021   8.467   5.073   9.185 -1.1634  1.9985 -1.5114
  378MOL0     H51022   8.448   4.968   9.386  1.1475 -0.7022 -0.3673
  378MOL0     H51023   8.529   4.832   9.310  0.4635  1.1655 -0.2724
  378MOL0     H51024   8.227   4.864   9.317  0.3193 -0.9136 -1.2222
  378MOL0     H51025   8.295   4.760   9.434 -0.0045 -0.9361 -0.4725
  378MOL0     H51026   8.365   4.590   9.303 -0.2036 -0.4772 -2.4302
  378MOL0     H51027   8.382   4.694   9.148 -2.0377  2.6255 -0.7735
  378MOL0     H51028   7.989   4.549   9.155  0.2776  0.0223 -3.0283
  378MOL0     H51029   8.040   4.962   9.051 -1.8646 -0.8581 -1.2314
  378MOL0     H51030   7.959   5.044   8.834 -0.7592  1.3573  2.0729
  379MOL0     O51031   2.339   4.306   7.246  0.3522  0.0486 -0.2647
  379MOL0     C51032   2.278   4.318   7.137 -0.6942 -0.4763  0.3904
  379MOL0     O51033   2.228   4.429   7.081  0.5866  0.3852  0.7225
  379MOL0     C51034   2.221   4.531   7.168 -0.9093 -0.6861  1.0998
  379MOL0     C51035   2.338   4.605   7.189 -1.2258  0.2950 -0.4378
  379MOL0     C51036   2.336   4.713   7.275  0.6861 -0.2409  0.3754
  379MOL0     C51037   2.216   4.753   7.337  0.0065 -0.1025 -0.2279
  379MOL0     O51038   2.209   4.862   7.421 -0.0991 -0.1705  0.5795
  379MOL0     C51039   2.258   4.985   7.365 -0.6450 -0.5300 -0.2394
  379MOL0     C51040   2.193   5.036   7.238  0.6165 -0.0077 -0.4530
  379MOL0     C51041   2.043   5.046   7.246  0.0087  1.1365 -0.8710
  379MOL0     C51042   1.993   5.115   7.122 -0.0271 -0.4598  0.1600
  379MOL0     C51043   1.846   5.111   7.093  0.1063 -0.2498  0.2368
  379MOL0     C51044   1.756   5.159   7.206  0.1094 -0.4348 -0.2301
  379MOL0     C51045   1.615   5.178   7.155 -0.0188 -0.5834 -0.2078
  379MOL0     C51046   1.523   5.221   7.270  1.0479  0.1360  0.9487
  379MOL0     N51047   1.392   5.253   7.214  0.4319 -0.2634 -0.2356
  379MOL0     C51048   1.348   5.387   7.207 -0.6666 -0.4789  0.5125
  379MOL0     C51049   1.252   5.383   7.123  0.2247 -0.9047 -0.2848
  379MOL0     C51050   1.169   5.511   7.089 -0.2212  0.8940 -0.1489
  379MOL0     C51051   1.022   5.486   7.070  0.5742 -0.5731 -0.6000
  379MOL0     C51052   0.962   5.433   7.198  0.0011  0.4303  0.8019
  379MOL0     C51053   0.806   5.445   7.204 -0.0969 -0.4982  0.2321
  379MOL0     O51054   0.762   5.386   7.325 -0.3713 -0.1948  0.7316
  379MOL0     C51055   0.635   5.331   7.320  0.2757 -0.3426  0.7374
  379MOL0     C51056   0.538   5.365   7.222 -0.8660  0.8857 -0.1112
  379MOL0     C51057   0.406   5.321   7.234 -0.3634 -0.3001  0.2557
  379MOL0     C51058   0.318   5.370   7.135 -0.3718  0.7670 -1.0629
  379MOL0     C51059   0.377   5.233   7.338  0.0339  0.2625  0.2165
  379MOL0     C51060   0.239   5.171   7.341 -0.3642  0.3913  0.1071
  379MOL0     O51061   0.183   5.139   7.223  0.4747  0.1809  0.5429
  379MOL0     C51062   0.049   5.092   7.225  0.3275  0.0178  0.2887
  379MOL0     C51063   0.017   4.970   7.286 -1.0195  0.0999  0.4078
  379MOL0     C51064  -0.112   4.920   7.281  0.4088  0.1154  0.1118
  379MOL0     C51065  -0.207   4.983   7.199  0.8940 -0.6048 -0.3723
  379MOL0     O51066  -0.339   4.928   7.182 -0.2681  0.0444 -0.3248
  379MOL0     C51067  -0.407   4.949   7.059 -0.4906 -0.4686 -0.1322
  379MOL0     C51068  -0.520   4.841   7.062 -0.3918  0.7255 -0.3347
  379MOL0     C51069  -0.608   4.827   6.935  0.2459  0.0086  0.8112
  379MOL0     C51070  -0.524   4.802   6.807  0.6056  0.5248 -0.5654
  379MOL0     C51071  -0.592   4.720   6.696 -0.0357  0.6838 -0.8390
  379MOL0     C51072  -0.607   4.571   6.745 -1.3985 -0.0353 -0.2685
  379MOL0     C51073  -0.624   4.477   6.619 -0.4727 -0.4078 -0.5038
  379MOL0     C51074  -0.761   4.497   6.547 -0.1304 -0.9556 -0.3493
  379MOL0    Cl51075  -0.762   4.412   6.400  0.1103 -0.0185 -0.4102
  379MOL0     C51076  -0.169   5.101   7.133  0.9530 -0.2537  0.8492
  379MOL0     C51077  -0.040   5.154   7.146 -0.1963  0.2090 -0.1444
  379MOL0     O51078   0.188   5.179   7.450 -0.5946  0.1015  0.3072
  379MOL0     C51079   0.469   5.199   7.440  0.0099  0.4509  0.4295
  379MOL0     C51080   0.598   5.245   7.424  0.5782 -0.4618  0.4853
  379MOL0     N51081   1.225   5.253   7.068 -0.8007 -0.8116 -0.8114
  379MOL0     N51082   1.323   5.185   7.118 -0.3483 -0.0522 -0.6750
  379MOL0     C51083   2.105   4.672   7.316  0.2443 -0.5586 -0.7203
  379MOL0     C51084   2.111   4.567   7.229  0.3825  0.6164 -0.1655
  379MOL0     C51085   2.285   4.212   7.026 -0.2356 -0.3442  0.4055
  379MOL0     C51086   2.208   4.217   6.905  0.7626 -0.3122  0.2055
  379MOL0     C51087   2.219   4.118   6.815  0.7211  0.8624  0.7792
  379MOL0     C51088   2.299   4.005   6.835 -0.0265 -0.2260 -0.7604
  379MOL0     O51089   2.314   3.914   6.734  0.0209  0.1279  0.4405
  379MOL0     C51090   2.299   3.775   6.751  0.7902 -0.4326  0.4076
  379MOL0     C51091   2.149   3.741   6.710 -0.3548  0.7614  0.5409
  379MOL0     C51092   2.117   3.590   6.679  0.8143 -0.9959  0.9820
  379MOL0     C51093   2.162   3.489   6.775 -0.3064 -0.6619  0.2053
  379MOL0     C51094   2.164   3.529   6.915 -1.2895 -0.1219 -0.6239
  379MOL0     C51095   2.146   3.558   7.034 -0.3885  0.0258  0.3877
  379MOL0     C51096   2.366   3.994   6.956  0.3895 -1.3332 -0.0680
  379MOL0     C51097   2.361   4.098   7.047 -0.7753  0.1656  0.9254
  379MOL0     H51098   2.427   4.570   7.139 -2.7417  0.2406 -3.3033
  379MOL0     H51099   2.421   4.777   7.294 -0.8485  1.7559  0.9476
  379MOL0     H51100   2.248   5.066   7.438  0.9490 -1.1932  0.7592
  379MOL0     H51101   2.364   4.981   7.339 -0.6571  1.1884 -0.7199
  379MOL0     H51102   2.222   5.140   7.220 -1.9700  0.7242 -0.7712
  379MOL0     H51103   2.221   4.974   7.152  1.7519  1.9419 -1.5959
  379MOL0     H51104   2.010   4.942   7.252  1.4944  0.5986 -1.3672
  379MOL0     H51105   2.005   5.105   7.330 -1.7578 -0.5687 -0.4011
  379MOL0     H51106   2.029   5.219   7.122 -0.5231 -0.1007  4.4060
  379MOL0     H51107   2.042   5.068   7.037  0.5670  1.2536 -0.4858
  379MOL0     H51108   1.831   5.179   7.008  0.8087  2.5761  2.2151
  379MOL0     H51109   1.817   5.007   7.077  0.1991 -0.2945  0.3570
  379MOL0     H51110   1.759   5.088   7.290  1.1528  0.9207  0.9409
  379MOL0     H51111   1.785   5.257   7.245 -0.0502 -0.0488 -1.0633
  379MOL0     H51112   1.624   5.249   7.072  0.4938 -2.6895 -2.0289
  379MOL0     H51113   1.574   5.088   7.108 -4.9800  0.9305  0.6026
  379MOL0     H51114   1.573   5.308   7.313  2.3776 -0.4452  0.6178
  379MOL0     H51115   1.518   5.141   7.345 -1.7908 -1.2153 -0.5264
  379MOL0     H51116   1.364   5.466   7.280  0.5014 -0.8358  0.6612
  379MOL0     H51117   1.187   5.584   7.169  0.1234 -1.7930  2.4319
  379MOL0     H51118   1.216   5.557   7.002 -0.1615  2.7390  0.7951
  379MOL0     H51119   1.002   5.425   6.982 -2.4028 -3.2809  1.7461
  379MOL0     H51120   0.972   5.581   7.049  2.4235  1.3327  2.7495
  379MOL0     H51121   1.011   5.471   7.288 -0.2661 -2.4317  2.2867
  379MOL0     H51122   0.980   5.326   7.215 -1.0855 -0.1961 -1.6463
  379MOL0     H51123   0.764   5.401   7.113  0.4717  1.1693 -0.8809
  379MOL0     H51124   0.788   5.552   7.213 -1.4513 -0.7865  1.3739
  379MOL0     H51125   0.550   5.419   7.129 -0.9886 -0.6937 -1.0763
  379MOL0     H51126   0.229   5.426   7.166  0.1869  0.2045  1.8998
  379MOL0     H51127   0.362   5.450   7.074  1.8248 -0.0322 -0.6173
  379MOL0     H51128   0.286   5.286   7.073 -0.4612 -0.5885  0.7424
  379MOL0     H51129   0.095   4.916   7.340 -0.3654  0.0075 -0.5995
  379MOL0     H51130  -0.128   4.828   7.337  1.0402  0.6568  1.2369
  379MOL0     H51131  -0.461   5.045   7.062 -0.5320 -0.4985  0.2133
  379MOL0     H51132  -0.335   4.944   6.978  1.6732  0.7663  1.6065
  379MOL0     H51133  -0.467   4.745   7.069  1.6779  1.7495 -1.1943
  379MOL0     H51134  -0.580   4.849   7.153  2.9244 -2.8026  2.5179
  379MOL0     H51135  -0.666   4.919   6.918  0.4450 -0.1901 -1.1823
  379MOL0     H51136  -0.680   4.745   6.945  0.4879 -0.7619 -2.6576
  379MOL0     H51137  -0.501   4.902   6.769 -0.2553  1.0749  0.3087
  379MOL0     H51138  -0.430   4.750   6.827  0.7117  0.2184 -1.7668
  379MOL0     H51139  -0.517   4.713   6.617  0.0312 -2.7823 -0.6212
  379MOL0     H51140  -0.688   4.765   6.669  0.2084  0.7713 -1.6052
  379MOL0     H51141  -0.513   4.546   6.794 -2.1057 -1.4841  0.4284
  379MOL0     H51142  -0.675   4.558   6.830 -1.4505 -0.2877 -0.3486
  379MOL0     H51143  -0.611   4.375   6.659 -2.7180 -1.2124 -1.6578
  379MOL0     H51144  -0.542   4.499   6.551 -0.6709  2.3028  0.0349
  379MOL0     H51145  -0.776   4.604   6.531 -3.2721 -0.5976  3.5045
  379MOL0     H51146  -0.845   4.471   6.612 -0.6143  2.1435  0.4110
  379MOL0     H51147  -0.235   5.149   7.062  0.5407  0.5818  1.7814
  379MOL0     H51148  -0.023   5.246   7.091  1.5247  0.7870  1.2994
  379MOL0     H51149   0.430   5.129   7.513 -3.1098  1.1916 -0.3854
  379MOL0     H51150   0.676   5.213   7.493 -0.5509  0.6770  2.4037
  379MOL0     H51151   2.017   4.685   7.378  1.2829  2.1489  0.3714
  379MOL0     H51152   2.028   4.499   7.216  0.3421  0.3562  1.3143
  379MOL0     H51153   2.144   4.304   6.889 -1.7950 -1.5867  2.7000
  379MOL0     H51154   2.165   4.127   6.721 -0.5594 -1.9367  1.1605
  379MOL0     H51155   2.365   3.725   6.679  2.8854 -1.1217  2.6708
  379MOL0     H51156   2.324   3.731   6.848  1.7377 -2.1577 -0.5492
  379MOL0     H51157   2.124   3.803   6.623 -0.8840 -1.5402 -1.0471
  379MOL0     H51158   2.079   3.758   6.792 -1.7741 -0.0424 -0.4506
  379MOL0     H51159   2.146   3.569   6.576 -1.1020  2.1603 -0.3599
  379MOL0     H51160   2.008   3.579   6.681  0.9413 -2.4923  2.7952
  379MOL0     H51161   2.263   3.454   6.751 -0.0230 -0.8895  1.6249
  379MOL0     H51162   2.106   3.399   6.746  3.1949 -2.3418 -1.9981
  379MOL0     H51163   2.113   3.579   7.133 -2.6017 -2.2850  0.2262
  379MOL0     H51164   2.438   3.919   6.987 -0.9286 -2.9676 -0.7817
  379MOL0     H51165   2.417   4.083   7.139 -0.6721  1.0019  1.0142
  380MOL0     O51166   6.275   6.905   6.024  0.8450  0.2026 -0.7581
  380MOL0     C51167   6.232   6.886   5.909 -0.4957 -0.0677 -0.1178
  380MOL0     O51168   6.156   6.779   5.867 -0.2233  0.0075 -0.0892
  380MOL0     C51169   6.121   6.702   5.969  0.5068  0.0217  0.3040
  380MOL0     C51170   6.012   6.725   6.062  0.4267 -0.4064  1.2689
  380MOL0     C51171   5.987   6.631   6.157  0.6668 -1.2270  0.1154
  380MOL0     C51172   6.064   6.522   6.175 -0.6649  0.1904 -0.1404
  380MOL0     O51173   6.048   6.429   6.264 -0.6500  0.0028 -0.3654
  380MOL0     C51174   5.944   6.434   6.356 -0.2673 -0.0427  0.9875
  380MOL0     C51175   5.980   6.347   6.479 -0.2085 -0.0464  0.6551
  380MOL0     C51176   5.886   6.374   6.605 -1.0772 -0.5263 -0.0004
  380MOL0     C51177   5.952   6.499   6.671 -0.0512 -0.1451  0.0771
  380MOL0     C51178   5.943   6.524   6.819 -0.0667  0.6303 -0.0502
  380MOL0     C51179   5.805   6.575   6.848 -0.5850 -0.7279 -0.4849
  380MOL0     C51180   5.798   6.586   7.003  0.0009  0.3753  0.4259
  380MOL0     C51181   5.667   6.668   7.046 -0.2363 -0.3384 -0.1452
  380MOL0     N51182   5.646   6.681   7.191 -0.2323  0.5617  0.8812
  380MOL0     C51183   5.690   6.784   7.272  0.1422 -0.3338 -0.4084
  380MOL0     C51184   5.650   6.739   7.398  0.3917  1.3136 -0.8614
  380MOL0     C51185   5.668   6.817   7.522  0.3859 -0.5251  0.1056
  380MOL0     C51186   5.558   6.795   7.619  0.2107 -0.0007  0.4220
  380MOL0     C51187   5.576   6.871   7.750 -1.0013 -0.1861 -0.0588
  380MOL0     C51188   5.563   7.026   7.721  0.5988 -0.0237  0.4693
  380MOL0     O51189   5.692   7.067   7.683 -0.4472  0.3121 -0.3293
  380MOL0     C51190   5.747   7.164   7.762  0.2866 -0.4713  0.7054
  380MOL0     C51191   5.786   7.144   7.892 -0.2871 -0.3068 -0.0845
  380MOL0     C51192   5.839   7.245   7.976  0.2667  1.0105 -0.3577
  380MOL0     C51193   5.882   7.196   8.112 -0.3876  0.6566  0.5596
  380MOL0     C51194   5.851   7.377   7.930  0.4264  0.5465 -0.3761
  380MOL0     C51195   5.910   7.486   7.999  0.0813 -0.5290  1.1747
  380MOL0     O51196   5.885   7.613   7.951  0.7954 -0.8877  0.0282
  380MOL0     C51197   5.948   7.727   7.992 -0.2253 -0.0738 -0.3215
  380MOL0     C51198   6.036   7.744   8.102  0.2234  0.3874 -0.3082
  380MOL0     C51199   6.091   7.871   8.131 -0.3042  0.1825 -0.3559
  380MOL0     C51200   6.054   7.982   8.053  0.3419  0.2070 -0.4784
  380MOL0     O51201   6.134   8.095   8.077  0.5960  0.3015  0.3642
  380MOL0     C51202   6.080   8.222   8.044 -0.7390  0.2684 -0.8144
  380MOL0     C51203   6.180   8.330   8.054  0.1222 -0.0077 -0.4815
  380MOL0     C51204   6.114   8.472   8.063 -0.0257 -0.5883  0.5702
  380MOL0     C51205   6.228   8.573   8.081  1.1067  0.7712  0.9378
  380MOL0     C51206   6.165   8.710   8.083 -0.5037  1.0147  0.2689
  380MOL0     C51207   6.071   8.756   7.965 -0.1106 -0.2239 -0.0955
  380MOL0     C51208   6.154   8.747   7.836  0.4504 -0.6802  1.0440
  380MOL0     C51209   6.051   8.748   7.720  0.6280 -0.1836 -0.2695
  380MOL0    Cl51210   6.004   8.914   7.679 -0.0528 -0.2730 -0.1516
  380MOL0     C51211   5.958   7.967   7.954 -0.2222 -0.3224  0.2769
  380MOL0     C51212   5.906   7.840   7.923  0.2238  0.0259  0.3672
  380MOL0     O51213   5.975   7.469   8.100  0.3306 -0.0473 -0.1539
  380MOL0     C51214   5.817   7.398   7.789 -0.7758 -0.0244 -0.6107
  380MOL0     C51215   5.773   7.293   7.705  0.3185 -0.4553 -0.8976
  380MOL0     N51216   5.597   6.617   7.381 -0.2567 -0.3339 -0.6391
  380MOL0     N51217   5.588   6.580   7.252 -0.8146  0.1439 -0.8499
  380MOL0     C51218   6.171   6.502   6.087 -0.0833  0.8669  1.2730
  380MOL0     C51219   6.199   6.594   5.985 -0.0155 -0.1643  0.0687
  380MOL0     C51220   6.291   6.967   5.794 -0.9479 -0.3437  1.2075
  380MOL0     C51221   6.281   6.915   5.665  0.0264 -0.1307 -0.9090
  380MOL0     C51222   6.352   6.968   5.558  0.2543 -0.1873  1.0040
  380MOL0     C51223   6.447   7.072   5.581 -1.1945  0.1460 -0.4960
  380MOL0     O51224   6.529   7.125   5.483  0.6684 -0.3781  0.2429
  380MOL0     C51225   6.538   7.073   5.346  0.2937 -0.1939 -0.3585
  380MOL0     C51226   6.475   7.178   5.250 -0.8651 -0.2026  0.0553
  380MOL0     C51227   6.505   7.326   5.279 -0.3174  0.2541 -0.3667
  380MOL0     C51228   6.647   7.362   5.243 -0.2381 -1.0409 -0.8023
  380MOL0     C51229   6.671   7.363   5.102  0.0577  0.4786 -0.6201
  380MOL0     C51230   6.689   7.363   4.984  0.2323 -0.6131 -0.1855
  380MOL0     C51231   6.460   7.127   5.712  0.7031 -0.0156 -0.0765
  380MOL0     C51232   6.381   7.076   5.817  0.6177 -0.1435 -0.0707
  380MOL0     H51233   5.944   6.805   6.033 -0.5062 -2.1116 -1.7452
  380MOL0     H51234   5.897   6.665   6.208  2.2216  2.2741  0.8671
  380MOL0     H51235   5.939   6.537   6.394  1.3914 -0.5675  2.7871
  380MOL0     H51236   5.850   6.390   6.323 -0.4371 -1.4741  3.2055
  380MOL0     H51237   5.972   6.243   6.446 -2.3213 -0.1284  1.2779
  380MOL0     H51238   6.083   6.365   6.510 -0.5451 -0.4805  2.0754
  380MOL0     H51239   5.784   6.392   6.568  0.1224  1.1859 -2.8144
  380MOL0     H51240   5.885   6.285   6.668  1.1564 -0.8047 -0.2759
  380MOL0     H51241   6.060   6.505   6.653  0.3253  0.4526  2.2154
  380MOL0     H51242   5.928   6.595   6.625  2.9404  0.7901  0.2176
  380MOL0     H51243   5.968   6.433   6.874  0.3383 -0.7867 -2.4545
  380MOL0     H51244   6.023   6.590   6.853 -0.1721 -0.0198  1.5762
  380MOL0     H51245   5.782   6.671   6.801  2.6178  2.0771  3.0003
  380MOL0     H51246   5.735   6.501   6.808  0.1381 -0.1892 -2.9595
  380MOL0     H51247   5.797   6.494   7.062  1.0559  1.3744  2.0623
  380MOL0     H51248   5.883   6.649   7.031  0.0418  0.9870 -1.0122
  380MOL0     H51249   5.579   6.621   7.001  1.1968 -0.4361 -3.0749
  380MOL0     H51250   5.673   6.771   7.008  0.0990  1.2238  3.7295
  380MOL0     H51251   5.748   6.864   7.228  1.3190  0.0282  1.6841
  380MOL0     H51252   5.768   6.797   7.562  0.4669 -2.8383 -1.0642
  380MOL0     H51253   5.657   6.922   7.490 -0.2761 -0.3727  0.8224
  380MOL0     H51254   5.556   6.688   7.641  0.6771 -0.7996 -2.8446
  380MOL0     H51255   5.461   6.796   7.568  0.8511 -3.8222 -1.2406
  380MOL0     H51256   5.670   6.854   7.804 -1.3882  2.1289  1.4952
  380MOL0     H51257   5.505   6.828   7.821 -2.4631  1.0708 -0.6915
  380MOL0     H51258   5.531   7.069   7.816 -0.3580  1.6439 -0.5549
  380MOL0     H51259   5.490   7.046   7.642  2.5343 -1.1296 -1.7112
  380MOL0     H51260   5.769   7.044   7.932 -2.0967  0.4323  1.0904
  380MOL0     H51261   5.824   7.223   8.201  1.5970  0.1369  2.0951
  380MOL0     H51262   5.880   7.087   8.122 -3.1362  0.7266  1.8960
  380MOL0     H51263   5.988   7.216   8.133 -0.3057 -1.9681  3.5178
  380MOL0     H51264   6.057   7.668   8.177  0.4086  1.1085  0.3936
  380MOL0     H51265   6.157   7.890   8.215  2.1240  0.1686 -2.1666
  380MOL0     H51266   6.027   8.222   7.948 -3.8190 -0.7887  0.7443
  380MOL0     H51267   5.999   8.243   8.114 -1.4607  3.3239 -2.3776
  380MOL0     H51268   6.229   8.328   8.152  1.8230  2.7479 -1.1599
  380MOL0     H51269   6.254   8.319   7.974  2.2451 -1.1462  1.4859
  380MOL0     H51270   6.043   8.468   8.146  0.8159  1.1338  1.4058
  380MOL0     H51271   6.055   8.498   7.975  0.7681 -1.9868 -0.4096
  380MOL0     H51272   6.280   8.550   8.174  0.8273 -2.7956  0.3577
  380MOL0     H51273   6.291   8.565   7.992  2.0938  2.6337  1.4123
  380MOL0     H51274   6.254   8.774   8.082 -0.9824  1.7226 -0.9429
  380MOL0     H51275   6.098   8.731   8.167  0.6507  0.9192  1.2316
  380MOL0     H51276   5.976   8.702   7.972  0.1605 -1.1610 -2.6224
  380MOL0     H51277   6.048   8.862   7.984  1.3078 -0.2096  1.7746
  380MOL0     H51278   6.192   8.645   7.826 -1.3625 -1.4874  2.0348
  380MOL0     H51279   6.241   8.806   7.806 -0.3534 -1.8165 -4.7622
  380MOL0     H51280   5.977   8.673   7.748 -0.1692 -0.2842 -2.4039
  380MOL0     H51281   6.089   8.719   7.621  0.0194  3.9894 -1.9489
  380MOL0     H51282   5.924   8.053   7.896  0.6720  1.1210  1.7821
  380MOL0     H51283   5.840   7.818   7.840  0.5415 -2.7812  0.7653
  380MOL0     H51284   5.842   7.491   7.740 -1.2671  0.7995  0.6630
  380MOL0     H51285   5.755   7.307   7.599  0.6420 -0.4619 -0.9570
  380MOL0     H51286   6.239   6.419   6.101  0.0528  0.6952 -0.2430
  380MOL0     H51287   6.282   6.578   5.916 -1.6792 -2.5916 -1.5594
  380MOL0     H51288   6.222   6.824   5.654  0.5396 -0.8933  1.9038
  380MOL0     H51289   6.350   6.920   5.460  4.9339 -0.6443  0.9327
  380MOL0     H51290   6.645   7.073   5.322  0.2633  1.4549 -0.6404
  380MOL0     H51291   6.507   6.968   5.342 -2.2490  0.5205 -1.9511
  380MOL0     H51292   6.367   7.160   5.252 -1.5753  1.9120 -4.8016
  380MOL0     H51293   6.512   7.151   5.150  3.0977 -1.3647  1.6510
  380MOL0     H51294   6.473   7.344   5.382 -3.1515  2.7459 -1.5255
  380MOL0     H51295   6.447   7.399   5.222  0.6691  1.6513  0.3618
  380MOL0     H51296   6.718   7.289   5.283  0.4299  0.4054  0.7443
  380MOL0     H51297   6.668   7.462   5.281 -0.7581 -0.3419 -2.2447
  380MOL0     H51298   6.705   7.373   4.878  2.3772 -2.6313 -0.1461
  380MOL0     H51299   6.535   7.204   5.726  0.2826  0.5258 -0.7110
  380MOL0     H51300   6.402   7.103   5.920 -3.5216 -2.3063  1.5871
  381MOL0     O51301   5.949  10.219  10.347  0.3151  0.4950  0.5103
  381MOL0     C51302   6.057  10.194  10.394  0.1819 -0.3093 -0.9688
  381MOL0     O51303   6.090  10.211  10.526  0.3448  0.2470  0.5297
  381MOL0     C51304   5.998  10.238  10.626 -0.0741  0.1153  0.0487
  381MOL0     C51305   6.044  10.293  10.740 -0.5033  0.3755  0.7903
  381MOL0     C51306   5.955  10.315  10.849  0.2773 -0.1045  0.2331
  381MOL0     C51307   5.826  10.268  10.855  0.3553  0.1872 -0.2719
  381MOL0     O51308   5.754  10.304  10.967 -0.1148  0.1581  0.4608
  381MOL0     C51309   5.615  10.268  10.980  0.8724  0.4462  0.3325
  381MOL0     C51310   5.562  10.315  11.121  0.0484  1.4122 -0.1745
  381MOL0     C51311   5.503  10.203  11.202 -0.9658 -0.0107 -0.2770
  381MOL0     C51312   5.438  10.235  11.340 -0.0209 -0.8797 -0.1913
  381MOL0     C51313   5.313  10.155  11.344 -0.1103 -0.4749  0.7845
  381MOL0     C51314   5.195  10.231  11.284 -0.0968  0.3053 -0.1527
  381MOL0     C51315   5.087  10.116  11.251  0.2978 -0.7812 -0.6789
  381MOL0     C51316   5.033  10.144  11.109  0.1632  1.3048 -0.6303
  381MOL0     N51317   5.127  10.122  11.000  0.2158  0.0800 -1.0034
  381MOL0     C51318   5.153  10.005  10.933 -0.4666 -0.2701  0.0368
  381MOL0     C51319   5.260  10.043  10.852 -0.6989 -0.1158  0.4158
  381MOL0     C51320   5.350   9.945  10.771  0.2711 -0.5394  0.4133
  381MOL0     C51321   5.389   9.826  10.851 -0.2481  0.0891 -0.5515
  381MOL0     C51322   5.469   9.722  10.764  0.4083  0.6817  0.6219
  381MOL0     C51323   5.517   9.598  10.851  0.2830 -0.4038  0.4927
  381MOL0     O51324   5.582   9.509  10.760 -0.0957 -0.0308 -0.5658
  381MOL0     C51325   5.719   9.518  10.748  0.2489 -0.1347  0.3286
  381MOL0     C51326   5.794   9.411  10.702  0.2625 -0.6413  0.7691
  381MOL0     C51327   5.936   9.407  10.689 -0.9694  0.2707  0.1215
  381MOL0     C51328   6.015   9.283  10.639  1.1880 -0.2389 -0.4715
  381MOL0     C51329   6.003   9.538  10.707 -0.3389  0.0239 -0.2461
  381MOL0     C51330   6.152   9.554  10.699  0.0963 -0.6259  0.6787
  381MOL0     O51331   6.197   9.679  10.641  0.0431  0.3214  0.7435
  381MOL0     C51332   6.330   9.692  10.617 -0.3132  0.9227  0.4818
  381MOL0     C51333   6.406   9.700  10.731  0.0762  0.3032 -0.9810
  381MOL0     C51334   6.545   9.717  10.724 -0.6276 -0.2506 -0.7223
  381MOL0     C51335   6.605   9.742  10.603 -0.7133 -0.5178  1.1899
  381MOL0     O51336   6.738   9.777  10.598 -0.4354 -0.2310 -0.5409
  381MOL0     C51337   6.837   9.676  10.635 -0.0645  0.0292  0.5052
  381MOL0     C51338   6.962   9.695  10.552  0.3432  0.2937 -0.0579
  381MOL0     C51339   6.931   9.632  10.415 -0.2870 -0.2116  0.1738
  381MOL0     C51340   7.065   9.612  10.335 -0.5645 -0.2822  0.2610
  381MOL0     C51341   7.036   9.513  10.218  0.1666  0.0340 -0.8539
  381MOL0     C51342   6.948   9.578  10.116 -0.2706  0.0629 -0.6317
  381MOL0     C51343   6.948   9.489   9.990  0.4308  0.3020 -0.2729
  381MOL0     C51344   6.928   9.569   9.861  0.1340 -1.0644  0.0614
  381MOL0    Cl51345   6.786   9.675   9.883 -0.0350  0.7219  0.2250
  381MOL0     C51346   6.530   9.728  10.482  0.7298 -1.4640 -0.3908
  381MOL0     C51347   6.389   9.723  10.492  1.5123 -0.5576 -0.6851
  381MOL0     O51348   6.227   9.462  10.737 -0.2366 -0.0653  0.4107
  381MOL0     C51349   5.928   9.643  10.750 -0.1101 -0.1736 -0.2967
  381MOL0     C51350   5.789   9.646  10.776  1.3176 -0.4145  0.4074
  381MOL0     N51351   5.289  10.176  10.862  0.3959 -0.7137  0.5326
  381MOL0     N51352   5.211  10.224  10.954  0.3222  0.0855  0.4791
  381MOL0     C51353   5.777  10.211  10.741  0.6307 -0.3759 -0.4271
  381MOL0     C51354   5.861  10.198  10.626  1.3389 -0.4679 -0.4594
  381MOL0     C51355   6.161  10.128  10.306  0.0011 -0.4936  0.0861
  381MOL0     C51356   6.284  10.083  10.361 -0.0189 -0.3266 -0.2670
  381MOL0     C51357   6.384  10.040  10.263  0.8213 -0.9351 -0.4645
  381MOL0     C51358   6.358  10.024  10.129 -0.5906 -0.3601 -0.8486
  381MOL0     O51359   6.451   9.968  10.051 -0.1901  0.1344  0.1633
  381MOL0     C51360   6.501  10.062   9.953  0.3058 -0.7524 -0.0774
  381MOL0     C51361   6.639  10.009   9.908  0.0596 -0.1701  0.5724
  381MOL0     C51362   6.757  10.044  10.001  0.0620 -0.5520  0.0247
  381MOL0     C51363   6.782   9.951  10.127  0.4097 -0.4891 -0.0542
  381MOL0     C51364   6.907   9.978  10.192  0.3084 -0.2731  0.7617
  381MOL0     C51365   7.014   9.984  10.242  0.0720  0.4872 -0.6731
  381MOL0     C51366   6.237  10.068  10.081 -0.0356  0.0194 -0.3232
  381MOL0     C51367   6.135  10.117  10.167  0.0910  1.3180  0.0395
  381MOL0     H51368   6.147  10.328  10.741 -0.6404  0.7959  0.3913
  381MOL0     H51369   5.985  10.373  10.936  2.0835  0.5390 -0.7543
  381MOL0     H51370   5.563  10.317  10.897  0.6467 -2.0017 -1.0478
  381MOL0     H51371   5.606  10.159  10.981  0.1902  0.4952  0.7112
  381MOL0     H51372   5.641  10.346  11.190 -0.3324  0.1277  0.8794
  381MOL0     H51373   5.482  10.389  11.113 -1.5799 -0.3370 -0.8569
  381MOL0     H51374   5.435  10.150  11.135 -1.1631  0.2510 -0.2838
  381MOL0     H51375   5.588  10.136  11.219  0.6655  1.6879 -1.3331
  381MOL0     H51376   5.504  10.191  11.415 -0.9127 -0.5633  0.8229
  381MOL0     H51377   5.427  10.344  11.350  0.2433 -0.8186 -0.5637
  381MOL0     H51378   5.326  10.057  11.297  2.5398 -0.3256  1.0566
  381MOL0     H51379   5.280  10.138  11.447 -2.8101  0.6846  0.2170
  381MOL0     H51380   5.155  10.292  11.366 -1.3848  1.4793 -1.5977
  381MOL0     H51381   5.229  10.297  11.204  1.4322 -1.2386 -0.8146
  381MOL0     H51382   5.123  10.013  11.258  0.3351 -0.7868 -0.9605
  381MOL0     H51383   5.000  10.122  11.317  1.2604  1.9591  0.5253
  381MOL0     H51384   4.982  10.241  11.099  1.4320  1.8401 -2.3200
  381MOL0     H51385   4.958  10.066  11.097 -0.3505  1.9756 -1.9730
  381MOL0     H51386   5.125   9.902  10.953 -2.0840  0.1629  0.1253
  381MOL0     H51387   5.298   9.908  10.681 -2.8834  0.4694  1.6691
  381MOL0     H51388   5.436   9.997  10.729 -0.4284  1.2695  1.1136
  381MOL0     H51389   5.303   9.782  10.901  1.3953 -1.0213  1.4694
  381MOL0     H51390   5.462   9.866  10.922  0.4674  3.6565 -3.0504
  381MOL0     H51391   5.557   9.778  10.730  2.0056 -0.5618  2.4408
  381MOL0     H51392   5.414   9.687  10.676  1.8285  0.1661 -0.0897
  381MOL0     H51393   5.430   9.549  10.896  0.1124 -0.6608 -0.1015
  381MOL0     H51394   5.579   9.641  10.930 -1.4865  0.6178  1.3757
  381MOL0     H51395   5.732   9.323  10.694 -5.6251  3.0698 -0.4152
  381MOL0     H51396   6.071   9.233  10.718  2.6405 -0.3404 -1.5099
  381MOL0     H51397   5.938   9.214  10.603  1.0078  0.1762 -0.9094
  381MOL0     H51398   6.093   9.298  10.564  2.9359 -2.3383  0.8231
  381MOL0     H51399   6.362   9.693  10.830  1.9137  0.6938 -0.1111
  381MOL0     H51400   6.599   9.712  10.818  0.0472 -5.0872 -1.1201
  381MOL0     H51401   6.848   9.698  10.742 -3.0076  0.1086  0.8724
  381MOL0     H51402   6.795   9.575  10.625 -0.1127  0.2795 -2.7375
  381MOL0     H51403   6.979   9.798  10.520  1.2850 -0.5587 -2.5309
  381MOL0     H51404   7.050   9.644  10.594  0.7386 -0.1452 -1.3728
  381MOL0     H51405   6.868   9.703  10.360 -1.5559 -0.4389  1.2856
  381MOL0     H51406   6.870   9.543  10.431  0.3138 -0.2489  2.4797
  381MOL0     H51407   7.094   9.714  10.307  1.3132 -1.1266 -1.1049
  381MOL0     H51408   7.144   9.562  10.392  0.8427  1.4146 -0.1320
  381MOL0     H51409   6.990   9.418  10.249 -3.9397  1.6950 -1.2171
  381MOL0     H51410   7.133   9.484  10.177  0.8715 -0.2655  0.9499
  381MOL0     H51411   6.846   9.579  10.157  1.2046  0.6624  3.4771
  381MOL0     H51412   6.973   9.684  10.108  1.1840  0.2796  3.9169
  381MOL0     H51413   6.863   9.420   9.990 -0.1342  0.8706 -2.9667
  381MOL0     H51414   7.040   9.431   9.980  1.8419  2.6246 -1.8598
  381MOL0     H51415   6.923   9.491   9.783 -0.5414 -0.8121 -0.1613
  381MOL0     H51416   7.013   9.632   9.836 -0.6465 -0.0681 -0.1617
  381MOL0     H51417   6.573   9.744  10.384  0.9198  0.1591 -0.0683
  381MOL0     H51418   6.311   9.740  10.419 -1.9191  2.2632  3.2114
  381MOL0     H51419   5.972   9.740  10.767 -1.2654  0.2274  0.5324
  381MOL0     H51420   5.737   9.736  10.806 -0.6875 -0.8598 -1.4582
  381MOL0     H51421   5.677  10.171  10.729  0.2698  0.8039 -1.5785
  381MOL0     H51422   5.828  10.133  10.546 -2.7322  0.8037 -0.0631
  381MOL0     H51423   6.307  10.095  10.467  2.0553  1.9051 -0.8742
  381MOL0     H51424   6.484  10.022  10.302  1.1380 -0.2782 -0.9626
  381MOL0     H51425   6.428  10.052   9.872 -2.7520 -0.5474  2.4693
  381MOL0     H51426   6.506  10.163   9.995 -6.0980  0.3125 -0.7837
  381MOL0     H51427   6.665  10.039   9.806  2.9805 -1.7192  0.7592
  381MOL0     H51428   6.632   9.900   9.895 -0.8087  0.1310 -2.0942
  381MOL0     H51429   6.743  10.146  10.036 -0.4552  0.2137 -2.2709
  381MOL0     H51430   6.845  10.041   9.936  2.1372 -2.7080  2.6498
  381MOL0     H51431   6.782   9.843  10.108  1.5622 -0.8553  1.7247
  381MOL0     H51432   6.709   9.976  10.204 -0.3989 -0.5648 -0.7826
  381MOL0     H51433   7.103  10.014  10.294 -0.0611  1.4423 -0.9682
  381MOL0     H51434   6.219  10.047   9.976  2.7117 -1.0451 -0.6521
  381MOL0     H51435   6.043  10.149  10.118  1.1602 -0.5808 -3.6224
  382MOL0     O51436   7.744   9.711   7.051  0.1276 -0.2410  0.0694
  382MOL0     C51437   7.756   9.637   6.951  0.6863  0.0671 -0.3067
  382MOL0     O51438   7.653   9.611   6.866 -0.0872  0.1156  0.2940
  382MOL0     C51439   7.534   9.676   6.887  0.0302 -0.1003 -0.8157
  382MOL0     C51440   7.425   9.597   6.896  0.9237 -0.5718  0.2334
  382MOL0     C51441   7.300   9.665   6.897 -0.2697 -0.3098  0.0807
  382MOL0     C51442   7.291   9.796   6.870  0.8123 -0.5345 -1.0802
  382MOL0     O51443   7.172   9.851   6.831  0.1227  0.3405 -0.1880
  382MOL0     C51444   7.040   9.784   6.820 -0.2671 -0.3256 -0.2435
  382MOL0     C51445   6.928   9.870   6.760  0.0885  0.1640 -0.2674
  382MOL0     C51446   6.797   9.784   6.748 -0.0774  0.2731 -1.0563
  382MOL0     C51447   6.763   9.690   6.869 -0.0312 -0.0992  0.3591
  382MOL0     C51448   6.614   9.629   6.860  0.8553  0.8925  0.2584
  382MOL0     C51449   6.598   9.531   6.758 -0.3461  0.0433  0.7059
  382MOL0     C51450   6.448   9.484   6.719 -0.8112  0.1108 -0.5107
  382MOL0     C51451   6.372   9.439   6.846  0.0137 -0.0407 -0.3098
  382MOL0     N51452   6.447   9.321   6.901 -1.1798 -0.3333 -0.3390
  382MOL0     C51453   6.422   9.194   6.852  0.7292  0.7827  0.2516
  382MOL0     C51454   6.497   9.109   6.921  0.2659  0.4285  0.1863
  382MOL0     C51455   6.524   8.963   6.896 -0.8410  0.3043 -0.7324
  382MOL0     C51456   6.386   8.898   6.847 -0.8212 -0.1846 -0.2318
  382MOL0     C51457   6.401   8.755   6.800 -0.6569 -0.4759 -0.1154
  382MOL0     C51458   6.263   8.702   6.746 -0.3130  0.3979 -0.1446
  382MOL0     O51459   6.267   8.573   6.692  0.0296  0.0302 -0.2478
  382MOL0     C51460   6.178   8.478   6.716 -0.8957  1.0470 -0.2451
  382MOL0     C51461   6.175   8.362   6.629  0.1817 -0.1427 -0.2477
  382MOL0     C51462   6.079   8.255   6.643  0.8099 -0.2460  0.2831
  382MOL0     C51463   6.086   8.136   6.545 -0.0494 -1.8841  0.4194
  382MOL0     C51464   5.993   8.261   6.759 -0.4556  0.3148 -0.5885
  382MOL0     C51465   5.896   8.154   6.795  0.4860  0.6381  0.0590
  382MOL0     O51466   5.922   8.028   6.750 -0.5278  0.0284  0.2500
  382MOL0     C51467   5.823   7.933   6.768  0.0108 -0.6721  0.2466
  382MOL0     C51468   5.772   7.900   6.892  0.6514 -0.7435 -0.6635
  382MOL0     C51469   5.704   7.776   6.906  0.9790  0.3843 -0.5633
  382MOL0     C51470   5.689   7.688   6.804  1.0432  0.5705 -0.4927
  382MOL0     O51471   5.616   7.571   6.808  0.3222 -0.4004 -0.2623
  382MOL0     C51472   5.596   7.505   6.931 -0.4526 -0.3895 -0.6526
  382MOL0     C51473   5.495   7.396   6.900  0.2760  0.4338  0.8632
  382MOL0     C51474   5.537   7.256   6.962 -0.3052 -0.8857 -0.0858
  382MOL0     C51475   5.442   7.143   6.929 -0.4576 -0.8334 -0.5399
  382MOL0     C51476   5.505   7.003   6.935 -0.8573  0.5466  0.1015
  382MOL0     C51477   5.418   6.886   6.899  0.7371 -0.1553 -1.0768
  382MOL0     C51478   5.288   6.847   6.981  0.2182  0.1135 -0.3235
  382MOL0     C51479   5.327   6.786   7.118 -0.1574  0.6057  0.5821
  382MOL0    Cl51480   5.188   6.802   7.248  0.3785 -0.0666  0.2065
  382MOL0     C51481   5.745   7.725   6.682  0.7814 -0.2418 -0.3580
  382MOL0     C51482   5.812   7.847   6.659  0.2026  0.2986 -0.1937
  382MOL0     O51483   5.800   8.186   6.861 -0.1661 -0.6664  0.2051
  382MOL0     C51484   6.002   8.364   6.845  0.5300 -0.0650 -0.2351
  382MOL0     C51485   6.092   8.472   6.825  1.1452 -0.7909 -0.3942
  382MOL0     N51486   6.549   9.185   7.022  0.5772  0.0841 -1.3436
  382MOL0     N51487   6.528   9.313   7.013 -0.2010 -0.9529  0.5441
  382MOL0     C51488   7.395   9.869   6.873  0.2986 -0.4040 -0.2399
  382MOL0     C51489   7.525   9.816   6.888 -0.5991 -0.1621  0.9864
  382MOL0     C51490   7.884   9.559   6.923  0.2572 -0.4963 -0.3384
  382MOL0     C51491   7.995   9.607   6.992 -0.7379 -0.0230 -0.1567
  382MOL0     C51492   8.114   9.534   6.987 -0.0382 -0.4563  0.7619
  382MOL0     C51493   8.129   9.435   6.890  0.2626 -0.8110  0.9220
  382MOL0     O51494   8.253   9.390   6.855  0.2887 -0.3811  0.0812
  382MOL0     C51495   8.277   9.251   6.888 -0.8083 -0.2644  0.0363
  382MOL0     C51496   8.354   9.245   7.017 -0.0103 -0.1691 -0.6159
  382MOL0     C51497   8.498   9.287   6.991  0.4918  0.0943  0.5622
  382MOL0     C51498   8.587   9.243   7.107 -0.1315  0.1536  0.4503
  382MOL0     C51499   8.630   9.097   7.093  0.7415  0.1614  0.6717
  382MOL0     C51500   8.659   8.975   7.073 -0.0983  0.2220 -0.5126
  382MOL0     C51501   8.020   9.391   6.823 -0.2029  0.8825 -0.6139
  382MOL0     C51502   7.894   9.452   6.839  0.2362  0.9142  0.1314
  382MOL0     H51503   7.421   9.488   6.895  1.4194 -0.5874 -0.3811
  382MOL0     H51504   7.207   9.609   6.902  0.4473 -1.5606 -0.0747
  382MOL0     H51505   7.061   9.712   6.739  1.6629  0.2542 -0.3207
  382MOL0     H51506   6.999   9.744   6.913 -0.7001 -0.9082 -0.6727
  382MOL0     H51507   6.914   9.957   6.824  1.6831  1.2847 -1.3916
  382MOL0     H51508   6.951   9.902   6.658 -2.1946 -1.4083 -1.3849
  382MOL0     H51509   6.731   9.871   6.751  1.4261  1.4781 -1.2632
  382MOL0     H51510   6.791   9.727   6.655 -0.4045  0.1983 -0.9900
  382MOL0     H51511   6.829   9.606   6.887  0.1569  0.0701  0.4617
  382MOL0     H51512   6.766   9.744   6.964  1.8424 -3.6584  2.5237
  382MOL0     H51513   6.592   9.582   6.956  0.9320 -1.6157 -0.8803
  382MOL0     H51514   6.545   9.711   6.839 -1.3250 -0.3466  2.1169
  382MOL0     H51515   6.642   9.564   6.663 -0.4730 -2.0819 -0.1526
  382MOL0     H51516   6.645   9.436   6.782  2.4344  0.6917 -1.6541
  382MOL0     H51517   6.406   9.565   6.658  0.4470 -1.5014 -3.8115
  382MOL0     H51518   6.453   9.395   6.654  1.2040 -1.5195  1.7078
  382MOL0     H51519   6.265   9.421   6.830 -0.3309  1.7216 -0.2757
  382MOL0     H51520   6.372   9.517   6.924  2.4982 -0.6670  0.4046
  382MOL0     H51521   6.368   9.173   6.760  0.9576 -1.7529  0.6231
  382MOL0     H51522   6.605   8.947   6.824  0.3326 -0.6780  0.7207
  382MOL0     H51523   6.561   8.909   6.984 -0.1086 -0.4350 -1.4735
  382MOL0     H51524   6.338   8.962   6.773  1.5816  0.3200 -1.4386
  382MOL0     H51525   6.320   8.879   6.933 -1.1537  2.7961  0.2667
  382MOL0     H51526   6.431   8.694   6.885 -1.4784 -2.4513 -1.1499
  382MOL0     H51527   6.485   8.735   6.732 -0.6915 -3.7068  0.5958
  382MOL0     H51528   6.231   8.766   6.663  1.9470 -1.8743 -3.0096
  382MOL0     H51529   6.190   8.716   6.827  0.8342  0.2407  0.9391
  382MOL0     H51530   6.248   8.329   6.556  1.6056 -1.4658  1.6473
  382MOL0     H51531   5.984   8.125   6.507 -0.3416  2.2486 -0.4695
  382MOL0     H51532   6.146   8.155   6.455  1.5136 -1.5385  1.4981
  382MOL0     H51533   6.124   8.044   6.589 -2.2034 -2.7083  0.6895
  382MOL0     H51534   5.787   7.963   6.980  1.1882  1.0833 -2.0023
  382MOL0     H51535   5.655   7.749   6.999 -0.2361  2.3858 -0.5600
  382MOL0     H51536   5.692   7.458   6.952 -0.9860 -1.2833 -0.1612
  382MOL0     H51537   5.561   7.570   7.011  0.2726  0.9750 -1.4097
  382MOL0     H51538   5.400   7.420   6.948  1.3401  3.2354  1.8168
  382MOL0     H51539   5.475   7.386   6.794  1.0296 -2.6274  0.9184
  382MOL0     H51540   5.548   7.264   7.071 -3.0841  1.4172  0.1534
  382MOL0     H51541   5.638   7.230   6.929 -0.1575  0.4280 -0.7460
  382MOL0     H51542   5.356   7.154   6.996 -1.1280  1.6732 -1.7238
  382MOL0     H51543   5.395   7.149   6.831  2.0617  0.4495 -1.7659
  382MOL0     H51544   5.541   6.983   7.036  0.4442 -1.1689 -0.6596
  382MOL0     H51545   5.585   6.995   6.861 -0.5083 -0.4208  0.5774
  382MOL0     H51546   5.389   6.911   6.797 -1.1284  0.9172 -0.3290
  382MOL0     H51547   5.486   6.800   6.897  0.5635 -0.3001 -0.8459
  382MOL0     H51548   5.254   6.761   6.923 -0.2514  0.8154 -1.1105
  382MOL0     H51549   5.224   6.935   6.987  1.1178  1.1571 -3.8482
  382MOL0     H51550   5.414   6.844   7.150  1.8121 -2.7320  1.7921
  382MOL0     H51551   5.373   6.687   7.117  2.1787  1.5996 -1.6159
  382MOL0     H51552   5.728   7.653   6.602  2.0572  1.1936 -1.9879
  382MOL0     H51553   5.871   7.852   6.569  1.1331  3.5184  0.4777
  382MOL0     H51554   5.957   8.362   6.943  1.4456  0.7000  0.2167
  382MOL0     H51555   6.101   8.548   6.902  2.4609  0.2540 -1.5375
  382MOL0     H51556   7.367   9.974   6.866  1.0857  0.2071  3.4876
  382MOL0     H51557   7.605   9.890   6.885 -1.4008  0.9250 -4.3473
  382MOL0     H51558   7.993   9.698   7.052 -0.9143  2.0689 -3.1544
  382MOL0     H51559   8.198   9.552   7.053  0.4470 -0.3916  0.1437
  382MOL0     H51560   8.188   9.188   6.900 -1.8870  1.0813 -0.6792
  382MOL0     H51561   8.340   9.201   6.813  0.5339  2.2734 -0.6342
  382MOL0     H51562   8.359   9.142   7.055  0.3400 -0.3491 -1.1486
  382MOL0     H51563   8.304   9.309   7.090  2.3671 -0.7668  1.6901
  382MOL0     H51564   8.511   9.392   6.965  1.2682  0.0060  0.5686
  382MOL0     H51565   8.535   9.234   6.902 -1.6974 -1.6864  0.6151
  382MOL0     H51566   8.535   9.262   7.201 -1.3419 -3.6318  0.7234
  382MOL0     H51567   8.686   9.289   7.108  0.8832 -1.8131 -1.3171
  382MOL0     H51568   8.676   8.872   7.048 -0.6671  0.5759 -2.5381
  382MOL0     H51569   8.027   9.313   6.748  1.4001  2.5482 -2.3226
  382MOL0     H51570   7.808   9.415   6.784  0.0528  0.7467  0.5286
  383MOL0     O51571   6.969   0.790   8.645  0.1493 -0.2264  0.2948
  383MOL0     C51572   7.018   0.807   8.529 -0.7692 -0.7163 -0.1709
  383MOL0     O51573   7.150   0.829   8.509  0.2566  0.8964 -0.1019
  383MOL0     C51574   7.240   0.818   8.619  0.6451  0.0331  0.4602
  383MOL0     C51575   7.325   0.706   8.629  0.1450 -0.6134 -0.1542
  383MOL0     C51576   7.427   0.692   8.723 -0.0494 -0.7781  0.0547
  383MOL0     C51577   7.441   0.787   8.831  0.2707 -0.5042  0.0462
  383MOL0     O51578   7.532   0.790   8.938  0.2936  0.2358 -0.3889
  383MOL0     C51579   7.633   0.685   8.954  0.3663  0.2623 -0.8150
  383MOL0     C51580   7.610   0.619   9.088  0.3035 -0.7212 -0.3589
  383MOL0     C51581   7.497   0.518   9.078 -0.3739 -0.9149  0.2030
  383MOL0     C51582   7.497   0.443   9.202 -0.2290  1.0868 -0.4329
  383MOL0     C51583   7.370   0.359   9.200  0.1830 -0.3217  0.8267
  383MOL0     C51584   7.373   0.242   9.300  0.3343  0.0629 -0.0145
  383MOL0     C51585   7.375   0.284   9.448 -0.2557  0.0373  0.2665
  383MOL0     C51586   7.385   0.153   9.524  0.4638  0.0765  0.2386
  383MOL0     N51587   7.422   0.186   9.661 -0.3898 -0.6317  0.0116
  383MOL0     C51588   7.369   0.277   9.754  0.5857 -0.1295 -0.1552
  383MOL0     C51589   7.470   0.282   9.843 -0.9107 -0.6015  0.0262
  383MOL0     C51590   7.472   0.364   9.964 -0.2135  0.2886  0.8854
  383MOL0     C51591   7.571   0.483   9.942  0.3606 -0.7686 -0.0121
  383MOL0     C51592   7.603   0.537  10.083  0.6672  0.0806 -0.5020
  383MOL0     C51593   7.686   0.668  10.063 -0.5288 -0.1738  0.0163
  383MOL0     O51594   7.700   0.742  10.184 -0.2845 -0.5123  0.0821
  383MOL0     C51595   7.785   0.844  10.197 -0.6350 -0.3097  0.6084
  383MOL0     C51596   7.825   0.885  10.317  0.2366 -0.1628 -0.2862
  383MOL0     C51597   7.924   0.986  10.345 -0.8983 -0.9983 -0.1323
  383MOL0     C51598   7.938   1.026  10.489  0.3447 -0.6536  0.5344
  383MOL0     C51599   7.976   1.052  10.232 -0.8316  0.0171 -0.2724
  383MOL0     C51600   8.080   1.158  10.245 -0.0982  0.0244 -0.4412
  383MOL0     O51601   8.074   1.233  10.362 -0.8134  0.0597 -0.1190
  383MOL0     C51602   8.192   1.302  10.390  0.1341  0.2806 -0.3817
  383MOL0     C51603   8.319   1.248  10.397  0.2353 -0.6251  0.0798
  383MOL0     C51604   8.433   1.332  10.407  0.6111  0.1755 -0.3291
  383MOL0     C51605   8.421   1.470  10.435  0.6452  0.1624 -0.3247
  383MOL0     O51606   8.531   1.550  10.450 -0.6012  0.0163 -0.5760
  383MOL0     C51607   8.508   1.689  10.452 -0.0442  0.4595 -0.7410
  383MOL0     C51608   8.463   1.743  10.587  0.4196  1.1619 -0.9547
  383MOL0     C51609   8.408   1.892  10.578 -0.2540  0.5199  0.2125
  383MOL0     C51610   8.365   1.973  10.703  0.2412 -0.2899  1.3118
  383MOL0     C51611   8.372   2.128  10.683  0.0068 -0.1178 -0.1721
  383MOL0     C51612   8.318   2.206  10.803  0.0935  0.2157 -0.1894
  383MOL0     C51613   8.418   2.211  10.914 -0.4915 -0.5616  0.1623
  383MOL0     C51614   8.376   2.301  11.032 -0.9533  0.2420  0.3930
  383MOL0    Cl51615   8.507   2.317  11.159  0.0835 -0.0885 -0.2324
  383MOL0     C51616   8.285   1.520  10.430  0.1067 -0.1962 -0.6468
  383MOL0     C51617   8.175   1.436  10.406  0.0826 -0.5221 -0.3930
  383MOL0     O51618   8.156   1.168  10.147  1.1509 -0.7429  0.4200
  383MOL0     C51619   7.927   1.009  10.103  0.7170  0.6267  0.5103
  383MOL0     C51620   7.837   0.899  10.085 -0.4263  0.2991 -0.9273
  383MOL0     N51621   7.579   0.208   9.802 -1.1168  0.0195 -0.3258
  383MOL0     N51622   7.548   0.144   9.698 -0.3984 -0.5042 -0.2764
  383MOL0     C51623   7.353   0.896   8.822  0.2155 -0.1387  0.4572
  383MOL0     C51624   7.261   0.914   8.724  0.2681  0.0364  0.2446
  383MOL0     C51625   6.926   0.826   8.418 -0.5567  0.7178  0.2822
  383MOL0     C51626   6.964   0.793   8.285  0.2698  0.1763  0.8087
  383MOL0     C51627   6.867   0.800   8.180 -0.7161 -0.9604 -0.2680
  383MOL0     C51628   6.742   0.854   8.202  0.0874 -0.0674 -0.1539
  383MOL0     O51629   6.659   0.870   8.095  0.2030  0.1358 -0.5513
  383MOL0     C51630   6.595   0.999   8.076 -0.1895 -0.6155 -0.7082
  383MOL0     C51631   6.684   1.117   8.063  0.7569 -0.5704 -0.3077
  383MOL0     C51632   6.596   1.242   8.031 -0.4532 -0.2598 -0.4285
  383MOL0     C51633   6.665   1.373   8.010  0.2251 -0.5994  0.9102
  383MOL0     C51634   6.780   1.400   8.096  0.0282 -0.0781  0.0422
  383MOL0     C51635   6.881   1.427   8.154 -0.2160  0.5856 -0.3410
  383MOL0     C51636   6.709   0.879   8.339  0.0324  0.0604  0.1450
  383MOL0     C51637   6.792   0.862   8.447 -0.5841 -1.3143  0.2462
  383MOL0     H51638   7.309   0.632   8.551 -1.7724  0.5918 -0.9777
  383MOL0     H51639   7.493   0.607   8.715  1.6704  0.3264  1.6067
  383MOL0     H51640   7.637   0.606   8.878 -3.3460  1.5070 -2.5210
  383MOL0     H51641   7.731   0.735   8.961  1.3413 -1.6397 -0.2330
  383MOL0     H51642   7.705   0.573   9.116  0.4898 -1.3166 -1.9043
  383MOL0     H51643   7.579   0.701   9.154 -0.8177 -0.2977 -1.4002
  383MOL0     H51644   7.402   0.570   9.060 -0.0336 -0.3466  0.0094
  383MOL0     H51645   7.518   0.459   8.989  3.2538 -1.3209  1.1646
  383MOL0     H51646   7.591   0.388   9.212  1.7058  4.3043  0.6998
  383MOL0     H51647   7.497   0.488   9.302  0.8379 -2.6133  1.3835
  383MOL0     H51648   7.275   0.414   9.196 -0.6408 -1.5581  2.5145
  383MOL0     H51649   7.372   0.309   9.103 -3.5500  1.7012 -0.4869
  383MOL0     H51650   7.282   0.186   9.275 -0.8692  0.4695  3.0749
  383MOL0     H51651   7.460   0.180   9.277 -0.0447 -0.8664  1.0036
  383MOL0     H51652   7.466   0.343   9.463 -0.1307 -0.3677  1.1090
  383MOL0     H51653   7.287   0.344   9.474 -1.7003 -2.2674  0.9792
  383MOL0     H51654   7.463   0.090   9.481 -0.4498 -0.2024 -1.0761
  383MOL0     H51655   7.296   0.089   9.523  0.3117  0.1627  2.7224
  383MOL0     H51656   7.271   0.323   9.747  1.0947  1.2167  1.1198
  383MOL0     H51657   7.371   0.400   9.982 -1.0987 -1.2816 -0.6357
  383MOL0     H51658   7.505   0.298  10.045  0.7961 -0.5043 -0.1336
  383MOL0     H51659   7.533   0.563   9.879  0.2941 -1.7534 -1.2694
  383MOL0     H51660   7.654   0.448   9.881 -0.0280  0.0527 -1.0280
  383MOL0     H51661   7.669   0.475  10.145 -0.5179  0.2529  0.9790
  383MOL0     H51662   7.506   0.561  10.127 -0.5968 -3.1480 -1.1768
  383MOL0     H51663   7.626   0.740  10.007  1.7221  0.1593 -2.1284
  383MOL0     H51664   7.783   0.650  10.016 -0.2786  0.6564  0.1863
  383MOL0     H51665   7.781   0.834  10.403 -1.9488 -1.4516 -2.0630
  383MOL0     H51666   7.924   1.134  10.503  3.5935  0.0048 -0.4306
  383MOL0     H51667   7.876   0.963  10.553  0.0063 -0.5606  0.2960
  383MOL0     H51668   8.039   1.010  10.528 -0.0691  1.6012  2.8325
  383MOL0     H51669   8.319   1.145  10.361  1.3636 -0.2401 -1.1085
  383MOL0     H51670   8.527   1.285  10.382 -1.2182 -3.4850 -0.9736
  383MOL0     H51671   8.608   1.729  10.431  0.6257 -1.0954 -0.6851
  383MOL0     H51672   8.439   1.707  10.369 -2.9191 -3.0178  0.6635
  383MOL0     H51673   8.384   1.681  10.631  0.6368 -0.6678 -2.9866
  383MOL0     H51674   8.543   1.732  10.660  1.4743  0.3108 -2.2074
  383MOL0     H51675   8.323   1.900  10.509 -0.0959  0.5814  0.0246
  383MOL0     H51676   8.487   1.944  10.523  0.6014 -0.4755  0.4635
  383MOL0     H51677   8.260   1.948  10.723 -0.3661  1.0173 -0.0649
  383MOL0     H51678   8.430   1.939  10.785 -0.6666  1.4565  2.8324
  383MOL0     H51679   8.321   2.163  10.593 -0.1735 -0.0931 -0.0594
  383MOL0     H51680   8.476   2.155  10.666  0.2592 -1.5418 -1.0653
  383MOL0     H51681   8.300   2.309  10.773  0.1651  1.6771  4.1328
  383MOL0     H51682   8.224   2.166  10.843 -0.3732  0.6574 -0.8192
  383MOL0     H51683   8.517   2.242  10.879 -1.0447  2.0614  0.7365
  383MOL0     H51684   8.424   2.108  10.953 -3.0419 -0.2808  1.5624
  383MOL0     H51685   8.290   2.251  11.078 -0.0988  0.4249  2.3052
  383MOL0     H51686   8.352   2.405  11.007  2.5619  1.3356  1.0885
  383MOL0     H51687   8.268   1.627  10.435  1.0296 -0.0649 -0.1050
  383MOL0     H51688   8.073   1.474  10.404  0.5985  0.8809 -0.9230
  383MOL0     H51689   7.962   1.067  10.017  0.3532  0.2431  0.1007
  383MOL0     H51690   7.803   0.862   9.988  1.0340  1.9829 -2.1497
  383MOL0     H51691   7.364   0.964   8.906 -0.5667 -1.1356  1.4017
  383MOL0     H51692   7.191   0.997   8.734 -0.3850 -0.6248  1.4420
  383MOL0     H51693   7.065   0.767   8.256  0.4462  1.9673 -0.3382
  383MOL0     H51694   6.888   0.780   8.075 -0.9625 -2.7804 -0.0102
  383MOL0     H51695   6.539   0.980   7.984 -2.0180  0.1849  0.1913
  383MOL0     H51696   6.535   1.026   8.163  2.8854  0.6629  1.1968
  383MOL0     H51697   6.760   1.106   7.985  2.3012 -3.7346  1.4884
  383MOL0     H51698   6.732   1.137   8.159 -0.7577  3.3856 -0.1781
  383MOL0     H51699   6.537   1.256   8.122 -1.8030 -1.4052 -1.0820
  383MOL0     H51700   6.530   1.224   7.945 -2.1631  1.2230  0.5078
  383MOL0     H51701   6.596   1.458   8.016 -0.9178 -1.2898 -1.3822
  383MOL0     H51702   6.694   1.369   7.905 -0.5940 -1.1774  0.6964
  383MOL0     H51703   6.965   1.440   8.220 -1.1006  1.2466  0.6791
  383MOL0     H51704   6.609   0.909   8.368 -0.2231  0.0549 -0.6903
  383MOL0     H51705   6.762   0.883   8.549  1.8455 -0.4949  0.8598
  384MOL0     O51706   7.689   1.724   0.423 -0.4905 -0.4649 -0.6009
  384MOL0     C51707   7.715   1.850   0.419  0.0415  0.2508  0.2365
  384MOL0     O51708   7.832   1.912   0.394 -0.1553 -0.3817 -0.1896
  384MOL0     C51709   7.929   1.834   0.346 -0.4585 -0.3672 -0.1348
  384MOL0     C51710   7.993   1.875   0.231 -0.1957 -0.1636 -0.4211
  384MOL0     C51711   8.105   1.806   0.193 -0.0324 -0.9153  0.1459
  384MOL0     C51712   8.152   1.691   0.256 -0.1986 -0.1180 -0.3907
  384MOL0     O51713   8.250   1.612   0.194  0.1998  0.3546 -0.2555
  384MOL0     C51714   8.263   1.483   0.250 -0.5193  0.8046  0.1969
  384MOL0     C51715   8.372   1.412   0.178 -0.7031  0.0457 -0.0668
  384MOL0     C51716   8.343   1.328   0.047 -0.5978  0.1654  0.5456
  384MOL0     C51717   8.343   1.419  -0.071 -0.1280  0.6567  0.6850
  384MOL0     C51718   8.277   1.367  -0.199 -0.3735 -0.5719 -0.3659
  384MOL0     C51719   8.347   1.250  -0.257  1.1436 -0.7895  1.3101
  384MOL0     C51720   8.238   1.172  -0.344 -0.6446 -0.3218 -0.8443
  384MOL0     C51721   8.297   1.075  -0.444 -0.1231 -0.0876  0.4339
  384MOL0     N51722   8.216   0.971  -0.512 -0.4888 -0.2068 -0.4257
  384MOL0     C51723   8.160   0.858  -0.460 -0.4194 -0.2564 -0.1219
  384MOL0     C51724   8.063   0.825  -0.541 -0.4861 -0.1796 -0.4981
  384MOL0     C51725   7.970   0.707  -0.526  0.5330  1.2222  0.8311
  384MOL0     C51726   7.942   0.671  -0.377 -0.6183 -0.2796  0.1664
  384MOL0     C51727   7.856   0.548  -0.372 -0.3580  0.0017 -0.1422
  384MOL0     C51728   7.719   0.568  -0.427 -0.0701 -0.0623 -0.3711
  384MOL0     O51729   7.665   0.688  -0.379 -0.2124 -0.2788 -0.5233
  384MOL0     C51730   7.599   0.769  -0.464 -0.5229 -0.7490 -0.4539
  384MOL0     C51731   7.495   0.733  -0.546  0.0904  0.7461 -0.2102
  384MOL0     C51732   7.442   0.838  -0.629 -0.2727  0.9756  0.4857
  384MOL0     C51733   7.312   0.806  -0.704 -0.8321  0.1863 -0.1567
  384MOL0     C51734   7.500   0.963  -0.636  0.0231  1.0218 -0.5593
  384MOL0     C51735   7.432   1.084  -0.696 -0.2202 -1.1385  0.2820
  384MOL0     O51736   7.457   1.198  -0.630  0.2225  0.0656 -0.3429
  384MOL0     C51737   7.386   1.313  -0.665 -0.2515 -0.2152  1.0548
  384MOL0     C51738   7.247   1.319  -0.662  0.1608  0.1439 -0.1841
  384MOL0     C51739   7.180   1.443  -0.685  0.3206 -0.0744  0.1047
  384MOL0     C51740   7.255   1.551  -0.736 -0.7894  0.4749 -0.3205
  384MOL0     O51741   7.208   1.676  -0.772 -0.2440 -0.0390  0.8530
  384MOL0     C51742   7.069   1.705  -0.735 -0.0186  0.3934  0.4113
  384MOL0     C51743   7.031   1.826  -0.817  0.2576 -0.1416  1.7057
  384MOL0     C51744   7.112   1.960  -0.797 -0.1797 -0.3089  0.6851
  384MOL0     C51745   7.090   2.016  -0.660 -1.2388 -0.4252 -0.2837
  384MOL0     C51746   7.129   2.159  -0.633 -1.2426 -0.3037 -0.6738
  384MOL0     C51747   7.278   2.189  -0.675  1.0144 -0.1986  0.3901
  384MOL0     C51748   7.323   2.327  -0.634  0.4138 -0.9869  0.2220
  384MOL0     C51749   7.473   2.353  -0.664 -0.7484  0.0051 -0.2149
  384MOL0    Cl51750   7.565   2.322  -0.509  0.5443 -0.0056  0.3804
  384MOL0     C51751   7.394   1.543  -0.737  0.2794  0.1111 -0.1269
  384MOL0     C51752   7.460   1.426  -0.702  0.2881  0.2515 -0.6675
  384MOL0     O51753   7.353   1.076  -0.786 -0.8309 -0.5987  0.0899
  384MOL0     C51754   7.609   0.992  -0.553 -0.3567  0.7002 -0.0822
  384MOL0     C51755   7.653   0.890  -0.464  1.0030 -0.4293 -0.2400
  384MOL0     N51756   8.063   0.908  -0.650  0.4530 -0.9741  0.2577
  384MOL0     N51757   8.155   1.002  -0.628  0.4137 -0.1839 -0.1212
  384MOL0     C51758   8.089   1.653   0.371  1.1649 -0.3639 -0.7896
  384MOL0     C51759   7.975   1.719   0.419  0.1629  0.1635  0.1306
  384MOL0     C51760   7.603   1.938   0.429  0.3704  0.5847  0.4658
  384MOL0     C51761   7.477   1.888   0.456 -0.6445 -0.0337  0.0978
  384MOL0     C51762   7.363   1.966   0.431 -0.6272  1.0094  0.4652
  384MOL0     C51763   7.369   2.095   0.394 -0.7026 -0.1207  0.6858
  384MOL0     O51764   7.266   2.182   0.391 -0.8015 -0.1924 -0.3973
  384MOL0     C51765   7.135   2.129   0.372 -0.4447 -0.5225  0.1684
  384MOL0     C51766   7.060   2.149   0.501 -0.5229  0.6694  1.0028
  384MOL0     C51767   7.016   2.299   0.509 -0.2252  0.4995 -0.4223
  384MOL0     C51768   6.960   2.342   0.639  1.6098 -0.8235 -0.7898
  384MOL0     C51769   6.950   2.494   0.636  0.2295 -0.1092  0.0110
  384MOL0     C51770   6.938   2.611   0.622  0.2437  0.6417 -0.1235
  384MOL0     C51771   7.499   2.146   0.370 -0.1092  0.3333  0.0833
  384MOL0     C51772   7.614   2.073   0.383  0.5348  0.5302 -0.2575
  384MOL0     H51773   7.961   1.963   0.177 -0.0998  0.5288  0.6068
  384MOL0     H51774   8.143   1.832   0.095 -1.2164 -1.0075 -0.3439
  384MOL0     H51775   8.290   1.483   0.356 -1.9978 -2.6224  0.7171
  384MOL0     H51776   8.169   1.428   0.243  0.1387 -0.3374  0.0609
  384MOL0     H51777   8.457   1.477   0.153 -0.8860 -0.0457 -0.9491
  384MOL0     H51778   8.413   1.341   0.250  2.1129  0.1625 -1.4180
  384MOL0     H51779   8.424   1.255   0.035 -0.9482 -0.1686  0.1607
  384MOL0     H51780   8.249   1.273   0.057 -0.4066 -0.3851 -0.5012
  384MOL0     H51781   8.298   1.516  -0.052  2.7643  2.0303  1.0161
  384MOL0     H51782   8.450   1.422  -0.093 -0.3661  0.6417 -0.5086
  384MOL0     H51783   8.171   1.347  -0.183 -0.6246 -0.0761 -1.3329
  384MOL0     H51784   8.267   1.445  -0.274  0.6105  1.7101  1.7588
  384MOL0     H51785   8.436   1.282  -0.311  0.1462 -1.7588 -1.0390
  384MOL0     H51786   8.384   1.183  -0.179  0.2893 -2.4255  0.3670
  384MOL0     H51787   8.193   1.116  -0.261 -0.9264  1.3888  0.1919
  384MOL0     H51788   8.176   1.249  -0.391  1.5874  1.1281 -1.5806
  384MOL0     H51789   8.376   1.021  -0.391 -0.5383  0.7501  1.9817
  384MOL0     H51790   8.338   1.142  -0.521 -1.0352 -1.3958 -1.2434
  384MOL0     H51791   8.185   0.819  -0.362 -3.0377 -0.5638  0.4850
  384MOL0     H51792   7.877   0.739  -0.573 -0.3273  0.6828  2.1304
  384MOL0     H51793   8.013   0.619  -0.575 -2.1234  0.7661 -0.9038
  384MOL0     H51794   7.897   0.759  -0.331  0.3934  1.5292 -2.0571
  384MOL0     H51795   8.035   0.635  -0.332 -0.2552  0.2019 -0.1951
  384MOL0     H51796   7.839   0.522  -0.267  0.0744  1.2059  0.2502
  384MOL0     H51797   7.902   0.461  -0.419  0.3959 -1.2165  2.6697
  384MOL0     H51798   7.651   0.487  -0.400  0.8231 -0.5203  0.6225
  384MOL0     H51799   7.729   0.580  -0.535 -0.0177  5.4550 -0.0645
  384MOL0     H51800   7.461   0.630  -0.550  0.9423  0.4012  0.9111
  384MOL0     H51801   7.323   0.822  -0.812  0.3115 -2.0025 -0.4056
  384MOL0     H51802   7.268   0.710  -0.676  2.5128 -1.4797 -0.1527
  384MOL0     H51803   7.247   0.887  -0.670 -0.5952  0.4027 -0.2202
  384MOL0     H51804   7.197   1.230  -0.623  2.4921 -1.1926 -0.0238
  384MOL0     H51805   7.072   1.450  -0.672  0.0998  0.9963 -1.8783
  384MOL0     H51806   7.015   1.623  -0.783 -0.4859  1.3220 -0.6892
  384MOL0     H51807   7.056   1.733  -0.630  1.7204  3.5781 -0.1084
  384MOL0     H51808   7.040   1.801  -0.923  0.7758  0.7093  1.5451
  384MOL0     H51809   6.925   1.852  -0.812  0.2825  1.0272 -1.6016
  384MOL0     H51810   7.072   2.033  -0.868 -0.9332  0.1354  1.5446
  384MOL0     H51811   7.217   1.937  -0.818 -0.0439  0.2036  0.7732
  384MOL0     H51812   6.990   2.004  -0.618 -1.1673 -1.4190 -0.3713
  384MOL0     H51813   7.147   1.950  -0.593 -1.3343 -0.1823  0.0421
  384MOL0     H51814   7.104   2.196  -0.533  0.6397  2.6496 -1.1722
  384MOL0     H51815   7.073   2.226  -0.699  1.6329  2.6871 -0.3667
  384MOL0     H51816   7.338   2.115  -0.621  3.2329  2.2471  1.4734
  384MOL0     H51817   7.287   2.176  -0.783  1.1118  0.9261  0.2599
  384MOL0     H51818   7.307   2.348  -0.528 -1.0359  1.0531 -0.3434
  384MOL0     H51819   7.274   2.413  -0.681 -0.4462 -2.1128 -1.0180
  384MOL0     H51820   7.475   2.458  -0.694  2.2593  0.0328 -0.1848
  384MOL0     H51821   7.506   2.288  -0.745  1.4537  3.1526 -2.0964
  384MOL0     H51822   7.449   1.628  -0.779 -0.4315  0.0013 -1.3242
  384MOL0     H51823   7.568   1.413  -0.702  0.1004 -1.6507 -1.5314
  384MOL0     H51824   7.662   1.087  -0.549  1.7227 -0.3162 -1.5990
  384MOL0     H51825   7.744   0.917  -0.411  2.1674 -0.9745 -1.8994
  384MOL0     H51826   8.106   1.567   0.436 -2.9018  1.4245  3.2104
  384MOL0     H51827   7.935   1.685   0.514  1.1111 -0.2571  0.3955
  384MOL0     H51828   7.467   1.786   0.494 -0.9532 -0.3890 -0.8953
  384MOL0     H51829   7.263   1.931   0.452 -0.3339  1.1892  2.3472
  384MOL0     H51830   7.083   2.188   0.296  2.5803  2.4598  0.1378
  384MOL0     H51831   7.130   2.026   0.336 -1.3772 -1.5248  2.8905
  384MOL0     H51832   7.123   2.114   0.583  3.1155 -0.4163 -1.9842
  384MOL0     H51833   6.972   2.085   0.495  0.9647 -1.5466  1.7172
  384MOL0     H51834   6.942   2.326   0.433  2.3791  2.0085 -2.5793
  384MOL0     H51835   7.098   2.368   0.490  0.1108 -0.3305 -2.2274
  384MOL0     H51836   7.022   2.307   0.722  3.9797  1.2821 -1.5427
  384MOL0     H51837   6.862   2.300   0.666  2.0426 -2.0586 -1.1097
  384MOL0     H51838   6.933   2.716   0.605 -0.6399  0.4104 -1.4522
  384MOL0     H51839   7.518   2.248   0.337  1.2809  0.1185  0.1932
  384MOL0     H51840   7.714   2.112   0.372  1.2675 -1.4648 -1.0321
  385MOL0     O51841   8.067   6.777   7.410 -0.0165  0.1252 -0.4495
  385MOL0     C51842   8.028   6.661   7.412  0.7061  0.7931 -0.7434
  385MOL0     O51843   7.895   6.627   7.392  0.0061  0.5322 -0.1800
  385MOL0     C51844   7.811   6.729   7.360 -0.0224 -0.4391 -0.4788
  385MOL0     C51845   7.775   6.733   7.226  0.2804 -0.9883 -1.0899
  385MOL0     C51846   7.696   6.841   7.191 -0.8934 -0.0390 -0.3655
  385MOL0     C51847   7.644   6.938   7.279  0.5216  0.3383 -0.3307
  385MOL0     O51848   7.571   7.038   7.223  0.1686 -0.2756 -0.1842
  385MOL0     C51849   7.461   7.080   7.309  0.9766 -1.2339  0.4153
  385MOL0     C51850   7.370   7.173   7.224 -0.1059  0.8256 -0.4954
  385MOL0     C51851   7.267   7.251   7.310 -0.0764  0.1189  0.1444
  385MOL0     C51852   7.167   7.332   7.236  1.0399 -1.0629 -0.2047
  385MOL0     C51853   7.052   7.395   7.317  0.5867  0.1084 -0.5101
  385MOL0     C51854   7.085   7.503   7.418  0.5248  0.1781  0.3180
  385MOL0     C51855   6.954   7.538   7.483  1.4417 -0.8737  0.6664
  385MOL0     C51856   6.996   7.651   7.581 -0.4614 -0.0154  0.7622
  385MOL0     N51857   6.882   7.719   7.633  0.3694 -0.6189  0.5876
  385MOL0     C51858   6.782   7.673   7.713 -0.4536  0.1292  0.5361
  385MOL0     C51859   6.709   7.779   7.737 -0.8005  0.1619  0.0465
  385MOL0     C51860   6.582   7.788   7.814 -0.4316 -0.0018 -0.6151
  385MOL0     C51861   6.469   7.725   7.731 -0.8493 -0.5513 -0.3809
  385MOL0     C51862   6.339   7.737   7.816 -0.9560  0.5776  0.1754
  385MOL0     C51863   6.222   7.663   7.753  0.3754  0.4495  0.1816
  385MOL0     O51864   6.142   7.748   7.662  0.0091  0.3128 -0.3353
  385MOL0     C51865   6.040   7.697   7.588  0.6924  0.2709  0.2334
  385MOL0     C51866   5.943   7.784   7.554  0.3568  0.0226  0.3765
  385MOL0     C51867   5.836   7.748   7.469  0.0575 -1.0241 -0.1196
  385MOL0     C51868   5.736   7.854   7.423  0.1074 -0.5844 -0.4060
  385MOL0     C51869   5.827   7.615   7.427  0.4550  0.0207 -0.1772
  385MOL0     C51870   5.708   7.563   7.346  0.2139 -0.3081 -0.4144
  385MOL0     O51871   5.671   7.441   7.383  0.5111 -0.7069 -0.8506
  385MOL0     C51872   5.541   7.395   7.361 -0.8472 -0.4465 -0.0489
  385MOL0     C51873   5.542   7.247   7.370 -0.2604  0.2844 -0.6510
  385MOL0     C51874   5.420   7.184   7.328 -0.6107 -0.3324  0.8324
  385MOL0     C51875   5.303   7.256   7.289 -0.4477 -0.0725  0.4784
  385MOL0     O51876   5.192   7.180   7.266  0.0007  0.1147 -0.4665
  385MOL0     C51877   5.060   7.250   7.272 -0.0344 -0.5779  0.8701
  385MOL0     C51878   4.950   7.173   7.192 -0.1476 -0.8387 -0.3880
  385MOL0     C51879   4.975   7.179   7.039 -0.0693 -0.6740  0.2946
  385MOL0     C51880   5.021   7.316   6.988  0.0389  0.1833  1.0579
  385MOL0     C51881   4.990   7.340   6.832  0.7903 -1.0477 -0.4397
  385MOL0     C51882   5.092   7.265   6.753  0.3764  0.6187  0.3554
  385MOL0     C51883   5.040   7.256   6.609 -1.2015  0.6987  0.5026
  385MOL0     C51884   5.135   7.189   6.515 -1.0415  0.0785  0.0765
  385MOL0    Cl51885   5.200   7.036   6.590  0.1633  0.3760 -0.1999
  385MOL0     C51886   5.313   7.396   7.269 -0.3759 -0.2440  0.5420
  385MOL0     C51887   5.429   7.463   7.315  0.2817  0.1868  0.4885
  385MOL0     O51888   5.656   7.633   7.262  0.4680  0.3730  0.1590
  385MOL0     C51889   5.928   7.534   7.466 -0.2401 -0.0421  0.1451
  385MOL0     C51890   6.036   7.564   7.542  0.3573 -0.0721  0.2798
  385MOL0     N51891   6.754   7.887   7.666  0.3488 -0.3341 -0.1533
  385MOL0     N51892   6.858   7.848   7.604  0.2563  0.4004 -0.5358
  385MOL0     C51893   7.668   6.911   7.411 -0.3825 -0.4312  0.1915
  385MOL0     C51894   7.751   6.811   7.451 -1.1451  0.2412  0.1193
  385MOL0     C51895   8.118   6.555   7.464 -0.5549 -0.4648 -1.0059
  385MOL0     C51896   8.253   6.586   7.479 -0.6560 -0.2519  0.5018
  385MOL0     C51897   8.337   6.481   7.531  0.3681 -0.9037  0.4594
  385MOL0     C51898   8.288   6.359   7.564  0.5007  0.0334 -0.1006
  385MOL0     O51899   8.358   6.258   7.626  0.2832  0.1436  1.0523
  385MOL0     C51900   8.502   6.254   7.607  0.2928  0.0005 -0.6436
  385MOL0     C51901   8.578   6.132   7.673  0.1800 -0.4665 -0.2297
  385MOL0     C51902   8.588   6.008   7.583  0.3729 -0.2699  0.2357
  385MOL0     C51903   8.635   5.886   7.665  0.7717  0.0040 -0.2401
  385MOL0     C51904   8.523   5.840   7.756 -0.5582  0.2453 -0.5261
  385MOL0     C51905   8.418   5.805   7.815 -0.2066  0.1902  0.1356
  385MOL0     C51906   8.158   6.330   7.549 -0.3831  0.0650  0.7871
  385MOL0     C51907   8.072   6.430   7.503 -0.1126 -0.2292 -0.5708
  385MOL0     H51908   7.818   6.657   7.161  0.6918 -0.8776 -0.9549
  385MOL0     H51909   7.661   6.856   7.089  1.5799  1.6732 -1.0642
  385MOL0     H51910   7.402   6.996   7.349  1.4153 -0.9284  1.7629
  385MOL0     H51911   7.505   7.119   7.401 -1.1334 -2.5497  2.1129
  385MOL0     H51912   7.433   7.248   7.176  0.6494  0.1127 -0.6510
  385MOL0     H51913   7.303   7.121   7.155 -0.0480 -0.5426  0.4243
  385MOL0     H51914   7.214   7.178   7.371  1.3433 -1.1366 -0.0637
  385MOL0     H51915   7.328   7.317   7.372  3.7871 -2.3470 -0.6908
  385MOL0     H51916   7.208   7.418   7.183  2.9573 -1.3354  0.7794
  385MOL0     H51917   7.121   7.258   7.170  0.9372  0.7660 -2.2698
  385MOL0     H51918   6.978   7.429   7.244  1.7311  2.3380 -0.7064
  385MOL0     H51919   7.025   7.311   7.382  0.6946  0.6857  0.2927
  385MOL0     H51920   7.165   7.473   7.486  2.3673  1.4497 -1.1623
  385MOL0     H51921   7.122   7.595   7.370 -2.6553  0.6599 -1.4789
  385MOL0     H51922   6.875   7.562   7.411  2.3310  0.0190 -0.0355
  385MOL0     H51923   6.911   7.459   7.546  0.1865  0.6511  1.7761
  385MOL0     H51924   7.069   7.722   7.541  0.3851  2.0916  5.4556
  385MOL0     H51925   7.059   7.608   7.659  1.0537 -0.5015 -0.6609
  385MOL0     H51926   6.761   7.572   7.749  2.7474 -0.1292  1.9669
  385MOL0     H51927   6.586   7.743   7.914 -1.3490  1.4213  0.0989
  385MOL0     H51928   6.562   7.887   7.856 -0.3116 -0.8348  1.5229
  385MOL0     H51929   6.508   7.624   7.715  3.0013 -0.4594  5.5172
  385MOL0     H51930   6.447   7.769   7.633  0.6328  0.9488 -0.0637
  385MOL0     H51931   6.312   7.840   7.839 -0.2243  0.9009 -0.3542
  385MOL0     H51932   6.341   7.689   7.914  1.8031  1.4449  0.6355
  385MOL0     H51933   6.142   7.638   7.823 -0.6135 -2.1890 -1.7290
  385MOL0     H51934   6.261   7.575   7.701  0.4712  1.0110 -0.7252
  385MOL0     H51935   5.955   7.883   7.598  1.3786  0.2600 -0.3982
  385MOL0     H51936   5.733   7.942   7.488  0.9387 -0.4448 -0.5492
  385MOL0     H51937   5.761   7.886   7.321  2.6694 -0.2452  0.2593
  385MOL0     H51938   5.630   7.827   7.428  0.0287 -0.2104  0.0142
  385MOL0     H51939   5.632   7.200   7.408 -0.0129 -1.9687 -3.6735
  385MOL0     H51940   5.407   7.076   7.326 -1.5528 -0.2211 -0.3897
  385MOL0     H51941   5.032   7.263   7.377  2.6558  3.7533  1.2982
  385MOL0     H51942   5.060   7.351   7.229  0.3033 -1.3818 -1.1271
  385MOL0     H51943   4.941   7.067   7.217  2.4500 -1.0368  0.0579
  385MOL0     H51944   4.850   7.210   7.212 -0.4602 -0.5652 -2.2808
  385MOL0     H51945   4.881   7.160   6.986  0.7091  3.9600 -3.4807
  385MOL0     H51946   5.049   7.101   7.020  0.5743 -0.3790  1.5104
  385MOL0     H51947   4.970   7.399   7.037 -0.2261  1.5480 -1.3787
  385MOL0     H51948   5.130   7.318   6.997  0.1370  4.1683  0.5202
  385MOL0     H51949   4.990   7.448   6.812 -0.7591 -1.0715 -0.7080
  385MOL0     H51950   4.890   7.301   6.809 -0.0041 -0.6587  2.0425
  385MOL0     H51951   5.188   7.311   6.778  0.3930 -0.0347  1.5773
  385MOL0     H51952   5.092   7.162   6.791 -2.6896  0.4281  0.0704
  385MOL0     H51953   5.004   7.356   6.584 -2.0395  0.1955 -0.3688
  385MOL0     H51954   4.960   7.182   6.605  0.1286 -0.8641 -4.1875
  385MOL0     H51955   5.224   7.253   6.508  0.2403 -1.8268 -2.2639
  385MOL0     H51956   5.087   7.178   6.418 -0.6047  0.8410 -0.2341
  385MOL0     H51957   5.233   7.456   7.228  0.1101  0.7742  1.0375
  385MOL0     H51958   5.423   7.572   7.310 -0.0269  0.1209 -1.2436
  385MOL0     H51959   5.926   7.434   7.422  0.9005  0.7932 -1.9443
  385MOL0     H51960   6.113   7.489   7.556 -2.1902 -2.5593  1.9599
  385MOL0     H51961   7.629   6.973   7.491 -2.5736 -0.7737 -0.5443
  385MOL0     H51962   7.780   6.801   7.555 -0.6425  0.6477  0.0179
  385MOL0     H51963   8.298   6.683   7.461  1.3718 -1.1946  0.2669
  385MOL0     H51964   8.437   6.517   7.550 -0.7371  1.4894  2.2776
  385MOL0     H51965   8.525   6.268   7.501  0.8023  2.4928 -0.2826
  385MOL0     H51966   8.543   6.346   7.651 -1.8455  0.1247  1.2917
  385MOL0     H51967   8.534   6.121   7.772  0.5463  1.4657  0.1927
  385MOL0     H51968   8.681   6.159   7.699  0.3655 -0.2170 -1.1696
  385MOL0     H51969   8.666   6.026   7.509  0.9166 -1.1796  0.5654
  385MOL0     H51970   8.496   5.979   7.532 -0.0693 -3.0197  2.3249
  385MOL0     H51971   8.722   5.915   7.724  2.0163 -0.7239 -1.6432
  385MOL0     H51972   8.657   5.804   7.595  0.2488  1.7066 -2.5270
  385MOL0     H51973   8.332   5.747   7.843 -2.1055  1.4645 -2.6060
  385MOL0     H51974   8.118   6.232   7.573  1.1053 -1.3110 -1.9501
  385MOL0     H51975   7.965   6.417   7.491 -0.4921 -0.1434  2.0500
  386MOL0     O51976   1.269   7.145  10.955  0.1886 -0.1761  0.3443
  386MOL0     C51977   1.197   7.059  10.905  0.3516  0.5649 -0.6147
  386MOL0     O51978   1.168   7.037  10.773  0.4348 -0.0456  0.6697
  386MOL0     C51979   1.164   7.146  10.692 -1.8080 -0.0947  0.0345
  386MOL0     C51980   1.274   7.224  10.641 -0.5448  0.7776  0.0358
  386MOL0     C51981   1.260   7.343  10.575 -0.3820  0.2420 -0.0216
  386MOL0     C51982   1.135   7.383  10.528 -0.2383  0.3296  0.2942
  386MOL0     O51983   1.135   7.493  10.451 -0.0365 -0.3062  0.4779
  386MOL0     C51984   1.032   7.588  10.456 -0.3684 -0.1768 -0.5993
  386MOL0     C51985   1.035   7.638  10.599 -0.3835  0.3550 -0.0708
  386MOL0     C51986   0.943   7.756  10.632 -0.9285  0.2791 -0.2437
  386MOL0     C51987   0.939   7.819  10.776  0.4961  0.0243  0.1557
  386MOL0     C51988   1.074   7.876  10.823  0.5132 -0.1239 -0.1892
  386MOL0     C51989   1.083   7.895  10.976  1.0378 -1.2686 -0.3227
  386MOL0     C51990   1.224   7.920  11.004  0.2375 -0.1175  0.0486
  386MOL0     C51991   1.216   8.004  11.138 -0.0027 -0.2512  0.1299
  386MOL0     N51992   1.213   8.154  11.116 -0.6408  0.4195 -0.0212
  386MOL0     C51993   1.325   8.229  11.113  0.0958 -0.7340 -0.8110
  386MOL0     C51994   1.282   8.362  11.117 -0.9326  0.6614  0.2556
  386MOL0     C51995   1.386   8.476  11.111 -0.4748  0.3249  0.5223
  386MOL0     C51996   1.324   8.606  11.169  0.0773 -0.6555  0.5516
  386MOL0     C51997   1.260   8.686  11.058 -0.1411  0.4127 -0.5603
  386MOL0     C51998   1.360   8.740  10.956 -0.1493  0.2715  0.0733
  386MOL0     O51999   1.493   8.768  11.008 -0.5023 -0.0089 -0.6115
  386MOL0     C52000   1.560   8.888  10.969  1.7056 -1.0306  0.8693
  386MOL0     C52001   1.668   8.910  11.053  0.3370  0.0848 -0.9725
  386MOL0     C52002   1.768   9.005  11.023  0.9866  0.4081 -0.5358
  386MOL0     C52003   1.884   9.006  11.129  0.0277  0.0131 -0.0567
  386MOL0     C52004   1.753   9.086  10.902  0.8652  0.1464  0.5765
  386MOL0     C52005   1.856   9.176  10.845  1.4591  0.0571 -0.0308
  386MOL0     O52006   1.809   9.288  10.767 -0.4774  0.4400 -0.1456
  386MOL0     C52007   1.891   9.377  10.696  0.6811  0.0532  0.2849
  386MOL0     C52008   1.883   9.521  10.707 -0.2996 -0.3021  0.2040
  386MOL0     C52009   1.959   9.609  10.624 -0.3136  0.1841 -0.5293
  386MOL0     C52010   2.048   9.552  10.529 -0.6065 -0.0364  0.2009
  386MOL0     O52011   2.126   9.625  10.440 -0.0655 -0.0170 -0.5850
  386MOL0     C52012   2.076   9.752  10.408 -0.1596  0.0034 -0.1816
  386MOL0     C52013   2.103   9.788  10.268  0.0837 -0.2127 -0.1256
  386MOL0     C52014   2.063   9.927  10.221 -0.6322  0.5188  0.3810
  386MOL0     C52015   2.105   9.957  10.074  0.7246  0.0203  0.0861
  386MOL0     C52016   2.049  10.090  10.021 -0.4808  0.9803 -0.6367
  386MOL0     C52017   2.112  10.219  10.072  0.2787  0.6506  0.4291
  386MOL0     C52018   2.100  10.337   9.976 -0.0529  0.6940  0.2711
  386MOL0     C52019   2.173  10.458  10.023 -0.9887 -0.6307  0.0832
  386MOL0    Cl52020   2.343  10.426  10.065 -0.0207  0.0901 -0.2899
  386MOL0     C52021   2.069   9.408  10.531  0.4694 -0.8066  1.0670
  386MOL0     C52022   1.985   9.327  10.610  0.0888  1.1152  0.1502
  386MOL0     O52023   1.972   9.147  10.868  0.5499  0.7685 -0.2692
  386MOL0     C52024   1.631   9.067  10.828 -0.6556 -0.1285  0.0127
  386MOL0     C52025   1.535   8.972  10.865 -0.8531  0.6770  0.0890
  386MOL0     N52026   1.140   8.348  11.113 -0.0604  0.1056  0.2816
  386MOL0     N52027   1.095   8.226  11.101 -0.4359  0.3350  0.4506
  386MOL0     C52028   1.028   7.295  10.559 -0.1362 -0.0906 -0.0471
  386MOL0     C52029   1.039   7.185  10.647 -0.3467  0.2185 -0.1577
  386MOL0     C52030   1.134   6.957  10.996 -0.1305  0.3725 -0.5217
  386MOL0     C52031   1.053   6.847  10.959  0.2292 -0.3158 -0.0539
  386MOL0     C52032   0.993   6.768  11.052 -0.5030  0.0704  0.4570
  386MOL0     C52033   1.022   6.776  11.185 -0.8232  0.4575  0.8412
  386MOL0     O52034   0.964   6.681  11.263  1.2467 -0.2237 -0.0311
  386MOL0     C52035   1.006   6.646  11.395  0.5152  0.0383 -0.2036
  386MOL0     C52036   0.941   6.733  11.502 -0.0027 -0.7596 -0.3849
  386MOL0     C52037   0.788   6.710  11.489 -0.3692 -0.3491  0.0453
  386MOL0     C52038   0.704   6.768  11.607  0.7240  0.2324 -0.7339
  386MOL0     C52039   0.709   6.911  11.601 -0.5922 -0.7541  0.4153
  386MOL0     C52040   0.714   7.034  11.607  0.0030 -0.5051 -1.1253
  386MOL0     C52041   1.114   6.870  11.229 -0.7299  0.0285  0.5166
  386MOL0     C52042   1.169   6.961  11.136  0.5983 -0.0711 -0.6269
  386MOL0     H52043   1.368   7.181  10.675 -1.0381 -1.0406 -0.8041
  386MOL0     H52044   1.356   7.388  10.555 -0.0963  0.3005  1.3993
  386MOL0     H52045   1.048   7.676  10.394 -2.5468  2.1248  1.8519
  386MOL0     H52046   0.931   7.552  10.433 -0.9488  1.9742 -1.6865
  386MOL0     H52047   1.014   7.555  10.667  2.2491  1.9279  2.9580
  386MOL0     H52048   1.132   7.674  10.635 -1.1611 -0.9776  3.7667
  386MOL0     H52049   0.960   7.833  10.555 -2.0959  0.6869 -0.1222
  386MOL0     H52050   0.843   7.717  10.611 -0.8414  0.4536 -1.0232
  386MOL0     H52051   0.876   7.908  10.763  0.9759  0.0371 -2.8404
  386MOL0     H52052   0.890   7.748  10.843 -1.6986  1.3775  0.0784
  386MOL0     H52053   1.152   7.804  10.797 -0.1022 -0.2231 -1.9431
  386MOL0     H52054   1.093   7.973  10.776 -1.0764  0.4220  0.2224
  386MOL0     H52055   1.019   7.978  11.009  3.4550  1.8332 -2.8635
  386MOL0     H52056   1.045   7.807  11.029  0.1270  1.7500  4.7165
  386MOL0     H52057   1.283   7.828  11.014 -2.2193 -1.6724  1.3710
  386MOL0     H52058   1.275   7.985  10.933  1.8527  1.1302  2.2351
  386MOL0     H52059   1.313   7.977  11.181 -0.2379 -3.7221 -1.2386
  386MOL0     H52060   1.136   7.969  11.204  0.3133  0.8514  1.1463
  386MOL0     H52061   1.429   8.200  11.106 -0.1070 -1.2340 -1.9713
  386MOL0     H52062   1.475   8.452  11.170 -0.8558 -1.0249  0.5589
  386MOL0     H52063   1.428   8.502  11.013 -0.4043  2.0432  0.9659
  386MOL0     H52064   1.397   8.668  11.222 -2.8638  2.6164  1.1786
  386MOL0     H52065   1.252   8.580  11.247  1.0459  0.1954  1.7680
  386MOL0     H52066   1.225   8.780  11.102  3.8275  1.5141  0.6592
  386MOL0     H52067   1.180   8.636  11.003  1.0731  0.1579 -2.1430
  386MOL0     H52068   1.328   8.825  10.896  4.7779  1.4494 -1.3651
  386MOL0     H52069   1.372   8.662  10.880  1.4300  1.5342 -1.0444
  386MOL0     H52070   1.680   8.837  11.131 -1.7895  0.6608 -0.0044
  386MOL0     H52071   1.958   8.925  11.121  2.4844  1.6510  3.2331
  386MOL0     H52072   1.942   9.098  11.122  0.4891 -0.3836 -1.9350
  386MOL0     H52073   1.853   8.998  11.234  4.6055  0.7035  1.5703
  386MOL0     H52074   1.818   9.572  10.778  0.5564  0.8642  0.1670
  386MOL0     H52075   1.970   9.716  10.641  2.5712 -0.4421  2.9309
  386MOL0     H52076   1.971   9.771  10.433  0.2725 -0.0270  1.8542
  386MOL0     H52077   2.124   9.829  10.470  0.0693  0.4894 -0.9518
  386MOL0     H52078   2.208   9.774  10.241 -0.4518  0.6115 -2.9782
  386MOL0     H52079   2.061   9.712  10.202  0.8987  1.4814 -2.7327
  386MOL0     H52080   2.102  10.001  10.292  0.2904  0.9982 -0.5925
  386MOL0     H52081   1.954   9.924  10.224 -0.6927  1.5868 -0.2560
  386MOL0     H52082   2.214   9.961  10.063  0.6669  2.0507 -0.2035
  386MOL0     H52083   2.068   9.879  10.007 -1.7013  1.1946 -0.0625
  386MOL0     H52084   1.945  10.098  10.055 -0.1394 -0.4868  0.8625
  386MOL0     H52085   2.059  10.094   9.912  0.4673  1.0860 -0.5579
  386MOL0     H52086   2.088  10.251  10.174 -0.8255 -0.6425  0.5989
  386MOL0     H52087   2.220  10.201  10.074  0.4156  0.1833 -3.1733
  386MOL0     H52088   1.996  10.370   9.973 -1.3893 -2.9777 -2.9641
  386MOL0     H52089   2.152  10.313   9.882  1.1509 -2.5284  1.6077
  386MOL0     H52090   2.123  10.498  10.111  2.5620  1.2347  1.4402
  386MOL0     H52091   2.148  10.535   9.949  2.4677  0.7140  0.1422
  386MOL0     H52092   2.151   9.371  10.470  0.7550 -0.4615  1.2342
  386MOL0     H52093   2.001   9.220  10.605  1.2683  1.3400 -1.5928
  386MOL0     H52094   1.627   9.115  10.731  3.3241 -2.1561 -1.4049
  386MOL0     H52095   1.443   8.966  10.808 -1.3115  1.4369  0.7167
  386MOL0     H52096   0.925   7.314  10.529 -0.3004  0.8871  1.0600
  386MOL0     H52097   0.947   7.133  10.675  0.5100  0.0414  2.6267
  386MOL0     H52098   1.050   6.834  10.851  2.2913  3.2808 -0.7163
  386MOL0     H52099   0.916   6.696  11.027  0.3154 -0.1663 -1.5747
  386MOL0     H52100   0.982   6.541  11.417  1.6007  0.0402  1.1454
  386MOL0     H52101   1.115   6.653  11.393  0.4102  2.6640 -2.7200
  386MOL0     H52102   0.969   6.837  11.484  0.8654 -1.2821 -2.2969
  386MOL0     H52103   0.971   6.699  11.602  3.3659  1.6068 -0.4208
  386MOL0     H52104   0.761   6.604  11.485  0.6225 -0.9321  4.1574
  386MOL0     H52105   0.753   6.755  11.396  1.2498 -1.9200 -1.4039
  386MOL0     H52106   0.733   6.728  11.705 -0.3873  3.5547  1.1316
  386MOL0     H52107   0.601   6.741  11.584  0.3222 -0.4149  1.5611
  386MOL0     H52108   0.729   7.140  11.602  0.9323 -0.6675 -2.2365
  386MOL0     H52109   1.130   6.886  11.335 -1.3674  1.3729  0.4243
  386MOL0     H52110   1.238   7.033  11.180  1.6758 -1.2943 -0.2546
  387MOL0     O52111   2.436   2.660  10.171  0.3822  0.3484  0.7461
  387MOL0     C52112   2.553   2.687  10.176 -0.0354 -0.4546  0.6085
  387MOL0     O52113   2.622   2.769  10.091  0.0899  0.2620 -0.0566
  387MOL0     C52114   2.552   2.856  10.005  1.3836  0.3257  0.0089
  387MOL0     C52115   2.526   2.819   9.871  0.4475  0.5139  0.4943
  387MOL0     C52116   2.447   2.902   9.796 -0.0292  0.0922 -0.3403
  387MOL0     C52117   2.409   3.029   9.837  0.4075  0.1423  0.1022
  387MOL0     O52118   2.337   3.117   9.763 -0.8578 -0.3748  0.5120
  387MOL0     C52119   2.225   3.060   9.694  0.6038 -0.1439 -0.1376
  387MOL0     C52120   2.124   3.173   9.653 -0.4645  0.8967  0.1698
  387MOL0     C52121   2.164   3.285   9.555  0.2013  0.0274  0.8680
  387MOL0     C52122   2.047   3.349   9.480  0.7864 -0.5231  0.0252
  387MOL0     C52123   1.987   3.262   9.369 -0.3842  0.2779 -0.3094
  387MOL0     C52124   2.076   3.203   9.250  0.4167  0.1545  0.7122
  387MOL0     C52125   1.985   3.145   9.138  0.1518 -0.0297  0.1498
  387MOL0     C52126   1.914   3.257   9.067  0.0011  0.0358 -0.1247
  387MOL0     N52127   1.852   3.233   8.944  0.0846  0.0558 -0.4706
  387MOL0     C52128   1.904   3.244   8.823 -0.4104  0.4568  0.5706
  387MOL0     C52129   1.789   3.246   8.751  0.1499 -0.5390  1.1877
  387MOL0     C52130   1.783   3.253   8.594 -0.6168  0.2131  0.4497
  387MOL0     C52131   1.875   3.131   8.539  0.1444 -0.4655  0.4980
  387MOL0     C52132   1.845   2.986   8.582 -0.2961 -0.3468  0.0094
  387MOL0     C52133   1.958   2.921   8.653 -0.6736 -0.1145 -0.0290
  387MOL0     O52134   1.931   2.791   8.683 -0.0806  0.5630 -0.1602
  387MOL0     C52135   1.862   2.759   8.802 -0.1277 -0.3975  0.7727
  387MOL0     C52136   1.798   2.849   8.894  0.2166  0.2890 -0.2988
  387MOL0     C52137   1.711   2.811   8.995 -1.2298 -0.9951 -0.4903
  387MOL0     C52138   1.622   2.916   9.065 -0.6690  0.9625 -0.5680
  387MOL0     C52139   1.705   2.672   9.027  0.0593 -0.0312 -0.9992
  387MOL0     C52140   1.633   2.624   9.145 -0.5900  0.4164 -0.6507
  387MOL0     O52141   1.621   2.699   9.256  0.3717  0.9866 -0.5406
  387MOL0     C52142   1.535   2.664   9.353 -0.1164  0.8078 -0.0375
  387MOL0     C52143   1.564   2.551   9.437  0.1406  0.7931  0.4891
  387MOL0     C52144   1.470   2.519   9.540 -0.0665  0.9690  1.1252
  387MOL0     C52145   1.356   2.600   9.559  0.2815 -0.6835 -0.0932
  387MOL0     O52146   1.239   2.559   9.622  0.1952  0.1163 -0.4242
  387MOL0     C52147   1.229   2.419   9.663 -1.3219 -0.1306  1.3790
  387MOL0     C52148   1.098   2.381   9.721  0.7472 -0.1535 -0.7027
  387MOL0     C52149   0.984   2.384   9.630 -0.1980 -0.9210  0.0791
  387MOL0     C52150   0.865   2.297   9.663 -0.6600 -0.1882 -0.5160
  387MOL0     C52151   0.835   2.307   9.812 -1.3342  0.6267 -0.2879
  387MOL0     C52152   0.711   2.230   9.835  0.3123  0.2361 -0.7628
  387MOL0     C52153   0.692   2.180   9.983 -0.5273 -0.5885  0.1243
  387MOL0     C52154   0.541   2.149  10.014 -0.1639  0.0646 -0.6651
  387MOL0    Cl52155   0.524   2.084  10.174 -0.6606  0.3672  0.4477
  387MOL0     C52156   1.343   2.719   9.493  0.1777 -0.4220  0.7486
  387MOL0     C52157   1.429   2.745   9.387  0.1181  0.4008  0.4055
  387MOL0     O52158   1.585   2.511   9.133  0.7719  0.5160 -0.3622
  387MOL0     C52159   1.759   2.579   8.933  0.0695  0.2025 -0.6661
  387MOL0     C52160   1.831   2.620   8.820 -0.0309 -0.9307 -0.9846
  387MOL0     N52161   1.678   3.229   8.825 -0.0120 -1.3167 -0.0768
  387MOL0     N52162   1.714   3.225   8.944 -1.1795 -0.8802  0.4032
  387MOL0     C52163   2.450   3.075   9.958 -0.7378 -0.1095  0.4418
  387MOL0     C52164   2.521   2.985  10.047 -0.2176 -1.3401  0.6689
  387MOL0     C52165   2.626   2.613  10.280 -0.3123 -0.1566 -0.1022
  387MOL0     C52166   2.757   2.656  10.325 -0.8975 -0.4376 -0.5110
  387MOL0     C52167   2.835   2.564  10.401  0.0909 -0.0351  0.7436
  387MOL0     C52168   2.783   2.441  10.447 -0.3063  1.0445  0.0112
  387MOL0     O52169   2.856   2.365  10.538  0.4698 -0.1775  0.2162
  387MOL0     C52170   2.965   2.289  10.492  0.4098 -0.5410  1.2859
  387MOL0     C52171   3.028   2.194  10.603  0.2318  0.8275  0.0480
  387MOL0     C52172   3.143   2.096  10.536  0.6604  0.2246  0.2084
  387MOL0     C52173   3.202   1.986  10.628 -1.0427  0.1845 -0.5862
  387MOL0     C52174   3.269   2.055  10.733  0.1393  0.2719 -0.1480
  387MOL0     C52175   3.347   2.108  10.811  0.1516  0.0046  1.0202
  387MOL0     C52176   2.655   2.395  10.406 -0.1195 -0.5420 -0.5204
  387MOL0     C52177   2.584   2.485  10.322 -0.3643 -1.0284  0.0524
  387MOL0     H52178   2.545   2.716   9.842 -1.9435  0.6747 -2.0960
  387MOL0     H52179   2.428   2.880   9.691  0.8716 -0.1720 -0.4543
  387MOL0     H52180   2.252   3.004   9.604 -0.6608 -1.6076  0.3521
  387MOL0     H52181   2.164   2.987   9.749  2.2883 -1.2392  0.3727
  387MOL0     H52182   2.031   3.132   9.612 -1.4919  5.4324 -2.7903
  387MOL0     H52183   2.095   3.231   9.741 -3.6917  1.4613 -1.1048
  387MOL0     H52184   2.200   3.361   9.624 -0.3499  0.2400  0.9220
  387MOL0     H52185   2.249   3.249   9.496  0.8163  1.1392  1.0391
  387MOL0     H52186   1.972   3.391   9.547 -0.5443 -1.3370 -0.9093
  387MOL0     H52187   2.090   3.438   9.433  0.0333  0.7899  1.6938
  387MOL0     H52188   1.943   3.173   9.414  0.6796 -2.0524 -3.5206
  387MOL0     H52189   1.907   3.326   9.332 -0.9985 -0.1446  0.2785
  387MOL0     H52190   2.154   3.261   9.202  2.0033 -1.9008  0.6603
  387MOL0     H52191   2.137   3.126   9.298  0.1888 -0.5418 -0.0952
  387MOL0     H52192   2.052   3.091   9.072  0.6333 -0.1083  0.6997
  387MOL0     H52193   1.917   3.076   9.189  0.5837  0.5700  1.6026
  387MOL0     H52194   1.988   3.333   9.040  2.4835 -2.2788 -0.2635
  387MOL0     H52195   1.843   3.285   9.145  1.5733 -2.0416  2.1928
  387MOL0     H52196   2.006   3.244   8.785 -0.6339 -1.7291 -0.1640
  387MOL0     H52197   1.682   3.232   8.559 -0.1780  0.8073 -1.2784
  387MOL0     H52198   1.831   3.347   8.565 -1.7827  1.3648  2.0517
  387MOL0     H52199   1.976   3.156   8.575 -0.0108  0.8829  0.0609
  387MOL0     H52200   1.892   3.141   8.431 -0.6951 -0.2692  0.3833
  387MOL0     H52201   1.821   2.932   8.489  0.1496  0.8904 -0.8468
  387MOL0     H52202   1.755   2.978   8.644 -0.9786 -0.8747 -1.0050
  387MOL0     H52203   1.984   2.975   8.745  1.8309 -3.2041  1.2825
  387MOL0     H52204   2.049   2.920   8.593 -1.1259  1.9776 -0.8127
  387MOL0     H52205   1.803   2.955   8.873  2.6478  0.6893  1.7950
  387MOL0     H52206   1.650   2.943   9.168  0.5518 -1.1375 -0.2972
  387MOL0     H52207   1.630   3.004   9.001 -0.4713  0.2114 -1.5880
  387MOL0     H52208   1.519   2.880   9.065 -0.5016  0.4190  0.9020
  387MOL0     H52209   1.642   2.477   9.420 -0.0850  0.4019  1.0948
  387MOL0     H52210   1.491   2.423   9.588 -0.3632  0.1122 -0.4116
  387MOL0     H52211   1.231   2.353   9.575 -3.6573 -0.8874  1.8353
  387MOL0     H52212   1.310   2.383   9.728 -0.7211  0.9424  1.2505
  387MOL0     H52213   1.118   2.280   9.759 -1.4575 -1.1360 -1.9415
  387MOL0     H52214   1.076   2.445   9.806  2.7418 -1.7301  1.1072
  387MOL0     H52215   1.025   2.375   9.529  1.9567  0.7319  0.7354
  387MOL0     H52216   0.939   2.483   9.625  1.7160 -0.0827 -1.8639
  387MOL0     H52217   0.780   2.329   9.603  0.1061 -0.3357 -1.7297
  387MOL0     H52218   0.882   2.191   9.640 -0.5423  0.2904 -2.9124
  387MOL0     H52219   0.847   2.409   9.850 -0.6687  0.7764 -0.8861
  387MOL0     H52220   0.905   2.247   9.871 -1.9916  0.5542  0.4397
  387MOL0     H52221   0.620   2.285   9.810 -0.2258 -0.5150 -0.5090
  387MOL0     H52222   0.714   2.142   9.770  2.5017 -0.5520  0.2961
  387MOL0     H52223   0.733   2.251  10.055 -2.1994  0.0263  0.5293
  387MOL0     H52224   0.737   2.081   9.992 -1.0301 -1.0427 -1.8325
  387MOL0     H52225   0.505   2.074   9.944  3.4443 -1.8402 -0.7176
  387MOL0     H52226   0.480   2.239   9.997 -0.0629  0.0972 -0.8633
  387MOL0     H52227   1.249   2.774   9.500  0.9601  0.8636  1.6466
  387MOL0     H52228   1.398   2.832   9.330 -1.1191  0.2692  0.8473
  387MOL0     H52229   1.731   2.476   8.951  0.3493  0.2343 -0.0416
  387MOL0     H52230   1.871   2.542   8.756 -0.9765 -1.5530 -0.8347
  387MOL0     H52231   2.417   3.172   9.994  0.4241  0.2381  0.5941
  387MOL0     H52232   2.555   3.002  10.149 -1.3706 -2.1953  1.2162
  387MOL0     H52233   2.803   2.750  10.294  1.3995 -0.1459  3.1666
  387MOL0     H52234   2.935   2.592  10.433  0.7961 -0.4780 -0.9601
  387MOL0     H52235   2.924   2.227  10.412  0.6180  0.2218  0.5752
  387MOL0     H52236   3.044   2.354  10.453  0.0565  0.4667  2.1811
  387MOL0     H52237   2.950   2.147  10.663 -2.2401  2.2740 -1.8630
  387MOL0     H52238   3.082   2.261  10.671 -0.2942  1.7542 -0.4311
  387MOL0     H52239   3.214   2.168  10.495 -0.3615  1.3372  0.3150
  387MOL0     H52240   3.081   2.043  10.463 -2.9844 -0.7029  3.5912
  387MOL0     H52241   3.279   1.929  10.574  0.9342 -0.8255  2.9428
  387MOL0     H52242   3.120   1.917  10.649 -1.2329  0.5787 -0.0287
  387MOL0     H52243   3.402   2.160  10.887 -0.3705  2.9944 -0.5152
  387MOL0     H52244   2.618   2.301  10.447 -4.5139  0.4180 -1.7901
  387MOL0     H52245   2.490   2.450  10.280 -0.6860 -0.4562  0.2859
  388MOL0     O52246   0.558   8.257   7.151 -1.6264  0.5774 -0.1225
  388MOL0     C52247   0.481   8.160   7.149 -0.2939  0.8698  0.3180
  388MOL0     O52248   0.494   8.053   7.068 -0.2568  0.5464 -0.0050
  388MOL0     C52249   0.599   8.042   6.987 -0.8585  0.2847  0.6774
  388MOL0     C52250   0.558   7.999   6.862 -0.4464  0.8641  0.4185
  388MOL0     C52251   0.643   7.999   6.754 -0.2746  0.1804 -0.2292
  388MOL0     C52252   0.780   8.020   6.777  0.7225 -0.0394  0.5853
  388MOL0     O52253   0.874   8.015   6.677  0.1672 -0.6621 -0.0263
  388MOL0     C52254   0.828   8.052   6.546  0.3525 -0.8713  0.8950
  388MOL0     C52255   0.807   7.928   6.463  0.8538  0.2298  0.4127
  388MOL0     C52256   0.780   7.947   6.313  0.2212  0.3648 -0.5310
  388MOL0     C52257   0.652   8.016   6.281 -0.0317 -0.7861  1.0318
  388MOL0     C52258   0.616   7.996   6.139  0.6062  0.0947  0.1915
  388MOL0     C52259   0.730   8.049   6.043 -0.0993 -0.8981  0.0852
  388MOL0     C52260   0.698   8.021   5.890  1.2563 -0.7570  0.8384
  388MOL0     C52261   0.685   7.869   5.850  0.0209  0.0719  0.6075
  388MOL0     N52262   0.805   7.786   5.878 -0.5201 -0.6440  0.7273
  388MOL0     C52263   0.917   7.796   5.803  0.3777 -0.1619 -0.8110
  388MOL0     C52264   0.995   7.716   5.880 -0.5281  0.1907 -0.6326
  388MOL0     C52265   1.130   7.672   5.867 -0.9201 -0.8238  0.3394
  388MOL0     C52266   1.132   7.557   5.761  0.2241 -0.1445  0.6248
  388MOL0     C52267   1.098   7.605   5.613 -0.0215  1.3863  0.6564
  388MOL0     C52268   1.132   7.496   5.516  0.0365  0.4591  0.0897
  388MOL0     O52269   1.081   7.522   5.387 -0.7725 -0.2333  0.3741
  388MOL0     C52270   1.065   7.412   5.304 -0.1462 -1.6933  0.3210
  388MOL0     C52271   0.949   7.414   5.229  0.0878 -0.2153 -0.1889
  388MOL0     C52272   0.908   7.301   5.156 -0.9268  0.4375  0.7501
  388MOL0     C52273   0.775   7.302   5.081 -1.1156  0.3139 -0.1011
  388MOL0     C52274   0.992   7.187   5.150  0.4706  0.1645  0.9359
  388MOL0     C52275   0.949   7.060   5.083 -0.1103 -0.0733  0.0610
  388MOL0     O52276   1.043   6.991   5.017 -0.0803 -0.2017  0.0170
  388MOL0     C52277   1.032   6.852   5.000  0.2784 -0.0087 -0.7480
  388MOL0     C52278   1.095   6.790   4.891  0.4989 -0.5845  0.1620
  388MOL0     C52279   1.079   6.647   4.868  0.4727 -0.6886  0.2123
  388MOL0     C52280   1.005   6.566   4.949  0.7748  0.4156  0.7936
  388MOL0     O52281   0.967   6.432   4.930  0.1869  0.5216 -0.2252
  388MOL0     C52282   1.041   6.355   4.836  0.0580 -0.8868  0.9742
  388MOL0     C52283   0.967   6.231   4.817 -0.2056  0.1505  0.0272
  388MOL0     C52284   0.932   6.161   4.961 -0.6100 -0.9419  0.5509
  388MOL0     C52285   0.782   6.141   4.985  0.1666  0.4526  0.0813
  388MOL0     C52286   0.735   6.017   4.906  0.9200  0.1176  1.4575
  388MOL0     C52287   0.786   5.876   4.950  0.2422 -0.6502  0.2152
  388MOL0     C52288   0.758   5.773   4.837  0.1818  0.4437  0.5002
  388MOL0     C52289   0.861   5.663   4.831  0.0070 -0.5248 -0.7198
  388MOL0    Cl52290   0.800   5.518   4.737 -0.4225 -0.1661  0.2099
  388MOL0     C52291   0.955   6.624   5.062  0.8169  0.8679 -0.3784
  388MOL0     C52292   0.965   6.759   5.084  0.3903  0.2596  0.0724
  388MOL0     O52293   0.828   7.036   5.094  0.0454  0.4304  1.4223
  388MOL0     C52294   1.108   7.186   5.216  0.3012 -0.8263 -0.0174
  388MOL0     C52295   1.150   7.301   5.299  1.3629 -0.0230 -0.0164
  388MOL0     N52296   0.923   7.651   5.982  0.4915  0.1984  0.6003
  388MOL0     N52297   0.809   7.705   5.978 -0.4079  0.2569 -0.1781
  388MOL0     C52298   0.819   8.070   6.907 -0.2829  0.6142  0.1215
  388MOL0     C52299   0.731   8.070   7.012 -0.0516 -0.0942  0.5726
  388MOL0     C52300   0.372   8.142   7.243 -0.7899 -0.4529  0.6748
  388MOL0     C52301   0.354   8.245   7.342 -0.8442  0.1307  0.4578
  388MOL0     C52302   0.264   8.226   7.443 -0.4158  0.0869 -0.2327
  388MOL0     C52303   0.182   8.112   7.449 -0.3687  0.7537 -0.5271
  388MOL0     O52304   0.087   8.084   7.548 -0.4398  0.5762  0.1080
  388MOL0     C52305   0.082   8.179   7.660  0.2721 -0.8546  0.4595
  388MOL0     C52306  -0.026   8.152   7.762 -0.3419 -0.5793  0.0313
  388MOL0     C52307  -0.036   8.263   7.870  0.0594  0.5723 -1.5292
  388MOL0     C52308  -0.143   8.235   7.989 -0.6932 -0.3192 -0.1349
  388MOL0     C52309  -0.277   8.248   7.932 -0.7634  0.2789 -0.6762
  388MOL0     C52310  -0.396   8.235   7.902  1.0099  0.7510 -0.4471
  388MOL0     C52311   0.209   8.007   7.360  0.1372 -1.1958  0.2119
  388MOL0     C52312   0.305   8.022   7.261  0.2978  0.6340 -0.1325
  388MOL0     H52313   0.452   7.985   6.842 -0.4599 -0.8036  1.5450
  388MOL0     H52314   0.586   7.972   6.666 -1.2970 -0.7175  0.6738
  388MOL0     H52315   0.739   8.114   6.536  0.6208 -0.7919 -1.8472
  388MOL0     H52316   0.899   8.117   6.495  0.7334 -2.2731 -0.4423
  388MOL0     H52317   0.894   7.863   6.475  1.8101  1.4552  0.2696
  388MOL0     H52318   0.715   7.877   6.494  0.0209  0.1061 -2.0435
  388MOL0     H52319   0.856   8.019   6.280  0.3107 -0.8969 -3.3596
  388MOL0     H52320   0.777   7.858   6.251  2.2290  0.1877 -0.4348
  388MOL0     H52321   0.568   7.974   6.338 -1.1121 -0.5379 -0.3266
  388MOL0     H52322   0.651   8.122   6.306 -1.8239 -1.1676  2.8787
  388MOL0     H52323   0.620   7.889   6.118  0.6671 -0.5989  3.2783
  388MOL0     H52324   0.515   8.034   6.119  0.5672  0.3645  0.8650
  388MOL0     H52325   0.742   8.155   6.068  0.2918 -0.9773  0.2524
  388MOL0     H52326   0.827   8.000   6.056 -0.6963 -1.9577  0.6556
  388MOL0     H52327   0.613   8.081   5.857  1.6680 -0.9178 -0.5802
  388MOL0     H52328   0.776   8.059   5.824  0.6277 -1.7307 -0.4988
  388MOL0     H52329   0.664   7.855   5.743 -1.4770 -2.3139  1.1491
  388MOL0     H52330   0.607   7.825   5.912 -0.5004 -0.3908 -0.3617
  388MOL0     H52331   0.945   7.859   5.719 -1.6757  0.4927 -1.0551
  388MOL0     H52332   1.191   7.755   5.830  0.0146 -2.7750 -2.9572
  388MOL0     H52333   1.180   7.629   5.954  1.9235 -1.6796 -1.5774
  388MOL0     H52334   1.065   7.473   5.785  0.8344 -0.9063 -0.2291
  388MOL0     H52335   1.235   7.521   5.760  0.5134  0.6517 -0.8557
  388MOL0     H52336   1.170   7.687   5.609  3.1442 -1.0781  2.0302
  388MOL0     H52337   0.993   7.634   5.610  0.6170  3.7978 -1.5153
  388MOL0     H52338   1.099   7.396   5.545  1.1854  0.7108  2.5058
  388MOL0     H52339   1.240   7.477   5.515 -0.3655 -2.2758 -0.2057
  388MOL0     H52340   0.875   7.493   5.238  1.4407  0.9792  0.9000
  388MOL0     H52341   0.697   7.243   5.130  0.6922 -1.2254  1.0467
  388MOL0     H52342   0.730   7.402   5.083  2.6669  2.1517  1.3500
  388MOL0     H52343   0.782   7.268   4.977 -0.6824  3.9967 -1.4150
  388MOL0     H52344   1.134   6.862   4.821 -1.6541  0.4254 -0.0969
  388MOL0     H52345   1.105   6.614   4.768 -0.3459 -2.2481  0.4933
  388MOL0     H52346   1.045   6.411   4.742  1.6477  0.4199  1.7782
  388MOL0     H52347   1.145   6.334   4.864  0.6594  2.1410  1.3088
  388MOL0     H52348   0.878   6.246   4.755  0.6611 -1.1146 -1.6169
  388MOL0     H52349   1.036   6.167   4.761  0.3538  0.5679  0.2392
  388MOL0     H52350   0.966   6.225   5.043  1.7487 -2.1343  0.5818
  388MOL0     H52351   0.988   6.069   4.976  0.5936 -1.3075 -4.4698
  388MOL0     H52352   0.769   6.114   5.090  0.4185 -1.4801 -0.3357
  388MOL0     H52353   0.725   6.226   4.947  0.4691 -0.1259 -1.8050
  388MOL0     H52354   0.767   6.037   4.803 -1.1143  1.0014  0.9598
  388MOL0     H52355   0.628   5.997   4.916  1.0242 -2.5927 -1.4503
  388MOL0     H52356   0.895   5.884   4.946  0.1578  0.9750 -3.7024
  388MOL0     H52357   0.749   5.841   5.047 -3.8753  0.5565 -0.7064
  388MOL0     H52358   0.736   5.819   4.740 -0.6778 -1.3372 -0.1841
  388MOL0     H52359   0.671   5.710   4.860  0.7687 -1.6887 -2.5510
  388MOL0     H52360   0.892   5.622   4.927 -0.8755 -0.4406 -0.3927
  388MOL0     H52361   0.953   5.706   4.791  0.2924  2.1788  2.4381
  388MOL0     H52362   0.894   6.555   5.119  0.6718 -0.8046 -2.4434
  388MOL0     H52363   0.916   6.803   5.171  0.2862 -0.3969  0.3469
  388MOL0     H52364   1.157   7.090   5.203 -2.0172 -2.0146 -0.5464
  388MOL0     H52365   1.245   7.299   5.350  1.1373  0.5146  0.4357
  388MOL0     H52366   0.917   8.088   6.951 -2.1826  1.2762  4.5769
  388MOL0     H52367   0.759   8.100   7.113 -0.8513 -2.9306  1.7350
  388MOL0     H52368   0.416   8.334   7.350 -0.5731  0.1149 -1.2147
  388MOL0     H52369   0.273   8.303   7.520  0.3198 -0.9075  0.7105
  388MOL0     H52370   0.182   8.178   7.704  1.1440 -2.4728 -1.3731
  388MOL0     H52371   0.064   8.283   7.633  1.7779  0.6239  4.4790
  388MOL0     H52372  -0.002   8.050   7.793 -2.8671 -0.3562  3.3769
  388MOL0     H52373  -0.124   8.151   7.714 -0.7882 -2.4112  0.8964
  388MOL0     H52374  -0.071   8.352   7.816 -0.1778  1.2854 -0.2479
  388MOL0     H52375   0.064   8.268   7.915 -1.1806 -1.3239  1.7654
  388MOL0     H52376  -0.128   8.313   8.065  0.8642 -2.9983  2.5234
  388MOL0     H52377  -0.122   8.138   8.035 -1.1652  0.1382  1.0834
  388MOL0     H52378  -0.497   8.214   7.873  1.0366 -1.3687  0.7239
  388MOL0     H52379   0.143   7.921   7.356 -1.1826 -0.2861  1.2858
  388MOL0     H52380   0.314   7.934   7.199 -0.6391 -0.5234  1.3202
  389MOL0     O52381   9.986   1.756   3.568  0.3753  0.8739 -0.7034
  389MOL0     C52382   9.943   1.863   3.521  0.3826 -0.3493 -0.2729
  389MOL0     O52383  10.008   1.968   3.473 -0.2786 -0.1832  0.5312
  389MOL0     C52384  10.147   1.957   3.463  0.0673 -0.4279  0.3340
  389MOL0     C52385  10.228   2.009   3.570  0.5105 -0.4017 -0.3167
  389MOL0     C52386  10.365   1.999   3.563  0.0442  0.6809  0.4546
  389MOL0     C52387  10.429   1.950   3.441  0.3068 -0.4131  0.4980
  389MOL0     O52388  10.563   1.967   3.424 -0.6115 -0.1927  0.5367
  389MOL0     C52389  10.638   1.892   3.319  0.0286  0.2241 -0.6599
  389MOL0     C52390  10.777   1.952   3.308  0.7522  0.3748  0.0487
  389MOL0     C52391  10.872   1.945   3.441  0.3783  0.3948 -0.2087
  389MOL0     C52392  10.891   1.803   3.505  1.1754  0.3901  0.2131
  389MOL0     C52393  10.995   1.806   3.619  0.3142  0.6133  0.5268
  389MOL0     C52394  10.996   1.670   3.702 -0.2842 -0.4228  0.8714
  389MOL0     C52395  11.068   1.695   3.837 -0.4822  1.2411  0.0655
  389MOL0     C52396  11.095   1.558   3.902 -0.5108  0.3834  0.0715
  389MOL0     N52397  10.978   1.497   3.966  0.2799 -0.7038  1.0773
  389MOL0     C52398  10.910   1.552   4.068 -0.7698  0.2755  0.1256
  389MOL0     C52399  10.792   1.483   4.069  0.0163 -0.3585 -0.2144
  389MOL0     C52400  10.660   1.515   4.140  0.0848 -0.5951 -0.0754
  389MOL0     C52401  10.690   1.583   4.270  0.4749  0.2251  0.3451
  389MOL0     C52402  10.564   1.609   4.359  0.4717  0.0098 -0.0895
  389MOL0     C52403  10.578   1.540   4.494  1.0078 -0.1248  0.2879
  389MOL0     O52404  10.496   1.617   4.584  0.5518 -0.5398  0.0932
  389MOL0     C52405  10.363   1.592   4.604 -0.1033 -0.3464 -0.6739
  389MOL0     C52406  10.307   1.682   4.693  0.4613  0.2493  0.4996
  389MOL0     C52407  10.172   1.674   4.724 -0.8013 -0.2248 -0.2003
  389MOL0     C52408  10.110   1.783   4.805  0.4045 -0.1863 -0.7702
  389MOL0     C52409  10.090   1.585   4.646  0.5010  0.7612 -0.5046
  389MOL0     C52410   9.953   1.560   4.680  0.8096  0.4985 -0.0317
  389MOL0     O52411   9.884   1.493   4.585  0.2036 -0.3445 -0.7355
  389MOL0     C52412   9.754   1.495   4.601 -0.2022  0.2510 -0.4599
  389MOL0     C52413   9.685   1.606   4.549  1.5306  0.4575  0.3006
  389MOL0     C52414   9.546   1.605   4.562  0.5181  0.4997 -0.4962
  389MOL0     C52415   9.477   1.499   4.622 -0.7287  0.2322  0.7555
  389MOL0     O52416   9.340   1.497   4.651 -0.4263 -0.0457 -0.3103
  389MOL0     C52417   9.250   1.518   4.546 -0.2452 -0.2787 -0.3403
  389MOL0     C52418   9.116   1.572   4.597 -0.1467 -0.9760  0.3295
  389MOL0     C52419   9.045   1.484   4.696 -0.6946  0.3617 -0.0510
  389MOL0     C52420   9.005   1.350   4.628  0.3159 -0.6965  0.3943
  389MOL0     C52421   8.910   1.269   4.708 -0.1569  0.0239 -0.6148
  389MOL0     C52422   8.839   1.162   4.624 -0.3096  1.0689 -0.6645
  389MOL0     C52423   8.740   1.080   4.717 -0.1560 -0.2319 -0.0606
  389MOL0     C52424   8.601   1.040   4.653  0.3502  0.4100  0.0566
  389MOL0    Cl52425   8.513   1.189   4.622 -0.0382  0.2928 -0.0392
  389MOL0     C52426   9.549   1.392   4.684  0.7302 -0.6484 -0.6741
  389MOL0     C52427   9.689   1.390   4.675  0.6453 -0.4346  1.1994
  389MOL0     O52428   9.905   1.592   4.791 -0.0910 -0.4790  0.5634
  389MOL0     C52429  10.143   1.509   4.548  0.2092 -0.2356  0.4521
  389MOL0     C52430  10.282   1.515   4.532  0.1907  0.6418  0.0153
  389MOL0     N52431  10.800   1.381   3.978  0.1755 -0.0349  0.1198
  389MOL0     N52432  10.917   1.385   3.925  0.5990  0.1156  0.2443
  389MOL0     C52433  10.346   1.887   3.343 -0.5934  1.2204 -0.1848
  389MOL0     C52434  10.212   1.892   3.359  0.3101 -1.1059  0.4150
  389MOL0     C52435   9.791   1.871   3.519 -0.3891  0.9811  0.9116
  389MOL0     C52436   9.714   1.790   3.610  0.2039 -0.2177  0.2371
  389MOL0     C52437   9.578   1.785   3.608  0.2699 -0.3878 -0.6352
  389MOL0     C52438   9.509   1.870   3.517 -0.7969  0.2321  0.0391
  389MOL0     O52439   9.372   1.869   3.512  0.4870  0.3864  0.7242
  389MOL0     C52440   9.298   1.869   3.390 -0.2656 -0.4499 -0.2764
  389MOL0     C52441   9.158   1.839   3.416 -0.4070  0.0413  0.3541
  389MOL0     C52442   9.092   1.950   3.495 -0.0481 -0.4662  0.0844
  389MOL0     C52443   8.949   1.926   3.514  0.8015  0.2541 -0.3367
  389MOL0     C52444   8.863   2.028   3.456 -0.7774  0.6652  0.4302
  389MOL0     C52445   8.801   2.115   3.389 -0.0842  0.6713 -0.9660
  389MOL0     C52446   9.584   1.945   3.418  0.7478 -0.6372 -0.3921
  389MOL0     C52447   9.721   1.962   3.428  0.3566 -0.5189 -0.1680
  389MOL0     H52448  10.184   2.066   3.650  0.3594  0.4063 -0.9573
  389MOL0     H52449  10.424   2.039   3.645 -0.3746 -0.5144  1.3698
  389MOL0     H52450  10.633   1.786   3.344 -0.7312  0.8676  2.4435
  389MOL0     H52451  10.590   1.924   3.227 -0.2522 -1.5958 -1.1723
  389MOL0     H52452  10.833   1.902   3.229  3.1128  1.8279  0.6863
  389MOL0     H52453  10.765   2.057   3.279  1.4175  0.9030  1.5489
  389MOL0     H52454  10.968   1.989   3.412 -0.0767  1.1614 -0.5695
  389MOL0     H52455  10.833   2.016   3.515  0.1614  1.4361 -1.3007
  389MOL0     H52456  10.791   1.771   3.536  0.0821  3.0687 -0.2719
  389MOL0     H52457  10.918   1.722   3.435  0.7928  0.2870  0.1799
  389MOL0     H52458  11.098   1.826   3.587  0.3902  2.6554  1.8251
  389MOL0     H52459  10.964   1.888   3.685 -4.4956  0.9155 -1.6540
  389MOL0     H52460  10.892   1.645   3.723 -0.0919 -3.9463 -1.5352
  389MOL0     H52461  11.045   1.592   3.643 -1.1657 -0.0665 -0.3549
  389MOL0     H52462  11.160   1.751   3.820 -1.5474  2.6407 -1.3171
  389MOL0     H52463  11.006   1.759   3.901  0.3456  3.2655 -1.0859
  389MOL0     H52464  11.166   1.565   3.985  1.4375 -2.5199 -1.2130
  389MOL0     H52465  11.127   1.493   3.821 -2.7027  0.4527 -0.9342
  389MOL0     H52466  10.933   1.643   4.123 -3.5742  2.6449 -2.2963
  389MOL0     H52467  10.606   1.580   4.071 -0.4427 -1.5095 -0.5432
  389MOL0     H52468  10.597   1.427   4.155 -3.4344  1.9569  2.0222
  389MOL0     H52469  10.743   1.676   4.248 -2.1326  1.7427 -0.0558
  389MOL0     H52470  10.760   1.517   4.321 -0.0721 -0.4105  0.2907
  389MOL0     H52471  10.474   1.575   4.308 -2.5863  2.0112  3.4699
  389MOL0     H52472  10.548   1.713   4.389 -2.2263  0.2754 -2.1364
  389MOL0     H52473  10.681   1.547   4.530  1.8422  4.3680 -2.2485
  389MOL0     H52474  10.551   1.435   4.485  0.2987  0.2549 -3.2814
  389MOL0     H52475  10.377   1.750   4.740  0.6509  0.0566  0.4956
  389MOL0     H52476  10.101   1.765   4.913 -0.0066 -1.5813 -1.0213
  389MOL0     H52477  10.179   1.868   4.792 -1.8238  1.7929 -0.4007
  389MOL0     H52478  10.016   1.817   4.762  0.2218  0.4783  0.1232
  389MOL0     H52479   9.739   1.684   4.496  2.3001  1.8214  2.9326
  389MOL0     H52480   9.485   1.684   4.519  1.2742  0.5377 -1.5463
  389MOL0     H52481   9.301   1.583   4.474 -0.9508  0.0890 -0.5207
  389MOL0     H52482   9.252   1.419   4.498  0.6442 -1.0241  1.1666
  389MOL0     H52483   9.142   1.661   4.656  2.3286 -2.2156  1.2577
  389MOL0     H52484   9.056   1.597   4.510  1.0130 -0.5777 -0.3787
  389MOL0     H52485   8.950   1.530   4.722 -1.4134 -0.7439 -0.6424
  389MOL0     H52486   9.111   1.468   4.782  0.5764 -0.9056 -1.2236
  389MOL0     H52487   8.957   1.386   4.536 -2.3942  0.1141  2.0103
  389MOL0     H52488   9.092   1.289   4.601  0.1449 -1.3234  1.2338
  389MOL0     H52489   8.844   1.344   4.753  3.1377  2.5526  0.3734
  389MOL0     H52490   8.960   1.214   4.789 -0.4617  0.2046 -0.2968
  389MOL0     H52491   8.782   1.207   4.542 -1.1231  3.2858  1.0005
  389MOL0     H52492   8.915   1.093   4.588 -1.2153 -3.1507  4.1929
  389MOL0     H52493   8.719   1.145   4.802 -0.1540  3.0537 -2.3800
  389MOL0     H52494   8.787   0.990   4.756  5.0327  2.5347  0.9198
  389MOL0     H52495   8.541   0.973   4.714  0.4303 -1.5164 -1.8752
  389MOL0     H52496   8.609   0.989   4.557 -0.9849 -1.3679  0.8355
  389MOL0     H52497   9.492   1.313   4.733 -0.8690  1.7300  1.5949
  389MOL0     H52498   9.751   1.314   4.722  0.4275 -1.7576 -0.5683
  389MOL0     H52499  10.086   1.434   4.493 -1.6555 -0.5999  2.7484
  389MOL0     H52500  10.320   1.460   4.446 -1.7440  0.6124 -0.8943
  389MOL0     H52501  10.388   1.839   3.255  1.0908  2.4782 -0.1021
  389MOL0     H52502  10.145   1.842   3.290  1.0221  0.7556 -1.7833
  389MOL0     H52503   9.767   1.732   3.685  1.5126 -0.0670 -0.5398
  389MOL0     H52504   9.521   1.739   3.688 -0.9684  0.8434 -0.7696
  389MOL0     H52505   9.302   1.965   3.339  0.0074 -0.4559 -0.2642
  389MOL0     H52506   9.344   1.792   3.327  1.0723  1.2436 -1.4298
  389MOL0     H52507   9.151   1.737   3.456  0.2630 -0.7790 -1.5218
  389MOL0     H52508   9.108   1.842   3.319  0.3818  0.7200 -0.0385
  389MOL0     H52509   9.114   2.047   3.449 -0.0966 -0.0681  0.8864
  389MOL0     H52510   9.147   1.961   3.589  1.2502 -1.7389 -0.4805
  389MOL0     H52511   8.939   1.926   3.623  0.9169  0.7397 -0.3236
  389MOL0     H52512   8.919   1.825   3.482  1.2821 -0.0122  0.0275
  389MOL0     H52513   8.746   2.186   3.330 -1.3505 -1.6048 -2.7077
  389MOL0     H52514   9.527   1.996   3.341  0.7207  0.4933  0.3492
  389MOL0     H52515   9.772   2.035   3.365 -0.0180  1.6048  1.8300
  390MOL0     O52516   1.812  11.196   1.546 -0.4757 -0.5157  1.0634
  390MOL0     C52517   1.779  11.138   1.648 -0.8972 -0.8281  0.5739
  390MOL0     O52518   1.655  11.080   1.665 -0.0164  0.4863  0.3753
  390MOL0     C52519   1.584  11.058   1.540  0.4480  0.7068 -0.4654
  390MOL0     C52520   1.537  11.159   1.465 -0.2524 -0.8299 -0.3589
  390MOL0     C52521   1.457  11.129   1.353  0.0233 -0.0350  0.6557
  390MOL0     C52522   1.439  10.987   1.307  0.0302  0.0096 -0.1379
  390MOL0     O52523   1.360  10.937   1.214  0.2701  0.3610  0.4369
  390MOL0     C52524   1.273  11.022   1.133  0.3933 -0.4612  0.0920
  390MOL0     C52525   1.205  10.943   1.022  0.6881  0.0655  0.0363
  390MOL0     C52526   1.295  10.877   0.924  0.1485  0.1110  0.7041
  390MOL0     C52527   1.330  10.987   0.822 -0.2987 -0.0775  0.1575
  390MOL0     C52528   1.435  10.957   0.716 -0.0643  0.1319  0.3057
  390MOL0     C52529   1.410  11.043   0.591  0.2553  0.1626  0.0936
  390MOL0     C52530   1.498  11.018   0.466  0.1399  0.5181 -0.2328
  390MOL0     C52531   1.522  11.147   0.385 -0.6597 -0.0021  1.5813
  390MOL0     N52532   1.588  11.261   0.451 -0.6925  0.1411  0.0553
  390MOL0     C52533   1.703  11.262   0.531  0.4505  0.3722  0.3490
  390MOL0     C52534   1.728  11.389   0.565  0.0960  0.2696  0.5727
  390MOL0     C52535   1.840  11.431   0.652 -1.3416 -0.6702 -0.4950
  390MOL0     C52536   1.867  11.585   0.653  0.5663 -0.9464  0.7952
  390MOL0     C52537   1.971  11.620   0.756  0.7442 -0.0929  0.0093
  390MOL0     C52538   2.042  11.748   0.736 -0.3818  0.0755  0.4210
  390MOL0     O52539   2.114  11.760   0.608 -0.2862 -0.3754 -0.2142
  390MOL0     C52540   2.191  11.864   0.582  0.2253 -0.3002  1.3238
  390MOL0     C52541   2.324  11.847   0.596 -0.2044  0.4129  0.1186
  390MOL0     C52542   2.422  11.941   0.558  0.6801  0.2537  0.0959
  390MOL0     C52543   2.566  11.896   0.557  0.5190  0.5882  0.4932
  390MOL0     C52544   2.368  12.067   0.518  0.1817 -0.4667  0.6796
  390MOL0     C52545   2.463  12.176   0.477  0.7969 -0.5746  0.9555
  390MOL0     O52546   2.584  12.180   0.532 -0.8940  0.3193 -0.1236
  390MOL0     C52547   2.689  12.258   0.476 -0.2990 -0.4689  0.3816
  390MOL0     C52548   2.720  12.380   0.533  1.1423  0.3731 -0.4682
  390MOL0     C52549   2.798  12.469   0.470  0.3735  0.2607  0.4079
  390MOL0     C52550   2.861  12.434   0.352 -0.6088 -0.8715  0.3925
  390MOL0     O52551   2.951  12.521   0.292 -0.5540 -0.2323 -0.1030
  390MOL0     C52552   2.946  12.529   0.146 -0.2302  0.5456 -0.0087
  390MOL0     C52553   3.005  12.654   0.097 -0.2154 -0.4663  0.6675
  390MOL0     C52554   3.023  12.657  -0.060  0.4299 -0.3049  0.5013
  390MOL0     C52555   3.081  12.782  -0.123 -0.0548 -0.2793 -0.3324
  390MOL0     C52556   3.075  12.782  -0.279  0.6256  0.5281  0.0982
  390MOL0     C52557   3.146  12.903  -0.343 -0.0905 -0.1105 -0.2459
  390MOL0     C52558   3.302  12.878  -0.359  0.0296 -0.4693  0.1224
  390MOL0     C52559   3.375  12.997  -0.415  0.1909  0.1094 -0.0501
  390MOL0    Cl52560   3.378  13.135  -0.290 -0.1653 -0.4712  0.7363
  390MOL0     C52561   2.847  12.307   0.299  0.0277 -0.2638 -0.2119
  390MOL0     C52562   2.750  12.228   0.356 -0.5168 -0.4170 -0.2155
  390MOL0     O52563   2.407  12.264   0.415  0.3716 -0.2202 -0.3496
  390MOL0     C52564   2.228  12.086   0.493  0.1386 -0.6569  0.0792
  390MOL0     C52565   2.145  11.987   0.528 -0.3284  0.4229 -0.6296
  390MOL0     N52566   1.646  11.467   0.485 -0.4383  0.3221  0.2785
  390MOL0     N52567   1.561  11.396   0.424  0.9099  0.1822 -0.7729
  390MOL0     C52568   1.511  10.892   1.368  0.7985  0.0933  0.0098
  390MOL0     C52569   1.579  10.929   1.486 -0.4023  0.2891  0.6528
  390MOL0     C52570   1.853  11.169   1.775  0.4548  0.0531  0.5392
  390MOL0     C52571   1.944  11.271   1.773 -0.0072 -0.2622 -0.3727
  390MOL0     C52572   2.024  11.293   1.884 -0.8075 -1.0355  0.1817
  390MOL0     C52573   2.015  11.215   1.994  0.0063  0.4968 -0.1860
  390MOL0     O52574   2.088  11.228   2.109 -0.6321  0.8367 -0.3740
  390MOL0     C52575   2.164  11.342   2.131  0.3295  0.0535 -0.1521
  390MOL0     C52576   2.305  11.335   2.075 -0.5824 -0.0785 -0.0951
  390MOL0     C52577   2.373  11.472   2.093 -0.1115 -0.6896  0.9710
  390MOL0     C52578   2.374  11.529   2.235  0.2196 -0.2607  0.0281
  390MOL0     C52579   2.407  11.670   2.230 -0.4171 -0.4702 -0.3728
  390MOL0     C52580   2.437  11.789   2.225  0.0281  0.3941  0.1326
  390MOL0     C52581   1.906  11.124   2.008  0.3245  0.4358  0.1642
  390MOL0     C52582   1.828  11.100   1.899  0.4199  0.6246  0.1570
  390MOL0     H52583   1.558  11.261   1.496  1.0193 -0.9376 -0.8478
  390MOL0     H52584   1.399  11.205   1.302  0.5851 -0.3259 -0.4515
  390MOL0     H52585   1.202  11.061   1.206 -0.9248 -2.1772 -0.2086
  390MOL0     H52586   1.342  11.101   1.102  2.0890 -1.5712  0.8489
  390MOL0     H52587   1.140  10.863   1.058  1.3683  0.8697  3.4282
  390MOL0     H52588   1.140  11.019   0.977  0.0170 -0.2968  0.3806
  390MOL0     H52589   1.386  10.846   0.976  0.0946  1.9526  2.0079
  390MOL0     H52590   1.247  10.789   0.881  0.0169  0.3100  0.4329
  390MOL0     H52591   1.237  11.004   0.766 -1.7396 -1.8334  1.8605
  390MOL0     H52592   1.369  11.077   0.868  1.5331 -0.4623 -0.5421
  390MOL0     H52593   1.533  10.967   0.763 -0.1901  2.1202  0.2026
  390MOL0     H52594   1.422  10.851   0.692  0.1069 -0.2060  1.6299
  390MOL0     H52595   1.310  11.031   0.548 -0.1850 -0.4719  1.2718
  390MOL0     H52596   1.430  11.144   0.628  2.0810 -0.0255 -0.2736
  390MOL0     H52597   1.596  10.984   0.502 -2.0610 -5.0399  1.5490
  390MOL0     H52598   1.438  10.942   0.414 -1.7935  3.1450 -2.1243
  390MOL0     H52599   1.425  11.187   0.353 -0.4485  1.8343  3.0360
  390MOL0     H52600   1.569  11.125   0.289 -1.4624  1.7515  0.7365
  390MOL0     H52601   1.758  11.179   0.575 -1.4325 -0.5746  1.0536
  390MOL0     H52602   1.827  11.380   0.748  2.3108  0.0889  0.5444
  390MOL0     H52603   1.924  11.378   0.606  1.2997  0.9394  2.1465
  390MOL0     H52604   1.773  11.640   0.667 -1.7705 -4.3750 -0.1045
  390MOL0     H52605   1.901  11.610   0.553  1.0837 -0.1347  1.1661
  390MOL0     H52606   2.043  11.537   0.758  1.8366  0.8208  2.3963
  390MOL0     H52607   1.923  11.615   0.854 -1.4786 -0.2106 -1.0231
  390MOL0     H52608   2.114  11.756   0.818  1.0879  0.3970 -0.8446
  390MOL0     H52609   1.963  11.823   0.743  0.3478  0.8981  0.0667
  390MOL0     H52610   2.351  11.745   0.624 -0.5527  0.3729  0.3182
  390MOL0     H52611   2.580  11.788   0.562  4.5846  0.9793  0.7143
  390MOL0     H52612   2.604  11.925   0.458  0.3017 -0.4253  0.1105
  390MOL0     H52613   2.626  11.948   0.633  0.0310  3.8071 -1.1527
  390MOL0     H52614   2.655  12.419   0.611  1.8704  2.3482 -0.8047
  390MOL0     H52615   2.812  12.566   0.516  0.9234  0.4880 -0.2301
  390MOL0     H52616   3.003  12.444   0.107  1.5953  0.8520  1.8153
  390MOL0     H52617   2.842  12.520   0.113 -0.2085  1.4165 -0.3435
  390MOL0     H52618   2.971  12.752   0.131 -0.1277 -0.5837  1.0945
  390MOL0     H52619   3.101  12.640   0.148  0.1023  0.7556  0.4433
  390MOL0     H52620   2.922  12.639  -0.099 -0.2728  1.6491  1.2832
  390MOL0     H52621   3.082  12.570  -0.091 -2.2643 -1.2728 -2.5810
  390MOL0     H52622   3.032  12.872  -0.085  1.1098  0.4312 -0.4469
  390MOL0     H52623   3.185  12.796  -0.090  1.0430  0.3757 -3.6543
  390MOL0     H52624   2.975  12.784  -0.323  0.8957  0.8865 -0.5126
  390MOL0     H52625   3.136  12.697  -0.313  1.1255  0.9616 -0.1213
  390MOL0     H52626   3.098  12.924  -0.439 -1.1814 -1.0340  0.0771
  390MOL0     H52627   3.141  12.984  -0.270  0.0212 -0.5048  0.2022
  390MOL0     H52628   3.316  12.790  -0.422  1.7502 -1.1781  1.4295
  390MOL0     H52629   3.355  12.847  -0.269  1.0385  0.3817 -0.1517
  390MOL0     H52630   3.312  13.038  -0.495  0.9019  1.3945  0.0180
  390MOL0     H52631   3.468  12.961  -0.458 -0.6108 -0.6697 -1.2043
  390MOL0     H52632   2.916  12.275   0.222  1.1678  0.6711  0.3827
  390MOL0     H52633   2.726  12.132   0.311 -1.6306 -1.3217  2.1573
  390MOL0     H52634   2.184  12.176   0.449  0.9376 -0.4334 -0.2707
  390MOL0     H52635   2.039  11.995   0.504  0.0593  2.3457 -1.9339
  390MOL0     H52636   1.499  10.787   1.341  1.1250  0.3344 -1.1111
  390MOL0     H52637   1.636  10.857   1.543  1.3033  0.4061 -0.8070
  390MOL0     H52638   1.984  11.316   1.683 -0.5404 -3.8378 -2.5671
  390MOL0     H52639   2.099  11.371   1.873 -0.6315 -0.7036  3.0722
  390MOL0     H52640   2.105  11.424   2.089 -1.3597 -1.3261 -0.6216
  390MOL0     H52641   2.185  11.360   2.236  2.2867 -0.1972 -0.4660
  390MOL0     H52642   2.296  11.318   1.967 -1.3103  0.1413 -0.0743
  390MOL0     H52643   2.357  11.256   2.130 -1.4798 -0.0849  0.7729
  390MOL0     H52644   2.319  11.541   2.027  1.7249 -0.5904 -0.5299
  390MOL0     H52645   2.476  11.461   2.057 -0.6793 -1.2821 -0.5467
  390MOL0     H52646   2.451  11.468   2.283  0.5472  1.7494  2.2511
  390MOL0     H52647   2.281  11.524   2.293  0.8325  0.2155  1.0663
  390MOL0     H52648   2.466  11.892   2.223 -1.2289  0.8740  2.4933
  390MOL0     H52649   1.893  11.063   2.097 -0.1470  0.1749 -0.0803
  390MOL0     H52650   1.750  11.024   1.903 -0.1654  1.2476  1.2745
  391MOL0     O52651   0.160   6.114  11.319  0.5497 -0.1516 -0.0802
  391MOL0     C52652   0.185   6.051  11.215  0.4616 -0.3734 -0.0374
  391MOL0     O52653   0.106   6.036  11.104  0.9124  0.7700 -0.4206
  391MOL0     C52654  -0.021   6.089  11.114  1.4207  0.8967  0.1019
  391MOL0     C52655  -0.074   6.148  10.999  0.6883  0.0676  0.2456
  391MOL0     C52656  -0.198   6.210  11.010  0.1947  0.5224  0.0312
  391MOL0     C52657  -0.283   6.203  11.120 -0.2518  0.2569  0.6448
  391MOL0     O52658  -0.401   6.255  11.113 -0.6833 -0.5969  0.8928
  391MOL0     C52659  -0.486   6.288  11.222  1.2132  0.1853  1.1373
  391MOL0     C52660  -0.576   6.168  11.276 -0.7958  0.0128  0.0617
  391MOL0     C52661  -0.652   6.209  11.403  0.4623 -1.3686  0.9312
  391MOL0     C52662  -0.679   6.084  11.484 -0.1854 -0.2453  0.7277
  391MOL0     C52663  -0.808   6.100  11.554 -0.2330  0.3419  0.3487
  391MOL0     C52664  -0.822   5.995  11.673  0.3358 -0.0360  0.5318
  391MOL0     C52665  -0.756   6.042  11.801  0.1161 -1.3713  0.6993
  391MOL0     C52666  -0.742   5.927  11.901 -0.2352  0.2004 -0.2131
  391MOL0     N52667  -0.872   5.898  11.968 -0.6988 -0.1898  0.3349
  391MOL0     C52668  -0.915   5.962  12.082 -1.2394 -0.9329  0.3100
  391MOL0     C52669  -1.024   5.892  12.120  0.2001  0.3283 -0.4879
  391MOL0     C52670  -1.094   5.929  12.247  1.0952 -0.0832 -0.3730
  391MOL0     C52671  -1.135   6.078  12.243 -0.4753 -0.6607 -0.4334
  391MOL0     C52672  -1.257   6.102  12.156 -0.0528 -0.2729  0.1014
  391MOL0     C52673  -1.242   6.080  12.002 -0.1637  1.0990 -0.6684
  391MOL0     O52674  -1.147   6.172  11.962 -0.6167  0.7009 -0.3178
  391MOL0     C52675  -1.134   6.212  11.833  0.5958 -0.0651  0.0559
  391MOL0     C52676  -1.194   6.139  11.720 -0.6071 -1.4601 -0.0244
  391MOL0     C52677  -1.183   6.179  11.582  1.0955 -0.1135 -0.1377
  391MOL0     C52678  -1.264   6.101  11.484  0.5315 -0.3549 -1.6564
  391MOL0     C52679  -1.102   6.290  11.551  0.3293 -0.3394  0.4014
  391MOL0     C52680  -1.071   6.332  11.415 -0.3413 -0.4162  0.1190
  391MOL0     O52681  -1.138   6.282  11.317  0.1062  0.6407 -0.0979
  391MOL0     C52682  -1.078   6.286  11.197 -0.0653  0.3948  0.0230
  391MOL0     C52683  -0.954   6.216  11.181  0.3930  0.4572  0.5644
  391MOL0     C52684  -0.879   6.227  11.055  0.1628  0.0003  0.0597
  391MOL0     C52685  -0.934   6.312  10.945 -0.8656 -0.1101 -1.2798
  391MOL0     O52686  -0.873   6.308  10.826 -0.1787 -0.1450  0.6857
  391MOL0     C52687  -0.729   6.331  10.814 -0.4279 -0.9993 -0.3023
  391MOL0     C52688  -0.709   6.480  10.756  0.4339  1.1432  0.2358
  391MOL0     C52689  -0.799   6.516  10.628  0.7873  0.6682  0.3568
  391MOL0     C52690  -0.715   6.608  10.539  0.0983  0.4232  0.3011
  391MOL0     C52691  -0.815   6.672  10.433 -0.1157 -0.6784 -0.0142
  391MOL0     C52692  -0.735   6.776  10.351  0.1375 -0.6771  0.6968
  391MOL0     C52693  -0.828   6.857  10.260  0.7412 -0.1687  0.3240
  391MOL0     C52694  -0.757   6.890  10.129  0.5581 -0.1614 -1.0054
  391MOL0    Cl52695  -0.736   6.762  10.019  0.1560  0.5279  0.1932
  391MOL0     C52696  -1.058   6.377  10.972 -0.2425 -0.5919  0.5889
  391MOL0     C52697  -1.124   6.367  11.093  0.0484  0.5279 -0.4132
  391MOL0     O52698  -0.974   6.409  11.403  0.5217  0.5775 -0.1009
  391MOL0     C52699  -1.042   6.358  11.665 -0.1485 -0.8679 -0.2452
  391MOL0     C52700  -1.056   6.325  11.799 -0.3460 -0.0445  0.1110
  391MOL0     N52701  -1.048   5.790  12.028 -0.1077 -0.8768  0.1062
  391MOL0     N52702  -0.957   5.802  11.931  0.1757  0.3611 -0.4388
  391MOL0     C52703  -0.233   6.129  11.237 -0.2144 -0.8119 -0.0272
  391MOL0     C52704  -0.107   6.077  11.224 -0.0450  0.1023  1.3992
  391MOL0     C52705   0.313   5.980  11.196 -0.4030  0.7152  0.8327
  391MOL0     C52706   0.381   5.908  11.298 -0.7049  0.5768 -0.7827
  391MOL0     C52707   0.509   5.847  11.271 -0.4828  0.2615 -0.0339
  391MOL0     C52708   0.568   5.844  11.140 -0.2896  0.1166 -0.0628
  391MOL0     O52709   0.691   5.786  11.105 -0.5443  0.4058 -0.0017
  391MOL0     C52710   0.786   5.742  11.206 -0.1143 -0.3268  0.3558
  391MOL0     C52711   0.863   5.862  11.261 -0.1208 -0.5696  0.2456
  391MOL0     C52712   0.918   5.949  11.156 -0.2460  0.4194  0.5202
  391MOL0     C52713   0.990   6.066  11.232  0.7287  0.1611 -0.5113
  391MOL0     C52714   1.064   6.131  11.128  0.6071 -0.0997  0.4463
  391MOL0     C52715   1.133   6.201  11.052 -0.1024  0.5379 -0.2033
  391MOL0     C52716   0.494   5.900  11.037  0.0493  0.1249 -0.4695
  391MOL0     C52717   0.372   5.965  11.068  0.9285  0.8704 -0.5496
  391MOL0     H52718  -0.007   6.162  10.915  0.1166  2.0685  0.0919
  391MOL0     H52719  -0.248   6.271  10.935 -0.0135  4.4925  3.0804
  391MOL0     H52720  -0.419   6.324  11.300  1.5831 -0.2074  1.0016
  391MOL0     H52721  -0.554   6.368  11.191 -0.2036 -0.9310  1.2820
  391MOL0     H52722  -0.639   6.133  11.193  1.4511  0.0220 -1.7518
  391MOL0     H52723  -0.504   6.091  11.307 -2.4749 -2.7368 -2.3601
  391MOL0     H52724  -0.606   6.296  11.451  1.9506 -1.1372 -0.7913
  391MOL0     H52725  -0.742   6.259  11.366  2.6799  0.8274 -2.0631
  391MOL0     H52726  -0.691   6.008  11.407  5.9419 -3.5086  2.3998
  391MOL0     H52727  -0.600   6.060  11.555 -0.2064 -1.8487  0.2338
  391MOL0     H52728  -0.801   6.194  11.609 -0.3982 -0.9071  2.6709
  391MOL0     H52729  -0.886   6.085  11.479  3.1082 -1.6718 -3.0741
  391MOL0     H52730  -0.930   5.995  11.689  0.0408 -2.7010 -0.9499
  391MOL0     H52731  -0.773   5.904  11.639  0.4488  1.7950 -5.1651
  391MOL0     H52732  -0.658   6.079  11.768 -0.5607 -0.8467 -0.8262
  391MOL0     H52733  -0.808   6.125  11.848  2.7054  0.6353  0.2565
  391MOL0     H52734  -0.671   5.954  11.980 -0.3629 -1.3208  0.4625
  391MOL0     H52735  -0.702   5.834  11.860  2.6106  0.7832  0.9981
  391MOL0     H52736  -0.853   6.038  12.129 -1.9057  0.6597 -1.2870
  391MOL0     H52737  -1.184   5.871  12.269  0.4282  1.2555  0.5888
  391MOL0     H52738  -1.025   5.927  12.331  1.4730  1.3538 -0.6088
  391MOL0     H52739  -1.046   6.137  12.220 -0.2665 -0.0952  1.6241
  391MOL0     H52740  -1.175   6.111  12.339 -0.0491  2.0038 -1.0908
  391MOL0     H52741  -1.280   6.206  12.178  2.1694 -0.0287  1.5958
  391MOL0     H52742  -1.339   6.040  12.193  1.0462 -1.0699  1.2617
  391MOL0     H52743  -1.337   6.096  11.951 -2.0778 -1.5623  1.7226
  391MOL0     H52744  -1.211   5.980  11.970 -0.8622  0.6909 -0.1000
  391MOL0     H52745  -1.252   6.049  11.738 -1.0656 -1.3129 -0.7487
  391MOL0     H52746  -1.340   6.171  11.449  3.3152  4.5581  0.9599
  391MOL0     H52747  -1.209   6.074  11.393  0.6628  0.8018 -1.9412
  391MOL0     H52748  -1.325   6.020  11.524 -1.9636  2.1537 -0.0421
  391MOL0     H52749  -0.924   6.148  11.260 -0.5747  0.4786  0.9756
  391MOL0     H52750  -0.789   6.170  11.036  0.9045  1.0959  0.1987
  391MOL0     H52751  -0.679   6.329  10.911 -4.7930  0.8298  2.2736
  391MOL0     H52752  -0.678   6.258  10.750  0.4425 -0.9866  0.3681
  391MOL0     H52753  -0.742   6.535  10.845 -0.4229  0.7901  0.1418
  391MOL0     H52754  -0.602   6.479  10.732  0.2201 -0.1799 -0.7616
  391MOL0     H52755  -0.895   6.562  10.652 -0.6908 -2.2460  0.4476
  391MOL0     H52756  -0.826   6.426  10.571  1.7214  0.6211 -0.0366
  391MOL0     H52757  -0.661   6.675  10.606  0.1946 -2.5829  3.5448
  391MOL0     H52758  -0.635   6.547  10.496 -1.8594 -0.8642 -1.7278
  391MOL0     H52759  -0.897   6.714  10.492  0.0964 -0.9459  0.4705
  391MOL0     H52760  -0.868   6.597  10.374  0.3391 -2.0996  1.3217
  391MOL0     H52761  -0.676   6.849  10.407  2.4977 -1.4006 -0.6745
  391MOL0     H52762  -0.662   6.721  10.290  0.0547 -0.5277  0.4610
  391MOL0     H52763  -0.880   6.936  10.315  0.1206  0.0731 -0.5765
  391MOL0     H52764  -0.913   6.791  10.237 -2.1549  3.2053  0.3612
  391MOL0     H52765  -0.663   6.932  10.165 -0.7639  0.6613  1.8000
  391MOL0     H52766  -0.819   6.961  10.074  0.6608  0.8449  0.1294
  391MOL0     H52767  -1.108   6.443  10.902 -2.6777 -0.3988  2.4085
  391MOL0     H52768  -1.210   6.428  11.120  0.2566  1.2478 -1.3384
  391MOL0     H52769  -0.972   6.436  11.638 -2.6258  1.7093  0.3676
  391MOL0     H52770  -1.011   6.383  11.878  1.8216 -1.0972 -0.2785
  391MOL0     H52771  -0.289   6.104  11.326 -0.4361  1.7817  0.6332
  391MOL0     H52772  -0.080   6.004  11.299  3.7657 -0.7675 -0.5414
  391MOL0     H52773   0.331   5.896  11.394 -1.2814 -2.3439 -1.3733
  391MOL0     H52774   0.546   5.785  11.352 -1.0895  2.6425  2.2019
  391MOL0     H52775   0.733   5.676  11.275 -2.0083  0.0728 -0.6452
  391MOL0     H52776   0.860   5.683  11.151 -1.5069  0.5732 -2.7041
  391MOL0     H52777   0.954   5.820  11.305 -0.7607 -1.7674  0.4812
  391MOL0     H52778   0.804   5.909  11.341 -0.5792 -0.1622 -0.3238
  391MOL0     H52779   0.846   5.985  11.081  0.2961 -1.3949 -0.9344
  391MOL0     H52780   0.993   5.896  11.096 -1.7632 -0.8331 -0.3669
  391MOL0     H52781   1.058   6.040  11.314  0.2169  1.3327  0.3190
  391MOL0     H52782   0.908   6.124  11.276 -0.3629 -1.3151 -0.5001
  391MOL0     H52783   1.191   6.261  10.985  0.9432  1.5011  1.4837
  391MOL0     H52784   0.545   5.904  10.942  0.9763 -0.4115 -0.0034
  391MOL0     H52785   0.315   5.990  10.979  0.6018 -2.6917 -1.4888
  392MOL0     O52786  10.194   4.371  10.918 -0.8612 -0.1328  0.3523
  392MOL0     C52787  10.154   4.476  10.874 -0.4313 -0.7508  0.0750
  392MOL0     O52788  10.025   4.508  10.838  0.8217  0.2401 -0.3182
  392MOL0     C52789   9.915   4.423  10.852 -0.9536 -0.7427 -0.1883
  392MOL0     C52790   9.906   4.325  10.949  0.9465  0.3262  0.0541
  392MOL0     C52791   9.786   4.259  10.965 -0.5121 -0.0313 -0.0250
  392MOL0     C52792   9.682   4.274  10.874  0.1101  0.2756 -0.0564
  392MOL0     O52793   9.568   4.211  10.896  0.6613  0.6045  0.4346
  392MOL0     C52794   9.467   4.280  10.963 -0.1044 -0.9170 -0.3607
  392MOL0     C52795   9.322   4.219  10.957  0.2252 -0.2726 -0.3037
  392MOL0     C52796   9.214   4.324  11.015  0.1735 -0.3647 -0.7296
  392MOL0     C52797   9.163   4.433  10.912  0.8142 -0.4363 -0.2669
  392MOL0     C52798   9.057   4.529  10.978 -0.0807  0.1251  0.7610
  392MOL0     C52799   8.945   4.579  10.876  0.2825 -0.3144 -0.5329
  392MOL0     C52800   8.844   4.467  10.833 -0.7746 -0.1849  0.6915
  392MOL0     C52801   8.754   4.521  10.724  0.6325 -0.2331 -0.1429
  392MOL0     N52802   8.686   4.654  10.761  0.8902  0.5553  0.4762
  392MOL0     C52803   8.705   4.778  10.696 -0.5830  0.5528 -0.4813
  392MOL0     C52804   8.614   4.860  10.749  0.1705 -0.3014 -0.9677
  392MOL0     C52805   8.595   5.002  10.717  0.1396  0.0786  0.1258
  392MOL0     C52806   8.456   5.067  10.736 -0.1211  0.5346  0.8833
  392MOL0     C52807   8.420   5.128  10.876 -0.2764 -0.1640 -0.3441
  392MOL0     C52808   8.484   5.062  10.998  0.0156  0.1530  0.5827
  392MOL0     O52809   8.449   5.104  11.124  0.1135 -0.8982  0.1709
  392MOL0     C52810   8.520   5.070  11.235 -0.2292  0.6129 -0.5992
  392MOL0     C52811   8.652   5.032  11.247 -0.7913  0.1678  0.5976
  392MOL0     C52812   8.712   4.999  11.368  1.0389  0.4270  0.0196
  392MOL0     C52813   8.851   4.946  11.360 -0.0205 -0.2376 -0.4154
  392MOL0     C52814   8.645   5.018  11.497 -0.3898  0.5145  0.1530
  392MOL0     C52815   8.699   4.977  11.625  0.8846  1.4668 -0.3739
  392MOL0     O52816   8.611   5.000  11.731  0.2734  0.1823  0.8024
  392MOL0     C52817   8.656   4.976  11.860  1.2672 -0.4981 -0.1491
  392MOL0     C52818   8.646   5.081  11.957 -0.0205  0.3469  0.7714
  392MOL0     C52819   8.703   5.066  12.088  0.4548  0.4184  0.2680
  392MOL0     C52820   8.764   4.945  12.117  0.6814  0.2165 -0.0814
  392MOL0     O52821   8.808   4.925  12.249 -0.3372  0.1009 -0.2757
  392MOL0     C52822   8.915   5.017  12.276  0.8959  0.7505  0.2240
  392MOL0     C52823   8.937   5.047  12.431  0.2819  0.0766 -0.4247
  392MOL0     C52824   8.797   5.061  12.502  0.9872  1.0098 -0.0717
  392MOL0     C52825   8.731   5.186  12.462 -0.8708 -0.0624  0.7021
  392MOL0     C52826   8.621   5.226  12.542  0.6641  0.4577  0.3914
  392MOL0     C52827   8.562   5.365  12.517 -0.0165  0.4420  0.1931
  392MOL0     C52828   8.470   5.406  12.639  0.4188 -0.5667 -0.2375
  392MOL0     C52829   8.408   5.541  12.604 -0.5660 -0.3967 -0.5217
  392MOL0    Cl52830   8.309   5.590  12.738  0.5032 -0.0312 -0.1780
  392MOL0     C52831   8.775   4.838  12.029  0.1467 -0.6030 -0.4241
  392MOL0     C52832   8.715   4.856  11.906  0.6038  0.1428 -0.4791
  392MOL0     O52833   8.807   4.916  11.630 -0.6993 -0.3812  0.4576
  392MOL0     C52834   8.510   5.068  11.485 -0.1425  0.0956 -0.1544
  392MOL0     C52835   8.446   5.086  11.358 -0.3026  0.6093  0.0825
  392MOL0     N52836   8.547   4.785  10.843  0.2962 -0.5271 -0.0815
  392MOL0     N52837   8.589   4.668  10.851  0.5651 -0.1296 -0.0063
  392MOL0     C52838   9.691   4.364  10.773  0.6200  0.0015  0.3230
  392MOL0     C52839   9.812   4.438  10.761 -0.1656  1.3045 -0.0498
  392MOL0     C52840  10.255   4.589  10.856  0.3512 -0.0821  0.7068
  392MOL0     C52841  10.227   4.705  10.777 -0.5635 -0.2531  0.0157
  392MOL0     C52842  10.320   4.809  10.758 -0.1084 -0.4427  0.5514
  392MOL0     C52843  10.449   4.797  10.809  0.7238 -0.2636 -0.4177
  392MOL0     O52844  10.522   4.906  10.776 -0.5608  0.1783  0.4743
  392MOL0     C52845  10.619   4.934  10.873  0.4422 -0.7593  0.1306
  392MOL0     C52846  10.623   5.086  10.897  0.0012  0.0784  0.2722
  392MOL0     C52847  10.672   5.158  10.775 -0.4069  0.7838 -0.2168
  392MOL0     C52848  10.673   5.314  10.799  0.8543  0.0034 -0.6514
  392MOL0     C52849  10.779   5.363  10.709  0.2912  0.8679 -0.3288
  392MOL0     C52850  10.856   5.406  10.626  0.5404  0.1412 -0.1223
  392MOL0     C52851  10.475   4.679  10.889  0.5366  0.1373 -0.5129
  392MOL0     C52852  10.384   4.575  10.910  0.3817  0.7674 -0.1468
  392MOL0     H52853   9.993   4.308  11.011  1.8388  2.0489 -0.6485
  392MOL0     H52854   9.770   4.192  11.049 -1.2518  1.9482  1.4945
  392MOL0     H52855   9.503   4.294  11.066  3.5131  0.4522 -1.6428
  392MOL0     H52856   9.469   4.379  10.916 -1.3128  0.1266  1.6482
  392MOL0     H52857   9.289   4.190  10.857 -3.7124 -0.0402  0.7420
  392MOL0     H52858   9.323   4.126  11.015 -4.5403 -0.8121 -0.6871
  392MOL0     H52859   9.128   4.268  11.051  0.2477  0.2432  0.4562
  392MOL0     H52860   9.258   4.385  11.094 -1.2236  1.1222 -1.0629
  392MOL0     H52861   9.245   4.494  10.873  1.5611  0.4272  2.4169
  392MOL0     H52862   9.127   4.377  10.825  0.4600  2.4582 -2.1185
  392MOL0     H52863   9.015   4.476  11.065  2.3565 -0.7303  1.5050
  392MOL0     H52864   9.108   4.616  11.020  3.3427 -0.2938 -2.0592
  392MOL0     H52865   8.892   4.670  10.907  3.1128  0.8281  1.3575
  392MOL0     H52866   8.993   4.621  10.788 -1.4787  1.3075 -0.8027
  392MOL0     H52867   8.906   4.382  10.802 -0.0148  1.1991 -1.8072
  392MOL0     H52868   8.789   4.435  10.922 -0.7408  0.3504  0.9106
  392MOL0     H52869   8.670   4.450  10.722  2.5466 -2.6408  0.6094
  392MOL0     H52870   8.807   4.530  10.629  1.7520  2.2637  0.6270
  392MOL0     H52871   8.767   4.788  10.607 -0.7433  0.2860 -0.6244
  392MOL0     H52872   8.674   5.064  10.761 -1.4759  3.0413 -0.8741
  392MOL0     H52873   8.612   5.016  10.609  0.3472 -0.4222  0.0887
  392MOL0     H52874   8.383   4.990  10.709  1.9951 -1.2117 -0.1660
  392MOL0     H52875   8.434   5.149  10.666 -1.5168 -0.9321 -0.4696
  392MOL0     H52876   8.315   5.109  10.902 -0.7855  0.1767 -2.0290
  392MOL0     H52877   8.435   5.236  10.880  0.4039 -0.2874  1.6216
  392MOL0     H52878   8.593   5.068  10.988 -0.0965  1.7995  0.0908
  392MOL0     H52879   8.445   4.960  10.990  0.6690 -0.1030  0.5727
  392MOL0     H52880   8.709   5.019  11.155 -0.2857  0.8975  0.8040
  392MOL0     H52881   8.888   4.938  11.257 -1.4791 -0.8109 -0.9196
  392MOL0     H52882   8.915   5.014  11.418  1.7537  1.8471 -4.4262
  392MOL0     H52883   8.861   4.840  11.384  0.4234 -0.0477  0.2649
  392MOL0     H52884   8.589   5.169  11.929 -0.4131  0.2274  1.1913
  392MOL0     H52885   8.696   5.147  12.160  0.7179 -1.1100  2.0748
  392MOL0     H52886   9.003   4.976  12.226 -0.4019 -1.8077 -0.1281
  392MOL0     H52887   8.895   5.116  12.235 -3.0107  0.0466  0.0154
  392MOL0     H52888   8.994   4.972  12.487 -0.6699 -0.5725 -0.3041
  392MOL0     H52889   8.995   5.140  12.431  0.6006 -0.0755 -2.1703
  392MOL0     H52890   8.811   5.049  12.610 -0.3449  0.7114  0.0878
  392MOL0     H52891   8.723   4.983  12.479 -0.0294  1.2350  2.2185
  392MOL0     H52892   8.807   5.264  12.463  2.6789 -3.1297 -2.1482
  392MOL0     H52893   8.702   5.185  12.356  1.0984  2.1714  0.0493
  392MOL0     H52894   8.651   5.223  12.648  0.3791  0.2639  0.4707
  392MOL0     H52895   8.539   5.154  12.530  0.8920  0.6355 -3.1501
  392MOL0     H52896   8.656   5.420  12.516  3.1750 -4.3733 -0.0563
  392MOL0     H52897   8.505   5.371  12.423  1.4057  4.5415 -0.5881
  392MOL0     H52898   8.540   5.415  12.723 -0.8121 -1.2500  0.8887
  392MOL0     H52899   8.405   5.320  12.658  1.1475 -1.6877 -2.3616
  392MOL0     H52900   8.357   5.536  12.507  0.0827  1.5088 -0.9977
  392MOL0     H52901   8.479   5.622  12.590 -2.6192  1.3291 -1.4723
  392MOL0     H52902   8.826   4.746  12.055  0.2327 -0.0871  1.3436
  392MOL0     H52903   8.726   4.772  11.838 -3.2830  0.2558 -1.4737
  392MOL0     H52904   8.444   5.087  11.570  2.5193 -2.3901  2.7166
  392MOL0     H52905   8.343   5.120  11.346 -1.3334 -1.0524  3.1448
  392MOL0     H52906   9.613   4.397  10.704  0.5729 -0.4123  0.1731
  392MOL0     H52907   9.833   4.498  10.673 -0.3128  1.3792 -0.0355
  392MOL0     H52908  10.127   4.723  10.737  0.6943  0.2620 -3.2298
  392MOL0     H52909  10.282   4.892  10.700 -1.2352 -1.7396 -0.6426
  392MOL0     H52910  10.597   4.882  10.966 -0.0969  1.1681  1.1493
  392MOL0     H52911  10.714   4.902  10.829  1.4800  0.7308  1.1827
  392MOL0     H52912  10.686   5.103  10.984 -1.0278 -0.6801  1.1949
  392MOL0     H52913  10.525   5.131  10.916 -1.2864 -2.3535 -0.1949
  392MOL0     H52914  10.628   5.135  10.677  1.1306 -0.9070 -0.5834
  392MOL0     H52915  10.774   5.123  10.752 -0.7401  1.2195 -2.6583
  392MOL0     H52916  10.701   5.345  10.900 -0.0858 -1.2212  0.0227
  392MOL0     H52917  10.578   5.358  10.770  0.2827  0.2218  1.3618
  392MOL0     H52918  10.924   5.446  10.554  0.9085  1.6311  1.0078
  392MOL0     H52919  10.577   4.664  10.924  0.9787  0.1543 -1.7485
  392MOL0     H52920  10.395   4.487  10.972 -4.9458 -1.1063 -1.3293
  393MOL0     O52921   9.329   9.071   3.104 -0.1467 -0.6326 -0.1198
  393MOL0     C52922   9.368   9.049   3.215 -0.1287  0.3142 -0.2507
  393MOL0     O52923   9.354   9.131   3.323 -0.0225  0.0496 -0.9419
  393MOL0     C52924   9.231   9.194   3.333 -0.1814 -0.1514  0.4709
  393MOL0     C52925   9.117   9.152   3.256  0.5077  0.2834 -0.1680
  393MOL0     C52926   9.002   9.239   3.251  0.2735 -0.0874 -0.4310
  393MOL0     C52927   8.991   9.355   3.325 -0.3477  0.1076 -0.1384
  393MOL0     O52928   8.889   9.448   3.320  0.3601 -0.5152  0.0555
  393MOL0     C52929   8.753   9.413   3.280  0.0579 -0.4107  0.3472
  393MOL0     C52930   8.719   9.499   3.157 -0.0495  0.2810 -0.4657
  393MOL0     C52931   8.789   9.454   3.022 -0.0445  0.3210  0.2586
  393MOL0     C52932   8.754   9.551   2.913 -0.3376 -0.5013 -0.4116
  393MOL0     C52933   8.819   9.517   2.784 -0.2142  0.6063 -0.8609
  393MOL0     C52934   8.833   9.651   2.702 -0.3053  0.0592 -0.4467
  393MOL0     C52935   8.887   9.631   2.567  0.4104  0.7094  0.2698
  393MOL0     C52936   8.885   9.756   2.481  0.3722  1.2484  1.5126
  393MOL0     N52937   8.951   9.703   2.353 -0.2830 -0.3604 -0.5119
  393MOL0     C52938   8.942   9.579   2.288  0.2383  0.6389  1.7569
  393MOL0     C52939   9.020   9.588   2.169  0.1142 -0.1038 -0.0545
  393MOL0     C52940   9.038   9.495   2.057 -0.0023  0.4056  0.3192
  393MOL0     C52941   8.975   9.525   1.918 -0.7375 -0.0464  0.4799
  393MOL0     C52942   8.823   9.516   1.920 -0.0629 -0.6343  1.3897
  393MOL0     C52943   8.765   9.376   1.907  0.0485  1.0766 -0.2654
  393MOL0     O52944   8.785   9.309   2.034  0.2483 -0.1456  0.1213
  393MOL0     C52945   8.748   9.190   2.055  0.3783  0.2434 -0.6567
  393MOL0     C52946   8.639   9.131   1.988  0.3116 -0.3982  0.3443
  393MOL0     C52947   8.607   8.994   2.007  0.2310 -0.4495  0.6236
  393MOL0     C52948   8.493   8.942   1.923  0.1714 -0.3667 -0.0908
  393MOL0     C52949   8.671   8.930   2.114 -0.5809  0.5214  0.4379
  393MOL0     C52950   8.635   8.801   2.161  1.1994  0.1915 -0.5673
  393MOL0     O52951   8.563   8.714   2.083 -0.8274 -0.3314 -0.2687
  393MOL0     C52952   8.551   8.586   2.135 -0.4929 -0.0244  0.3441
  393MOL0     C52953   8.435   8.526   2.174 -0.4425 -0.7004  0.5065
  393MOL0     C52954   8.426   8.392   2.210  0.1732 -0.9963  0.0767
  393MOL0     C52955   8.543   8.314   2.218 -0.4393 -0.5080 -0.0386
  393MOL0     O52956   8.535   8.191   2.275 -0.2323  0.2760  0.4540
  393MOL0     C52957   8.623   8.151   2.375 -0.3885  0.0428 -0.4560
  393MOL0     C52958   8.542   8.121   2.496 -0.7926  0.5045 -0.1458
  393MOL0     C52959   8.448   8.235   2.538  0.0569  0.1353 -0.3513
  393MOL0     C52960   8.401   8.233   2.690 -0.9912 -0.6988 -0.0923
  393MOL0     C52961   8.272   8.307   2.695 -0.2022  0.0617 -0.3844
  393MOL0     C52962   8.237   8.338   2.839  0.5904 -0.9548  0.1533
  393MOL0     C52963   8.221   8.218   2.933  0.0250 -0.5817  0.6429
  393MOL0     C52964   8.172   8.265   3.068  0.5759  0.1657  0.2569
  393MOL0    Cl52965   8.121   8.134   3.166  0.7195  0.1931 -0.3306
  393MOL0     C52966   8.672   8.371   2.176  0.0279  0.1719  0.8060
  393MOL0     C52967   8.672   8.507   2.144  0.5355 -0.4014  0.3095
  393MOL0     O52968   8.673   8.768   2.275  0.1151  0.3029  0.4953
  393MOL0     C52969   8.774   8.996   2.192  0.2360  0.6667  0.5013
  393MOL0     C52970   8.806   9.124   2.160 -0.4582  0.6360 -0.3899
  393MOL0     N52971   9.070   9.719   2.162  0.1388 -0.2911  0.4294
  393MOL0     N52972   9.039   9.776   2.272  0.4204  0.6537 -0.7075
  393MOL0     C52973   9.101   9.385   3.410 -0.2589  0.1406  0.3616
  393MOL0     C52974   9.214   9.310   3.419 -0.1144  0.1601  0.3282
  393MOL0     C52975   9.462   8.935   3.242 -0.7038  0.4314 -0.7483
  393MOL0     C52976   9.457   8.811   3.168  0.6136  0.2813 -0.3094
  393MOL0     C52977   9.544   8.711   3.185 -0.6416  0.3416 -1.0812
  393MOL0     C52978   9.640   8.719   3.291 -0.0374 -0.2668 -0.0508
  393MOL0     O52979   9.709   8.611   3.317  0.1325  0.1466 -0.2136
  393MOL0     C52980   9.825   8.623   3.405 -0.0676  0.0709  0.1350
  393MOL0     C52981   9.901   8.487   3.399 -0.0525  0.4646 -0.0963
  393MOL0     C52982  10.021   8.472   3.497 -0.4641  0.2303  1.1866
  393MOL0     C52983  10.108   8.361   3.439 -0.2634 -0.5514  0.1669
  393MOL0     C52984  10.039   8.230   3.428 -0.3629 -1.3709 -0.2321
  393MOL0     C52985   9.986   8.128   3.407 -0.0636  0.2972 -0.3094
  393MOL0     C52986   9.635   8.832   3.373  0.3052 -0.3787 -1.2332
  393MOL0     C52987   9.549   8.934   3.349  0.5184  0.0810  0.0874
  393MOL0     H52988   9.105   9.072   3.184  3.0301 -1.2708  0.9825
  393MOL0     H52989   8.927   9.212   3.177  0.3825 -4.9208  0.9123
  393MOL0     H52990   8.741   9.312   3.240  0.8098  1.2415 -4.8153
  393MOL0     H52991   8.680   9.442   3.355  0.2834  1.9849 -0.2832
  393MOL0     H52992   8.611   9.498   3.142 -0.3327 -2.1173  1.3269
  393MOL0     H52993   8.753   9.602   3.177 -0.5633  0.0003  2.1978
  393MOL0     H52994   8.897   9.452   3.034  0.3238 -0.9756 -2.5578
  393MOL0     H52995   8.749   9.353   3.003  0.8707 -0.0882  0.4658
  393MOL0     H52996   8.646   9.558   2.894  0.1059  0.6110 -3.0074
  393MOL0     H52997   8.798   9.643   2.953  2.5146 -1.4639 -1.0937
  393MOL0     H52998   8.920   9.480   2.800  0.3790  0.8174 -3.6447
  393MOL0     H52999   8.767   9.441   2.724  0.4850  0.1821 -0.9363
  393MOL0     H53000   8.731   9.689   2.700 -0.5244 -0.1508  2.3448
  393MOL0     H53001   8.894   9.720   2.762 -0.6681 -2.5153  3.1733
  393MOL0     H53002   8.988   9.591   2.579 -1.7924 -5.1791  3.7119
  393MOL0     H53003   8.826   9.547   2.531  0.4875  0.7783 -0.0237
  393MOL0     H53004   8.945   9.834   2.528  0.8701  1.9714 -0.2385
  393MOL0     H53005   8.787   9.798   2.455 -0.8865 -2.0394  0.3745
  393MOL0     H53006   8.878   9.497   2.318 -1.2724  2.0893  2.6540
  393MOL0     H53007   9.145   9.488   2.039 -0.1531 -0.3293 -0.3625
  393MOL0     H53008   9.011   9.399   2.103  1.4331 -0.3995 -0.4504
  393MOL0     H53009   9.006   9.445   1.850 -0.3867  0.6182 -0.1553
  393MOL0     H53010   9.004   9.624   1.882 -1.2358 -0.1283 -0.1698
  393MOL0     H53011   8.801   9.563   1.824  2.9774  2.5601  2.0342
  393MOL0     H53012   8.777   9.580   1.996 -1.2808  1.3739 -0.9017
  393MOL0     H53013   8.814   9.322   1.826  3.1539  4.0140 -0.5559
  393MOL0     H53014   8.661   9.391   1.873 -0.5208  1.4333  1.5393
  393MOL0     H53015   8.589   9.178   1.905  1.6054 -0.8509 -0.7146
  393MOL0     H53016   8.418   8.909   1.995 -3.3473  0.4912 -3.0539
  393MOL0     H53017   8.439   9.014   1.860  1.5662  0.4851 -0.3457
  393MOL0     H53018   8.531   8.858   1.863 -1.5675 -0.7027 -0.7873
  393MOL0     H53019   8.339   8.575   2.164  0.4324  1.2455  1.1896
  393MOL0     H53020   8.330   8.345   2.227 -0.0803 -0.9818 -1.1616
  393MOL0     H53021   8.680   8.061   2.352  0.8617  0.2386  1.6026
  393MOL0     H53022   8.700   8.227   2.390 -0.1107 -0.5784  1.6515
  393MOL0     H53023   8.487   8.030   2.474  0.1343  0.2776 -1.6507
  393MOL0     H53024   8.624   8.105   2.567  1.0814  0.9229 -2.1199
  393MOL0     H53025   8.358   8.218   2.478  0.0520 -4.1639  0.5425
  393MOL0     H53026   8.500   8.328   2.514  2.5253 -1.6515 -2.4698
  393MOL0     H53027   8.416   8.134   2.736 -1.6515 -2.2417 -2.9302
  393MOL0     H53028   8.483   8.300   2.716 -3.3832  2.6990 -0.6071
  393MOL0     H53029   8.189   8.246   2.657  0.7023 -2.2039  1.0474
  393MOL0     H53030   8.273   8.398   2.634 -0.0897  0.0544 -0.3923
  393MOL0     H53031   8.312   8.403   2.886 -1.1198  0.0379  1.6100
  393MOL0     H53032   8.140   8.388   2.842  1.9269  1.7918  1.1219
  393MOL0     H53033   8.323   8.180   2.943  0.9033  0.0901 -3.6851
  393MOL0     H53034   8.156   8.143   2.886  1.6046 -1.1844 -0.6683
  393MOL0     H53035   8.095   8.340   3.046  1.9264  1.8309  1.0744
  393MOL0     H53036   8.250   8.317   3.124  0.2146 -1.0385  1.9699
  393MOL0     H53037   8.766   8.320   2.190 -0.7513 -1.9785 -1.2944
  393MOL0     H53038   8.770   8.552   2.131  1.3155 -1.6698  1.4934
  393MOL0     H53039   8.817   8.954   2.282 -1.9781 -2.4871  0.2327
  393MOL0     H53040   8.877   9.172   2.225  1.1358 -1.0785 -0.7700
  393MOL0     H53041   9.083   9.468   3.478 -0.9536  0.4775 -0.2133
  393MOL0     H53042   9.287   9.340   3.493 -1.6759  0.5805  1.7406
  393MOL0     H53043   9.383   8.805   3.088 -1.8791  3.3886  1.5741
  393MOL0     H53044   9.559   8.619   3.129  3.9759  1.5508 -2.2505
  393MOL0     H53045   9.893   8.691   3.353 -1.0997 -0.2096 -1.6785
  393MOL0     H53046   9.805   8.651   3.508  2.3894  0.4473  0.5642
  393MOL0     H53047   9.931   8.479   3.294 -0.6169  1.6368 -0.3644
  393MOL0     H53048   9.826   8.409   3.412 -0.6635  1.1517  0.6468
  393MOL0     H53049   9.983   8.464   3.600  0.6133  0.1629  1.5912
  393MOL0     H53050  10.075   8.566   3.484 -4.8946  2.7287 -1.4846
  393MOL0     H53051  10.199   8.348   3.498 -0.5582  0.8056  0.9674
  393MOL0     H53052  10.151   8.394   3.344  3.9016 -1.2909  1.5842
  393MOL0     H53053   9.943   8.034   3.377  2.5578 -0.8027 -0.9293
  393MOL0     H53054   9.699   8.853   3.458 -1.0710 -1.4348  0.1457
  393MOL0     H53055   9.550   9.029   3.401  0.6605  1.4917 -2.3393
  394MOL0     O53056   2.685   9.686   1.587  0.2401  0.1538  0.4735
  394MOL0     C53057   2.716   9.755   1.684  0.2892 -0.1171  0.6302
  394MOL0     O53058   2.625   9.812   1.772 -0.2169 -0.3236 -1.3847
  394MOL0     C53059   2.501   9.812   1.718 -0.3072 -0.0028 -0.8258
  394MOL0     C53060   2.456   9.902   1.626 -0.3320  0.8606 -0.5335
  394MOL0     C53061   2.320   9.895   1.584  0.3839  0.6809  0.7839
  394MOL0     C53062   2.236   9.790   1.632  0.0099 -0.3280 -0.6389
  394MOL0     O53063   2.101   9.798   1.598 -0.0384 -0.2389  0.5389
  394MOL0     C53064   2.005   9.703   1.641 -0.5095  0.2698  0.9869
  394MOL0     C53065   1.876   9.762   1.577 -0.1030  0.0775 -0.9709
  394MOL0     C53066   1.849   9.905   1.613 -0.6393  0.2415  0.7211
  394MOL0     C53067   1.712   9.958   1.555 -0.3575  0.2596 -0.3409
  394MOL0     C53068   1.702   9.954   1.405  0.0234 -1.1132  0.5121
  394MOL0     C53069   1.574   9.997   1.330  0.6954 -1.8752  0.3807
  394MOL0     C53070   1.584   9.952   1.187 -0.5780 -1.0089 -0.4678
  394MOL0     C53071   1.498  10.028   1.081 -0.9248 -0.2541 -0.3449
  394MOL0     N53072   1.353   9.993   1.079  0.2709 -0.0130 -0.7369
  394MOL0     C53073   1.282   9.951   1.196  0.0950 -0.3046 -0.6394
  394MOL0     C53074   1.158   9.926   1.148  0.9695 -0.6983 -0.1456
  394MOL0     C53075   1.044   9.871   1.227 -0.0180  0.0079  0.7082
  394MOL0     C53076   1.033   9.718   1.220 -0.1112  0.6585 -0.7740
  394MOL0     C53077   0.894   9.651   1.259  0.2878 -0.5547 -0.3658
  394MOL0     C53078   0.897   9.507   1.304  0.5089  1.1133 -0.6567
  394MOL0     O53079   0.976   9.424   1.210 -0.3496 -0.3277 -0.9795
  394MOL0     C53080   0.931   9.393   1.087 -0.2516 -1.0888 -0.2260
  394MOL0     C53081   0.809   9.426   1.041 -0.3880 -0.2044  0.4026
  394MOL0     C53082   0.764   9.389   0.906  0.3038  0.0184  0.0373
  394MOL0     C53083   0.632   9.434   0.860  0.5373  0.1680  0.6219
  394MOL0     C53084   0.857   9.327   0.825 -0.3417 -0.2581  0.1234
  394MOL0     C53085   0.844   9.306   0.680  0.5631 -0.2914 -0.4609
  394MOL0     O53086   0.953   9.293   0.610 -0.6121 -0.4882 -0.1353
  394MOL0     C53087   0.942   9.284   0.477 -0.0222 -0.2199 -0.1328
  394MOL0     C53088   0.966   9.388   0.390  0.2411 -1.1517  0.8895
  394MOL0     C53089   0.927   9.385   0.253  0.2482  0.4901  0.0685
  394MOL0     C53090   0.884   9.260   0.202  0.7696 -0.7762  0.1624
  394MOL0     O53091   0.852   9.243   0.066  0.0214  0.1133 -0.3259
  394MOL0     C53092   0.754   9.328   0.006 -0.4384 -0.1696  0.0892
  394MOL0     C53093   0.704   9.281  -0.131 -0.0519 -0.2730 -0.0798
  394MOL0     C53094   0.583   9.184  -0.119 -0.5984 -0.5088  0.5157
  394MOL0     C53095   0.507   9.178  -0.259 -0.8192  0.6374  0.0108
  394MOL0     C53096   0.404   9.061  -0.263  0.7773  0.8136 -0.4636
  394MOL0     C53097   0.326   9.059  -0.400 -0.0970 -0.3829  0.8214
  394MOL0     C53098   0.241   8.925  -0.419 -0.6946 -0.2461 -0.0138
  394MOL0     C53099   0.320   8.820  -0.494  0.5161 -0.1123  0.1849
  394MOL0    Cl53100   0.204   8.685  -0.519 -0.2024  0.0231  0.2007
  394MOL0     C53101   0.879   9.150   0.280 -1.1131  0.2105 -0.0338
  394MOL0     C53102   0.902   9.162   0.417  0.3832 -0.1362  0.6108
  394MOL0     O53103   0.731   9.316   0.629  0.0609  1.0465  0.0962
  394MOL0     C53104   0.985   9.282   0.882  1.2602  0.6460 -0.1014
  394MOL0     C53105   1.009   9.307   1.014 -0.9198 -0.4650  0.2222
  394MOL0     N53106   1.151   9.945   1.007 -0.0175 -0.2014 -0.0939
  394MOL0     N53107   1.270   9.975   0.968 -0.5493  0.5340 -0.0527
  394MOL0     C53108   2.289   9.692   1.714 -0.4421  0.0618 -0.6804
  394MOL0     C53109   2.418   9.712   1.767 -0.2546 -0.1359 -0.0496
  394MOL0     C53110   2.852   9.802   1.700 -0.0229 -1.1772 -0.0875
  394MOL0     C53111   2.870   9.896   1.802  0.7755 -0.2847  0.2141
  394MOL0     C53112   3.004   9.951   1.823 -0.3493  0.5477 -0.1348
  394MOL0     C53113   3.110   9.917   1.739  0.2209  0.6572  0.7184
  394MOL0     O53114   3.230   9.982   1.757  0.3716  0.0460  0.0002
  394MOL0     C53115   3.346   9.962   1.672  0.7723 -0.3681 -0.3785
  394MOL0     C53116   3.463  10.054   1.702  0.3861 -0.6809  0.4261
  394MOL0     C53117   3.514  10.030   1.848  1.0341 -0.0069 -0.1371
  394MOL0     C53118   3.656  10.066   1.867  0.0193 -1.0414 -0.6927
  394MOL0     C53119   3.754   9.980   1.800  0.1277  0.3681 -0.7201
  394MOL0     C53120   3.829   9.900   1.754 -0.1677 -0.7474  0.3676
  394MOL0     C53121   3.083   9.827   1.630 -0.4360  0.3852 -0.0192
  394MOL0     C53122   2.960   9.770   1.612  0.0891 -0.0978 -0.2782
  394MOL0     H53123   2.532   9.970   1.589 -0.4953 -1.2043 -5.4209
  394MOL0     H53124   2.297   9.976   1.517  1.8827 -0.2448 -0.9431
  394MOL0     H53125   2.028   9.602   1.607 -1.2461 -0.8215  3.5095
  394MOL0     H53126   2.000   9.696   1.750 -0.0851 -0.3390  0.9712
  394MOL0     H53127   1.898   9.751   1.470  0.1504 -0.5475 -0.8589
  394MOL0     H53128   1.786   9.712   1.615 -0.4819  2.2724  1.2728
  394MOL0     H53129   1.840   9.929   1.719 -0.5171  0.5765  0.6590
  394MOL0     H53130   1.933   9.968   1.584  0.7810 -0.9480  2.0869
  394MOL0     H53131   1.629   9.894   1.586 -1.0849  0.0132 -2.6506
  394MOL0     H53132   1.698  10.056   1.601 -1.5180 -0.6110  1.2384
  394MOL0     H53133   1.789  10.006   1.364 -0.6012 -1.1799 -0.9814
  394MOL0     H53134   1.708   9.850   1.372 -1.2043 -1.1720  0.4186
  394MOL0     H53135   1.499   9.957   1.398 -1.9051  2.5619  0.5084
  394MOL0     H53136   1.567  10.106   1.323 -0.2002 -2.0147 -1.7713
  394MOL0     H53137   1.687   9.970   1.156 -0.5289 -1.2817 -0.4625
  394MOL0     H53138   1.554   9.848   1.173 -1.3772 -0.4346 -3.7118
  394MOL0     H53139   1.532   9.984   0.987  0.4748 -4.0010  1.6686
  394MOL0     H53140   1.536  10.130   1.092  1.4503 -1.3041  2.9987
  394MOL0     H53141   1.325   9.947   1.296 -1.4297 -2.5450 -0.0056
  394MOL0     H53142   1.059   9.899   1.332 -0.4384  1.2879  0.4427
  394MOL0     H53143   0.960   9.924   1.181 -0.7042 -1.3980  0.2763
  394MOL0     H53144   1.115   9.672   1.276 -0.7536 -0.8097 -1.0001
  394MOL0     H53145   1.065   9.683   1.122 -0.5466 -1.7545 -0.1225
  394MOL0     H53146   0.828   9.655   1.172 -0.1458  1.4410  0.0100
  394MOL0     H53147   0.855   9.708   1.344  0.5975 -3.0446  1.5931
  394MOL0     H53148   0.799   9.463   1.320  0.5227  1.3294  0.0515
  394MOL0     H53149   0.950   9.509   1.400  1.1718 -1.2723 -0.9252
  394MOL0     H53150   0.742   9.481   1.107 -2.2918  1.7559 -2.8833
  394MOL0     H53151   0.634   9.494   0.769 -2.0415  0.5643  0.7411
  394MOL0     H53152   0.575   9.341   0.848  2.0871 -1.1522  2.6841
  394MOL0     H53153   0.582   9.496   0.935 -0.5364 -0.4708  0.4540
  394MOL0     H53154   0.985   9.490   0.422 -2.3481  0.3240 -1.6762
  394MOL0     H53155   0.921   9.482   0.204  1.2090  0.8685  0.6628
  394MOL0     H53156   0.677   9.343   0.081  1.4400 -0.8512  2.2590
  394MOL0     H53157   0.799   9.426  -0.013  2.1577 -1.3065 -0.0061
  394MOL0     H53158   0.671   9.368  -0.189 -2.2236  0.0867  1.5423
  394MOL0     H53159   0.785   9.228  -0.180  2.0650  1.7199  1.0640
  394MOL0     H53160   0.527   9.210  -0.029  1.0695  1.1848  1.1596
  394MOL0     H53161   0.635   9.091  -0.092  1.5059  1.1029  2.4941
  394MOL0     H53162   0.452   9.272  -0.253  0.0650  1.0838  1.9012
  394MOL0     H53163   0.577   9.177  -0.342 -1.9724 -0.6135 -1.0034
  394MOL0     H53164   0.341   9.062  -0.173  2.0246 -2.9417  0.6574
  394MOL0     H53165   0.458   8.966  -0.250 -0.4118  0.0827 -0.6620
  394MOL0     H53166   0.262   9.146  -0.416  0.7977 -0.0969 -1.6950
  394MOL0     H53167   0.407   9.071  -0.473  0.4698 -0.0809  1.4956
  394MOL0     H53168   0.151   8.953  -0.474  0.3651  0.9511 -1.2130
  394MOL0     H53169   0.221   8.883  -0.320  0.9735 -0.4164  0.2814
  394MOL0     H53170   0.410   8.794  -0.438  1.0107  0.3442 -0.3752
  394MOL0     H53171   0.347   8.853  -0.595  2.5876 -2.7189 -0.2276
  394MOL0     H53172   0.860   9.055   0.231 -0.4620  0.7743 -1.4366
  394MOL0     H53173   0.887   9.067   0.466 -0.8495  0.2659  1.0679
  394MOL0     H53174   1.052   9.220   0.823  2.8881  4.1319 -2.2463
  394MOL0     H53175   1.097   9.262   1.058 -0.0101 -0.5235 -1.5995
  394MOL0     H53176   2.240   9.605   1.757  2.8433 -2.6598 -2.0024
  394MOL0     H53177   2.456   9.644   1.842  2.5022  1.8010  0.4727
  394MOL0     H53178   2.792   9.927   1.871  0.6607  0.1465 -0.1065
  394MOL0     H53179   3.031  10.011   1.909 -4.2973 -0.7377  2.2588
  394MOL0     H53180   3.391   9.864   1.689 -0.0070 -0.6381  0.1918
  394MOL0     H53181   3.309   9.978   1.571 -0.3284  0.4667  0.1368
  394MOL0     H53182   3.423  10.156   1.697 -3.0973 -1.5753  4.4032
  394MOL0     H53183   3.551  10.036   1.640 -0.4471 -2.9596 -0.1875
  394MOL0     H53184   3.511   9.922   1.867 -0.2023 -0.0151 -0.2781
  394MOL0     H53185   3.445  10.088   1.910  3.2816  0.9947  1.5421
  394MOL0     H53186   3.668  10.040   1.973 -3.2463  1.1444  0.3789
  394MOL0     H53187   3.676  10.171   1.843  0.6957 -1.5523 -2.4871
  394MOL0     H53188   3.888   9.816   1.721 -2.1503 -1.7441 -0.8678
  394MOL0     H53189   3.150   9.807   1.547 -1.8775  2.1992 -1.6927
  394MOL0     H53190   2.927   9.701   1.536 -1.6418  1.0948 -0.6627
  395MOL0     O53191   7.581   7.801   0.251 -0.8813  0.5989 -0.0196
  395MOL0     C53192   7.529   7.794   0.364 -0.4274 -0.1833 -0.5463
  395MOL0     O53193   7.557   7.700   0.460  0.4784 -0.1805  0.9362
  395MOL0     C53194   7.631   7.590   0.406 -0.3027 -0.5467 -0.4822
  395MOL0     C53195   7.767   7.572   0.439  0.8721 -0.3808 -0.3076
  395MOL0     C53196   7.838   7.461   0.394  0.5375 -0.1563 -0.3515
  395MOL0     C53197   7.770   7.358   0.320 -0.3355 -0.0521 -0.4641
  395MOL0     O53198   7.855   7.259   0.267  0.4203 -0.4996  0.1919
  395MOL0     C53199   7.818   7.181   0.146  0.3225 -0.0363  0.1881
  395MOL0     C53200   7.770   7.038   0.180  0.1981  0.2682 -0.2028
  395MOL0     C53201   7.734   6.940   0.068 -0.2694  0.1693 -0.1808
  395MOL0     C53202   7.835   6.917  -0.046  0.2359  0.6704 -0.0037
  395MOL0     C53203   7.854   7.012  -0.171 -0.1583  0.3903  0.0277
  395MOL0     C53204   7.725   7.036  -0.244  0.5638 -0.2784 -0.0990
  395MOL0     C53205   7.659   6.903  -0.304  1.0318  0.6618  0.3000
  395MOL0     C53206   7.746   6.797  -0.365 -0.2452 -0.6304  0.4760
  395MOL0     N53207   7.671   6.689  -0.423  1.7126 -0.0052  0.0901
  395MOL0     C53208   7.615   6.586  -0.365  0.0386 -0.4110  0.3979
  395MOL0     C53209   7.530   6.526  -0.451 -0.4549 -0.1303 -0.0763
  395MOL0     C53210   7.449   6.403  -0.412  0.5392 -0.0453  0.7091
  395MOL0     C53211   7.395   6.338  -0.544  0.2330 -0.4975 -0.2955
  395MOL0     C53212   7.368   6.179  -0.538 -0.1576 -0.6601 -0.5231
  395MOL0     C53213   7.487   6.093  -0.495 -0.0956 -0.7182  0.7488
  395MOL0     O53214   7.606   6.133  -0.568 -0.3190  0.0567  0.1567
  395MOL0     C53215   7.614   6.106  -0.705 -0.4433 -0.4198 -0.5183
  395MOL0     C53216   7.718   6.161  -0.783 -1.0924 -0.3138 -0.0061
  395MOL0     C53217   7.736   6.148  -0.918 -0.6417 -0.5980 -0.1951
  395MOL0     C53218   7.863   6.200  -0.981  0.7018  0.3905  0.3696
  395MOL0     C53219   7.641   6.064  -0.987  0.2203  0.2175 -1.2182
  395MOL0     C53220   7.655   6.006  -1.119  0.0359 -0.1909 -0.0928
  395MOL0     O53221   7.548   5.979  -1.195  0.4434  0.8199 -0.0570
  395MOL0     C53222   7.549   6.006  -1.331 -0.3455 -0.3253  0.6195
  395MOL0     C53223   7.580   6.135  -1.370 -0.3028 -0.2830  0.2339
  395MOL0     C53224   7.581   6.168  -1.511  0.0219 -0.2078 -0.4357
  395MOL0     C53225   7.536   6.075  -1.610  0.7741 -0.0487 -0.6991
  395MOL0     O53226   7.522   6.099  -1.742 -0.4512 -0.6300 -0.8297
  395MOL0     C53227   7.632   6.162  -1.810  0.2465 -0.5687  0.3804
  395MOL0     C53228   7.618   6.161  -1.964 -0.0512  0.2608  0.1941
  395MOL0     C53229   7.627   6.021  -2.030 -0.3648 -0.2909  0.1133
  395MOL0     C53230   7.585   6.036  -2.180  0.1306 -0.6930 -0.7675
  395MOL0     C53231   7.615   5.926  -2.266  0.2712 -0.4299  0.0059
  395MOL0     C53232   7.594   5.950  -2.422 -0.1755 -0.4967  0.2164
  395MOL0     C53233   7.687   5.854  -2.493  0.0645 -0.2884  0.5873
  395MOL0     C53234   7.691   5.881  -2.643  0.6585 -0.4810  0.9167
  395MOL0    Cl53235   7.760   5.729  -2.729  0.4125  0.0214  0.5061
  395MOL0     C53236   7.488   5.947  -1.556  0.0890 -1.0383 -0.3849
  395MOL0     C53237   7.501   5.911  -1.427 -1.2097  0.1117  0.1589
  395MOL0     O53238   7.767   5.998  -1.160 -0.0390 -0.2045 -0.7815
  395MOL0     C53239   7.521   6.013  -0.916 -0.8615 -0.1113 -0.1790
  395MOL0     C53240   7.522   6.030  -0.775  0.0451  0.4109  0.5015
  395MOL0     N53241   7.532   6.602  -0.567 -0.3035  0.7661 -0.1993
  395MOL0     N53242   7.613   6.698  -0.550  0.6649 -0.3940 -0.6281
  395MOL0     C53243   7.630   7.364   0.298 -0.5503  0.4867 -0.6404
  395MOL0     C53244   7.561   7.485   0.329 -0.1289 -0.8253 -0.2551
  395MOL0     C53245   7.434   7.900   0.399  0.2562 -0.0204 -0.5373
  395MOL0     C53246   7.381   7.914   0.533 -0.3305  0.0580 -0.0863
  395MOL0     C53247   7.294   8.024   0.558 -0.1478  1.1679 -0.9459
  395MOL0     C53248   7.271   8.123   0.463 -0.2361  0.4319 -0.5306
  395MOL0     O53249   7.186   8.229   0.504 -0.4314 -0.0586 -0.2632
  395MOL0     C53250   7.128   8.320   0.411  0.9016 -0.2661  1.0327
  395MOL0     C53251   6.983   8.287   0.379  0.5666  0.1537 -0.4927
  395MOL0     C53252   6.954   8.143   0.323 -0.1018  0.0970 -0.5948
  395MOL0     C53253   6.897   8.062   0.442 -1.2213  0.8399  0.0458
  395MOL0     C53254   6.897   7.912   0.423  1.0094 -0.4346  0.1177
  395MOL0     C53255   6.877   7.797   0.413 -0.3150  0.2142 -0.3241
  395MOL0     C53256   7.320   8.103   0.329  0.1935 -0.8112 -0.1407
  395MOL0     C53257   7.394   7.990   0.302 -0.0637 -0.0198 -0.1143
  395MOL0     H53258   7.822   7.639   0.505  0.7692 -1.6519  1.1307
  395MOL0     H53259   7.942   7.458   0.424  0.8934 -0.4725 -1.5986
  395MOL0     H53260   7.739   7.227   0.086  1.8262  2.2503 -0.1949
  395MOL0     H53261   7.901   7.174   0.075  0.9556 -0.2589  0.9343
  395MOL0     H53262   7.848   6.992   0.241  0.1559 -2.2480 -1.9114
  395MOL0     H53263   7.677   7.047   0.238  0.8018 -0.7340  0.9683
  395MOL0     H53264   7.724   6.846   0.123 -3.2679 -1.1107 -2.6101
  395MOL0     H53265   7.632   6.950   0.030 -0.2515  2.9448  0.2564
  395MOL0     H53266   7.933   6.892  -0.003 -1.8560 -1.9953  3.7822
  395MOL0     H53267   7.801   6.824  -0.095 -0.5121  0.4645  0.8920
  395MOL0     H53268   7.897   7.103  -0.129  4.4745 -0.8753 -1.3252
  395MOL0     H53269   7.931   6.968  -0.235 -1.1606  1.6823 -2.1639
  395MOL0     H53270   7.653   7.087  -0.179 -3.0668 -3.5366 -1.1843
  395MOL0     H53271   7.733   7.112  -0.322  0.6795  0.1434  0.3179
  395MOL0     H53272   7.616   6.860  -0.213  1.4492 -2.5059 -0.8852
  395MOL0     H53273   7.575   6.923  -0.371  1.2668  1.6158  0.2787
  395MOL0     H53274   7.818   6.753  -0.296  0.7152  1.0912  0.6209
  395MOL0     H53275   7.810   6.833  -0.446 -0.9570 -1.7602 -0.6314
  395MOL0     H53276   7.652   6.549  -0.270  2.3966 -1.1134 -0.6929
  395MOL0     H53277   7.517   6.338  -0.356  2.3688  0.7164 -0.5120
  395MOL0     H53278   7.362   6.431  -0.352 -0.4417 -1.3462 -0.0598
  395MOL0     H53279   7.471   6.361  -0.619  0.5946 -0.5880  0.0365
  395MOL0     H53280   7.302   6.386  -0.575  1.4751  0.7620 -2.2985
  395MOL0     H53281   7.347   6.137  -0.637  1.2917 -1.3623 -0.5595
  395MOL0     H53282   7.278   6.154  -0.481 -0.0723 -1.4398 -0.7129
  395MOL0     H53283   7.462   5.988  -0.513 -3.1206 -0.2057  1.4414
  395MOL0     H53284   7.492   6.093  -0.385 -4.1517 -1.7456  1.0790
  395MOL0     H53285   7.785   6.220  -0.721 -0.2440 -2.1106  0.8770
  395MOL0     H53286   7.843   6.240  -1.081  0.6577  0.0026  0.2194
  395MOL0     H53287   7.909   6.280  -0.924  1.0785  0.6790 -0.3266
  395MOL0     H53288   7.940   6.123  -0.978  0.3908  0.1036  1.0820
  395MOL0     H53289   7.616   6.212  -1.303 -0.4472  0.2702 -0.3182
  395MOL0     H53290   7.613   6.268  -1.538 -2.0480  0.7731  0.5362
  395MOL0     H53291   7.651   6.266  -1.782  0.9571 -0.4069 -0.6510
  395MOL0     H53292   7.723   6.107  -1.785  0.4744 -1.3196 -1.8879
  395MOL0     H53293   7.524   6.207  -1.993  0.3906 -0.7442 -3.3051
  395MOL0     H53294   7.688   6.234  -2.006  0.8100  0.3686  1.7304
  395MOL0     H53295   7.576   5.950  -1.966  3.2522 -2.6167  0.6721
  395MOL0     H53296   7.734   5.996  -2.023 -0.7168 -2.7212 -1.9646
  395MOL0     H53297   7.478   6.048  -2.196  0.2718 -2.1912 -3.2838
  395MOL0     H53298   7.620   6.127  -2.229  3.4180 -1.0897  0.5676
  395MOL0     H53299   7.564   5.839  -2.223  2.7410 -0.7083  2.6898
  395MOL0     H53300   7.719   5.899  -2.247  0.9608  1.4119 -0.8835
  395MOL0     H53301   7.490   5.943  -2.456  0.0928  3.2294 -1.9782
  395MOL0     H53302   7.634   6.050  -2.443  2.5961 -1.4342  0.6137
  395MOL0     H53303   7.649   5.753  -2.475 -0.2783 -0.2285  0.2171
  395MOL0     H53304   7.787   5.860  -2.450  0.5694 -0.0021 -0.5875
  395MOL0     H53305   7.754   5.966  -2.669  1.7167 -1.8091 -1.1225
  395MOL0     H53306   7.594   5.896  -2.692  2.1930 -0.7637 -2.5329
  395MOL0     H53307   7.449   5.868  -1.619  0.5588 -1.7212  0.1700
  395MOL0     H53308   7.485   5.812  -1.386  3.2675 -0.6667  0.5300
  395MOL0     H53309   7.448   5.954  -0.972 -2.2278  0.8770  0.4898
  395MOL0     H53310   7.444   5.969  -0.730  2.6218 -3.0105  0.7041
  395MOL0     H53311   7.595   7.271   0.254  4.8937 -1.9087 -0.7083
  395MOL0     H53312   7.454   7.504   0.324 -0.4913 -2.8933 -1.6094
  395MOL0     H53313   7.410   7.837   0.603  0.8521  0.5060 -0.0609
  395MOL0     H53314   7.247   8.044   0.653 -2.8415  2.2054 -2.3793
  395MOL0     H53315   7.134   8.425   0.439 -2.7544  0.3954 -0.1347
  395MOL0     H53316   7.180   8.307   0.316 -1.0251 -1.2832  0.0470
  395MOL0     H53317   6.943   8.372   0.322  2.0195  3.5842  3.1262
  395MOL0     H53318   6.936   8.283   0.478 -1.7718 -2.3370 -1.5806
  395MOL0     H53319   7.043   8.092   0.284 -0.3399 -1.0104  0.2698
  395MOL0     H53320   6.876   8.145   0.246  1.0019  2.1280 -1.7453
  395MOL0     H53321   6.799   8.098   0.474 -0.9203 -0.0555  2.0726
  395MOL0     H53322   6.945   8.075   0.539 -0.3054  3.9631 -0.7188
  395MOL0     H53323   6.872   7.690   0.406  0.3480  0.0729  0.9209
  395MOL0     H53324   7.313   8.184   0.257  0.0558 -1.1334 -0.4929
  395MOL0     H53325   7.421   7.977   0.197 -1.0361  0.1339 -0.3963
  396MOL0     O53326   4.171  11.320  11.301  0.0309 -0.5331  0.2712
  396MOL0     C53327   4.271  11.388  11.277 -0.6990 -0.7180  0.1369
  396MOL0     O53328   4.262  11.519  11.216  0.9807  0.2223  0.0015
  396MOL0     C53329   4.145  11.593  11.228 -0.4327  0.7168 -0.7803
  396MOL0     C53330   4.112  11.679  11.120 -0.1249 -0.6640 -0.6083
  396MOL0     C53331   3.991  11.759  11.128 -0.0013  0.5773 -0.1958
  396MOL0     C53332   3.922  11.747  11.253 -0.5034  0.5928  0.0097
  396MOL0     O53333   3.802  11.821  11.252 -0.6888 -0.6445 -0.3104
  396MOL0     C53334   3.760  11.897  11.370  0.1810 -0.0797  0.4371
  396MOL0     C53335   3.643  12.007  11.331 -0.2237  0.7904 -1.2481
  396MOL0     C53336   3.513  11.936  11.298  0.4658 -0.4566 -0.3478
  396MOL0     C53337   3.415  12.033  11.229 -0.3948 -0.3256 -0.1863
  396MOL0     C53338   3.277  11.982  11.190  0.7095  0.3210  0.6349
  396MOL0     C53339   3.181  12.090  11.165  0.2865  0.3837  0.3234
  396MOL0     C53340   3.068  12.043  11.079 -0.2571 -0.3592  0.2151
  396MOL0     C53341   2.969  12.151  11.052 -0.8381  0.6744 -0.2260
  396MOL0     N53342   2.834  12.101  11.025  0.4701  0.4426  0.0863
  396MOL0     C53343   2.734  12.105  11.115  0.4352  0.9784 -0.7667
  396MOL0     C53344   2.638  12.032  11.061  0.1426 -1.0133 -0.1420
  396MOL0     C53345   2.510  12.006  11.128  0.6282  0.0871 -0.5007
  396MOL0     C53346   2.406  12.099  11.079 -0.5713 -0.6047 -0.5893
  396MOL0     C53347   2.270  12.072  11.141  0.7632 -0.6912 -0.2539
  396MOL0     C53348   2.146  12.139  11.071 -0.3780 -0.4261 -0.4287
  396MOL0     O53349   2.039  12.101  11.149  0.0801  0.1677 -0.3026
  396MOL0     C53350   1.911  12.147  11.114 -0.0805  0.8862  0.7615
  396MOL0     C53351   1.815  12.125  11.212 -0.5526 -0.5321 -0.4558
  396MOL0     C53352   1.689  12.165  11.200  0.2013 -0.2530  0.4489
  396MOL0     C53353   1.602  12.121  11.319  0.7698  0.2594 -0.9411
  396MOL0     C53354   1.648  12.243  11.090  0.3807  0.1347 -0.2400
  396MOL0     C53355   1.512  12.292  11.085  0.0372  0.5299  0.4900
  396MOL0     O53356   1.413  12.199  11.087 -0.1895 -0.2855 -0.2593
  396MOL0     C53357   1.285  12.237  11.121 -0.5414  1.0375 -0.3933
  396MOL0     C53358   1.249  12.346  11.199 -0.6901 -0.5572 -0.4966
  396MOL0     C53359   1.117  12.367  11.238 -0.0958 -0.4489 -0.3522
  396MOL0     C53360   1.006  12.281  11.187  0.0828  0.2857 -0.1342
  396MOL0     O53361   0.874  12.309  11.225 -0.1888  0.4738 -0.6666
  396MOL0     C53362   0.777  12.296  11.120 -0.4708 -0.2028 -0.6026
  396MOL0     C53363   0.630  12.306  11.165  0.6513 -0.6025  0.4388
  396MOL0     C53364   0.593  12.190  11.257 -0.0146 -0.0761 -0.1059
  396MOL0     C53365   0.439  12.153  11.264 -0.9711 -0.3628 -0.7467
  396MOL0     C53366   0.417  12.022  11.328  0.2303  0.0176 -1.1824
  396MOL0     C53367   0.276  11.980  11.324 -0.3449  0.3791 -0.1721
  396MOL0     C53368   0.275  11.842  11.400  0.3292 -0.0191 -0.1402
  396MOL0     C53369   0.131  11.814  11.429 -0.1513  0.2037 -0.3476
  396MOL0    Cl53370   0.035  11.764  11.273  0.2568  0.2148  0.5498
  396MOL0     C53371   1.049  12.174  11.109 -0.0207  0.4651 -0.1761
  396MOL0     C53372   1.181  12.154  11.079  0.6667 -0.7581  0.0371
  396MOL0     O53373   1.491  12.410  11.059 -0.7633 -1.0455 -0.0686
  396MOL0     C53374   1.745  12.271  10.992  0.3737  0.5415  0.7492
  396MOL0     C53375   1.881  12.226  11.004  1.0404  0.3291  0.4746
  396MOL0     N53376   2.685  11.978  10.944  0.2671 -0.1651  0.0749
  396MOL0     N53377   2.798  12.025  10.921  0.0922 -0.0132  0.2265
  396MOL0     C53378   3.966  11.672  11.366  0.8686  0.2361  0.8657
  396MOL0     C53379   4.081  11.594  11.348 -0.0857  0.4479 -0.9267
  396MOL0     C53380   4.404  11.332  11.295 -1.3658  0.0020 -0.1496
  396MOL0     C53381   4.426  11.189  11.304 -0.4361 -0.1225  0.4314
  396MOL0     C53382   4.544  11.130  11.328  0.0871 -0.3608  0.0846
  396MOL0     C53383   4.653  11.213  11.356  0.0822  0.7807  0.3632
  396MOL0     O53384   4.768  11.145  11.388  0.5915  0.8296  0.5097
  396MOL0     C53385   4.887  11.221  11.388  0.8212  0.0059 -0.1153
  396MOL0     C53386   4.994  11.124  11.441 -0.5488  1.1239  0.4849
  396MOL0     C53387   5.018  11.018  11.336 -0.0694  0.0739  0.2504
  396MOL0     C53388   5.132  10.934  11.374  0.1312  0.1617  0.5009
  396MOL0     C53389   5.248  11.013  11.386  0.2285 -0.7897 -0.1018
  396MOL0     C53390   5.353  11.074  11.406  0.4551 -0.1163  0.3527
  396MOL0     C53391   4.634  11.353  11.348  0.8784  0.3407  0.6127
  396MOL0     C53392   4.516  11.417  11.311 -0.1668  0.7167  0.1982
  396MOL0     H53393   4.163  11.678  11.025 -2.7111 -0.6222 -2.0754
  396MOL0     H53394   3.952  11.821  11.048  2.2616  1.5429 -0.6440
  396MOL0     H53395   3.720  11.829  11.446 -1.0023 -0.5313 -0.5596
  396MOL0     H53396   3.839  11.943  11.430 -0.8432 -1.8091  3.3234
  396MOL0     H53397   3.622  12.070  11.418  1.2759 -1.1202  0.6022
  396MOL0     H53398   3.678  12.062  11.243  1.8950 -0.8026 -1.4846
  396MOL0     H53399   3.532  11.851  11.232  1.8939 -1.7010  1.5688
  396MOL0     H53400   3.463  11.895  11.386  1.5185  5.5093  3.6067
  396MOL0     H53401   3.383  12.119  11.288 -0.2508  1.2735 -2.3118
  396MOL0     H53402   3.461  12.079  11.141 -1.4470 -0.3770 -0.7864
  396MOL0     H53403   3.306  11.918  11.106 -0.3243 -0.2545  0.7016
  396MOL0     H53404   3.232  11.915  11.264 -0.3686 -0.4072 -0.6238
  396MOL0     H53405   3.140  12.128  11.259 -2.9964  0.6606 -1.0704
  396MOL0     H53406   3.229  12.180  11.125  1.2130 -0.5060 -0.6220
  396MOL0     H53407   3.100  12.000  10.983  2.5936  0.9547  0.4610
  396MOL0     H53408   3.016  11.957  11.123 -0.7339 -0.8338 -1.1945
  396MOL0     H53409   3.007  12.219  10.976 -0.2876  0.7950  0.1516
  396MOL0     H53410   2.972  12.213  11.142 -0.7563 -2.6879  2.2834
  396MOL0     H53411   2.731  12.155  11.211  2.0169 -0.5947  0.1765
  396MOL0     H53412   2.481  11.901  11.118  1.2735 -0.0490 -0.9882
  396MOL0     H53413   2.528  12.025  11.234  1.6869 -0.9203 -0.4806
  396MOL0     H53414   2.390  12.086  10.972 -2.2605 -1.8046 -0.2349
  396MOL0     H53415   2.435  12.203  11.096 -2.1607 -0.2830  0.3796
  396MOL0     H53416   2.260  12.110  11.243 -2.8032 -1.1313 -0.2917
  396MOL0     H53417   2.246  11.966  11.153  0.6770 -0.5617  0.8530
  396MOL0     H53418   2.135  12.115  10.965  1.2367 -0.1439 -0.6985
  396MOL0     H53419   2.157  12.248  11.066 -1.4637 -0.2854  0.1090
  396MOL0     H53420   1.839  12.077  11.307 -1.5884 -2.1809 -0.9797
  396MOL0     H53421   1.592  12.196  11.398  0.9164 -1.1443  0.4521
  396MOL0     H53422   1.502  12.118  11.275  1.7855  1.4045 -3.5289
  396MOL0     H53423   1.637  12.025  11.359  0.3529  0.4505 -0.1001
  396MOL0     H53424   1.317  12.420  11.240  0.7910 -3.1320  1.9896
  396MOL0     H53425   1.099  12.451  11.303  0.2460 -0.4885 -0.2013
  396MOL0     H53426   0.795  12.378  11.051 -1.6314 -1.4705 -2.5208
  396MOL0     H53427   0.788  12.200  11.068 -2.8150 -1.5120  1.0706
  396MOL0     H53428   0.601  12.402  11.209 -0.7165 -1.4811  1.5520
  396MOL0     H53429   0.588  12.288  11.066  4.4971 -0.1003 -1.4878
  396MOL0     H53430   0.629  12.218  11.356 -0.9955  1.6004 -0.1968
  396MOL0     H53431   0.647  12.098  11.231  0.6753 -0.1110  1.3237
  396MOL0     H53432   0.385  12.234  11.312  1.2684  2.3338 -2.4906
  396MOL0     H53433   0.399  12.151  11.162 -3.2559  3.4867 -0.1039
  396MOL0     H53434   0.467  12.001  11.423 -2.0151 -1.9481 -0.3157
  396MOL0     H53435   0.473  11.952  11.264 -0.1931 -0.1632 -1.3573
  396MOL0     H53436   0.220  12.055  11.380 -3.9178 -0.9193 -1.7266
  396MOL0     H53437   0.234  11.971  11.224  2.8716 -1.9807 -1.5150
  396MOL0     H53438   0.319  11.852  11.500  1.4038 -2.8281 -0.2239
  396MOL0     H53439   0.327  11.765  11.343 -0.9866 -1.9838  1.1346
  396MOL0     H53440   0.099  11.907  11.477  1.1157  0.2578  0.4530
  396MOL0     H53441   0.125  11.740  11.510 -2.0634  0.6979  0.0145
  396MOL0     H53442   0.976  12.105  11.067  0.9560 -0.4441 -0.4042
  396MOL0     H53443   1.206  12.071  11.014 -0.5489 -0.4094 -0.9067
  396MOL0     H53444   1.721  12.323  10.899  0.9783  0.9748  0.8315
  396MOL0     H53445   1.959  12.237  10.929 -0.3627  1.8452 -0.8344
  396MOL0     H53446   3.907  11.663  11.456  2.9275 -2.1298  2.0889
  396MOL0     H53447   4.116  11.539  11.435 -4.2769  0.3232  0.8915
  396MOL0     H53448   4.338  11.126  11.296  0.0999 -0.7908 -0.3738
  396MOL0     H53449   4.545  11.021  11.330 -2.2937 -0.4584  2.2782
  396MOL0     H53450   4.899  11.277  11.296 -2.0053  0.8462 -0.0900
  396MOL0     H53451   4.884  11.302  11.462 -3.3890  2.4808 -2.6057
  396MOL0     H53452   4.969  11.083  11.539 -2.8210  0.1806 -0.4233
  396MOL0     H53453   5.082  11.183  11.469  0.5920  0.3969 -1.3721
  396MOL0     H53454   5.041  11.071  11.243 -1.3246 -2.3462 -1.5501
  396MOL0     H53455   4.934  10.952  11.315  0.3154  0.6276 -3.9205
  396MOL0     H53456   5.142  10.858  11.296 -3.7536  0.5302 -0.5150
  396MOL0     H53457   5.116  10.884  11.470  0.6098  0.5984  0.8188
  396MOL0     H53458   5.447  11.120  11.429  0.6569  0.6971 -1.9018
  396MOL0     H53459   4.715  11.421  11.372  1.1861 -0.6460  2.6355
  396MOL0     H53460   4.501  11.524  11.305 -1.5380  0.6329  1.4187
  397MOL0     O53461   0.123   9.159   8.648 -0.3833  0.7078  0.1273
  397MOL0     C53462   0.136   9.158   8.771  0.3466  0.7321  0.2209
  397MOL0     O53463   0.250   9.136   8.838  0.5162  0.1850  0.2369
  397MOL0     C53464   0.372   9.105   8.771  0.2244 -0.6418  0.7545
  397MOL0     C53465   0.452   9.210   8.732 -0.1752 -0.4811  1.1472
  397MOL0     C53466   0.566   9.189   8.658  0.1844  0.6046 -0.0640
  397MOL0     C53467   0.596   9.061   8.617 -0.6391  0.8088  0.3815
  397MOL0     O53468   0.698   9.040   8.526  0.7478 -0.0621 -0.0978
  397MOL0     C53469   0.821   9.017   8.587  1.3018 -0.3612  0.4412
  397MOL0     C53470   0.928   9.122   8.540 -0.0219  0.4422 -0.0964
  397MOL0     C53471   0.925   9.115   8.386  0.7422  0.1569  0.4547
  397MOL0     C53472   1.046   9.199   8.336  0.2413  0.7423  0.1626
  397MOL0     C53473   1.085   9.209   8.188  0.8944  0.1998  0.4257
  397MOL0     C53474   1.202   9.315   8.184  0.2891 -0.2274  0.6384
  397MOL0     C53475   1.248   9.346   8.040 -0.2324 -0.0801 -0.9844
  397MOL0     C53476   1.346   9.462   8.040  0.1024  0.5008 -0.3328
  397MOL0     N53477   1.487   9.416   8.067 -0.6531 -0.1122  0.0313
  397MOL0     C53478   1.575   9.379   7.968  0.7342  0.9664  0.7158
  397MOL0     C53479   1.690   9.349   8.032  0.8526  0.4812 -0.4641
  397MOL0     C53480   1.823   9.317   7.968  0.2343  0.2480 -0.4058
  397MOL0     C53481   1.928   9.356   8.079 -0.3339 -0.8592  1.1352
  397MOL0     C53482   2.073   9.355   8.042 -1.0334  0.0848  0.5172
  397MOL0     C53483   2.160   9.393   8.169  0.1471  0.0872  0.1536
  397MOL0     O53484   2.149   9.294   8.280 -0.6573 -0.4110  0.0696
  397MOL0     C53485   2.111   9.346   8.396 -0.7017 -0.2446 -1.5641
  397MOL0     C53486   2.196   9.320   8.505 -0.4844 -0.0600 -0.0583
  397MOL0     C53487   2.165   9.366   8.629 -0.1755  0.7018 -0.1899
  397MOL0     C53488   2.267   9.329   8.739  0.8423  0.2692 -0.6390
  397MOL0     C53489   2.048   9.441   8.659  0.1865  0.4265 -0.0102
  397MOL0     C53490   1.997   9.470   8.794 -0.8492 -0.2867 -0.4328
  397MOL0     O53491   2.080   9.441   8.896 -0.1264  0.3343 -0.0127
  397MOL0     C53492   2.036   9.386   9.014 -0.3675 -0.1702  0.1415
  397MOL0     C53493   2.130   9.399   9.119  0.2467  1.3003 -0.3160
  397MOL0     C53494   2.103   9.360   9.248  0.1154  0.1299  0.5622
  397MOL0     C53495   1.970   9.321   9.277 -0.3462 -0.3544  0.1605
  397MOL0     O53496   1.915   9.321   9.402 -0.5324  0.2261 -0.9308
  397MOL0     C53497   1.992   9.284   9.515 -0.4431  0.1646 -0.2561
  397MOL0     C53498   2.006   9.401   9.610 -0.2079 -0.0137  0.9944
  397MOL0     C53499   1.874   9.467   9.639  0.0161  0.4473 -0.2935
  397MOL0     C53500   1.893   9.581   9.735 -0.1089  0.2192 -1.0570
  397MOL0     C53501   1.758   9.654   9.763 -0.8898  0.1720 -0.7167
  397MOL0     C53502   1.776   9.760   9.878  0.0417 -0.1122 -0.5471
  397MOL0     C53503   1.644   9.793   9.937  0.3582 -0.2611 -0.6885
  397MOL0     C53504   1.657   9.866  10.068  0.2560  0.3732 -0.1362
  397MOL0    Cl53505   1.493   9.892  10.150 -0.4775  0.3884 -0.4474
  397MOL0     C53506   1.885   9.302   9.168  0.4651 -0.6989 -0.2424
  397MOL0     C53507   1.915   9.338   9.038  1.0754  0.4698  0.0888
  397MOL0     O53508   1.883   9.516   8.805 -0.4869  0.2572  0.2852
  397MOL0     C53509   1.973   9.480   8.543 -0.0766  0.2159 -0.6547
  397MOL0     C53510   1.999   9.427   8.419 -0.1775  0.1861  0.2760
  397MOL0     N53511   1.660   9.370   8.173  0.4831  0.3278  0.1561
  397MOL0     N53512   1.545   9.418   8.189  0.9967 -0.7575 -0.0007
  397MOL0     C53513   0.514   8.954   8.649  0.1711 -0.2152  0.4525
  397MOL0     C53514   0.399   8.973   8.728 -0.3883 -0.1173 -0.6210
  397MOL0     C53515   0.017   9.161   8.858 -0.5944 -0.1410 -0.2592
  397MOL0     C53516   0.023   9.133   8.994 -0.3581 -0.0253  0.2141
  397MOL0     C53517  -0.089   9.132   9.072  0.1210  0.0413 -1.0361
  397MOL0     C53518  -0.213   9.183   9.025 -1.5601  1.1333  0.3590
  397MOL0     O53519  -0.330   9.187   9.088 -0.7494  0.1228 -0.0751
  397MOL0     C53520  -0.324   9.143   9.227 -0.2342 -0.1133  0.0123
  397MOL0     C53521  -0.465   9.142   9.293 -1.2779 -0.1397 -0.4895
  397MOL0     C53522  -0.548   9.035   9.232 -0.0711 -0.7386  0.3172
  397MOL0     C53523  -0.637   9.073   9.114  0.1482 -0.1113 -0.3448
  397MOL0     C53524  -0.745   8.982   9.087  0.0661 -1.0586 -0.4654
  397MOL0     C53525  -0.834   8.900   9.076 -0.6267  0.8125  0.3765
  397MOL0     C53526  -0.211   9.224   8.889  0.1461  0.1304  0.2310
  397MOL0     C53527  -0.101   9.216   8.811 -0.1223  0.0053  0.2713
  397MOL0     H53528   0.430   9.315   8.743 -1.7240 -0.3709 -1.8213
  397MOL0     H53529   0.610   9.285   8.634 -1.2716  1.6867  1.3736
  397MOL0     H53530   0.810   9.014   8.696 -2.0994 -2.5833  0.1993
  397MOL0     H53531   0.844   8.916   8.554 -1.5169  0.0438 -3.3720
  397MOL0     H53532   0.913   9.224   8.576  4.0317  1.0347  0.4149
  397MOL0     H53533   1.023   9.095   8.588 -2.5551  0.8482  6.0907
  397MOL0     H53534   0.929   9.012   8.350 -1.7552  0.4149 -0.7936
  397MOL0     H53535   0.830   9.153   8.347  0.9217 -1.5342 -1.8783
  397MOL0     H53536   1.024   9.304   8.358 -1.0110  0.0797  2.2922
  397MOL0     H53537   1.134   9.174   8.396  0.9889 -0.4269 -1.3386
  397MOL0     H53538   1.113   9.115   8.139  3.3938  1.2283 -0.3223
  397MOL0     H53539   1.004   9.257   8.132  0.5091 -0.8078  0.1007
  397MOL0     H53540   1.160   9.404   8.232  0.8941  0.3829  0.0762
  397MOL0     H53541   1.286   9.269   8.236  1.6863 -0.1489 -1.4287
  397MOL0     H53542   1.306   9.264   7.996  1.3322  0.8326 -0.7151
  397MOL0     H53543   1.159   9.366   7.980 -0.9490 -0.5684 -0.0999
  397MOL0     H53544   1.306   9.536   8.110 -0.2870 -0.6741  0.7387
  397MOL0     H53545   1.352   9.508   7.941 -0.9308 -1.0278 -1.1434
  397MOL0     H53546   1.553   9.390   7.862  0.0751 -1.1056  0.6120
  397MOL0     H53547   1.831   9.209   7.947  0.0895 -0.4558  2.7513
  397MOL0     H53548   1.837   9.373   7.875 -1.2827  1.5347  0.0883
  397MOL0     H53549   1.929   9.289   8.166  1.5704 -1.0128  1.0434
  397MOL0     H53550   1.900   9.453   8.120  1.0918 -0.2890  0.8356
  397MOL0     H53551   2.097   9.422   7.960  3.6594  2.7734  3.5653
  397MOL0     H53552   2.099   9.256   8.004 -1.9292 -0.4584  1.2747
  397MOL0     H53553   2.121   9.490   8.202  3.3012  1.9451 -1.0809
  397MOL0     H53554   2.265   9.406   8.139  0.3228  0.4693  0.9002
  397MOL0     H53555   2.287   9.263   8.490 -1.9525 -4.1658  4.1060
  397MOL0     H53556   2.225   9.268   8.820  2.8180 -1.9593 -1.1985
  397MOL0     H53557   2.344   9.262   8.701  0.6642  2.2565 -5.2121
  397MOL0     H53558   2.311   9.421   8.778 -1.7925  2.6985 -2.9043
  397MOL0     H53559   2.234   9.425   9.102  0.7161 -0.5617 -0.5125
  397MOL0     H53560   2.174   9.383   9.326  0.9766  4.1368 -1.1202
  397MOL0     H53561   1.921   9.217   9.565 -3.7432  3.1676 -0.4924
  397MOL0     H53562   2.086   9.231   9.497 -1.5220 -1.1470 -2.4621
  397MOL0     H53563   2.054   9.365   9.702 -4.0235 -2.9783  2.0739
  397MOL0     H53564   2.072   9.482   9.577 -1.9803  0.1746 -2.6070
  397MOL0     H53565   1.800   9.393   9.670 -1.5624  1.6508 -1.0211
  397MOL0     H53566   1.832   9.510   9.547  1.0775  0.5668 -0.7357
  397MOL0     H53567   1.935   9.531   9.823 -1.3144 -0.7931 -1.0352
  397MOL0     H53568   1.968   9.646   9.688  4.1175 -1.3174  2.8582
  397MOL0     H53569   1.679   9.582   9.784  2.8168 -3.4540  2.6400
  397MOL0     H53570   1.719   9.704   9.674  4.0120  0.3207 -3.1001
  397MOL0     H53571   1.840   9.728   9.961 -0.9614 -0.8199 -0.0239
  397MOL0     H53572   1.828   9.852   9.849  0.4172  0.6837  2.3267
  397MOL0     H53573   1.587   9.702   9.958 -1.9716  1.5676  1.4346
  397MOL0     H53574   1.593   9.858   9.866  0.5199 -0.8711 -1.3803
  397MOL0     H53575   1.702   9.961  10.037 -0.9660  0.7126 -0.9500
  397MOL0     H53576   1.719   9.813  10.141 -0.2487  2.0750  1.6221
  397MOL0     H53577   1.779   9.279   9.178 -0.3346  2.4413 -0.4725
  397MOL0     H53578   1.830   9.329   8.971 -0.6585 -1.2258  2.3399
  397MOL0     H53579   1.891   9.550   8.556 -1.5555 -0.3864 -5.1842
  397MOL0     H53580   1.930   9.450   8.339 -2.0415 -0.9346  1.5005
  397MOL0     H53581   0.542   8.860   8.604  1.6451  1.2089 -1.8000
  397MOL0     H53582   0.324   8.896   8.745 -2.1640  2.0399  2.3871
  397MOL0     H53583   0.117   9.096   9.034  0.3644 -0.6454 -1.9047
  397MOL0     H53584  -0.064   9.076   9.162  2.2949  0.3880 -1.3583
  397MOL0     H53585  -0.262   9.055   9.249 -0.1146 -0.8232 -2.7824
  397MOL0     H53586  -0.254   9.215   9.272 -2.9730  1.6095  1.7695
  397MOL0     H53587  -0.519   9.236   9.274 -0.1308  0.4656 -0.8594
  397MOL0     H53588  -0.439   9.129   9.399  0.3650 -1.2242 -0.9901
  397MOL0     H53589  -0.618   8.996   9.306 -1.4004  2.3030  0.7637
  397MOL0     H53590  -0.486   8.949   9.205 -2.3835 -2.5479  0.4359
  397MOL0     H53591  -0.561   9.068   9.036  2.8288 -2.7331  2.1370
  397MOL0     H53592  -0.669   9.177   9.119  1.3174  0.2997 -1.0882
  397MOL0     H53593  -0.923   8.841   9.081  0.2618 -0.4773  1.7783
  397MOL0     H53594  -0.305   9.252   8.842  0.7577  1.2059 -0.3669
  397MOL0     H53595  -0.096   9.256   8.711  2.3178  1.6652  0.9459
  398MOL0     O53596   2.415   7.971   6.509  0.6628 -0.6465  0.4305
  398MOL0     C53597   2.474   7.929   6.605  1.3949 -0.4141 -0.4337
  398MOL0     O53598   2.417   7.921   6.730 -0.0023  0.3867  0.4406
  398MOL0     C53599   2.304   7.991   6.748 -0.8142 -0.2598 -0.1327
  398MOL0     C53600   2.200   7.914   6.799  0.9149  0.0735  0.3102
  398MOL0     C53601   2.085   7.993   6.834  0.4295 -0.0800  0.6521
  398MOL0     C53602   2.072   8.124   6.823 -0.2339  0.1066  0.5304
  398MOL0     O53603   1.961   8.177   6.873  0.5413  0.5143  0.2932
  398MOL0     C53604   1.969   8.308   6.929 -0.2202  0.0341  0.4165
  398MOL0     C53605   1.843   8.331   7.018  0.5129 -0.9526 -0.6679
  398MOL0     C53606   1.843   8.467   7.096 -0.2419 -0.6050  0.2894
  398MOL0     C53607   1.716   8.485   7.190 -0.1325  0.3406 -0.8512
  398MOL0     C53608   1.595   8.404   7.150  0.5420  0.0019 -0.0488
  398MOL0     C53609   1.473   8.443   7.228  0.2879 -0.0256  0.1137
  398MOL0     C53610   1.342   8.400   7.172  0.1703 -0.0010 -0.0171
  398MOL0     C53611   1.308   8.258   7.196  0.1601  0.1854 -0.4215
  398MOL0     N53612   1.161   8.256   7.204 -0.0091 -0.5183 -0.1118
  398MOL0     C53613   1.104   8.301   7.318 -1.0733 -0.4900  0.4132
  398MOL0     C53614   0.993   8.228   7.337 -0.0092 -0.6685  0.2472
  398MOL0     C53615   0.897   8.258   7.450  0.0898  0.2642  0.0788
  398MOL0     C53616   0.782   8.154   7.452  0.1015 -0.0051  0.4578
  398MOL0     C53617   0.704   8.194   7.578  0.2703 -0.5073  0.7557
  398MOL0     C53618   0.580   8.104   7.614  0.1924 -0.3521 -0.1279
  398MOL0     O53619   0.493   8.164   7.708  0.2381  0.4974 -0.0653
  398MOL0     C53620   0.408   8.076   7.773 -0.4464  0.8294 -0.2029
  398MOL0     C53621   0.378   8.092   7.906  0.1656 -0.1266 -0.2399
  398MOL0     C53622   0.285   8.004   7.968 -0.0119  0.5156 -0.4228
  398MOL0     C53623   0.265   8.008   8.117 -0.2695 -0.8303  0.4148
  398MOL0     C53624   0.211   7.913   7.891 -0.7545 -0.4616 -1.2471
  398MOL0     C53625   0.109   7.825   7.958 -0.3517 -0.6374  0.2186
  398MOL0     O53626   0.150   7.728   8.044 -0.0605 -0.0707 -0.7090
  398MOL0     C53627   0.261   7.666   8.007 -0.5282 -1.1218  0.3994
  398MOL0     C53628   0.262   7.600   7.883  0.4283 -0.1699  0.6547
  398MOL0     C53629   0.382   7.536   7.845  0.6265 -0.7201  0.2513
  398MOL0     C53630   0.503   7.549   7.919 -1.0872  0.2082  0.0733
  398MOL0     O53631   0.624   7.492   7.868 -0.0419  0.4787 -0.2811
  398MOL0     C53632   0.751   7.525   7.931 -0.4173  0.2064 -0.3609
  398MOL0     C53633   0.872   7.516   7.835 -0.7891  0.6838  0.3297
  398MOL0     C53634   0.935   7.376   7.825  0.2509  0.6755  0.1581
  398MOL0     C53635   1.078   7.388   7.764 -0.2893  0.6653  0.0680
  398MOL0     C53636   1.164   7.260   7.755 -0.7560 -0.3010 -0.2074
  398MOL0     C53637   1.098   7.147   7.668 -0.2528 -0.3502 -1.0430
  398MOL0     C53638   1.203   7.053   7.610  1.0638  0.1206  0.4520
  398MOL0     C53639   1.129   6.990   7.492 -0.1193  0.6249 -0.1138
  398MOL0    Cl53640   1.247   6.908   7.387  0.0370  0.1963 -0.0834
  398MOL0     C53641   0.500   7.625   8.041 -0.6138 -0.6152 -0.2021
  398MOL0     C53642   0.375   7.674   8.085 -0.0736 -0.9506  0.9047
  398MOL0     O53643  -0.006   7.843   7.910  0.0094 -0.3423 -0.4699
  398MOL0     C53644   0.249   7.889   7.762 -0.5329  0.6999 -0.0168
  398MOL0     C53645   0.347   7.963   7.703  0.0418 -0.3277  0.7765
  398MOL0     N53646   0.984   8.149   7.228  0.1536  1.1011 -0.0580
  398MOL0     N53647   1.076   8.171   7.143  0.2748  0.3467 -0.1017
  398MOL0     C53648   2.183   8.196   6.780 -1.0595  0.4774  0.0412
  398MOL0     C53649   2.300   8.125   6.751 -0.3928 -0.5778  1.1291
  398MOL0     C53650   2.608   7.897   6.581  1.0057 -0.8204 -0.3132
  398MOL0     C53651   2.682   7.803   6.666  0.1682  0.0968 -0.3040
  398MOL0     C53652   2.819   7.774   6.643  0.5516 -0.2472  0.6088
  398MOL0     C53653   2.883   7.836   6.529  0.0656  0.3786 -0.5485
  398MOL0     O53654   3.008   7.794   6.486  0.4474  0.5100 -0.1203
  398MOL0     C53655   3.021   7.654   6.457 -1.3965 -0.2940  0.4163
  398MOL0     C53656   3.082   7.650   6.315  0.6867 -0.6243 -0.1949
  398MOL0     C53657   3.113   7.500   6.279 -0.6480 -0.1516  0.7780
  398MOL0     C53658   3.241   7.470   6.199  0.0085 -0.9360  1.2306
  398MOL0     C53659   3.247   7.558   6.080 -0.3348 -0.5318 -0.3619
  398MOL0     C53660   3.265   7.635   5.990  1.4657  0.0096 -1.0929
  398MOL0     C53661   2.816   7.932   6.455 -0.1106  0.4132 -0.3514
  398MOL0     C53662   2.676   7.957   6.470 -0.1288  0.3439  0.4711
  398MOL0     H53663   2.204   7.806   6.812  0.7314 -0.2053 -1.6290
  398MOL0     H53664   2.003   7.930   6.866 -0.5672  0.0782 -1.4251
  398MOL0     H53665   2.054   8.308   6.997  0.2955 -2.5054 -0.0943
  398MOL0     H53666   1.987   8.396   6.867 -2.9186  0.4599  0.0849
  398MOL0     H53667   1.753   8.326   6.956  0.1792 -4.9505 -0.1193
  398MOL0     H53668   1.833   8.246   7.086  3.7144 -0.3588  0.7286
  398MOL0     H53669   1.924   8.485   7.168 -0.4171  0.8672  0.1395
  398MOL0     H53670   1.834   8.549   7.024  0.2635 -0.6135  0.2199
  398MOL0     H53671   1.741   8.449   7.290  3.2593 -0.6996 -1.9326
  398MOL0     H53672   1.689   8.588   7.212  2.1054  0.8030  0.0072
  398MOL0     H53673   1.575   8.423   7.044 -2.0800  0.5511  0.4802
  398MOL0     H53674   1.622   8.298   7.143 -0.0820 -0.0826 -2.0290
  398MOL0     H53675   1.484   8.398   7.327  0.0126 -2.5964 -0.9439
  398MOL0     H53676   1.461   8.551   7.236 -2.3569 -0.3749  2.4553
  398MOL0     H53677   1.269   8.469   7.217  0.5193  1.5077 -1.6829
  398MOL0     H53678   1.363   8.415   7.066  1.3672 -0.6803  0.1035
  398MOL0     H53679   1.336   8.223   7.295  0.5437 -1.0439 -0.9436
  398MOL0     H53680   1.349   8.188   7.123 -1.8777 -3.4571  1.6534
  398MOL0     H53681   1.146   8.363   7.396  0.6925 -0.8668 -0.1902
  398MOL0     H53682   0.949   8.259   7.546  0.9525  1.3589 -0.3745
  398MOL0     H53683   0.850   8.356   7.442 -5.3790 -1.9360  1.1774
  398MOL0     H53684   0.825   8.053   7.462 -1.0195 -0.3922  1.6310
  398MOL0     H53685   0.718   8.163   7.364  1.0171 -1.9041 -0.4838
  398MOL0     H53686   0.674   8.299   7.566  2.6896 -0.0111 -2.7076
  398MOL0     H53687   0.766   8.188   7.668 -0.5005  1.9918  1.5359
  398MOL0     H53688   0.613   8.001   7.624 -1.6568 -1.2653 -2.4721
  398MOL0     H53689   0.522   8.096   7.522  1.4291  2.6583 -1.2974
  398MOL0     H53690   0.429   8.179   7.946 -1.1373  1.8875 -2.7023
  398MOL0     H53691   0.342   8.074   8.158  0.3393  0.9139 -3.1650
  398MOL0     H53692   0.171   8.062   8.130  1.4663  2.8812 -0.9227
  398MOL0     H53693   0.263   7.909   8.163 -0.5592 -0.8729  0.3118
  398MOL0     H53694   0.175   7.604   7.819  1.2738  1.2914 -0.4818
  398MOL0     H53695   0.394   7.476   7.756 -2.6691 -1.6846  0.3309
  398MOL0     H53696   0.749   7.631   7.960  0.8020  0.0775  0.2398
  398MOL0     H53697   0.767   7.469   8.023  1.0189  2.0195  0.5596
  398MOL0     H53698   0.846   7.553   7.736  3.4744 -0.5602 -1.4796
  398MOL0     H53699   0.951   7.585   7.867  1.6353 -1.4056 -0.8262
  398MOL0     H53700   0.859   7.317   7.773  0.2745 -0.7719  1.6415
  398MOL0     H53701   0.950   7.335   7.926  3.1094 -0.2412 -0.5638
  398MOL0     H53702   1.076   7.443   7.670 -0.2211  0.4241 -0.0770
  398MOL0     H53703   1.130   7.440   7.845  0.0410  2.0768 -1.0159
  398MOL0     H53704   1.178   7.230   7.859  1.3045 -0.2333 -0.4177
  398MOL0     H53705   1.265   7.287   7.724 -1.1142  1.6405  0.2177
  398MOL0     H53706   1.031   7.089   7.733 -0.3555 -0.4994 -1.2812
  398MOL0     H53707   1.040   7.195   7.589 -3.7636 -0.7007  1.1306
  398MOL0     H53708   1.237   6.980   7.684 -1.0686  0.0633  1.4479
  398MOL0     H53709   1.290   7.102   7.565  0.2288  0.9443 -0.3193
  398MOL0     H53710   1.077   7.051   7.418  1.3321  2.5992  0.4071
  398MOL0     H53711   1.063   6.914   7.535  1.4883 -1.1099 -0.6289
  398MOL0     H53712   0.587   7.645   8.102 -1.7659 -0.3249  1.4168
  398MOL0     H53713   0.375   7.713   8.186 -0.2591  1.4871  0.0311
  398MOL0     H53714   0.205   7.812   7.700 -0.4659 -0.1102  0.9047
  398MOL0     H53715   0.361   7.949   7.596  1.6469 -0.5933  0.9888
  398MOL0     H53716   2.172   8.304   6.776 -2.4445  0.5115  2.4273
  398MOL0     H53717   2.393   8.174   6.725 -0.6977 -0.1023  0.9152
  398MOL0     H53718   2.622   7.753   6.741  0.3528  1.5035  0.8164
  398MOL0     H53719   2.862   7.688   6.693  0.5733 -0.7958 -0.3250
  398MOL0     H53720   3.095   7.604   6.520 -0.5370 -0.8348 -0.9971
  398MOL0     H53721   2.923   7.606   6.465 -2.3382  1.3834 -0.5134
  398MOL0     H53722   3.173   7.709   6.301 -0.6901  1.5538 -0.5918
  398MOL0     H53723   3.001   7.687   6.252  1.3877 -2.0284 -2.0011
  398MOL0     H53724   3.036   7.466   6.210  1.2293 -0.9867 -0.9930
  398MOL0     H53725   3.129   7.443   6.371  2.0895  1.8024  1.6746
  398MOL0     H53726   3.249   7.371   6.153  2.9661  0.5622 -1.9963
  398MOL0     H53727   3.330   7.482   6.261  0.6500 -0.6570  0.2764
  398MOL0     H53728   3.264   7.704   5.908 -2.8686  0.5716 -0.7933
  398MOL0     H53729   2.871   7.973   6.370  1.0396 -0.0552  0.1422
  398MOL0     H53730   2.614   8.017   6.405  1.4566 -0.8294 -2.3119
  399MOL0     O53731   2.424   4.478   2.502 -0.0557  1.5656  0.6716
  399MOL0     C53732   2.410   4.422   2.613 -0.0285  0.1297 -0.4544
  399MOL0     O53733   2.503   4.332   2.661 -0.1120  0.3295 -0.8960
  399MOL0     C53734   2.623   4.323   2.585 -0.5897  0.5021 -0.3562
  399MOL0     C53735   2.626   4.234   2.470  0.0194 -0.6981 -0.1213
  399MOL0     C53736   2.740   4.224   2.390  1.0392  0.3520  0.7469
  399MOL0     C53737   2.859   4.290   2.419 -0.3019  0.1047 -1.0148
  399MOL0     O53738   2.975   4.270   2.356  0.4856  0.1640  0.5012
  399MOL0     C53739   2.980   4.333   2.226 -0.7552  0.4288 -0.1785
  399MOL0     C53740   2.936   4.229   2.124 -0.1021  0.1629 -0.0234
  399MOL0     C53741   3.027   4.108   2.111 -0.6744  0.1118  0.0585
  399MOL0     C53742   3.153   4.137   2.017 -0.2226 -0.5206 -0.8430
  399MOL0     C53743   3.223   4.019   1.945 -0.8062 -0.2394  0.3474
  399MOL0     C53744   3.338   4.089   1.858  0.1399 -0.8787 -0.7021
  399MOL0     C53745   3.434   3.985   1.821 -0.7310  0.5742  0.9466
  399MOL0     C53746   3.577   4.042   1.801  0.2900 -0.7281  0.6046
  399MOL0     N53747   3.568   4.157   1.701  1.2102 -0.0221  0.0243
  399MOL0     C53748   3.555   4.150   1.566  0.8073  0.1669  0.4850
  399MOL0     C53749   3.524   4.283   1.540  0.9122 -0.0330  0.1231
  399MOL0     C53750   3.502   4.338   1.409  0.0102 -0.2804  1.1861
  399MOL0     C53751   3.359   4.365   1.360  0.3499 -1.2510  1.0060
  399MOL0     C53752   3.283   4.230   1.343 -0.0703  0.3546  0.4864
  399MOL0     C53753   3.128   4.231   1.323 -0.5299 -0.6064  0.5224
  399MOL0     O53754   3.097   4.336   1.232 -0.3978  0.4319  0.0618
  399MOL0     C53755   3.000   4.425   1.279  0.4606 -0.1604  0.3591
  399MOL0     C53756   2.897   4.369   1.353  0.5146  0.5831 -0.1745
  399MOL0     C53757   2.795   4.445   1.419 -0.2506 -0.4623 -0.5460
  399MOL0     C53758   2.700   4.385   1.522 -0.3001  0.3439  0.2385
  399MOL0     C53759   2.804   4.591   1.405  0.6442  0.2301 -0.7067
  399MOL0     C53760   2.721   4.697   1.479  0.5666  0.7211 -0.3136
  399MOL0     O53761   2.782   4.813   1.518 -0.4767  0.4378 -0.0895
  399MOL0     C53762   2.719   4.941   1.516  0.3001  0.1795 -1.0388
  399MOL0     C53763   2.791   5.038   1.569 -0.8328 -0.0754  0.0678
  399MOL0     C53764   2.744   5.174   1.577 -0.0469 -0.3635 -0.2086
  399MOL0     C53765   2.612   5.196   1.527  0.1982 -0.9134  0.4256
  399MOL0     O53766   2.554   5.323   1.526  0.4960  0.4562  0.0065
  399MOL0     C53767   2.636   5.436   1.547 -0.3613 -1.0601  0.3310
  399MOL0     C53768   2.558   5.557   1.491 -0.4539 -0.1036  0.7344
  399MOL0     C53769   2.438   5.573   1.583 -0.0425  0.6582  0.1207
  399MOL0     C53770   2.354   5.687   1.517  0.5810 -0.7046  0.3245
  399MOL0     C53771   2.229   5.719   1.592 -0.3024 -0.0390  0.1687
  399MOL0     C53772   2.241   5.704   1.749  0.2352  0.1973  0.3705
  399MOL0     C53773   2.112   5.700   1.840  0.2367 -0.0743 -0.6262
  399MOL0     C53774   2.051   5.558   1.879 -0.0329 -0.5580  1.2319
  399MOL0    Cl53775   1.895   5.590   1.947  0.0842 -0.5157  0.1265
  399MOL0     C53776   2.539   5.092   1.459 -0.6623 -0.3477  0.3548
  399MOL0     C53777   2.593   4.961   1.444 -1.6424 -0.2254 -0.3526
  399MOL0     O53778   2.597   4.680   1.479 -0.8389 -0.3003  0.1873
  399MOL0     C53779   2.903   4.649   1.319  1.3848  0.5655 -0.4037
  399MOL0     C53780   2.997   4.564   1.263  0.8476  0.4338 -0.8070
  399MOL0     N53781   3.523   4.366   1.649  0.3135 -0.2478  0.6762
  399MOL0     N53782   3.537   4.284   1.747 -0.7029  0.2337 -0.8214
  399MOL0     C53783   2.859   4.375   2.531  0.0325 -0.7323 -0.6458
  399MOL0     C53784   2.744   4.399   2.611 -0.5986 -0.2953 -0.7084
  399MOL0     C53785   2.300   4.444   2.699 -0.6175 -0.5139 -0.6592
  399MOL0     C53786   2.195   4.515   2.652 -0.0640  0.2509  0.1147
  399MOL0     C53787   2.098   4.550   2.734  0.2991 -0.0358 -0.4625
  399MOL0     C53788   2.098   4.505   2.872  0.1662 -0.0652 -0.8374
  399MOL0     O53789   2.006   4.546   2.972  0.1816  0.6737  0.0435
  399MOL0     C53790   1.916   4.644   2.935 -0.7801 -0.1021 -0.8952
  399MOL0     C53791   1.834   4.689   3.059  0.7560 -0.2013 -0.2170
  399MOL0     C53792   1.933   4.731   3.175  0.4874  0.0662 -0.3631
  399MOL0     C53793   1.941   4.878   3.169 -0.5433 -1.0043 -0.5638
  399MOL0     C53794   2.035   4.935   3.068 -0.4220  1.7610 -0.1821
  399MOL0     C53795   2.116   4.963   2.977 -0.2475 -0.6636  0.3234
  399MOL0     C53796   2.207   4.435   2.919 -0.8987  0.2946  0.3749
  399MOL0     C53797   2.297   4.396   2.824 -0.3613 -0.4131 -0.4629
  399MOL0     H53798   2.537   4.178   2.443  0.2343 -1.0633 -0.0741
  399MOL0     H53799   2.726   4.155   2.308  1.8585  1.8182 -0.6878
  399MOL0     H53800   2.920   4.425   2.229 -0.9979  0.2551  2.2602
  399MOL0     H53801   3.080   4.358   2.190 -1.0165  2.6458  0.4921
  399MOL0     H53802   2.838   4.189   2.151 -0.4754  2.2888  2.1546
  399MOL0     H53803   2.916   4.277   2.028  0.1779 -0.2012 -0.2680
  399MOL0     H53804   3.054   4.072   2.211  2.8165  2.2574  0.0545
  399MOL0     H53805   2.962   4.031   2.069 -0.7938 -0.5708  1.4281
  399MOL0     H53806   3.119   4.210   1.943 -2.3826 -0.9881 -0.3827
  399MOL0     H53807   3.233   4.185   2.075  2.0240 -0.2755 -3.9123
  399MOL0     H53808   3.255   3.947   2.021 -2.6504 -0.5266  0.8971
  399MOL0     H53809   3.153   3.975   1.873 -0.1198 -1.6028  0.4812
  399MOL0     H53810   3.296   4.150   1.777  1.4679 -0.0767 -0.8192
  399MOL0     H53811   3.382   4.160   1.929 -0.8682 -1.7586  0.8652
  399MOL0     H53812   3.447   3.901   1.891  0.6563 -1.5265 -1.6221
  399MOL0     H53813   3.408   3.933   1.728 -0.9970 -0.6584  1.6793
  399MOL0     H53814   3.647   3.967   1.764 -1.4367 -0.7986 -2.9727
  399MOL0     H53815   3.615   4.075   1.898  0.0744 -1.8752  1.0869
  399MOL0     H53816   3.569   4.070   1.494 -0.8736 -0.0674  0.3702
  399MOL0     H53817   3.559   4.431   1.394  1.0779 -1.2177 -1.0493
  399MOL0     H53818   3.540   4.266   1.336 -2.6340 -0.7387  0.1669
  399MOL0     H53819   3.359   4.431   1.272 -0.7954 -2.9759 -0.3721
  399MOL0     H53820   3.303   4.420   1.437 -0.5267 -1.9609  0.8920
  399MOL0     H53821   3.316   4.172   1.430  1.2829  0.0371 -0.2188
  399MOL0     H53822   3.319   4.189   1.248 -2.3778  0.3208 -0.4369
  399MOL0     H53823   3.092   4.247   1.425 -4.0834  2.2466 -0.9610
  399MOL0     H53824   3.092   4.131   1.297  2.3578 -1.4895 -0.4126
  399MOL0     H53825   2.890   4.264   1.380  0.8140  1.1115  2.1514
  399MOL0     H53826   2.595   4.376   1.492 -0.3087 -2.0424  0.7389
  399MOL0     H53827   2.720   4.280   1.545  1.7572 -0.0164 -2.6655
  399MOL0     H53828   2.705   4.435   1.619  0.6463  0.6974  0.0137
  399MOL0     H53829   2.875   5.011   1.633 -2.8796 -0.9537  2.5514
  399MOL0     H53830   2.807   5.252   1.620 -0.2623 -0.4973  0.3582
  399MOL0     H53831   2.665   5.458   1.650  0.7649 -0.1030 -0.1653
  399MOL0     H53832   2.726   5.436   1.484 -1.5899  1.5915 -1.6311
  399MOL0     H53833   2.620   5.647   1.495  0.6048 -0.6926 -1.0578
  399MOL0     H53834   2.529   5.546   1.386  2.0164 -2.3345  0.1786
  399MOL0     H53835   2.488   5.605   1.675  2.3506 -2.6158  0.1328
  399MOL0     H53836   2.378   5.482   1.589  0.4145  0.0749 -2.7360
  399MOL0     H53837   2.420   5.774   1.521 -1.1983  0.8709  7.3169
  399MOL0     H53838   2.334   5.644   1.418  0.9978  0.4453 -0.2794
  399MOL0     H53839   2.148   5.649   1.569  1.9893 -2.6954 -0.4428
  399MOL0     H53840   2.206   5.822   1.567 -0.2407 -0.3612 -1.3048
  399MOL0     H53841   2.303   5.619   1.777  1.7414  1.3220  0.5256
  399MOL0     H53842   2.301   5.789   1.781 -2.0814  1.5180  1.4951
  399MOL0     H53843   2.041   5.769   1.792  4.3342  2.2279 -4.0876
  399MOL0     H53844   2.147   5.748   1.931  0.4778 -1.7993  0.2229
  399MOL0     H53845   2.108   5.502   1.953  3.2551  0.4659 -0.3367
  399MOL0     H53846   2.030   5.486   1.799 -1.0139  1.8343 -0.8141
  399MOL0     H53847   2.450   5.116   1.402 -2.0407 -0.6023  2.2944
  399MOL0     H53848   2.549   4.886   1.379 -0.2091 -1.9711  0.5848
  399MOL0     H53849   2.904   4.756   1.299  4.0651  0.7839  0.4853
  399MOL0     H53850   3.069   4.609   1.196  1.0584 -0.6468 -1.3217
  399MOL0     H53851   2.943   4.435   2.564 -1.7540  2.3947 -1.3910
  399MOL0     H53852   2.744   4.453   2.706 -1.7113 -4.2106  1.7629
  399MOL0     H53853   2.188   4.548   2.549  0.6414  2.2272  0.6363
  399MOL0     H53854   2.020   4.613   2.694 -0.1766 -0.6650 -0.5488
  399MOL0     H53855   1.971   4.730   2.895 -3.4021  1.8365 -0.6097
  399MOL0     H53856   1.850   4.599   2.860 -1.7930 -0.8165  0.3825
  399MOL0     H53857   1.772   4.605   3.092  2.3832 -1.3597 -0.0084
  399MOL0     H53858   1.774   4.770   3.016  0.1327 -1.3473 -1.6165
  399MOL0     H53859   2.033   4.687   3.180  0.9075  1.0963  0.8448
  399MOL0     H53860   1.889   4.701   3.270 -1.1876  2.6008 -0.2361
  399MOL0     H53861   1.979   4.919   3.262  0.3621 -0.5649 -1.1100
  399MOL0     H53862   1.847   4.925   3.138 -0.1554 -0.4054 -0.8539
  399MOL0     H53863   2.177   4.997   2.896  1.2826  0.8662  2.0295
  399MOL0     H53864   2.220   4.410   3.024 -2.1928  0.2034  0.5378
  399MOL0     H53865   2.377   4.332   2.861 -1.0340 -0.0700  1.7540
  400MOL0     O53866  11.016   3.109   2.966 -0.6267 -0.0345  0.3909
  400MOL0     C53867  10.997   3.227   2.940 -0.4012 -0.5835 -0.3006
  400MOL0     O53868  11.090   3.331   2.956  0.3056  0.3709  1.0837
  400MOL0     C53869  11.221   3.316   2.995 -1.4636 -0.2508 -0.5841
  400MOL0     C53870  11.325   3.396   2.947  0.5185 -0.1670 -0.3239
  400MOL0     C53871  11.458   3.392   2.980  0.2140  0.4127 -0.3127
  400MOL0     C53872  11.494   3.291   3.080  0.6432 -0.0514  0.2764
  400MOL0     O53873  11.618   3.256   3.126 -0.0974 -0.3955 -0.9010
  400MOL0     C53874  11.727   3.330   3.071 -0.6601  0.2846 -0.4445
  400MOL0     C53875  11.845   3.301   3.159 -0.2579  0.4524 -0.7615
  400MOL0     C53876  11.962   3.386   3.137 -1.6640  0.1200 -0.0064
  400MOL0     C53877  12.087   3.341   3.208  0.2149 -0.0515 -0.1622
  400MOL0     C53878  12.195   3.447   3.226 -0.2479  0.5569  0.4992
  400MOL0     C53879  12.273   3.460   3.094  0.0495  0.4123  0.1893
  400MOL0     C53880  12.389   3.570   3.091  0.0763  0.1147 -0.4342
  400MOL0     C53881  12.444   3.616   2.952 -0.0104 -0.3298 -1.4955
  400MOL0     N53882  12.574   3.691   2.975  0.1861  0.1330  0.4334
  400MOL0     C53883  12.592   3.828   2.977  0.1970  0.1568  0.0948
  400MOL0     C53884  12.723   3.840   2.988 -0.6814 -0.4306  0.1740
  400MOL0     C53885  12.801   3.978   2.995  0.1114  0.5685 -0.4140
  400MOL0     C53886  12.737   4.084   2.896  0.2571  0.1864  0.2921
  400MOL0     C53887  12.841   4.200   2.858  0.8313  0.6487 -0.0884
  400MOL0     C53888  12.795   4.304   2.745  0.3720 -0.3371 -0.0248
  400MOL0     O53889  12.692   4.392   2.795 -0.4606  0.3392  0.3305
  400MOL0     C53890  12.573   4.392   2.723  0.2983 -0.0631  0.0935
  400MOL0     C53891  12.522   4.516   2.696 -1.1397 -0.0151  0.5740
  400MOL0     C53892  12.398   4.530   2.636 -0.0705 -1.1762  0.6605
  400MOL0     C53893  12.337   4.666   2.634 -0.2891 -0.0271 -0.6901
  400MOL0     C53894  12.325   4.416   2.604  0.5265  0.5531  1.1158
  400MOL0     C53895  12.179   4.409   2.548  0.2874 -0.6940 -1.2380
  400MOL0     O53896  12.132   4.279   2.526 -0.3052  0.1988  0.6825
  400MOL0     C53897  12.009   4.260   2.467 -0.1698 -0.0489 -0.2592
  400MOL0     C53898  11.903   4.249   2.558  0.5098  0.6312 -0.1980
  400MOL0     C53899  11.780   4.201   2.511 -0.0689 -0.2453 -0.0503
  400MOL0     C53900  11.759   4.183   2.373  0.2518 -0.0671  0.1994
  400MOL0     O53901  11.633   4.150   2.308  0.0485  0.0835  0.0120
  400MOL0     C53902  11.514   4.121   2.396  0.0579 -0.9982 -0.7819
  400MOL0     C53903  11.392   4.113   2.312 -0.1173 -0.4909 -0.8255
  400MOL0     C53904  11.270   4.090   2.401  0.3163  0.4103 -0.7769
  400MOL0     C53905  11.160   4.024   2.315 -0.1452 -0.1540  0.0260
  400MOL0     C53906  11.186   3.877   2.278  0.3880  0.0990 -0.4788
  400MOL0     C53907  11.153   3.774   2.382 -0.3693 -0.9447 -0.0691
  400MOL0     C53908  11.198   3.784   2.520  0.3866 -0.3295 -0.4904
  400MOL0     C53909  11.158   3.661   2.599 -0.0549 -0.2568  0.3825
  400MOL0    Cl53910  10.980   3.642   2.619  0.0811 -0.3289 -0.1654
  400MOL0     C53911  11.867   4.200   2.287 -1.1758  0.1899 -0.3852
  400MOL0     C53912  11.991   4.240   2.334 -1.2945  0.2215  0.3454
  400MOL0     O53913  12.127   4.513   2.508 -0.4112 -0.1296 -0.6640
  400MOL0     C53914  12.382   4.288   2.632 -0.3552 -0.2207  0.4930
  400MOL0     C53915  12.503   4.274   2.688  0.1885  0.4558 -0.4475
  400MOL0     N53916  12.781   3.719   2.990 -0.1745  1.0711  0.3887
  400MOL0     N53917  12.697   3.633   2.978  0.7482  0.2571 -0.3549
  400MOL0     C53918  11.389   3.223   3.141  0.3575  0.6275 -0.8320
  400MOL0     C53919  11.251   3.229   3.102 -0.4403  0.0792  0.9280
  400MOL0     C53920  10.862   3.275   2.896  0.3377  0.1685  0.7177
  400MOL0     C53921  10.845   3.410   2.854  0.2361 -0.3164  0.1210
  400MOL0     C53922  10.723   3.458   2.821 -0.4490  1.0715 -0.4876
  400MOL0     C53923  10.612   3.372   2.823 -0.8619 -0.6083  0.2012
  400MOL0     O53924  10.492   3.421   2.778  0.4207  0.2263 -0.1423
  400MOL0     C53925  10.488   3.501   2.659 -0.1839  0.5496  1.0792
  400MOL0     C53926  10.524   3.416   2.541  0.0582  0.4580  0.3128
  400MOL0     C53927  10.482   3.487   2.420  0.6589  0.1578  0.3090
  400MOL0     C53928  10.335   3.492   2.373  0.1563  1.3239 -0.4752
  400MOL0     C53929  10.312   3.606   2.278  0.1462  0.1019 -0.2808
  400MOL0     C53930  10.296   3.679   2.186  0.2455  0.3492 -0.2261
  400MOL0     C53931  10.622   3.242   2.865  1.0930  0.0014 -0.4809
  400MOL0     C53932  10.745   3.195   2.902 -0.0966 -0.0812  0.2095
  400MOL0     H53933  11.308   3.470   2.870  3.5345  0.8490 -0.1626
  400MOL0     H53934  11.524   3.467   2.937  1.3298  0.7230  1.8073
  400MOL0     H53935  11.740   3.285   2.972 -1.0343 -0.5723 -0.1169
  400MOL0     H53936  11.713   3.438   3.067  3.9074  1.0200 -3.2034
  400MOL0     H53937  11.812   3.329   3.259  2.1675 -0.3954  0.3450
  400MOL0     H53938  11.860   3.193   3.155  0.0037  0.5176 -2.3889
  400MOL0     H53939  11.977   3.386   3.028 -0.4710 -3.2006  0.0456
  400MOL0     H53940  11.932   3.486   3.172 -2.6632 -0.5744  1.1943
  400MOL0     H53941  12.062   3.305   3.308 -0.8949 -0.1684 -0.4699
  400MOL0     H53942  12.131   3.256   3.155  0.2478  1.6572 -3.1329
  400MOL0     H53943  12.156   3.545   3.252  0.4385  0.9755 -0.0132
  400MOL0     H53944  12.266   3.404   3.298  2.7231  1.2868 -1.7771
  400MOL0     H53945  12.316   3.364   3.063 -2.8201  0.0514 -3.2548
  400MOL0     H53946  12.211   3.477   3.006  2.5614 -1.7468 -2.1624
  400MOL0     H53947  12.366   3.658   3.152  2.6783 -0.5645  1.7240
  400MOL0     H53948  12.470   3.522   3.148 -0.2399 -2.1796 -1.7937
  400MOL0     H53949  12.367   3.678   2.904 -0.3749 -2.1062 -3.3225
  400MOL0     H53950  12.451   3.521   2.898 -1.6799 -0.7476 -1.0609
  400MOL0     H53951  12.519   3.907   2.964  1.8956  2.1086  1.7291
  400MOL0     H53952  12.797   4.025   3.094 -2.5216  1.1058 -0.7120
  400MOL0     H53953  12.906   3.956   2.972  1.2668  2.4351  2.4592
  400MOL0     H53954  12.656   4.137   2.946  0.4064 -0.2173  0.9659
  400MOL0     H53955  12.692   4.037   2.808  0.7719  0.6591 -0.2400
  400MOL0     H53956  12.937   4.158   2.826  0.9365  0.5190  0.3991
  400MOL0     H53957  12.872   4.257   2.946 -1.8378  1.1432  0.6242
  400MOL0     H53958  12.768   4.263   2.648  0.4185 -1.9990  0.6264
  400MOL0     H53959  12.882   4.368   2.726 -0.6931  1.3474  0.5825
  400MOL0     H53960  12.583   4.601   2.724 -1.3991  0.2858  0.2219
  400MOL0     H53961  12.230   4.660   2.656  0.2089 -1.6514  1.7955
  400MOL0     H53962  12.387   4.735   2.702 -3.6302 -0.3351  2.3843
  400MOL0     H53963  12.342   4.718   2.538  0.9457  2.0852  0.4597
  400MOL0     H53964  11.901   4.269   2.665 -1.0456  1.2234 -0.3100
  400MOL0     H53965  11.703   4.188   2.587 -1.5810  0.5272 -1.3898
  400MOL0     H53966  11.524   4.031   2.458 -1.9279 -0.8049 -0.0925
  400MOL0     H53967  11.502   4.204   2.466  3.7105 -1.0862  0.1172
  400MOL0     H53968  11.386   4.206   2.256  1.7273 -0.2336 -0.6737
  400MOL0     H53969  11.402   4.024   2.249 -5.0444 -1.5843 -0.4190
  400MOL0     H53970  11.234   4.174   2.461 -0.0178  0.3163 -0.8452
  400MOL0     H53971  11.308   4.014   2.469  0.8189  0.3883 -1.0749
  400MOL0     H53972  11.064   4.043   2.362  0.1823  0.6078  0.4012
  400MOL0     H53973  11.149   4.081   2.223  0.8109  1.0743  0.6492
  400MOL0     H53974  11.287   3.850   2.247 -0.4518 -4.2536 -0.0562
  400MOL0     H53975  11.130   3.845   2.190  4.2649  0.9366 -3.4974
  400MOL0     H53976  11.044   3.772   2.385 -0.3714 -0.2192  0.6895
  400MOL0     H53977  11.181   3.673   2.351 -1.7602 -1.8034  1.3432
  400MOL0     H53978  11.147   3.873   2.557 -0.5159 -0.6317 -0.9779
  400MOL0     H53979  11.306   3.803   2.524  0.8792 -1.8112 -3.3939
  400MOL0     H53980  11.207   3.668   2.696  2.9775 -4.0745 -0.6500
  400MOL0     H53981  11.204   3.572   2.555 -2.8425 -1.1058 -1.0513
  400MOL0     H53982  11.865   4.177   2.181 -0.5340  2.1312 -0.8530
  400MOL0     H53983  12.074   4.234   2.265 -1.4416  0.1552  0.1749
  400MOL0     H53984  12.326   4.198   2.610 -2.0248  1.5211 -3.5563
  400MOL0     H53985  12.527   4.169   2.699  1.2277  0.2459 -3.8244
  400MOL0     H53986  11.419   3.146   3.212  1.4687  2.3530  0.6502
  400MOL0     H53987  11.175   3.168   3.149  0.0681 -0.2634  1.3069
  400MOL0     H53988  10.922   3.485   2.839  1.3154 -1.5950 -1.0989
  400MOL0     H53989  10.714   3.564   2.799  0.6537  0.8048 -2.4148
  400MOL0     H53990  10.384   3.531   2.645  0.2132  1.7466  0.5118
  400MOL0     H53991  10.543   3.596   2.660  2.3862 -0.7967 -0.5695
  400MOL0     H53992  10.479   3.317   2.554 -0.0312  0.0192 -2.7228
  400MOL0     H53993  10.631   3.396   2.542 -0.1019 -1.0991 -2.8986
  400MOL0     H53994  10.540   3.439   2.341 -0.8912 -0.4112 -0.5017
  400MOL0     H53995  10.528   3.586   2.432  0.1482  0.4547 -0.1697
  400MOL0     H53996  10.265   3.504   2.457 -1.3683 -2.1133 -1.0871
  400MOL0     H53997  10.307   3.405   2.313 -1.3712  2.5902 -1.7173
  400MOL0     H53998  10.287   3.744   2.101  1.4076  0.9976  0.1158
  400MOL0     H53999  10.546   3.165   2.862  0.4071  0.5911  0.8926
  400MOL0     H54000  10.757   3.093   2.935  0.7017  0.9104  3.3006
  401MOL0     O54001   0.133   4.477   0.521  0.1841  0.2389 -0.2911
  401MOL0     C54002   0.037   4.563   0.516  0.2124  0.7416  0.2991
  401MOL0     O54003  -0.030   4.594   0.402  0.7704  0.1851 -0.3729
  401MOL0     C54004  -0.008   4.540   0.283 -0.3070  0.4359  0.7557
  401MOL0     C54005  -0.102   4.484   0.203  0.2697 -0.0179  0.1582
  401MOL0     C54006  -0.080   4.430   0.078 -0.4446  0.3293 -0.1041
  401MOL0     C54007   0.050   4.424   0.027  0.4138  0.6537  0.4329
  401MOL0     O54008   0.085   4.358  -0.086 -0.3219  0.6730 -0.2349
  401MOL0     C54009  -0.018   4.339  -0.185  0.5799 -0.2133  0.4170
  401MOL0     C54010   0.047   4.290  -0.318  0.2132 -0.0440  0.0642
  401MOL0     C54011   0.099   4.418  -0.399  0.4944  0.0131 -0.3261
  401MOL0     C54012  -0.001   4.498  -0.482 -0.1863 -0.2612 -0.3285
  401MOL0     C54013   0.064   4.598  -0.571 -0.1273 -0.3113 -0.9019
  401MOL0     C54014  -0.025   4.658  -0.668  0.0305 -0.5650 -0.1976
  401MOL0     C54015   0.045   4.779  -0.730 -0.8739  0.0879  0.2216
  401MOL0     C54016  -0.052   4.856  -0.815 -0.8886 -0.3960 -0.0447
  401MOL0     N54017   0.015   4.959  -0.897 -0.2950 -0.6772  1.0355
  401MOL0     C54018   0.017   5.096  -0.874 -0.0662 -0.0854  0.0998
  401MOL0     C54019   0.099   5.149  -0.978  0.0001  0.0044  0.0055
  401MOL0     C54020   0.127   5.293  -1.000 -1.1048 -1.1455 -0.0832
  401MOL0     C54021   0.277   5.315  -1.038  0.6807 -0.4092 -0.0307
  401MOL0     C54022   0.372   5.272  -0.925  0.0739  0.2941 -0.2152
  401MOL0     C54023   0.503   5.360  -0.923 -0.2121 -0.0184  0.4242
  401MOL0     O54024   0.573   5.317  -1.045 -0.3777  0.3659  0.3529
  401MOL0     C54025   0.702   5.372  -1.068  0.1294 -0.0059  0.4474
  401MOL0     C54026   0.731   5.503  -1.018  0.1915 -0.7420  0.1409
  401MOL0     C54027   0.861   5.560  -1.040  0.2471 -0.3334 -0.1525
  401MOL0     C54028   0.893   5.690  -0.974  0.4103  0.0930  0.2504
  401MOL0     C54029   0.950   5.496  -1.128 -0.1230 -0.0964  0.9912
  401MOL0     C54030   1.085   5.555  -1.172 -0.0256  0.1492  0.4862
  401MOL0     O54031   1.148   5.645  -1.087 -0.0713  1.2796  0.6438
  401MOL0     C54032   1.270   5.711  -1.119  0.9264 -0.3310 -0.5514
  401MOL0     C54033   1.377   5.697  -1.038 -1.0491  0.6454 -0.3589
  401MOL0     C54034   1.498   5.760  -1.067 -0.6526  0.9636  0.0357
  401MOL0     C54035   1.509   5.863  -1.165  0.5152  0.7507  0.2719
  401MOL0     O54036   1.623   5.926  -1.167 -0.0906  0.2066 -0.0019
  401MOL0     C54037   1.658   5.998  -1.287 -0.1004 -0.5604  0.5090
  401MOL0     C54038   1.697   5.895  -1.402 -0.8270  0.9513  0.2595
  401MOL0     C54039   1.758   5.958  -1.519  0.6182 -0.3619  0.5529
  401MOL0     C54040   1.905   5.996  -1.514 -0.2105  0.1178 -0.1478
  401MOL0     C54041   1.963   6.047  -1.653  0.5003  0.1037  0.9718
  401MOL0     C54042   2.112   6.071  -1.654 -0.3345  0.1705  0.2780
  401MOL0     C54043   2.176   6.071  -1.795  0.4286  0.1456  0.2654
  401MOL0     C54044   2.323   6.093  -1.796  1.0203  0.4092 -1.2817
  401MOL0    Cl54045   2.355   6.258  -1.757 -0.0530  0.2099 -0.3379
  401MOL0     C54046   1.391   5.878  -1.246 -0.4524  0.5479  0.4815
  401MOL0     C54047   1.275   5.807  -1.218  0.5150  0.5183  0.0503
  401MOL0     O54048   1.134   5.516  -1.276 -0.3157 -0.3709  0.8976
  401MOL0     C54049   0.918   5.369  -1.176  0.1200 -0.3152  0.7757
  401MOL0     C54050   0.802   5.304  -1.141  0.2172 -0.1376 -0.3316
  401MOL0     N54051   0.137   5.045  -1.056 -0.3126  0.3309  1.1848
  401MOL0     N54052   0.095   4.935  -1.011  0.3034 -0.4897 -0.0623
  401MOL0     C54053   0.153   4.499   0.093  0.4210 -0.2547 -0.0705
  401MOL0     C54054   0.116   4.558   0.219  0.9078 -0.1479 -0.4144
  401MOL0     C54055   0.010   4.653   0.631  0.3976  0.6682  0.3337
  401MOL0     C54056  -0.105   4.737   0.634 -0.1067 -0.4766 -0.3685
  401MOL0     C54057  -0.122   4.831   0.738  0.0698  0.0285  0.4284
  401MOL0     C54058  -0.036   4.835   0.844 -0.0554 -0.7072  0.0838
  401MOL0     O54059  -0.048   4.933   0.939  0.2512 -0.2505  0.1407
  401MOL0     C54060   0.023   4.910   1.064 -0.8836 -0.5328 -0.5001
  401MOL0     C54061  -0.008   5.031   1.147 -0.0062 -0.6211  0.6106
  401MOL0     C54062   0.052   5.014   1.282 -0.6601  0.4571 -0.2666
  401MOL0     C54063   0.092   5.143   1.358 -0.1433  0.1228  0.7284
  401MOL0     C54064   0.159   5.239   1.275  0.0936 -0.9533 -0.2563
  401MOL0     C54065   0.192   5.327   1.195 -0.2010 -0.5653  0.6653
  401MOL0     C54066   0.060   4.736   0.845 -0.8581  0.0995 -0.3102
  401MOL0     C54067   0.086   4.645   0.745 -0.3909 -0.8758 -0.0794
  401MOL0     H54068  -0.203   4.488   0.244  0.2915 -1.2889  0.3955
  401MOL0     H54069  -0.164   4.378   0.032 -1.8180  2.6922 -0.4230
  401MOL0     H54070  -0.093   4.268  -0.146 -1.0894  0.2138 -1.8262
  401MOL0     H54071  -0.079   4.429  -0.201  0.9724 -0.3393 -2.2121
  401MOL0     H54072   0.134   4.229  -0.292 -0.3566 -0.1395  1.9014
  401MOL0     H54073  -0.023   4.234  -0.381 -0.9100  0.9207  0.4182
  401MOL0     H54074   0.143   4.488  -0.328 -0.0989  1.6736 -1.5467
  401MOL0     H54075   0.175   4.378  -0.468 -0.1025 -0.2241 -0.8632
  401MOL0     H54076  -0.062   4.427  -0.539 -1.3207  0.0760  0.4073
  401MOL0     H54077  -0.074   4.541  -0.412 -0.5215  1.0075 -1.4159
  401MOL0     H54078   0.103   4.678  -0.508 -1.1087 -0.7347  0.2909
  401MOL0     H54079   0.150   4.560  -0.628 -0.1226  0.3063 -1.3115
  401MOL0     H54080  -0.067   4.591  -0.744  0.1874 -0.8261 -0.0559
  401MOL0     H54081  -0.110   4.707  -0.620 -1.8348 -1.6508 -2.2153
  401MOL0     H54082   0.086   4.858  -0.666  0.4339  0.0970 -0.5901
  401MOL0     H54083   0.129   4.738  -0.788 -0.8696 -2.3581  1.7975
  401MOL0     H54084  -0.119   4.916  -0.752  0.7761  1.4703  0.0344
  401MOL0     H54085  -0.116   4.799  -0.883 -2.6377 -0.1603  1.3023
  401MOL0     H54086  -0.029   5.149  -0.792  0.7148 -2.4495  2.2044
  401MOL0     H54087   0.053   5.331  -1.071  0.2830  2.4546  0.1802
  401MOL0     H54088   0.105   5.343  -0.906 -1.3900 -2.0349  0.3293
  401MOL0     H54089   0.302   5.419  -1.063 -1.4650  0.8808  2.6199
  401MOL0     H54090   0.289   5.251  -1.126 -1.8727  0.1606 -0.8773
  401MOL0     H54091   0.382   5.164  -0.936  0.9579  0.3924 -0.4485
  401MOL0     H54092   0.318   5.288  -0.831  0.2296 -1.1356  0.1301
  401MOL0     H54093   0.556   5.338  -0.830  1.2324 -0.8747 -0.5582
  401MOL0     H54094   0.468   5.463  -0.934  1.5598  0.5135 -0.6491
  401MOL0     H54095   0.666   5.547  -0.943  1.2122 -0.2025  0.7318
  401MOL0     H54096   0.955   5.675  -0.886  1.2646 -0.8104 -0.4719
  401MOL0     H54097   0.944   5.756  -1.044 -1.3777  1.1384 -0.1300
  401MOL0     H54098   0.800   5.740  -0.946  1.6346  1.6519  1.7234
  401MOL0     H54099   1.366   5.634  -0.950 -1.9161  0.1793 -0.7856
  401MOL0     H54100   1.575   5.735  -0.995  1.4839 -2.5300 -3.0769
  401MOL0     H54101   1.584   6.065  -1.333  3.0673  1.2252 -2.4226
  401MOL0     H54102   1.742   6.063  -1.264  1.1325 -2.4875  1.7560
  401MOL0     H54103   1.766   5.815  -1.374 -3.8699 -0.5032  4.7148
  401MOL0     H54104   1.617   5.825  -1.430  0.4351 -0.2370 -0.4992
  401MOL0     H54105   1.712   6.050  -1.555  1.1424 -0.9033 -1.6995
  401MOL0     H54106   1.744   5.897  -1.609  1.3335  3.4452 -2.3563
  401MOL0     H54107   1.902   6.070  -1.433 -1.3578 -1.1574  1.0280
  401MOL0     H54108   1.970   5.910  -1.493  0.4077 -0.0505 -2.4826
  401MOL0     H54109   1.918   6.146  -1.658 -0.8371 -0.5246 -0.4780
  401MOL0     H54110   1.935   5.981  -1.736  1.6867  1.0003 -0.1920
  401MOL0     H54111   2.126   6.174  -1.619  1.7366  0.7813 -2.0712
  401MOL0     H54112   2.165   5.998  -1.593  1.9794  1.2332 -0.3776
  401MOL0     H54113   2.124   6.137  -1.864  0.5416 -1.3226 -1.2653
  401MOL0     H54114   2.161   5.964  -1.814  1.1416 -0.3483  2.1600
  401MOL0     H54115   2.358   6.077  -1.899 -2.1488 -2.0667 -2.1589
  401MOL0     H54116   2.358   6.023  -1.720 -1.5769  0.8354  0.4279
  401MOL0     H54117   1.381   5.966  -1.308 -0.8507  1.0884  1.2977
  401MOL0     H54118   1.178   5.823  -1.263  0.5558 -2.2695 -1.2049
  401MOL0     H54119   0.984   5.317  -1.245 -0.0945 -0.7081  0.8631
  401MOL0     H54120   0.785   5.207  -1.187 -0.9303 -2.0423  3.6271
  401MOL0     H54121   0.255   4.492   0.058  1.1135 -0.0408  1.7804
  401MOL0     H54122   0.198   4.607   0.271  0.3664 -0.4876  0.8057
  401MOL0     H54123  -0.180   4.742   0.555 -0.0163  0.2873 -0.4192
  401MOL0     H54124  -0.203   4.904   0.733 -1.5100 -1.6796 -0.2407
  401MOL0     H54125  -0.015   4.828   1.125 -0.8118  1.3615  2.2962
  401MOL0     H54126   0.131   4.915   1.055 -1.0240  1.2226 -1.8860
  401MOL0     H54127  -0.112   5.064   1.157 -0.1966 -0.1400 -2.1871
  401MOL0     H54128   0.038   5.114   1.092 -1.2409 -0.4313 -0.1667
  401MOL0     H54129   0.139   4.950   1.267 -1.0480 -0.4981  1.3290
  401MOL0     H54130  -0.023   4.970   1.348 -0.9848  1.0220 -0.2563
  401MOL0     H54131   0.157   5.121   1.443 -1.2199 -1.0718  1.2828
  401MOL0     H54132   0.006   5.193   1.402  0.2407  1.6714 -0.1986
  401MOL0     H54133   0.202   5.414   1.134  3.0201  0.8724  2.9153
  401MOL0     H54134   0.128   4.733   0.930 -1.1534  0.5861 -0.0551
  401MOL0     H54135   0.162   4.568   0.752  2.6105  1.6149 -2.5529
  402MOL0     O54136  10.354   4.569   8.654 -0.3037 -0.5850  0.4689
  402MOL0     C54137  10.348   4.566   8.775 -0.3077  0.1530 -0.3508
  402MOL0     O54138  10.449   4.577   8.858 -0.0743 -0.1553  0.1689
  402MOL0     C54139  10.578   4.607   8.820 -0.3120  0.1694 -0.4749
  402MOL0     C54140  10.656   4.683   8.904  0.1551  0.0246 -0.3631
  402MOL0     C54141  10.787   4.719   8.870  0.3881  0.8947  0.4544
  402MOL0     C54142  10.849   4.676   8.744  1.1570 -1.3889  0.8717
  402MOL0     O54143  10.974   4.725   8.715 -0.4089  0.1866 -0.2194
  402MOL0     C54144  11.056   4.646   8.628  0.0247 -0.7546  0.3948
  402MOL0     C54145  11.160   4.596   8.730  0.8855 -0.4079  0.2016
  402MOL0     C54146  11.257   4.703   8.776  0.2880 -0.4612 -0.1521
  402MOL0     C54147  11.324   4.641   8.903 -0.6235  0.9899 -0.3046
  402MOL0     C54148  11.415   4.757   8.962 -0.7765  0.2887  0.0882
  402MOL0     C54149  11.496   4.709   9.079  0.5605  0.1144 -0.2913
  402MOL0     C54150  11.643   4.703   9.048 -0.6469  0.5785 -0.3480
  402MOL0     C54151  11.709   4.842   9.084 -0.2173  0.7418  1.2533
  402MOL0     N54152  11.857   4.845   9.054  0.1508 -0.2868  0.4197
  402MOL0     C54153  11.912   4.890   8.937 -0.3817 -0.7345 -0.1190
  402MOL0     C54154  12.039   4.899   8.970 -0.4941  0.1118 -0.0797
  402MOL0     C54155  12.147   4.970   8.888  0.7261 -0.8490 -0.4633
  402MOL0     C54156  12.230   4.869   8.808  0.2967 -0.2253  0.2971
  402MOL0     C54157  12.349   4.934   8.733 -0.0989 -0.0918  0.0898
  402MOL0     C54158  12.325   5.012   8.606 -0.8573 -0.1399 -0.4098
  402MOL0     O54159  12.204   4.988   8.545 -0.5336 -0.1335  0.2607
  402MOL0     C54160  12.187   4.971   8.410  0.3115  0.1931 -0.1226
  402MOL0     C54161  12.300   4.962   8.314  0.6983  0.5505  0.4781
  402MOL0     C54162  12.283   4.949   8.174 -0.1124 -0.1339 -0.3836
  402MOL0     C54163  12.406   4.934   8.083  0.1465 -0.3845 -0.4866
  402MOL0     C54164  12.157   4.935   8.123 -0.5136 -0.0296 -0.2643
  402MOL0     C54165  12.122   4.921   7.986 -0.2679  0.6000 -0.8050
  402MOL0     O54166  12.015   4.839   7.956  0.4847 -0.5246  0.2065
  402MOL0     C54167  11.986   4.833   7.817  0.0516  0.0267 -0.8838
  402MOL0     C54168  12.051   4.761   7.720 -1.1431  0.6188 -0.1051
  402MOL0     C54169  12.012   4.779   7.590  0.4799  0.7714  0.1293
  402MOL0     C54170  11.895   4.845   7.546  0.0109  0.4953 -0.3574
  402MOL0     O54171  11.836   4.837   7.420  0.4991  1.0574  0.2431
  402MOL0     C54172  11.900   4.758   7.321 -0.0169  0.1269 -0.1476
  402MOL0     C54173  11.805   4.783   7.205  0.5307 -0.3070  0.6121
  402MOL0     C54174  11.835   4.697   7.088 -0.1433  0.3647 -0.8661
  402MOL0     C54175  11.715   4.700   6.990  0.4224 -0.1331 -0.0975
  402MOL0     C54176  11.676   4.839   6.942  0.2688  0.3283 -0.4341
  402MOL0     C54177  11.785   4.926   6.892  0.7780 -0.2520  0.6328
  402MOL0     C54178  11.761   4.986   6.752 -0.2695 -0.7403 -0.1011
  402MOL0     C54179  11.631   5.071   6.741 -0.6012  0.7986  0.4642
  402MOL0    Cl54180  11.673   5.226   6.800  0.2730 -0.0917 -0.2821
  402MOL0     C54181  11.818   4.907   7.640 -0.7236 -0.3516 -0.2770
  402MOL0     C54182  11.869   4.901   7.775 -0.3963 -0.5733 -1.1241
  402MOL0     O54183  12.181   4.985   7.899  0.3899 -0.3955 -0.0639
  402MOL0     C54184  12.048   4.950   8.215  0.1547  0.1114  0.0482
  402MOL0     C54185  12.061   4.972   8.353 -0.1377 -0.0223 -0.3345
  402MOL0     N54186  12.060   4.859   9.103  0.3912  0.3526 -0.0518
  402MOL0     N54187  11.946   4.827   9.157 -0.0328 -0.6272  0.2297
  402MOL0     C54188  10.771   4.596   8.661 -0.3024  0.3491  0.1359
  402MOL0     C54189  10.645   4.560   8.705 -0.5630  0.0409  0.0184
  402MOL0     C54190  10.222   4.511   8.832  0.1032 -0.1638 -1.4803
  402MOL0     C54191  10.220   4.465   8.966  0.6904  0.7307 -0.0961
  402MOL0     C54192  10.096   4.420   9.017 -0.0403  0.2196  0.1034
  402MOL0     C54193   9.975   4.423   8.946 -0.0196 -0.7938 -0.3478
  402MOL0     O54194   9.864   4.364   8.993  0.0476  1.0110 -0.0648
  402MOL0     C54195   9.801   4.412   9.108 -0.4110 -0.0445  0.0664
  402MOL0     C54196   9.683   4.511   9.065 -0.3166 -0.4713 -0.6323
  402MOL0     C54197   9.726   4.658   9.009  0.2944 -0.6841  0.0931
  402MOL0     C54198   9.656   4.774   9.080 -0.4479  1.1215 -0.0345
  402MOL0     C54199   9.719   4.806   9.204  0.3344 -0.9490 -0.7509
  402MOL0     C54200   9.766   4.839   9.318 -0.3353 -0.1861  0.0263
  402MOL0     C54201   9.977   4.482   8.825  1.1546  1.0337  0.5450
  402MOL0     C54202  10.102   4.526   8.766  0.4084 -0.0318 -0.7995
  402MOL0     H54203  10.629   4.714   9.005  1.6998 -1.1312  0.4527
  402MOL0     H54204  10.849   4.780   8.934  1.9627  0.9629 -1.0555
  402MOL0     H54205  11.005   4.564   8.576  1.0802 -0.7231 -0.7220
  402MOL0     H54206  11.094   4.712   8.549 -1.0081  1.8355  1.9431
  402MOL0     H54207  11.107   4.557   8.818 -0.3608  0.3098 -0.2024
  402MOL0     H54208  11.201   4.515   8.669 -3.4246 -2.0644 -0.8473
  402MOL0     H54209  11.328   4.727   8.696  2.1003 -1.6676  1.0393
  402MOL0     H54210  11.202   4.793   8.805 -4.0299 -2.1984 -2.1083
  402MOL0     H54211  11.248   4.598   8.969  0.7841  1.2482  1.5799
  402MOL0     H54212  11.397   4.563   8.876  0.7161  1.3232  2.0676
  402MOL0     H54213  11.478   4.806   8.888  0.7596  1.1344  1.8959
  402MOL0     H54214  11.359   4.846   8.989 -0.5218  0.1965  0.9347
  402MOL0     H54215  11.482   4.765   9.171  2.5093 -1.7258  1.2177
  402MOL0     H54216  11.456   4.608   9.091  2.3259 -0.9703 -2.5909
  402MOL0     H54217  11.695   4.623   9.101  0.6615  1.3653 -0.4065
  402MOL0     H54218  11.641   4.675   8.942 -0.7919 -1.0840  0.0691
  402MOL0     H54219  11.695   4.862   9.191  0.7945  2.1611  1.1544
  402MOL0     H54220  11.671   4.915   9.012 -0.2204 -2.3104 -2.0834
  402MOL0     H54221  11.862   4.911   8.843 -1.0975 -0.4941  0.3030
  402MOL0     H54222  12.100   5.039   8.818  0.1251 -1.3976 -0.6120
  402MOL0     H54223  12.213   5.033   8.948 -0.5680  0.3667 -0.2807
  402MOL0     H54224  12.159   4.825   8.737 -1.0095  0.0828  1.3735
  402MOL0     H54225  12.267   4.788   8.871 -1.1102 -2.1677 -1.2776
  402MOL0     H54226  12.417   4.852   8.709  2.1981  0.6281  3.4736
  402MOL0     H54227  12.401   4.998   8.804 -1.9009  2.4173 -0.6766
  402MOL0     H54228  12.412   4.991   8.542  1.1705  1.8447  1.4896
  402MOL0     H54229  12.325   5.119   8.630 -1.1860 -0.3827  0.7411
  402MOL0     H54230  12.405   4.967   8.343  1.0930  1.3432 -0.9614
  402MOL0     H54231  12.386   4.875   7.993  2.9519 -0.1741 -1.3487
  402MOL0     H54232  12.453   5.028   8.054 -0.1515 -0.3062 -0.7261
  402MOL0     H54233  12.478   4.891   8.153 -0.6850  1.5977  1.7161
  402MOL0     H54234  12.145   4.709   7.741 -1.1325  0.1584 -1.2214
  402MOL0     H54235  12.078   4.722   7.526  1.6742 -1.9217  3.4238
  402MOL0     H54236  12.001   4.794   7.297  0.2141 -0.5919 -0.2794
  402MOL0     H54237  11.900   4.652   7.346 -1.1441 -0.2208 -1.5067
  402MOL0     H54238  11.706   4.768   7.249  0.0651 -1.1920 -0.6705
  402MOL0     H54239  11.805   4.886   7.169 -0.3290 -0.9059 -1.2305
  402MOL0     H54240  11.859   4.595   7.120  0.2205 -0.0165 -2.2505
  402MOL0     H54241  11.930   4.724   7.041  1.1061 -4.0153 -1.3333
  402MOL0     H54242  11.741   4.651   6.896 -3.4069 -0.5989 -1.0609
  402MOL0     H54243  11.627   4.652   7.034  3.0503 -4.7766  0.7458
  402MOL0     H54244  11.629   4.899   7.021 -1.9932  0.5894 -1.8850
  402MOL0     H54245  11.599   4.833   6.865  0.2922  1.2361 -0.5375
  402MOL0     H54246  11.784   5.017   6.952  0.3718 -0.2355  0.6020
  402MOL0     H54247  11.884   4.880   6.905  0.4304 -1.0153  0.6159
  402MOL0     H54248  11.754   4.904   6.681  0.2597 -1.1943  0.3646
  402MOL0     H54249  11.848   5.044   6.719 -0.9305 -2.3796 -5.6798
  402MOL0     H54250  11.551   5.036   6.808 -1.9368  3.2222  0.2617
  402MOL0     H54251  11.597   5.067   6.637 -0.3196  1.5192  0.3403
  402MOL0     H54252  11.731   4.967   7.616 -0.2542  0.3268 -0.3174
  402MOL0     H54253  11.834   4.973   7.848 -1.4796  0.6001 -2.7677
  402MOL0     H54254  11.945   4.948   8.180 -0.0603  0.9800  0.6068
  402MOL0     H54255  11.971   4.975   8.412 -2.0068  0.2428 -3.0304
  402MOL0     H54256  10.806   4.556   8.567 -2.5671 -1.1354 -0.1581
  402MOL0     H54257  10.598   4.492   8.635  2.9447 -1.7428 -0.7919
  402MOL0     H54258  10.310   4.460   9.028  0.7472 -0.8450 -0.2782
  402MOL0     H54259  10.091   4.361   9.108  0.5593  1.3500  0.8964
  402MOL0     H54260   9.760   4.333   9.172 -0.2082  0.0255  0.2861
  402MOL0     H54261   9.867   4.474   9.170 -0.4717 -0.0800  0.1662
  402MOL0     H54262   9.633   4.530   9.160  2.5578  3.3908  0.3906
  402MOL0     H54263   9.621   4.463   8.989 -1.6265 -0.9755  0.6982
  402MOL0     H54264   9.695   4.666   8.905 -1.3970 -1.6651  0.4777
  402MOL0     H54265   9.832   4.681   9.020  0.0405  2.1646 -2.1442
  402MOL0     H54266   9.549   4.758   9.095  0.1360 -1.2551  2.3675
  402MOL0     H54267   9.655   4.864   9.018 -1.6955  1.0049 -0.2231
  402MOL0     H54268   9.816   4.865   9.409 -0.3150  0.6727 -0.2226
  402MOL0     H54269   9.886   4.504   8.770  0.8645  1.7334  1.2826
  402MOL0     H54270  10.091   4.560   8.663 -1.1740  1.8491 -0.0654
  403MOL0     O54271   0.823   0.040  10.879  0.7642  0.4077 -0.2749
  403MOL0     C54272   0.850  -0.077  10.859  0.0521 -0.1075  0.5063
  403MOL0     O54273   0.908  -0.123  10.745 -0.5919  0.2217 -0.0681
  403MOL0     C54274   0.985  -0.052  10.660 -0.4255 -0.1353  0.2021
  403MOL0     C54275   1.049   0.067  10.694  0.1493  0.3133  0.5378
  403MOL0     C54276   1.133   0.125  10.592  0.0276 -1.0339 -1.0295
  403MOL0     C54277   1.150   0.064  10.468  0.5842 -0.1288  0.2509
  403MOL0     O54278   1.229   0.114  10.370  0.0595  0.1167  1.2245
  403MOL0     C54279   1.172   0.229  10.298  0.0388  0.2694  0.2842
  403MOL0     C54280   1.282   0.267  10.201 -0.0161  0.4010  0.4375
  403MOL0     C54281   1.230   0.405  10.150  0.1549 -0.1731  0.7936
  403MOL0     C54282   1.290   0.459  10.023  0.0121 -0.4965  0.2898
  403MOL0     C54283   1.256   0.607   9.985 -0.3268  0.6567 -0.1909
  403MOL0     C54284   1.301   0.632   9.845  0.8632  0.3060 -0.3753
  403MOL0     C54285   1.301   0.777   9.799  0.7135  1.4976 -0.4054
  403MOL0     C54286   1.164   0.847   9.796 -0.4900 -0.5126 -0.5434
  403MOL0     N54287   1.172   0.984   9.770 -0.4671 -0.3446  0.2078
  403MOL0     C54288   1.085   1.058   9.685 -0.0308  0.1542 -0.4638
  403MOL0     C54289   1.127   1.189   9.706 -0.6366  0.5302  0.1376
  403MOL0     C54290   1.079   1.309   9.635 -0.7090  0.3404 -0.5056
  403MOL0     C54291   1.187   1.416   9.611 -1.0806  0.2976  0.1052
  403MOL0     C54292   1.158   1.519   9.508  0.9058 -0.1663  0.3163
  403MOL0     C54293   1.164   1.477   9.358  0.0658 -0.4135 -0.1837
  403MOL0     O54294   1.287   1.411   9.341 -0.5484  0.3106 -0.1743
  403MOL0     C54295   1.389   1.470   9.280 -0.8123 -0.2202  0.0459
  403MOL0     C54296   1.385   1.505   9.146  0.7075 -0.5990  0.5844
  403MOL0     C54297   1.492   1.570   9.087  0.4311 -0.5801 -0.4733
  403MOL0     C54298   1.461   1.616   8.948  0.5774  0.5431 -0.4057
  403MOL0     C54299   1.613   1.587   9.156 -0.7987  0.6790 -0.3270
  403MOL0     C54300   1.741   1.655   9.121 -0.0573 -0.8085 -0.1742
  403MOL0     O54301   1.851   1.655   9.211 -0.4462  0.3023  0.9243
  403MOL0     C54302   1.942   1.755   9.209 -0.6104  0.2340 -0.1206
  403MOL0     C54303   2.037   1.761   9.114  0.0546  0.5507 -0.3520
  403MOL0     C54304   2.128   1.869   9.098 -0.1228  0.5656 -0.0725
  403MOL0     C54305   2.128   1.977   9.187 -0.3882 -0.1753 -0.5744
  403MOL0     O54306   2.211   2.085   9.197 -0.3612  0.5893 -0.1925
  403MOL0     C54307   2.258   2.137   9.068  0.7330  0.9739 -0.2545
  403MOL0     C54308   2.376   2.240   9.111  1.3138  0.0760 -0.0313
  403MOL0     C54309   2.467   2.287   8.992  0.0990 -0.3331  0.7849
  403MOL0     C54310   2.555   2.406   9.043  0.2451 -1.0465 -0.1484
  403MOL0     C54311   2.677   2.428   8.956  0.4260 -0.3104 -0.7436
  403MOL0     C54312   2.763   2.523   9.042  0.4621 -0.6225  0.6252
  403MOL0     C54313   2.871   2.581   8.956 -0.2759 -0.0969 -0.5671
  403MOL0     C54314   3.008   2.525   8.996  1.4693  0.6290  0.9372
  403MOL0    Cl54315   3.048   2.589   9.157 -0.1839  0.2611  0.0915
  403MOL0     C54316   2.034   1.961   9.291 -0.5485  0.5631 -0.2869
  403MOL0     C54317   1.943   1.857   9.305  0.5121 -0.6534  0.3872
  403MOL0     O54318   1.743   1.715   9.013  0.3940  0.2812 -0.9257
  403MOL0     C54319   1.619   1.539   9.290  0.0246  0.4464 -0.4783
  403MOL0     C54320   1.503   1.499   9.352  0.1657 -0.7913 -0.5988
  403MOL0     N54321   1.226   1.189   9.804  0.6579  0.7732  0.9000
  403MOL0     N54322   1.251   1.067   9.834  0.2098  0.5162 -0.6716
  403MOL0     C54323   1.082  -0.048  10.435 -0.4571 -0.1133 -0.0609
  403MOL0     C54324   0.991  -0.104  10.529 -0.7877 -0.5756  0.2362
  403MOL0     C54325   0.810  -0.172  10.959  1.0242  0.7696  0.2547
  403MOL0     C54326   0.868  -0.291  10.975 -0.3851  1.0442 -1.0428
  403MOL0     C54327   0.840  -0.384  11.077 -0.5518 -0.5017  0.2879
  403MOL0     C54328   0.730  -0.361  11.156 -0.7428 -0.3614 -0.5431
  403MOL0     O54329   0.682  -0.436  11.257  0.3698  0.4878 -0.1006
  403MOL0     C54330   0.757  -0.541  11.311 -0.0575  0.6169 -0.3608
  403MOL0     C54331   0.811  -0.498  11.442  1.1651  0.6334  1.0858
  403MOL0     C54332   0.710  -0.469  11.551 -0.1859  0.7985  0.0976
  403MOL0     C54333   0.722  -0.563  11.675  0.6735  0.1945 -0.4681
  403MOL0     C54334   0.631  -0.676  11.669  0.7931 -0.4303 -0.4578
  403MOL0     C54335   0.560  -0.778  11.662 -0.8520  0.5887 -0.3844
  403MOL0     C54336   0.663  -0.236  11.146 -0.0921  0.3240  0.0225
  403MOL0     C54337   0.705  -0.146  11.052  0.0732  0.2350  0.0779
  403MOL0     H54338   1.050   0.100  10.797 -1.1101  0.9503  0.3664
  403MOL0     H54339   1.193   0.214  10.608 -0.0748 -0.9737 -0.9790
  403MOL0     H54340   1.081   0.216  10.239  0.6798  1.2186 -0.9587
  403MOL0     H54341   1.168   0.318  10.361  1.2331  1.7760 -1.6370
  403MOL0     H54342   1.381   0.282  10.244  0.0312  0.2219  0.3939
  403MOL0     H54343   1.288   0.203  10.113 -1.2480  0.7057  0.1131
  403MOL0     H54344   1.121   0.410  10.143 -0.0131  0.9546  3.1526
  403MOL0     H54345   1.254   0.474  10.232 -0.3127  0.0924  0.7123
  403MOL0     H54346   1.398   0.441  10.028  0.5782  1.1860 -3.0296
  403MOL0     H54347   1.257   0.395   9.940  2.6394  1.2410 -2.2971
  403MOL0     H54348   1.148   0.625   9.999 -0.4071  0.7762 -0.9257
  403MOL0     H54349   1.309   0.672  10.056 -1.0729  0.0267  0.9891
  403MOL0     H54350   1.402   0.595   9.827 -0.1172 -1.2162 -3.3542
  403MOL0     H54351   1.234   0.573   9.781  2.4934 -1.6774 -0.3452
  403MOL0     H54352   1.353   0.827   9.881 -0.3222  1.6532  0.1725
  403MOL0     H54353   1.361   0.792   9.709  1.6257  0.6658  0.0405
  403MOL0     H54354   1.097   0.831   9.881 -2.0750  2.9045 -0.9696
  403MOL0     H54355   1.120   0.801   9.706  0.9390 -1.6001 -0.7203
  403MOL0     H54356   0.994   1.032   9.631 -1.3919 -0.0983  1.8280
  403MOL0     H54357   1.043   1.275   9.537 -0.1077 -0.3654 -0.4922
  403MOL0     H54358   1.004   1.362   9.694  0.6991  2.2322 -0.3223
  403MOL0     H54359   1.276   1.359   9.583 -1.9704 -3.4572  3.9033
  403MOL0     H54360   1.204   1.469   9.705 -2.8514  2.3546 -0.6509
  403MOL0     H54361   1.223   1.606   9.520  0.1029  0.4376  0.2823
  403MOL0     H54362   1.071   1.568   9.551  2.2035  1.0585  1.6785
  403MOL0     H54363   1.156   1.560   9.287  0.1553  1.5089  1.9586
  403MOL0     H54364   1.083   1.406   9.339  0.7401 -1.4239  0.6283
  403MOL0     H54365   1.295   1.483   9.090  0.7715 -0.4579  0.4237
  403MOL0     H54366   1.545   1.589   8.883  0.7783 -0.9188  0.4094
  403MOL0     H54367   1.364   1.581   8.909  0.2945 -0.4741  1.1356
  403MOL0     H54368   1.458   1.725   8.945 -1.6184  0.5247 -1.0416
  403MOL0     H54369   2.039   1.674   9.049  1.5072 -0.1396  0.5668
  403MOL0     H54370   2.186   1.864   9.006 -2.4461 -0.3957 -1.6000
  403MOL0     H54371   2.309   2.055   9.017  2.3251  1.1129  1.0128
  403MOL0     H54372   2.172   2.182   9.018 -1.4313 -2.6593 -0.2004
  403MOL0     H54373   2.336   2.322   9.172  2.5103  0.2542  0.5231
  403MOL0     H54374   2.454   2.199   9.176  3.0533  1.8871 -0.8722
  403MOL0     H54375   2.406   2.322   8.908  0.4753 -1.4296  0.0416
  403MOL0     H54376   2.525   2.202   8.956  1.2800  1.1595 -0.9659
  403MOL0     H54377   2.497   2.499   9.043  0.3952 -0.9526 -0.0730
  403MOL0     H54378   2.585   2.389   9.147 -1.3041 -2.4305  0.1178
  403MOL0     H54379   2.646   2.473   8.862 -1.2674 -1.0083 -0.5596
  403MOL0     H54380   2.732   2.335   8.939 -0.2258 -0.9495  0.4753
  403MOL0     H54381   2.701   2.592   9.101 -0.5977  0.3163 -1.4710
  403MOL0     H54382   2.816   2.465   9.118  3.2980  0.4243 -0.4317
  403MOL0     H54383   2.873   2.690   8.957 -0.0149 -0.0932 -1.1981
  403MOL0     H54384   2.860   2.553   8.851 -0.7949 -2.0703 -0.0435
  403MOL0     H54385   3.077   2.559   8.918 -3.2530 -0.2685 -4.2683
  403MOL0     H54386   2.997   2.416   9.001 -0.7121  0.7658  0.1931
  403MOL0     H54387   2.031   2.038   9.367 -0.5780  2.8147 -2.4256
  403MOL0     H54388   1.864   1.862   9.379 -0.9751 -1.0625 -1.1152
  403MOL0     H54389   1.708   1.541   9.351 -1.4775  0.6011  1.8284
  403MOL0     H54390   1.517   1.463   9.454  1.7593 -1.1347 -0.9157
  403MOL0     H54391   1.086  -0.099  10.340  1.0888 -0.8400  0.3618
  403MOL0     H54392   0.936  -0.190  10.493  0.6452 -1.6354  0.4471
  403MOL0     H54393   0.943  -0.324  10.904  1.1336 -1.7783  1.5895
  403MOL0     H54394   0.914  -0.463  11.076  2.2943  1.9394  1.1575
  403MOL0     H54395   0.683  -0.621  11.322  0.4226  0.3940  1.4977
  403MOL0     H54396   0.853  -0.564  11.263 -0.7651 -2.5428 -0.4578
  403MOL0     H54397   0.876  -0.413  11.425  0.6294  0.9609  0.6323
  403MOL0     H54398   0.877  -0.578  11.477  0.8087  0.6861  1.9156
  403MOL0     H54399   0.608  -0.476  11.513  0.2698 -2.0306 -0.8549
  403MOL0     H54400   0.731  -0.369  11.590 -0.1417  0.8543 -0.0678
  403MOL0     H54401   0.698  -0.517  11.771 -4.3573 -4.1884  0.8351
  403MOL0     H54402   0.814  -0.616  11.700  1.0511  1.1916  0.3528
  403MOL0     H54403   0.510  -0.872  11.674  4.0424 -2.1948  0.8656
  403MOL0     H54404   0.579  -0.219  11.214  0.5353  1.5362  0.5176
  403MOL0     H54405   0.635  -0.063  11.051 -0.7057 -0.3573  1.6144
  404MOL0     O54406   0.209   4.724   1.490 -0.5730 -0.3378  0.7654
  404MOL0     C54407   0.313   4.719   1.427 -0.9731 -0.4512  0.0315
  404MOL0     O54408   0.430   4.772   1.467 -0.1214  0.0996  0.3746
  404MOL0     C54409   0.431   4.861   1.568  0.4449 -0.0522 -0.6327
  404MOL0     C54410   0.333   4.952   1.603  0.1163 -0.9607 -0.8281
  404MOL0     C54411   0.350   5.051   1.703  0.4112  0.2521  0.8664
  404MOL0     C54412   0.469   5.051   1.782  0.5454  0.1005 -0.0055
  404MOL0     O54413   0.502   5.131   1.889  0.1843  0.4141 -0.0817
  404MOL0     C54414   0.394   5.180   1.967 -0.4642  0.0417 -0.9333
  404MOL0     C54415   0.444   5.246   2.089  0.5127 -0.3629  0.2477
  404MOL0     C54416   0.469   5.397   2.065  0.0097  0.3172  0.9183
  404MOL0     C54417   0.515   5.464   2.195 -0.4309 -0.1318 -0.3528
  404MOL0     C54418   0.550   5.608   2.168 -0.3683 -0.1940  0.6773
  404MOL0     C54419   0.675   5.646   2.079 -0.1404 -0.3277  0.1792
  404MOL0     C54420   0.802   5.597   2.128 -0.9754  0.7793 -1.0538
  404MOL0     C54421   0.825   5.641   2.273 -0.1346 -0.8846  0.2289
  404MOL0     N54422   0.842   5.789   2.276  0.0979 -0.5141 -0.2542
  404MOL0     C54423   0.736   5.888   2.253 -0.0653  0.9012 -0.4060
  404MOL0     C54424   0.780   6.004   2.309 -0.0273 -0.5999 -0.3411
  404MOL0     C54425   0.703   6.140   2.330 -0.3375  0.1944 -0.4873
  404MOL0     C54426   0.744   6.249   2.233 -0.6753  1.0030  1.3998
  404MOL0     C54427   0.719   6.392   2.278  0.1752  0.1491 -0.2152
  404MOL0     C54428   0.567   6.420   2.293 -1.2261  1.0378  0.0247
  404MOL0     O54429   0.547   6.564   2.299  0.4921  0.5730  0.0060
  404MOL0     C54430   0.438   6.583   2.368 -0.1151 -0.9069  0.3712
  404MOL0     C54431   0.456   6.675   2.461 -0.2203  0.1577 -0.6818
  404MOL0     C54432   0.344   6.720   2.537 -0.2472 -0.9321  0.2139
  404MOL0     C54433   0.372   6.837   2.627  0.2955 -0.6382 -0.2230
  404MOL0     C54434   0.213   6.664   2.520  0.1356 -0.3183 -0.0602
  404MOL0     C54435   0.080   6.701   2.598 -0.4887 -0.3556  1.5245
  404MOL0     O54436  -0.033   6.648   2.548 -0.1080  0.4080  0.4232
  404MOL0     C54437  -0.137   6.618   2.635  0.0572  0.4922  0.0301
  404MOL0     C54438  -0.137   6.491   2.703  0.1987  0.4362 -0.6470
  404MOL0     C54439  -0.229   6.469   2.808 -0.2114  0.3141 -0.3219
  404MOL0     C54440  -0.320   6.568   2.845 -0.0007  0.3396 -0.4480
  404MOL0     O54441  -0.412   6.541   2.943  0.0035  0.4982 -0.9367
  404MOL0     C54442  -0.543   6.598   2.932  0.2722  0.0613  0.7944
  404MOL0     C54443  -0.641   6.520   3.017  0.4160 -0.0945 -1.2545
  404MOL0     C54444  -0.579   6.443   3.140  0.1211  1.3572  0.8777
  404MOL0     C54445  -0.701   6.413   3.238 -0.4605 -0.1149  0.0130
  404MOL0     C54446  -0.663   6.297   3.339 -0.7592  0.0717 -0.3029
  404MOL0     C54447  -0.773   6.259   3.432 -0.1654 -0.3473 -0.0237
  404MOL0     C54448  -0.724   6.193   3.560 -0.3800 -0.1940 -0.7072
  404MOL0     C54449  -0.834   6.146   3.646  0.0730  0.9677  0.2879
  404MOL0    Cl54450  -0.878   6.291   3.737  0.1560  0.3612 -0.3283
  404MOL0     C54451  -0.313   6.693   2.789 -0.4390  0.2309 -0.3709
  404MOL0     C54452  -0.215   6.721   2.694 -0.2042 -0.1677 -0.4710
  404MOL0     O54453   0.089   6.790   2.679  0.6522 -0.0301 -0.3846
  404MOL0     C54454   0.203   6.565   2.421 -0.1904  0.1760  0.2080
  404MOL0     C54455   0.310   6.524   2.345  0.1678 -0.3580  0.4801
  404MOL0     N54456   0.911   5.982   2.340 -0.2211  0.0636  0.0712
  404MOL0     N54457   0.946   5.856   2.324 -0.2684  0.5918  0.3740
  404MOL0     C54458   0.560   4.947   1.752 -0.8755  0.5129  0.8246
  404MOL0     C54459   0.543   4.858   1.645 -0.2073 -0.2809  0.5010
  404MOL0     C54460   0.314   4.654   1.290  0.6570  0.4577 -0.8720
  404MOL0     C54461   0.436   4.628   1.222 -0.4130 -0.1209  0.1551
  404MOL0     C54462   0.441   4.564   1.100 -0.1032  0.4341  0.2943
  404MOL0     C54463   0.318   4.506   1.050 -0.6078  0.9202 -0.2316
  404MOL0     O54464   0.326   4.420   0.935  0.2237  0.0948 -0.2485
  404MOL0     C54465   0.451   4.375   0.893  0.1899 -0.0871 -0.1751
  404MOL0     C54466   0.435   4.243   0.823  0.1964  0.8983  0.2716
  404MOL0     C54467   0.568   4.186   0.782  0.4743  0.6244  0.4812
  404MOL0     C54468   0.559   4.047   0.735 -0.8365  0.1844 -0.0786
  404MOL0     C54469   0.687   4.013   0.657  0.2575 -0.0383 -0.7758
  404MOL0     C54470   0.791   3.963   0.595  0.8938 -0.4912  0.6283
  404MOL0     C54471   0.203   4.520   1.126 -0.3125 -0.2642  0.0087
  404MOL0     C54472   0.198   4.607   1.240  0.4098  0.2874 -0.5089
  404MOL0     H54473   0.234   4.956   1.558  1.2129  3.1586 -3.4768
  404MOL0     H54474   0.269   5.123   1.709 -0.2220  0.0678 -2.8015
  404MOL0     H54475   0.333   5.250   1.909  0.1603  2.5218  1.1852
  404MOL0     H54476   0.322   5.103   1.995 -0.3728 -0.1769 -1.2928
  404MOL0     H54477   0.359   5.248   2.158 -1.3179  1.5728 -1.8852
  404MOL0     H54478   0.527   5.189   2.134  0.8124  0.7728  1.1956
  404MOL0     H54479   0.541   5.396   1.983 -1.7649  1.2187 -0.7281
  404MOL0     H54480   0.381   5.456   2.037 -0.6443 -0.7760  0.6125
  404MOL0     H54481   0.449   5.471   2.282  0.1930 -1.8134  0.2896
  404MOL0     H54482   0.604   5.417   2.237  0.8951  1.8596 -0.7794
  404MOL0     H54483   0.473   5.659   2.110  1.4418  2.0644  0.0787
  404MOL0     H54484   0.551   5.660   2.264 -1.5680 -0.9937  1.1374
  404MOL0     H54485   0.650   5.591   1.988  0.8586  0.1912 -0.4296
  404MOL0     H54486   0.673   5.752   2.051 -0.6398  0.8637  4.1343
  404MOL0     H54487   0.808   5.489   2.109 -3.4878  0.6919 -1.7325
  404MOL0     H54488   0.876   5.635   2.056 -1.8710  0.4132 -2.1993
  404MOL0     H54489   0.915   5.594   2.314  0.7179  2.5137  2.7433
  404MOL0     H54490   0.753   5.603   2.345  2.3842 -1.2487  2.7237
  404MOL0     H54491   0.634   5.874   2.220 -0.3077  1.4333  0.1122
  404MOL0     H54492   0.596   6.118   2.328 -0.3315  0.1780 -1.9380
  404MOL0     H54493   0.722   6.181   2.429 -1.0772  3.1256 -1.4722
  404MOL0     H54494   0.704   6.240   2.131  2.9314  3.7948 -0.5343
  404MOL0     H54495   0.851   6.230   2.229 -1.1344 -1.9776 -2.0645
  404MOL0     H54496   0.759   6.438   2.187 -0.0470 -2.0151 -1.5136
  404MOL0     H54497   0.788   6.419   2.358  1.9253 -0.1817 -1.5587
  404MOL0     H54498   0.526   6.375   2.384 -0.4889 -1.9526 -1.0280
  404MOL0     H54499   0.517   6.385   2.203  0.2675 -0.5604 -0.2266
  404MOL0     H54500   0.551   6.724   2.480 -0.1138 -0.6949  1.1905
  404MOL0     H54501   0.361   6.802   2.730  1.7280 -4.0295 -1.0824
  404MOL0     H54502   0.474   6.877   2.626  0.6037 -1.3983 -0.3537
  404MOL0     H54503   0.314   6.928   2.609  1.6804  0.2258 -0.4626
  404MOL0     H54504  -0.066   6.416   2.672  1.4607  1.0234  0.6708
  404MOL0     H54505  -0.255   6.376   2.858  0.5223  1.1217  1.6774
  404MOL0     H54506  -0.546   6.704   2.959 -1.0946  0.3388 -0.3239
  404MOL0     H54507  -0.596   6.586   2.837 -2.6561 -2.8093  2.6268
  404MOL0     H54508  -0.715   6.588   3.060 -1.7206 -2.3735 -1.0608
  404MOL0     H54509  -0.696   6.454   2.949 -0.9847  0.1711 -0.4152
  404MOL0     H54510  -0.496   6.498   3.184  1.8364 -1.4490  1.3937
  404MOL0     H54511  -0.547   6.342   3.114 -1.9077  1.2225 -1.5353
  404MOL0     H54512  -0.723   6.505   3.294 -1.8290  0.3538 -1.2342
  404MOL0     H54513  -0.793   6.392   3.184 -1.7935 -0.0106  2.1278
  404MOL0     H54514  -0.577   6.327   3.399 -0.2404 -0.0774 -0.9538
  404MOL0     H54515  -0.629   6.212   3.278 -0.4302 -0.7382  0.9767
  404MOL0     H54516  -0.799   6.363   3.452  1.6540  0.7261 -2.6925
  404MOL0     H54517  -0.852   6.207   3.377 -0.4567  2.1255 -2.0957
  404MOL0     H54518  -0.666   6.262   3.622  0.8620 -2.0810  0.3286
  404MOL0     H54519  -0.663   6.104   3.544  0.2062 -0.7373  3.4108
  404MOL0     H54520  -0.797   6.069   3.714  0.4420 -0.3314 -1.3023
  404MOL0     H54521  -0.916   6.103   3.587  2.1715 -1.0148 -1.3350
  404MOL0     H54522  -0.379   6.773   2.820 -1.4233 -0.5299 -0.4871
  404MOL0     H54523  -0.194   6.823   2.663  1.7521 -0.3980 -0.0528
  404MOL0     H54524   0.110   6.517   2.391  0.3850  0.0916 -1.5776
  404MOL0     H54525   0.295   6.458   2.261  1.6275 -0.0612 -0.0436
  404MOL0     H54526   0.644   4.935   1.819 -0.7715 -1.6354  0.3646
  404MOL0     H54527   0.620   4.784   1.628  1.3289  1.6516 -1.7300
  404MOL0     H54528   0.524   4.676   1.263 -0.2962 -0.3807  0.2095
  404MOL0     H54529   0.532   4.551   1.042  2.9761  0.6027  4.6098
  404MOL0     H54530   0.515   4.439   0.830  1.7249 -1.8133 -0.4580
  404MOL0     H54531   0.510   4.348   0.981  0.6227 -3.4374 -1.3287
  404MOL0     H54532   0.360   4.258   0.745 -1.5133 -2.5163  1.0716
  404MOL0     H54533   0.388   4.171   0.892 -1.0874  0.1723 -1.2962
  404MOL0     H54534   0.639   4.187   0.865 -0.1471  0.9209  1.0108
  404MOL0     H54535   0.605   4.245   0.698 -2.6951  0.7715 -0.9456
  404MOL0     H54536   0.481   4.037   0.659  0.1771  0.7780 -1.2172
  404MOL0     H54537   0.528   3.973   0.810 -2.8383 -0.2597 -1.2706
  404MOL0     H54538   0.873   3.910   0.551  0.0760 -2.1651  1.0257
  404MOL0     H54539   0.114   4.463   1.101 -1.3089 -0.7518  4.0215
  404MOL0     H54540   0.108   4.614   1.300 -0.4767  0.4711 -1.8103
  405MOL0     O54541   8.950   3.249   3.000  1.6062  0.1032  0.8099
  405MOL0     C54542   8.838   3.213   2.952  0.0333 -0.7255  0.7707
  405MOL0     O54543   8.804   3.229   2.823  0.3433 -0.2700  0.2632
  405MOL0     C54544   8.890   3.234   2.718  0.7757 -0.2365  0.3644
  405MOL0     C54545   8.839   3.270   2.591  0.4187  0.0152  0.3246
  405MOL0     C54546   8.916   3.240   2.475  0.1523  0.0717 -0.6446
  405MOL0     C54547   9.043   3.194   2.493 -0.5369  0.4736 -0.0370
  405MOL0     O54548   9.111   3.139   2.378 -0.1684  0.6753 -0.5966
  405MOL0     C54549   9.118   3.222   2.259 -0.1328 -0.2810  0.8903
  405MOL0     C54550   9.216   3.170   2.159 -1.0878  0.5824 -0.9597
  405MOL0     C54551   9.208   3.015   2.132 -0.3308 -0.2345 -0.1056
  405MOL0     C54552   9.082   2.982   2.061  0.8407 -0.5345 -0.4375
  405MOL0     C54553   9.070   2.831   2.056 -0.6650 -0.1359  0.2418
  405MOL0     C54554   8.962   2.796   1.954 -0.8384 -0.3736 -0.3453
  405MOL0     C54555   8.951   2.647   1.930  0.5000 -0.4704 -0.5019
  405MOL0     C54556   8.897   2.558   2.050  0.0571  0.1884 -0.2735
  405MOL0     N54557   8.756   2.578   2.088 -0.5420  0.0366  0.1548
  405MOL0     C54558   8.687   2.486   2.158 -1.1076  0.1373 -0.1927
  405MOL0     C54559   8.564   2.525   2.149  0.0464  0.0995 -0.1371
  405MOL0     C54560   8.451   2.453   2.214 -0.3582  0.6663  1.0326
  405MOL0     C54561   8.366   2.527   2.319 -0.2609  1.2331 -0.1718
  405MOL0     C54562   8.439   2.638   2.395  0.8952 -0.2733  0.0002
  405MOL0     C54563   8.355   2.712   2.508  0.7935 -0.4169  0.9223
  405MOL0     O54564   8.264   2.810   2.455 -0.1310 -0.6162  0.2711
  405MOL0     C54565   8.137   2.809   2.500 -0.0398  0.6434  0.1701
  405MOL0     C54566   8.031   2.832   2.409 -1.1704 -0.1558  0.0955
  405MOL0     C54567   7.895   2.823   2.454  0.1678  0.4403  0.0346
  405MOL0     C54568   7.786   2.837   2.348 -0.4730 -0.8144 -0.3826
  405MOL0     C54569   7.866   2.795   2.590 -0.2005  0.7863 -0.3613
  405MOL0     C54570   7.725   2.780   2.651 -0.3285 -0.3768  0.0071
  405MOL0     O54571   7.716   2.733   2.779  0.5797 -0.3270  0.3841
  405MOL0     C54572   7.587   2.732   2.835  1.3164 -0.0999 -0.5445
  405MOL0     C54573   7.532   2.839   2.893 -0.0149 -0.4993 -0.2704
  405MOL0     C54574   7.405   2.841   2.940 -0.5105 -0.1972  0.5421
  405MOL0     C54575   7.319   2.733   2.931  0.4073  0.5089  0.0089
  405MOL0     O54576   7.198   2.752   2.988  0.8941  0.2447  0.3193
  405MOL0     C54577   7.099   2.646   3.010  0.3316  0.5195 -0.8584
  405MOL0     C54578   6.973   2.708   3.079  0.0075  0.5158  0.3717
  405MOL0     C54579   6.910   2.831   3.018  0.4166 -0.5714 -0.2345
  405MOL0     C54580   6.843   2.808   2.882 -0.1779 -0.3885  0.4355
  405MOL0     C54581   6.822   2.943   2.798  0.1603 -0.5621  0.6319
  405MOL0     C54582   6.955   3.016   2.765  0.3183  0.3361  0.4059
  405MOL0     C54583   7.059   2.929   2.683  0.7110 -0.4032  0.4534
  405MOL0     C54584   7.179   3.030   2.663  0.5160  0.2760 -0.2431
  405MOL0    Cl54585   7.143   3.160   2.537 -0.1177 -0.2631 -0.1399
  405MOL0     C54586   7.369   2.616   2.874 -1.2749  0.1583 -0.2880
  405MOL0     C54587   7.506   2.615   2.835 -0.0327 -0.1004  0.3165
  405MOL0     O54588   7.628   2.813   2.588 -0.6984 -0.4915 -0.4235
  405MOL0     C54589   7.978   2.785   2.687  0.0237  0.0943  0.1702
  405MOL0     C54590   8.110   2.792   2.637  0.3935 -0.6569 -0.6182
  405MOL0     N54591   8.548   2.632   2.073 -0.2225 -0.2486  0.4911
  405MOL0     N54592   8.664   2.663   2.030  0.1787 -0.0094  0.2115
  405MOL0     C54593   9.100   3.173   2.620 -0.0296  0.7905  0.0670
  405MOL0     C54594   9.023   3.183   2.731  0.6072 -0.1238  0.7679
  405MOL0     C54595   8.724   3.202   3.044  0.3707  0.3154  0.1179
  405MOL0     C54596   8.735   3.150   3.176  0.1838 -0.1039 -0.3033
  405MOL0     C54597   8.632   3.152   3.271 -0.5082  0.0970 -0.0660
  405MOL0     C54598   8.511   3.199   3.231  0.7501  0.4215 -0.3210
  405MOL0     O54599   8.430   3.217   3.343  0.3753  0.4960  0.5365
  405MOL0     C54600   8.285   3.229   3.321 -0.0238  0.6377 -1.0751
  405MOL0     C54601   8.241   3.078   3.333 -0.1743  0.3617  0.2257
  405MOL0     C54602   8.088   3.052   3.352  0.4926 -0.4587 -0.1515
  405MOL0     C54603   8.008   3.137   3.251 -1.1590 -0.9392 -0.3648
  405MOL0     C54604   7.864   3.103   3.278  0.1719  0.8021  0.0405
  405MOL0     C54605   7.749   3.062   3.303 -0.0774  0.3741 -0.0978
  405MOL0     C54606   8.484   3.231   3.092  0.5579 -0.5632 -0.1193
  405MOL0     C54607   8.588   3.232   2.996  0.2493  0.1152 -0.4200
  405MOL0     H54608   8.741   3.315   2.590  0.0167 -0.7633  1.9220
  405MOL0     H54609   8.857   3.242   2.384 -1.8882 -1.5139  0.5656
  405MOL0     H54610   9.024   3.226   2.203  1.0699  1.1400 -1.1837
  405MOL0     H54611   9.146   3.326   2.280 -1.9087  0.3525  0.3319
  405MOL0     H54612   9.209   3.219   2.062 -2.7379  0.5966 -0.8764
  405MOL0     H54613   9.318   3.187   2.194 -1.9678  4.7730  0.1247
  405MOL0     H54614   9.303   2.984   2.088  1.9281  2.9935  1.9985
  405MOL0     H54615   9.212   2.969   2.231 -0.7611 -0.4831 -0.2009
  405MOL0     H54616   8.994   3.019   2.114  2.9486  1.7015  1.7866
  405MOL0     H54617   9.086   3.027   1.961 -1.6877  3.3300  0.9626
  405MOL0     H54618   9.166   2.791   2.022  1.1502  3.9398 -0.0707
  405MOL0     H54619   9.042   2.792   2.155 -2.4221  1.2503  0.3272
  405MOL0     H54620   8.870   2.836   1.998  0.0057 -0.4860  1.6382
  405MOL0     H54621   8.981   2.846   1.859  0.6003  0.7129  0.4832
  405MOL0     H54622   8.889   2.637   1.840 -0.0341  0.4879 -0.2540
  405MOL0     H54623   9.053   2.615   1.907  0.7316 -2.3736  2.5976
  405MOL0     H54624   8.953   2.565   2.144 -2.0916 -2.7744  1.3767
  405MOL0     H54625   8.908   2.460   2.003  1.2711  1.4346 -2.7685
  405MOL0     H54626   8.716   2.400   2.217 -3.4016 -0.5264  0.0632
  405MOL0     H54627   8.380   2.418   2.139 -2.8299  1.2631  2.9246
  405MOL0     H54628   8.494   2.366   2.266  2.1071  1.1841 -0.0082
  405MOL0     H54629   8.327   2.458   2.395  0.5289  0.6015 -0.3262
  405MOL0     H54630   8.279   2.575   2.272  0.4078  1.0297 -1.6767
  405MOL0     H54631   8.473   2.715   2.326 -3.1215  2.7615  1.0603
  405MOL0     H54632   8.529   2.601   2.445  0.5795 -2.3072 -0.8169
  405MOL0     H54633   8.420   2.755   2.585  0.1183 -1.7986  2.3464
  405MOL0     H54634   8.304   2.627   2.555  0.8037 -1.5376 -0.9872
  405MOL0     H54635   8.051   2.839   2.303 -4.2073 -1.8865 -0.6981
  405MOL0     H54636   7.832   2.814   2.252  0.9276 -1.0460  0.3215
  405MOL0     H54637   7.713   2.758   2.369 -0.6123 -0.5227  0.2549
  405MOL0     H54638   7.749   2.940   2.343 -0.8071 -0.7507  2.0053
  405MOL0     H54639   7.596   2.927   2.892  1.0968 -1.2951  0.2812
  405MOL0     H54640   7.370   2.932   2.987 -2.9781  0.4489 -2.2378
  405MOL0     H54641   7.074   2.590   2.919 -1.9909 -1.9029  1.1004
  405MOL0     H54642   7.141   2.566   3.071 -0.8930  1.0346  0.7300
  405MOL0     H54643   6.892   2.635   3.083 -1.3822  2.0349  1.3648
  405MOL0     H54644   7.001   2.735   3.181  1.2933  1.2942 -0.1507
  405MOL0     H54645   6.983   2.912   3.009 -1.4713  1.0673 -1.5850
  405MOL0     H54646   6.834   2.868   3.087 -1.3997 -0.2606 -2.3000
  405MOL0     H54647   6.906   2.744   2.820  0.0797  0.7003 -0.4657
  405MOL0     H54648   6.745   2.762   2.895 -0.4319  0.0664  0.1644
  405MOL0     H54649   6.749   3.004   2.852 -1.4808  0.3658 -2.4449
  405MOL0     H54650   6.767   2.925   2.705  1.2904 -0.5268 -0.0535
  405MOL0     H54651   6.934   3.112   2.716  1.2773  0.1848 -0.3367
  405MOL0     H54652   6.997   3.044   2.862  2.6173 -0.9010 -0.1570
  405MOL0     H54653   7.017   2.893   2.589  1.4827 -1.3062  0.4351
  405MOL0     H54654   7.096   2.847   2.746 -0.3769 -0.4026  1.1306
  405MOL0     H54655   7.267   2.973   2.632  0.0555 -1.3458  1.2554
  405MOL0     H54656   7.207   3.066   2.762  2.3080 -0.1694 -0.5568
  405MOL0     H54657   7.299   2.535   2.853 -2.3676  0.4956  1.6894
  405MOL0     H54658   7.546   2.520   2.799 -0.3039 -0.8556  1.9196
  405MOL0     H54659   7.956   2.761   2.790 -0.6782 -3.0308 -0.6128
  405MOL0     H54660   8.193   2.781   2.707 -1.2297 -1.2152  1.3167
  405MOL0     H54661   9.197   3.127   2.637  1.7415  2.8142 -3.4212
  405MOL0     H54662   9.070   3.146   2.821 -0.1430  0.9226  1.6208
  405MOL0     H54663   8.831   3.108   3.205  1.0386 -0.1968 -2.9267
  405MOL0     H54664   8.674   3.142   3.371 -0.6950  1.4294  0.1633
  405MOL0     H54665   8.242   3.283   3.405  2.0121 -0.8426  1.0282
  405MOL0     H54666   8.254   3.273   3.226  0.9628  0.7557 -1.3567
  405MOL0     H54667   8.292   3.032   3.417 -1.1036 -0.6111  0.2851
  405MOL0     H54668   8.265   3.024   3.240 -3.8020 -1.4028  0.1205
  405MOL0     H54669   8.058   3.074   3.455  1.2463 -0.8311  0.1606
  405MOL0     H54670   8.076   2.943   3.347  1.2740 -0.7748  2.7240
  405MOL0     H54671   8.039   3.113   3.149  0.3856 -1.1137  0.1145
  405MOL0     H54672   8.018   3.244   3.267 -0.7134 -1.0504  0.1290
  405MOL0     H54673   7.648   3.030   3.322 -1.6935  2.8446 -3.4022
  405MOL0     H54674   8.388   3.277   3.071  0.9594 -0.0174 -0.8275
  405MOL0     H54675   8.566   3.269   2.896 -2.4733  0.3285  0.1810
  406MOL0     O54676  11.349   8.900   2.982  0.2788  0.2579 -0.6079
  406MOL0     C54677  11.228   8.895   3.016  0.1404 -0.0574  0.7964
  406MOL0     O54678  11.127   8.835   2.943  0.9361 -0.3188 -0.8693
  406MOL0     C54679  11.146   8.791   2.817 -0.3565 -0.3561  0.2223
  406MOL0     C54680  11.190   8.662   2.789  0.1256  0.0343  0.5500
  406MOL0     C54681  11.217   8.623   2.659 -0.9815  0.2239  0.2135
  406MOL0     C54682  11.188   8.710   2.550  0.0708  0.0913 -0.3723
  406MOL0     O54683  11.219   8.662   2.426 -0.2921 -0.6399  0.7564
  406MOL0     C54684  11.205   8.756   2.312 -0.2560 -0.6548 -0.3951
  406MOL0     C54685  11.281   8.705   2.199 -0.0225  0.0631  0.3649
  406MOL0     C54686  11.228   8.566   2.149  0.5902 -0.0515  0.9184
  406MOL0     C54687  11.109   8.575   2.053  1.0036  0.6715 -0.1319
  406MOL0     C54688  11.111   8.663   1.931  0.8263  0.4778 -0.8289
  406MOL0     C54689  11.217   8.618   1.824  0.6115 -0.8024  1.3806
  406MOL0     C54690  11.190   8.491   1.746  0.0511  0.6833  0.0983
  406MOL0     C54691  11.126   8.520   1.609 -0.1305 -0.0664 -0.5435
  406MOL0     N54692  11.212   8.483   1.499 -0.1529 -0.9067 -0.4975
  406MOL0     C54693  11.230   8.353   1.464 -0.1880  0.1132 -0.3719
  406MOL0     C54694  11.291   8.363   1.341  0.0934 -0.3817  0.8339
  406MOL0     C54695  11.308   8.255   1.242 -0.1319  0.8236  0.1142
  406MOL0     C54696  11.458   8.242   1.189 -0.1975  0.5456 -0.5032
  406MOL0     C54697  11.524   8.359   1.111  0.3144 -0.3653 -0.1511
  406MOL0     C54698  11.647   8.312   1.040  0.1246 -0.3825  1.0996
  406MOL0     O54699  11.588   8.233   0.939 -0.3790 -0.7931  0.0824
  406MOL0     C54700  11.675   8.209   0.838  0.4105  0.1863 -0.2788
  406MOL0     C54701  11.602   8.140   0.734 -0.4900 -0.0593  0.1895
  406MOL0     C54702  11.656   8.115   0.608  0.2201 -0.6362 -0.3597
  406MOL0     C54703  11.575   8.054   0.505  0.7342  0.4507  0.7274
  406MOL0     C54704  11.788   8.161   0.584 -0.5986  0.1243  0.0273
  406MOL0     C54705  11.862   8.147   0.453 -0.7567  0.4062  0.1136
  406MOL0     O54706  11.991   8.189   0.443  0.4865  0.4127 -0.0019
  406MOL0     C54707  12.060   8.150   0.330  0.1740  0.1619 -0.6172
  406MOL0     C54708  12.088   8.013   0.293  0.3740 -0.5348  0.2711
  406MOL0     C54709  12.156   7.975   0.177 -0.6523  0.3995  0.4604
  406MOL0     C54710  12.201   8.081   0.091 -0.1266  0.1261 -0.3525
  406MOL0     O54711  12.287   8.056  -0.005 -0.1306  0.8941 -0.3611
  406MOL0     C54712  12.272   8.122  -0.142  0.3211  0.1450 -0.7129
  406MOL0     C54713  12.195   8.020  -0.225 -0.0533  0.4404 -0.1729
  406MOL0     C54714  12.164   8.085  -0.360  0.6127 -0.5718 -0.0407
  406MOL0     C54715  12.102   7.986  -0.454  0.3830 -0.2876  1.1564
  406MOL0     C54716  12.096   8.044  -0.590  0.2267  0.0854  0.1861
  406MOL0     C54717  12.020   7.954  -0.690  1.0291 -0.6025 -0.6452
  406MOL0     C54718  12.007   8.015  -0.827 -1.1884  0.8979  0.4267
  406MOL0     C54719  11.946   7.914  -0.929  0.6627  0.5557 -0.6075
  406MOL0    Cl54720  12.071   7.801  -0.984 -0.1359  0.8044  0.1632
  406MOL0     C54721  12.186   8.217   0.126 -0.6332  0.0415 -0.1774
  406MOL0     C54722  12.112   8.250   0.244 -0.6439 -0.9128 -0.8030
  406MOL0     O54723  11.796   8.105   0.351 -0.1186 -0.0140 -0.8191
  406MOL0     C54724  11.867   8.223   0.683 -0.0358 -0.4632  0.3262
  406MOL0     C54725  11.805   8.250   0.806 -0.6108 -0.0866 -0.3642
  406MOL0     N54726  11.306   8.500   1.311  0.2025 -0.0306  0.2345
  406MOL0     N54727  11.273   8.576   1.415  0.2893  0.7465  0.2715
  406MOL0     C54728  11.124   8.831   2.580  0.6492  0.5593  0.1397
  406MOL0     C54729  11.108   8.875   2.709  0.3216 -0.2399 -0.8732
  406MOL0     C54730  11.189   8.942   3.157 -0.0183  0.1950  1.1117
  406MOL0     C54731  11.050   8.960   3.188 -0.8525  0.1983  0.4260
  406MOL0     C54732  11.017   8.981   3.317 -0.0265  0.3064 -0.1501
  406MOL0     C54733  11.112   8.993   3.423  0.9467 -0.0655 -0.0451
  406MOL0     O54734  11.079   9.032   3.546  0.0231  0.4064  0.2785
  406MOL0     C54735  11.114   8.945   3.659  0.8393 -0.7666  0.0677
  406MOL0     C54736  10.994   8.855   3.693  0.0236  0.9045 -0.6319
  406MOL0     C54737  10.889   8.920   3.782 -0.2097 -0.4426  0.5162
  406MOL0     C54738  10.755   8.846   3.789  0.8842  0.6275  0.7295
  406MOL0     C54739  10.761   8.707   3.837  1.2274  0.0092 -0.6819
  406MOL0     C54740  10.762   8.594   3.888 -0.2809  0.1638 -0.1670
  406MOL0     C54741  11.253   8.976   3.393  0.3246 -0.2128 -0.8568
  406MOL0     C54742  11.286   8.958   3.258 -0.9800  0.4462  0.5438
  406MOL0     H54743  11.197   8.588   2.868 -3.9462 -3.6697 -2.0783
  406MOL0     H54744  11.263   8.529   2.628 -0.6741  0.9861 -1.8178
  406MOL0     H54745  11.101   8.782   2.293  0.3541  0.9322 -1.9025
  406MOL0     H54746  11.244   8.852   2.347 -3.1227 -0.7074  3.5477
  406MOL0     H54747  11.270   8.772   2.113  0.1978 -1.7838 -1.1922
  406MOL0     H54748  11.382   8.704   2.239 -0.1007  0.9047  0.5923
  406MOL0     H54749  11.306   8.510   2.097  0.9678  1.0875  0.2024
  406MOL0     H54750  11.206   8.507   2.238  0.0254  1.8445  2.1136
  406MOL0     H54751  11.097   8.472   2.018 -1.7234  0.7259  0.4831
  406MOL0     H54752  11.025   8.601   2.117 -2.6656 -2.7470 -3.0521
  406MOL0     H54753  11.010   8.645   1.891 -0.0612 -1.2950  1.9319
  406MOL0     H54754  11.118   8.769   1.954  0.4270  0.5561 -1.0540
  406MOL0     H54755  11.225   8.702   1.754  1.0303 -1.0908  1.0668
  406MOL0     H54756  11.318   8.610   1.867  0.8954  0.6748  1.0598
  406MOL0     H54757  11.284   8.435   1.739  1.0866  2.1131  1.5974
  406MOL0     H54758  11.124   8.431   1.809 -2.8969  2.7122 -0.8195
  406MOL0     H54759  11.094   8.624   1.601  3.0784  1.2670  1.8069
  406MOL0     H54760  11.036   8.458   1.606 -1.0890  1.1963  0.7826
  406MOL0     H54761  11.193   8.259   1.503 -1.0278  0.4835 -0.2339
  406MOL0     H54762  11.291   8.156   1.284 -1.7135 -2.1545 -6.2978
  406MOL0     H54763  11.233   8.253   1.162  1.0804 -2.2441 -1.0725
  406MOL0     H54764  11.460   8.147   1.135 -0.1481  0.5476 -0.5057
  406MOL0     H54765  11.524   8.214   1.272 -0.6523 -1.3105 -0.7073
  406MOL0     H54766  11.555   8.434   1.183 -1.8303 -0.3515  0.8159
  406MOL0     H54767  11.445   8.400   1.048 -0.0267 -0.8000 -0.0115
  406MOL0     H54768  11.705   8.241   1.100  0.5093 -0.7864  0.2624
  406MOL0     H54769  11.709   8.394   1.005 -2.9889  2.0930  0.8624
  406MOL0     H54770  11.502   8.100   0.750 -1.0474  0.6089 -1.4806
  406MOL0     H54771  11.485   8.009   0.548  1.3027 -0.2488  1.2051
  406MOL0     H54772  11.544   8.128   0.430 -0.2365  1.0791  1.7182
  406MOL0     H54773  11.629   7.970   0.458 -1.4363 -1.0373  0.7601
  406MOL0     H54774  12.043   7.939   0.358 -2.9406  2.3337  1.5554
  406MOL0     H54775  12.165   7.873   0.141  0.7617 -0.3841  2.8132
  406MOL0     H54776  12.226   8.221  -0.132 -1.0320 -0.2914 -2.2383
  406MOL0     H54777  12.377   8.131  -0.170  0.9932 -0.2343  1.4651
  406MOL0     H54778  12.270   7.942  -0.241 -0.2782 -0.3420  2.1317
  406MOL0     H54779  12.114   7.959  -0.184 -1.2805  1.1734 -1.4149
  406MOL0     H54780  12.265   8.110  -0.396  0.6522  1.5650  1.3658
  406MOL0     H54781  12.105   8.177  -0.358  0.6167 -0.5810  1.1312
  406MOL0     H54782  12.157   7.892  -0.459 -1.7271 -1.5371  0.0470
  406MOL0     H54783  11.999   7.955  -0.429  0.4394 -0.9308  0.6007
  406MOL0     H54784  12.196   8.064  -0.631  1.0886 -0.4147  1.9499
  406MOL0     H54785  12.036   8.135  -0.586  1.0249  0.6091  0.6544
  406MOL0     H54786  12.084   7.868  -0.710  0.7212 -1.2869  1.1272
  406MOL0     H54787  11.918   7.951  -0.650  1.0663 -0.9107 -0.5738
  406MOL0     H54788  12.102   8.062  -0.854 -1.0617 -0.8184 -2.5193
  406MOL0     H54789  11.921   8.082  -0.831 -2.0343 -0.1934 -0.0752
  406MOL0     H54790  11.905   7.967  -1.016 -1.8044  1.5204  1.0274
  406MOL0     H54791  11.857   7.867  -0.885  0.3436  0.6871 -1.1083
  406MOL0     H54792  12.235   8.298   0.072  0.2942  0.1534  0.7995
  406MOL0     H54793  12.111   8.351   0.284  1.4549 -1.7544  1.6425
  406MOL0     H54794  11.967   8.259   0.660 -0.6389  0.0142 -1.7741
  406MOL0     H54795  11.860   8.298   0.886 -1.3446  1.0545 -0.5216
  406MOL0     H54796  11.096   8.898   2.499  0.0106 -0.0687 -0.1725
  406MOL0     H54797  11.075   8.976   2.728  1.8991  0.0243  0.6223
  406MOL0     H54798  10.977   8.963   3.107  0.2217 -0.3280 -0.5992
  406MOL0     H54799  10.912   8.996   3.341  0.3180  2.4855  0.1580
  406MOL0     H54800  11.183   8.871   3.618 -0.6156 -0.9608 -2.2101
  406MOL0     H54801  11.151   8.992   3.750  2.2624 -0.7264 -0.5059
  406MOL0     H54802  11.037   8.779   3.759 -0.0824 -0.6807 -2.3335
  406MOL0     H54803  10.956   8.823   3.596  1.6421 -0.5753 -0.8385
  406MOL0     H54804  10.862   9.021   3.748 -3.1008 -0.3523  2.6657
  406MOL0     H54805  10.929   8.940   3.881  0.6217 -2.0848  0.5372
  406MOL0     H54806  10.721   8.840   3.685 -0.3488  0.1815  1.1400
  406MOL0     H54807  10.686   8.908   3.848  0.1202 -1.2512  1.8908
  406MOL0     H54808  10.763   8.493   3.922 -0.0178 -0.1124 -0.9788
  406MOL0     H54809  11.320   8.996   3.476 -2.1295  1.7344  0.8095
  406MOL0     H54810  11.390   8.939   3.233 -1.7925 -0.6916 -2.3565
  407MOL0     O54811   0.544   7.109   6.073  0.5693  0.9097 -0.5684
  407MOL0     C54812   0.664   7.105   6.055  0.7946  0.6399  0.3642
  407MOL0     O54813   0.745   7.207   6.072 -0.0886 -0.2457 -0.5573
  407MOL0     C54814   0.731   7.286   6.189  0.8619  0.3812  0.6366
  407MOL0     C54815   0.789   7.415   6.208  0.8537  0.7294  0.9541
  407MOL0     C54816   0.775   7.493   6.326 -0.1718  0.8909 -0.6901
  407MOL0     C54817   0.715   7.440   6.441  0.2977 -0.2890  0.6387
  407MOL0     O54818   0.693   7.516   6.545 -0.6486  0.7345 -0.4395
  407MOL0     C54819   0.628   7.464   6.661  0.6540 -0.2913  0.1121
  407MOL0     C54820   0.620   7.583   6.753  0.4848  0.9647  0.1366
  407MOL0     C54821   0.592   7.542   6.906  0.2313 -0.1159  0.9908
  407MOL0     C54822   0.449   7.579   6.969  0.1371 -0.0516  0.9943
  407MOL0     C54823   0.398   7.720   6.973  0.3923 -0.9342 -0.2475
  407MOL0     C54824   0.239   7.714   6.988 -1.5049 -0.7488  1.2897
  407MOL0     C54825   0.174   7.862   6.978  0.2708  0.3693  0.7090
  407MOL0     C54826   0.116   7.873   6.833 -0.8775 -0.6490 -0.9474
  407MOL0     N54827   0.223   7.891   6.728  1.2236 -0.8264 -0.2367
  407MOL0     C54828   0.273   7.787   6.660  0.5231  0.3566  0.7654
  407MOL0     C54829   0.348   7.839   6.557  0.0841  0.3794  0.0242
  407MOL0     C54830   0.422   7.764   6.451 -0.0115 -0.3170 -0.8422
  407MOL0     C54831   0.346   7.782   6.322  0.5827  0.4776 -0.1481
  407MOL0     C54832   0.422   7.699   6.207 -1.2724  0.4863  0.8421
  407MOL0     C54833   0.339   7.692   6.079 -0.9662 -0.5077  0.9036
  407MOL0     O54834   0.223   7.611   6.090  0.3356  0.1866  0.0714
  407MOL0     C54835   0.231   7.478   6.049  0.0481  0.1250  0.1810
  407MOL0     C54836   0.098   7.433   6.033  0.2099 -0.4722 -0.0489
  407MOL0     C54837   0.077   7.308   5.980 -0.5192 -0.0836  0.3810
  407MOL0     C54838  -0.072   7.271   5.980 -0.0176 -1.2581 -0.7058
  407MOL0     C54839   0.176   7.224   5.932 -0.8283  0.0767  0.5629
  407MOL0     C54840   0.160   7.094   5.872 -0.4748  0.5145 -0.4689
  407MOL0     O54841   0.257   6.996   5.889  0.5532  0.0185 -0.2350
  407MOL0     C54842   0.267   6.881   5.815  0.8381  0.0524  0.3930
  407MOL0     C54843   0.392   6.849   5.774 -0.1121 -0.0542 -0.3313
  407MOL0     C54844   0.417   6.740   5.692  0.5944  0.5814 -0.1314
  407MOL0     C54845   0.316   6.660   5.646 -1.3138 -1.1721  1.3473
  407MOL0     O54846   0.334   6.558   5.554 -0.4246  0.7451  0.8412
  407MOL0     C54847   0.228   6.472   5.515  0.0090  0.0676  0.1204
  407MOL0     C54848   0.279   6.354   5.420  0.2316 -0.7156 -0.3870
  407MOL0     C54849   0.399   6.279   5.466 -0.3531 -0.0127  0.5768
  407MOL0     C54850   0.408   6.142   5.403  0.4359 -0.4740 -0.4584
  407MOL0     C54851   0.430   6.132   5.248 -0.2936  0.1777  0.2193
  407MOL0     C54852   0.453   5.989   5.207  0.1788  0.9156 -0.0918
  407MOL0     C54853   0.355   5.949   5.090 -0.9994 -0.3078  0.0229
  407MOL0     C54854   0.226   5.910   5.148  0.2117  0.2294  0.0727
  407MOL0    Cl54855   0.228   5.777   5.255  0.0447  0.5484 -0.1443
  407MOL0     C54856   0.188   6.697   5.679  0.8164  0.0066 -0.1463
  407MOL0     C54857   0.164   6.807   5.764 -0.0347 -0.0025  0.5217
  407MOL0     O54858   0.059   7.087   5.800  0.1811 -0.3041 -0.4752
  407MOL0     C54859   0.304   7.279   5.948 -0.7380  0.3166 -0.4186
  407MOL0     C54860   0.337   7.406   6.003 -0.6792  0.2670 -0.4263
  407MOL0     N54861   0.335   7.975   6.580 -0.4403 -0.1444  0.2561
  407MOL0     N54862   0.254   8.006   6.670  0.3355 -0.9222  0.5193
  407MOL0     C54863   0.677   7.304   6.434  0.0611  0.9704 -0.2457
  407MOL0     C54864   0.687   7.228   6.310 -0.3222  0.6207 -1.3977
  407MOL0     C54865   0.730   6.972   6.032  0.3094 -0.5815  0.5005
  407MOL0     C54866   0.659   6.853   6.028 -0.1791  0.1447 -0.5189
  407MOL0     C54867   0.733   6.732   5.992  0.8367 -0.4777 -0.2910
  407MOL0     C54868   0.871   6.727   5.978 -0.2837 -0.0551  0.8795
  407MOL0     O54869   0.948   6.622   5.943  0.4482 -0.0432  0.2995
  407MOL0     C54870   0.937   6.510   6.033 -0.1978  1.3764 -0.4592
  407MOL0     C54871   1.044   6.407   5.990  0.8694 -0.4459 -0.5049
  407MOL0     C54872   1.182   6.428   6.059  0.0002  1.0961  0.4135
  407MOL0     C54873   1.264   6.304   6.048 -0.3477  0.5814  0.4642
  407MOL0     C54874   1.196   6.172   6.091 -0.2286 -0.4820 -1.1521
  407MOL0     C54875   1.145   6.060   6.108 -0.0488 -0.0733  0.6138
  407MOL0     C54876   0.937   6.850   5.970  0.0306  0.2373 -0.2289
  407MOL0     C54877   0.863   6.973   5.999 -0.7776  0.5010 -0.0660
  407MOL0     H54878   0.837   7.452   6.118  0.1660 -2.0126 -0.6387
  407MOL0     H54879   0.800   7.599   6.323 -0.1240  0.8882 -0.4069
  407MOL0     H54880   0.533   7.412   6.644  0.1602  1.0454 -1.5180
  407MOL0     H54881   0.691   7.389   6.710  3.2943  1.4137 -0.5108
  407MOL0     H54882   0.717   7.633   6.749  0.4387  1.4226  2.8560
  407MOL0     H54883   0.551   7.663   6.725 -1.9352  0.7240  4.4950
  407MOL0     H54884   0.609   7.437   6.932  0.9134  0.5799  3.6263
  407MOL0     H54885   0.669   7.601   6.957 -0.5588  1.0194  0.9008
  407MOL0     H54886   0.384   7.515   6.908  1.2791 -1.2314  0.9760
  407MOL0     H54887   0.434   7.545   7.072  1.5254 -1.6359  0.6997
  407MOL0     H54888   0.439   7.776   7.057 -2.6463  2.2560 -0.6822
  407MOL0     H54889   0.421   7.766   6.876  0.9967 -0.3110  0.1844
  407MOL0     H54890   0.194   7.640   6.921 -1.5336  0.7805 -0.4726
  407MOL0     H54891   0.212   7.699   7.093 -0.2181 -1.5204  1.5287
  407MOL0     H54892   0.097   7.874   7.054 -0.5714 -0.4597  0.0025
  407MOL0     H54893   0.259   7.929   6.994  3.8345 -3.7375  0.7918
  407MOL0     H54894   0.042   7.954   6.835 -1.3874 -1.1222 -0.3625
  407MOL0     H54895   0.059   7.785   6.801 -1.9002 -0.0780 -0.7348
  407MOL0     H54896   0.269   7.681   6.683  1.6488  0.3702  1.0410
  407MOL0     H54897   0.528   7.794   6.450 -0.2700  1.3110  2.9525
  407MOL0     H54898   0.425   7.658   6.476  3.5232 -0.3497 -0.8494
  407MOL0     H54899   0.333   7.884   6.284  2.4902  0.8815  0.2111
  407MOL0     H54900   0.248   7.743   6.354  1.3267 -1.6218 -0.2889
  407MOL0     H54901   0.443   7.597   6.243  1.7521  0.3047 -1.1140
  407MOL0     H54902   0.520   7.747   6.193 -1.7578  1.7882  1.7062
  407MOL0     H54903   0.402   7.665   5.993 -0.9045  2.1622  0.0271
  407MOL0     H54904   0.307   7.794   6.054 -0.7069 -0.1693  1.9350
  407MOL0     H54905   0.009   7.490   6.057 -1.7759 -1.1215 -4.7696
  407MOL0     H54906  -0.116   7.330   5.899 -0.6303 -2.0914 -0.9910
  407MOL0     H54907  -0.088   7.169   5.942 -1.6109 -0.5704 -2.0275
  407MOL0     H54908  -0.115   7.285   6.079  1.7019 -0.0361 -0.0855
  407MOL0     H54909   0.482   6.910   5.784 -1.2770  1.7758 -0.5659
  407MOL0     H54910   0.516   6.725   5.649  0.6389 -1.2795  0.5047
  407MOL0     H54911   0.179   6.428   5.602 -0.4285  1.7914  0.7671
  407MOL0     H54912   0.156   6.538   5.465 -0.4504  0.5831  1.4414
  407MOL0     H54913   0.196   6.283   5.408  0.7855 -1.5079  0.3040
  407MOL0     H54914   0.298   6.393   5.320  0.3885 -0.3876 -0.2294
  407MOL0     H54915   0.387   6.268   5.574  0.0389  2.4396  0.9194
  407MOL0     H54916   0.481   6.348   5.446 -1.0117  1.2487  2.0124
  407MOL0     H54917   0.496   6.097   5.450  0.8649  1.2513  0.4818
  407MOL0     H54918   0.313   6.097   5.435 -0.2997  1.8125  0.8541
  407MOL0     H54919   0.511   6.191   5.206  1.0076 -2.0703 -0.6244
  407MOL0     H54920   0.342   6.176   5.201 -0.4953 -0.0606  0.3692
  407MOL0     H54921   0.551   5.982   5.159  1.0215  2.5134  1.2844
  407MOL0     H54922   0.447   5.926   5.297  1.4524 -2.4448 -2.1749
  407MOL0     H54923   0.385   5.858   5.037 -1.1850 -0.0331 -0.5659
  407MOL0     H54924   0.357   6.033   5.019  1.8225  1.2794  1.7980
  407MOL0     H54925   0.162   5.885   5.063  1.4716 -1.4035 -0.4448
  407MOL0     H54926   0.185   6.003   5.191 -1.9183  1.3417 -3.8916
  407MOL0     H54927   0.102   6.643   5.641 -0.2408  1.3485  0.2560
  407MOL0     H54928   0.064   6.822   5.802 -0.4674  0.4519 -0.7566
  407MOL0     H54929   0.381   7.213   5.910  0.0423  1.5345 -1.0054
  407MOL0     H54930   0.437   7.449   6.005 -1.2485  1.6962  2.6991
  407MOL0     H54931   0.626   7.249   6.513  0.2379 -3.5478 -2.9390
  407MOL0     H54932   0.644   7.128   6.317 -3.1373  1.8518  0.5880
  407MOL0     H54933   0.559   6.857   6.069  0.2589  1.3991  0.4866
  407MOL0     H54934   0.682   6.636   5.985  0.9033 -0.4816 -0.7176
  407MOL0     H54935   0.954   6.550   6.134 -2.4674 -0.1065  0.5972
  407MOL0     H54936   0.835   6.471   6.028 -0.4730  1.3411  2.9475
  407MOL0     H54937   1.047   6.400   5.881 -2.1162 -1.5855 -0.5907
  407MOL0     H54938   0.997   6.320   6.037 -0.9651  2.0783  2.6901
  407MOL0     H54939   1.171   6.447   6.166 -2.3506  0.3249  0.3600
  407MOL0     H54940   1.231   6.516   6.015  0.5438  0.9802  0.7888
  407MOL0     H54941   1.358   6.325   6.102  0.7473 -0.4518 -0.9553
  407MOL0     H54942   1.295   6.262   5.952  0.8941 -1.5592  1.7194
  407MOL0     H54943   1.084   5.976   6.130 -0.5581  0.0376 -0.3373
  407MOL0     H54944   1.037   6.864   5.929 -0.2573 -0.1382 -1.0949
  407MOL0     H54945   0.920   7.065   5.986  1.4167 -0.9445 -1.3184
  408MOL0     O54946   5.140   6.252   4.252 -0.2965 -0.0861 -0.0136
  408MOL0     C54947   5.218   6.331   4.307  0.5181  0.0522  0.4918
  408MOL0     O54948   5.282   6.306   4.429  0.1942  0.2128 -1.0718
  408MOL0     C54949   5.195   6.238   4.514  0.3909 -0.2160 -0.5817
  408MOL0     C54950   5.199   6.099   4.534  0.2617 -0.1902 -0.2031
  408MOL0     C54951   5.110   6.043   4.623  0.1690  0.0115 -0.2052
  408MOL0     C54952   5.004   6.120   4.682 -0.1518  0.6397 -0.0125
  408MOL0     O54953   4.905   6.047   4.743  0.0599 -0.1153 -0.6605
  408MOL0     C54954   4.932   5.998   4.875 -0.1164 -0.1733  0.8069
  408MOL0     C54955   4.861   5.870   4.914  0.0778 -0.3862  0.2908
  408MOL0     C54956   4.717   5.884   4.952 -0.3437 -0.8246  0.1504
  408MOL0     C54957   4.651   5.760   4.983 -0.4284  0.0934 -0.0071
  408MOL0     C54958   4.507   5.778   5.006 -0.2938  0.8799  0.5850
  408MOL0     C54959   4.444   5.660   5.064 -0.6769  0.3568 -0.4619
  408MOL0     C54960   4.293   5.654   5.049 -0.0086 -0.2151  0.2423
  408MOL0     C54961   4.264   5.590   4.915  0.2536  0.0584 -0.6456
  408MOL0     N54962   4.129   5.523   4.937 -0.3968  0.1853 -0.0346
  408MOL0     C54963   4.106   5.399   4.996  0.1994  0.9603 -0.1406
  408MOL0     C54964   3.976   5.393   5.017  0.5816  0.5061  0.2433
  408MOL0     C54965   3.899   5.274   5.074 -0.2101 -0.1555 -0.8259
  408MOL0     C54966   3.882   5.150   4.977 -0.1614 -0.9033 -0.5971
  408MOL0     C54967   3.769   5.156   4.882 -0.1939 -0.3194  0.2973
  408MOL0     C54968   3.779   5.050   4.765 -0.5449 -0.6705 -0.2789
  408MOL0     O54969   3.742   4.925   4.833  0.0415  0.2532  0.1375
  408MOL0     C54970   3.656   4.835   4.771  0.4321  0.6957  0.9082
  408MOL0     C54971   3.621   4.849   4.632  0.9364 -0.1309 -0.0909
  408MOL0     C54972   3.537   4.751   4.574  0.0152  0.7557 -0.7924
  408MOL0     C54973   3.529   4.763   4.424  0.3784 -1.1133  0.2966
  408MOL0     C54974   3.470   4.650   4.649 -0.9488  0.1820  0.2778
  408MOL0     C54975   3.350   4.574   4.602  0.3204 -0.2840  0.3391
  408MOL0     O54976   3.304   4.477   4.684 -0.5664  0.2284 -0.3675
  408MOL0     C54977   3.185   4.419   4.664  1.5437 -1.0849 -0.0815
  408MOL0     C54978   3.148   4.341   4.553 -0.8769 -0.0431  0.0825
  408MOL0     C54979   3.025   4.278   4.542 -0.0775  0.0948 -0.0489
  408MOL0     C54980   2.932   4.297   4.633  0.1944 -0.5031 -1.3471
  408MOL0     O54981   2.810   4.235   4.631  0.2203  0.6506 -0.5817
  408MOL0     C54982   2.791   4.130   4.725  0.6377  0.0668 -0.0255
  408MOL0     C54983   2.644   4.075   4.713  0.5321 -0.7855  0.1667
  408MOL0     C54984   2.541   4.175   4.780 -0.2647 -0.6426  0.6228
  408MOL0     C54985   2.393   4.124   4.784  0.8036  0.3241 -0.2142
  408MOL0     C54986   2.294   4.233   4.789 -0.2456 -0.1552 -0.6886
  408MOL0     C54987   2.151   4.181   4.764  0.1199 -0.0312 -0.3164
  408MOL0     C54988   2.039   4.286   4.754 -0.5682  0.1784 -0.0054
  408MOL0     C54989   1.914   4.201   4.749  0.8300  0.0503 -0.6218
  408MOL0    Cl54990   1.806   4.322   4.675 -0.4436  0.8352  0.4579
  408MOL0     C54991   2.971   4.375   4.747 -0.5739  0.2746 -0.0158
  408MOL0     C54992   3.096   4.429   4.770 -0.3248 -0.3240 -0.0390
  408MOL0     O54993   3.308   4.604   4.492 -0.1421 -0.2516 -0.6826
  408MOL0     C54994   3.511   4.633   4.783 -0.0305  0.3781 -0.5087
  408MOL0     C54995   3.613   4.718   4.837  0.8755 -0.7244  0.1800
  408MOL0     N54996   3.919   5.513   4.962 -0.1580  0.2500 -0.8152
  408MOL0     N54997   4.011   5.590   4.919  0.2339 -0.4338  0.3436
  408MOL0     C54998   4.991   6.250   4.648 -0.5410 -0.3130  0.1380
  408MOL0     C54999   5.096   6.316   4.575 -0.0592  1.0271 -0.2235
  408MOL0     C55000   5.268   6.437   4.227 -0.8703  0.5674  0.6831
  408MOL0     C55001   5.195   6.488   4.120 -0.1186  0.4018 -1.2805
  408MOL0     C55002   5.240   6.605   4.059  0.4885 -0.4402  0.0226
  408MOL0     C55003   5.364   6.665   4.095  0.0902 -0.1468 -0.1159
  408MOL0     O55004   5.434   6.757   4.027  0.7539 -0.0211 -0.7750
  408MOL0     C55005   5.389   6.805   3.903  0.0303  0.1956 -0.0810
  408MOL0     C55006   5.311   6.930   3.897 -0.8374 -1.1781  0.4980
  408MOL0     C55007   5.278   6.983   3.751 -0.4725 -0.2667 -0.1335
  408MOL0     C55008   5.127   7.001   3.723 -0.0243  0.2424  1.1987
  408MOL0     C55009   5.077   6.859   3.689  1.3083 -0.4810 -0.0304
  408MOL0     C55010   5.051   6.745   3.664  1.3496  0.0450  0.1618
  408MOL0     C55011   5.430   6.611   4.206 -0.3473 -0.7798  0.6032
  408MOL0     C55012   5.389   6.501   4.267 -0.0143 -0.5057 -0.5476
  408MOL0     H55013   5.274   6.030   4.499 -3.1839 -4.2965 -0.3178
  408MOL0     H55014   5.106   5.936   4.642 -0.6667  0.5327  3.2094
  408MOL0     H55015   5.038   5.975   4.886 -0.1882 -0.6957  0.4577
  408MOL0     H55016   4.908   6.083   4.939 -2.8997  0.1155 -0.4716
  408MOL0     H55017   4.874   5.791   4.840  0.5843  0.1502 -0.2138
  408MOL0     H55018   4.897   5.828   5.008 -3.5413 -1.5201  1.3035
  408MOL0     H55019   4.701   5.949   5.039  2.0031  0.5112 -0.3175
  408MOL0     H55020   4.669   5.942   4.873  0.5071  0.9499  0.8753
  408MOL0     H55021   4.666   5.697   4.894  2.4231 -0.1453  0.5368
  408MOL0     H55022   4.688   5.712   5.074 -2.7467 -2.2445 -0.2004
  408MOL0     H55023   4.493   5.867   5.068  0.2150  0.8694  0.7195
  408MOL0     H55024   4.450   5.796   4.915  2.5387 -2.2973 -2.1168
  408MOL0     H55025   4.481   5.564   5.028  0.7608  1.4479 -2.0527
  408MOL0     H55026   4.458   5.660   5.173 -1.4063 -0.4310 -0.3509
  408MOL0     H55027   4.249   5.598   5.132 -1.9881 -1.4776 -1.5616
  408MOL0     H55028   4.257   5.757   5.060 -0.2984 -0.1484 -1.1108
  408MOL0     H55029   4.344   5.523   4.880  1.1542  0.3709  0.7296
  408MOL0     H55030   4.238   5.660   4.834  1.3798  0.4679 -0.6798
  408MOL0     H55031   4.177   5.321   5.025  0.4718  0.6883 -1.4762
  408MOL0     H55032   3.966   5.226   5.146  0.7254 -0.2292 -1.7252
  408MOL0     H55033   3.799   5.299   5.111 -0.0937  0.9648 -1.2263
  408MOL0     H55034   3.876   5.059   5.037  1.6974 -1.1244 -0.6976
  408MOL0     H55035   3.977   5.147   4.923  0.5385  1.4561  0.3802
  408MOL0     H55036   3.743   5.252   4.835  0.2711 -0.2582  0.1555
  408MOL0     H55037   3.679   5.122   4.933 -1.8010  2.3893 -0.5425
  408MOL0     H55038   3.882   5.049   4.729 -0.0436  0.0257  1.0428
  408MOL0     H55039   3.712   5.073   4.682 -2.2836 -2.2544  0.5987
  408MOL0     H55040   3.662   4.925   4.566 -0.1138  0.4390 -0.1226
  408MOL0     H55041   3.504   4.671   4.370 -1.8339  1.5685 -3.8611
  408MOL0     H55042   3.447   4.832   4.402  0.1478 -1.7569 -0.9719
  408MOL0     H55043   3.620   4.807   4.383  0.0591 -0.4550  0.2748
  408MOL0     H55044   3.225   4.326   4.478  0.2079  1.0951  0.9292
  408MOL0     H55045   3.005   4.211   4.458  0.9292 -1.3363  0.8070
  408MOL0     H55046   2.863   4.048   4.722  0.7084  0.1361 -0.2574
  408MOL0     H55047   2.791   4.171   4.826  0.5150  0.0786 -0.0306
  408MOL0     H55048   2.610   4.049   4.612 -2.0584  0.1522  0.7296
  408MOL0     H55049   2.643   3.984   4.774  0.7366 -1.0505 -0.2136
  408MOL0     H55050   2.539   4.271   4.729 -1.3736  0.1480  2.0816
  408MOL0     H55051   2.571   4.196   4.884  1.9790  0.4094 -0.1726
  408MOL0     H55052   2.384   4.068   4.691  0.4905  0.9796 -0.5836
  408MOL0     H55053   2.377   4.053   4.865 -1.6714  0.1645 -0.7551
  408MOL0     H55054   2.317   4.304   4.709  1.2304 -1.3993 -1.4374
  408MOL0     H55055   2.302   4.280   4.887  0.8345 -1.3964 -0.1588
  408MOL0     H55056   2.156   4.128   4.669  3.9649  2.4900 -1.7742
  408MOL0     H55057   2.131   4.112   4.846  1.7535  1.3125  1.3063
  408MOL0     H55058   2.073   4.331   4.661  0.1025  1.3376  0.7718
  408MOL0     H55059   2.047   4.360   4.835 -0.5508  0.7543 -0.5298
  408MOL0     H55060   1.890   4.173   4.852  1.5124 -1.1269 -0.7673
  408MOL0     H55061   1.927   4.115   4.683 -0.8194 -1.0842  0.4561
  408MOL0     H55062   2.904   4.380   4.832 -2.2691  1.5629 -1.3685
  408MOL0     H55063   3.114   4.486   4.860 -1.3204  0.3268 -0.2335
  408MOL0     H55064   3.461   4.553   4.838 -1.3736  0.6711 -1.2595
  408MOL0     H55065   3.658   4.699   4.934  0.6973 -0.6605  0.2745
  408MOL0     H55066   4.907   6.312   4.678 -0.8431  0.4017 -1.9807
  408MOL0     H55067   5.101   6.424   4.575  2.1096  0.9817 -0.0435
  408MOL0     H55068   5.097   6.443   4.104 -0.5160 -0.0493  1.7889
  408MOL0     H55069   5.174   6.642   3.982  0.5485  2.1936  1.1427
  408MOL0     H55070   5.481   6.814   3.844 -0.1929 -1.0047 -0.6453
  408MOL0     H55071   5.329   6.728   3.853  0.2755  0.2696 -0.4954
  408MOL0     H55072   5.372   7.010   3.941  0.4735  0.1985 -3.4134
  408MOL0     H55073   5.222   6.933   3.961 -0.5555 -0.1800  0.8682
  408MOL0     H55074   5.315   6.910   3.678  1.7742  2.1128 -1.5240
  408MOL0     H55075   5.330   7.074   3.721  0.8923 -1.6729 -2.3631
  408MOL0     H55076   5.113   7.066   3.636 -0.9259 -2.1980 -0.5880
  408MOL0     H55077   5.072   7.047   3.806  2.3641  0.5229  2.7291
  408MOL0     H55078   5.016   6.645   3.649 -1.0340  0.9128 -0.3115
  408MOL0     H55079   5.528   6.654   4.228  2.1498 -4.5780 -1.8415
  408MOL0     H55080   5.456   6.461   4.343 -1.1559  1.9908  1.9789
  409MOL0     O55081   9.635  10.304   3.039 -0.7392  0.1491 -0.6643
  409MOL0     C55082   9.713  10.373   2.978  0.2036 -0.9844 -0.6868
  409MOL0     O55083   9.693  10.418   2.850  0.5232 -0.5895 -0.4124
  409MOL0     C55084   9.590  10.356   2.785  0.0189  0.5891 -0.3757
  409MOL0     C55085   9.459  10.390   2.815 -0.6026  0.2603  0.1758
  409MOL0     C55086   9.354  10.317   2.743 -0.6526 -0.3142  0.0936
  409MOL0     C55087   9.387  10.223   2.647  0.1801 -0.1236  0.2880
  409MOL0     O55088   9.277  10.173   2.585  0.5374  0.2350  0.2232
  409MOL0     C55089   9.282  10.049   2.513  0.2787 -0.1760  0.0818
  409MOL0     C55090   9.259   9.913   2.591  0.7088 -0.5716 -0.3555
  409MOL0     C55091   9.303   9.898   2.738 -0.4513  0.6511 -0.5832
  409MOL0     C55092   9.210   9.789   2.814  0.2600 -0.3693 -0.0957
  409MOL0     C55093   9.255   9.757   2.966  0.1462 -0.5866  0.5092
  409MOL0     C55094   9.186   9.628   3.017  0.7253  0.2768  0.0690
  409MOL0     C55095   9.213   9.596   3.158  0.3956 -0.5419  0.7113
  409MOL0     C55096   9.360   9.595   3.184 -0.8165  0.3389  0.6826
  409MOL0     N55097   9.456   9.511   3.100 -0.7297 -0.7467  0.4518
  409MOL0     C55098   9.453   9.370   3.081 -0.5582  0.0243 -0.6721
  409MOL0     C55099   9.575   9.340   3.031 -0.7308 -0.3361  0.5164
  409MOL0     C55100   9.608   9.213   2.957 -0.5200  0.8418  0.0378
  409MOL0     C55101   9.712   9.134   3.029 -0.1114 -0.2446  0.7645
  409MOL0     C55102   9.735   8.998   2.965 -0.9015  1.0389  0.2828
  409MOL0     C55103   9.856   8.923   3.022 -0.2767 -0.4965  0.6612
  409MOL0     O55104   9.858   8.781   2.990  0.5901  0.4320 -0.2561
  409MOL0     C55105   9.882   8.731   2.868  0.1278  0.8170 -0.9148
  409MOL0     C55106   9.897   8.595   2.863 -0.1354  1.1510  0.7033
  409MOL0     C55107   9.934   8.530   2.747 -0.3659 -0.1207 -0.0114
  409MOL0     C55108   9.938   8.384   2.768 -0.8706  0.8509 -0.0509
  409MOL0     C55109   9.971   8.598   2.633 -0.7189  0.4458 -0.5863
  409MOL0     C55110  10.022   8.538   2.501  0.9075  0.1788  0.6567
  409MOL0     O55111  10.052   8.620   2.398 -1.0736 -0.0323  0.8596
  409MOL0     C55112  10.066   8.576   2.273  0.2214  0.7631 -0.3033
  409MOL0     C55113   9.957   8.552   2.182  0.8421 -0.5139  0.1287
  409MOL0     C55114   9.991   8.512   2.052 -0.3213 -0.2763 -0.3730
  409MOL0     C55115  10.125   8.488   2.010 -0.0895 -0.8611 -1.1920
  409MOL0     O55116  10.163   8.433   1.893  0.3052 -0.3959  0.8008
  409MOL0     C55117  10.087   8.451   1.775  0.4365  0.2820  0.3746
  409MOL0     C55118  10.126   8.335   1.687  0.2809  0.1337 -0.8625
  409MOL0     C55119  10.041   8.208   1.699 -0.7537 -0.3558 -0.5550
  409MOL0     C55120   9.893   8.231   1.649  0.2022 -0.1278  0.3886
  409MOL0     C55121   9.883   8.246   1.491 -0.4851 -0.1546 -0.5147
  409MOL0     C55122   9.892   8.116   1.422  0.0006  0.2721 -0.1694
  409MOL0     C55123   9.754   8.039   1.434 -0.5118 -0.2999  0.7579
  409MOL0     C55124   9.751   7.922   1.336 -0.3951 -0.5002  0.1360
  409MOL0    Cl55125   9.847   7.785   1.389  0.0221 -0.0382  0.4097
  409MOL0     C55126  10.231   8.529   2.094  0.5048  0.5448 -0.0529
  409MOL0     C55127  10.197   8.570   2.222 -0.4154 -0.6501 -0.3296
  409MOL0     O55128  10.009   8.418   2.491 -0.0709  0.0878  0.3394
  409MOL0     C55129   9.959   8.736   2.645 -0.2404  0.6788 -1.3092
  409MOL0     C55130   9.917   8.803   2.757  0.9375  0.1937 -0.2821
  409MOL0     N55131   9.648   9.466   3.026  0.4187  0.5466  0.1589
  409MOL0     N55132   9.575   9.559   3.078 -0.0322 -0.2370  0.1010
  409MOL0     C55133   9.523  10.198   2.612  0.9721  0.3323 -0.5720
  409MOL0     C55134   9.620  10.271   2.678 -0.2217 -0.1644  0.4212
  409MOL0     C55135   9.837  10.407   3.046 -0.1050  0.2248  0.9045
  409MOL0     C55136   9.945  10.467   2.979 -0.3097  0.8637  0.5552
  409MOL0     C55137  10.062  10.515   3.034  0.8261  0.7166 -0.4831
  409MOL0     C55138  10.082  10.498   3.172 -0.4812 -1.0977 -0.4257
  409MOL0     O55139  10.204  10.536   3.220 -0.5076 -0.6539  0.6915
  409MOL0     C55140  10.204  10.572   3.359  0.3024  0.1565 -0.5724
  409MOL0     C55141  10.344  10.620   3.398  0.6075  0.1003  1.0979
  409MOL0     C55142  10.387  10.742   3.317 -0.4502 -0.2330  0.8875
  409MOL0     C55143  10.501  10.830   3.383  0.5744  0.8381  0.7297
  409MOL0     C55144  10.526  10.943   3.290 -0.6391  0.6959 -0.1855
  409MOL0     C55145  10.526  11.036   3.218  0.5929  0.4439  0.6064
  409MOL0     C55146   9.990  10.426   3.249  0.6183 -0.1805 -0.0418
  409MOL0     C55147   9.872  10.389   3.182  0.4342 -0.2256 -0.0603
  409MOL0     H55148   9.435  10.472   2.882 -3.4501  0.4908 -0.9811
  409MOL0     H55149   9.251  10.333   2.772 -0.3100 -2.2070  2.7458
  409MOL0     H55150   9.195  10.062   2.449  1.0163 -0.1731 -0.9414
  409MOL0     H55151   9.370  10.043   2.448 -0.1722 -0.1911 -0.5401
  409MOL0     H55152   9.150   9.903   2.599  0.7253 -0.4626  0.0491
  409MOL0     H55153   9.291   9.828   2.530 -0.6021 -1.6372  0.3888
  409MOL0     H55154   9.409   9.869   2.736  0.2036  2.1216  3.0486
  409MOL0     H55155   9.287   9.993   2.789  1.2461 -0.3872  2.1319
  409MOL0     H55156   9.109   9.832   2.818  0.1026 -0.7931  0.4706
  409MOL0     H55157   9.207   9.694   2.760  1.7457 -0.0266 -0.8271
  409MOL0     H55158   9.364   9.744   2.970  0.6849  3.0694  0.5994
  409MOL0     H55159   9.244   9.839   3.037 -2.3197 -2.0511  1.9662
  409MOL0     H55160   9.078   9.633   3.002  0.6251 -0.3793  0.5166
  409MOL0     H55161   9.225   9.543   2.960  0.0350 -1.8188  2.5163
  409MOL0     H55162   9.161   9.679   3.207 -0.4547 -0.0909 -0.8911
  409MOL0     H55163   9.166   9.498   3.168 -0.8730 -0.3694 -2.4078
  409MOL0     H55164   9.383   9.560   3.286  0.8713 -0.1335  0.1785
  409MOL0     H55165   9.393   9.699   3.188 -0.3026  0.2854 -1.2306
  409MOL0     H55166   9.368   9.303   3.094  0.7309 -1.1837  2.4546
  409MOL0     H55167   9.522   9.150   2.931  2.7016 -3.4576 -1.2854
  409MOL0     H55168   9.658   9.250   2.868  1.5993 -0.3889  0.6665
  409MOL0     H55169   9.686   9.132   3.136 -1.1831  1.3472  0.5687
  409MOL0     H55170   9.804   9.192   3.014 -2.2183  2.9642 -0.8963
  409MOL0     H55171   9.746   9.001   2.856 -1.8163 -0.8170  0.0983
  409MOL0     H55172   9.648   8.936   2.990  0.9626 -3.1888 -2.5424
  409MOL0     H55173   9.863   8.939   3.130 -1.5006  0.1256  0.6691
  409MOL0     H55174   9.951   8.965   2.987 -1.8858  2.5236 -0.4784
  409MOL0     H55175   9.894   8.543   2.958  1.6605  1.4710  0.9722
  409MOL0     H55176   9.934   8.362   2.875  0.3538 -0.8636 -0.3129
  409MOL0     H55177   9.851   8.336   2.722 -2.0858  1.9703  1.0096
  409MOL0     H55178  10.035   8.337   2.749  0.7351  2.9485  2.2776
  409MOL0     H55179   9.853   8.556   2.213  1.0751  1.2296  0.7665
  409MOL0     H55180   9.900   8.502   1.994 -1.3767  2.1620  0.7153
  409MOL0     H55181   9.982   8.447   1.805 -0.0266  2.4444 -0.7001
  409MOL0     H55182  10.108   8.547   1.727  4.2683 -1.4271 -1.8756
  409MOL0     H55183  10.136   8.368   1.583  3.5389 -1.7136 -1.2883
  409MOL0     H55184  10.232   8.315   1.706 -0.0376 -1.4162 -0.5696
  409MOL0     H55185  10.049   8.172   1.802 -0.1628  0.4962 -0.2968
  409MOL0     H55186  10.089   8.134   1.634 -1.0510 -0.5975 -0.5043
  409MOL0     H55187   9.830   8.147   1.680 -2.4942  0.6723 -2.4178
  409MOL0     H55188   9.857   8.319   1.704  1.7341  1.0623 -0.4450
  409MOL0     H55189   9.964   8.308   1.450  2.0526 -1.8634  1.5958
  409MOL0     H55190   9.785   8.290   1.471 -0.3980 -0.1431 -0.9281
  409MOL0     H55191   9.895   8.135   1.315  1.0703  1.6028  0.0763
  409MOL0     H55192   9.976   8.052   1.452  2.2687  2.2596 -1.9274
  409MOL0     H55193   9.680   8.107   1.392  0.8793  1.5755  1.1966
  409MOL0     H55194   9.721   8.011   1.535  0.0489 -0.3847  0.9236
  409MOL0     H55195   9.791   7.959   1.241  3.8557  0.6577  2.1182
  409MOL0     H55196   9.652   7.881   1.315 -1.2275  1.3151  0.3972
  409MOL0     H55197  10.337   8.522   2.073  0.7078 -0.0071  1.0750
  409MOL0     H55198  10.280   8.590   2.289  0.6054  3.6434 -2.5389
  409MOL0     H55199  10.002   8.801   2.570  0.7593  0.9765 -0.5085
  409MOL0     H55200   9.914   8.911   2.750  0.4067  0.3492  1.7141
  409MOL0     H55201   9.561  10.127   2.539  1.9333 -1.3078  1.4279
  409MOL0     H55202   9.725  10.270   2.650 -0.6874 -0.0823 -1.4841
  409MOL0     H55203   9.934  10.499   2.876 -1.8047  6.2343  2.0252
  409MOL0     H55204  10.135  10.573   2.979  1.4214  1.3909  0.9798
  409MOL0     H55205  10.139  10.657   3.384  1.0798  1.1696 -1.8314
  409MOL0     H55206  10.184  10.485   3.421  3.5774  0.0908  0.6114
  409MOL0     H55207  10.409  10.541   3.359 -1.0941 -0.4120 -0.8611
  409MOL0     H55208  10.360  10.632   3.506 -2.0716  0.0174  1.5571
  409MOL0     H55209  10.302  10.799   3.279 -1.7050 -0.3771  3.2871
  409MOL0     H55210  10.437  10.701   3.229  0.1555  0.1662  1.0400
  409MOL0     H55211  10.594  10.775   3.399  1.1616  0.1049 -3.9297
  409MOL0     H55212  10.458  10.886   3.467  0.9831  0.1661  1.3996
  409MOL0     H55213  10.540  11.131   3.171  1.5408 -0.3599 -0.8456
  409MOL0     H55214   9.993  10.408   3.356 -2.1863  0.9847  0.3051
  409MOL0     H55215   9.803  10.340   3.250  1.3263  0.9261  1.7525
  410MOL0     O55216   5.541   8.227   2.253  0.7959 -0.5011 -0.1483
  410MOL0     C55217   5.549   8.150   2.160 -0.1283 -0.4268  0.9437
  410MOL0     O55218   5.460   8.051   2.123  0.2148  0.3957 -0.8010
  410MOL0     C55219   5.333   8.057   2.162  0.8123  0.1019  0.7442
  410MOL0     C55220   5.282   8.184   2.180  0.3537  0.7371 -0.8446
  410MOL0     C55221   5.153   8.192   2.228  0.7220  0.2015  1.1326
  410MOL0     C55222   5.069   8.081   2.247  1.2936  0.2822  0.9848
  410MOL0     O55223   4.942   8.102   2.293  0.0151  0.6237  0.4901
  410MOL0     C55224   4.850   7.990   2.296  0.6299  0.2741 -0.4447
  410MOL0     C55225   4.696   8.033   2.285 -0.6060  0.7584  1.0176
  410MOL0     C55226   4.680   8.105   2.153  0.3033  0.1357 -0.1161
  410MOL0     C55227   4.537   8.172   2.157 -0.2320  0.0491  0.3484
  410MOL0     C55228   4.421   8.078   2.127 -0.6194  0.3830  0.1812
  410MOL0     C55229   4.277   8.112   2.183  0.0401 -0.0956  0.7427
  410MOL0     C55230   4.218   8.232   2.109 -1.0794  0.6425 -0.5550
  410MOL0     C55231   4.101   8.298   2.179 -0.1646  0.3412  0.4438
  410MOL0     N55232   3.994   8.204   2.177  0.4308  0.0348  1.1010
  410MOL0     C55233   3.900   8.217   2.075 -0.1038  0.5589 -0.5949
  410MOL0     C55234   3.790   8.166   2.135 -0.2109  0.4901  0.8755
  410MOL0     C55235   3.664   8.159   2.057  0.3749  0.7967 -1.5003
  410MOL0     C55236   3.667   8.035   1.973  0.4417  1.0101 -0.0410
  410MOL0     C55237   3.540   8.020   1.886 -0.4776  0.3825 -0.6342
  410MOL0     C55238   3.521   8.136   1.791 -0.0644 -0.1387 -0.5857
  410MOL0     O55239   3.426   8.119   1.680 -0.4514 -0.5475  0.3334
  410MOL0     C55240   3.444   8.012   1.592 -0.6527 -0.0575  0.3034
  410MOL0     C55241   3.488   8.038   1.467 -0.0989 -0.3679 -0.0485
  410MOL0     C55242   3.514   7.934   1.371 -0.4504 -0.4602 -1.2750
  410MOL0     C55243   3.564   7.978   1.236  0.1588  0.5259  1.1888
  410MOL0     C55244   3.477   7.804   1.403 -0.5916  0.3711  0.0240
  410MOL0     C55245   3.494   7.685   1.310 -0.5549  0.8907  0.2562
  410MOL0     O55246   3.576   7.689   1.208 -0.1182 -0.3071 -0.2693
  410MOL0     C55247   3.589   7.565   1.131  0.6479 -0.3056  0.0900
  410MOL0     C55248   3.570   7.571   0.993 -0.0793 -0.9390 -0.8535
  410MOL0     C55249   3.608   7.467   0.915  0.2026 -0.7453  0.5269
  410MOL0     C55250   3.662   7.348   0.961 -1.0056  1.1900 -0.9270
  410MOL0     O55251   3.710   7.249   0.872  0.5300 -0.4402 -0.4226
  410MOL0     C55252   3.823   7.173   0.917  0.0207  1.1385 -0.2826
  410MOL0     C55253   3.922   7.162   0.807  0.1471  0.0661 -0.1825
  410MOL0     C55254   4.025   7.068   0.855 -0.7689 -0.0971 -0.1488
  410MOL0     C55255   4.160   7.070   0.774  0.6360 -0.6625  0.4018
  410MOL0     C55256   4.267   7.156   0.833 -0.0739 -0.0198  0.2791
  410MOL0     C55257   4.410   7.132   0.786 -0.7632  0.1441  0.7450
  410MOL0     C55258   4.508   7.190   0.890  0.9260 -0.6483  0.3280
  410MOL0     C55259   4.657   7.172   0.844 -0.3164 -0.6021  0.1962
  410MOL0    Cl55260   4.758   7.175   0.995  0.0053  0.0996  0.0133
  410MOL0     C55261   3.675   7.342   1.107 -0.1509  0.1877 -0.1093
  410MOL0     C55262   3.636   7.449   1.188 -0.3100  0.1105  0.2263
  410MOL0     O55263   3.409   7.589   1.327  0.8646 -0.3583 -0.5175
  410MOL0     C55264   3.410   7.788   1.521  0.7713  0.4442  0.6106
  410MOL0     C55265   3.395   7.887   1.615  0.2744 -0.0340  0.6858
  410MOL0     N55266   3.814   8.116   2.264  0.8132  0.2671 -0.2766
  410MOL0     N55267   3.931   8.157   2.287 -0.2100  0.8492  0.5241
  410MOL0     C55268   5.125   7.958   2.220  0.9345  0.2742 -0.1482
  410MOL0     C55269   5.258   7.938   2.195 -0.4665 -0.3886  0.7698
  410MOL0     C55270   5.656   8.180   2.062  0.4136 -0.0915  0.4015
  410MOL0     C55271   5.710   8.073   1.982  0.3589  0.0347  0.6887
  410MOL0     C55272   5.823   8.095   1.899 -0.3562 -0.1411  0.6435
  410MOL0     C55273   5.883   8.217   1.890 -0.2889  0.4016  0.5825
  410MOL0     O55274   5.990   8.222   1.806 -0.6097  0.0710 -0.0656
  410MOL0     C55275   6.057   8.355   1.789  0.3130  0.6718 -0.7775
  410MOL0     C55276   6.135   8.393   1.915 -0.5799 -0.7554 -0.3020
  410MOL0     C55277   6.222   8.280   1.963  0.4642 -0.4057  0.8461
  410MOL0     C55278   6.155   8.182   2.059 -0.1270 -0.2103 -0.5747
  410MOL0     C55279   6.260   8.138   2.150  0.4046 -0.3271  0.7245
  410MOL0     C55280   6.345   8.076   2.213  0.8560 -0.4673 -0.5189
  410MOL0     C55281   5.821   8.328   1.956 -0.3042 -0.2237 -0.2497
  410MOL0     C55282   5.704   8.308   2.043 -0.3644 -0.5377  0.6313
  410MOL0     H55283   5.334   8.278   2.179 -0.7480  1.3607 -1.0913
  410MOL0     H55284   5.121   8.291   2.259 -1.5469  0.5031 -1.7572
  410MOL0     H55285   4.866   7.921   2.213 -0.1925  0.1996 -0.5519
  410MOL0     H55286   4.863   7.939   2.392  1.0485 -2.0334 -1.6576
  410MOL0     H55287   4.632   7.945   2.276 -1.4845  1.4847 -0.1444
  410MOL0     H55288   4.660   8.103   2.361 -0.0194  1.5441  0.5919
  410MOL0     H55289   4.760   8.180   2.145  1.1828 -0.6866  0.7925
  410MOL0     H55290   4.695   8.037   2.069  0.6178 -0.5908  0.5160
  410MOL0     H55291   4.517   8.218   2.254  4.0937  1.8006  0.6497
  410MOL0     H55292   4.539   8.261   2.094  0.4367  1.9992  2.9424
  410MOL0     H55293   4.418   8.062   2.019 -1.2962 -1.3342  0.4124
  410MOL0     H55294   4.451   7.981   2.169 -2.2224 -0.1549  0.1791
  410MOL0     H55295   4.228   8.022   2.147  0.4143  1.2230 -3.6589
  410MOL0     H55296   4.287   8.126   2.291 -0.4719 -0.4401  0.8351
  410MOL0     H55297   4.282   8.318   2.090 -1.4401  1.2085  0.7206
  410MOL0     H55298   4.180   8.189   2.016 -0.2448  0.7219 -0.9377
  410MOL0     H55299   4.073   8.392   2.132 -1.4629 -1.3661 -2.4397
  410MOL0     H55300   4.122   8.325   2.283 -1.8106  4.0430 -0.0476
  410MOL0     H55301   3.909   8.264   1.978  2.1641  4.9424  1.4756
  410MOL0     H55302   3.572   8.140   2.114  1.2727  2.6898  0.7583
  410MOL0     H55303   3.649   8.247   1.995  1.8776  2.2407  0.0537
  410MOL0     H55304   3.689   7.941   2.024 -4.1737  1.0684  2.5969
  410MOL0     H55305   3.751   8.051   1.904  0.0547  2.0416 -0.2969
  410MOL0     H55306   3.461   8.013   1.961  1.1121 -1.9380  0.9565
  410MOL0     H55307   3.555   7.923   1.837  1.6640 -1.2444  2.8979
  410MOL0     H55308   3.615   8.176   1.751  0.9633 -0.2785  1.5588
  410MOL0     H55309   3.492   8.223   1.851  1.2818  1.3228 -1.9448
  410MOL0     H55310   3.519   8.138   1.438 -3.4865  0.3965 -1.5869
  410MOL0     H55311   3.649   7.917   1.204 -0.7076 -1.0661  1.8276
  410MOL0     H55312   3.488   7.987   1.157  1.0392 -2.3869 -0.1210
  410MOL0     H55313   3.599   8.081   1.247  0.5189  0.2620  2.6141
  410MOL0     H55314   3.523   7.655   0.943 -0.0531  0.3564  1.1573
  410MOL0     H55315   3.588   7.491   0.811  0.9796 -0.6107  0.4037
  410MOL0     H55316   3.875   7.221   1.000  0.2166 -1.0072  0.9107
  410MOL0     H55317   3.797   7.070   0.944 -0.4005  1.2300 -0.3252
  410MOL0     H55318   3.876   7.131   0.713 -1.5466  1.2721  0.1901
  410MOL0     H55319   3.972   7.259   0.798 -1.5875  0.9619 -0.4822
  410MOL0     H55320   3.980   6.969   0.849  0.0158 -0.6218  1.8371
  410MOL0     H55321   4.054   7.085   0.959  0.9606  0.4835 -0.6753
  410MOL0     H55322   4.192   6.965   0.777  2.2828 -0.2199 -0.2063
  410MOL0     H55323   4.138   7.098   0.671  2.0899 -1.2107 -0.0902
  410MOL0     H55324   4.261   7.129   0.938  0.3400 -2.2234 -0.2121
  410MOL0     H55325   4.239   7.261   0.819 -1.4237 -0.5064 -0.9408
  410MOL0     H55326   4.433   7.025   0.779 -0.3659  0.3122 -1.4662
  410MOL0     H55327   4.436   7.174   0.688  1.1812 -0.2594  1.0481
  410MOL0     H55328   4.488   7.162   0.993  4.5853  0.9973  1.6498
  410MOL0     H55329   4.499   7.299   0.897 -0.9789 -0.7885  0.6180
  410MOL0     H55330   4.692   7.245   0.770 -1.6758  2.4854  2.4007
  410MOL0     H55331   4.677   7.075   0.796 -2.1688  1.0351 -4.5674
  410MOL0     H55332   3.718   7.253   1.151  0.4795 -0.0448 -1.1496
  410MOL0     H55333   3.651   7.441   1.296  0.1738 -1.4629  0.0719
  410MOL0     H55334   3.366   7.691   1.541 -0.5467  0.2132 -2.7724
  410MOL0     H55335   3.334   7.866   1.702 -0.6994  0.8965  0.2447
  410MOL0     H55336   5.074   7.865   2.238  1.3392  0.2697  1.0971
  410MOL0     H55337   5.304   7.840   2.186  2.9654  0.9646  1.8630
  410MOL0     H55338   5.669   7.973   1.990 -4.0809  1.6714  1.1749
  410MOL0     H55339   5.861   8.006   1.850  1.0027 -0.0025  1.3801
  410MOL0     H55340   6.127   8.366   1.707  2.1147 -0.7910  0.4673
  410MOL0     H55341   5.990   8.437   1.762  0.0447 -0.5328 -4.1980
  410MOL0     H55342   6.060   8.433   1.984 -0.6193 -1.2479 -0.0561
  410MOL0     H55343   6.199   8.480   1.900 -1.4649  0.4282  2.1516
  410MOL0     H55344   6.309   8.320   2.016  2.8331 -1.7494 -1.7479
  410MOL0     H55345   6.279   8.230   1.884  1.4334  3.8101 -1.3869
  410MOL0     H55346   6.105   8.102   2.003 -0.3823 -0.9724  0.6881
  410MOL0     H55347   6.079   8.236   2.116 -2.3245 -1.1103 -2.5016
  410MOL0     H55348   6.403   8.008   2.271 -1.1225 -1.6907  0.1254
  410MOL0     H55349   5.868   8.425   1.942  1.9776 -0.6874  3.1446
  410MOL0     H55350   5.664   8.391   2.100  2.6223  1.0761  0.5811
  411MOL0     O55351   6.884   3.734   9.447  0.2487 -0.7179  0.2918
  411MOL0     C55352   6.921   3.623   9.483 -0.3962  0.1844 -0.1155
  411MOL0     O55353   6.846   3.532   9.553 -1.0052  0.6853 -0.7577
  411MOL0     C55354   6.715   3.560   9.561 -0.5588  0.9442 -0.2160
  411MOL0     C55355   6.660   3.593   9.687  0.4980 -0.9921  0.4333
  411MOL0     C55356   6.524   3.614   9.705 -0.2572  0.1380  1.3426
  411MOL0     C55357   6.433   3.603   9.609  0.0931 -0.3209 -0.4612
  411MOL0     O55358   6.305   3.633   9.653 -0.3759  0.1937  0.8015
  411MOL0     C55359   6.205   3.678   9.562 -0.0481  0.5159 -0.4292
  411MOL0     C55360   6.085   3.735   9.637 -0.1628 -0.1873  0.0807
  411MOL0     C55361   6.012   3.623   9.719  0.4614  0.6250 -0.3913
  411MOL0     C55362   5.866   3.577   9.669 -0.2031  0.8391  0.0001
  411MOL0     C55363   5.843   3.436   9.723 -0.1830  0.5276 -0.2039
  411MOL0     C55364   5.706   3.374   9.698 -0.6190  0.2528 -0.3136
  411MOL0     C55365   5.710   3.258   9.593 -0.0326  0.4434 -0.7134
  411MOL0     C55366   5.613   3.145   9.638 -0.4885  0.8052 -0.1779
  411MOL0     N55367   5.691   3.045   9.708 -0.5710  0.8340  0.4510
  411MOL0     C55368   5.774   2.947   9.662  0.4323  0.6444 -0.3565
  411MOL0     C55369   5.820   2.889   9.774  0.1745  0.8368  0.2926
  411MOL0     C55370   5.936   2.792   9.769 -0.4408  0.3577  0.4022
  411MOL0     C55371   5.934   2.700   9.649  0.1150  0.4732  0.3482
  411MOL0     C55372   5.806   2.612   9.654 -0.3942  0.2211 -1.1810
  411MOL0     C55373   5.812   2.509   9.550 -0.1114 -0.7444  0.4384
  411MOL0     O55374   5.758   2.560   9.421 -0.8911  0.4320 -0.1506
  411MOL0     C55375   5.778   2.483   9.306 -0.0974 -0.1214  0.0692
  411MOL0     C55376   5.744   2.548   9.192  0.3553 -1.0181  0.3082
  411MOL0     C55377   5.765   2.491   9.067  0.0442  0.6086 -0.5611
  411MOL0     C55378   5.726   2.576   8.953  0.0131  0.0760  0.4859
  411MOL0     C55379   5.812   2.351   9.061 -0.0344 -1.2262  0.0734
  411MOL0     C55380   5.843   2.285   8.935 -0.0968  0.0430  0.0040
  411MOL0     O55381   5.784   2.331   8.822  0.1402 -0.2132 -0.9531
  411MOL0     C55382   5.804   2.275   8.701  0.2082  0.1865  0.2920
  411MOL0     C55383   5.839   2.366   8.595  0.2370  0.0017 -0.8523
  411MOL0     C55384   5.866   2.326   8.464 -0.3394  0.7772 -0.0359
  411MOL0     C55385   5.855   2.191   8.431  0.8483  0.7106  0.3352
  411MOL0     O55386   5.871   2.171   8.300 -0.1692 -0.2441  0.5435
  411MOL0     C55387   5.948   2.049   8.248  0.0698  0.4890  0.1986
  411MOL0     C55388   6.097   2.063   8.268 -0.0477  0.0101 -0.0395
  411MOL0     C55389   6.144   2.061   8.412  0.8684  0.3370 -0.0425
  411MOL0     C55390   6.284   1.997   8.414 -0.2169  0.2649 -0.1230
  411MOL0     C55391   6.395   2.077   8.349  1.0791  0.2890 -0.7126
  411MOL0     C55392   6.518   2.000   8.323 -0.0675 -0.0455  0.7945
  411MOL0     C55393   6.596   2.058   8.206 -0.6180  0.1210  0.1137
  411MOL0     C55394   6.730   2.004   8.202  0.1741 -0.2795  0.3581
  411MOL0    Cl55395   6.713   1.836   8.143  0.4019 -0.0730 -0.4949
  411MOL0     C55396   5.840   2.090   8.534 -0.5338  0.6398 -0.2091
  411MOL0     C55397   5.816   2.138   8.668 -0.0724 -0.7382  0.3740
  411MOL0     O55398   5.917   2.194   8.935  0.0483 -0.2948  0.7269
  411MOL0     C55399   5.832   2.279   9.181 -0.1028  0.1954 -0.0833
  411MOL0     C55400   5.809   2.350   9.303 -0.9799 -0.0661 -0.2762
  411MOL0     N55401   5.757   2.943   9.881 -0.0823  0.1849 -0.3916
  411MOL0     N55402   5.688   3.038   9.842  0.0164 -0.1416 -0.2924
  411MOL0     C55403   6.486   3.568   9.481 -1.1906  0.4391  0.2070
  411MOL0     C55404   6.621   3.552   9.460 -0.8294  0.0034 -0.0730
  411MOL0     C55405   7.065   3.590   9.480 -1.3067 -0.0912  0.6296
  411MOL0     C55406   7.116   3.487   9.565 -0.5656 -0.4753  0.4314
  411MOL0     C55407   7.247   3.454   9.566  0.0710  0.1947 -0.0074
  411MOL0     C55408   7.337   3.505   9.477 -0.9883  0.4805  0.3554
  411MOL0     O55409   7.458   3.451   9.476  0.0193 -0.1260 -0.0694
  411MOL0     C55410   7.571   3.515   9.523 -0.9202 -0.8491  0.7297
  411MOL0     C55411   7.660   3.428   9.611  0.3529  0.0561 -0.5075
  411MOL0     C55412   7.622   3.448   9.766 -0.7789 -0.4536 -0.7576
  411MOL0     C55413   7.660   3.317   9.847  0.0968 -0.4993 -0.0409
  411MOL0     C55414   7.807   3.309   9.853  0.7293 -0.0056  0.0665
  411MOL0     C55415   7.925   3.293   9.882  0.1184  0.0253 -0.5523
  411MOL0     C55416   7.297   3.603   9.396  0.3180  0.0767  0.1666
  411MOL0     C55417   7.164   3.656   9.402 -0.0107 -0.6996 -0.0263
  411MOL0     H55418   6.726   3.605   9.773 -0.6227  0.5807  1.1167
  411MOL0     H55419   6.487   3.624   9.807 -0.3176 -1.5945  1.5250
  411MOL0     H55420   6.242   3.754   9.492 -0.8094  3.1277  1.8262
  411MOL0     H55421   6.164   3.598   9.499 -1.0458  0.7794 -0.1210
  411MOL0     H55422   6.114   3.810   9.711 -0.2510 -0.9613  0.9216
  411MOL0     H55423   6.020   3.776   9.559  0.2278 -0.1625 -0.2336
  411MOL0     H55424   6.083   3.541   9.707 -0.0784  0.3382 -1.8592
  411MOL0     H55425   6.012   3.658   9.823  1.7905  1.2408 -0.5844
  411MOL0     H55426   5.804   3.648   9.724  0.8672  3.6364 -2.1577
  411MOL0     H55427   5.857   3.574   9.560 -1.9462 -2.4025  0.0928
  411MOL0     H55428   5.921   3.376   9.677 -0.8577 -0.1746 -0.4427
  411MOL0     H55429   5.862   3.442   9.831 -1.8745  1.7248  0.0547
  411MOL0     H55430   5.683   3.342   9.800  1.7417 -3.8309 -0.8434
  411MOL0     H55431   5.643   3.459   9.671  1.4932  2.0761  0.1596
  411MOL0     H55432   5.698   3.292   9.489  4.7547 -0.5069 -1.7942
  411MOL0     H55433   5.805   3.205   9.580 -1.8721 -3.5681  0.7237
  411MOL0     H55434   5.565   3.106   9.547  1.1451  4.0300 -2.6335
  411MOL0     H55435   5.539   3.173   9.714 -0.4667  0.0214  0.1406
  411MOL0     H55436   5.810   2.926   9.562  1.3441 -4.4144  0.7723
  411MOL0     H55437   6.029   2.849   9.771 -0.5315  0.4981  0.8198
  411MOL0     H55438   5.932   2.734   9.861  1.8213 -1.5362 -0.5926
  411MOL0     H55439   6.027   2.644   9.647 -0.5082 -0.6162  0.9684
  411MOL0     H55440   5.922   2.758   9.557 -0.3078 -0.9769 -0.5404
  411MOL0     H55441   5.713   2.670   9.650  0.3541  1.4612 -1.3087
  411MOL0     H55442   5.805   2.562   9.751 -0.6017  0.3631 -1.1113
  411MOL0     H55443   5.751   2.428   9.592 -0.4800 -1.5559 -1.5414
  411MOL0     H55444   5.914   2.472   9.547 -0.7249 -2.9023  2.7279
  411MOL0     H55445   5.690   2.638   9.215  3.1464  0.0622  3.4380
  411MOL0     H55446   5.652   2.523   8.892  1.1624 -0.8901 -0.1147
  411MOL0     H55447   5.680   2.666   8.994 -0.4408 -1.3872  3.4948
  411MOL0     H55448   5.812   2.597   8.890  0.1128 -1.6030  0.0112
  411MOL0     H55449   5.849   2.470   8.623  2.0123  0.2001 -2.0295
  411MOL0     H55450   5.899   2.391   8.384  1.5549  1.7139  1.4164
  411MOL0     H55451   5.927   1.958   8.305  3.1938 -1.1419 -1.0390
  411MOL0     H55452   5.929   2.035   8.141 -2.0124  0.7255  0.4979
  411MOL0     H55453   6.134   1.985   8.202 -0.9185  0.0960 -0.6407
  411MOL0     H55454   6.130   2.157   8.222  1.4960 -0.3149  0.3189
  411MOL0     H55455   6.077   1.995   8.467 -0.7310  0.2327 -2.0219
  411MOL0     H55456   6.139   2.162   8.453 -0.1410  0.0382  0.5991
  411MOL0     H55457   6.315   1.987   8.518  0.2544 -1.4851 -0.4043
  411MOL0     H55458   6.282   1.896   8.373  0.5909 -0.0514  0.6000
  411MOL0     H55459   6.415   2.175   8.395  1.8083  0.3986 -1.2487
  411MOL0     H55460   6.355   2.100   8.249  0.6131  2.1463 -0.1448
  411MOL0     H55461   6.578   2.000   8.414  0.3005 -0.6547  0.5604
  411MOL0     H55462   6.486   1.897   8.303 -0.6622  0.4673 -1.0193
  411MOL0     H55463   6.598   2.165   8.228 -3.2042  0.0592  1.0025
  411MOL0     H55464   6.552   2.055   8.106  2.5706 -1.6242 -1.3679
  411MOL0     H55465   6.774   2.000   8.302 -0.7374  1.5034  0.8600
  411MOL0     H55466   6.802   2.064   8.147 -2.0705  3.1427  0.8755
  411MOL0     H55467   5.855   1.984   8.513  2.4575  0.4530  2.2672
  411MOL0     H55468   5.814   2.062   8.745  6.9174 -4.1111 -1.8899
  411MOL0     H55469   5.860   2.175   9.196  0.4179  0.1731 -1.1277
  411MOL0     H55470   5.827   2.294   9.394  0.8465 -1.6089 -1.5178
  411MOL0     H55471   6.423   3.558   9.394  0.6633 -0.5726 -1.0817
  411MOL0     H55472   6.674   3.520   9.371 -0.6072 -1.8891  0.6989
  411MOL0     H55473   7.042   3.432   9.622 -0.0238  0.3650  2.0067
  411MOL0     H55474   7.264   3.362   9.621  0.1715  2.1064  3.4847
  411MOL0     H55475   7.636   3.547   9.440 -2.0133  0.2875  0.2712
  411MOL0     H55476   7.545   3.603   9.582 -0.4880 -1.8101  2.4109
  411MOL0     H55477   7.769   3.444   9.613  0.3694 -0.0488 -0.5639
  411MOL0     H55478   7.639   3.328   9.574 -1.0524 -0.0037  0.3967
  411MOL0     H55479   7.514   3.461   9.774 -0.5447  1.3132 -0.0486
  411MOL0     H55480   7.673   3.533   9.814 -0.8907  0.1850 -1.7534
  411MOL0     H55481   7.607   3.231   9.805  1.3065 -0.7260 -1.1360
  411MOL0     H55482   7.621   3.321   9.949 -0.7230 -2.7125 -0.2024
  411MOL0     H55483   8.027   3.286   9.913  0.3481 -0.2090 -1.3387
  411MOL0     H55484   7.366   3.642   9.321 -0.8226 -0.4358 -1.1990
  411MOL0     H55485   7.121   3.743   9.353 -2.3620 -1.7429  0.0472
  412MOL0     O55486  11.085   2.920   9.276 -0.0271  0.6656 -0.3714
  412MOL0     C55487  11.186   2.887   9.225 -0.2934  0.3167  0.1995
  412MOL0     O55488  11.292   2.818   9.287  0.2285 -0.2548  0.3241
  412MOL0     C55489  11.295   2.779   9.418 -0.4491  0.0065  0.6417
  412MOL0     C55490  11.210   2.809   9.519 -0.3898  0.2508  0.7447
  412MOL0     C55491  11.224   2.764   9.649  0.0462 -0.3373  0.4897
  412MOL0     C55492  11.334   2.689   9.689 -0.4324 -0.0396 -0.2185
  412MOL0     O55493  11.362   2.634   9.812  0.7253 -0.7130 -0.1028
  412MOL0     C55494  11.244   2.575   9.870  0.4145  0.3334  0.0153
  412MOL0     C55495  11.303   2.515   9.999 -0.3865  0.9073  0.7107
  412MOL0     C55496  11.213   2.417  10.078  0.4713  1.0679 -0.3308
  412MOL0     C55497  11.289   2.326  10.178  0.2004 -0.6405  0.1594
  412MOL0     C55498  11.335   2.202  10.102 -0.6016  0.5196 -0.2332
  412MOL0     C55499  11.434   2.135  10.203 -0.1755  0.4403 -0.1138
  412MOL0     C55500  11.482   1.997  10.142 -0.6192 -1.0025 -0.0852
  412MOL0     C55501  11.606   1.949  10.221 -0.8474  0.2484 -0.2254
  412MOL0     N55502  11.628   1.804  10.202 -0.5159 -0.5668 -0.2249
  412MOL0     C55503  11.529   1.712  10.239  0.0394 -0.0398  0.6067
  412MOL0     C55504  11.589   1.593  10.228  0.4004 -1.1544  0.7257
  412MOL0     C55505  11.517   1.461  10.253  0.1568 -1.2692  0.2720
  412MOL0     C55506  11.418   1.421  10.132 -0.9811 -0.3338  0.3667
  412MOL0     C55507  11.358   1.285  10.145 -0.0368 -0.3299  0.4152
  412MOL0     C55508  11.255   1.261  10.034  0.6930  0.7220  0.8146
  412MOL0     O55509  11.135   1.341  10.045 -0.3192  0.5106 -0.5847
  412MOL0     C55510  11.053   1.315  10.149  0.3733 -0.5618 -1.4259
  412MOL0     C55511  11.060   1.412  10.263 -0.0674 -0.4008  0.7452
  412MOL0     C55512  10.987   1.394  10.382  0.7489 -0.0213  0.7215
  412MOL0     C55513  11.007   1.490  10.495  0.2477  0.1736  0.2380
  412MOL0     C55514  10.916   1.272  10.402  0.3744 -0.0859  0.6006
  412MOL0     C55515  10.857   1.233  10.535 -0.5938 -0.1250  0.5062
  412MOL0     O55516  10.904   1.113  10.585  0.2305 -0.6536 -1.0639
  412MOL0     C55517  10.870   1.057  10.711 -0.4283 -0.2190 -0.0770
  412MOL0     C55518  10.953   0.952  10.757 -0.2320 -1.2108 -0.0979
  412MOL0     C55519  10.922   0.886  10.880  1.1347  0.6383 -0.0091
  412MOL0     C55520  10.811   0.934  10.957  0.2464  0.3541 -0.8741
  412MOL0     O55521  10.795   0.863  11.074 -0.6498  0.3553 -0.1223
  412MOL0     C55522  10.680   0.879  11.158  0.2364  0.2713 -0.5347
  412MOL0     C55523  10.701   0.765  11.266  0.5163 -1.1980  0.7252
  412MOL0     C55524  10.652   0.630  11.203 -0.4458  0.3220  0.6552
  412MOL0     C55525  10.633   0.522  11.307  0.3571  0.8996 -0.7214
  412MOL0     C55526  10.584   0.391  11.236  0.3138  0.3006 -0.2928
  412MOL0     C55527  10.606   0.257  11.322  0.5085 -0.0251 -0.5030
  412MOL0     C55528  10.492   0.153  11.293  0.3151 -0.2660  0.3111
  412MOL0     C55529  10.504   0.113  11.150 -0.0642 -0.0286  0.2830
  412MOL0    Cl55530  10.384  -0.024  11.121  0.1392 -0.2931  0.1879
  412MOL0     C55531  10.737   1.036  10.906  0.0806 -0.0077 -0.5237
  412MOL0     C55532  10.766   1.095  10.788 -0.2775  0.8211  0.3256
  412MOL0     O55533  10.796   1.321  10.595 -0.1891  0.1575 -0.1603
  412MOL0     C55534  10.908   1.180  10.290 -0.2702  0.2026  0.3164
  412MOL0     C55535  10.977   1.204  10.165  0.7577 -0.8182  0.3842
  412MOL0     N55536  11.728   1.601  10.207 -0.2955  0.2510 -0.2273
  412MOL0     N55537  11.748   1.734  10.188  0.0867  0.0874 -0.3431
  412MOL0     C55538  11.431   2.661   9.590  0.2199 -0.3479  0.2263
  412MOL0     C55539  11.409   2.705   9.456 -0.6020 -1.5014 -0.7640
  412MOL0     C55540  11.199   2.929   9.084  1.0889 -0.6881 -0.6793
  412MOL0     C55541  11.280   2.859   8.997 -0.4483 -0.3100  0.0679
  412MOL0     C55542  11.288   2.890   8.864  0.1483 -1.1494  0.3470
  412MOL0     C55543  11.222   3.006   8.815  0.7746  0.5260 -0.7731
  412MOL0     O55544  11.224   3.045   8.684 -0.4530 -1.0097  0.6888
  412MOL0     C55545  11.354   3.057   8.618  0.5268  0.0859  0.9307
  412MOL0     C55546  11.447   3.164   8.673  0.4053 -0.0284  0.2573
  412MOL0     C55547  11.402   3.314   8.632 -0.5977  0.4838 -0.0407
  412MOL0     C55548  11.474   3.422   8.706 -0.3951 -1.0180  0.2882
  412MOL0     C55549  11.623   3.405   8.705  0.9692  0.4781 -0.9157
  412MOL0     C55550  11.740   3.404   8.722 -0.0830  0.5914  0.7522
  412MOL0     C55551  11.142   3.082   8.905  0.6685  0.2829 -0.4988
  412MOL0     C55552  11.131   3.048   9.039 -0.8005 -0.0312 -0.9123
  412MOL0     H55553  11.122   2.865   9.488 -0.3137 -1.3261 -2.6647
  412MOL0     H55554  11.148   2.777   9.725  2.6713 -3.8364  4.1859
  412MOL0     H55555  11.168   2.649   9.894  0.5289 -0.1038  1.8654
  412MOL0     H55556  11.200   2.501   9.803  1.1851  1.6577 -2.0463
  412MOL0     H55557  11.396   2.465   9.967  1.1960  3.7504  0.5354
  412MOL0     H55558  11.350   2.590  10.063  1.7827  0.1285  0.1255
  412MOL0     H55559  11.139   2.474  10.134 -2.4908 -2.4992 -0.2733
  412MOL0     H55560  11.171   2.361   9.994  3.1352 -2.1076  0.2717
  412MOL0     H55561  11.384   2.376  10.198  1.1732  0.9385 -6.1600
  412MOL0     H55562  11.236   2.311  10.273  2.5627  1.5436  1.9588
  412MOL0     H55563  11.253   2.131  10.086  0.6802 -1.5855  1.8902
  412MOL0     H55564  11.380   2.244  10.012 -1.0990  0.8355 -0.3372
  412MOL0     H55565  11.511   2.211  10.222 -0.0202 -0.1505  1.8580
  412MOL0     H55566  11.382   2.118  10.298  1.5103 -1.1431  0.5914
  412MOL0     H55567  11.407   1.918  10.149  1.8816 -3.4000  2.1242
  412MOL0     H55568  11.494   1.997  10.033  1.7832 -4.1208  0.0550
  412MOL0     H55569  11.582   1.973  10.325  0.6576  1.2206 -0.0776
  412MOL0     H55570  11.692   2.007  10.185  0.2647  0.3425  2.3979
  412MOL0     H55571  11.422   1.723  10.249  0.2250  1.7899  0.9251
  412MOL0     H55572  11.595   1.385  10.250  0.3661 -1.0259 -1.5953
  412MOL0     H55573  11.465   1.467  10.349 -0.0737  3.6727  0.0492
  412MOL0     H55574  11.474   1.438  10.040  1.9611  0.1135  2.1022
  412MOL0     H55575  11.337   1.494  10.130 -0.5361  0.1568 -0.2110
  412MOL0     H55576  11.290   1.287  10.231 -3.4969  1.0405 -2.1244
  412MOL0     H55577  11.436   1.208  10.144  0.3762  0.0528 -2.1029
  412MOL0     H55578  11.236   1.153  10.030 -1.4581  1.0898 -0.1768
  412MOL0     H55579  11.286   1.277   9.930 -4.3041 -1.9231 -1.4715
  412MOL0     H55580  11.124   1.500  10.264 -0.6588  0.0869  3.4671
  412MOL0     H55581  11.097   1.549  10.474  0.2650 -0.4447 -1.6454
  412MOL0     H55582  10.915   1.549  10.505  0.3382  0.3827 -0.1616
  412MOL0     H55583  11.029   1.436  10.587  0.7276  1.4425  0.8827
  412MOL0     H55584  11.038   0.933  10.694 -0.4693 -2.0309 -0.1765
  412MOL0     H55585  10.979   0.803  10.921 -1.1709 -1.8618 -1.5115
  412MOL0     H55586  10.683   0.978  11.205 -2.5677 -0.2982  1.1115
  412MOL0     H55587  10.587   0.872  11.100 -0.4801  0.4272  0.5716
  412MOL0     H55588  10.809   0.753  11.282  1.2031 -0.3709 -2.5810
  412MOL0     H55589  10.653   0.800  11.358 -2.4837  1.1589 -1.5216
  412MOL0     H55590  10.723   0.602  11.125  1.2308  0.7312  1.9609
  412MOL0     H55591  10.559   0.656  11.153  0.6817  1.6964 -0.8450
  412MOL0     H55592  10.731   0.506  11.353 -1.5055 -0.6873  3.1316
  412MOL0     H55593  10.555   0.552  11.377 -1.3705 -2.8501 -0.7728
  412MOL0     H55594  10.647   0.376  11.148  2.0703  1.1051  0.7682
  412MOL0     H55595  10.480   0.416  11.211 -0.9338  0.9924  4.5244
  412MOL0     H55596  10.702   0.206  11.309  0.8001 -0.5277  2.8421
  412MOL0     H55597  10.599   0.282  11.428  0.3506 -0.6072 -0.3712
  412MOL0     H55598  10.394   0.199  11.311 -0.0331 -0.7035 -0.4160
  412MOL0     H55599  10.495   0.061  11.352  0.4653 -0.5009 -0.0627
  412MOL0     H55600  10.602   0.071  11.125 -0.9904 -1.4597 -1.1365
  412MOL0     H55601  10.486   0.189  11.074  1.5361 -0.9656 -1.0850
  412MOL0     H55602  10.645   1.061  10.958  0.2588 -1.8639  0.7615
  412MOL0     H55603  10.715   1.184  10.752  3.6921  2.0345 -3.0916
  412MOL0     H55604  10.850   1.089  10.303 -2.6982  1.8558  1.9850
  412MOL0     H55605  10.976   1.134  10.081 -3.8413 -1.0404  0.3548
  412MOL0     H55606  11.525   2.616   9.621 -0.3254 -0.5951  1.5898
  412MOL0     H55607  11.483   2.692   9.377  2.0379 -0.4850  1.3798
  412MOL0     H55608  11.350   2.781   9.026  1.5735  0.6180 -2.0885
  412MOL0     H55609  11.369   2.826   8.831  1.0672 -0.4056  1.0825
  412MOL0     H55610  11.411   2.964   8.616 -1.4103 -1.1503 -0.2653
  412MOL0     H55611  11.344   3.077   8.511  5.6240  2.0347  0.5227
  412MOL0     H55612  11.548   3.154   8.631  0.3852 -1.0967  0.4409
  412MOL0     H55613  11.445   3.147   8.781  0.4514 -2.1769 -0.0546
  412MOL0     H55614  11.296   3.326   8.655 -0.7735 -3.1057  1.6839
  412MOL0     H55615  11.407   3.329   8.524  1.3324  1.2603  0.1097
  412MOL0     H55616  11.433   3.445   8.804 -1.7128  3.5873 -1.0890
  412MOL0     H55617  11.441   3.504   8.642  0.5824 -0.1113  0.9106
  412MOL0     H55618  11.847   3.396   8.724  0.0224  1.5920 -0.1114
  412MOL0     H55619  11.094   3.174   8.872 -0.0067  0.6946  1.5166
  412MOL0     H55620  11.075   3.113   9.105  0.9908  0.3513  0.2884
  413MOL0     O55621   5.607   6.405  11.192  0.0879 -0.3531 -0.2222
  413MOL0     C55622   5.631   6.420  11.309 -0.4339  0.2307 -0.7320
  413MOL0     O55623   5.746   6.473  11.362  0.5374  0.5453  0.3705
  413MOL0     C55624   5.856   6.496  11.278  0.0959 -0.1541  0.4043
  413MOL0     C55625   5.853   6.608  11.193 -0.3201 -0.3252 -0.4274
  413MOL0     C55626   5.958   6.628  11.112  0.4745  0.1727  0.4422
  413MOL0     C55627   6.072   6.548  11.113  0.6512  0.4206 -0.3800
  413MOL0     O55628   6.180   6.566  11.029 -0.2243 -0.6245  0.1783
  413MOL0     C55629   6.258   6.693  11.030 -0.2849  0.0732  0.0707
  413MOL0     C55630   6.351   6.708  10.908  0.1568  0.6531  0.5213
  413MOL0     C55631   6.454   6.811  10.925 -0.2629  0.9914 -0.4959
  413MOL0     C55632   6.544   6.806  10.802 -0.2141 -0.2050  0.1548
  413MOL0     C55633   6.666   6.911  10.806 -0.0544  0.8288 -0.0781
  413MOL0     C55634   6.744   6.924  10.927  0.1080 -0.4082 -0.0311
  413MOL0     C55635   6.852   7.030  10.901 -0.6425  0.4637 -0.8415
  413MOL0     C55636   6.897   7.103  11.032 -1.0731 -0.2020  0.0076
  413MOL0     N55637   7.022   7.166  11.008 -0.2274 -0.3098  0.3963
  413MOL0     C55638   7.050   7.281  10.931  0.2743  0.7087 -0.1840
  413MOL0     C55639   7.181   7.295  10.946 -1.1383  0.0086  0.3269
  413MOL0     C55640   7.265   7.401  10.868  0.3820  0.4117 -0.8350
  413MOL0     C55641   7.418   7.354  10.854 -0.0081 -0.1330 -0.0026
  413MOL0     C55642   7.487   7.402  10.982  0.9902 -0.4570  0.4691
  413MOL0     C55643   7.638   7.423  10.961 -0.0576 -0.4382  0.1629
  413MOL0     O55644   7.675   7.524  10.865 -0.2791 -0.3250 -0.0294
  413MOL0     C55645   7.791   7.517  10.794  0.0863  0.1090  0.6486
  413MOL0     C55646   7.826   7.618  10.702 -1.0429  0.7265  0.1472
  413MOL0     C55647   7.931   7.605  10.607 -1.0137 -0.2752 -0.5309
  413MOL0     C55648   7.951   7.723  10.513 -0.7662  0.2211 -0.7697
  413MOL0     C55649   8.024   7.496  10.611  0.6027  0.4491 -0.0650
  413MOL0     C55650   8.160   7.507  10.555 -0.5761  0.3428 -0.0180
  413MOL0     O55651   8.192   7.597  10.454 -0.2974 -0.2323  0.1035
  413MOL0     C55652   8.321   7.611  10.411  0.6647  1.1158 -0.9272
  413MOL0     C55653   8.387   7.733  10.428 -0.0675 -1.3245  0.1096
  413MOL0     C55654   8.512   7.759  10.371  0.7353 -0.4055  0.4471
  413MOL0     C55655   8.572   7.650  10.307  0.2451 -0.9835 -0.2081
  413MOL0     O55656   8.693   7.657  10.243  0.5592 -0.5280 -0.6429
  413MOL0     C55657   8.789   7.730  10.324 -0.2399 -0.0809  1.0706
  413MOL0     C55658   8.817   7.866  10.258  0.2342 -0.0782 -0.7733
  413MOL0     C55659   8.944   7.927  10.323 -0.5452  0.7397 -0.6315
  413MOL0     C55660   9.003   8.043  10.235  0.2346 -0.8961 -1.1291
  413MOL0     C55661   8.909   8.167  10.246  0.2767 -0.1743 -0.2837
  413MOL0     C55662   8.815   8.190  10.122 -0.1189 -0.3314  0.2691
  413MOL0     C55663   8.715   8.304  10.148  0.2134  0.0117  0.5356
  413MOL0     C55664   8.592   8.245  10.211  0.0031 -0.3562  0.6436
  413MOL0    Cl55665   8.496   8.371  10.293  0.0376 -0.0881  0.7923
  413MOL0     C55666   8.505   7.533  10.281 -0.0063  0.2146 -1.0672
  413MOL0     C55667   8.382   7.505  10.340  0.2802  0.1543  0.0014
  413MOL0     O55668   8.243   7.430  10.600 -0.1469  0.9820 -0.1856
  413MOL0     C55669   7.987   7.393  10.697  0.3365 -0.4669 -0.1078
  413MOL0     C55670   7.872   7.402  10.786 -0.1609 -0.6111  0.0703
  413MOL0     N55671   7.233   7.193  11.017 -0.0517  0.1223 -0.3785
  413MOL0     N55672   7.135   7.114  11.057 -0.4256  0.6453  0.9841
  413MOL0     C55673   6.081   6.446  11.206  0.4669 -0.1613 -0.4192
  413MOL0     C55674   5.968   6.408  11.279  0.2536 -0.1329  1.1158
  413MOL0     C55675   5.527   6.370  11.399  0.2355 -0.6380 -0.4856
  413MOL0     C55676   5.420   6.296  11.359 -0.7194 -0.3169 -0.1330
  413MOL0     C55677   5.331   6.232  11.442  0.0757  0.0800  0.5774
  413MOL0     C55678   5.331   6.260  11.581 -0.7041  0.3884 -0.3332
  413MOL0     O55679   5.229   6.198  11.659  0.5117 -0.2287 -0.4244
  413MOL0     C55680   5.259   6.170  11.795  0.5438  0.5117  0.0412
  413MOL0     C55681   5.357   6.054  11.813  0.3948  0.1054  0.1793
  413MOL0     C55682   5.278   5.928  11.769 -0.0391  0.2440 -0.1042
  413MOL0     C55683   5.371   5.801  11.797 -0.3188 -0.7428  0.2095
  413MOL0     C55684   5.325   5.674  11.743  0.0537  0.1146  0.1972
  413MOL0     C55685   5.284   5.566  11.699 -0.5436 -0.8331 -0.6078
  413MOL0     C55686   5.447   6.328  11.633  0.4573  0.7731  0.0284
  413MOL0     C55687   5.540   6.382  11.541  0.2281 -0.2218  0.5561
  413MOL0     H55688   5.763   6.669  11.190  0.1680  0.3889 -0.7067
  413MOL0     H55689   5.961   6.718  11.053  2.4369  1.4967  2.3990
  413MOL0     H55690   6.194   6.782  11.032 -0.7083 -0.1966 -0.7770
  413MOL0     H55691   6.314   6.691  11.124 -1.4735  0.2520  0.8057
  413MOL0     H55692   6.409   6.617  10.892  1.8841  1.9256 -0.7587
  413MOL0     H55693   6.288   6.711  10.819 -0.4949  1.7853  1.0010
  413MOL0     H55694   6.390   6.899  10.932  0.8192  1.6893  1.4370
  413MOL0     H55695   6.503   6.797  11.022 -3.5584  0.6543  1.2484
  413MOL0     H55696   6.568   6.701  10.781  1.6129 -0.1745  1.7372
  413MOL0     H55697   6.493   6.832  10.709  1.1002  3.5177  0.2895
  413MOL0     H55698   6.724   6.883  10.717 -0.6500  0.4805 -0.3663
  413MOL0     H55699   6.624   7.010  10.782 -0.3855  0.5330 -0.7581
  413MOL0     H55700   6.673   6.957  11.003  2.6464 -3.8314  4.3312
  413MOL0     H55701   6.789   6.835  10.973  0.9816  0.3441  0.6070
  413MOL0     H55702   6.935   6.978  10.853  0.9830 -0.3801  2.5817
  413MOL0     H55703   6.823   7.114  10.836 -1.0506  0.1168 -1.1076
  413MOL0     H55704   6.908   7.030  11.113  0.3460  1.3647  1.3075
  413MOL0     H55705   6.828   7.183  11.061 -0.7346  0.5748 -1.2853
  413MOL0     H55706   6.992   7.343  10.863 -1.5261  0.1962  0.8318
  413MOL0     H55707   7.210   7.419  10.776 -1.5669  0.5060  0.2996
  413MOL0     H55708   7.247   7.491  10.927 -1.0330  1.4500 -2.7514
  413MOL0     H55709   7.461   7.410  10.770  0.8167 -0.2262  0.3454
  413MOL0     H55710   7.425   7.248  10.829 -0.4785 -0.2245  0.2491
  413MOL0     H55711   7.480   7.318  11.051  3.9683  0.1864  1.6714
  413MOL0     H55712   7.455   7.500  11.017  2.2945 -0.3635  1.4730
  413MOL0     H55713   7.671   7.328  10.919 -0.3786 -0.1561 -0.7517
  413MOL0     H55714   7.694   7.446  11.052  2.2798 -0.5117 -1.2022
  413MOL0     H55715   7.769   7.709  10.715 -1.0048  0.5599  1.6315
  413MOL0     H55716   7.966   7.679  10.414  1.5967 -0.9404  0.0268
  413MOL0     H55717   7.866   7.792  10.503 -0.9699  0.2622  0.9782
  413MOL0     H55718   8.039   7.783  10.539 -0.5368 -0.3412 -0.2206
  413MOL0     H55719   8.349   7.816  10.486 -2.1285 -0.8591 -1.7812
  413MOL0     H55720   8.557   7.858  10.380  0.7792 -0.2185 -1.4975
  413MOL0     H55721   8.756   7.750  10.426 -1.3138  2.3057  0.3234
  413MOL0     H55722   8.884   7.675  10.326  0.0893  0.4951  1.3525
  413MOL0     H55723   8.847   7.855  10.153  3.4047  1.3816 -0.1388
  413MOL0     H55724   8.724   7.923  10.264  0.3068 -0.0323 -0.0233
  413MOL0     H55725   9.027   7.858  10.340  2.0320  3.0054 -2.9171
  413MOL0     H55726   8.914   7.964  10.421 -2.2766  3.4348 -2.0374
  413MOL0     H55727   9.096   8.074  10.283  0.4618 -1.8123 -0.9622
  413MOL0     H55728   9.025   8.016  10.131  1.7882 -1.4902 -0.6728
  413MOL0     H55729   8.980   8.251  10.249 -1.0539  1.0444 -1.4877
  413MOL0     H55730   8.857   8.171  10.342  2.6054 -0.5391  1.0722
  413MOL0     H55731   8.881   8.214  10.038 -0.4352 -1.5198 -0.3378
  413MOL0     H55732   8.754   8.099  10.115 -0.8496  0.1410  0.4321
  413MOL0     H55733   8.683   8.341  10.050  2.7818  1.0547  0.0001
  413MOL0     H55734   8.753   8.387  10.209 -0.3786 -0.0642  1.0212
  413MOL0     H55735   8.617   8.171  10.288  1.3051  0.4400  1.0213
  413MOL0     H55736   8.536   8.181  10.142 -0.6646  0.6692  0.2140
  413MOL0     H55737   8.561   7.473  10.209  2.5844  0.8915  0.2641
  413MOL0     H55738   8.324   7.414  10.333  1.0254 -0.2223 -1.6616
  413MOL0     H55739   8.041   7.299  10.706  0.1404 -0.4462  1.5660
  413MOL0     H55740   7.840   7.305  10.822 -0.6068 -0.8597 -0.9338
  413MOL0     H55741   6.177   6.397  11.210  0.3329 -0.5567 -1.7229
  413MOL0     H55742   5.964   6.323  11.346  1.1590 -1.2343 -0.1838
  413MOL0     H55743   5.421   6.279  11.252  4.1878 -3.4927  0.0703
  413MOL0     H55744   5.262   6.160  11.398  0.8675 -0.2793 -0.0870
  413MOL0     H55745   5.308   6.255  11.845  1.4695  0.2026 -0.3109
  413MOL0     H55746   5.166   6.148  11.848  1.2001  1.6777  1.7759
  413MOL0     H55747   5.400   6.046  11.914  0.5815  0.5663  0.1397
  413MOL0     H55748   5.446   6.058  11.750  0.3341 -1.3392 -0.0209
  413MOL0     H55749   5.250   5.936  11.663  2.6195 -0.6554 -0.9731
  413MOL0     H55750   5.191   5.917  11.833  0.1723 -1.7517 -0.0760
  413MOL0     H55751   5.377   5.777  11.903 -1.6257  1.5043  0.8773
  413MOL0     H55752   5.474   5.823  11.769 -0.0145 -2.0622  0.2506
  413MOL0     H55753   5.248   5.477  11.653 -3.1187  0.9750 -2.3693
  413MOL0     H55754   5.453   6.326  11.741  0.1670  1.1596  0.0528
  413MOL0     H55755   5.629   6.423  11.588  0.8743 -2.0892  1.0761
  414MOL0     O55756   7.201  10.336   7.347 -0.0779  0.1908 -1.1472
  414MOL0     C55757   7.091  10.377   7.323  0.6998  0.8394 -0.4593
  414MOL0     O55758   7.033  10.364   7.201  0.2723 -0.2316  0.2928
  414MOL0     C55759   7.107  10.316   7.092  0.2867 -0.5201 -0.0441
  414MOL0     C55760   7.197  10.403   7.020  0.1379 -0.3840 -0.1379
  414MOL0     C55761   7.255  10.369   6.901  0.7910  0.0777  0.3518
  414MOL0     C55762   7.224  10.248   6.842 -0.0448 -0.2279 -0.5875
  414MOL0     O55763   7.295  10.213   6.735  0.4884  0.8646  0.0536
  414MOL0     C55764   7.233  10.123   6.642  0.5825 -0.7705  0.5740
  414MOL0     C55765   7.272  10.154   6.492  0.1223 -0.1676 -0.1706
  414MOL0     C55766   7.173  10.101   6.392 -0.3010  0.0160  0.7988
  414MOL0     C55767   7.203  10.131   6.241  0.0550 -0.0006 -0.2718
  414MOL0     C55768   7.333  10.070   6.203 -1.0806  1.2417 -0.5681
  414MOL0     C55769   7.338  10.055   6.051 -0.0512 -0.1925  0.3185
  414MOL0     C55770   7.453   9.966   6.007 -0.1143  0.6826  0.6078
  414MOL0     C55771   7.488   9.982   5.861 -0.0100  0.0943  0.5884
  414MOL0     N55772   7.598   9.897   5.813 -0.2392 -0.7267 -0.7068
  414MOL0     C55773   7.736   9.936   5.814  0.3465  0.4664  0.0625
  414MOL0     C55774   7.809   9.827   5.777 -0.4787 -0.5328  0.2089
  414MOL0     C55775   7.958   9.807   5.794 -0.5354 -0.0157 -0.1309
  414MOL0     C55776   7.986   9.794   5.942  0.0703  0.3082 -0.0357
  414MOL0     C55777   8.117   9.718   5.968  1.1833  0.0120  0.1269
  414MOL0     C55778   8.120   9.654   6.103 -0.5405  0.2493  0.0566
  414MOL0     O55779   8.196   9.731   6.204 -0.3031  0.1864  0.4584
  414MOL0     C55780   8.310   9.676   6.243 -0.3739 -0.3967  0.6146
  414MOL0     C55781   8.323   9.659   6.381 -0.7087 -0.9404 -0.7277
  414MOL0     C55782   8.431   9.591   6.439 -0.5958 -0.1356  0.5133
  414MOL0     C55783   8.421   9.566   6.585 -0.7772 -0.7231 -0.4501
  414MOL0     C55784   8.533   9.540   6.354 -0.5283  0.7807 -0.8230
  414MOL0     C55785   8.651   9.463   6.403 -0.4326 -1.2475  0.0777
  414MOL0     O55786   8.688   9.483   6.535 -0.1132 -0.1219 -0.0350
  414MOL0     C55787   8.792   9.409   6.578 -0.1481 -0.8664  0.2392
  414MOL0     C55788   8.906   9.361   6.506  0.4697 -0.3853  0.7328
  414MOL0     C55789   9.004   9.286   6.564 -0.1301 -0.0475 -0.3088
  414MOL0     C55790   9.000   9.255   6.709  0.1930  0.5939  0.0835
  414MOL0     O55791   9.091   9.177   6.770 -0.2807  0.1305 -0.8478
  414MOL0     C55792   9.213   9.141   6.714 -0.0548  0.1792  0.5980
  414MOL0     C55793   9.308   9.256   6.688 -0.5491  0.0928 -0.0912
  414MOL0     C55794   9.427   9.271   6.797 -0.1265 -0.2106 -0.4863
  414MOL0     C55795   9.367   9.303   6.936  0.3239  0.5557 -0.3197
  414MOL0     C55796   9.478   9.303   7.047 -0.0722 -0.0966  0.0392
  414MOL0     C55797   9.512   9.161   7.097 -0.2613  0.1038  0.5479
  414MOL0     C55798   9.573   9.158   7.236 -0.0822 -1.5696 -0.1332
  414MOL0     C55799   9.601   9.015   7.291 -0.6354 -0.3605  0.5543
  414MOL0    Cl55800   9.477   8.885   7.264 -0.0876 -0.0536  0.2095
  414MOL0     C55801   8.889   9.300   6.780  0.2188 -0.7551 -0.7411
  414MOL0     C55802   8.785   9.377   6.717  0.3208 -1.3677  0.1586
  414MOL0     O55803   8.702   9.384   6.323 -0.1640  1.0732  1.0236
  414MOL0     C55804   8.527   9.581   6.216  0.4622  0.1672  0.2515
  414MOL0     C55805   8.410   9.631   6.161 -0.8483 -0.0684  0.1561
  414MOL0     N55806   7.716   9.742   5.729 -0.7960  0.4451 -1.2527
  414MOL0     N55807   7.593   9.784   5.755 -0.5708  1.1645  0.8143
  414MOL0     C55808   7.131  10.171   6.905 -0.1884  0.6785  0.0426
  414MOL0     C55809   7.071  10.203   7.024  0.1683 -0.0885  0.0104
  414MOL0     C55810   7.022  10.464   7.424 -0.1447  0.6624 -0.2382
  414MOL0     C55811   6.894  10.505   7.410  0.3039  0.2939 -0.6032
  414MOL0     C55812   6.832  10.596   7.503 -0.8843 -0.2017  0.4809
  414MOL0     C55813   6.899  10.624   7.624  0.4811 -0.1759  0.7724
  414MOL0     O55814   6.862  10.698   7.735  0.7367  0.1502  0.4519
  414MOL0     C55815   6.795  10.823   7.712  0.7664 -0.3993 -0.3244
  414MOL0     C55816   6.640  10.817   7.708  0.8908  0.0726 -0.6369
  414MOL0     C55817   6.582  10.695   7.772  0.0514 -0.2439 -0.2234
  414MOL0     C55818   6.439  10.698   7.815  0.1673 -0.4788  0.7946
  414MOL0     C55819   6.355  10.754   7.712  1.0725 -0.9425  0.6465
  414MOL0     C55820   6.292  10.809   7.626  0.5667  1.2992 -1.0781
  414MOL0     C55821   7.022  10.563   7.645 -0.5089  0.3885  0.2999
  414MOL0     C55822   7.084  10.490   7.547  1.7787  0.9464  0.4455
  414MOL0     H55823   7.207  10.510   7.041  0.4539  0.3509 -3.5135
  414MOL0     H55824   7.312  10.453   6.864 -0.9659  1.2682  0.2200
  414MOL0     H55825   7.250  10.018   6.666 -1.9718 -1.5770 -0.8427
  414MOL0     H55826   7.125  10.136   6.637  0.3387 -2.4725  1.0399
  414MOL0     H55827   7.276  10.263   6.479  0.7312  0.0206  1.4655
  414MOL0     H55828   7.369  10.106   6.477 -1.1561 -2.2648 -2.6761
  414MOL0     H55829   7.167   9.992   6.398  0.6461 -0.2129 -1.3969
  414MOL0     H55830   7.074  10.145   6.411 -0.4736 -0.5695  1.3013
  414MOL0     H55831   7.117  10.091   6.186  0.1482 -1.1231  0.3769
  414MOL0     H55832   7.212  10.240   6.235  2.2650 -0.1788 -1.0329
  414MOL0     H55833   7.414  10.128   6.247  0.2455 -0.4667 -0.6363
  414MOL0     H55834   7.345   9.973   6.252 -3.0408  1.4896  0.5290
  414MOL0     H55835   7.244  10.007   6.024 -0.7892 -0.2402  2.6996
  414MOL0     H55836   7.349  10.148   5.995  1.7185  0.2411  1.2729
  414MOL0     H55837   7.541   9.993   6.067  0.8992 -0.9852 -0.0651
  414MOL0     H55838   7.438   9.860   6.028 -0.2946  0.7138  0.6414
  414MOL0     H55839   7.503  10.086   5.834  0.3481  0.2594  1.3861
  414MOL0     H55840   7.395   9.956   5.808 -0.2083 -2.2415  1.9121
  414MOL0     H55841   7.768  10.029   5.860 -3.6191  2.4639 -0.7134
  414MOL0     H55842   7.982   9.712   5.744 -0.2445 -1.6650  2.8943
  414MOL0     H55843   8.015   9.884   5.742  0.0583 -1.6654 -2.1022
  414MOL0     H55844   7.899   9.741   5.983 -0.8822  1.2291 -0.8004
  414MOL0     H55845   7.981   9.892   5.989 -4.0372  1.3684 -2.1787
  414MOL0     H55846   8.209   9.776   5.964  1.7213 -0.7105  1.3970
  414MOL0     H55847   8.129   9.635   5.897  0.1500  1.9318 -2.4792
  414MOL0     H55848   8.161   9.553   6.094 -5.2338 -2.1191  1.9523
  414MOL0     H55849   8.017   9.640   6.137 -0.8353 -0.5451 -1.1073
  414MOL0     H55850   8.231   9.697   6.425 -2.2375  0.3565 -4.5899
  414MOL0     H55851   8.433   9.459   6.601 -3.6997 -0.9910  0.6515
  414MOL0     H55852   8.492   9.621   6.648  0.0420  0.7703 -2.5505
  414MOL0     H55853   8.327   9.594   6.635 -1.1242 -2.1848 -0.2455
  414MOL0     H55854   8.935   9.385   6.405  2.3591 -0.3023  1.2609
  414MOL0     H55855   9.085   9.249   6.502 -0.7182 -0.3162 -0.9274
  414MOL0     H55856   9.263   9.083   6.792 -1.8802  1.0949  2.5224
  414MOL0     H55857   9.204   9.081   6.622 -0.2527  0.3846  0.4823
  414MOL0     H55858   9.345   9.239   6.586  0.1685 -3.2626  0.6259
  414MOL0     H55859   9.257   9.352   6.677 -1.2891 -0.2478  0.3302
  414MOL0     H55860   9.479   9.364   6.774 -1.4981  0.7335  0.1388
  414MOL0     H55861   9.499   9.188   6.792  0.7480  0.5478 -0.8099
  414MOL0     H55862   9.310   9.397   6.933  0.3802  0.5923 -0.2421
  414MOL0     H55863   9.287   9.233   6.962 -1.6495  1.6942 -2.8326
  414MOL0     H55864   9.431   9.355   7.131 -2.5055  0.1386 -1.3901
  414MOL0     H55865   9.567   9.354   7.008 -0.2171 -0.7590 -1.2189
  414MOL0     H55866   9.417   9.108   7.109 -0.3485  0.6622  2.8380
  414MOL0     H55867   9.575   9.121   7.018 -0.1116  4.0586 -1.6014
  414MOL0     H55868   9.508   9.211   7.306  0.3145 -0.8580 -0.2914
  414MOL0     H55869   9.661   9.223   7.235 -0.7213 -0.6880 -0.3370
  414MOL0     H55870   9.631   9.022   7.396  1.7494  2.1611 -0.1784
  414MOL0     H55871   9.692   8.986   7.238 -0.1000  0.1071  1.2053
  414MOL0     H55872   8.880   9.304   6.888  2.0298  0.6478 -0.5974
  414MOL0     H55873   8.700   9.422   6.768  0.4693  1.6162 -1.9692
  414MOL0     H55874   8.610   9.557   6.149  0.4113  2.5343 -0.7452
  414MOL0     H55875   8.401   9.654   6.056 -1.2279  0.7858  0.3630
  414MOL0     H55876   7.097  10.076   6.863  1.2893 -0.3542  1.0768
  414MOL0     H55877   6.994  10.138   7.065 -1.4376  2.0212  0.5800
  414MOL0     H55878   6.837  10.479   7.321 -4.4099  2.8015  1.3369
  414MOL0     H55879   6.728  10.627   7.492 -1.5231 -2.5930 -1.0241
  414MOL0     H55880   6.831  10.891   7.790  0.7811 -1.6840  0.8257
  414MOL0     H55881   6.828  10.864   7.616  3.9359  1.1535  1.2623
  414MOL0     H55882   6.605  10.819   7.604  0.3967  0.9962 -0.4649
  414MOL0     H55883   6.598  10.904   7.759 -0.6552 -1.0262  0.0495
  414MOL0     H55884   6.649  10.687   7.858  0.0753  2.7269  0.1289
  414MOL0     H55885   6.600  10.613   7.701 -0.3116 -2.7218  2.3327
  414MOL0     H55886   6.430  10.760   7.904  1.6746 -0.4786  0.9701
  414MOL0     H55887   6.407  10.594   7.832  0.5257 -0.9735 -1.2630
  414MOL0     H55888   6.221  10.847   7.555 -1.0402 -1.2982 -0.9881
  414MOL0     H55889   7.057  10.564   7.748  0.0989 -1.3079  0.1434
  414MOL0     H55890   7.176  10.440   7.572 -1.0792 -3.5269  3.4650
  415MOL0     O55891   4.105   0.856   8.756  0.7042  0.0860  0.5417
  415MOL0     C55892   4.169   0.803   8.663  0.5201  0.2157  0.4505
  415MOL0     O55893   4.207   0.867   8.544 -0.3557 -1.1539 -0.3215
  415MOL0     C55894   4.167   0.991   8.509  0.8883 -1.5065 -0.2220
  415MOL0     C55895   4.252   1.097   8.526  0.6379  0.6067  0.2516
  415MOL0     C55896   4.214   1.230   8.491 -0.3501  0.2210 -0.9998
  415MOL0     C55897   4.085   1.249   8.450  0.4934 -0.8580  0.4350
  415MOL0     O55898   4.020   1.369   8.430  0.1624 -0.6134 -0.8803
  415MOL0     C55899   4.087   1.485   8.370 -0.2077  0.2218 -0.1501
  415MOL0     C55900   4.119   1.467   8.220  0.5774  0.8848 -0.4357
  415MOL0     C55901   4.184   1.582   8.148 -0.3054  0.8397  0.7671
  415MOL0     C55902   4.306   1.636   8.216 -0.7850  0.3325  0.5624
  415MOL0     C55903   4.443   1.551   8.221 -0.1580  0.5441 -0.1942
  415MOL0     C55904   4.472   1.469   8.092 -0.3569 -0.5603 -0.5158
  415MOL0     C55905   4.621   1.424   8.105  0.3551 -0.2759 -0.1673
  415MOL0     C55906   4.652   1.330   7.990 -0.4906  0.1948  0.5996
  415MOL0     N55907   4.769   1.248   8.009  0.6411 -0.1478 -0.1541
  415MOL0     C55908   4.888   1.293   7.954  0.0906 -0.5213 -0.5865
  415MOL0     C55909   4.949   1.175   7.929  0.0433  0.0795  0.8341
  415MOL0     C55910   5.078   1.164   7.853 -0.8938 -0.5823 -0.1025
  415MOL0     C55911   5.210   1.176   7.938  0.4876 -0.1070  0.4478
  415MOL0     C55912   5.219   1.042   8.022 -0.0252  0.2737  0.8956
  415MOL0     C55913   5.256   0.915   7.948  1.0176 -0.4346  0.0031
  415MOL0     O55914   5.353   0.939   7.844 -0.7179 -0.1100 -0.6420
  415MOL0     C55915   5.410   0.824   7.785 -0.1598 -0.1163  0.8753
  415MOL0     C55916   5.421   0.835   7.649  0.2891  0.3015  0.3063
  415MOL0     C55917   5.457   0.721   7.563  0.6414  0.7172 -0.3049
  415MOL0     C55918   5.447   0.739   7.413  0.4254  0.1095 -0.6256
  415MOL0     C55919   5.486   0.599   7.618  0.0841  1.1029  0.0268
  415MOL0     C55920   5.532   0.478   7.537 -0.6591  0.0129  0.1235
  415MOL0     O55921   5.530   0.466   7.397 -0.4960  0.4461  0.7679
  415MOL0     C55922   5.535   0.333   7.340 -0.6095 -0.5394  0.6563
  415MOL0     C55923   5.458   0.232   7.399 -0.3406  0.0269  0.5004
  415MOL0     C55924   5.456   0.105   7.332  0.5715  0.4136 -0.6240
  415MOL0     C55925   5.516   0.087   7.207  0.1205  0.7018  0.8920
  415MOL0     O55926   5.522  -0.024   7.124  0.0729  0.5446 -0.3409
  415MOL0     C55927   5.487  -0.153   7.190 -0.4122 -0.1561 -0.1930
  415MOL0     C55928   5.459  -0.259   7.087  0.5783  0.2171  0.4229
  415MOL0     C55929   5.453  -0.400   7.144 -0.2873  0.8875  0.1840
  415MOL0     C55930   5.591  -0.455   7.153 -0.0812  0.0756 -0.7504
  415MOL0     C55931   5.605  -0.560   7.262 -0.0709 -0.2585 -0.1477
  415MOL0     C55932   5.735  -0.648   7.239  0.5089  0.8206  0.8523
  415MOL0     C55933   5.865  -0.562   7.254 -0.0017  0.2482 -0.6077
  415MOL0     C55934   5.995  -0.642   7.259 -0.1523  0.3699 -0.5217
  415MOL0    Cl55935   6.035  -0.695   7.089 -0.1392 -0.2103 -0.2190
  415MOL0     C55936   5.583   0.199   7.143  0.6641 -0.2721 -0.8687
  415MOL0     C55937   5.603   0.320   7.218 -0.1514 -0.1155  0.8742
  415MOL0     O55938   5.575   0.388   7.603 -0.3542  0.6665  0.0840
  415MOL0     C55939   5.475   0.586   7.755 -1.2584 -0.6302  0.0272
  415MOL0     C55940   5.447   0.697   7.837  0.1125 -0.2890 -0.9288
  415MOL0     N55941   4.870   1.067   7.961 -0.3053  0.2527  1.1142
  415MOL0     N55942   4.765   1.108   8.023  0.6438  0.2323  0.7896
  415MOL0     C55943   3.998   1.139   8.447  0.7513  0.2953 -0.2145
  415MOL0     C55944   4.035   1.013   8.467  0.8063  0.6362  0.0475
  415MOL0     C55945   4.205   0.654   8.669  0.9734  0.3479  0.3159
  415MOL0     C55946   4.115   0.569   8.745 -0.5673 -0.6052 -0.2366
  415MOL0     C55947   4.144   0.434   8.759  0.6147  0.4205 -0.1229
  415MOL0     C55948   4.257   0.373   8.708 -0.6473 -0.2469 -0.4898
  415MOL0     O55949   4.263   0.241   8.707 -0.2961  0.7190 -0.2987
  415MOL0     C55950   4.391   0.177   8.697  0.7737  0.6812 -0.3879
  415MOL0     C55951   4.430   0.141   8.545 -0.7521  0.4498  0.1796
  415MOL0     C55952   4.575   0.089   8.515 -0.7873 -0.2715  0.7543
  415MOL0     C55953   4.603  -0.045   8.575  0.4525  0.5844 -0.1207
  415MOL0     C55954   4.624  -0.031   8.724  0.7968  0.7186 -0.7039
  415MOL0     C55955   4.649  -0.001   8.839 -0.8956 -0.2206 -0.0676
  415MOL0     C55956   4.343   0.456   8.642 -0.5450  0.1206  0.5198
  415MOL0     C55957   4.321   0.587   8.621  0.3705 -0.1371 -0.0793
  415MOL0     H55958   4.351   1.063   8.554  1.1349 -2.8174 -4.4649
  415MOL0     H55959   4.283   1.313   8.504  0.6403 -0.7757  0.4741
  415MOL0     H55960   4.023   1.573   8.388 -2.4119 -1.2956 -0.1715
  415MOL0     H55961   4.176   1.501   8.431 -1.1939 -1.2795  1.7642
  415MOL0     H55962   4.168   1.370   8.213  0.9282  0.8330  1.9631
  415MOL0     H55963   4.020   1.453   8.175  0.0644 -0.1937  0.9645
  415MOL0     H55964   4.203   1.555   8.044 -1.9723 -3.4059  1.3362
  415MOL0     H55965   4.105   1.656   8.136  1.0199  2.1425 -0.1627
  415MOL0     H55966   4.331   1.729   8.163  0.2438 -1.9386 -3.3105
  415MOL0     H55967   4.280   1.664   8.318 -4.0408 -0.2952  0.0040
  415MOL0     H55968   4.525   1.624   8.217 -2.1374  2.7973 -1.9500
  415MOL0     H55969   4.440   1.478   8.303 -3.4457 -0.3403 -0.9759
  415MOL0     H55970   4.398   1.390   8.076  0.1616 -0.9535 -0.9653
  415MOL0     H55971   4.457   1.540   8.010 -2.2003  1.2819  1.2687
  415MOL0     H55972   4.687   1.511   8.103 -1.9282  1.5095 -0.4108
  415MOL0     H55973   4.628   1.366   8.198 -2.2911 -1.5196 -0.6383
  415MOL0     H55974   4.658   1.378   7.892 -2.3658 -2.6428 -1.0404
  415MOL0     H55975   4.570   1.258   7.978  0.3534 -0.4225 -1.8597
  415MOL0     H55976   4.917   1.398   7.947  1.1501 -0.8898 -1.9949
  415MOL0     H55977   5.090   1.076   7.789 -2.9279 -0.5736 -0.5766
  415MOL0     H55978   5.086   1.255   7.792  0.4449 -0.7420 -0.1908
  415MOL0     H55979   5.196   1.262   8.005 -0.5669 -1.2536  1.7627
  415MOL0     H55980   5.299   1.186   7.876  0.0702  0.0595 -0.1332
  415MOL0     H55981   5.135   1.039   8.092 -0.4790  1.5172  0.4456
  415MOL0     H55982   5.308   1.045   8.085  2.3473 -1.7124 -2.0722
  415MOL0     H55983   5.170   0.861   7.909 -2.3654  0.2587  5.4177
  415MOL0     H55984   5.294   0.846   8.024 -1.7245 -0.3047  1.6207
  415MOL0     H55985   5.402   0.927   7.596 -0.7241  0.9656  1.7344
  415MOL0     H55986   5.543   0.715   7.367  0.5024  4.8024 -3.6302
  415MOL0     H55987   5.374   0.663   7.386  1.2271 -2.2363  3.0157
  415MOL0     H55988   5.426   0.846   7.397 -1.0481 -0.1637 -0.6419
  415MOL0     H55989   5.423   0.246   7.501  0.5196 -1.1554  0.9700
  415MOL0     H55990   5.421   0.023   7.394  0.3455  1.1488  0.2434
  415MOL0     H55991   5.573  -0.188   7.248  0.1834  0.4544 -0.6923
  415MOL0     H55992   5.403  -0.134   7.258 -1.1941  2.2725 -1.7068
  415MOL0     H55993   5.366  -0.221   7.044  1.6326 -0.5526 -2.8250
  415MOL0     H55994   5.536  -0.242   7.011 -0.8572  1.1575 -0.8771
  415MOL0     H55995   5.388  -0.459   7.079 -3.4034  0.6469  3.1512
  415MOL0     H55996   5.417  -0.385   7.247 -3.0612  2.2852 -0.8867
  415MOL0     H55997   5.614  -0.498   7.055 -2.4149 -0.8020 -0.9636
  415MOL0     H55998   5.663  -0.375   7.176  2.0497 -1.8525 -0.2985
  415MOL0     H55999   5.515  -0.621   7.246 -0.3252 -0.1392  0.7599
  415MOL0     H56000   5.602  -0.521   7.364  0.2813 -1.7594  0.4652
  415MOL0     H56001   5.737  -0.732   7.309  2.5186 -0.9376 -1.1834
  415MOL0     H56002   5.723  -0.699   7.143 -0.5193  0.5365  1.1155
  415MOL0     H56003   5.846  -0.520   7.353  1.5656 -1.8485  0.6609
  415MOL0     H56004   5.866  -0.489   7.173 -0.2302  2.6112  1.4062
  415MOL0     H56005   5.989  -0.720   7.335 -0.7367  0.9973  0.0899
  415MOL0     H56006   6.079  -0.578   7.291 -1.8454  2.4556  0.0034
  415MOL0     H56007   5.631   0.184   7.047  0.2318 -0.1610 -1.1071
  415MOL0     H56008   5.663   0.401   7.178  0.8795 -0.3716  1.8669
  415MOL0     H56009   5.502   0.493   7.804 -0.8491  0.1873  1.4106
  415MOL0     H56010   5.465   0.685   7.943 -1.1446 -1.8480 -0.8552
  415MOL0     H56011   3.895   1.152   8.413  0.5717  1.3887  0.6988
  415MOL0     H56012   3.966   0.931   8.451  1.4511  0.1123 -0.0677
  415MOL0     H56013   4.023   0.615   8.780  0.6369  1.2438  0.6242
  415MOL0     H56014   4.070   0.359   8.786 -0.0055  0.3343 -1.9283
  415MOL0     H56015   4.469   0.235   8.747  4.2230 -2.1437 -2.0441
  415MOL0     H56016   4.386   0.091   8.766  4.3195  0.6232  0.0232
  415MOL0     H56017   4.415   0.231   8.483 -1.2109  1.5585  1.8400
  415MOL0     H56018   4.368   0.060   8.505  0.8510 -0.1960 -1.1605
  415MOL0     H56019   4.657   0.154   8.547 -2.2586  0.7075  2.7873
  415MOL0     H56020   4.582   0.075   8.406 -1.2001  2.5646  0.2942
  415MOL0     H56021   4.693  -0.088   8.529  0.6100 -0.0095  0.7010
  415MOL0     H56022   4.520  -0.116   8.578 -0.2969  1.4672  0.6680
  415MOL0     H56023   4.673   0.045   8.933  2.5252 -0.1437 -0.8506
  415MOL0     H56024   4.432   0.415   8.595 -1.1768  0.5410 -1.1004
  415MOL0     H56025   4.386   0.658   8.570 -1.1948  3.3992  2.4483
  416MOL0     O56026   2.877   1.978   8.705  0.5087  0.0900  0.4345
  416MOL0     C56027   2.809   2.080   8.693 -1.2892  0.0967 -0.5096
  416MOL0     O56028   2.676   2.087   8.688 -0.6238  0.2076 -0.1905
  416MOL0     C56029   2.605   1.975   8.739 -0.5828  0.2262 -0.6165
  416MOL0     C56030   2.501   1.925   8.664  0.0013  0.1857  0.4124
  416MOL0     C56031   2.406   1.827   8.702 -0.0964  0.0097 -1.2298
  416MOL0     C56032   2.424   1.773   8.832 -0.0985  0.3111  1.3778
  416MOL0     O56033   2.337   1.672   8.865  0.2563  0.2109  0.2760
  416MOL0     C56034   2.374   1.534   8.825  0.7067  0.4180 -1.0212
  416MOL0     C56035   2.291   1.443   8.915  0.7595  0.2843 -0.4333
  416MOL0     C56036   2.364   1.316   8.940 -0.2187  0.1480 -0.2971
  416MOL0     C56037   2.326   1.208   8.832  0.0648  0.4572  0.3416
  416MOL0     C56038   2.351   1.069   8.891 -0.4994 -0.3252  0.0225
  416MOL0     C56039   2.322   0.967   8.774 -0.7146 -1.1287  0.2771
  416MOL0     C56040   2.328   0.834   8.837 -0.2526 -1.0910  0.2033
  416MOL0     C56041   2.324   0.726   8.729  0.2874  0.3553  0.3821
  416MOL0     N56042   2.331   0.590   8.782  0.2185  0.4532  0.5444
  416MOL0     C56043   2.430   0.521   8.856 -1.1766  0.0005  0.1365
  416MOL0     C56044   2.371   0.410   8.892  0.2770  0.5412 -0.1488
  416MOL0     C56045   2.441   0.309   8.972 -0.5537  0.8979  0.6088
  416MOL0     C56046   2.454   0.174   8.904 -0.4022 -0.1126  0.1867
  416MOL0     C56047   2.533   0.177   8.763 -0.1500 -0.6479  0.0391
  416MOL0     C56048   2.533   0.035   8.709 -0.1737 -0.3758  0.6913
  416MOL0     O56049   2.597  -0.066   8.790  0.6588 -0.5434  0.0156
  416MOL0     C56050   2.615  -0.194   8.752 -0.7416 -0.4320  0.9126
  416MOL0     C56051   2.581  -0.241   8.628 -0.9542  0.3011  0.9277
  416MOL0     C56052   2.578  -0.374   8.607  0.0912  1.1789  0.2063
  416MOL0     C56053   2.541  -0.416   8.466  0.1424 -0.4694  0.6147
  416MOL0     C56054   2.596  -0.468   8.714 -0.6994  0.3438  0.3151
  416MOL0     C56055   2.575  -0.617   8.692 -0.3960 -0.2439  0.7394
  416MOL0     O56056   2.455  -0.658   8.718 -0.8464  0.2913 -0.0693
  416MOL0     C56057   2.401  -0.782   8.695 -0.1076 -0.3094  0.9389
  416MOL0     C56058   2.391  -0.827   8.576  0.0059 -0.1701 -0.1335
  416MOL0     C56059   2.333  -0.948   8.541 -1.2933  1.1177  0.3750
  416MOL0     C56060   2.287  -1.039   8.648 -0.4615 -0.0479  0.3361
  416MOL0     O56061   2.225  -1.163   8.631  0.9184  0.5185 -0.7633
  416MOL0     C56062   2.194  -1.194   8.493 -0.3564 -0.1122  0.0086
  416MOL0     C56063   2.109  -1.321   8.484  0.3171 -0.7555 -0.3708
  416MOL0     C56064   1.980  -1.328   8.567  0.2544  0.7828  0.3863
  416MOL0     C56065   1.913  -1.461   8.543  0.8830  0.0172  0.5101
  416MOL0     C56066   1.762  -1.474   8.597  0.4903 -0.2410  0.6633
  416MOL0     C56067   1.729  -1.623   8.599  0.1038 -0.5093 -0.2068
  416MOL0     C56068   1.604  -1.654   8.687  0.6016 -0.4878 -0.0224
  416MOL0     C56069   1.483  -1.633   8.597  0.2791  0.0247  0.2214
  416MOL0    Cl56070   1.475  -1.763   8.479 -0.0718  0.2716 -0.3525
  416MOL0     C56071   2.303  -0.990   8.773 -1.3060 -0.3786 -1.0560
  416MOL0     C56072   2.361  -0.865   8.792  0.3730  0.1255 -0.1280
  416MOL0     O56073   2.673  -0.685   8.651 -0.0942 -0.0304  0.2253
  416MOL0     C56074   2.645  -0.416   8.835  0.3385  0.7706 -0.8489
  416MOL0     C56075   2.658  -0.282   8.848  0.0009  0.2804 -0.5049
  416MOL0     N56076   2.236   0.409   8.837  0.1796  1.3543  0.0123
  416MOL0     N56077   2.216   0.513   8.783 -0.5774  0.2349  0.9261
  416MOL0     C56078   2.543   1.800   8.900  0.1557  0.4126 -0.7116
  416MOL0     C56079   2.638   1.898   8.858  0.2884 -0.5291  0.2974
  416MOL0     C56080   2.887   2.203   8.677  0.4044 -0.0579 -0.3971
  416MOL0     C56081   2.826   2.324   8.631 -0.0150 -0.3072  0.6022
  416MOL0     C56082   2.915   2.440   8.624  0.9764 -0.1391  0.1748
  416MOL0     C56083   3.051   2.429   8.633 -0.1877  1.3368 -0.6679
  416MOL0     O56084   3.116   2.550   8.633 -0.3773  0.3209  0.4050
  416MOL0     C56085   3.181   2.597   8.517 -0.2290  0.0674  1.1179
  416MOL0     C56086   3.271   2.503   8.440  0.5580  0.0655 -0.3335
  416MOL0     C56087   3.348   2.570   8.330 -0.9487 -0.0562  0.0280
  416MOL0     C56088   3.432   2.472   8.251  0.2125 -0.5264 -0.6352
  416MOL0     C56089   3.501   2.543   8.146 -0.0703 -0.5433  0.0629
  416MOL0     C56090   3.577   2.586   8.061  0.0901 -0.4478  0.0174
  416MOL0     C56091   3.109   2.306   8.677  0.7638  0.1703 -0.0006
  416MOL0     C56092   3.025   2.191   8.695 -0.2412  0.2051  0.1216
  416MOL0     H56093   2.485   1.968   8.566  0.5322 -1.4116 -0.4059
  416MOL0     H56094   2.316   1.790   8.655 -1.7906  0.4557  1.4696
  416MOL0     H56095   2.370   1.505   8.719 -0.4541 -1.5650 -0.4720
  416MOL0     H56096   2.480   1.533   8.855  0.2318  2.4934  1.0038
  416MOL0     H56097   2.292   1.491   9.014  0.3105  0.0233 -0.2967
  416MOL0     H56098   2.187   1.427   8.883 -0.4415  1.8177  2.2907
  416MOL0     H56099   2.471   1.315   8.964 -0.6484 -0.0684  1.8594
  416MOL0     H56100   2.311   1.284   9.030 -1.9253  5.0425  0.7309
  416MOL0     H56101   2.223   1.226   8.800 -0.2381 -0.8676  0.4974
  416MOL0     H56102   2.381   1.229   8.740  2.1199 -2.0093  0.8776
  416MOL0     H56103   2.455   1.061   8.924  0.6536  2.8582 -2.3111
  416MOL0     H56104   2.286   1.046   8.976  0.0390  1.0532  0.8290
  416MOL0     H56105   2.224   0.988   8.728 -0.4540  0.7199  0.4819
  416MOL0     H56106   2.404   0.979   8.703 -1.8545 -2.7077 -1.4059
  416MOL0     H56107   2.421   0.829   8.894 -1.7623 -0.2731  2.9132
  416MOL0     H56108   2.249   0.810   8.909  1.1504 -1.1108  1.7893
  416MOL0     H56109   2.415   0.735   8.669  0.5244  2.4466  0.9961
  416MOL0     H56110   2.231   0.737   8.671 -0.7435  0.7473  2.0605
  416MOL0     H56111   2.537   0.536   8.865 -1.4887  1.8440  1.0263
  416MOL0     H56112   2.539   0.353   8.993 -0.0484  0.5316 -0.8452
  416MOL0     H56113   2.387   0.293   9.065  2.0161 -1.4990  1.8139
  416MOL0     H56114   2.350   0.138   8.898 -0.0002 -1.1880 -0.8898
  416MOL0     H56115   2.510   0.103   8.965 -1.3408  0.5422  1.8569
  416MOL0     H56116   2.638   0.208   8.770  0.9009 -4.1321  3.2073
  416MOL0     H56117   2.488   0.245   8.690 -0.4241  0.2330  1.0049
  416MOL0     H56118   2.576   0.025   8.608 -1.1411 -4.9915  0.5370
  416MOL0     H56119   2.430  -0.000   8.697 -1.0461  2.3390 -0.7827
  416MOL0     H56120   2.559  -0.185   8.537 -3.7072 -0.4154  1.0695
  416MOL0     H56121   2.432  -0.400   8.460  0.2476  2.2650  3.5280
  416MOL0     H56122   2.596  -0.347   8.401 -1.4970  0.2677 -0.0556
  416MOL0     H56123   2.569  -0.520   8.446  1.1601 -0.4416  1.8171
  416MOL0     H56124   2.433  -0.770   8.494  3.2024 -0.4242  1.1655
  416MOL0     H56125   2.322  -0.974   8.436 -3.4906  0.6973  0.6549
  416MOL0     H56126   2.132  -1.119   8.443 -2.8395 -1.1162  1.3788
  416MOL0     H56127   2.286  -1.210   8.437 -0.3276 -2.1729  0.5662
  416MOL0     H56128   2.089  -1.334   8.377  2.8479 -2.1040 -0.7664
  416MOL0     H56129   2.169  -1.410   8.505  0.3598 -0.6501 -0.0257
  416MOL0     H56130   1.917  -1.242   8.544 -2.0706 -0.4963  1.6440
  416MOL0     H56131   1.990  -1.319   8.676 -0.8977 -2.3890  0.8665
  416MOL0     H56132   1.919  -1.494   8.439 -0.6684 -1.9572  0.9684
  416MOL0     H56133   1.964  -1.538   8.601  1.3678  0.0788  0.1640
  416MOL0     H56134   1.701  -1.419   8.524 -0.4271 -1.8605  0.1578
  416MOL0     H56135   1.749  -1.423   8.693 -2.0085  2.5855 -0.9809
  416MOL0     H56136   1.738  -1.671   8.501 -1.1675  0.6976 -0.9485
  416MOL0     H56137   1.809  -1.681   8.646 -0.5933 -2.0385 -0.8313
  416MOL0     H56138   1.605  -1.597   8.781 -1.2707  0.0709 -0.2945
  416MOL0     H56139   1.598  -1.755   8.728 -0.7616 -1.0488 -1.5113
  416MOL0     H56140   1.486  -1.534   8.549  1.4428 -0.7408 -1.3980
  416MOL0     H56141   1.397  -1.630   8.664 -0.1754 -1.3918 -0.2550
  416MOL0     H56142   2.271  -1.059   8.850  1.1796 -0.6696 -0.1994
  416MOL0     H56143   2.372  -0.838   8.896 -0.7134 -4.9143  1.5749
  416MOL0     H56144   2.661  -0.483   8.919 -4.6658  0.9087  0.5399
  416MOL0     H56145   2.691  -0.236   8.941  0.6073  1.3995 -1.2625
  416MOL0     H56146   2.573   1.764   8.998 -2.5781 -0.8491 -0.2364
  416MOL0     H56147   2.730   1.923   8.909 -0.8112  0.4031  1.8940
  416MOL0     H56148   2.721   2.339   8.609 -0.0371 -2.1001 -0.7345
  416MOL0     H56149   2.872   2.533   8.589 -1.0729 -1.6920 -1.7276
  416MOL0     H56150   3.108   2.624   8.441  1.9620  4.1563  0.2085
  416MOL0     H56151   3.228   2.695   8.530 -1.2801  0.5842  1.1909
  416MOL0     H56152   3.206   2.424   8.401 -0.9739  0.3968  1.4383
  416MOL0     H56153   3.345   2.454   8.503  0.1685 -1.8064 -1.2638
  416MOL0     H56154   3.416   2.648   8.364  0.1041  0.4421 -2.8943
  416MOL0     H56155   3.298   2.620   8.246  1.9057 -0.5753 -2.1607
  416MOL0     H56156   3.374   2.390   8.206  0.2658 -0.7351 -0.3320
  416MOL0     H56157   3.512   2.422   8.306 -0.0174 -0.8917 -0.6214
  416MOL0     H56158   3.658   2.626   8.003  0.1463 -1.7977 -0.8718
  416MOL0     H56159   3.215   2.292   8.697  0.2153 -2.1720  1.6322
  416MOL0     H56160   3.075   2.104   8.735 -1.9951 -1.0064 -0.2180
  417MOL0     O56161  10.282   2.375   4.989  0.6047 -0.1782 -0.1976
  417MOL0     C56162  10.222   2.270   4.973 -0.7993 -0.4889  0.3974
  417MOL0     O56163  10.261   2.178   4.871 -0.0952 -0.8929  0.4398
  417MOL0     C56164  10.390   2.173   4.821 -0.4344  0.4158  0.1712
  417MOL0     C56165  10.470   2.059   4.846 -0.4289 -0.5075 -0.3814
  417MOL0     C56166  10.603   2.053   4.798  0.9101 -0.1756  0.6124
  417MOL0     C56167  10.661   2.148   4.710  0.0400 -0.1919 -0.2317
  417MOL0     O56168  10.794   2.129   4.661  0.4431  0.0666  0.2062
  417MOL0     C56169  10.842   2.213   4.555 -0.0460 -0.0238  0.2491
  417MOL0     C56170  10.982   2.162   4.521  0.6937  0.4403 -0.8125
  417MOL0     C56171  10.993   2.024   4.468  0.4727 -0.0013 -0.2102
  417MOL0     C56172  11.122   1.997   4.395  0.1957  0.5950  0.3387
  417MOL0     C56173  11.139   1.845   4.355 -0.7204 -0.3930 -1.0786
  417MOL0     C56174  11.272   1.827   4.267 -0.2428 -0.2536 -0.6812
  417MOL0     C56175  11.297   1.672   4.237 -0.3182 -0.4596 -0.3146
  417MOL0     C56176  11.428   1.657   4.145  0.3129 -0.5058  0.4661
  417MOL0     N56177  11.414   1.711   4.002 -0.2979  0.0029  0.0297
  417MOL0     C56178  11.413   1.629   3.890 -0.9796 -0.0085  1.2687
  417MOL0     C56179  11.445   1.709   3.783  0.0004  0.4555  0.9576
  417MOL0     C56180  11.455   1.668   3.636 -0.4303 -0.0799  0.1946
  417MOL0     C56181  11.566   1.560   3.603 -0.5801 -0.7170 -0.0570
  417MOL0     C56182  11.705   1.625   3.612  0.1772 -0.1773 -0.5520
  417MOL0     C56183  11.813   1.519   3.598 -0.3047 -0.2552 -0.7266
  417MOL0     O56184  11.808   1.451   3.479 -0.3748  0.1976  0.7877
  417MOL0     C56185  11.914   1.466   3.385 -1.0109 -0.1899 -0.5950
  417MOL0     C56186  11.930   1.360   3.289  0.5104 -0.0529 -1.0408
  417MOL0     C56187  12.023   1.358   3.184 -0.6327 -0.2643 -0.4443
  417MOL0     C56188  12.029   1.239   3.096  0.7202  0.3921  0.2577
  417MOL0     C56189  12.120   1.463   3.184 -0.2992  0.0518 -0.1509
  417MOL0     C56190  12.228   1.475   3.090 -0.1025 -0.1612  0.6773
  417MOL0     O56191  12.344   1.533   3.131  0.6038 -0.2301  0.1427
  417MOL0     C56192  12.465   1.528   3.057 -0.1779  0.5129  0.1341
  417MOL0     C56193  12.491   1.623   2.962 -0.6302  0.1202  0.1936
  417MOL0     C56194  12.599   1.608   2.876  0.6815 -0.6145 -0.0242
  417MOL0     C56195  12.699   1.507   2.905  0.9702  0.0710 -0.7609
  417MOL0     O56196  12.817   1.495   2.833  0.3126  0.5153 -0.1272
  417MOL0     C56197  12.889   1.602   2.787  0.7225 -0.0904 -0.4946
  417MOL0     C56198  13.023   1.541   2.737  0.3059  0.5796  0.2097
  417MOL0     C56199  13.129   1.649   2.747 -0.9306 -0.2890 -0.1720
  417MOL0     C56200  13.203   1.643   2.880 -0.6445 -1.1267  0.3584
  417MOL0     C56201  13.279   1.776   2.924  1.0226  0.0472 -0.7204
  417MOL0     C56202  13.406   1.792   2.839  0.5158 -0.0417 -0.2760
  417MOL0     C56203  13.469   1.929   2.852  0.2289  0.6403  0.1302
  417MOL0     C56204  13.551   1.943   2.986 -0.1646  0.0327 -0.6349
  417MOL0    Cl56205  13.709   1.871   2.972  0.1761 -0.2120 -0.1849
  417MOL0     C56206  12.677   1.421   3.008 -0.0492 -1.1484  0.0873
  417MOL0     C56207  12.558   1.434   3.088 -0.4822 -0.1306  0.0888
  417MOL0     O56208  12.197   1.448   2.974  0.6140  0.0156  0.1613
  417MOL0     C56209  12.108   1.563   3.284  0.4684 -0.7500 -0.7733
  417MOL0     C56210  12.008   1.571   3.376  0.2821 -0.0096 -0.0540
  417MOL0     N56211  11.452   1.843   3.825  0.4837  0.0805  0.3647
  417MOL0     N56212  11.432   1.839   3.955  0.0694 -0.8262  1.3512
  417MOL0     C56213  10.589   2.265   4.687  0.0167 -0.4478  0.1983
  417MOL0     C56214  10.447   2.272   4.734 -0.7254  0.0325  0.8407
  417MOL0     C56215  10.101   2.255   5.050  0.3269  0.4784  0.1298
  417MOL0     C56216  10.059   2.341   5.152  0.5326 -0.3056 -0.4473
  417MOL0     C56217   9.945   2.314   5.227  1.1161 -0.1029 -0.1683
  417MOL0     C56218   9.851   2.217   5.191 -0.6609 -0.3247 -0.3197
  417MOL0     O56219   9.730   2.185   5.256  0.0936 -0.5177  0.4998
  417MOL0     C56220   9.684   2.263   5.363 -0.3539 -0.0489  0.6716
  417MOL0     C56221   9.554   2.206   5.426 -0.0938  0.6499  0.5121
  417MOL0     C56222   9.445   2.184   5.315 -0.4721 -0.5335  0.1180
  417MOL0     C56223   9.308   2.147   5.379  0.2730  0.2453  0.0852
  417MOL0     C56224   9.262   2.246   5.476  0.3368  0.1169 -0.2565
  417MOL0     C56225   9.229   2.308   5.578  0.4012 -0.2876 -0.3517
  417MOL0     C56226   9.894   2.117   5.107 -0.4835  0.0354  0.0840
  417MOL0     C56227  10.021   2.136   5.040  0.7663 -0.6514  0.3793
  417MOL0     H56228  10.435   1.981   4.913  1.9524 -1.2813  0.0676
  417MOL0     H56229  10.660   1.963   4.820 -0.3745 -0.7887  1.5446
  417MOL0     H56230  10.767   2.203   4.476 -0.7111 -0.1305  0.8784
  417MOL0     H56231  10.851   2.318   4.584  1.5187 -0.2984  0.8666
  417MOL0     H56232  11.021   2.227   4.443  1.8058 -0.7454 -1.2854
  417MOL0     H56233  11.046   2.169   4.610 -0.6152 -0.2667  0.2074
  417MOL0     H56234  10.977   1.958   4.553  3.4565 -3.1569 -1.8279
  417MOL0     H56235  10.913   2.002   4.396  2.6409 -1.3514 -2.3647
  417MOL0     H56236  11.131   2.056   4.304 -3.5138  1.6312  0.4661
  417MOL0     H56237  11.192   2.029   4.473  0.8686 -1.6014  0.7096
  417MOL0     H56238  11.141   1.781   4.444  1.4650  1.4713  0.3591
  417MOL0     H56239  11.050   1.811   4.302 -0.7340 -2.7798  0.3431
  417MOL0     H56240  11.266   1.884   4.174 -0.1551 -0.3290 -0.7345
  417MOL0     H56241  11.356   1.872   4.321 -2.1868  2.7524  0.0804
  417MOL0     H56242  11.316   1.624   4.333 -1.4768  2.0776  1.2748
  417MOL0     H56243  11.213   1.622   4.188 -2.0929  3.2348 -1.4249
  417MOL0     H56244  11.443   1.549   4.138  1.0962 -0.2725 -2.5304
  417MOL0     H56245  11.515   1.708   4.188  0.0501  1.2396 -0.9357
  417MOL0     H56246  11.408   1.521   3.894 -3.7655  0.0407  0.8609
  417MOL0     H56247  11.357   1.624   3.616 -1.0379  1.8772 -1.4971
  417MOL0     H56248  11.455   1.760   3.576  0.6036 -1.2887 -1.7517
  417MOL0     H56249  11.568   1.514   3.504  2.0491 -2.8414  0.8494
  417MOL0     H56250  11.556   1.479   3.675  0.2759  0.0116  0.9126
  417MOL0     H56251  11.709   1.668   3.712  0.6857  3.0064 -1.7891
  417MOL0     H56252  11.725   1.704   3.539  0.4798  0.1957 -0.0751
  417MOL0     H56253  11.791   1.457   3.686 -1.1494 -0.1203 -0.8373
  417MOL0     H56254  11.913   1.562   3.613 -0.9884  0.9141  0.8213
  417MOL0     H56255  11.858   1.279   3.293  1.0717 -0.5188  1.4917
  417MOL0     H56256  12.136   1.218   3.098  0.1351 -3.0263  0.9660
  417MOL0     H56257  11.967   1.153   3.123 -2.1643  1.6315 -1.8039
  417MOL0     H56258  11.995   1.277   2.999 -1.7058  1.0938  1.3080
  417MOL0     H56259  12.422   1.704   2.937  0.1086  0.5525 -0.4809
  417MOL0     H56260  12.605   1.672   2.789  0.9484 -1.0668 -0.3453
  417MOL0     H56261  12.827   1.668   2.726  0.2292 -0.1925 -0.1212
  417MOL0     H56262  12.915   1.656   2.879  0.6404 -0.9958  0.0762
  417MOL0     H56263  13.051   1.464   2.809 -3.7578 -2.1378 -0.7673
  417MOL0     H56264  13.007   1.498   2.638 -2.1082  0.5151  0.5698
  417MOL0     H56265  13.092   1.752   2.743 -1.2704 -0.3148  1.5531
  417MOL0     H56266  13.203   1.626   2.670  1.5956 -4.2144  2.9934
  417MOL0     H56267  13.127   1.615   2.953  0.1132 -3.3223  0.3822
  417MOL0     H56268  13.273   1.559   2.882 -0.1186 -0.7588 -1.0428
  417MOL0     H56269  13.301   1.768   3.031 -0.9267 -0.7611 -0.3159
  417MOL0     H56270  13.208   1.856   2.903 -0.4721 -1.2851 -1.0102
  417MOL0     H56271  13.469   1.707   2.867  0.9292  0.0974 -0.7807
  417MOL0     H56272  13.371   1.778   2.736  1.3017 -3.2305 -0.2238
  417MOL0     H56273  13.399   2.012   2.844  1.1735  1.3429 -1.4660
  417MOL0     H56274  13.550   1.946   2.779  0.4064 -3.0124 -0.7181
  417MOL0     H56275  13.503   1.902   3.075  0.0749 -2.6256 -1.6433
  417MOL0     H56276  13.571   2.050   3.001  1.2705 -0.2795 -0.1123
  417MOL0     H56277  12.752   1.347   3.034  2.2779  1.7781  2.5508
  417MOL0     H56278  12.547   1.370   3.176  3.4573  0.3158  1.1066
  417MOL0     H56279  12.182   1.643   3.279  3.1261 -2.2113  5.2734
  417MOL0     H56280  12.019   1.666   3.427  2.0267 -1.1031  1.7575
  417MOL0     H56281  10.623   2.351   4.629 -0.6758 -0.2631  0.0548
  417MOL0     H56282  10.388   2.362   4.719 -1.1228  0.0394  2.2810
  417MOL0     H56283  10.110   2.436   5.166 -1.8832  1.1997 -1.2799
  417MOL0     H56284   9.921   2.371   5.316  0.7654 -1.6358  0.7536
  417MOL0     H56285   9.765   2.281   5.434  0.3754 -2.1298  0.4315
  417MOL0     H56286   9.651   2.361   5.326 -1.4508 -1.3591 -2.1529
  417MOL0     H56287   9.528   2.268   5.512  1.5798 -0.0931  1.6156
  417MOL0     H56288   9.572   2.108   5.470 -1.5856  0.1404  0.0488
  417MOL0     H56289   9.467   2.095   5.256 -0.4096  0.1089 -0.8395
  417MOL0     H56290   9.434   2.268   5.245  2.8151  1.5255  1.8005
  417MOL0     H56291   9.321   2.050   5.428  0.2744  1.5002  2.7066
  417MOL0     H56292   9.236   2.126   5.299  1.1666  0.5253 -0.8225
  417MOL0     H56293   9.199   2.365   5.664  1.2322 -0.2760 -0.0607
  417MOL0     H56294   9.824   2.035   5.095 -1.1106  0.2180  2.1900
  417MOL0     H56295  10.047   2.051   4.978 -3.5725 -2.0434  0.1161
  418MOL0     O56296  11.258   0.526   2.449 -0.9022  0.0218 -0.5218
  418MOL0     C56297  11.210   0.507   2.343  0.2480 -0.4101 -0.8423
  418MOL0     O56298  11.106   0.419   2.322  0.1674  0.3060 -1.2227
  418MOL0     C56299  11.033   0.363   2.429 -0.7848 -0.6929  0.5866
  418MOL0     C56300  10.892   0.385   2.444 -0.1958  0.0088  0.5102
  418MOL0     C56301  10.821   0.296   2.523  0.4168  0.1844 -0.1656
  418MOL0     C56302  10.879   0.183   2.584  0.1846 -0.4207  0.2478
  418MOL0     O56303  10.792   0.113   2.663 -0.2233 -0.5905 -0.2784
  418MOL0     C56304  10.851   0.002   2.735 -0.5758  0.9653 -0.0993
  418MOL0     C56305  10.758  -0.033   2.850 -0.4320 -0.6215 -0.2550
  418MOL0     C56306  10.638  -0.116   2.794 -0.8211  0.3805 -0.3894
  418MOL0     C56307  10.512  -0.104   2.878 -0.6057  0.1442  0.4743
  418MOL0     C56308  10.450   0.033   2.857  0.3848 -1.3783  1.1139
  418MOL0     C56309  10.325   0.052   2.944 -1.2202 -0.9249 -0.0857
  418MOL0     C56310  10.212  -0.039   2.915 -0.4679 -0.4529  0.2909
  418MOL0     C56311  10.118   0.004   2.803 -0.0480  0.0606 -0.1024
  418MOL0     N56312  10.002  -0.077   2.788  0.2696  0.2938 -0.0867
  418MOL0     C56313   9.883  -0.036   2.732 -0.2072 -0.6441 -0.2448
  418MOL0     C56314   9.807  -0.149   2.726 -0.0140 -0.0544 -0.2546
  418MOL0     C56315   9.688  -0.163   2.634 -0.6226 -0.0804 -0.4111
  418MOL0     C56316   9.613  -0.298   2.649 -0.3001  0.9039  0.8844
  418MOL0     C56317   9.530  -0.298   2.788 -0.7326 -0.5573  0.6058
  418MOL0     C56318   9.421  -0.406   2.787 -0.5690  0.6836  0.0171
  418MOL0     O56319   9.309  -0.360   2.718  0.8246 -0.7287 -0.0064
  418MOL0     C56320   9.200  -0.442   2.706  0.2814  0.1954 -0.2099
  418MOL0     C56321   9.191  -0.577   2.749 -0.1940  0.0801 -0.0558
  418MOL0     C56322   9.071  -0.658   2.746 -0.6052  0.2130 -0.3459
  418MOL0     C56323   9.080  -0.787   2.815 -0.2865  0.1553  0.0420
  418MOL0     C56324   8.956  -0.603   2.688 -0.8456 -0.5842  0.8218
  418MOL0     C56325   8.822  -0.669   2.673 -0.4825 -0.3528  0.0901
  418MOL0     O56326   8.749  -0.629   2.559  0.0025 -0.3189  0.5936
  418MOL0     C56327   8.613  -0.656   2.556 -0.5991  0.3741 -1.3458
  418MOL0     C56328   8.522  -0.632   2.668  0.3140  0.0098  0.1220
  418MOL0     C56329   8.386  -0.669   2.650 -0.8936  0.4636  0.3529
  418MOL0     C56330   8.342  -0.735   2.533 -0.8006 -0.9571 -0.5009
  418MOL0     O56331   8.208  -0.749   2.539  0.4222 -0.4848  0.3008
  418MOL0     C56332   8.141  -0.844   2.454  0.6821  0.1951 -0.5642
  418MOL0     C56333   8.135  -0.961   2.543  0.9573 -1.3159 -0.3892
  418MOL0     C56334   7.997  -1.022   2.531  0.8932  0.6985 -0.7917
  418MOL0     C56335   7.990  -1.161   2.597  0.8349 -0.0381 -0.3496
  418MOL0     C56336   7.848  -1.235   2.582  0.1957  0.2467 -0.2942
  418MOL0     C56337   7.862  -1.378   2.646  0.4233  0.6744 -0.1570
  418MOL0     C56338   7.745  -1.482   2.640  0.0798 -0.3346 -0.2232
  418MOL0     C56339   7.700  -1.536   2.504 -0.5650 -0.3882 -0.1189
  418MOL0    Cl56340   7.829  -1.622   2.410 -0.0788  0.0744  0.1666
  418MOL0     C56341   8.434  -0.767   2.434 -0.0921 -0.6881 -0.0722
  418MOL0     C56342   8.566  -0.725   2.441  0.2012  0.4470 -0.4900
  418MOL0     O56343   8.793  -0.757   2.752  0.7805  0.4075 -0.2336
  418MOL0     C56344   8.957  -0.465   2.645  0.7485  0.0726 -0.1808
  418MOL0     C56345   9.078  -0.387   2.655  0.6517  0.7340  0.2302
  418MOL0     N56346   9.878  -0.252   2.786 -0.1262  0.2455  0.9945
  418MOL0     N56347   9.995  -0.212   2.815  0.5219  0.1464  0.7951
  418MOL0     C56348  11.024   0.171   2.579  0.2334  0.4302 -0.2454
  418MOL0     C56349  11.092   0.250   2.492 -0.6968  0.3580  0.4442
  418MOL0     C56350  11.282   0.571   2.231 -0.0024  0.1669 -0.6762
  418MOL0     C56351  11.382   0.665   2.255  0.2033 -0.7962 -0.0396
  418MOL0     C56352  11.446   0.745   2.153 -1.1272 -0.0767 -0.2761
  418MOL0     C56353  11.387   0.748   2.036  0.0419  0.4355  0.3909
  418MOL0     O56354  11.410   0.842   1.940 -0.4682  0.3709  0.2399
  418MOL0     C56355  11.523   0.935   1.957  0.5317  0.7522  0.4661
  418MOL0     C56356  11.565   0.999   1.821  0.0380  0.7404 -0.2624
  418MOL0     C56357  11.576   0.905   1.698  0.0077  0.1640  0.4117
  418MOL0     C56358  11.447   0.848   1.642 -0.1866  0.2530 -0.3630
  418MOL0     C56359  11.462   0.828   1.503 -0.7942  0.6854  0.5678
  418MOL0     C56360  11.482   0.789   1.395 -0.3003 -1.5149  0.3039
  418MOL0     C56361  11.286   0.660   2.001  0.1033  0.0406  0.1334
  418MOL0     C56362  11.229   0.569   2.097  0.4950 -0.1066 -1.9632
  418MOL0     H56363  10.857   0.473   2.391  0.6679 -1.5396 -2.8468
  418MOL0     H56364  10.716   0.321   2.536  0.7220  1.2663  0.3395
  418MOL0     H56365  10.872  -0.088   2.675  0.9060  0.9459  0.4053
  418MOL0     H56366  10.946   0.018   2.787  0.2134  1.2825 -1.5525
  418MOL0     H56367  10.799  -0.101   2.924  0.0804 -0.7416 -0.6376
  418MOL0     H56368  10.741   0.065   2.895 -2.2867 -0.8541 -0.3789
  418MOL0     H56369  10.611  -0.084   2.694 -1.9100 -0.2255 -0.3088
  418MOL0     H56370  10.652  -0.225   2.788 -1.0155  0.2588  1.0101
  418MOL0     H56371  10.437  -0.182   2.860  1.1741 -2.4275  3.2417
  418MOL0     H56372  10.533  -0.117   2.985  2.7491  0.3566 -0.0602
  418MOL0     H56373  10.532   0.105   2.862 -0.6282  0.1591 -1.7926
  418MOL0     H56374  10.408   0.052   2.757  0.3968 -2.4691  0.8873
  418MOL0     H56375  10.356   0.039   3.048  0.9012  0.2186 -0.5109
  418MOL0     H56376  10.286   0.154   2.935  0.8757 -0.0231  0.3223
  418MOL0     H56377  10.246  -0.142   2.902  4.7789  0.9572  0.5200
  418MOL0     H56378  10.150  -0.049   3.005  1.6019  3.1347  2.3097
  418MOL0     H56379  10.177   0.008   2.711 -0.6626  3.7523 -0.4720
  418MOL0     H56380  10.082   0.102   2.832 -1.0429 -0.2312 -0.3279
  418MOL0     H56381   9.867   0.056   2.677 -2.2574 -1.3344 -0.9132
  418MOL0     H56382   9.620  -0.077   2.648  1.1589  1.1724  1.0917
  418MOL0     H56383   9.726  -0.146   2.533 -1.4854 -0.5154 -0.8233
  418MOL0     H56384   9.679  -0.385   2.643 -0.8505  0.5852 -2.0667
  418MOL0     H56385   9.547  -0.303   2.561  1.7749  1.1418 -0.7809
  418MOL0     H56386   9.483  -0.200   2.801  1.3390  0.1555  4.1009
  418MOL0     H56387   9.603  -0.303   2.870  0.9304 -2.9742 -0.8937
  418MOL0     H56388   9.412  -0.429   2.894  1.0484  1.3367  0.3366
  418MOL0     H56389   9.454  -0.493   2.731  1.0557  1.7882 -0.8320
  418MOL0     H56390   9.279  -0.629   2.783  0.1148 -0.0549 -1.0291
  418MOL0     H56391   9.022  -0.868   2.770  0.6320 -0.8764  0.6338
  418MOL0     H56392   9.180  -0.831   2.826  0.5501  1.4162 -1.9246
  418MOL0     H56393   9.031  -0.776   2.912  0.5634 -2.8049  0.9127
  418MOL0     H56394   8.561  -0.582   2.756  0.6534 -2.6863  1.6024
  418MOL0     H56395   8.304  -0.645   2.716 -1.1409  2.0061 -0.4663
  418MOL0     H56396   8.040  -0.810   2.430 -0.5674 -2.2577  0.8378
  418MOL0     H56397   8.198  -0.873   2.365  0.2597  0.4724 -0.9297
  418MOL0     H56398   8.214  -1.032   2.517  3.3612  1.6535 -1.8261
  418MOL0     H56399   8.140  -0.927   2.647 -1.1079  2.0314 -1.2244
  418MOL0     H56400   7.970  -1.033   2.426  0.4441 -4.0038 -0.4283
  418MOL0     H56401   7.920  -0.957   2.575 -1.4168 -0.4044 -2.9082
  418MOL0     H56402   8.069  -1.220   2.548 -1.2661 -1.8090 -1.7816
  418MOL0     H56403   8.022  -1.150   2.701  0.7484  2.9589 -0.5332
  418MOL0     H56404   7.821  -1.249   2.477  0.5990  3.5844 -0.9595
  418MOL0     H56405   7.769  -1.180   2.633 -0.7741 -0.2914 -1.1713
  418MOL0     H56406   7.944  -1.431   2.597  0.4935 -1.1391  1.7598
  418MOL0     H56407   7.882  -1.384   2.753 -1.9588 -2.6434  0.2817
  418MOL0     H56408   7.656  -1.444   2.691 -0.7124 -3.4978  0.9908
  418MOL0     H56409   7.782  -1.562   2.705  0.0756 -0.1172  0.0528
  418MOL0     H56410   7.673  -1.451   2.440  2.2199 -0.9303 -2.1919
  418MOL0     H56411   7.612  -1.598   2.522 -0.4135 -0.1393  1.7790
  418MOL0     H56412   8.412  -0.809   2.337 -0.1767  0.9033 -0.7735
  418MOL0     H56413   8.627  -0.750   2.355  0.2971 -0.5365 -0.1480
  418MOL0     H56414   8.867  -0.419   2.605 -0.1453 -2.2907 -1.0313
  418MOL0     H56415   9.071  -0.283   2.625  2.3398  0.3963 -1.5113
  418MOL0     H56416  11.089   0.102   2.632  0.0422  1.9835  2.1516
  418MOL0     H56417  11.197   0.223   2.487 -0.3277  1.9373 -1.1178
  418MOL0     H56418  11.422   0.681   2.355  0.9976  0.3684 -0.5201
  418MOL0     H56419  11.538   0.800   2.171 -0.3358 -1.1070 -1.0579
  418MOL0     H56420  11.505   1.021   2.022  2.2782  1.9350 -0.5513
  418MOL0     H56421  11.610   0.882   1.996  0.0872 -1.1345 -0.9416
  418MOL0     H56422  11.664   1.043   1.829 -0.5780  2.3725 -1.1738
  418MOL0     H56423  11.496   1.081   1.800  1.1523  1.5698 -0.7545
  418MOL0     H56424  11.640   0.821   1.722 -3.0829 -1.6233  3.2418
  418MOL0     H56425  11.622   0.966   1.620 -2.9339  0.1389 -1.5330
  418MOL0     H56426  11.354   0.901   1.660 -1.7890 -2.3437 -0.4151
  418MOL0     H56427  11.431   0.747   1.681 -2.8078  0.8318  0.2113
  418MOL0     H56428  11.497   0.760   1.293 -0.7403 -0.9877  0.0839
  418MOL0     H56429  11.239   0.668   1.904 -0.1243  0.7234  0.2919
  418MOL0     H56430  11.134   0.520   2.080 -1.5684  2.2849  1.3596
  419MOL0     O56431   8.912   5.615   4.465  0.0274  0.0034 -0.1832
  419MOL0     C56432   8.808   5.612   4.395 -0.2435  0.7125  0.2544
  419MOL0     O56433   8.783   5.697   4.289 -0.2195 -0.3515 -0.3964
  419MOL0     C56434   8.878   5.785   4.239  0.0675 -0.9307 -0.2318
  419MOL0     C56435   8.827   5.907   4.180 -0.7661 -0.1983 -0.4050
  419MOL0     C56436   8.914   5.997   4.112  0.1593 -0.2369 -0.1864
  419MOL0     C56437   9.054   5.965   4.092  0.2424 -0.4668  0.6042
  419MOL0     O56438   9.144   6.053   4.038  0.1089 -0.3550 -0.1802
  419MOL0     C56439   9.139   6.073   3.903  0.6315  0.0904  1.1798
  419MOL0     C56440   9.107   6.225   3.879 -0.4620 -0.3683 -0.9359
  419MOL0     C56441   9.132   6.262   3.734 -0.5108 -0.6465 -0.5813
  419MOL0     C56442   9.130   6.414   3.706 -0.5042  0.8800  0.0419
  419MOL0     C56443   9.157   6.443   3.559  0.7462 -0.3758  0.9715
  419MOL0     C56444   9.156   6.594   3.528  0.0218 -0.0885  0.1735
  419MOL0     C56445   9.284   6.670   3.536  0.7312  0.3705  0.5277
  419MOL0     C56446   9.267   6.821   3.547  0.3914  0.0707  0.5061
  419MOL0     N56447   9.202   6.882   3.427  0.0124  0.2416 -0.7671
  419MOL0     C56448   9.062   6.904   3.412 -1.3334  0.1886 -0.1625
  419MOL0     C56449   9.056   6.919   3.277  0.8502 -0.6539  0.7592
  419MOL0     C56450   8.922   6.932   3.193  0.3148  1.4558 -0.9299
  419MOL0     C56451   8.899   7.072   3.139  0.1332  0.0738 -0.5542
  419MOL0     C56452   8.903   7.173   3.247  0.1899 -0.9179 -0.9644
  419MOL0     C56453   8.910   7.314   3.193 -0.0541  0.3467  0.3595
  419MOL0     O56454   8.776   7.344   3.136 -0.4075 -0.6542  0.4537
  419MOL0     C56455   8.779   7.461   3.064 -1.3221 -0.2539  0.2689
  419MOL0     C56456   8.845   7.578   3.112 -0.4265 -0.3457  0.0915
  419MOL0     C56457   8.833   7.701   3.040 -0.3260  0.3664  0.5920
  419MOL0     C56458   8.884   7.826   3.105  0.8351 -0.3098 -0.5602
  419MOL0     C56459   8.774   7.699   2.914  1.1466 -0.4676  0.3897
  419MOL0     C56460   8.760   7.835   2.849 -0.1392 -0.2257 -0.1254
  419MOL0     O56461   8.871   7.895   2.801 -0.0921 -0.0924  0.0301
  419MOL0     C56462   8.866   8.024   2.757 -0.4701 -0.0454  0.4911
  419MOL0     C56463   8.983   8.067   2.702 -0.6200 -0.1924  0.0401
  419MOL0     C56464   9.013   8.204   2.674 -0.4607  1.4602 -0.0622
  419MOL0     C56465   8.919   8.297   2.688  0.4316  0.2292  0.0170
  419MOL0     O56466   8.960   8.418   2.655  0.0667  0.1420 -0.3159
  419MOL0     C56467   8.870   8.531   2.658 -0.1801  0.3797  0.7681
  419MOL0     C56468   8.926   8.635   2.759  0.0789 -0.1084  0.0779
  419MOL0     C56469   9.071   8.679   2.722 -0.6529 -0.4814 -0.0459
  419MOL0     C56470   9.122   8.799   2.802  0.6259  0.2707 -0.4251
  419MOL0     C56471   9.271   8.832   2.790 -0.0212 -0.9709 -0.0666
  419MOL0     C56472   9.306   8.902   2.659  0.0497 -0.4132  0.0622
  419MOL0     C56473   9.443   8.973   2.671 -0.1372  0.3590 -0.0486
  419MOL0     C56474   9.459   9.074   2.555 -0.4372  0.6915 -0.8828
  419MOL0    Cl56475   9.614   9.148   2.591  0.0161 -0.0177 -0.1492
  419MOL0     C56476   8.794   8.254   2.742 -0.8121  0.5653  0.4842
  419MOL0     C56477   8.766   8.124   2.773  1.0193  0.1410 -0.8543
  419MOL0     O56478   8.640   7.868   2.832 -0.1644 -0.7412 -0.2026
  419MOL0     C56479   8.712   7.580   2.862  0.5702 -1.0778 -0.7032
  419MOL0     C56480   8.714   7.467   2.942  0.4048  0.3758 -0.4936
  419MOL0     N56481   9.173   6.942   3.224 -0.2976 -0.2537  0.2156
  419MOL0     N56482   9.262   6.910   3.310 -0.5978  1.1873  0.0100
  419MOL0     C56483   9.099   5.846   4.154 -0.3502  0.1471  0.3004
  419MOL0     C56484   9.019   5.756   4.225 -0.7721 -0.3368 -0.2573
  419MOL0     C56485   8.706   5.521   4.438 -0.0349 -0.0528  0.7609
  419MOL0     C56486   8.572   5.548   4.410  0.1297  0.6235 -0.8906
  419MOL0     C56487   8.477   5.433   4.435 -0.9029  0.1479 -0.2560
  419MOL0     C56488   8.520   5.321   4.508 -0.4991  0.0858  0.0942
  419MOL0     O56489   8.435   5.217   4.530 -0.3845 -0.0568 -0.5586
  419MOL0     C56490   8.406   5.134   4.417  0.0349 -0.1863 -0.2635
  419MOL0     C56491   8.466   4.997   4.467  1.0630 -0.5716  0.2424
  419MOL0     C56492   8.447   4.900   4.355 -0.3405  0.6762 -0.0157
  419MOL0     C56493   8.514   4.763   4.391  0.4053 -0.4522 -0.8204
  419MOL0     C56494   8.433   4.677   4.484  0.0923  0.3240 -0.2672
  419MOL0     C56495   8.380   4.604   4.562  0.3206  0.4402 -0.6601
  419MOL0     C56496   8.654   5.301   4.536  0.2685 -0.1784  0.5691
  419MOL0     C56497   8.742   5.396   4.502 -0.5965 -0.1707  0.5488
  419MOL0     H56498   8.726   5.946   4.190 -0.9651 -0.6674 -0.5540
  419MOL0     H56499   8.878   6.095   4.082  2.7522  0.2964 -1.8789
  419MOL0     H56500   9.233   6.037   3.860 -0.8274 -5.1304  1.6672
  419MOL0     H56501   9.061   6.014   3.854 -0.0673  0.3510  1.9671
  419MOL0     H56502   9.006   6.233   3.919  0.2736 -2.0497  1.4582
  419MOL0     H56503   9.179   6.295   3.923  0.6712 -0.4014 -2.6228
  419MOL0     H56504   9.228   6.223   3.700  0.9108  1.8243  0.3618
  419MOL0     H56505   9.054   6.212   3.675 -1.0553  1.6173 -1.9410
  419MOL0     H56506   9.046   6.471   3.748 -0.0698  0.7883  1.0797
  419MOL0     H56507   9.220   6.453   3.754  1.1170 -3.8713  1.4108
  419MOL0     H56508   9.255   6.403   3.531  1.0709  1.6779 -1.1926
  419MOL0     H56509   9.073   6.393   3.509  0.4225 -0.7365  1.8653
  419MOL0     H56510   9.118   6.617   3.428  0.0967  0.1126  0.1904
  419MOL0     H56511   9.086   6.643   3.597  1.3367  1.7395  0.2960
  419MOL0     H56512   9.341   6.660   3.629  1.0589  1.6220  0.4831
  419MOL0     H56513   9.340   6.649   3.445 -1.0695 -0.6996 -0.3861
  419MOL0     H56514   9.370   6.857   3.552  1.4078 -2.5516 -0.1732
  419MOL0     H56515   9.214   6.854   3.637 -2.1566 -1.4134 -0.3610
  419MOL0     H56516   8.978   6.882   3.477 -0.2823  1.4195  1.7344
  419MOL0     H56517   8.899   6.846   3.130  1.5581 -0.7172  1.3678
  419MOL0     H56518   8.848   6.922   3.273 -0.6151 -0.6064 -1.9991
  419MOL0     H56519   8.794   7.069   3.108 -0.2754  0.0088  0.7722
  419MOL0     H56520   8.955   7.104   3.051 -0.9117  1.5847 -0.7117
  419MOL0     H56521   8.996   7.153   3.301 -1.0377  0.7474  1.9806
  419MOL0     H56522   8.815   7.159   3.311 -1.0980 -0.1801 -2.5074
  419MOL0     H56523   8.988   7.305   3.118 -0.0411 -2.3874  0.6173
  419MOL0     H56524   8.947   7.386   3.267  2.3806  0.1715 -0.6041
  419MOL0     H56525   8.900   7.581   3.206 -1.6562  0.6187  0.8190
  419MOL0     H56526   8.899   7.805   3.211 -0.8314 -0.2560 -0.2903
  419MOL0     H56527   8.979   7.862   3.064  0.9830  0.4781  0.4397
  419MOL0     H56528   8.815   7.910   3.096  0.9379  0.2194  2.5133
  419MOL0     H56529   9.057   7.990   2.684 -2.2602 -2.3328  1.8358
  419MOL0     H56530   9.118   8.226   2.656  0.3109  1.7379  3.8595
  419MOL0     H56531   8.877   8.569   2.555 -1.5588  3.0325  1.5681
  419MOL0     H56532   8.766   8.505   2.676 -0.2012 -1.1697 -1.1915
  419MOL0     H56533   8.873   8.731   2.758 -0.6110 -0.2813  3.8954
  419MOL0     H56534   8.915   8.584   2.855 -2.9793  1.5870  0.7669
  419MOL0     H56535   9.083   8.700   2.616  1.6989  1.0469  0.4418
  419MOL0     H56536   9.138   8.599   2.755 -0.1092  1.3995  4.1344
  419MOL0     H56537   9.070   8.896   2.797  0.7181  0.2846 -1.4191
  419MOL0     H56538   9.109   8.773   2.907 -0.1231  2.3696  0.0619
  419MOL0     H56539   9.333   8.744   2.811  2.1436  0.8225  1.6310
  419MOL0     H56540   9.281   8.908   2.868  0.3134 -1.1148  0.0357
  419MOL0     H56541   9.308   8.833   2.573  0.8685 -0.7200  0.3109
  419MOL0     H56542   9.219   8.965   2.641  0.1201 -0.5962 -1.0223
  419MOL0     H56543   9.521   8.896   2.665  2.4912  2.9177 -0.4289
  419MOL0     H56544   9.442   9.026   2.766 -1.8646  2.0263 -0.9282
  419MOL0     H56545   9.380   9.149   2.546 -2.1511 -1.2206 -3.1445
  419MOL0     H56546   9.460   9.023   2.458 -2.7285 -3.5588  1.0731
  419MOL0     H56547   8.717   8.331   2.744  1.4846  3.2083 -2.1768
  419MOL0     H56548   8.664   8.114   2.806  1.5967  0.4811  1.1556
  419MOL0     H56549   8.637   7.596   2.786 -0.2972  1.5246  0.5576
  419MOL0     H56550   8.655   7.380   2.912  0.3157  0.1344  0.3717
  419MOL0     H56551   9.206   5.828   4.159 -0.5634 -0.9465  1.2697
  419MOL0     H56552   9.078   5.682   4.278  1.5550  1.4288 -0.2207
  419MOL0     H56553   8.541   5.630   4.347 -0.2604  0.3893 -1.0048
  419MOL0     H56554   8.375   5.449   4.402 -1.0426 -2.2929 -1.1603
  419MOL0     H56555   8.298   5.130   4.404  0.0433 -0.4561 -0.2631
  419MOL0     H56556   8.452   5.163   4.322  0.6583  0.5649  0.2566
  419MOL0     H56557   8.405   4.961   4.551 -0.6258 -0.3143 -0.8186
  419MOL0     H56558   8.568   4.998   4.507  0.8753 -0.3223  0.7312
  419MOL0     H56559   8.480   4.943   4.260  0.8686  0.6948  0.3916
  419MOL0     H56560   8.343   4.874   4.334  0.4973 -3.5392  0.1810
  419MOL0     H56561   8.615   4.772   4.432  0.2526  1.2546 -0.7106
  419MOL0     H56562   8.530   4.714   4.295 -1.3873 -2.0904 -0.3451
  419MOL0     H56563   8.341   4.540   4.638  0.8454  1.3480  0.4091
  419MOL0     H56564   8.688   5.210   4.583 -0.1995 -1.1373 -0.8986
  419MOL0     H56565   8.845   5.372   4.528 -0.0228 -2.5904 -3.1767
  420MOL0     O56566   9.601   0.480   5.798  0.0155 -0.4254  0.7149
  420MOL0     C56567   9.522   0.403   5.749  0.7324 -0.1540  0.7005
  420MOL0     O56568   9.552   0.313   5.644 -0.5588 -0.2673  0.2953
  420MOL0     C56569   9.680   0.284   5.598  0.1248 -0.4100  0.3986
  420MOL0     C56570   9.680   0.189   5.498 -1.4121 -0.6900  0.6051
  420MOL0     C56571   9.803   0.136   5.451  0.1083 -0.0701  0.0892
  420MOL0     C56572   9.930   0.177   5.515  0.3141  0.6964 -0.9349
  420MOL0     O56573  10.047   0.132   5.467 -0.3526  0.3537 -0.3157
  420MOL0     C56574  10.090   0.178   5.332  0.7679 -0.1961 -0.1452
  420MOL0     C56575  10.218   0.118   5.270  0.7525 -0.0156 -0.3324
  420MOL0     C56576  10.191  -0.009   5.195 -0.4041 -0.0569 -0.6690
  420MOL0     C56577  10.320  -0.081   5.153  1.1869  0.9432  0.1789
  420MOL0     C56578  10.286  -0.164   5.024 -0.3286  0.1807 -0.7844
  420MOL0     C56579  10.390  -0.277   5.012  0.9258 -0.2743 -0.4607
  420MOL0     C56580  10.540  -0.240   4.967  0.6489 -1.3681 -0.0695
  420MOL0     C56581  10.556  -0.193   4.822  0.7465 -0.4120  0.0257
  420MOL0     N56582  10.558  -0.292   4.715  0.5812  0.5820  0.4361
  420MOL0     C56583  10.665  -0.374   4.701  0.0372  0.6993  0.0502
  420MOL0     C56584  10.644  -0.438   4.578 -0.0881  0.3460 -0.4132
  420MOL0     C56585  10.729  -0.555   4.522 -0.6465  0.3325 -0.2865
  420MOL0     C56586  10.878  -0.523   4.526 -0.3786 -0.7807  0.2922
  420MOL0     C56587  10.967  -0.628   4.452  0.8221 -0.1083 -0.2747
  420MOL0     C56588  11.111  -0.626   4.489 -0.4285  0.5089  0.1883
  420MOL0     O56589  11.184  -0.731   4.421  0.2843 -0.2738 -0.2082
  420MOL0     C56590  11.322  -0.731   4.437  0.0050 -0.8160 -0.1992
  420MOL0     C56591  11.388  -0.663   4.542  0.3661 -0.4308 -0.1914
  420MOL0     C56592  11.532  -0.653   4.551 -0.2921 -0.1880 -0.3479
  420MOL0     C56593  11.590  -0.578   4.677  0.2757 -0.0038  0.8931
  420MOL0     C56594  11.608  -0.718   4.447 -1.0212 -0.0705  0.9276
  420MOL0     C56595  11.757  -0.703   4.433  0.3483 -0.1406 -0.5662
  420MOL0     O56596  11.841  -0.636   4.525 -0.1135 -0.3086 -1.0545
  420MOL0     C56597  11.974  -0.612   4.493 -0.5062 -0.0199  0.3314
  420MOL0     C56598  12.012  -0.549   4.376  0.7441  0.2689  0.5015
  420MOL0     C56599  12.147  -0.537   4.354  0.8178 -0.4564 -0.0680
  420MOL0     C56600  12.243  -0.572   4.447 -0.0217 -0.2079  0.4095
  420MOL0     O56601  12.378  -0.549   4.430  0.8937  0.4396 -0.0501
  420MOL0     C56602  12.419  -0.509   4.295  0.4670 -0.2419 -0.0032
  420MOL0     C56603  12.420  -0.355   4.272  0.1376 -0.5374 -1.0606
  420MOL0     C56604  12.538  -0.318   4.182 -0.5411  0.1882  0.3638
  420MOL0     C56605  12.520  -0.390   4.044  0.4907  0.1413  0.2055
  420MOL0     C56606  12.651  -0.383   3.962  0.0441  0.3322 -0.4793
  420MOL0     C56607  12.749  -0.510   3.967  0.3755 -0.3839 -0.3394
  420MOL0     C56608  12.857  -0.516   3.866 -0.7373 -0.3561 -0.2449
  420MOL0     C56609  12.796  -0.482   3.723 -0.5514  0.1852 -0.1800
  420MOL0    Cl56610  12.922  -0.500   3.600 -0.1658  0.1571  0.0759
  420MOL0     C56611  12.211  -0.624   4.567 -0.2604 -0.4286 -0.2963
  420MOL0     C56612  12.072  -0.639   4.596 -0.5981 -0.5745  0.2704
  420MOL0     O56613  11.803  -0.751   4.325  0.2710  0.6559 -0.9932
  420MOL0     C56614  11.538  -0.795   4.349  0.1619  0.6596  0.1333
  420MOL0     C56615  11.402  -0.792   4.342  0.1896 -0.0210  0.2025
  420MOL0     N56616  10.532  -0.388   4.518  0.0819  0.2995  0.3602
  420MOL0     N56617  10.488  -0.298   4.596  0.6197  0.3091 -0.0338
  420MOL0     C56618   9.924   0.278   5.611 -0.4108  0.7916  0.2408
  420MOL0     C56619   9.798   0.320   5.662 -0.5796 -0.7840 -0.6376
  420MOL0     C56620   9.377   0.432   5.775  0.1098 -0.5054  0.0997
  420MOL0     C56621   9.276   0.372   5.698 -0.3252 -0.3726 -0.2866
  420MOL0     C56622   9.137   0.399   5.717 -0.1815  0.4961  0.3274
  420MOL0     C56623   9.093   0.496   5.813  0.7921 -0.7425 -0.6386
  420MOL0     O56624   8.959   0.512   5.831 -0.6251  1.0944 -0.2175
  420MOL0     C56625   8.918   0.614   5.923  0.6831 -0.0530 -0.0194
  420MOL0     C56626   8.760   0.610   5.916  0.0251 -0.4683 -0.3402
  420MOL0     C56627   8.716   0.736   6.001 -0.1221 -0.3271  0.1073
  420MOL0     C56628   8.567   0.758   5.989 -0.0420 -0.5219 -0.6347
  420MOL0     C56629   8.531   0.890   6.040  0.4857 -0.8187  0.2780
  420MOL0     C56630   8.518   1.008   6.077 -0.1663  0.3953 -0.4994
  420MOL0     C56631   9.191   0.571   5.874 -0.0140 -0.5337  0.2418
  420MOL0     C56632   9.334   0.540   5.862  0.6220 -0.7973 -0.3532
  420MOL0     H56633   9.582   0.169   5.454 -2.1932  0.8804  1.5453
  420MOL0     H56634   9.808   0.070   5.365 -4.3444 -0.5125 -0.0548
  420MOL0     H56635  10.011   0.147   5.263 -0.6640  2.1606  0.3301
  420MOL0     H56636  10.098   0.287   5.332 -1.3906  0.0460  1.9447
  420MOL0     H56637  10.253   0.197   5.202  0.8889 -1.0556 -1.5043
  420MOL0     H56638  10.291   0.107   5.351  0.6887  2.8193  0.2086
  420MOL0     H56639  10.126  -0.067   5.261 -0.5904  0.5575 -0.3004
  420MOL0     H56640  10.124   0.006   5.109 -0.8709 -4.5733 -1.3366
  420MOL0     H56641  10.403  -0.013   5.133  1.4755  1.1364  1.9271
  420MOL0     H56642  10.361  -0.136   5.238  3.2419  1.3399 -0.4862
  420MOL0     H56643  10.191  -0.212   5.047 -1.2791  3.6707  4.0301
  420MOL0     H56644  10.282  -0.115   4.926 -0.9487  1.5875 -0.0789
  420MOL0     H56645  10.399  -0.343   5.098 -0.9592 -0.3880 -0.3025
  420MOL0     H56646  10.342  -0.339   4.936 -0.5671 -0.1078  0.3136
  420MOL0     H56647  10.571  -0.158   5.033 -1.1970 -0.0889 -0.6820
  420MOL0     H56648  10.602  -0.328   4.981  0.8377 -1.1751  0.3193
  420MOL0     H56649  10.652  -0.139   4.820  0.2508  0.6671  2.3749
  420MOL0     H56650  10.494  -0.105   4.807  1.7206 -0.1257 -3.0174
  420MOL0     H56651  10.753  -0.380   4.765  0.5431  0.1478 -0.6843
  420MOL0     H56652  10.710  -0.645   4.581 -1.6450  0.9124  0.3120
  420MOL0     H56653  10.700  -0.582   4.420  1.9225  0.7042 -1.1649
  420MOL0     H56654  10.915  -0.511   4.629  1.9295  2.1652 -0.7548
  420MOL0     H56655  10.903  -0.427   4.480  2.3791 -1.1655  0.7802
  420MOL0     H56656  10.964  -0.621   4.342  2.9701 -2.3367 -0.5549
  420MOL0     H56657  10.934  -0.727   4.484  0.1789  0.0364 -0.4777
  420MOL0     H56658  11.111  -0.654   4.594 -1.0102 -0.1487  0.0211
  420MOL0     H56659  11.155  -0.526   4.488 -1.0645  0.8147  1.2220
  420MOL0     H56660  11.335  -0.608   4.619  1.6329  2.2143 -1.0894
  420MOL0     H56661  11.512  -0.580   4.754 -1.7463 -3.4501 -0.9910
  420MOL0     H56662  11.675  -0.643   4.702 -0.3632 -0.0116  3.3138
  420MOL0     H56663  11.634  -0.480   4.662  1.8200 -0.8244 -0.1502
  420MOL0     H56664  11.937  -0.524   4.302 -0.1994  1.0053  1.6695
  420MOL0     H56665  12.175  -0.490   4.261 -2.8041 -0.7559 -1.4512
  420MOL0     H56666  12.520  -0.548   4.285 -0.5517 -2.5787 -1.9360
  420MOL0     H56667  12.357  -0.570   4.230 -3.1135  3.6556 -0.7125
  420MOL0     H56668  12.335  -0.336   4.205 -0.4748  1.2998  0.1367
  420MOL0     H56669  12.412  -0.291   4.361  4.0905  1.3042 -1.8051
  420MOL0     H56670  12.638  -0.346   4.218 -0.0055  0.5162 -0.8132
  420MOL0     H56671  12.530  -0.210   4.167 -2.7597 -0.0355 -0.4842
  420MOL0     H56672  12.503  -0.498   4.056 -0.6780  0.2444 -0.3786
  420MOL0     H56673  12.432  -0.346   3.997  0.9689  0.7000 -0.1757
  420MOL0     H56674  12.711  -0.295   3.987 -1.6111  1.3282  0.1635
  420MOL0     H56675  12.622  -0.371   3.856  0.7172  1.1767 -0.5756
  420MOL0     H56676  12.787  -0.499   4.070 -0.9686  1.3219  0.0214
  420MOL0     H56677  12.689  -0.600   3.956  1.4557 -1.1246 -0.3213
  420MOL0     H56678  12.898  -0.617   3.858 -0.8373 -0.5653  1.4389
  420MOL0     H56679  12.936  -0.449   3.900  0.7119 -1.0607 -2.0821
  420MOL0     H56680  12.741  -0.388   3.711 -0.9977 -0.2305 -1.6534
  420MOL0     H56681  12.722  -0.562   3.715 -0.9584  0.5194  0.1933
  420MOL0     H56682  12.288  -0.628   4.643  0.1799  0.8290 -0.6387
  420MOL0     H56683  12.030  -0.673   4.690 -2.0622  1.8491  0.5587
  420MOL0     H56684  11.588  -0.856   4.274  1.4637  0.8057  0.8560
  420MOL0     H56685  11.347  -0.832   4.258  0.6719  2.2639 -1.2889
  420MOL0     H56686  10.020   0.317   5.643  0.8270  2.0098 -4.3073
  420MOL0     H56687   9.802   0.390   5.744  2.3492  1.4775 -2.4714
  420MOL0     H56688   9.313   0.308   5.619  1.4462  1.3934 -0.9436
  420MOL0     H56689   9.057   0.362   5.654  3.1184 -1.1541 -3.2361
  420MOL0     H56690   8.950   0.600   6.027 -1.3543 -0.7084  0.5763
  420MOL0     H56691   8.949   0.711   5.883 -2.5648 -0.6702 -4.8091
  420MOL0     H56692   8.721   0.519   5.961  3.0398 -0.2336  3.1555
  420MOL0     H56693   8.735   0.644   5.815  0.7977 -0.1673 -0.4379
  420MOL0     H56694   8.773   0.824   5.970 -1.2989  1.7642  3.4282
  420MOL0     H56695   8.743   0.717   6.105 -1.0043  0.5408  0.5064
  420MOL0     H56696   8.507   0.679   6.033 -1.7029  0.4424 -1.0922
  420MOL0     H56697   8.549   0.757   5.881  2.1132 -2.6759 -1.0638
  420MOL0     H56698   8.501   1.110   6.105 -1.2052 -0.6745  3.4282
  420MOL0     H56699   9.160   0.655   5.935 -1.8940  0.5832 -2.1019
  420MOL0     H56700   9.408   0.592   5.922 -0.9847 -1.6473  2.5668
  421MOL0     O56701   4.428   1.806   5.998  0.8059  0.1354  0.7566
  421MOL0     C56702   4.477   1.896   6.053  0.1216 -0.4723 -0.3281
  421MOL0     O56703   4.506   2.015   5.994 -0.3064 -0.3941 -0.3293
  421MOL0     C56704   4.449   2.050   5.877  0.0356 -0.0244 -0.2130
  421MOL0     C56705   4.525   2.137   5.802 -0.2883 -0.3618  0.4545
  421MOL0     C56706   4.473   2.173   5.676 -1.1207  0.7321  0.1969
  421MOL0     C56707   4.348   2.140   5.628  0.0925 -0.9213  0.1009
  421MOL0     O56708   4.301   2.177   5.511  0.1608 -0.5013  0.0698
  421MOL0     C56709   4.189   2.092   5.457  0.0562 -0.4631  0.2523
  421MOL0     C56710   4.170   2.140   5.312  0.0374  0.7486  0.3617
  421MOL0     C56711   4.043   2.071   5.249 -0.2285 -0.2317 -0.0226
  421MOL0     C56712   4.040   2.087   5.096  0.0357 -0.5335 -0.8321
  421MOL0     C56713   3.924   2.013   5.032  0.5237 -0.9076  0.7325
  421MOL0     C56714   3.780   2.058   5.086  0.2348 -0.3665  0.4507
  421MOL0     C56715   3.661   2.003   5.012 -0.8470 -0.8781 -0.1039
  421MOL0     C56716   3.666   1.850   5.001 -0.9354 -0.0417  1.0035
  421MOL0     N56717   3.552   1.789   4.937 -0.1055 -0.0112 -0.1149
  421MOL0     C56718   3.464   1.842   4.847  0.2905 -0.0394 -1.2401
  421MOL0     C56719   3.356   1.750   4.843 -1.2603 -0.2298 -0.3460
  421MOL0     C56720   3.220   1.786   4.785 -0.1927 -0.1207  0.4973
  421MOL0     C56721   3.150   1.657   4.734 -0.2089 -0.2227  0.0749
  421MOL0     C56722   3.007   1.694   4.666 -0.4125 -0.2633 -0.7011
  421MOL0     C56723   2.965   1.579   4.578 -0.4976  0.6234 -0.4353
  421MOL0     O56724   2.822   1.584   4.554  0.0837  0.6855  0.6699
  421MOL0     C56725   2.744   1.467   4.532 -0.3966 -0.5416 -0.3266
  421MOL0     C56726   2.604   1.476   4.559 -0.1168  0.6930 -0.0767
  421MOL0     C56727   2.517   1.366   4.552 -0.0767 -0.0834  0.4644
  421MOL0     C56728   2.379   1.399   4.604  0.3222  1.2784  0.0717
  421MOL0     C56729   2.566   1.242   4.522 -0.3161  0.2336  0.8945
  421MOL0     C56730   2.478   1.128   4.518 -0.3077 -1.1199 -0.8490
  421MOL0     O56731   2.344   1.136   4.525  0.6807  0.1635  0.4629
  421MOL0     C56732   2.275   1.016   4.528 -0.4318  0.2590 -0.4499
  421MOL0     C56733   2.244   0.934   4.425  1.1189 -0.0931  0.4053
  421MOL0     C56734   2.181   0.810   4.442  0.2603  0.3825 -0.5621
  421MOL0     C56735   2.161   0.769   4.569 -0.0596 -0.2016 -0.9285
  421MOL0     O56736   2.105   0.652   4.608 -0.0840  0.0546  0.2175
  421MOL0     C56737   2.070   0.557   4.506 -0.5774  0.4102  0.0273
  421MOL0     C56738   2.202   0.489   4.466 -0.3978  0.3977 -0.3607
  421MOL0     C56739   2.176   0.356   4.394  0.4937  0.2223  0.1182
  421MOL0     C56740   2.189   0.230   4.479 -0.6741  0.3628  0.8800
  421MOL0     C56741   2.152   0.109   4.393 -0.2550 -0.4905  0.8383
  421MOL0     C56742   2.187  -0.006   4.485  0.2795  0.3968 -0.3937
  421MOL0     C56743   2.147  -0.150   4.456 -0.6610  0.4665 -0.5452
  421MOL0     C56744   2.176  -0.251   4.570  0.4586 -0.0849  1.1047
  421MOL0    Cl56745   2.150  -0.425   4.512  0.0479 -0.1895  0.7383
  421MOL0     C56746   2.183   0.854   4.673  0.0964 -0.0186 -0.0279
  421MOL0     C56747   2.231   0.983   4.648  0.8095  1.0020 -0.3829
  421MOL0     O56748   2.539   1.024   4.534  0.3153  0.4167 -0.3311
  421MOL0     C56749   2.704   1.232   4.489  0.1758  1.0497  0.8316
  421MOL0     C56750   2.795   1.339   4.498 -0.6544 -0.2275 -0.8986
  421MOL0     N56751   3.403   1.637   4.903 -0.0872 -0.0106 -0.3885
  421MOL0     N56752   3.522   1.669   4.955 -0.2347 -0.1250  0.4386
  421MOL0     C56753   4.268   2.073   5.723  0.4942  0.0630 -0.7218
  421MOL0     C56754   4.316   2.019   5.839  0.0346 -0.5797  0.3904
  421MOL0     C56755   4.534   1.873   6.186 -0.0590 -0.0367 -0.3478
  421MOL0     C56756   4.582   1.746   6.217  0.3102  0.0949 -0.3980
  421MOL0     C56757   4.628   1.720   6.351 -1.0166  1.0201 -0.2281
  421MOL0     C56758   4.633   1.821   6.448  0.2814 -0.6349 -0.2953
  421MOL0     O56759   4.686   1.817   6.568  0.1435  0.7698 -0.0838
  421MOL0     C56760   4.730   1.691   6.623 -0.0878  0.6515 -0.7033
  421MOL0     C56761   4.872   1.644   6.581  0.0884  0.1106 -0.6300
  421MOL0     C56762   4.903   1.526   6.672  0.4945  0.5774 -0.3790
  421MOL0     C56763   5.035   1.459   6.637 -0.4863  0.6358  0.3792
  421MOL0     C56764   5.152   1.544   6.621  0.1784 -0.5571 -0.0567
  421MOL0     C56765   5.242   1.621   6.646  0.1063 -0.3476 -0.2566
  421MOL0     C56766   4.608   1.954   6.402 -0.0075  0.1599  0.5290
  421MOL0     C56767   4.564   1.984   6.267 -1.0309 -0.4359 -0.3156
  421MOL0     H56768   4.625   2.160   5.839  0.1975 -1.9421  0.1789
  421MOL0     H56769   4.551   2.223   5.620  3.3277 -2.7590  2.6907
  421MOL0     H56770   4.205   1.984   5.463 -2.0638 -0.9460 -1.4160
  421MOL0     H56771   4.103   2.114   5.521 -0.0927  1.8141 -0.6206
  421MOL0     H56772   4.153   2.248   5.309  2.4762  1.1577 -1.4708
  421MOL0     H56773   4.262   2.108   5.262 -0.2316  1.5573 -0.6931
  421MOL0     H56774   4.050   1.964   5.271 -1.3529 -0.0259  1.5181
  421MOL0     H56775   3.957   2.097   5.312 -0.7993 -2.6366  0.2864
  421MOL0     H56776   4.032   2.193   5.068 -0.1344 -0.8265 -1.9230
  421MOL0     H56777   4.135   2.059   5.051  0.9425  2.8987 -1.3183
  421MOL0     H56778   3.921   2.024   4.923 -3.5736 -1.1302  0.6665
  421MOL0     H56779   3.941   1.907   5.052 -1.4537 -2.4169 -4.1366
  421MOL0     H56780   3.762   2.027   5.190 -1.1340  1.3743  0.7788
  421MOL0     H56781   3.777   2.167   5.091 -2.5659 -0.1134 -2.9432
  421MOL0     H56782   3.568   2.044   5.054  0.3514 -0.0063  1.8668
  421MOL0     H56783   3.666   2.021   4.905  4.3171 -4.7567 -0.9008
  421MOL0     H56784   3.677   1.815   5.104 -0.6343  1.9499  1.6901
  421MOL0     H56785   3.752   1.821   4.940 -0.8455  1.9362  0.0957
  421MOL0     H56786   3.453   1.944   4.813 -2.0576  0.0558 -0.3957
  421MOL0     H56787   3.156   1.837   4.857 -2.0374 -1.6096 -0.0118
  421MOL0     H56788   3.228   1.853   4.699  0.4804  0.8420  1.2890
  421MOL0     H56789   3.143   1.576   4.806  0.1503 -0.2581  0.0721
  421MOL0     H56790   3.207   1.625   4.646 -2.1520 -2.0585 -0.5942
  421MOL0     H56791   3.018   1.782   4.602  0.0385 -0.8108 -1.3866
  421MOL0     H56792   2.930   1.716   4.741 -1.0974 -2.7218 -0.6054
  421MOL0     H56793   2.975   1.483   4.631 -3.9768  0.6708  0.5503
  421MOL0     H56794   3.019   1.574   4.483  1.9275 -0.1559  0.8880
  421MOL0     H56795   2.573   1.568   4.607  2.5348  0.1044  3.1308
  421MOL0     H56796   2.346   1.333   4.685 -0.4560  3.5644  1.7534
  421MOL0     H56797   2.378   1.502   4.643  0.3390  0.8683  1.1980
  421MOL0     H56798   2.302   1.383   4.529 -1.1329 -0.4990  1.8324
  421MOL0     H56799   2.299   0.955   4.334  0.5506  1.5444  0.4092
  421MOL0     H56800   2.173   0.746   4.354  2.6138 -2.4172  1.0806
  421MOL0     H56801   2.000   0.480   4.541  1.1982 -1.0223  0.6117
  421MOL0     H56802   2.026   0.598   4.415  0.2775  0.2207 -0.4858
  421MOL0     H56803   2.261   0.557   4.404 -1.0564 -0.0431 -1.5319
  421MOL0     H56804   2.271   0.465   4.547  1.5519 -0.0545 -2.0604
  421MOL0     H56805   2.250   0.345   4.315 -1.8910  0.7260 -2.3214
  421MOL0     H56806   2.075   0.341   4.355  0.7246  2.6028 -1.6104
  421MOL0     H56807   2.294   0.226   4.508  0.3645  0.3932 -2.5016
  421MOL0     H56808   2.140   0.236   4.577  1.8832 -0.0493  2.2677
  421MOL0     H56809   2.212   0.120   4.302 -1.8972 -0.4935 -0.2853
  421MOL0     H56810   2.043   0.099   4.388 -0.5988  1.6307  2.4153
  421MOL0     H56811   2.295   0.002   4.500  0.4849  1.6860 -2.1892
  421MOL0     H56812   2.145   0.011   4.584  1.3880 -1.5691  0.4627
  421MOL0     H56813   2.216  -0.175   4.374  2.3062 -0.0743  1.9499
  421MOL0     H56814   2.047  -0.180   4.424 -1.6297  0.7067  2.0575
  421MOL0     H56815   2.097  -0.223   4.641 -2.0723  2.3363 -2.3152
  421MOL0     H56816   2.276  -0.239   4.611  0.7727 -0.4594  0.4565
  421MOL0     H56817   2.171   0.826   4.777 -0.0984  3.6809  1.0858
  421MOL0     H56818   2.238   1.056   4.728  0.8329 -1.5663  2.0985
  421MOL0     H56819   2.745   1.134   4.467 -1.4794  0.8039 -1.5198
  421MOL0     H56820   2.900   1.325   4.474 -0.8060 -0.5108 -1.4350
  421MOL0     H56821   4.161   2.058   5.715  0.5618  0.5661 -3.7942
  421MOL0     H56822   4.254   1.962   5.908  0.8668 -2.4859 -0.3566
  421MOL0     H56823   4.563   1.662   6.151 -0.1308  0.6541 -1.0002
  421MOL0     H56824   4.677   1.625   6.368  0.8617  1.1739 -3.8103
  421MOL0     H56825   4.739   1.705   6.731  1.3596  1.0108 -0.8602
  421MOL0     H56826   4.668   1.603   6.602 -1.1105  1.4359 -1.0695
  421MOL0     H56827   4.954   1.714   6.602 -0.4002  0.6795 -0.5773
  421MOL0     H56828   4.878   1.610   6.478 -1.2966  1.0193 -1.0370
  421MOL0     H56829   4.821   1.454   6.676  0.1502  0.8682 -1.6683
  421MOL0     H56830   4.917   1.565   6.773  1.4391 -0.9809  0.1428
  421MOL0     H56831   5.022   1.389   6.554  0.5320  0.9213 -0.0435
  421MOL0     H56832   5.058   1.399   6.726  2.2451  1.2560  0.1753
  421MOL0     H56833   5.330   1.680   6.663  0.6570 -1.2514  0.1786
  421MOL0     H56834   4.627   2.037   6.469  0.5361  1.8124 -1.5571
  421MOL0     H56835   4.539   2.084   6.234  0.2880  0.4794  1.2970
  422MOL0     O56836   6.592   9.424   9.951  0.1502 -0.3162  0.8656
  422MOL0     C56837   6.486   9.392   9.898 -0.0112  0.4234 -0.3496
  422MOL0     O56838   6.464   9.273   9.834 -0.1019 -0.6381  0.2097
  422MOL0     C56839   6.565   9.193   9.805  0.0100 -0.3557 -0.2115
  422MOL0     C56840   6.703   9.217   9.773  0.4605 -0.1584 -0.8508
  422MOL0     C56841   6.793   9.104   9.744  0.0067  0.0389 -0.5101
  422MOL0     C56842   6.742   8.974   9.722  0.5194 -0.2263 -0.2552
  422MOL0     O56843   6.831   8.879   9.682  0.4518 -0.4968  0.1656
  422MOL0     C56844   6.763   8.788   9.592 -0.1151  0.0826  0.9209
  422MOL0     C56845   6.853   8.710   9.512  0.3751 -0.0812  0.5638
  422MOL0     C56846   6.779   8.592   9.444 -0.5310 -0.6995 -0.2013
  422MOL0     C56847   6.888   8.523   9.365 -0.2194  0.2299  0.8471
  422MOL0     C56848   6.837   8.390   9.290  0.8386 -0.3837  0.6431
  422MOL0     C56849   6.956   8.305   9.239  0.3403 -0.2505  0.4362
  422MOL0     C56850   6.908   8.181   9.157 -0.3726  0.8429 -0.5898
  422MOL0     C56851   7.029   8.108   9.107  0.0354 -0.4799  0.5346
  422MOL0     N56852   7.094   8.031   9.211 -0.1294 -0.3635  0.1063
  422MOL0     C56853   7.026   7.940   9.292 -0.5031 -0.4005  0.6463
  422MOL0     C56854   7.129   7.871   9.348  0.3135 -0.2033 -0.5503
  422MOL0     C56855   7.128   7.742   9.423  0.7056 -0.7923  0.5134
  422MOL0     C56856   7.096   7.621   9.341 -1.6756  0.4846  0.2244
  422MOL0     C56857   7.144   7.497   9.423  1.2417  0.2548 -0.5786
  422MOL0     C56858   7.076   7.483   9.563  0.4606 -0.6035 -0.0203
  422MOL0     O56859   6.967   7.400   9.540 -0.2590 -0.1493  0.1836
  422MOL0     C56860   6.901   7.348   9.652 -1.2345  0.3357 -0.0967
  422MOL0     C56861   6.915   7.397   9.783  0.3666 -0.9263 -0.0127
  422MOL0     C56862   6.847   7.359   9.895 -0.9240 -0.8654 -0.1491
  422MOL0     C56863   6.884   7.427  10.024 -0.0257  0.2700  0.4716
  422MOL0     C56864   6.750   7.264   9.881  0.3322  0.2028 -0.4657
  422MOL0     C56865   6.671   7.223   9.993  1.1434 -0.6137  0.4707
  422MOL0     O56866   6.611   7.097   9.962 -0.4724 -0.4403  0.2583
  422MOL0     C56867   6.500   7.076  10.038 -0.2567  1.0066  0.2068
  422MOL0     C56868   6.475   6.945  10.083 -0.3399  0.7018  0.1417
  422MOL0     C56869   6.369   6.915  10.166 -0.2062  0.8160 -1.0079
  422MOL0     C56870   6.280   7.020  10.206 -1.3439 -1.0313  0.8786
  422MOL0     O56871   6.187   7.004  10.300 -1.0253  0.3413 -0.1161
  422MOL0     C56872   6.177   6.884  10.380 -0.2103 -0.4994 -0.2181
  422MOL0     C56873   6.249   6.882  10.522  0.4566 -0.2573  0.2523
  422MOL0     C56874   6.258   7.014  10.607 -0.2074  0.6861 -0.5439
  422MOL0     C56875   6.140   7.031  10.703  0.1777  0.5301  0.1237
  422MOL0     C56876   6.162   7.124  10.818  0.0887  0.2306 -0.3087
  422MOL0     C56877   6.029   7.171  10.878  0.3480  0.2638 -0.4703
  422MOL0     C56878   6.067   7.290  10.969 -0.9013 -0.0971 -0.1281
  422MOL0     C56879   5.969   7.345  11.061 -0.1065  0.4501 -0.6167
  422MOL0    Cl56880   5.931   7.222  11.184  0.3821 -0.2490  0.1208
  422MOL0     C56881   6.288   7.146  10.149  0.3920 -0.1832  0.5708
  422MOL0     C56882   6.397   7.172  10.063 -0.7888  0.7590 -0.7359
  422MOL0     O56883   6.673   7.274  10.106 -0.2294  0.0121 -0.7960
  422MOL0     C56884   6.725   7.212   9.745 -0.3374  0.0648 -0.3471
  422MOL0     C56885   6.805   7.255   9.636  0.2897 -0.1106 -0.2214
  422MOL0     N56886   7.251   7.936   9.313 -0.1806  0.3804 -0.0186
  422MOL0     N56887   7.229   8.032   9.227  1.0677  0.6281 -0.3752
  422MOL0     C56888   6.609   8.963   9.761  0.8029  0.3034 -0.3669
  422MOL0     C56889   6.521   9.061   9.797  0.4011 -0.1624 -0.2841
  422MOL0     C56890   6.372   9.470   9.919 -0.2869 -0.0011  0.6603
  422MOL0     C56891   6.390   9.597   9.977  0.8067  0.2326 -0.4438
  422MOL0     C56892   6.288   9.679  10.033  0.3173 -0.4943  0.2434
  422MOL0     C56893   6.161   9.640   9.988  0.6593  0.3919 -0.5762
  422MOL0     O56894   6.046   9.696  10.032  0.2471 -0.3100  1.2839
  422MOL0     C56895   5.992   9.668  10.156  0.1073 -0.2161  0.3229
  422MOL0     C56896   6.020   9.773  10.265 -0.8225  0.1208  0.6481
  422MOL0     C56897   5.949   9.713  10.393 -0.0093  0.6130  0.2476
  422MOL0     C56898   5.791   9.703  10.397 -0.2459 -0.9718  0.1752
  422MOL0     C56899   5.708   9.810  10.435  0.1939 -0.4782 -0.1022
  422MOL0     C56900   5.617   9.895  10.459 -0.9198  0.4158 -0.9740
  422MOL0     C56901   6.142   9.524   9.908  1.0179 -0.0976 -0.7082
  422MOL0     C56902   6.247   9.435   9.882  0.0768 -0.2318 -0.4191
  422MOL0     H56903   6.733   9.321   9.782 -4.5367  1.4922 -0.3271
  422MOL0     H56904   6.900   9.117   9.736 -0.0928  0.7360 -0.7442
  422MOL0     H56905   6.700   8.723   9.652  0.3575 -0.0997  1.2204
  422MOL0     H56906   6.697   8.846   9.526  0.3265  0.1426  0.5236
  422MOL0     H56907   6.889   8.775   9.431 -2.3844  0.9637  0.0524
  422MOL0     H56908   6.934   8.675   9.576 -0.7268 -2.8992  0.5620
  422MOL0     H56909   6.757   8.514   9.518 -2.0299 -0.3142 -0.2072
  422MOL0     H56910   6.690   8.627   9.390  0.0318  1.6814  0.3062
  422MOL0     H56911   6.934   8.588   9.290 -1.5651 -1.5295 -1.6506
  422MOL0     H56912   6.967   8.486   9.432 -1.5142 -2.0706  1.2380
  422MOL0     H56913   6.771   8.324   9.347  0.6027 -3.6348 -2.9763
  422MOL0     H56914   6.799   8.415   9.191  1.9000 -1.1517  0.0227
  422MOL0     H56915   7.018   8.366   9.173 -0.9934  1.1891  0.4452
  422MOL0     H56916   7.024   8.266   9.316  3.4484 -0.6317 -2.3111
  422MOL0     H56917   6.850   8.112   9.219 -1.3025  1.3053 -0.9325
  422MOL0     H56918   6.847   8.205   9.070 -0.5354 -4.6624 -2.4175
  422MOL0     H56919   7.098   8.186   9.074 -1.7656 -0.6320 -4.3428
  422MOL0     H56920   7.014   8.036   9.026  0.5228 -1.0541  0.9463
  422MOL0     H56921   6.918   7.935   9.290 -0.9228  3.9451 -2.4076
  422MOL0     H56922   7.226   7.741   9.473  0.7361  1.7042  0.6165
  422MOL0     H56923   7.052   7.757   9.500  0.0233  2.2888 -0.6073
  422MOL0     H56924   7.155   7.620   9.249 -1.3130 -1.1274  0.4427
  422MOL0     H56925   6.993   7.618   9.304 -0.0620  0.6922 -4.9939
  422MOL0     H56926   7.253   7.496   9.420  1.2433 -1.4028 -2.6088
  422MOL0     H56927   7.121   7.405   9.368  1.9995 -0.4374  0.2312
  422MOL0     H56928   7.046   7.581   9.600 -0.7634 -0.6631 -0.7914
  422MOL0     H56929   7.149   7.445   9.636 -1.2598 -0.2421  1.9898
  422MOL0     H56930   6.983   7.481   9.791 -1.5460  0.5706  1.7156
  422MOL0     H56931   6.984   7.467  10.005 -0.0905 -0.7646 -2.7046
  422MOL0     H56932   6.811   7.500  10.060  0.0695 -0.0277  1.2793
  422MOL0     H56933   6.896   7.358  10.108  3.3126  0.7117  0.4879
  422MOL0     H56934   6.552   6.873  10.056 -1.8243 -0.5865 -0.8018
  422MOL0     H56935   6.362   6.816  10.209  1.0755  2.4004  3.3268
  422MOL0     H56936   6.072   6.882  10.413  0.2797 -2.6449  1.4371
  422MOL0     H56937   6.181   6.792  10.321  0.2629 -0.6224  0.0036
  422MOL0     H56938   6.209   6.799  10.581  0.5267 -0.4925 -0.0287
  422MOL0     H56939   6.349   6.839  10.515  0.6994 -0.4144  3.1812
  422MOL0     H56940   6.270   7.095  10.535 -1.2213 -0.4501 -2.0753
  422MOL0     H56941   6.345   7.017  10.673 -0.8182 -2.7752  0.6671
  422MOL0     H56942   6.053   7.060  10.644  0.0058  0.9685  0.5878
  422MOL0     H56943   6.109   6.935  10.746  2.3810  1.4314  4.2680
  422MOL0     H56944   6.227   7.205  10.782  1.5020 -1.4090 -1.6066
  422MOL0     H56945   6.221   7.069  10.892 -0.4834 -2.4243 -1.7076
  422MOL0     H56946   5.959   7.205  10.802  1.4356  0.4228 -1.4271
  422MOL0     H56947   5.976   7.095  10.936 -0.2456  0.7240 -0.3963
  422MOL0     H56948   6.106   7.370  10.906  0.6072  0.1638  1.0903
  422MOL0     H56949   6.143   7.252  11.039 -2.6094 -0.6389  1.5247
  422MOL0     H56950   5.876   7.379  11.015 -2.7944 -0.8950  3.2834
  422MOL0     H56951   6.004   7.430  11.120  1.1456 -1.1543  1.0726
  422MOL0     H56952   6.212   7.222  10.163 -0.9333 -1.3858  0.1897
  422MOL0     H56953   6.410   7.276  10.038  0.2861  1.0698  0.9703
  422MOL0     H56954   6.642   7.144   9.732 -0.2476  0.4161 -3.5525
  422MOL0     H56955   6.785   7.212   9.539  0.7212 -1.8524  0.4166
  422MOL0     H56956   6.569   8.863   9.768  3.5749 -0.9445 -0.9419
  422MOL0     H56957   6.434   9.023   9.849 -0.2178 -1.3364 -2.0671
  422MOL0     H56958   6.489   9.640   9.988  2.6689 -2.7082 -3.6579
  422MOL0     H56959   6.295   9.770  10.091 -2.7813  1.6255 -2.2982
  422MOL0     H56960   5.885   9.666  10.134  0.0592  1.8182  0.1686
  422MOL0     H56961   6.017   9.565  10.180 -0.4328 -0.3115  0.4935
  422MOL0     H56962   5.973   9.868  10.237  0.5693 -0.1805 -3.2634
  422MOL0     H56963   6.127   9.789  10.278 -1.1893  2.8955  0.7983
  422MOL0     H56964   5.990   9.778  10.471  0.3026  0.0764  0.5362
  422MOL0     H56965   5.988   9.612  10.408 -0.3696  0.8414  3.2349
  422MOL0     H56966   5.767   9.624  10.469  1.6324 -0.4335  1.5003
  422MOL0     H56967   5.763   9.679  10.294  2.4173 -3.3343 -0.1230
  422MOL0     H56968   5.538   9.964  10.478 -1.5050 -0.2530 -0.9227
  422MOL0     H56969   6.044   9.500   9.867  0.5069  0.7342 -0.0073
  422MOL0     H56970   6.216   9.344   9.833  0.0540  0.8316 -2.4530
  423MOL0     O56971  10.273   9.349   7.499 -0.1517  0.3352  0.0645
  423MOL0     C56972  10.164   9.309   7.451  0.0995  0.4019  0.2058
  423MOL0     O56973  10.113   9.174   7.454 -0.3069 -0.3077 -0.0008
  423MOL0     C56974  10.177   9.067   7.515 -0.4457 -0.7886  0.5300
  423MOL0     C56975  10.287   9.074   7.596 -0.3085  0.0076 -0.0049
  423MOL0     C56976  10.349   8.954   7.645 -0.8004 -0.6170 -0.5677
  423MOL0     C56977  10.294   8.831   7.619 -0.1468 -0.3647 -1.2044
  423MOL0     O56978  10.363   8.719   7.675  0.2638 -0.2447 -0.0890
  423MOL0     C56979  10.330   8.582   7.641 -0.3835 -0.7470  0.2727
  423MOL0     C56980  10.398   8.494   7.745 -0.6379  0.1534 -0.1641
  423MOL0     C56981  10.370   8.344   7.728 -0.2588  1.7249  0.5123
  423MOL0     C56982  10.402   8.283   7.589 -0.2172  0.9210 -0.0987
  423MOL0     C56983  10.379   8.129   7.569 -0.1767  0.0848  0.3483
  423MOL0     C56984  10.501   8.047   7.609 -0.3194 -1.0459  0.4052
  423MOL0     C56985  10.479   7.898   7.615  0.3608 -0.0500  0.4614
  423MOL0     C56986  10.437   7.847   7.474 -0.1925 -0.0636  0.3675
  423MOL0     N56987  10.545   7.870   7.370 -1.3743 -0.2128  0.9658
  423MOL0     C56988  10.679   7.860   7.384 -0.1565 -0.1888  0.5835
  423MOL0     C56989  10.730   7.845   7.257  0.0366  0.5479 -0.2245
  423MOL0     C56990  10.873   7.806   7.233 -0.1260  0.2160 -0.0926
  423MOL0     C56991  10.913   7.666   7.265 -0.5373  0.3464  0.3493
  423MOL0     C56992  10.798   7.573   7.243  0.4900  0.1934 -0.4515
  423MOL0     C56993  10.859   7.433   7.269 -0.2022  0.7648  0.1046
  423MOL0     O56994  10.798   7.332   7.179 -0.0641  0.0926 -0.3667
  423MOL0     C56995  10.867   7.277   7.075 -0.2169  0.3724  0.4460
  423MOL0     C56996  10.917   7.151   7.079 -0.5643  0.1626  0.4510
  423MOL0     C56997  10.987   7.093   6.963 -0.1756 -1.5209 -0.5167
  423MOL0     C56998  11.021   6.950   6.964  0.2128  0.5404 -0.3262
  423MOL0     C56999  11.002   7.174   6.850 -0.5171  0.8459 -0.5320
  423MOL0     C57000  11.068   7.119   6.732  0.9453 -0.0026  0.7059
  423MOL0     O57001  11.021   7.160   6.615  0.0816 -0.1564 -0.7815
  423MOL0     C57002  11.056   7.099   6.495  0.5756  0.2786  0.1515
  423MOL0     C57003  11.046   7.183   6.378 -0.7451  0.0097  1.4073
  423MOL0     C57004  11.066   7.127   6.247  0.5314 -0.2288 -0.0031
  423MOL0     C57005  11.108   6.987   6.233  0.8300  0.1379  0.4738
  423MOL0     O57006  11.125   6.914   6.112 -0.0387  0.8640  0.5424
  423MOL0     C57007  11.112   6.985   5.989 -0.7101 -0.5322  0.5977
  423MOL0     C57008  11.173   6.900   5.874 -0.4826  0.3848 -0.3039
  423MOL0     C57009  11.108   6.766   5.841 -0.0862 -0.1927 -0.3777
  423MOL0     C57010  11.210   6.660   5.809  0.4905  0.7072  0.0238
  423MOL0     C57011  11.152   6.526   5.782 -0.8093  1.2472  0.1023
  423MOL0     C57012  11.275   6.439   5.746  0.2561  0.3292  0.7603
  423MOL0     C57013  11.216   6.302   5.710 -0.2320  0.1980 -0.3912
  423MOL0     C57014  11.322   6.193   5.699 -0.5530  0.0680 -1.0037
  423MOL0    Cl57015  11.429   6.223   5.564  0.4384 -0.1146  0.3074
  423MOL0     C57016  11.123   6.917   6.352  0.2134 -0.0162  0.5274
  423MOL0     C57017  11.085   6.967   6.479  0.1626  0.8637  0.4301
  423MOL0     O57018  11.166   7.053   6.744  0.2549 -0.2495 -0.2007
  423MOL0     C57019  10.943   7.300   6.840  0.0133  0.7729  0.2635
  423MOL0     C57020  10.887   7.352   6.960  0.2006  0.2866 -0.0290
  423MOL0     N57021  10.628   7.861   7.154  0.5988  0.1145 -0.5355
  423MOL0     N57022  10.518   7.856   7.235  0.1241  0.3209  0.3939
  423MOL0     C57023  10.189   8.819   7.535 -0.4800 -0.2992 -0.5136
  423MOL0     C57024  10.135   8.932   7.484 -0.0531 -1.0113  0.0953
  423MOL0     C57025  10.073   9.415   7.391 -0.1060 -0.5360 -0.7613
  423MOL0     C57026   9.942   9.386   7.346 -0.2346 -0.6440 -1.1790
  423MOL0     C57027   9.863   9.491   7.304 -0.6592 -0.6587  0.0016
  423MOL0     C57028   9.911   9.627   7.299  0.1751 -0.1489  0.4657
  423MOL0     O57029   9.845   9.743   7.271 -0.8246 -1.0179  0.5561
  423MOL0     C57030   9.716   9.731   7.216  0.2032 -0.2408  0.4884
  423MOL0     C57031   9.730   9.686   7.072  0.8344 -0.2024 -1.0120
  423MOL0     C57032   9.590   9.678   7.006  0.0080 -0.3433 -0.2988
  423MOL0     C57033   9.573   9.621   6.864 -0.0309 -0.1188 -0.1025
  423MOL0     C57034   9.429   9.622   6.821  0.1178  0.3018  0.4176
  423MOL0     C57035   9.313   9.613   6.779 -0.8912  0.8316  0.4093
  423MOL0     C57036  10.043   9.651   7.337  0.1548 -0.6030 -0.5750
  423MOL0     C57037  10.125   9.542   7.373  0.7324 -0.0567 -0.5583
  423MOL0     H57038  10.337   9.163   7.632  3.1329 -1.8388  0.1258
  423MOL0     H57039  10.441   8.967   7.703  0.6490  0.6836 -2.9861
  423MOL0     H57040  10.225   8.553   7.632 -0.1477 -1.8943  1.0695
  423MOL0     H57041  10.376   8.570   7.542 -0.5215  3.0091 -0.3869
  423MOL0     H57042  10.505   8.515   7.736 -0.7829 -0.0712 -4.6479
  423MOL0     H57043  10.372   8.522   7.847 -0.1693  3.6691 -0.8837
  423MOL0     H57044  10.417   8.284   7.807  0.0230 -1.0795 -1.6163
  423MOL0     H57045  10.266   8.316   7.747 -0.3487  0.0925 -1.9022
  423MOL0     H57046  10.347   8.348   7.520  0.9564  3.8984  1.5921
  423MOL0     H57047  10.507   8.298   7.563 -0.6535  2.1366 -1.2404
  423MOL0     H57048  10.282   8.103   7.613 -0.1047  0.3496  0.6675
  423MOL0     H57049  10.361   8.127   7.461 -1.1613  0.7141  0.4859
  423MOL0     H57050  10.590   8.071   7.549 -0.1920  0.5953  1.1934
  423MOL0     H57051  10.535   8.083   7.707  0.9040 -1.5895  0.1948
  423MOL0     H57052  10.567   7.850   7.661  0.8372  2.1009  1.9544
  423MOL0     H57053  10.396   7.868   7.680 -0.5041  3.1540  0.9712
  423MOL0     H57054  10.344   7.895   7.441 -0.3493 -1.0344 -0.6394
  423MOL0     H57055  10.415   7.740   7.472 -1.7579  0.2535 -0.9285
  423MOL0     H57056  10.731   7.852   7.479  0.7163 -1.6221  0.0262
  423MOL0     H57057  10.884   7.836   7.128 -1.1882  0.9214 -0.0238
  423MOL0     H57058  10.934   7.881   7.285 -2.0806  1.5410  0.4293
  423MOL0     H57059  10.936   7.673   7.372 -3.5006  0.2214  1.0903
  423MOL0     H57060  10.994   7.647   7.194 -2.1733  1.8509 -2.0868
  423MOL0     H57061  10.750   7.585   7.145 -2.5193 -2.0609  0.6137
  423MOL0     H57062  10.718   7.585   7.316 -3.5392 -3.5406 -3.7413
  423MOL0     H57063  10.847   7.413   7.376 -2.0946  2.6476  0.3111
  423MOL0     H57064  10.965   7.426   7.243 -0.4683 -4.8405 -0.8767
  423MOL0     H57065  10.909   7.089   7.168  2.7137  0.7069  1.2495
  423MOL0     H57066  10.971   6.894   7.043  1.6153 -1.2046 -0.5996
  423MOL0     H57067  10.987   6.904   6.870 -0.2587 -0.3251  0.2560
  423MOL0     H57068  11.128   6.926   6.974  0.1265  0.0977 -0.4315
  423MOL0     H57069  11.019   7.288   6.382 -0.5301  0.2525 -1.6630
  423MOL0     H57070  11.052   7.195   6.164  0.9416  1.1596  1.0061
  423MOL0     H57071  11.005   7.001   5.971 -0.4837 -0.1118 -0.4096
  423MOL0     H57072  11.161   7.083   5.995 -2.0082  0.1972 -0.2598
  423MOL0     H57073  11.177   6.952   5.778  1.6115 -0.3433 -0.6722
  423MOL0     H57074  11.281   6.894   5.895 -0.5043 -0.9390 -0.4962
  423MOL0     H57075  11.045   6.780   5.752  0.4965 -0.1671 -0.7902
  423MOL0     H57076  11.056   6.741   5.934 -1.2263  4.1508  0.3907
  423MOL0     H57077  11.259   6.689   5.716 -3.0493  0.0871 -2.2156
  423MOL0     H57078  11.273   6.653   5.898  0.5788  1.9582  0.0729
  423MOL0     H57079  11.074   6.538   5.706 -0.4054  0.6085 -0.4162
  423MOL0     H57080  11.100   6.490   5.872 -2.7131  0.4934 -1.2395
  423MOL0     H57081  11.335   6.490   5.670  2.0988 -1.3020  1.0345
  423MOL0     H57082  11.328   6.428   5.841  1.9622 -0.1253 -0.1982
  423MOL0     H57083  11.161   6.308   5.615  2.3643 -0.2038 -2.0270
  423MOL0     H57084  11.153   6.261   5.789  0.3033 -1.9747 -1.0156
  423MOL0     H57085  11.276   6.094   5.696  1.3806 -0.9704  0.9757
  423MOL0     H57086  11.390   6.196   5.785 -0.3488 -1.1651 -1.1017
  423MOL0     H57087  11.165   6.818   6.336 -0.3136 -0.0850 -0.4835
  423MOL0     H57088  11.082   6.899   6.564  1.3346  0.7540  0.4037
  423MOL0     H57089  10.934   7.360   6.750 -5.3771 -1.5020 -1.1053
  423MOL0     H57090  10.838   7.448   6.954  0.4380  0.5978  2.0906
  423MOL0     H57091  10.142   8.724   7.510  3.6427 -3.4501  2.4021
  423MOL0     H57092  10.042   8.918   7.430 -1.5916 -2.9658  3.0135
  423MOL0     H57093   9.907   9.284   7.339  0.0448 -0.8116 -0.2084
  423MOL0     H57094   9.765   9.466   7.264 -0.7294 -0.9044  0.3229
  423MOL0     H57095   9.635   9.677   7.268 -0.5528 -1.0752 -1.4625
  423MOL0     H57096   9.682   9.835   7.211  1.1745  0.0106 -2.5857
  423MOL0     H57097   9.771   9.585   7.069  0.0214 -0.5229 -2.4891
  423MOL0     H57098   9.792   9.757   7.017  2.0531  0.4889  1.1184
  423MOL0     H57099   9.546   9.778   7.013  0.4672 -0.0730 -1.0793
  423MOL0     H57100   9.539   9.612   7.076 -1.2851  3.9425  3.3097
  423MOL0     H57101   9.619   9.522   6.863 -0.8554 -0.5223  1.1037
  423MOL0     H57102   9.627   9.680   6.789 -1.9566 -0.8847 -2.1853
  423MOL0     H57103   9.217   9.598   6.733 -1.0186 -1.1526  1.2107
  423MOL0     H57104  10.067   9.756   7.351  0.4725 -0.6009 -1.0994
  423MOL0     H57105  10.229   9.569   7.389  0.5424  0.2103  0.2841
  424MOL0     O57106   0.251   1.009  10.324 -0.7126 -0.2155  0.1790
  424MOL0     C57107   0.332   1.021  10.421 -0.2415  1.0738  0.1391
  424MOL0     O57108   0.449   1.100  10.427  0.2688  0.0194  0.1670
  424MOL0     C57109   0.499   1.164  10.323 -0.1219 -0.2762 -0.5741
  424MOL0     C57110   0.630   1.207  10.348  0.1502 -0.6693  0.5957
  424MOL0     C57111   0.697   1.280  10.257  0.1044 -0.3613  0.7322
  424MOL0     C57112   0.633   1.326  10.137 -0.1805 -0.4421 -0.3747
  424MOL0     O57113   0.705   1.412  10.064 -0.1124 -0.6977 -0.0491
  424MOL0     C57114   0.639   1.493   9.970  0.6708 -0.3866 -0.0633
  424MOL0     C57115   0.733   1.608   9.937  0.2288  0.3782  0.6847
  424MOL0     C57116   0.674   1.669   9.805  0.1018 -0.5365 -0.5001
  424MOL0     C57117   0.748   1.800   9.776  0.4729 -0.5779  0.5640
  424MOL0     C57118   0.868   1.763   9.691  0.5767 -0.4901  0.5734
  424MOL0     C57119   0.927   1.894   9.641 -0.5619 -0.7139  0.0674
  424MOL0     C57120   1.076   1.873   9.596 -0.6445 -0.1476 -0.4360
  424MOL0     C57121   1.139   2.010   9.558  0.6074  0.2843 -0.0825
  424MOL0     N57122   1.279   1.997   9.525 -0.6790 -0.3518 -0.1220
  424MOL0     C57123   1.344   1.907   9.444 -0.1922 -0.0347  0.6139
  424MOL0     C57124   1.467   1.967   9.433  0.1167  0.1535  0.5227
  424MOL0     C57125   1.588   1.917   9.355 -0.1243 -1.0425  0.2347
  424MOL0     C57126   1.634   2.017   9.246  0.0645 -0.1744  0.2431
  424MOL0     C57127   1.697   2.150   9.296  0.9351 -0.1671 -0.1085
  424MOL0     C57128   1.802   2.214   9.216 -0.1670  0.2767  0.4032
  424MOL0     O57129   1.857   2.327   9.287  0.8159  0.0830  0.0585
  424MOL0     C57130   1.934   2.425   9.233  0.2657 -0.5449 -0.5195
  424MOL0     C57131   1.950   2.547   9.291 -0.2336 -0.4689 -0.5185
  424MOL0     C57132   2.019   2.654   9.231  1.1645  0.4573  0.2544
  424MOL0     C57133   2.004   2.777   9.315 -0.1027 -1.0140  0.3458
  424MOL0     C57134   2.096   2.620   9.111 -0.2946  0.4510  0.9519
  424MOL0     C57135   2.173   2.717   9.031 -0.7686 -0.5798  0.6408
  424MOL0     O57136   2.229   2.673   8.912 -0.0698 -0.3965  0.7718
  424MOL0     C57137   2.341   2.721   8.860 -0.4245  0.7574 -0.1154
  424MOL0     C57138   2.449   2.779   8.933  0.1334  0.1385 -0.2690
  424MOL0     C57139   2.566   2.816   8.871  0.2476 -0.2904  0.4061
  424MOL0     C57140   2.594   2.796   8.734  0.9672 -0.5278  0.7910
  424MOL0     O57141   2.713   2.830   8.676  0.4118 -0.2800  0.1025
  424MOL0     C57142   2.780   2.945   8.726  0.0889 -0.8456 -0.5984
  424MOL0     C57143   2.695   3.081   8.696  0.8055 -0.3271  0.1776
  424MOL0     C57144   2.686   3.108   8.544 -0.0710 -0.1421 -0.2321
  424MOL0     C57145   2.641   3.249   8.505  0.6742 -0.3701  0.2000
  424MOL0     C57146   2.742   3.357   8.525  0.5561  0.0633  0.3597
  424MOL0     C57147   2.700   3.491   8.465  0.0348 -0.6661  0.0486
  424MOL0     C57148   2.561   3.554   8.520  0.6509  0.9681  0.4360
  424MOL0     C57149   2.534   3.706   8.520  0.5911 -0.1542  0.0637
  424MOL0    Cl57150   2.613   3.806   8.401 -0.5465  0.3802 -0.0993
  424MOL0     C57151   2.488   2.729   8.661 -0.5621  0.0630  0.3669
  424MOL0     C57152   2.368   2.685   8.725 -0.4072 -0.2351  0.7277
  424MOL0     O57153   2.189   2.823   9.082  0.0780 -0.1363 -0.3418
  424MOL0     C57154   2.086   2.489   9.057 -0.6292 -0.5206 -1.3055
  424MOL0     C57155   1.991   2.399   9.109  0.0008  0.2160 -0.1598
  424MOL0     N57156   1.474   2.079   9.507  0.2447  0.2336 -0.0225
  424MOL0     N57157   1.358   2.099   9.561  0.2185  0.8985 -0.4214
  424MOL0     C57158   0.503   1.285  10.114  0.4337  0.1940  0.2532
  424MOL0     C57159   0.431   1.197  10.197 -0.1465 -0.2439  0.2999
  424MOL0     C57160   0.312   0.935  10.539  0.5049 -0.0722  0.6222
  424MOL0     C57161   0.202   0.850  10.567 -0.2231 -0.9073  0.5290
  424MOL0     C57162   0.212   0.749  10.667  0.7850  0.7584 -0.3852
  424MOL0     C57163   0.323   0.745  10.748  0.1156 -0.1705 -0.2001
  424MOL0     O57164   0.329   0.663  10.860 -0.0981 -0.9008 -0.1784
  424MOL0     C57165   0.243   0.542  10.874  0.2912  0.7498 -0.6940
  424MOL0     C57166   0.306   0.429  10.940 -0.4629 -0.7266  0.0971
  424MOL0     C57167   0.207   0.306  10.931  0.1966 -0.4005 -0.3942
  424MOL0     C57168   0.284   0.182  10.986 -0.1598  0.1952  0.2514
  424MOL0     C57169   0.395   0.162  10.889  0.1453 -0.0655  0.5084
  424MOL0     C57170   0.474   0.120  10.814 -0.9264 -0.2130 -0.0152
  424MOL0     C57171   0.430   0.828  10.720  0.4763 -0.2839  0.2187
  424MOL0     C57172   0.421   0.920  10.621 -0.0204 -0.2441  0.0004
  424MOL0     H57173   0.684   1.181  10.439  0.2036  2.3364  1.5271
  424MOL0     H57174   0.803   1.302  10.270  0.6154 -0.2534 -2.6375
  424MOL0     H57175   0.612   1.433   9.883 -2.9026 -0.6471  1.0711
  424MOL0     H57176   0.542   1.529  10.005  1.3741  0.3144  1.2627
  424MOL0     H57177   0.762   1.672  10.021  0.8098  0.5262  0.3775
  424MOL0     H57178   0.829   1.562   9.911  1.0248  1.7030  1.1594
  424MOL0     H57179   0.684   1.599   9.722  0.4431  0.6309 -1.4704
  424MOL0     H57180   0.571   1.702   9.824  0.5034  1.1858 -1.1730
  424MOL0     H57181   0.685   1.874   9.724  1.5586 -0.9986 -1.4488
  424MOL0     H57182   0.782   1.851   9.867 -0.5490  0.2266  0.5257
  424MOL0     H57183   0.944   1.727   9.761 -1.5472 -0.3471  3.1051
  424MOL0     H57184   0.841   1.694   9.610 -2.4407  1.4497 -0.2216
  424MOL0     H57185   0.869   1.924   9.554 -2.1397 -2.1557  0.5648
  424MOL0     H57186   0.915   1.977   9.712 -0.6030  0.5839 -1.4115
  424MOL0     H57187   1.128   1.839   9.686  1.3952  3.3704 -0.0964
  424MOL0     H57188   1.069   1.807   9.510 -2.7641  0.2854 -0.6584
  424MOL0     H57189   1.118   2.081   9.638  1.4035 -1.2847  1.5683
  424MOL0     H57190   1.079   2.037   9.470 -1.4340 -0.9088  0.8569
  424MOL0     H57191   1.298   1.819   9.399 -0.2006 -1.3016  2.9337
  424MOL0     H57192   1.663   1.872   9.420  0.3392 -0.9305 -0.2209
  424MOL0     H57193   1.550   1.832   9.298 -1.7885 -0.5592  0.5580
  424MOL0     H57194   1.549   2.054   9.188  0.9905  2.3511  0.3452
  424MOL0     H57195   1.704   1.960   9.185  0.1417  0.5785 -0.3870
  424MOL0     H57196   1.744   2.131   9.393 -0.0063  3.1455  1.1450
  424MOL0     H57197   1.614   2.220   9.310 -0.4302 -1.6054 -0.7306
  424MOL0     H57198   1.766   2.230   9.114  0.8596 -2.1829 -0.4381
  424MOL0     H57199   1.886   2.146   9.198 -0.3355 -0.4183  2.0548
  424MOL0     H57200   1.891   2.570   9.380 -0.4508  3.8153 -1.5505
  424MOL0     H57201   2.089   2.787   9.383  0.2219 -1.1631 -0.0343
  424MOL0     H57202   2.007   2.859   9.243 -0.2855 -1.9668 -0.7760
  424MOL0     H57203   1.909   2.785   9.369  0.9251 -1.4585  2.3011
  424MOL0     H57204   2.440   2.813   9.036  0.5082  1.1668 -0.5688
  424MOL0     H57205   2.641   2.861   8.935 -0.8356 -0.3659  1.7668
  424MOL0     H57206   2.821   2.937   8.827  0.8920 -3.6945 -1.0674
  424MOL0     H57207   2.871   2.950   8.665 -0.4513 -0.9743 -1.4292
  424MOL0     H57208   2.593   3.081   8.735 -1.0248  0.3875 -4.1171
  424MOL0     H57209   2.745   3.165   8.747  0.6479  0.3451 -0.7560
  424MOL0     H57210   2.617   3.036   8.498 -1.3374  0.6389  0.4063
  424MOL0     H57211   2.785   3.088   8.503  0.6930 -1.0956  1.9161
  424MOL0     H57212   2.611   3.238   8.401  1.5781 -2.2796  0.1076
  424MOL0     H57213   2.549   3.268   8.563  0.7759  4.7595 -0.8523
  424MOL0     H57214   2.838   3.327   8.483  2.0487  2.2421  2.0548
  424MOL0     H57215   2.762   3.366   8.632  2.1802 -1.4390  0.2292
  424MOL0     H57216   2.775   3.562   8.499 -0.5547 -0.1917  0.3715
  424MOL0     H57217   2.708   3.488   8.356 -1.7526 -2.0737 -0.0963
  424MOL0     H57218   2.549   3.540   8.628  4.4437  2.2664  1.1753
  424MOL0     H57219   2.493   3.514   8.444  1.5858  3.5807 -1.9388
  424MOL0     H57220   2.563   3.740   8.620  2.1166 -2.3427  0.4391
  424MOL0     H57221   2.428   3.723   8.500  0.0151 -2.7955  0.4788
  424MOL0     H57222   2.508   2.696   8.560 -0.7368 -1.0909  0.6962
  424MOL0     H57223   2.287   2.635   8.674  0.4866  1.0945 -2.2256
  424MOL0     H57224   2.145   2.461   8.970 -2.4732  1.2871 -3.2391
  424MOL0     H57225   1.984   2.300   9.065  1.7694  0.1868 -0.4639
  424MOL0     H57226   0.445   1.329  10.033 -0.6567 -2.1666 -0.3465
  424MOL0     H57227   0.328   1.180  10.166  0.1893  1.4843 -2.0739
  424MOL0     H57228   0.123   0.850  10.493 -0.8521  3.9774  0.8664
  424MOL0     H57229   0.125   0.686  10.684 -0.6610  2.0714 -2.4337
  424MOL0     H57230   0.152   0.563  10.930 -0.0533  2.9394 -1.9471
  424MOL0     H57231   0.207   0.511  10.775 -1.8357  0.5698  0.0883
  424MOL0     H57232   0.332   0.452  11.044 -4.8215  0.5627  1.0929
  424MOL0     H57233   0.396   0.408  10.882  2.3538  3.3045  2.4776
  424MOL0     H57234   0.169   0.308  10.828 -2.8869 -0.5390  0.6486
  424MOL0     H57235   0.122   0.325  10.997  0.3122  0.6208 -0.5245
  424MOL0     H57236   0.217   0.096  10.979  0.3189 -0.3068  1.5869
  424MOL0     H57237   0.319   0.178  11.089 -0.0678  2.9757  0.4216
  424MOL0     H57238   0.544   0.088  10.739  1.7337 -0.2844  2.2991
  424MOL0     H57239   0.516   0.820  10.785  0.7334  0.3774 -0.0318
  424MOL0     H57240   0.502   0.987  10.596 -0.8472  0.4833 -0.7984
  425MOL0     O57241   9.498   0.071   5.131  0.0675  0.1602 -0.0565
  425MOL0     C57242   9.538   0.046   5.021 -0.6272 -0.5112 -1.3884
  425MOL0     O57243   9.464  -0.021   4.918 -0.0647 -0.0543  0.1314
  425MOL0     C57244   9.343  -0.074   4.949 -0.7436  0.4405 -0.5214
  425MOL0     C57245   9.229  -0.019   4.887  0.4162  0.0131  0.2036
  425MOL0     C57246   9.111  -0.092   4.909  0.7957 -0.8805  0.1067
  425MOL0     C57247   9.093  -0.205   4.991  0.1584 -0.0765  1.1334
  425MOL0     O57248   8.966  -0.261   4.994  0.2999 -0.5018 -0.7998
  425MOL0     C57249   8.957  -0.407   4.996 -0.2553 -0.6700 -1.1005
  425MOL0     C57250   8.819  -0.438   5.055  0.4052  0.4758  0.3333
  425MOL0     C57251   8.807  -0.585   5.110  0.1448  0.5861  0.0153
  425MOL0     C57252   8.780  -0.695   5.005  0.4072  0.8369  0.5041
  425MOL0     C57253   8.660  -0.669   4.914  0.3535 -0.9292 -0.3192
  425MOL0     C57254   8.527  -0.637   4.992 -0.5944  0.2887 -0.6388
  425MOL0     C57255   8.400  -0.641   4.908 -0.8478 -0.5088  0.7059
  425MOL0     C57256   8.380  -0.771   4.835  0.3003  0.4545  0.7465
  425MOL0     N57257   8.282  -0.756   4.720  0.6581 -0.7314 -0.4940
  425MOL0     C57258   8.146  -0.729   4.727 -0.0609 -0.9427 -0.2152
  425MOL0     C57259   8.101  -0.727   4.603 -0.0128 -0.2049 -0.0800
  425MOL0     C57260   7.966  -0.688   4.554 -0.1143  0.9616 -0.9382
  425MOL0     C57261   7.952  -0.552   4.481 -0.6902  0.0814  0.1450
  425MOL0     C57262   8.011  -0.434   4.557 -0.6193  0.0888  0.2607
  425MOL0     C57263   8.039  -0.308   4.465  0.2318  1.6414 -0.3655
  425MOL0     O57264   7.927  -0.268   4.389 -0.0484  0.4810 -0.0890
  425MOL0     C57265   7.812  -0.217   4.453 -0.2813  0.5228 -0.4337
  425MOL0     C57266   7.809  -0.128   4.566 -0.1380 -0.3619  0.5161
  425MOL0     C57267   7.694  -0.076   4.621 -0.4707 -0.8666 -0.0435
  425MOL0     C57268   7.706   0.028   4.731  0.3773 -0.0272  0.0566
  425MOL0     C57269   7.568  -0.112   4.555 -0.7414 -0.0805  0.3382
  425MOL0     C57270   7.448  -0.037   4.582 -0.2455  0.4229 -1.0663
  425MOL0     O57271   7.355  -0.039   4.483 -0.5538  0.1616  0.6587
  425MOL0     C57272   7.236   0.011   4.517 -0.1913 -0.0253 -0.3037
  425MOL0     C57273   7.138  -0.070   4.581 -0.0732 -0.5727 -0.2264
  425MOL0     C57274   7.013  -0.019   4.611  0.0575  0.0346 -0.2636
  425MOL0     C57275   6.983   0.111   4.578  1.0434  0.0430  0.3778
  425MOL0     O57276   6.860   0.165   4.591  0.5144  0.5076  0.2560
  425MOL0     C57277   6.752   0.098   4.668 -0.1009 -0.3295  0.6959
  425MOL0     C57278   6.623   0.169   4.648 -0.0105  0.0803  0.3908
  425MOL0     C57279   6.505   0.131   4.747 -0.5341  0.1208  0.3831
  425MOL0     C57280   6.383   0.216   4.748 -0.7266 -0.0899  0.0538
  425MOL0     C57281   6.283   0.187   4.864  0.3822  0.1066 -0.3643
  425MOL0     C57282   6.177   0.079   4.821 -0.1435  0.1551 -0.1401
  425MOL0     C57283   6.046   0.081   4.906 -0.7706 -0.1707  0.7397
  425MOL0     C57284   5.926   0.018   4.832 -0.4444 -0.2818 -0.1823
  425MOL0    Cl57285   5.866   0.142   4.712  0.3467  0.4198 -0.4866
  425MOL0     C57286   7.084   0.195   4.513  1.1328  0.1964 -1.0298
  425MOL0     C57287   7.214   0.142   4.487  0.6696 -0.1070 -0.6083
  425MOL0     O57288   7.428   0.011   4.694 -0.2999  0.4370  0.3582
  425MOL0     C57289   7.572  -0.214   4.449  0.1266 -0.1349  0.5462
  425MOL0     C57290   7.689  -0.262   4.404  0.5127  0.2168 -0.2522
  425MOL0     N57291   8.203  -0.772   4.522 -0.5586 -0.1182 -0.0962
  425MOL0     N57292   8.312  -0.771   4.592 -1.3280 -0.6032  0.6688
  425MOL0     C57293   9.208  -0.247   5.058  0.5267 -0.5417  0.1709
  425MOL0     C57294   9.331  -0.180   5.038 -0.4181  0.4629 -0.2147
  425MOL0     C57295   9.674   0.111   4.983  0.0351 -0.7611 -0.0160
  425MOL0     C57296   9.708   0.107   4.848  1.1343 -0.0322 -0.1198
  425MOL0     C57297   9.835   0.150   4.806  0.0688  0.0184  0.3048
  425MOL0     C57298   9.928   0.212   4.894 -0.3036  0.2201  0.1827
  425MOL0     O57299  10.049   0.267   4.839  0.2564  0.1124 -0.7736
  425MOL0     C57300  10.094   0.249   4.708 -0.1950  0.2803 -0.7367
  425MOL0     C57301  10.240   0.305   4.698 -0.0679 -0.5181 -0.3229
  425MOL0     C57302  10.358   0.233   4.753  0.3961  0.6541 -0.9463
  425MOL0     C57303  10.360   0.218   4.912  0.0289  0.2551 -0.7850
  425MOL0     C57304  10.491   0.154   4.949  0.8501 -0.0751  0.0445
  425MOL0     C57305  10.583   0.108   5.010  0.5319  0.0520 -0.0196
  425MOL0     C57306   9.890   0.225   5.030 -0.4575 -0.2230  0.3150
  425MOL0     C57307   9.763   0.174   5.072 -0.2501 -0.4122  0.4008
  425MOL0     H57308   9.234   0.063   4.816  1.8165 -1.1530 -1.1307
  425MOL0     H57309   9.026  -0.061   4.848 -0.3429 -1.7867  1.1887
  425MOL0     H57310   8.960  -0.460   4.900 -2.6325  0.4969 -1.8915
  425MOL0     H57311   9.033  -0.451   5.061 -0.5233  0.3952 -0.0487
  425MOL0     H57312   8.811  -0.371   5.141  2.2626  0.2589  0.7189
  425MOL0     H57313   8.746  -0.419   4.976  2.8229  1.9960 -1.7041
  425MOL0     H57314   8.892  -0.620   5.169 -0.8608 -0.4589  0.8970
  425MOL0     H57315   8.726  -0.587   5.183  0.0822 -1.4635 -0.0521
  425MOL0     H57316   8.872  -0.708   4.948  0.7243 -0.7703  1.3072
  425MOL0     H57317   8.767  -0.787   5.063 -0.8895  1.9979  2.1592
  425MOL0     H57318   8.686  -0.585   4.850  3.6544 -0.1572  1.7598
  425MOL0     H57319   8.658  -0.766   4.863  3.6309 -1.7864  0.9020
  425MOL0     H57320   8.510  -0.710   5.072  1.8554 -1.4568 -1.6013
  425MOL0     H57321   8.524  -0.538   5.039 -1.1190  0.3412 -0.7770
  425MOL0     H57322   8.328  -0.647   4.990  0.3259  2.0763  2.0437
  425MOL0     H57323   8.381  -0.547   4.855  1.6294 -0.2287  0.1969
  425MOL0     H57324   8.348  -0.852   4.901 -2.3234  0.4017 -0.4329
  425MOL0     H57325   8.473  -0.808   4.791  0.3343  0.2049  1.0261
  425MOL0     H57326   8.083  -0.692   4.807 -3.3939  2.6279 -4.0011
  425MOL0     H57327   7.928  -0.765   4.486 -0.6362 -0.9591  1.4061
  425MOL0     H57328   7.904  -0.699   4.644 -0.2408 -0.5963 -1.1830
  425MOL0     H57329   7.845  -0.532   4.476 -0.7292  0.7343  2.5074
  425MOL0     H57330   8.005  -0.555   4.384 -1.6867 -1.7164 -0.3990
  425MOL0     H57331   8.105  -0.466   4.604 -0.4434  0.4765  0.1728
  425MOL0     H57332   7.941  -0.404   4.636  1.1774  2.6460  1.0169
  425MOL0     H57333   8.117  -0.330   4.392  0.1688 -1.1987  0.3199
  425MOL0     H57334   8.063  -0.227   4.536  1.8650  0.4921  0.4514
  425MOL0     H57335   7.898  -0.077   4.602 -0.8879  1.0845  0.3659
  425MOL0     H57336   7.686  -0.031   4.820  0.0147 -1.5203 -0.9754
  425MOL0     H57337   7.802   0.078   4.720  2.0561 -3.0451  0.1279
  425MOL0     H57338   7.636   0.112   4.737  1.0472  0.5336  0.0806
  425MOL0     H57339   7.164  -0.173   4.604 -1.5690 -0.7013  1.0642
  425MOL0     H57340   6.956  -0.093   4.666  1.6633 -0.0821  1.3603
  425MOL0     H57341   6.727  -0.006   4.641 -1.3458  0.4799 -1.5543
  425MOL0     H57342   6.782   0.111   4.772  0.6405  1.5619  0.2759
  425MOL0     H57343   6.643   0.275   4.665  0.1403 -0.1044  1.4148
  425MOL0     H57344   6.585   0.166   4.545 -0.7264 -0.5122  0.6615
  425MOL0     H57345   6.547   0.125   4.848  3.0717  3.1178 -0.6841
  425MOL0     H57346   6.478   0.033   4.707  0.0732  0.5041 -1.0204
  425MOL0     H57347   6.407   0.323   4.749 -1.2500  0.0451 -1.0685
  425MOL0     H57348   6.345   0.208   4.646 -1.4073 -0.6694  0.3513
  425MOL0     H57349   6.230   0.280   4.888  0.6114  0.9237 -2.6858
  425MOL0     H57350   6.334   0.156   4.955 -0.4189  3.3631  1.3532
  425MOL0     H57351   6.150   0.097   4.717  0.3085 -1.8965 -0.6588
  425MOL0     H57352   6.218  -0.022   4.831 -1.6821 -0.2903  3.0872
  425MOL0     H57353   6.022   0.184   4.933 -0.0509 -0.1296  1.2501
  425MOL0     H57354   6.060   0.018   4.994 -2.4846  0.2245  1.3438
  425MOL0     H57355   5.851  -0.019   4.902  1.3843  1.5022  2.9337
  425MOL0     H57356   5.966  -0.070   4.779  2.8465  1.2307 -0.4813
  425MOL0     H57357   7.051   0.295   4.487 -2.1707 -0.7328 -0.8965
  425MOL0     H57358   7.298   0.202   4.453 -0.2493  4.1980  3.5634
  425MOL0     H57359   7.478  -0.230   4.398  0.1854 -0.9176  0.6655
  425MOL0     H57360   7.677  -0.336   4.326  0.2800  0.4497 -0.4417
  425MOL0     H57361   9.198  -0.330   5.127  1.5138 -0.7938  0.0266
  425MOL0     H57362   9.421  -0.201   5.095  0.6336  0.3841 -1.8630
  425MOL0     H57363   9.634   0.068   4.779  1.3087 -2.2198  0.8345
  425MOL0     H57364   9.861   0.139   4.701  0.2395  0.2533  0.3233
  425MOL0     H57365  10.095   0.141   4.691 -1.0606 -0.1521  1.6049
  425MOL0     H57366  10.027   0.296   4.635 -1.1656  2.0725  1.1821
  425MOL0     H57367  10.247   0.411   4.721  1.7726 -0.7064  0.2126
  425MOL0     H57368  10.257   0.312   4.590  1.2111 -2.1384 -0.2819
  425MOL0     H57369  10.449   0.289   4.731  1.1177  0.2251  0.7468
  425MOL0     H57370  10.374   0.137   4.704  0.6259  1.0161 -1.6003
  425MOL0     H57371  10.278   0.157   4.951  0.9226 -0.0716  0.6899
  425MOL0     H57372  10.348   0.321   4.946  2.1598  0.3560 -0.1459
  425MOL0     H57373  10.665   0.058   5.058  1.1077  1.7538  0.8658
  425MOL0     H57374   9.953   0.278   5.101  0.8605 -1.1170 -0.1484
  425MOL0     H57375   9.733   0.183   5.176 -1.1681  0.2621  0.0945
  426MOL0     O57376   4.290   4.921   0.290  0.5931 -0.1730  0.3270
  426MOL0     C57377   4.250   5.032   0.250  0.1324 -1.0770  0.2852
  426MOL0     O57378   4.330   5.145   0.249  0.0073  1.1939 -0.2028
  426MOL0     C57379   4.463   5.135   0.288  0.9580 -0.2346  0.0199
  426MOL0     C57380   4.557   5.114   0.195 -0.2883  0.8242  0.8331
  426MOL0     C57381   4.697   5.135   0.224  0.1861  0.3633 -0.1845
  426MOL0     C57382   4.742   5.165   0.352 -0.0818 -0.3057  0.3591
  426MOL0     O57383   4.878   5.199   0.372 -0.6169  0.2285 -0.2454
  426MOL0     C57384   4.983   5.131   0.295  1.0688 -0.9433 -0.3855
  426MOL0     C57385   5.112   5.209   0.292 -0.4778 -0.0215 -0.6963
  426MOL0     C57386   5.214   5.121   0.230  0.0351 -0.7015 -0.0004
  426MOL0     C57387   5.351   5.197   0.210 -0.2345  0.8459  0.0079
  426MOL0     C57388   5.483   5.106   0.241  0.1145 -0.0037 -0.2144
  426MOL0     C57389   5.505   5.022   0.113 -0.2960 -0.5102 -1.8408
  426MOL0     C57390   5.650   4.961   0.121  0.5060  0.0534  0.5933
  426MOL0     C57391   5.683   4.891   0.258 -0.7037 -0.4422  0.6891
  426MOL0     N57392   5.794   4.799   0.249  0.4854  0.4010 -0.3279
  426MOL0     C57393   5.785   4.666   0.263 -0.6627 -0.4206  0.7111
  426MOL0     C57394   5.911   4.624   0.254 -0.3665 -0.5396  0.8999
  426MOL0     C57395   5.967   4.487   0.252  0.4142 -0.3594 -0.0895
  426MOL0     C57396   5.910   4.386   0.358 -0.5503  0.4307  0.5918
  426MOL0     C57397   5.907   4.444   0.500  0.0489 -0.2658 -1.1144
  426MOL0     C57398   6.045   4.436   0.563  0.3824 -1.1575 -0.3807
  426MOL0     O57399   6.069   4.307   0.627  0.2657 -0.7985 -0.0740
  426MOL0     C57400   6.194   4.300   0.693 -0.0618  0.4272  0.1367
  426MOL0     C57401   6.219   4.204   0.786  0.7173 -0.4860  0.7247
  426MOL0     C57402   6.316   4.206   0.877 -0.1950  0.4643 -0.1201
  426MOL0     C57403   6.315   4.106   0.996  0.1182 -0.0893  0.3467
  426MOL0     C57404   6.416   4.304   0.858 -0.4020 -0.6180 -0.3056
  426MOL0     C57405   6.537   4.310   0.949 -0.1472 -0.3404  0.5879
  426MOL0     O57406   6.606   4.428   0.943  0.4456  0.1573 -0.1407
  426MOL0     C57407   6.731   4.423   1.001 -0.1755 -0.2515  0.0155
  426MOL0     C57408   6.745   4.485   1.121 -0.4243  0.6164 -0.1085
  426MOL0     C57409   6.869   4.494   1.186  0.9181 -1.0586  0.0303
  426MOL0     C57410   6.984   4.434   1.139  0.3062 -0.5322 -0.6925
  426MOL0     O57411   7.082   4.429   1.227 -0.4865 -0.0499  0.3385
  426MOL0     C57412   7.209   4.369   1.185 -0.2954 -0.0692  0.5574
  426MOL0     C57413   7.288   4.321   1.311  0.2533 -0.1421 -0.0495
  426MOL0     C57414   7.430   4.306   1.298  0.0705 -0.8645  0.2021
  426MOL0     C57415   7.506   4.368   1.417  0.2357  0.2519  1.6678
  426MOL0     C57416   7.618   4.268   1.456  0.5923 -0.2081  0.1283
  426MOL0     C57417   7.702   4.341   1.555 -0.0133  0.8690  0.8925
  426MOL0     C57418   7.819   4.262   1.605 -0.1223  0.1322  1.3386
  426MOL0     C57419   7.771   4.204   1.738 -1.1776  0.2968  0.7764
  426MOL0    Cl57420   7.900   4.092   1.788 -0.4104 -0.2080 -0.4267
  426MOL0     C57421   6.972   4.374   1.011 -0.0177  0.3682 -0.3525
  426MOL0     C57422   6.850   4.375   0.937 -0.7301  0.1103 -0.2208
  426MOL0     O57423   6.566   4.219   1.017  0.1155  0.0135  0.2548
  426MOL0     C57424   6.408   4.400   0.756  0.4211  0.2906 -0.4599
  426MOL0     C57425   6.290   4.395   0.680 -0.2337 -0.2337  0.6673
  426MOL0     N57426   5.993   4.729   0.263 -0.4005  0.0929 -0.4832
  426MOL0     N57427   5.924   4.832   0.248 -0.7103  0.3521  0.2809
  426MOL0     C57428   4.641   5.170   0.454  0.4645  0.4817  0.3816
  426MOL0     C57429   4.503   5.147   0.422  0.2652  0.3070 -0.4922
  426MOL0     C57430   4.108   5.054   0.214  1.1932  0.1381 -0.1694
  426MOL0     C57431   4.049   5.181   0.245  0.1132 -0.1942  0.1129
  426MOL0     C57432   3.914   5.205   0.225  0.3970  0.4186  0.8647
  426MOL0     C57433   3.835   5.105   0.179  0.3565  0.9729 -0.3598
  426MOL0     O57434   3.704   5.132   0.155  0.5582 -0.4346  0.3269
  426MOL0     C57435   3.688   5.168   0.021  0.6132  0.8219  0.1054
  426MOL0     C57436   3.534   5.172   0.006 -0.1095 -0.6239 -0.2855
  426MOL0     C57437   3.509   5.185  -0.151 -0.2038 -0.1560 -0.7223
  426MOL0     C57438   3.368   5.211  -0.166 -0.4075  0.1456  0.4757
  426MOL0     C57439   3.324   5.219  -0.302 -0.2199 -0.1978 -0.1104
  426MOL0     C57440   3.273   5.255  -0.408  0.7946  0.5062  0.2277
  426MOL0     C57441   3.883   4.975   0.152 -0.4138  0.6339  0.0932
  426MOL0     C57442   4.023   4.947   0.173 -0.1626 -0.5327 -0.1731
  426MOL0     H57443   4.538   5.095   0.090 -2.3921  2.7241  0.8008
  426MOL0     H57444   4.764   5.142   0.139  0.6963  0.9977  0.2645
  426MOL0     H57445   4.990   5.035   0.348  1.2659 -0.3266  0.7313
  426MOL0     H57446   4.958   5.103   0.192 -0.5459 -0.1861 -0.2167
  426MOL0     H57447   5.101   5.298   0.230  0.6344 -0.6738 -1.8666
  426MOL0     H57448   5.142   5.246   0.391 -1.7495  0.8516 -0.6064
  426MOL0     H57449   5.226   5.039   0.302 -1.3620  0.1566  1.2380
  426MOL0     H57450   5.186   5.089   0.129 -0.2489  2.3633 -0.9764
  426MOL0     H57451   5.367   5.239   0.111 -0.1189  0.0533 -0.3195
  426MOL0     H57452   5.354   5.280   0.281  0.8894  2.0896 -1.4225
  426MOL0     H57453   5.567   5.173   0.263  0.0304  0.3656 -0.9696
  426MOL0     H57454   5.476   5.048   0.333 -1.0775 -1.3545 -1.1064
  426MOL0     H57455   5.435   4.939   0.108 -0.8272 -0.1407 -0.6613
  426MOL0     H57456   5.499   5.090   0.027 -0.1619  2.6972  0.5009
  426MOL0     H57457   5.652   4.891   0.038  0.0237  0.0915  0.5459
  426MOL0     H57458   5.726   5.038   0.103 -1.4695  1.9793  0.0484
  426MOL0     H57459   5.596   4.828   0.277 -0.5399 -0.9134 -0.0759
  426MOL0     H57460   5.707   4.970   0.330 -0.7485 -1.0101  1.3280
  426MOL0     H57461   5.699   4.601   0.272  0.9791 -2.4104  4.5993
  426MOL0     H57462   5.952   4.439   0.155  4.5416 -0.5678 -0.8079
  426MOL0     H57463   6.075   4.475   0.263  0.3867  0.7069  1.9964
  426MOL0     H57464   5.979   4.301   0.362  2.5283  2.6140 -1.3462
  426MOL0     H57465   5.815   4.355   0.315  0.0968  1.4563 -1.7365
  426MOL0     H57466   5.835   4.400   0.570  1.8362  1.1254  1.7829
  426MOL0     H57467   5.863   4.544   0.506 -0.6050 -0.5601 -0.8931
  426MOL0     H57468   6.052   4.517   0.635  0.3024 -2.0105  0.6031
  426MOL0     H57469   6.108   4.474   0.482 -1.7947  1.2209 -1.0940
  426MOL0     H57470   6.147   4.123   0.794  0.6717 -0.3478  1.8682
  426MOL0     H57471   6.229   4.038   0.989 -0.4208  0.6342 -0.3190
  426MOL0     H57472   6.402   4.041   0.992  1.7097  1.8063  2.2157
  426MOL0     H57473   6.311   4.164   1.088  0.3832  1.8669 -0.8131
  426MOL0     H57474   6.658   4.517   1.178 -1.2436 -1.3890 -0.1569
  426MOL0     H57475   6.864   4.545   1.281 -0.1117 -1.1356  0.0302
  426MOL0     H57476   7.200   4.291   1.110 -1.2386  2.6891 -2.4332
  426MOL0     H57477   7.267   4.451   1.141  0.4952 -0.0483  1.6016
  426MOL0     H57478   7.271   4.396   1.388  1.9807 -1.1152  1.3642
  426MOL0     H57479   7.242   4.226   1.340  2.5090 -1.8883 -1.8608
  426MOL0     H57480   7.472   4.349   1.207  2.9750 -0.1538  1.7524
  426MOL0     H57481   7.454   4.201   1.279 -0.9089 -0.8056 -1.4590
  426MOL0     H57482   7.544   4.466   1.386  0.6513 -0.3421  0.2276
  426MOL0     H57483   7.449   4.395   1.506  1.0691  3.3390  1.3958
  426MOL0     H57484   7.670   4.235   1.365 -0.1835  3.1456 -1.6796
  426MOL0     H57485   7.586   4.169   1.490  0.3648  0.0191  0.5909
  426MOL0     H57486   7.737   4.440   1.525  3.3058 -0.8977 -1.5468
  426MOL0     H57487   7.631   4.362   1.636  0.2184  1.3934  0.9677
  426MOL0     H57488   7.913   4.319   1.609  2.3780 -3.7011  2.1948
  426MOL0     H57489   7.845   4.184   1.533 -0.9534  1.2778 -0.2732
  426MOL0     H57490   7.677   4.151   1.725 -0.8866 -0.6751  2.3803
  426MOL0     H57491   7.765   4.283   1.814 -0.2591  1.0547  0.0956
  426MOL0     H57492   7.062   4.350   0.954 -0.0323  2.0533 -1.1219
  426MOL0     H57493   6.840   4.334   0.837  0.6064 -0.1036 -0.2812
  426MOL0     H57494   6.474   4.486   0.744  1.7399 -0.9815 -3.0449
  426MOL0     H57495   6.285   4.475   0.607  2.5971  0.2098  0.8550
  426MOL0     H57496   4.659   5.200   0.557 -1.5269  0.9964  0.6124
  426MOL0     H57497   4.425   5.141   0.496 -0.0640 -2.3848 -0.9792
  426MOL0     H57498   4.113   5.251   0.297  1.3095 -3.3035  3.1824
  426MOL0     H57499   3.873   5.304   0.239 -0.1287  0.2218  0.7611
  426MOL0     H57500   3.739   5.263   0.003  1.9138 -0.1301 -1.4740
  426MOL0     H57501   3.726   5.087  -0.042  2.1235  1.0954  0.6340
  426MOL0     H57502   3.486   5.259   0.052  1.9946  1.2898 -1.5101
  426MOL0     H57503   3.483   5.082   0.044 -1.1673  1.0387  2.5649
  426MOL0     H57504   3.565   5.108  -0.204 -0.1038 -0.1723 -0.5925
  426MOL0     H57505   3.561   5.275  -0.184  0.0623 -1.0861 -3.0248
  426MOL0     H57506   3.336   5.301  -0.112  0.6717  1.7375 -1.3672
  426MOL0     H57507   3.314   5.128  -0.120 -1.1254  0.9877  1.1956
  426MOL0     H57508   3.244   5.282  -0.508 -1.9724 -0.0944  0.7948
  426MOL0     H57509   3.811   4.912   0.100 -0.1620  1.5671 -1.4556
  426MOL0     H57510   4.068   4.856   0.135 -0.8656 -1.1514  0.4356
  427MOL0     O57511  10.653  10.395   7.877  0.8586 -0.4320 -0.7986
  427MOL0     C57512  10.642  10.292   7.944  0.5254  0.4891 -0.7360
  427MOL0     O57513  10.532  10.251   8.010  0.4869  0.4341 -0.2186
  427MOL0     C57514  10.413  10.323   8.002  1.4607  0.2433 -0.6144
  427MOL0     C57515  10.411  10.460   8.035 -1.1355  0.5190  0.2012
  427MOL0     C57516  10.292  10.535   8.049 -0.1828 -0.1824 -0.1106
  427MOL0     C57517  10.169  10.469   8.025  0.0183  0.4098 -0.4015
  427MOL0     O57518  10.047  10.535   8.055  0.1877  0.7520  0.8846
  427MOL0     C57519   9.922  10.500   7.998 -1.0353 -0.6432  0.4957
  427MOL0     C57520   9.912  10.587   7.869 -0.0415 -0.3130  0.6720
  427MOL0     C57521   9.993  10.543   7.743  0.1677  0.9012  0.0266
  427MOL0     C57522   9.965  10.618   7.612  0.5893 -0.5435  0.4503
  427MOL0     C57523  10.035  10.559   7.480 -0.6843  0.1833 -0.5772
  427MOL0     C57524  10.189  10.528   7.493  0.0055  1.1679  0.7307
  427MOL0     C57525  10.268  10.655   7.519 -0.6941  0.3793 -0.4139
  427MOL0     C57526  10.410  10.626   7.560 -0.8485  0.4648 -0.0566
  427MOL0     N57527  10.469  10.512   7.483  0.4247 -0.7031 -0.2335
  427MOL0     C57528  10.511  10.388   7.517 -0.9196  1.2823 -0.2556
  427MOL0     C57529  10.591  10.356   7.416  0.5666 -0.0795  0.0864
  427MOL0     C57530  10.675  10.234   7.412  0.0851  0.5304 -0.2487
  427MOL0     C57531  10.823  10.262   7.430  0.6901  0.2669  0.0524
  427MOL0     C57532  10.878  10.276   7.578 -0.1472 -0.7665 -0.3846
  427MOL0     C57533  11.035  10.314   7.583  0.3733 -0.2680 -0.7565
  427MOL0     O57534  11.045  10.440   7.636  0.8011 -0.1729  0.4142
  427MOL0     C57535  11.161  10.504   7.598  0.0468 -0.3769  0.4427
  427MOL0     C57536  11.284  10.445   7.579  0.2895 -0.7797 -0.1575
  427MOL0     C57537  11.395  10.524   7.558 -0.2481 -0.7771 -0.4019
  427MOL0     C57538  11.533  10.461   7.552  0.4474 -0.3123 -0.8640
  427MOL0     C57539  11.381  10.671   7.543 -0.6558  0.8520 -0.3532
  427MOL0     C57540  11.485  10.765   7.526  0.1566 -0.1231  0.0194
  427MOL0     O57541  11.598  10.753   7.598 -0.1795 -0.4565  0.4210
  427MOL0     C57542  11.695  10.834   7.566 -0.7095 -0.1723  0.6440
  427MOL0     C57543  11.691  10.965   7.601 -1.4247 -0.2298 -1.0210
  427MOL0     C57544  11.812  11.048   7.593  0.1829 -0.2701 -0.7788
  427MOL0     C57545  11.929  10.994   7.543 -0.1224  0.5667  0.6413
  427MOL0     O57546  12.032  11.088   7.539  0.6301 -0.7999  0.2980
  427MOL0     C57547  12.159  11.046   7.481  0.8071  0.3256 -0.4994
  427MOL0     C57548  12.236  11.180   7.451  0.1499 -1.0291 -1.0053
  427MOL0     C57549  12.363  11.165   7.355 -0.2591  0.0905 -1.0902
  427MOL0     C57550  12.439  11.292   7.330 -0.6038  0.1235 -0.2559
  427MOL0     C57551  12.347  11.416   7.302 -0.2219 -0.9158  0.0714
  427MOL0     C57552  12.435  11.537   7.270  1.2805 -0.4726  0.6580
  427MOL0     C57553  12.357  11.669   7.306 -0.5665 -0.3038 -0.2418
  427MOL0     C57554  12.442  11.794   7.282  0.4466 -0.5096  0.4127
  427MOL0    Cl57555  12.599  11.804   7.388  0.3614  0.3106  0.8004
  427MOL0     C57556  11.931  10.856   7.508 -0.1072  0.7030 -0.2833
  427MOL0     C57557  11.815  10.781   7.521  0.2824  1.1301  0.4163
  427MOL0     O57558  11.462  10.854   7.445  0.7059 -0.2926 -0.5178
  427MOL0     C57559  11.255  10.719   7.557 -0.0206  0.8617 -0.2981
  427MOL0     C57560  11.147  10.640   7.577  0.3332 -0.0102 -0.4441
  427MOL0     N57561  10.573  10.439   7.311 -0.4885 -0.9816 -0.0052
  427MOL0     N57562  10.498  10.534   7.351 -0.0704 -0.1411  0.2674
  427MOL0     C57563  10.171  10.337   7.994 -0.7437 -0.3663 -0.0392
  427MOL0     C57564  10.290  10.261   7.990 -0.4810 -0.0261 -0.1514
  427MOL0     C57565  10.767  10.226   7.985  0.2611  0.0315  0.4177
  427MOL0     C57566  10.772  10.110   8.070  0.0515 -0.5082  0.0019
  427MOL0     C57567  10.895  10.045   8.093  0.1678  0.0942 -0.2716
  427MOL0     C57568  11.018  10.091   8.020 -0.2298  1.2011  1.1237
  427MOL0     O57569  11.149  10.045   8.031  0.3488  0.3240 -1.0505
  427MOL0     C57570  11.171   9.923   8.115  0.7439  0.0764 -0.1726
  427MOL0     C57571  11.321   9.897   8.127  0.4438  0.3218  0.0788
  427MOL0     C57572  11.381   9.856   7.994 -0.9675  0.6087  0.1975
  427MOL0     C57573  11.530   9.880   7.987  0.8348 -0.7235 -0.5182
  427MOL0     C57574  11.558  10.014   7.950 -0.3954 -0.2616  0.5919
  427MOL0     C57575  11.577  10.133   7.923 -0.4418  0.4804 -0.1336
  427MOL0     C57576  11.006  10.199   7.942 -1.2044  0.3454 -0.2675
  427MOL0     C57577  10.884  10.269   7.930  0.0751  0.3130 -0.1354
  427MOL0     H57578  10.504  10.512   8.054 -0.5958 -0.3953  0.0946
  427MOL0     H57579  10.280  10.643   8.058  1.2384 -0.0798  0.9799
  427MOL0     H57580   9.922  10.396   7.962 -0.4972 -0.9138  1.2520
  427MOL0     H57581   9.841  10.530   8.065  0.5802  4.2452  0.6598
  427MOL0     H57582   9.807  10.576   7.840  0.1870  1.7910 -1.1993
  427MOL0     H57583   9.929  10.694   7.887 -3.3567  0.2155  1.3901
  427MOL0     H57584  10.101  10.546   7.757  0.6268 -2.2824 -1.9077
  427MOL0     H57585   9.977  10.436   7.727  3.9427 -0.1709  2.3845
  427MOL0     H57586   9.857  10.618   7.594  0.7731  3.1093 -1.6019
  427MOL0     H57587   9.996  10.722   7.620 -1.5737  0.3671 -1.8988
  427MOL0     H57588   9.986  10.461   7.472 -1.6827  0.5546  0.7377
  427MOL0     H57589  10.019  10.616   7.388 -2.5798 -1.3713 -1.2983
  427MOL0     H57590  10.200  10.441   7.559  0.6775 -0.8892 -1.9147
  427MOL0     H57591  10.225  10.485   7.399  0.4188 -3.8268  2.8616
  427MOL0     H57592  10.265  10.721   7.431 -1.0718  1.3915  0.3356
  427MOL0     H57593  10.213  10.707   7.597 -1.2468 -0.0807 -0.4968
  427MOL0     H57594  10.407  10.591   7.664  0.4132  2.6023  0.7689
  427MOL0     H57595  10.469  10.718   7.566 -1.5678  1.1879 -2.7535
  427MOL0     H57596  10.497  10.332   7.609 -1.3561 -2.7320 -2.5247
  427MOL0     H57597  10.628  10.158   7.476 -0.1766 -0.1248 -1.1866
  427MOL0     H57598  10.663  10.185   7.315 -2.6090 -0.3172  0.4183
  427MOL0     H57599  10.846  10.346   7.364 -1.2707  0.3001 -0.6549
  427MOL0     H57600  10.879  10.178   7.387  2.6570  1.1723  0.7295
  427MOL0     H57601  10.867  10.180   7.630  2.1338 -1.3383 -0.8422
  427MOL0     H57602  10.810  10.343   7.632  0.6566 -0.5709  0.4121
  427MOL0     H57603  11.080  10.320   7.483  2.6479  1.9521  0.2873
  427MOL0     H57604  11.085  10.233   7.636  1.1362  2.1152  2.4454
  427MOL0     H57605  11.290  10.337   7.570 -0.1171 -0.7332 -1.0462
  427MOL0     H57606  11.596  10.494   7.635 -2.9034 -0.4602  1.9532
  427MOL0     H57607  11.533  10.352   7.561  2.8312 -0.7639 -4.3840
  427MOL0     H57608  11.576  10.488   7.455  0.6648  1.9879 -0.1795
  427MOL0     H57609  11.598  11.008   7.637 -0.8300  0.2347  0.0115
  427MOL0     H57610  11.800  11.153   7.617  0.0737 -0.3992 -0.2732
  427MOL0     H57611  12.218  10.977   7.541 -1.3415 -1.1773  0.0157
  427MOL0     H57612  12.137  10.997   7.385 -1.1480  1.0764 -0.4748
  427MOL0     H57613  12.174  11.252   7.397  0.2849  0.2508  0.4710
  427MOL0     H57614  12.268  11.234   7.541 -0.5751 -2.3078  0.0490
  427MOL0     H57615  12.305  11.134   7.268 -3.9064  0.6955  0.9437
  427MOL0     H57616  12.430  11.093   7.403 -2.0733  0.7638  2.7630
  427MOL0     H57617  12.496  11.308   7.421 -0.9067 -2.4363  0.4398
  427MOL0     H57618  12.499  11.273   7.241 -1.1744 -1.6496 -0.3046
  427MOL0     H57619  12.293  11.437   7.395 -1.0313 -0.7544 -0.4207
  427MOL0     H57620  12.270  11.402   7.226  1.0869  2.1343 -1.9888
  427MOL0     H57621  12.537  11.516   7.304  2.0284 -1.9306 -2.1121
  427MOL0     H57622  12.442  11.550   7.161  2.5818  0.7246  0.8605
  427MOL0     H57623  12.318  11.680   7.407 -1.5229 -0.3258 -0.5978
  427MOL0     H57624  12.263  11.675   7.250 -1.5097 -0.9587  1.2127
  427MOL0     H57625  12.393  11.884   7.321  2.0447  0.2184  0.8100
  427MOL0     H57626  12.471  11.806   7.177  0.9026 -0.1900  0.5757
  427MOL0     H57627  12.022  10.813   7.466 -0.8222 -0.4018 -0.7618
  427MOL0     H57628  11.814  10.680   7.480 -0.2755  2.0736 -2.0390
  427MOL0     H57629  11.251  10.827   7.555  1.8167  0.9469 -0.9012
  427MOL0     H57630  11.059  10.695   7.607  1.7695  3.1676 -1.5521
  427MOL0     H57631  10.084  10.273   7.983 -0.3435 -1.1051  0.9269
  427MOL0     H57632  10.281  10.155   7.966  0.9243 -0.4139  0.9211
  427MOL0     H57633  10.679  10.072   8.110  0.0036  0.1628  0.5507
  427MOL0     H57634  10.902   9.962   8.162 -4.2010 -0.4820 -0.2528
  427MOL0     H57635  11.131   9.944   8.215 -0.5198 -1.1571 -0.3905
  427MOL0     H57636  11.118   9.838   8.070 -1.4574  1.2345  0.1017
  427MOL0     H57637  11.336   9.824   8.207  0.5174 -0.0687 -0.2877
  427MOL0     H57638  11.353   9.992   8.171 -0.7563  0.4908  0.6525
  427MOL0     H57639  11.325   9.906   7.915 -1.3271 -1.0319 -0.6395
  427MOL0     H57640  11.370   9.747   7.982 -0.7390  0.5308  0.6633
  427MOL0     H57641  11.575   9.825   7.904  2.7376 -1.9307  1.2196
  427MOL0     H57642  11.585   9.842   8.074  1.6463  0.3380 -0.5532
  427MOL0     H57643  11.590  10.237   7.903  1.4795  0.3391  0.1834
  427MOL0     H57644  11.086  10.241   7.884 -2.3464 -0.4170 -2.5294
  427MOL0     H57645  10.882  10.358   7.868 -1.3907  0.3862 -0.0097
  428MOL0     O57646  10.613  10.903   5.600  0.1523 -0.0087  0.2278
  428MOL0     C57647  10.547  10.812   5.553 -0.1941  0.1837  0.4658
  428MOL0     O57648  10.577  10.675   5.570  0.5829 -0.1708  0.2998
  428MOL0     C57649  10.661  10.620   5.668 -0.4985 -0.6103 -1.2262
  428MOL0     C57650  10.684  10.485   5.669  0.3464  0.3830  0.2779
  428MOL0     C57651  10.738  10.422   5.776  0.0795 -0.5820 -0.1067
  428MOL0     C57652  10.792  10.485   5.884  0.9169 -0.1868 -0.3234
  428MOL0     O57653  10.846  10.418   5.991  0.6774 -0.5947 -0.2299
  428MOL0     C57654  10.785  10.297   6.035 -0.0439  1.6190 -0.7376
  428MOL0     C57655  10.851  10.259   6.162  0.4606 -0.2215 -0.4683
  428MOL0     C57656  10.818  10.331   6.284  0.0315  0.0603  0.6381
  428MOL0     C57657  10.786  10.232   6.390 -0.2942  0.4403 -1.1932
  428MOL0     C57658  10.652  10.160   6.391 -0.0178  0.0542 -0.5777
  428MOL0     C57659  10.657  10.032   6.473 -0.2431 -0.7748 -0.3925
  428MOL0     C57660  10.516   9.961   6.447 -0.8036 -0.9968 -0.3699
  428MOL0     C57661  10.540   9.814   6.494 -0.3425  0.5405  0.6202
  428MOL0     N57662  10.438   9.732   6.426  0.4108  0.1529 -0.2496
  428MOL0     C57663  10.435   9.677   6.301  0.3767 -0.1199 -0.5399
  428MOL0     C57664  10.312   9.633   6.289 -1.1683  1.3286  0.6751
  428MOL0     C57665  10.247   9.586   6.162  0.4254 -0.6920 -0.8727
  428MOL0     C57666  10.345   9.528   6.057  0.8447 -0.1605 -0.1194
  428MOL0     C57667  10.411   9.402   6.111 -0.4047 -0.8393  0.3235
  428MOL0     C57668  10.488   9.326   6.005  0.3626  0.3313 -0.2791
  428MOL0     O57669  10.602   9.393   5.962 -0.3498 -0.0768 -0.2288
  428MOL0     C57670  10.698   9.317   5.898 -0.5833 -0.3698 -0.3467
  428MOL0     C57671  10.672   9.202   5.813  0.9751 -1.0578  0.2575
  428MOL0     C57672  10.766   9.142   5.728  1.0090 -0.3100  0.1078
  428MOL0     C57673  10.700   9.046   5.621 -0.1997  0.1981  0.3680
  428MOL0     C57674  10.901   9.177   5.738 -0.2193 -0.1793 -0.5047
  428MOL0     C57675  11.009   9.124   5.659  0.2870  0.1083 -0.2781
  428MOL0     O57676  11.122   9.130   5.733  0.1904 -0.4162 -0.4567
  428MOL0     C57677  11.243   9.093   5.675 -1.2038  0.7156 -1.3290
  428MOL0     C57678  11.361   9.161   5.711  0.5630 -0.8978 -0.0285
  428MOL0     C57679  11.487   9.124   5.678  0.2698  0.3501 -0.4764
  428MOL0     C57680  11.508   9.011   5.601  1.6313  0.7289  1.1300
  428MOL0     O57681  11.631   8.975   5.553 -0.6320 -0.1108  0.0862
  428MOL0     C57682  11.738   9.070   5.566 -0.3489 -0.4240 -0.1215
  428MOL0     C57683  11.858   9.031   5.501 -0.6337 -0.5674 -0.7843
  428MOL0     C57684  11.979   9.124   5.532  0.0836  0.3566 -0.1666
  428MOL0     C57685  12.116   9.048   5.514  0.0770  0.0931  0.4940
  428MOL0     C57686  12.244   9.120   5.569  0.0814  0.1399  0.1863
  428MOL0     C57687  12.371   9.080   5.507 -0.4405 -0.0754  0.0036
  428MOL0     C57688  12.481   9.179   5.539  0.3984 -0.5295 -0.4578
  428MOL0     C57689  12.600   9.119   5.481 -0.0580  0.0051 -0.3109
  428MOL0    Cl57690  12.743   9.186   5.550  0.3100 -0.0350 -0.0020
  428MOL0     C57691  11.394   8.945   5.560 -0.6864  0.8782 -0.5384
  428MOL0     C57692  11.265   8.979   5.598  0.0579 -1.0835  0.0375
  428MOL0     O57693  10.996   9.074   5.545  0.3734 -0.1667 -0.6432
  428MOL0     C57694  10.928   9.282   5.833  0.4914  0.7870 -0.6034
  428MOL0     C57695  10.831   9.352   5.904 -0.3035  0.8649 -0.0741
  428MOL0     N57696  10.245   9.651   6.400  0.5602 -0.0146  0.4572
  428MOL0     N57697  10.315   9.715   6.488  0.2323  0.9985  0.0448
  428MOL0     C57698  10.773  10.625   5.886  0.5750  0.0204  0.0595
  428MOL0     C57699  10.707  10.691   5.785 -0.1378  0.0691 -0.1572
  428MOL0     C57700  10.428  10.850   5.473  0.0720 -0.0679  1.5545
  428MOL0     C57701  10.344  10.758   5.414 -1.5145  0.4198  0.2177
  428MOL0     C57702  10.253  10.794   5.313 -1.0262 -0.1461  0.4061
  428MOL0     C57703  10.238  10.926   5.277  0.8163  0.2800 -0.3763
  428MOL0     O57704  10.170  10.982   5.179  0.1889  0.9682  0.6014
  428MOL0     C57705  10.050  10.908   5.149  0.3214 -0.6849  0.1424
  428MOL0     C57706   9.954  10.998   5.066 -0.1169  0.4182 -0.1130
  428MOL0     C57707   9.892  11.111   5.136 -0.3203  0.6746 -0.1589
  428MOL0     C57708   9.798  11.198   5.049  0.0477 -0.5446 -0.9585
  428MOL0     C57709   9.666  11.130   5.020  0.4918  0.4628  1.0110
  428MOL0     C57710   9.566  11.059   5.000  0.6986 -1.0135  0.0500
  428MOL0     C57711  10.317  11.022   5.344 -0.9014 -0.6971 -0.1541
  428MOL0     C57712  10.403  10.985   5.452 -0.4433 -1.1984  0.6292
  428MOL0     H57713  10.627  10.435   5.592  0.1176  2.0336 -0.6895
  428MOL0     H57714  10.733  10.314   5.786 -3.5316 -0.3123  3.3168
  428MOL0     H57715  10.676  10.300   6.044 -0.2559  0.2077 -2.3437
  428MOL0     H57716  10.817  10.224   5.961  0.3371  0.5516  0.4337
  428MOL0     H57717  10.829  10.152   6.166  0.7002 -0.3366 -1.7478
  428MOL0     H57718  10.960  10.263   6.148  0.9405 -2.4875  1.9191
  428MOL0     H57719  10.914  10.374   6.315 -0.4023  1.1630  0.5127
  428MOL0     H57720  10.750  10.416   6.278  0.0168 -0.0561 -1.7973
  428MOL0     H57721  10.851  10.145   6.377 -1.7298 -0.9277  0.3352
  428MOL0     H57722  10.809  10.277   6.486 -2.0372  0.9673 -0.9964
  428MOL0     H57723  10.570  10.224   6.426  1.1568  0.4792  1.6293
  428MOL0     H57724  10.629  10.132   6.288 -0.8255 -3.0240  0.3213
  428MOL0     H57725  10.745   9.976   6.441  2.7208  1.0979  3.6664
  428MOL0     H57726  10.673  10.061   6.577  4.0035 -1.5090 -0.6955
  428MOL0     H57727  10.452  10.012   6.519  0.6885  1.0244 -0.4056
  428MOL0     H57728  10.481   9.964   6.344  0.9233 -0.5663 -0.9787
  428MOL0     H57729  10.539   9.811   6.603 -1.0084  2.2762  0.6893
  428MOL0     H57730  10.641   9.777   6.474 -0.8137 -0.0551 -0.8271
  428MOL0     H57731  10.512   9.683   6.225  1.4126 -3.7395  0.0318
  428MOL0     H57732  10.163   9.518   6.173 -1.1320  1.4056  1.6174
  428MOL0     H57733  10.216   9.681   6.116 -0.3701  1.3578  3.3004
  428MOL0     H57734  10.419   9.604   6.028  1.7816 -0.3795  1.5622
  428MOL0     H57735  10.278   9.507   5.974 -1.5790  4.1906  0.4117
  428MOL0     H57736  10.325   9.345   6.148 -0.9157  0.0393  0.5241
  428MOL0     H57737  10.472   9.430   6.197 -2.5829 -3.1088  2.7738
  428MOL0     H57738  10.423   9.308   5.919 -0.1381 -0.2600  0.2126
  428MOL0     H57739  10.522   9.225   6.029  3.8866  1.3879 -0.2814
  428MOL0     H57740  10.570   9.172   5.791  0.2984  0.0524  1.6787
  428MOL0     H57741  10.597   9.017   5.645 -0.6200  1.0206 -0.3786
  428MOL0     H57742  10.702   9.102   5.527  3.5502 -0.8128 -0.3244
  428MOL0     H57743  10.770   8.962   5.621 -0.0360  0.3076 -1.1212
  428MOL0     H57744  11.350   9.258   5.758 -2.2060  0.1858 -2.6292
  428MOL0     H57745  11.571   9.187   5.706 -0.5098  1.3421 -0.2988
  428MOL0     H57746  11.718   9.176   5.547 -0.7613 -0.2286  1.2717
  428MOL0     H57747  11.758   9.069   5.673  0.6757 -3.4459 -0.2447
  428MOL0     H57748  11.885   8.930   5.534 -0.3981 -1.0564 -2.3613
  428MOL0     H57749  11.836   9.026   5.394  2.0683  0.6189 -1.4708
  428MOL0     H57750  11.968   9.165   5.632 -0.6998  0.2282 -0.1952
  428MOL0     H57751  11.977   9.212   5.467  1.1967 -0.0469 -0.7910
  428MOL0     H57752  12.111   8.953   5.568  3.3663  1.9416  4.6273
  428MOL0     H57753  12.131   9.023   5.409  1.1437 -5.2817  1.6289
  428MOL0     H57754  12.255   9.118   5.678  1.2853  1.0816  0.1017
  428MOL0     H57755  12.224   9.224   5.544 -2.1758  0.1224  1.6252
  428MOL0     H57756  12.398   8.979   5.540  1.6968  1.0863  2.1431
  428MOL0     H57757  12.361   9.084   5.399 -3.7674  1.8390  0.2432
  428MOL0     H57758  12.488   9.173   5.648  0.1854 -1.5109 -0.4799
  428MOL0     H57759  12.473   9.282   5.505 -1.3260 -1.0305 -1.7165
  428MOL0     H57760  12.592   9.140   5.374 -0.0292 -1.3640 -0.6073
  428MOL0     H57761  12.608   9.012   5.503  0.0607  0.4756  2.2822
  428MOL0     H57762  11.404   8.849   5.509 -2.2063 -0.5729  1.7254
  428MOL0     H57763  11.178   8.923   5.566 -2.5489  2.1063  0.9927
  428MOL0     H57764  11.028   9.323   5.831  0.1991  1.5167 -2.3884
  428MOL0     H57765  10.855   9.443   5.958  0.8631  1.6879 -1.8709
  428MOL0     H57766  10.809  10.690   5.965 -1.0167  1.9284 -0.6874
  428MOL0     H57767  10.710  10.799   5.790  2.4731  0.1499 -1.5682
  428MOL0     H57768  10.363  10.654   5.436 -1.4873  0.1584 -0.9423
  428MOL0     H57769  10.222  10.708   5.255  0.9363 -0.3706 -0.3907
  428MOL0     H57770  10.081  10.823   5.088  0.5762 -1.3115  1.1274
  428MOL0     H57771  10.003  10.875   5.242  0.2917  0.8879  0.7254
  428MOL0     H57772   9.869  10.933   5.046  1.4761 -2.4118  1.6449
  428MOL0     H57773   9.995  11.013   4.966 -1.3730  2.8344 -0.3321
  428MOL0     H57774   9.977  11.174   5.165  1.0867 -1.2562  0.0626
  428MOL0     H57775   9.849  11.070   5.228  1.1895 -2.0486 -0.5723
  428MOL0     H57776   9.847  11.212   4.952 -1.0186 -1.3133 -1.6467
  428MOL0     H57777   9.777  11.297   5.091  6.0173  0.0932  1.4360
  428MOL0     H57778   9.474  11.005   4.987  0.7836 -1.7542  2.1810
  428MOL0     H57779  10.304  11.129   5.337  0.5229 -0.3998  1.2292
  428MOL0     H57780  10.446  11.067   5.508 -1.7593  0.7603 -1.1033
  429MOL0     O57781   2.471   7.158   6.532 -0.0729  0.4682  0.3117
  429MOL0     C57782   2.480   7.096   6.430 -1.3084 -0.4868 -0.2043
  429MOL0     O57783   2.373   7.048   6.362 -1.3386  1.0754  0.6722
  429MOL0     C57784   2.248   7.071   6.419  0.9944  0.0381  1.0505
  429MOL0     C57785   2.220   6.993   6.530 -0.3500 -0.7396 -0.7105
  429MOL0     C57786   2.103   7.016   6.603 -0.6449  0.5208 -0.8448
  429MOL0     C57787   2.010   7.121   6.569 -0.2676 -0.2491  0.5190
  429MOL0     O57788   1.900   7.129   6.654  0.0383 -0.4768  0.0453
  429MOL0     C57789   1.774   7.178   6.598  1.1289 -0.1883 -0.2965
  429MOL0     C57790   1.758   7.332   6.606 -0.6748  0.1056 -0.1251
  429MOL0     C57791   1.751   7.391   6.748  0.5632 -0.3346  0.5034
  429MOL0     C57792   1.761   7.543   6.747 -0.2467  0.5155 -0.0570
  429MOL0     C57793   1.751   7.590   6.897 -0.5583  0.2956  0.5082
  429MOL0     C57794   1.772   7.740   6.920 -0.5804 -0.3783  0.0861
  429MOL0     C57795   1.664   7.828   6.855  0.6734 -0.2253 -0.0439
  429MOL0     C57796   1.699   7.980   6.875  1.3202 -0.4964  0.4384
  429MOL0     N57797   1.598   8.078   6.856  0.7319  0.0067  0.2573
  429MOL0     C57798   1.460   8.065   6.885 -0.3518  0.5198  0.5746
  429MOL0     C57799   1.407   8.156   6.800  0.6217  0.7239 -0.1197
  429MOL0     C57800   1.256   8.158   6.772  0.6398  0.3025  0.4353
  429MOL0     C57801   1.210   8.062   6.660  0.0912  0.1966 -0.1277
  429MOL0     C57802   1.269   8.090   6.514  0.9286  0.3124  0.4970
  429MOL0     C57803   1.181   8.005   6.414 -0.7004 -0.0838 -0.8575
  429MOL0     O57804   1.241   7.992   6.293 -0.6046 -0.3873 -0.0710
  429MOL0     C57805   1.307   7.883   6.264  0.0820  0.0759  0.2455
  429MOL0     C57806   1.379   7.814   6.357 -1.0979 -0.4161 -0.4499
  429MOL0     C57807   1.454   7.702   6.332 -0.4108  0.3435 -0.2247
  429MOL0     C57808   1.547   7.649   6.444 -0.7293 -0.3077 -0.5978
  429MOL0     C57809   1.458   7.649   6.201  0.2896 -0.5662  0.9607
  429MOL0     C57810   1.536   7.531   6.154  0.9941  0.4679  0.2874
  429MOL0     O57811   1.582   7.443   6.247 -0.1742  0.2071 -0.0618
  429MOL0     C57812   1.630   7.320   6.212 -0.0412  0.6970 -0.1222
  429MOL0     C57813   1.568   7.215   6.288  0.1154  0.2275  1.0122
  429MOL0     C57814   1.635   7.085   6.275  0.1884  0.4863 -0.3852
  429MOL0     C57815   1.756   7.077   6.201 -0.1764 -0.0114  0.0790
  429MOL0     O57816   1.817   6.950   6.205  0.2597  0.9556  0.3665
  429MOL0     C57817   1.930   6.911   6.116 -0.2325  0.0061  0.9109
  429MOL0     C57818   2.030   6.823   6.198 -1.3143  0.3485  0.4784
  429MOL0     C57819   1.968   6.685   6.219  0.4004  0.1609  0.1209
  429MOL0     C57820   2.077   6.586   6.273 -0.2617  0.3409 -0.2330
  429MOL0     C57821   2.021   6.444   6.278  0.4191 -0.9839  0.2399
  429MOL0     C57822   2.121   6.357   6.358 -0.2809  0.3024 -0.4261
  429MOL0     C57823   2.251   6.329   6.272 -0.0632  0.4034  0.2987
  429MOL0     C57824   2.225   6.238   6.151  1.2474 -0.2963 -1.0021
  429MOL0    Cl57825   2.356   6.173   6.071 -0.0674  0.1859 -0.2335
  429MOL0     C57826   1.805   7.193   6.132  0.6562  0.1582  0.2727
  429MOL0     C57827   1.742   7.308   6.128  0.2804 -0.5582 -0.4233
  429MOL0     O57828   1.541   7.513   6.037  0.5596 -0.2004  0.7022
  429MOL0     C57829   1.396   7.733   6.098  0.8512 -0.0423 -1.7296
  429MOL0     C57830   1.325   7.853   6.132 -0.0488 -0.2866  0.6909
  429MOL0     N57831   1.495   8.218   6.727  0.1681  0.0988  0.2344
  429MOL0     N57832   1.608   8.170   6.751  0.8257  0.3439 -0.1651
  429MOL0     C57833   2.045   7.204   6.462  0.5621  1.0137  0.8129
  429MOL0     C57834   2.158   7.173   6.377  0.2883  0.1660  0.5011
  429MOL0     C57835   2.619   7.099   6.373 -0.3769 -0.3459  0.0540
  429MOL0     C57836   2.662   7.015   6.260  0.1772 -0.1514 -0.5739
  429MOL0     C57837   2.787   7.041   6.197 -1.1274  0.3318 -0.5960
  429MOL0     C57838   2.876   7.134   6.259  0.0536  0.6887 -0.6118
  429MOL0     O57839   3.008   7.144   6.215 -0.7298  0.3703 -0.1998
  429MOL0     C57840   3.081   7.020   6.208  0.6831 -0.0701  0.0700
  429MOL0     C57841   3.119   6.969   6.351 -0.5135  0.7904  0.6730
  429MOL0     C57842   3.269   6.911   6.360  0.8523 -0.1194 -0.3563
  429MOL0     C57843   3.261   6.828   6.481 -0.7546  0.3532 -0.6965
  429MOL0     C57844   3.236   6.691   6.448  0.7733 -0.0116  0.1962
  429MOL0     C57845   3.218   6.578   6.405 -0.2422  0.4342 -1.3885
  429MOL0     C57846   2.832   7.208   6.369 -0.1315 -0.4064 -0.6637
  429MOL0     C57847   2.704   7.195   6.420  0.3070  0.4077  0.2733
  429MOL0     H57848   2.285   6.917   6.571 -1.2730 -1.5657 -0.7304
  429MOL0     H57849   2.081   6.953   6.688 -0.3422  0.8690 -0.5042
  429MOL0     H57850   1.769   7.154   6.492  1.5304 -1.8166  0.0278
  429MOL0     H57851   1.694   7.122   6.647 -0.4729  1.5150 -0.8060
  429MOL0     H57852   1.846   7.385   6.569 -1.0741  0.6609 -0.2908
  429MOL0     H57853   1.678   7.368   6.541  1.9147  3.3207 -1.8186
  429MOL0     H57854   1.659   7.368   6.803 -1.4018 -1.1086 -2.8135
  429MOL0     H57855   1.836   7.349   6.804  1.1141 -1.3504 -1.0301
  429MOL0     H57856   1.847   7.578   6.690  2.1610 -0.9274  2.4761
  429MOL0     H57857   1.665   7.569   6.701 -2.5011 -1.7769  2.9067
  429MOL0     H57858   1.651   7.569   6.934 -0.7230 -1.1197 -0.6440
  429MOL0     H57859   1.826   7.545   6.963  2.9998  3.1383 -1.2272
  429MOL0     H57860   1.769   7.743   7.030  1.4838 -2.5855  0.2971
  429MOL0     H57861   1.866   7.774   6.876  0.2258 -1.5581  0.8192
  429MOL0     H57862   1.644   7.807   6.749  0.4354 -2.3185  0.3589
  429MOL0     H57863   1.569   7.827   6.910 -0.2378  2.9215 -1.3416
  429MOL0     H57864   1.769   8.005   6.795  0.3494 -0.3382 -0.3739
  429MOL0     H57865   1.740   7.997   6.975 -1.1696 -0.1374  1.4863
  429MOL0     H57866   1.401   7.996   6.943 -1.8485  0.3954 -1.0228
  429MOL0     H57867   1.193   8.133   6.857  0.3179 -2.8851 -0.5924
  429MOL0     H57868   1.217   8.253   6.734 -1.8557 -0.1534  1.6379
  429MOL0     H57869   1.101   8.071   6.653  0.0402 -1.0991 -1.4656
  429MOL0     H57870   1.249   7.963   6.684  1.6844  1.5910  3.7664
  429MOL0     H57871   1.376   8.074   6.497  0.8052  0.7803 -0.8338
  429MOL0     H57872   1.258   8.198   6.499  3.3583  1.0866  3.3107
  429MOL0     H57873   1.084   8.054   6.404  0.6812  3.1433  0.3575
  429MOL0     H57874   1.153   7.915   6.470  1.4265 -0.0396  0.3502
  429MOL0     H57875   1.378   7.842   6.462  0.6901  0.4109 -0.6095
  429MOL0     H57876   1.543   7.725   6.523 -4.8222  0.1405 -0.9956
  429MOL0     H57877   1.499   7.560   6.487 -2.5212  1.2034  0.7270
  429MOL0     H57878   1.648   7.627   6.409  0.8951  3.3666  1.3049
  429MOL0     H57879   1.477   7.217   6.347  1.8365  0.0344  3.8672
  429MOL0     H57880   1.590   7.002   6.330 -3.1250  1.8013 -0.8635
  429MOL0     H57881   1.894   6.867   6.023 -0.8098  0.7133  0.7901
  429MOL0     H57882   1.981   7.005   6.090 -2.3886  1.0318  0.1201
  429MOL0     H57883   2.113   6.809   6.128 -1.7294  0.1672  0.0161
  429MOL0     H57884   2.072   6.877   6.284  0.4574  0.8323 -0.6467
  429MOL0     H57885   1.930   6.649   6.123 -1.0028  0.1654  0.6547
  429MOL0     H57886   1.878   6.701   6.279  0.7800 -1.3346  1.1609
  429MOL0     H57887   2.171   6.591   6.217  0.3279 -1.9508  0.4367
  429MOL0     H57888   2.094   6.624   6.374  0.7640 -0.9168  0.0883
  429MOL0     H57889   2.000   6.400   6.179 -0.5898 -2.3226  1.0043
  429MOL0     H57890   1.921   6.453   6.323 -1.3456  2.5104 -3.6826
  429MOL0     H57891   2.137   6.403   6.456 -4.5210  0.5941  0.3166
  429MOL0     H57892   2.092   6.254   6.379  0.6322 -0.8018 -3.8207
  429MOL0     H57893   2.315   6.284   6.349  1.2464  0.7575 -0.5372
  429MOL0     H57894   2.300   6.422   6.242  0.6031  1.0308  3.0909
  429MOL0     H57895   2.162   6.276   6.069 -0.2912 -2.4663 -0.9114
  429MOL0     H57896   2.166   6.152   6.184  1.4519  0.8208  2.7035
  429MOL0     H57897   1.894   7.182   6.071 -1.9530 -0.2785 -3.8125
  429MOL0     H57898   1.786   7.390   6.072 -1.2312  1.8701  1.7237
  429MOL0     H57899   1.374   7.714   5.994 -3.6059  2.3643 -1.4368
  429MOL0     H57900   1.263   7.902   6.058  4.3291  1.8040 -1.9415
  429MOL0     H57901   1.991   7.292   6.431  2.1297  2.0283  0.8716
  429MOL0     H57902   2.186   7.233   6.291 -0.3165 -0.0463  0.1521
  429MOL0     H57903   2.593   6.939   6.224  1.0649 -1.5884  0.6640
  429MOL0     H57904   2.817   6.989   6.107 -0.4703 -1.3003  0.5123
  429MOL0     H57905   3.036   6.951   6.136  3.7121  0.2520 -2.3308
  429MOL0     H57906   3.173   7.041   6.153  0.2178  0.2663 -0.5999
  429MOL0     H57907   3.045   6.897   6.389  0.8649 -0.0580  1.8325
  429MOL0     H57908   3.096   7.054   6.416 -3.4792  0.5516  0.1092
  429MOL0     H57909   3.325   7.001   6.386 -0.8571  0.4947  1.4515
  429MOL0     H57910   3.298   6.853   6.272 -2.0416 -0.5718 -1.1130
  429MOL0     H57911   3.193   6.863   6.559 -1.0786 -3.0076  0.6775
  429MOL0     H57912   3.362   6.824   6.524 -0.3799 -0.7086 -1.6098
  429MOL0     H57913   3.211   6.479   6.364  2.4888  0.7891 -2.9253
  429MOL0     H57914   2.895   7.283   6.415  1.8014 -2.5398  0.3238
  429MOL0     H57915   2.680   7.274   6.489  1.2474 -0.3240  1.4705
  430MOL0     O57916   5.659  10.229   2.104  0.6492  1.3179 -0.7324
  430MOL0     C57917   5.685  10.277   2.216 -0.1288  0.0834 -0.7676
  430MOL0     O57918   5.763  10.207   2.305 -0.6340 -0.0495 -0.4814
  430MOL0     C57919   5.824  10.090   2.264  0.2253  0.4220 -0.2013
  430MOL0     C57920   5.854   9.987   2.357 -0.3972  0.2763 -1.0224
  430MOL0     C57921   5.915   9.860   2.326  0.2428 -0.0349 -0.4329
  430MOL0     C57922   5.975   9.840   2.201 -0.2407  0.0338 -0.2031
  430MOL0     O57923   6.032   9.720   2.187  0.0856  0.2547  0.6642
  430MOL0     C57924   5.940   9.618   2.137  0.1134  0.3174 -0.1271
  430MOL0     C57925   6.041   9.505   2.089 -0.1658 -0.8688  0.4575
  430MOL0     C57926   5.966   9.393   2.013  0.2928 -0.1881 -0.9661
  430MOL0     C57927   5.935   9.441   1.881 -0.2253  0.1742  0.6939
  430MOL0     C57928   5.877   9.323   1.799  0.6478 -0.2860 -0.4438
  430MOL0     C57929   5.780   9.374   1.689  0.3338  0.9662 -1.4631
  430MOL0     C57930   5.691   9.264   1.620 -0.1870 -0.7897  0.2528
  430MOL0     C57931   5.536   9.291   1.614 -0.4747  0.1724  0.3960
  430MOL0     N57932   5.464   9.200   1.516 -0.6531 -0.4222 -0.5642
  430MOL0     C57933   5.518   9.083   1.470  0.3872  0.1079 -0.1025
  430MOL0     C57934   5.423   9.044   1.384 -0.2594 -0.2744 -0.7605
  430MOL0     C57935   5.425   8.903   1.316 -0.2751 -0.8086 -0.5486
  430MOL0     C57936   5.533   8.906   1.199  0.2244 -0.2789 -0.4654
  430MOL0     C57937   5.477   8.953   1.061 -0.1784 -1.0368  0.7149
  430MOL0     C57938   5.585   8.975   0.950  0.0754  0.2599 -0.3192
  430MOL0     O57939   5.678   8.860   0.940 -0.2443 -0.0135  0.0538
  430MOL0     C57940   5.658   8.759   0.852 -1.1998  0.7756  0.1740
  430MOL0     C57941   5.549   8.736   0.766 -0.6509 -0.3758  0.2369
  430MOL0     C57942   5.534   8.620   0.686 -0.8554 -0.5276  0.6645
  430MOL0     C57943   5.421   8.608   0.593 -0.2069  0.3654 -0.5168
  430MOL0     C57944   5.631   8.519   0.705 -0.1601  0.3595 -0.3140
  430MOL0     C57945   5.631   8.394   0.615 -0.5970 -0.3002  0.0891
  430MOL0     O57946   5.529   8.366   0.523 -1.1932 -0.5380 -0.0066
  430MOL0     C57947   5.541   8.244   0.458  0.5880  0.1822 -0.7277
  430MOL0     C57948   5.500   8.127   0.520  0.3721 -0.0273  0.4749
  430MOL0     C57949   5.529   8.005   0.445  0.1062 -0.3108 -0.5553
  430MOL0     C57950   5.574   7.997   0.312  0.1395  0.4929  0.5005
  430MOL0     O57951   5.600   7.875   0.257  0.1882  0.5266 -0.0945
  430MOL0     C57952   5.714   7.861   0.174  0.0003  0.2174  0.1018
  430MOL0     C57953   5.736   7.709   0.147  0.5770 -0.5114  0.1618
  430MOL0     C57954   5.765   7.622   0.274 -0.3260  0.3530 -1.3908
  430MOL0     C57955   5.841   7.679   0.393  0.1759  0.7538  0.4427
  430MOL0     C57956   5.895   7.557   0.476 -1.1420  0.7064 -0.6814
  430MOL0     C57957   5.992   7.593   0.582  0.1684 -0.7707 -0.6528
  430MOL0     C57958   6.016   7.477   0.677  0.5014  0.0206  0.1594
  430MOL0     C57959   6.158   7.460   0.714 -0.2460  0.6034 -0.3124
  430MOL0    Cl57960   6.278   7.431   0.583 -0.0303  0.3679 -0.0122
  430MOL0     C57961   5.611   8.118   0.260  0.4783 -0.6895 -0.4282
  430MOL0     C57962   5.597   8.239   0.330 -0.4172 -0.1294  0.0987
  430MOL0     O57963   5.733   8.321   0.635  0.2748 -0.2436  0.1630
  430MOL0     C57964   5.745   8.540   0.786  0.6475 -0.6519  0.3372
  430MOL0     C57965   5.755   8.658   0.863 -0.1503  0.7473 -0.4977
  430MOL0     N57966   5.319   9.138   1.373 -0.2105 -0.2762 -0.1822
  430MOL0     N57967   5.346   9.233   1.451 -0.5793  0.4679  0.1006
  430MOL0     C57968   5.955   9.935   2.103 -0.1923 -1.0357 -0.1071
  430MOL0     C57969   5.894  10.057   2.139 -0.0416 -0.1014  0.4830
  430MOL0     C57970   5.644  10.417   2.254 -0.5122  0.3118 -1.0121
  430MOL0     C57971   5.545  10.477   2.178  0.6879 -0.2419 -0.3514
  430MOL0     C57972   5.496  10.601   2.213  0.6423  0.1541  0.3520
  430MOL0     C57973   5.547  10.669   2.326  0.5061 -0.8804 -0.1245
  430MOL0     O57974   5.496  10.791   2.369 -0.4612  0.3191 -0.2034
  430MOL0     C57975   5.404  10.779   2.478  0.2351 -0.6725 -0.1465
  430MOL0     C57976   5.333  10.912   2.490  0.1707  0.2032 -0.2505
  430MOL0     C57977   5.201  10.910   2.410 -0.2167  0.3435 -0.4372
  430MOL0     C57978   5.150  11.055   2.377  1.1212 -0.4707 -1.1545
  430MOL0     C57979   5.229  11.141   2.283 -0.2622 -0.2718  0.8901
  430MOL0     C57980   5.297  11.201   2.204  0.2406 -0.2638 -0.3482
  430MOL0     C57981   5.641  10.608   2.401 -0.9183  0.9789 -0.4916
  430MOL0     C57982   5.685  10.477   2.373  0.0974 -0.2886  0.5122
  430MOL0     H57983   5.838   9.980   2.464 -1.2611  4.0284 -0.7865
  430MOL0     H57984   5.935   9.784   2.400  2.0074 -0.7434 -1.5877
  430MOL0     H57985   5.867   9.587   2.213  1.2156  1.6641  1.5689
  430MOL0     H57986   5.870   9.656   2.062 -1.6852 -1.9868  0.2574
  430MOL0     H57987   6.116   9.551   2.024  0.6980  0.1155  2.0824
  430MOL0     H57988   6.097   9.472   2.178 -0.9214  1.3457  1.8340
  430MOL0     H57989   6.023   9.300   2.006 -0.6896 -0.8284 -0.7892
  430MOL0     H57990   5.876   9.364   2.068 -2.6866  1.8835 -4.2841
  430MOL0     H57991   5.877   9.534   1.879  1.0016  0.9735 -1.7725
  430MOL0     H57992   6.025   9.466   1.825 -0.1323  0.7092  1.0730
  430MOL0     H57993   5.966   9.266   1.769  0.6094 -1.7793  1.9754
  430MOL0     H57994   5.823   9.252   1.863  1.7799 -1.5233 -0.8224
  430MOL0     H57995   5.708   9.438   1.740  1.1340 -0.3116  1.4320
  430MOL0     H57996   5.836   9.435   1.617  2.1193 -0.4119 -1.3264
  430MOL0     H57997   5.732   9.221   1.528  0.9635  0.4403  0.1542
  430MOL0     H57998   5.689   9.181   1.692 -0.4705  0.9892  2.3842
  430MOL0     H57999   5.507   9.392   1.582  1.0663  0.4713 -0.1904
  430MOL0     H58000   5.496   9.289   1.716  0.4098 -1.0806  0.7354
  430MOL0     H58001   5.591   9.023   1.524 -1.0974 -0.3906  1.4376
  430MOL0     H58002   5.457   8.824   1.384  0.5882 -0.7390 -0.8587
  430MOL0     H58003   5.324   8.874   1.288 -0.3159 -0.7940 -0.4176
  430MOL0     H58004   5.567   8.803   1.187 -0.3588 -0.8558  2.3143
  430MOL0     H58005   5.621   8.969   1.214  0.1523 -0.7143  2.1271
  430MOL0     H58006   5.421   9.047   1.065 -0.4770 -1.0609 -1.5693
  430MOL0     H58007   5.404   8.881   1.025 -1.3653  0.5632 -0.2076
  430MOL0     H58008   5.644   9.060   0.986  1.5595 -1.6350  1.9943
  430MOL0     H58009   5.541   8.991   0.851  0.3188 -0.5827 -0.5686
  430MOL0     H58010   5.474   8.814   0.778 -0.1828  0.3676 -1.3690
  430MOL0     H58011   5.366   8.702   0.604 -0.4005 -0.0361  3.4957
  430MOL0     H58012   5.445   8.595   0.487 -1.2567 -0.1146 -0.7115
  430MOL0     H58013   5.361   8.524   0.632  1.2874 -0.7296 -0.4976
  430MOL0     H58014   5.455   8.132   0.619 -2.6075  0.5651 -0.8088
  430MOL0     H58015   5.506   7.911   0.493  0.4828  0.6307  1.5992
  430MOL0     H58016   5.698   7.920   0.083 -1.5168 -2.0372 -1.1633
  430MOL0     H58017   5.801   7.905   0.224  0.8201  0.6955 -1.6651
  430MOL0     H58018   5.655   7.670   0.085  0.0112  1.8627 -0.7057
  430MOL0     H58019   5.831   7.692   0.096  0.5404  0.5679 -0.2946
  430MOL0     H58020   5.824   7.540   0.232  0.4173  0.7066 -1.0673
  430MOL0     H58021   5.674   7.574   0.312  1.3132 -1.4933  0.4605
  430MOL0     H58022   5.923   7.740   0.353  0.1401  1.9933  2.1360
  430MOL0     H58023   5.789   7.749   0.459  0.6004  1.5184 -0.0253
  430MOL0     H58024   5.955   7.484   0.421  0.9585  0.3161  1.9070
  430MOL0     H58025   5.807   7.513   0.524 -0.6030 -2.1760 -2.1420
  430MOL0     H58026   6.081   7.598   0.518 -1.4502 -1.9060 -3.1353
  430MOL0     H58027   5.963   7.683   0.637 -0.5768  0.7872 -3.4133
  430MOL0     H58028   5.976   7.384   0.637  2.6684 -2.3005  2.9736
  430MOL0     H58029   5.967   7.492   0.774  2.7329 -0.9513  1.5305
  430MOL0     H58030   6.167   7.380   0.788 -2.4902 -0.0125 -0.6565
  430MOL0     H58031   6.165   7.553   0.771  1.8045 -0.3268  1.0841
  430MOL0     H58032   5.643   8.130   0.157  0.6130  0.4186 -0.2686
  430MOL0     H58033   5.634   8.336   0.298  1.0771 -1.2720 -1.9173
  430MOL0     H58034   5.831   8.475   0.798  1.7377  0.7139  0.1862
  430MOL0     H58035   5.842   8.670   0.926  0.6762 -0.5343 -1.3506
  430MOL0     H58036   5.985   9.903   2.003 -1.4927  0.0482 -0.8880
  430MOL0     H58037   5.894  10.138   2.067  1.0542  1.3490  2.0253
  430MOL0     H58038   5.520  10.436   2.081  1.9142  0.2459 -0.9013
  430MOL0     H58039   5.417  10.647   2.154  2.0903  0.7061 -1.2312
  430MOL0     H58040   5.328  10.703   2.457 -0.8474  0.4693 -0.5398
  430MOL0     H58041   5.460  10.761   2.570  1.6850  2.5383 -0.2797
  430MOL0     H58042   5.404  10.990   2.460  0.7467 -0.0937  0.3173
  430MOL0     H58043   5.316  10.926   2.597 -1.0664 -1.0626 -0.2642
  430MOL0     H58044   5.133  10.853   2.474 -1.5838  2.1955 -0.1696
  430MOL0     H58045   5.223  10.858   2.317  1.6437 -1.4613  0.9079
  430MOL0     H58046   5.137  11.113   2.469  0.0942 -0.9100 -0.9997
  430MOL0     H58047   5.046  11.052   2.342  1.3835 -2.4302 -1.8761
  430MOL0     H58048   5.364  11.252   2.138 -0.6092  1.2288 -0.1255
  430MOL0     H58049   5.664  10.650   2.499 -1.4253 -0.7258  0.3877
  430MOL0     H58050   5.752  10.435   2.447 -0.9931 -2.5680  0.3153
  431MOL0     O58051   4.189   1.244  11.351 -0.8571  0.4381 -0.6934
  431MOL0     C58052   4.190   1.272  11.231 -0.6062  0.4777  0.3954
  431MOL0     O58053   4.104   1.357  11.166 -0.0527 -0.3588 -0.0648
  431MOL0     C58054   3.994   1.400  11.241 -0.2540  0.3213 -0.5799
  431MOL0     C58055   3.910   1.307  11.313 -0.4620  0.7990 -0.0734
  431MOL0     C58056   3.800   1.357  11.377  0.1001 -0.4356 -0.6717
  431MOL0     C58057   3.756   1.496  11.373  0.0124 -0.5746  0.2257
  431MOL0     O58058   3.655   1.546  11.452  0.4948  0.5875 -0.1435
  431MOL0     C58059   3.554   1.454  11.511  0.5300 -0.5016  0.6404
  431MOL0     C58060   3.480   1.527  11.618 -0.3333 -0.2914 -0.5769
  431MOL0     C58061   3.386   1.444  11.702  0.3046  0.9787 -0.1575
  431MOL0     C58062   3.333   1.526  11.817 -0.5480  0.5181 -0.6553
  431MOL0     C58063   3.240   1.455  11.909  0.2346  0.2480  0.0325
  431MOL0     C58064   3.099   1.461  11.833  0.9080 -0.1659 -0.5652
  431MOL0     C58065   3.005   1.351  11.897 -0.2094 -0.1260 -0.4167
  431MOL0     C58066   2.976   1.379  12.045  0.4964  0.0926 -0.9579
  431MOL0     N58067   2.857   1.472  12.071 -0.0155  0.0363 -0.2383
  431MOL0     C58068   2.721   1.431  12.066 -0.4424 -0.4396 -0.4814
  431MOL0     C58069   2.651   1.534  12.121 -0.1304  0.2560  0.0255
  431MOL0     C58070   2.500   1.527  12.144 -0.0710 -0.0628  0.1868
  431MOL0     C58071   2.461   1.415  12.239 -0.2627 -0.1462  0.3443
  431MOL0     C58072   2.531   1.418  12.382 -0.1450 -0.6431 -0.6738
  431MOL0     C58073   2.561   1.270  12.409 -0.1614  0.5793 -0.7084
  431MOL0     O58074   2.636   1.219  12.302 -0.1027  0.0206 -0.4419
  431MOL0     C58075   2.757   1.171  12.342 -0.1704 -0.2894 -0.8163
  431MOL0     C58076   2.857   1.258  12.367 -0.2402 -0.3636  0.4316
  431MOL0     C58077   2.983   1.204  12.398 -0.2158 -0.2157  0.2062
  431MOL0     C58078   3.088   1.306  12.437 -0.9236  0.4355 -0.4175
  431MOL0     C58079   3.017   1.068  12.396  0.9945  1.6369  0.1478
  431MOL0     C58080   3.137   1.002  12.453 -0.1649  0.8096 -0.2331
  431MOL0     O58081   3.127   0.869  12.473 -0.1947 -0.2297  0.5152
  431MOL0     C58082   3.239   0.800  12.510 -0.9236  0.1666 -0.3826
  431MOL0     C58083   3.292   0.707  12.418  0.0656 -0.3625 -0.1794
  431MOL0     C58084   3.397   0.617  12.459 -0.2813  0.9229  0.3963
  431MOL0     C58085   3.454   0.616  12.586 -0.4877  0.2572  0.0946
  431MOL0     O58086   3.556   0.535  12.626 -0.1571  0.5539 -0.3789
  431MOL0     C58087   3.568   0.404  12.576 -0.4594 -0.5252  0.3861
  431MOL0     C58088   3.667   0.385  12.459 -0.9237 -0.8339 -0.4674
  431MOL0     C58089   3.805   0.428  12.516  1.6086  0.1477 -0.8949
  431MOL0     C58090   3.931   0.413  12.431 -0.8590  0.1908  0.0036
  431MOL0     C58091   4.046   0.499  12.476 -0.2576  0.8459 -0.5800
  431MOL0     C58092   4.112   0.448  12.614 -0.9142  0.4408  0.4888
  431MOL0     C58093   4.236   0.522  12.667  0.4385  0.2121 -0.3820
  431MOL0     C58094   4.344   0.503  12.564  0.2942 -0.0531  0.7473
  431MOL0    Cl58095   4.516   0.519  12.642  0.5242 -0.0467  0.0644
  431MOL0     C58096   3.406   0.721  12.670  1.0015  1.3399  0.9163
  431MOL0     C58097   3.303   0.813  12.632  0.7482  0.2035 -0.5667
  431MOL0     O58098   3.237   1.065  12.475  0.0931 -0.0482  0.1504
  431MOL0     C58099   2.915   0.982  12.343 -0.1514  0.0652  0.1914
  431MOL0     C58100   2.779   1.038  12.326  0.4495  0.5645 -0.0573
  431MOL0     N58101   2.749   1.625  12.157  0.2443  0.1496 -0.0420
  431MOL0     N58102   2.867   1.590  12.138 -0.4393 -0.6967  0.7940
  431MOL0     C58103   3.844   1.588  11.293 -0.9939  0.0165 -0.3441
  431MOL0     C58104   3.960   1.532  11.229  0.6532  0.0372 -0.3497
  431MOL0     C58105   4.297   1.213  11.151 -0.1388  1.2544  0.8054
  431MOL0     C58106   4.305   1.239  11.017  0.3222  0.4292  0.1252
  431MOL0     C58107   4.397   1.175  10.936 -0.1059 -0.1797 -0.4740
  431MOL0     C58108   4.508   1.101  10.991  0.5267 -0.1441  0.1522
  431MOL0     O58109   4.598   1.056  10.903 -0.0544  0.1859 -0.2289
  431MOL0     C58110   4.688   0.959  10.952  0.6656  0.8828  0.0476
  431MOL0     C58111   4.756   0.891  10.830  0.0131 -0.3281  0.0836
  431MOL0     C58112   4.869   0.985  10.779  0.5678  0.4429 -0.3099
  431MOL0     C58113   4.987   0.918  10.715  0.2717  0.2890 -0.5475
  431MOL0     C58114   5.075   1.015  10.663  0.7424 -0.0058 -0.2642
  431MOL0     C58115   5.148   1.099  10.614 -0.4300 -0.0563  0.1251
  431MOL0     C58116   4.492   1.064  11.129 -0.6459  0.5560  0.1919
  431MOL0     C58117   4.384   1.119  11.208 -0.4285 -0.8052 -0.1257
  431MOL0     H58118   3.937   1.203  11.329 -1.2548  0.9307  2.7030
  431MOL0     H58119   3.741   1.279  11.422 -0.5130 -1.5003 -3.1655
  431MOL0     H58120   3.483   1.424  11.433 -0.5976  0.4767  1.2740
  431MOL0     H58121   3.600   1.360  11.543 -0.1397 -0.3668  2.0350
  431MOL0     H58122   3.546   1.576  11.690 -0.0609 -0.5976 -0.6164
  431MOL0     H58123   3.432   1.613  11.569  1.2613 -0.2686 -2.1741
  431MOL0     H58124   3.305   1.404  11.640 -0.8964  0.1905  1.8179
  431MOL0     H58125   3.440   1.358  11.743  1.7040  1.9687  0.1480
  431MOL0     H58126   3.419   1.553  11.878  0.5793 -1.7412 -1.1474
  431MOL0     H58127   3.292   1.623  11.786 -1.1205  0.0233 -1.4794
  431MOL0     H58128   3.266   1.349  11.919 -1.1981 -0.0211  1.2460
  431MOL0     H58129   3.235   1.510  12.003  1.5497  0.5579 -0.0697
  431MOL0     H58130   3.051   1.558  11.851  3.7290  2.2593 -4.6256
  431MOL0     H58131   3.107   1.444  11.725  4.8746 -3.4918  0.0127
  431MOL0     H58132   2.913   1.350  11.837  0.6407 -2.8343 -1.8131
  431MOL0     H58133   3.057   1.255  11.890 -0.0197  0.0737 -2.2763
  431MOL0     H58134   3.068   1.404  12.099  0.9031 -0.7566 -1.2323
  431MOL0     H58135   2.943   1.278  12.071  1.1463 -0.0929 -0.8378
  431MOL0     H58136   2.689   1.331  12.040 -0.8944  0.0991 -2.1209
  431MOL0     H58137   2.466   1.619  12.192  0.7127  0.1604  0.3208
  431MOL0     H58138   2.448   1.525  12.047  0.4636 -0.5620 -0.1005
  431MOL0     H58139   2.459   1.319  12.186 -0.1682 -0.7551  1.4186
  431MOL0     H58140   2.354   1.430  12.256  0.0233 -0.4945  2.7736
  431MOL0     H58141   2.464   1.467  12.452  0.7040 -0.8887  0.3333
  431MOL0     H58142   2.624   1.475  12.391 -0.8300  0.4249 -0.0867
  431MOL0     H58143   2.471   1.211  12.431  2.1551 -2.6671  0.9226
  431MOL0     H58144   2.615   1.258  12.504 -0.7111 -0.9960 -0.5790
  431MOL0     H58145   2.832   1.364  12.361 -0.1464 -0.0773  3.6326
  431MOL0     H58146   3.090   1.328  12.544  2.3333  2.9493 -0.8257
  431MOL0     H58147   3.188   1.280  12.399 -0.3290  0.3239  1.1472
  431MOL0     H58148   3.057   1.402  12.394 -1.1807 -0.1726 -1.6175
  431MOL0     H58149   3.255   0.695  12.317  1.2660  0.8327 -0.7905
  431MOL0     H58150   3.422   0.533  12.395 -2.5035  0.6961 -0.2453
  431MOL0     H58151   3.604   0.345  12.661 -0.5118 -1.0823  0.0268
  431MOL0     H58152   3.468   0.366  12.551  0.6436 -2.3490 -1.5458
  431MOL0     H58153   3.679   0.284  12.419  2.4294 -1.4444  1.6262
  431MOL0     H58154   3.633   0.453  12.380 -1.1096 -0.2224  0.1366
  431MOL0     H58155   3.827   0.363  12.602  2.3141  1.9954  0.3780
  431MOL0     H58156   3.795   0.532  12.549 -1.3361 -0.0036 -0.9754
  431MOL0     H58157   3.961   0.308  12.435  0.0941  0.4785  2.8090
  431MOL0     H58158   3.902   0.426  12.326  0.6314 -0.6335 -0.5303
  431MOL0     H58159   4.001   0.597  12.494 -1.9964  0.2412 -1.3992
  431MOL0     H58160   4.117   0.507  12.393 -1.0532 -0.4954 -1.4189
  431MOL0     H58161   4.032   0.446  12.688 -0.9546 -1.1543  0.4382
  431MOL0     H58162   4.132   0.341  12.616  1.1478  0.7793  1.8778
  431MOL0     H58163   4.265   0.475  12.762  0.6944 -0.2552 -0.6861
  431MOL0     H58164   4.217   0.625  12.698  3.4152  0.3201  1.5835
  431MOL0     H58165   4.334   0.567  12.475  0.7291  0.4612  1.0602
  431MOL0     H58166   4.349   0.398  12.535  4.1744  0.2961 -0.5027
  431MOL0     H58167   3.433   0.715  12.774 -2.3595  0.0230  1.8566
  431MOL0     H58168   3.273   0.882  12.710 -0.6340  0.6824 -1.4700
  431MOL0     H58169   2.935   0.875  12.349  2.2625  0.4615 -0.0747
  431MOL0     H58170   2.705   0.963  12.302  1.8660 -0.6604 -0.7866
  431MOL0     H58171   3.812   1.690  11.305 -0.9573 -0.0359  0.2279
  431MOL0     H58172   4.021   1.594  11.163  0.8819 -1.3086 -1.4599
  431MOL0     H58173   4.241   1.315  10.974  0.5057  0.4442 -0.1248
  431MOL0     H58174   4.391   1.205  10.831 -0.1364 -0.6732 -0.6165
  431MOL0     H58175   4.746   0.989  11.040 -2.2814  1.2093  2.0343
  431MOL0     H58176   4.621   0.884  10.994  0.2574  1.9802  1.4510
  431MOL0     H58177   4.687   0.852  10.755  1.7618 -1.4693 -0.9945
  431MOL0     H58178   4.819   0.810  10.868  3.7418  1.5484 -1.5930
  431MOL0     H58179   4.907   1.033  10.870 -1.4627  1.7571 -0.0999
  431MOL0     H58180   4.826   1.066  10.718  0.3102  0.8526  0.4076
  431MOL0     H58181   4.954   0.857  10.630  0.3867 -0.4423 -0.0772
  431MOL0     H58182   5.030   0.849  10.788 -0.2685  0.8274  0.2955
  431MOL0     H58183   5.214   1.168  10.566 -2.8848  0.5401 -2.6792
  431MOL0     H58184   4.562   0.993  11.172 -0.5384  0.6421  0.1605
  431MOL0     H58185   4.371   1.087  11.311 -1.0599  1.8460  0.6984
  432MOL0     O58186   2.650   9.712  10.900  0.4404  0.0687 -0.2817
  432MOL0     C58187   2.552   9.694  10.828  0.5973  0.6845 -0.1681
  432MOL0     O58188   2.555   9.675  10.693  0.7764  0.0919 -0.0477
  432MOL0     C58189   2.677   9.680  10.630  0.5477  0.0490  0.8696
  432MOL0     C58190   2.733   9.805  10.593 -1.0961 -1.3618  0.3356
  432MOL0     C58191   2.866   9.820  10.537  0.1286  0.0803 -0.0270
  432MOL0     C58192   2.950   9.703  10.530  0.7515 -0.1674 -0.1606
  432MOL0     O58193   3.077   9.737  10.482 -0.2235 -0.2422  0.0358
  432MOL0     C58194   3.180   9.641  10.500 -0.2196 -0.0985  0.5919
  432MOL0     C58195   3.212   9.563  10.375  0.5447 -0.0434 -0.4595
  432MOL0     C58196   3.287   9.650  10.275  1.0626  0.0023 -0.3859
  432MOL0     C58197   3.310   9.579  10.133  1.1680 -0.3384 -0.5649
  432MOL0     C58198   3.427   9.639  10.038 -0.0425  0.5569  0.3495
  432MOL0     C58199   3.564   9.658  10.095 -1.2057  0.8051 -0.0907
  432MOL0     C58200   3.634   9.525  10.157  0.1444  0.0367  0.2477
  432MOL0     C58201   3.785   9.537  10.185 -1.0044 -0.4296  0.4184
  432MOL0     N58202   3.855   9.413  10.221  0.3484 -0.4811  0.0391
  432MOL0     C58203   3.989   9.384  10.233  0.7695 -0.2753 -1.0989
  432MOL0     C58204   3.988   9.264  10.286 -0.1177  0.3990  0.1394
  432MOL0     C58205   4.114   9.197  10.315 -0.4923  0.3067  0.6390
  432MOL0     C58206   4.182   9.109  10.206 -0.9264  0.3770  0.2773
  432MOL0     C58207   4.267   9.177  10.091 -0.1865  0.8007  0.0381
  432MOL0     C58208   4.280   9.080   9.971 -0.5935  0.9869  0.8073
  432MOL0     O58209   4.155   9.069   9.909  0.5924 -0.1860  0.2971
  432MOL0     C58210   4.132   9.140   9.793 -0.1055  0.4445 -0.5744
  432MOL0     C58211   4.013   9.211   9.787 -1.0015  0.0498 -0.6235
  432MOL0     C58212   3.973   9.275   9.674  0.7940 -1.1279 -0.5522
  432MOL0     C58213   3.849   9.361   9.674 -0.6231  0.0080 -1.0263
  432MOL0     C58214   4.049   9.279   9.552  0.3011  0.6678 -0.7015
  432MOL0     C58215   4.010   9.335   9.416  0.1374 -0.2747 -0.5632
  432MOL0     O58216   4.121   9.352   9.336 -0.0963 -0.1606 -0.2234
  432MOL0     C58217   4.089   9.386   9.204  0.2256  0.8439  0.4178
  432MOL0     C58218   4.076   9.519   9.163  0.0761 -0.1462 -0.7452
  432MOL0     C58219   4.053   9.553   9.035 -0.4890  0.5357 -0.0675
  432MOL0     C58220   4.049   9.452   8.938 -0.3276  0.1598 -1.2953
  432MOL0     O58221   4.044   9.485   8.813 -0.2000 -0.1575  0.4923
  432MOL0     C58222   3.911   9.461   8.752  0.1096 -0.0042 -0.8295
  432MOL0     C58223   3.813   9.571   8.777 -0.6828 -0.7231  0.6078
  432MOL0     C58224   3.872   9.700   8.725  0.1588 -0.2494  0.3471
  432MOL0     C58225   3.782   9.818   8.752 -0.0572  0.6216  0.6789
  432MOL0     C58226   3.852   9.943   8.710  0.0483 -0.1362  0.0912
  432MOL0     C58227   3.782  10.065   8.777  0.1617 -0.1207 -0.1426
  432MOL0     C58228   3.878  10.184   8.749  0.2101  0.9305 -0.4495
  432MOL0     C58229   3.820  10.328   8.772  0.1176  0.7498 -0.4104
  432MOL0    Cl58230   3.947  10.438   8.729 -0.0726  0.2559  0.3518
  432MOL0     C58231   4.075   9.322   8.980  0.4877  0.9773  0.2585
  432MOL0     C58232   4.086   9.279   9.117  1.6218  0.4927  0.4140
  432MOL0     O58233   3.893   9.369   9.396 -0.1164  0.4332 -0.9978
  432MOL0     C58234   4.172   9.202   9.562 -0.3507 -0.2333  0.2245
  432MOL0     C58235   4.214   9.136   9.674 -0.0882 -1.0358  0.2151
  432MOL0     N58236   3.860   9.226  10.314  1.0188 -1.2266 -0.0471
  432MOL0     N58237   3.779   9.312  10.277  0.4175 -0.4003  0.5257
  432MOL0     C58238   2.882   9.574  10.549  0.9154 -0.1229 -0.0034
  432MOL0     C58239   2.749   9.565  10.588  0.1594  0.1419  0.6614
  432MOL0     C58240   2.422   9.700  10.897  0.5837 -0.0355 -0.3934
  432MOL0     C58241   2.316   9.626  10.839  0.1970 -0.1443  0.4487
  432MOL0     C58242   2.183   9.647  10.888  0.1616  0.0591  0.7078
  432MOL0     C58243   2.152   9.750  10.972 -0.4825 -0.4954 -0.9914
  432MOL0     O58244   2.028   9.786  11.018 -0.1115 -0.0330 -0.1567
  432MOL0     C58245   1.963   9.669  11.073 -1.2795 -0.0585  0.5724
  432MOL0     C58246   1.832   9.706  11.141  0.0545  0.3371  0.3364
  432MOL0     C58247   1.850   9.763  11.283 -0.4264 -0.3899 -0.5354
  432MOL0     C58248   1.884   9.660  11.393 -0.4946 -0.2165 -0.4543
  432MOL0     C58249   1.922   9.722  11.521 -0.4913  0.6102 -0.0672
  432MOL0     C58250   1.967   9.765  11.626 -0.2878  0.3671  0.3986
  432MOL0     C58251   2.258   9.804  11.043 -0.7281  0.3094 -0.0241
  432MOL0     C58252   2.388   9.774  11.008 -0.4720 -0.7819 -0.0080
  432MOL0     H58253   2.682   9.898  10.617  0.0034 -0.5082 -0.5155
  432MOL0     H58254   2.915   9.910  10.502  0.1227  0.9406  2.0678
  432MOL0     H58255   3.272   9.691  10.532 -1.1799  0.0839  3.3808
  432MOL0     H58256   3.154   9.574  10.583 -1.8316  0.9763  0.9909
  432MOL0     H58257   3.283   9.485  10.403 -0.5183 -1.0805 -0.5650
  432MOL0     H58258   3.121   9.518  10.333  1.7284 -1.7160 -1.3159
  432MOL0     H58259   3.217   9.733  10.258 -0.4785 -1.4513 -1.4301
  432MOL0     H58260   3.383   9.688  10.312  1.5636 -0.7443 -0.9044
  432MOL0     H58261   3.329   9.472  10.139 -1.9026 -1.1039 -2.2764
  432MOL0     H58262   3.213   9.583  10.083 -1.0019  1.7308  3.3131
  432MOL0     H58263   3.441   9.561   9.962  0.2987 -0.0851  1.0542
  432MOL0     H58264   3.387   9.727   9.988 -2.8079 -1.0465 -0.4519
  432MOL0     H58265   3.630   9.695  10.016 -1.1987 -1.8326 -1.4283
  432MOL0     H58266   3.564   9.742  10.165 -3.2306  0.6247  0.1789
  432MOL0     H58267   3.572   9.514  10.246 -0.3096  0.3027 -0.0321
  432MOL0     H58268   3.622   9.438  10.091  3.7638 -1.8559  1.7603
  432MOL0     H58269   3.808   9.610  10.264 -1.4948 -1.8487  1.9376
  432MOL0     H58270   3.834   9.566  10.091  1.7972  0.7502  2.1011
  432MOL0     H58271   4.078   9.439  10.204  1.5509 -1.9233 -1.9766
  432MOL0     H58272   4.197   9.265  10.337  1.0757 -0.0384 -3.3301
  432MOL0     H58273   4.079   9.134  10.398 -0.8772 -0.3113  0.0151
  432MOL0     H58274   4.111   9.052  10.146  3.1173 -2.7291 -2.0001
  432MOL0     H58275   4.235   9.036  10.267  1.6073  4.2380  3.2283
  432MOL0     H58276   4.364   9.200  10.136 -0.7748 -0.0637  1.8207
  432MOL0     H58277   4.224   9.273  10.059  1.8744  1.0350 -2.3898
  432MOL0     H58278   4.326   8.982   9.989 -0.2823  1.3997  2.4623
  432MOL0     H58279   4.351   9.140   9.912  0.6239  0.2660  1.4899
  432MOL0     H58280   3.943   9.203   9.870 -2.1092  1.3838 -1.3877
  432MOL0     H58281   3.876   9.458   9.633  0.0973  1.7684  3.1229
  432MOL0     H58282   3.771   9.307   9.619 -2.1685  1.3588 -0.2549
  432MOL0     H58283   3.807   9.378   9.774 -3.3366 -0.6155 -1.9852
  432MOL0     H58284   4.093   9.593   9.240  0.9870 -2.4588  1.4369
  432MOL0     H58285   4.038   9.654   8.997 -1.0088 -0.2387 -2.0544
  432MOL0     H58286   3.929   9.446   8.645  1.9249 -0.4657 -0.5042
  432MOL0     H58287   3.865   9.372   8.796  0.6983  0.8593  1.6409
  432MOL0     H58288   3.718   9.540   8.732 -1.1636 -0.0045  1.1178
  432MOL0     H58289   3.803   9.563   8.885  1.6552 -0.8763  0.8649
  432MOL0     H58290   3.887   9.693   8.616  0.2917 -1.0359  0.4070
  432MOL0     H58291   3.975   9.719   8.756  0.4407  2.7078 -1.9300
  432MOL0     H58292   3.690   9.795   8.697  1.7734 -0.5693 -2.0971
  432MOL0     H58293   3.754   9.832   8.857 -2.9950  1.9961 -0.1649
  432MOL0     H58294   3.843   9.947   8.601  1.0637 -0.8163 -0.0268
  432MOL0     H58295   3.958   9.943   8.735 -0.5173  1.6780  3.0264
  432MOL0     H58296   3.676  10.068   8.748 -1.1939 -0.5562  4.0691
  432MOL0     H58297   3.779  10.057   8.886 -1.3037  0.8763 -0.0887
  432MOL0     H58298   3.895  10.169   8.642 -1.4609 -4.4555 -0.2458
  432MOL0     H58299   3.965  10.178   8.815  0.0666 -1.8899 -0.3735
  432MOL0     H58300   3.804  10.353   8.877  2.0134  1.6815 -0.3164
  432MOL0     H58301   3.732  10.366   8.719  0.5550  3.8120  0.8383
  432MOL0     H58302   4.073   9.241   8.908  0.3377 -1.1449  2.5230
  432MOL0     H58303   4.094   9.175   9.147  3.3871  1.0597  2.1103
  432MOL0     H58304   4.228   9.187   9.470 -3.0426 -4.3818 -1.0461
  432MOL0     H58305   4.299   9.068   9.675  0.8368  0.0755 -0.2004
  432MOL0     H58306   2.937   9.483  10.525 -0.9847 -1.8919  1.9704
  432MOL0     H58307   2.706   9.466  10.591  0.5313 -0.0696 -0.4566
  432MOL0     H58308   2.329   9.563  10.752 -1.6037  1.2045 -0.8724
  432MOL0     H58309   2.111   9.583  10.838  1.7892 -0.2664 -1.3337
  432MOL0     H58310   1.942   9.595  10.995 -0.8395 -0.7002  1.0583
  432MOL0     H58311   2.031   9.616  11.139  1.5209 -0.3760 -2.3411
  432MOL0     H58312   1.773   9.614  11.138 -0.5322  0.7227 -0.1639
  432MOL0     H58313   1.787   9.777  11.071 -2.1017 -1.7070 -0.4901
  432MOL0     H58314   1.755   9.809  11.311  0.6943  1.2364  0.7448
  432MOL0     H58315   1.918   9.848  11.291 -0.9962 -0.1270  3.6412
  432MOL0     H58316   1.959   9.594  11.348  0.2935  0.9323 -0.8851
  432MOL0     H58317   1.791   9.610  11.419 -0.3417  0.7552  2.3022
  432MOL0     H58318   2.007   9.776  11.725 -1.7200 -1.7221  1.2771
  432MOL0     H58319   2.233   9.884  11.112  0.1427 -1.5296  2.6000
  432MOL0     H58320   2.455   9.829  11.074 -0.5803  0.6381 -1.0267
  433MOL0     O58321   2.152   5.996   2.926 -1.0299 -1.2071  0.4572
  433MOL0     C58322   2.149   5.885   2.961  0.4290  0.6315 -0.0482
  433MOL0     O58323   2.056   5.794   2.924  0.5372  0.1930  0.7236
  433MOL0     C58324   1.942   5.845   2.856 -0.6074 -0.0728 -0.0924
  433MOL0     C58325   1.826   5.783   2.901 -0.0034  0.0437 -0.6674
  433MOL0     C58326   1.698   5.823   2.846 -0.7073  0.2025  0.2154
  433MOL0     C58327   1.698   5.904   2.734 -0.7947 -0.3394  0.7247
  433MOL0     O58328   1.570   5.915   2.688  1.3108  0.0221  0.1849
  433MOL0     C58329   1.550   5.998   2.577  0.0312  1.0868 -0.3662
  433MOL0     C58330   1.411   5.973   2.531 -0.8300 -0.7486 -0.3519
  433MOL0     C58331   1.371   6.092   2.447 -0.0081 -0.7288  0.3932
  433MOL0     C58332   1.230   6.105   2.400  0.2132  0.5669 -0.2371
  433MOL0     C58333   1.187   6.250   2.346  0.2128  0.2946 -0.0023
  433MOL0     C58334   1.175   6.362   2.456 -0.0350 -0.3249  0.4724
  433MOL0     C58335   1.101   6.481   2.382 -0.0448  0.1375  0.6467
  433MOL0     C58336   1.087   6.615   2.463 -1.2687 -1.5693  0.0108
  433MOL0     N58337   1.012   6.712   2.383 -0.0873 -0.3441 -0.2123
  433MOL0     C58338   0.875   6.727   2.370 -0.3420 -0.1067 -0.7728
  433MOL0     C58339   0.851   6.817   2.275 -0.0710  0.4230 -0.0980
  433MOL0     C58340   0.715   6.839   2.220  1.0388 -1.4157 -0.2128
  433MOL0     C58341   0.708   6.974   2.134  0.2193  2.0511 -0.0235
  433MOL0     C58342   0.741   7.091   2.209  0.6759 -0.3676  0.0437
  433MOL0     C58343   0.716   7.219   2.136 -0.2236 -0.2142  0.5087
  433MOL0     O58344   0.794   7.319   2.211  0.1370 -0.6976 -0.1352
  433MOL0     C58345   0.738   7.446   2.224  0.1309  0.3375 -0.0028
  433MOL0     C58346   0.836   7.550   2.239  0.3097  0.1380  0.0621
  433MOL0     C58347   0.809   7.687   2.243 -0.0224 -0.8327  0.2034
  433MOL0     C58348   0.917   7.796   2.259  0.0819  0.0623 -0.1565
  433MOL0     C58349   0.668   7.718   2.237 -0.6331  0.1645  0.8796
  433MOL0     C58350   0.624   7.860   2.214  1.0794  0.4693  0.5055
  433MOL0     O58351   0.673   7.966   2.284  0.1104  0.0342 -0.0126
  433MOL0     C58352   0.659   8.094   2.242  0.5184  0.4742 -0.0751
  433MOL0     C58353   0.664   8.192   2.346 -0.4588  0.0656 -0.5235
  433MOL0     C58354   0.644   8.324   2.321  0.2432  0.4650 -0.9596
  433MOL0     C58355   0.606   8.368   2.193 -1.1910  0.4740 -0.8978
  433MOL0     O58356   0.588   8.500   2.160  0.2377 -0.0620 -0.3786
  433MOL0     C58357   0.659   8.595   2.248  0.4679 -0.4910 -0.2239
  433MOL0     C58358   0.669   8.744   2.178 -0.0124  0.6657  0.1462
  433MOL0     C58359   0.765   8.733   2.061 -0.6516  0.1833  0.4091
  433MOL0     C58360   0.815   8.868   2.009 -0.8109  0.9846 -0.2114
  433MOL0     C58361   0.719   8.943   1.920  0.4778  0.8461 -0.0368
  433MOL0     C58362   0.772   9.066   1.851  0.3946 -0.1292  0.5736
  433MOL0     C58363   0.667   9.126   1.749 -0.6169  0.6830 -0.0186
  433MOL0     C58364   0.739   9.236   1.664 -0.0580 -0.0405  0.1969
  433MOL0    Cl58365   0.629   9.322   1.561  0.0860  0.0075  0.3622
  433MOL0     C58366   0.603   8.280   2.093 -0.0316  0.3225  0.0342
  433MOL0     C58367   0.624   8.135   2.110  0.8980  0.3179  0.0196
  433MOL0     O58368   0.528   7.863   2.140  0.4155  0.8344  0.5560
  433MOL0     C58369   0.566   7.617   2.229 -0.2527 -0.3761  0.6780
  433MOL0     C58370   0.602   7.485   2.223  0.7792  0.4139 -0.3946
  433MOL0     N58371   0.973   6.846   2.230 -0.2601  0.3700 -0.2652
  433MOL0     N58372   1.064   6.785   2.286 -0.5014  0.0883  0.1979
  433MOL0     C58373   1.813   5.968   2.695 -0.5139 -0.3547 -0.4073
  433MOL0     C58374   1.932   5.935   2.753 -0.0874  0.6896  0.2708
  433MOL0     C58375   2.260   5.835   3.044 -0.3508  0.7649 -1.3083
  433MOL0     C58376   2.279   5.697   3.063 -0.1106  0.4369 -0.5459
  433MOL0     C58377   2.385   5.651   3.148 -0.2676  0.8059  0.1080
  433MOL0     C58378   2.464   5.744   3.219 -1.0051 -0.2909  0.4466
  433MOL0     O58379   2.574   5.700   3.289  0.2544  0.8679  0.1215
  433MOL0     C58380   2.631   5.777   3.394 -0.2669  0.3965  0.0516
  433MOL0     C58381   2.638   5.697   3.524  0.0021 -0.6661  0.3680
  433MOL0     C58382   2.747   5.582   3.526  0.3203 -0.5554  0.8335
  433MOL0     C58383   2.710   5.463   3.439  0.6545  0.2294 -0.8311
  433MOL0     C58384   2.819   5.364   3.454 -0.7174  0.0806 -0.4671
  433MOL0     C58385   2.902   5.287   3.486  0.2035 -0.8386 -0.6243
  433MOL0     C58386   2.434   5.883   3.207 -0.5750  1.4457  0.2453
  433MOL0     C58387   2.337   5.926   3.112 -0.4712  0.0368 -0.3483
  433MOL0     H58388   1.826   5.711   2.982  0.6403  1.2726  0.4660
  433MOL0     H58389   1.611   5.775   2.890 -0.9911  1.4463  1.0732
  433MOL0     H58390   1.567   6.102   2.607  0.7012  1.4110 -1.7585
  433MOL0     H58391   1.623   5.958   2.505  1.5801 -1.4056  2.3949
  433MOL0     H58392   1.415   5.877   2.481 -1.1435  0.9243 -3.8547
  433MOL0     H58393   1.351   5.965   2.623 -0.2122 -3.6841 -0.1276
  433MOL0     H58394   1.395   6.181   2.507  1.7492  0.3346 -1.7503
  433MOL0     H58395   1.424   6.097   2.352 -0.0553 -3.8935  0.0954
  433MOL0     H58396   1.220   6.033   2.319  2.0980 -0.3663  0.3049
  433MOL0     H58397   1.158   6.084   2.480  0.2534  2.8719  0.4885
  433MOL0     H58398   1.245   6.290   2.262  0.7360 -1.3840 -0.4871
  433MOL0     H58399   1.085   6.235   2.309  1.5660 -4.1383 -2.6902
  433MOL0     H58400   1.110   6.322   2.534  0.4070  0.9245  1.5136
  433MOL0     H58401   1.276   6.387   2.490  0.5518 -2.2259  0.2158
  433MOL0     H58402   1.151   6.502   2.287 -0.7248 -0.0926  0.2364
  433MOL0     H58403   0.998   6.459   2.356 -0.9930  3.3915  1.2213
  433MOL0     H58404   1.183   6.662   2.485 -3.0895  1.5514  2.2455
  433MOL0     H58405   1.054   6.594   2.565 -0.1934 -0.7090  0.5634
  433MOL0     H58406   0.809   6.667   2.431  0.8522 -0.4727  0.1914
  433MOL0     H58407   0.681   6.750   2.166  1.3437 -0.5276 -1.9702
  433MOL0     H58408   0.657   6.855   2.310  0.9371 -4.9692  0.5191
  433MOL0     H58409   0.606   6.978   2.093 -0.2406 -2.8249  0.0592
  433MOL0     H58410   0.772   6.976   2.045  1.3044 -0.8057  0.6100
  433MOL0     H58411   0.847   7.077   2.232  0.5951 -2.2344 -0.5561
  433MOL0     H58412   0.672   7.086   2.294 -0.8999 -0.1303 -1.1884
  433MOL0     H58413   0.610   7.247   2.128 -0.6824 -1.6836  1.1485
  433MOL0     H58414   0.750   7.220   2.032 -0.1649 -3.3316  0.4133
  433MOL0     H58415   0.939   7.516   2.227  1.2497  0.9996  4.1975
  433MOL0     H58416   1.016   7.751   2.253 -0.6589 -1.5523 -0.9347
  433MOL0     H58417   0.912   7.853   2.166 -1.4178 -0.8847 -0.6869
  433MOL0     H58418   0.897   7.867   2.340  1.8083  1.9907 -1.3253
  433MOL0     H58419   0.676   8.153   2.447  2.5548  0.4429 -0.6403
  433MOL0     H58420   0.643   8.387   2.410 -0.3124 -1.4039  0.4270
  433MOL0     H58421   0.607   8.594   2.344  0.4907 -0.8861 -0.2116
  433MOL0     H58422   0.761   8.559   2.265  1.4099  2.0891  0.0425
  433MOL0     H58423   0.570   8.779   2.149  0.3726  1.0560 -0.7194
  433MOL0     H58424   0.713   8.814   2.251  0.2807  2.2585 -1.4867
  433MOL0     H58425   0.718   8.679   1.979  3.1987  0.0885 -2.0022
  433MOL0     H58426   0.854   8.678   2.094 -1.7788 -2.7918 -1.2092
  433MOL0     H58427   0.837   8.934   2.094  3.1448  1.7958 -1.6213
  433MOL0     H58428   0.908   8.847   1.955 -2.2698 -2.0368 -1.7808
  433MOL0     H58429   0.628   8.978   1.969  2.4010  5.1638  0.9626
  433MOL0     H58430   0.691   8.870   1.844  1.6728  0.5216 -0.1895
  433MOL0     H58431   0.801   9.135   1.931 -0.3270 -1.1553  1.7667
  433MOL0     H58432   0.856   9.036   1.788  0.4542  2.5614 -0.7818
  433MOL0     H58433   0.573   9.162   1.792 -0.7276  0.8033 -0.3556
  433MOL0     H58434   0.645   9.040   1.685  2.0381  1.3846 -2.0617
  433MOL0     H58435   0.806   9.183   1.595 -1.0792 -2.7331  1.1580
  433MOL0     H58436   0.798   9.305   1.724  2.4799 -0.3945 -1.7039
  433MOL0     H58437   0.594   8.321   1.992 -2.0884 -1.8303 -0.7515
  433MOL0     H58438   0.616   8.062   2.030 -6.6182  1.0751 -0.5771
  433MOL0     H58439   0.462   7.648   2.218  0.0348  0.8235  1.1826
  433MOL0     H58440   0.524   7.410   2.221 -0.5162  1.6836  0.5936
  433MOL0     H58441   1.802   6.043   2.617 -1.6183  0.4037  0.4502
  433MOL0     H58442   2.021   5.985   2.716  0.0153  1.2914  1.2888
  433MOL0     H58443   2.214   5.621   3.022  3.2664 -2.6642 -0.6720
  433MOL0     H58444   2.396   5.544   3.159 -2.6508  0.6610  2.0379
  433MOL0     H58445   2.725   5.816   3.353 -1.1420  1.1923 -1.2831
  433MOL0     H58446   2.568   5.864   3.417  2.3321  1.4749  4.4298
  433MOL0     H58447   2.535   5.671   3.551 -0.0431 -0.8108  0.0641
  433MOL0     H58448   2.665   5.772   3.599  3.1044  0.5090 -1.7011
  433MOL0     H58449   2.766   5.562   3.632  2.1921 -0.8615  0.4689
  433MOL0     H58450   2.844   5.614   3.488 -0.6102  0.1071 -1.1362
  433MOL0     H58451   2.705   5.482   3.332  2.1253 -0.3434 -1.0231
  433MOL0     H58452   2.616   5.424   3.480  0.9139  0.4030 -0.0579
  433MOL0     H58453   2.984   5.222   3.511  1.9095  2.3384  3.2064
  433MOL0     H58454   2.491   5.959   3.259 -1.6869  1.1627  1.9403
  433MOL0     H58455   2.330   6.033   3.098  1.1657  0.3749  1.1317
  434MOL0     O58456   6.912   8.211   8.770 -0.2987 -0.4113 -0.5652
  434MOL0     C58457   6.894   8.238   8.643 -0.1689  1.1222 -0.4486
  434MOL0     O58458   6.781   8.219   8.565 -0.3380  0.4674 -0.5629
  434MOL0     C58459   6.684   8.151   8.637 -0.6024 -1.2498  0.4719
  434MOL0     C58460   6.691   8.012   8.639 -0.3234 -0.5444 -0.0955
  434MOL0     C58461   6.596   7.936   8.708 -0.1989  0.7984 -0.1281
  434MOL0     C58462   6.483   8.000   8.765 -0.3489 -0.0008 -0.8071
  434MOL0     O58463   6.377   7.952   8.837 -0.9476  0.3588  0.7924
  434MOL0     C58464   6.332   7.815   8.801 -0.0851  0.8265 -0.6709
  434MOL0     C58465   6.220   7.770   8.899 -0.7746  0.4048  1.1110
  434MOL0     C58466   6.251   7.756   9.047  0.1664 -0.1872  0.3775
  434MOL0     C58467   6.354   7.648   9.070  0.0866 -0.1458 -0.4158
  434MOL0     C58468   6.346   7.589   9.209  0.2947  0.1389 -0.8236
  434MOL0     C58469   6.213   7.508   9.249  0.0283  0.0526  0.3624
  434MOL0     C58470   6.243   7.401   9.352  0.1353  0.7104  0.0492
  434MOL0     C58471   6.303   7.444   9.479  0.5184  0.4482 -0.0114
  434MOL0     N58472   6.301   7.342   9.584 -0.1377  1.0802  0.3646
  434MOL0     C58473   6.189   7.324   9.667 -1.0231 -0.1033 -0.8293
  434MOL0     C58474   6.222   7.206   9.735 -0.8567 -0.8095 -0.2066
  434MOL0     C58475   6.132   7.117   9.820  0.6520 -0.0709 -0.4356
  434MOL0     C58476   6.010   7.071   9.736  1.5653 -0.2939 -0.2278
  434MOL0     C58477   5.933   6.955   9.804  0.6290 -0.1379 -0.1749
  434MOL0     C58478   5.925   6.957   9.957 -0.7229  0.6445  1.1484
  434MOL0     O58479   5.843   6.840   9.990 -0.4722 -0.3084 -0.1494
  434MOL0     C58480   5.792   6.817  10.121 -0.4859  0.3406 -0.4084
  434MOL0     C58481   5.680   6.735  10.138 -0.6698 -0.1749  0.2086
  434MOL0     C58482   5.594   6.742  10.252  0.5058 -0.0707  0.4168
  434MOL0     C58483   5.475   6.653  10.267  0.0322 -1.3269 -0.1524
  434MOL0     C58484   5.609   6.850  10.348 -0.7695 -0.2614  0.7621
  434MOL0     C58485   5.539   6.878  10.475  1.0215 -0.5370 -0.0603
  434MOL0     O58486   5.491   6.767  10.540  0.8570 -0.2496 -0.5521
  434MOL0     C58487   5.424   6.784  10.660 -0.0862 -1.1727  0.7926
  434MOL0     C58488   5.319   6.875  10.678 -0.7815 -0.6692  0.3161
  434MOL0     C58489   5.230   6.851  10.787 -0.0479  0.1451 -0.5881
  434MOL0     C58490   5.258   6.752  10.881  0.0400  0.3314 -1.1914
  434MOL0     O58491   5.164   6.735  10.982  0.6162  0.4342 -0.2889
  434MOL0     C58492   5.150   6.596  11.027  0.7291  0.7567 -0.3558
  434MOL0     C58493   5.178   6.563  11.174 -0.0439  0.2662 -0.6556
  434MOL0     C58494   5.132   6.669  11.268 -0.0810 -1.1141  0.8020
  434MOL0     C58495   5.151   6.610  11.405 -0.5287  0.7572 -0.4880
  434MOL0     C58496   5.086   6.710  11.515  0.6385  0.2261 -0.0587
  434MOL0     C58497   5.106   6.676  11.660 -0.1261  0.2807  0.3597
  434MOL0     C58498   5.066   6.532  11.698  0.1845 -0.6270 -0.3894
  434MOL0     C58499   5.095   6.508  11.851 -0.8351 -0.9584  0.1682
  434MOL0    Cl58500   4.933   6.504  11.927  0.2878  0.3685  0.3003
  434MOL0     C58501   5.374   6.677  10.875 -0.0232 -0.0253 -0.4310
  434MOL0     C58502   5.450   6.690  10.763 -0.0460 -0.8520 -0.9239
  434MOL0     O58503   5.544   6.992  10.529 -0.1314  0.3056 -0.3263
  434MOL0     C58504   5.727   6.922  10.341 -0.1830  0.0227 -0.3714
  434MOL0     C58505   5.820   6.907  10.233  0.5724  0.2947  0.7504
  434MOL0     N58506   6.353   7.175   9.709  0.3252  0.9911  0.2208
  434MOL0     N58507   6.409   7.260   9.626 -0.0151  0.4665  0.6762
  434MOL0     C58508   6.473   8.133   8.745  0.0103  0.5171  0.0692
  434MOL0     C58509   6.569   8.213   8.680 -0.2718  0.0707  0.4754
  434MOL0     C58510   7.015   8.278   8.574 -0.1670  0.2455 -0.9934
  434MOL0     C58511   7.017   8.280   8.438 -0.1878 -0.1870 -1.0408
  434MOL0     C58512   7.132   8.298   8.364 -0.5065 -0.6855 -0.4457
  434MOL0     C58513   7.252   8.315   8.434 -0.2063 -0.7499  0.3679
  434MOL0     O58514   7.372   8.323   8.368 -0.1445 -1.3771  0.1977
  434MOL0     C58515   7.397   8.423   8.268 -1.2708 -0.1775 -0.5345
  434MOL0     C58516   7.518   8.381   8.189  0.1061  1.5280  0.4291
  434MOL0     C58517   7.533   8.465   8.062  0.2550 -0.0091 -0.4101
  434MOL0     C58518   7.577   8.389   7.945 -0.2596 -0.5283  0.3578
  434MOL0     C58519   7.633   8.485   7.850  0.1995 -0.8294 -0.4815
  434MOL0     C58520   7.683   8.561   7.767 -0.2867  0.6314 -0.2188
  434MOL0     C58521   7.254   8.314   8.576  0.0074 -0.2101 -0.5058
  434MOL0     C58522   7.134   8.300   8.646  0.5998  0.9052  0.3332
  434MOL0     H58523   6.775   7.960   8.594  0.7440  1.2627 -0.2834
  434MOL0     H58524   6.619   7.833   8.730 -0.9934  0.0035 -2.7277
  434MOL0     H58525   6.292   7.801   8.700 -0.3522 -1.7947 -0.2684
  434MOL0     H58526   6.419   7.749   8.799  0.1789  1.1796 -1.5033
  434MOL0     H58527   6.136   7.837   8.876 -0.9712  0.2365  1.3323
  434MOL0     H58528   6.184   7.672   8.865  1.6689 -0.1374 -0.1511
  434MOL0     H58529   6.277   7.852   9.092 -1.1863  0.2402  0.3030
  434MOL0     H58530   6.153   7.737   9.092 -0.6369 -0.4337 -1.3543
  434MOL0     H58531   6.343   7.570   8.995  0.7397  3.1755 -4.3420
  434MOL0     H58532   6.459   7.680   9.062  0.4514 -0.5338  2.1057
  434MOL0     H58533   6.430   7.521   9.226  2.0209  1.7927 -2.3004
  434MOL0     H58534   6.368   7.670   9.278  2.8060 -1.2222  0.0969
  434MOL0     H58535   6.129   7.577   9.263  0.7454  1.2984 -1.1925
  434MOL0     H58536   6.179   7.452   9.161  1.8675  0.3320 -0.5766
  434MOL0     H58537   6.155   7.340   9.376  1.2520 -1.2319 -0.5349
  434MOL0     H58538   6.306   7.327   9.303 -0.8503  0.7310 -1.3213
  434MOL0     H58539   6.247   7.531   9.515 -1.4887  0.0069 -1.8656
  434MOL0     H58540   6.407   7.472   9.461  1.1172 -1.6390 -0.0161
  434MOL0     H58541   6.095   7.376   9.655 -0.4818  1.0973  0.0137
  434MOL0     H58542   6.185   7.028   9.855  2.2510  0.1183 -2.2136
  434MOL0     H58543   6.087   7.169   9.905  1.8615 -0.0307  0.1999
  434MOL0     H58544   6.025   7.052   9.630  0.4899  0.5422 -0.5427
  434MOL0     H58545   5.943   7.157   9.737  0.2893 -1.2483  0.6399
  434MOL0     H58546   5.979   6.864   9.766  0.0366  0.4139 -2.3667
  434MOL0     H58547   5.835   6.948   9.755 -0.1926 -1.8946  1.5753
  434MOL0     H58548   5.897   7.052  10.003  2.8874  1.4666  1.9703
  434MOL0     H58549   6.020   6.942  10.009 -0.7112  0.4706  1.0798
  434MOL0     H58550   5.649   6.673  10.054  0.4938  1.9772 -1.9492
  434MOL0     H58551   5.464   6.578  10.188 -3.6963 -0.3709 -0.7131
  434MOL0     H58552   5.490   6.593  10.358  2.5772 -0.5418  0.0243
  434MOL0     H58553   5.386   6.715  10.261  2.9189  3.2653 -0.1959
  434MOL0     H58554   5.298   6.938  10.591 -0.9514 -3.3976 -1.7651
  434MOL0     H58555   5.132   6.897  10.787 -0.1445  0.0521  2.1847
  434MOL0     H58556   5.045   6.569  11.013  0.8104  1.0470 -1.6868
  434MOL0     H58557   5.202   6.526  10.961  1.1027  0.9036 -0.2263
  434MOL0     H58558   5.132   6.467  11.198  1.0568 -0.9210 -3.0296
  434MOL0     H58559   5.287   6.551  11.175  0.5781  2.3371 -6.1217
  434MOL0     H58560   5.025   6.666  11.247  0.3036  0.6767 -1.9433
  434MOL0     H58561   5.171   6.771  11.262 -5.4489  1.3977  2.0606
  434MOL0     H58562   5.104   6.512  11.418 -1.2229  1.2217  0.6307
  434MOL0     H58563   5.255   6.589  11.430 -0.7758 -0.7083 -0.6018
  434MOL0     H58564   4.978   6.713  11.495  0.1861  0.7580  2.1904
  434MOL0     H58565   5.119   6.814  11.505  2.0253  0.2073  3.0037
  434MOL0     H58566   5.211   6.683  11.689  0.0205  1.7702 -0.4463
  434MOL0     H58567   5.059   6.750  11.725 -2.3675  1.9080 -2.8092
  434MOL0     H58568   5.118   6.454  11.641  0.5335  0.4616 -1.6116
  434MOL0     H58569   4.959   6.534  11.677 -0.0546 -1.1705  0.7260
  434MOL0     H58570   5.158   6.573  11.912  0.2337 -1.3524 -0.5011
  434MOL0     H58571   5.139   6.409  11.866  2.4317  0.1973 -0.9902
  434MOL0     H58572   5.398   6.600  10.947 -2.3441  0.2126  0.6931
  434MOL0     H58573   5.525   6.614  10.742  0.3981 -0.8145  0.4360
  434MOL0     H58574   5.760   6.992  10.416 -0.0005 -0.8140  0.3415
  434MOL0     H58575   5.913   6.964  10.236  2.2786 -1.9904 -2.2926
  434MOL0     H58576   6.387   8.173   8.798  1.0118 -1.4988  3.4846
  434MOL0     H58577   6.558   8.317   8.653 -1.9094 -0.9167 -3.4204
  434MOL0     H58578   6.934   8.242   8.379  0.9321 -0.5716 -2.4190
  434MOL0     H58579   7.143   8.284   8.257 -2.2024 -2.4108 -0.4646
  434MOL0     H58580   7.311   8.438   8.202 -1.4830  2.5022  0.2258
  434MOL0     H58581   7.421   8.513   8.325  0.1385 -2.1375  2.1677
  434MOL0     H58582   7.517   8.275   8.161  1.3295  0.7629  3.0119
  434MOL0     H58583   7.605   8.382   8.254  2.1520  0.4367 -2.1246
  434MOL0     H58584   7.607   8.540   8.089  1.2191 -0.7514 -0.9042
  434MOL0     H58585   7.438   8.517   8.048 -0.6538 -1.6833 -0.8434
  434MOL0     H58586   7.499   8.335   7.890  0.2806 -1.2343  0.2773
  434MOL0     H58587   7.657   8.320   7.972  2.8941  3.1816  1.3864
  434MOL0     H58588   7.725   8.638   7.705  0.0187  0.6665  0.0316
  434MOL0     H58589   7.350   8.318   8.626  1.5920 -2.7799 -3.0088
  434MOL0     H58590   7.144   8.312   8.753  0.7816  1.8458  0.2165
  435MOL0     O58591   8.438   5.083   2.620 -0.2375  0.5143 -1.0663
  435MOL0     C58592   8.325   5.056   2.655  0.0123 -0.8053  1.2867
  435MOL0     O58593   8.288   4.967   2.746  0.4519  0.1126 -0.5340
  435MOL0     C58594   8.366   4.903   2.841  0.3523  0.3649  0.0463
  435MOL0     C58595   8.504   4.921   2.855  0.0036  0.3810 -0.1747
  435MOL0     C58596   8.558   4.868   2.974 -0.2395  0.8896 -0.2480
  435MOL0     C58597   8.479   4.782   3.058  0.1174  0.3761  0.7445
  435MOL0     O58598   8.544   4.731   3.167  0.0012  0.4302 -0.6931
  435MOL0     C58599   8.530   4.590   3.201 -0.2519 -0.3403  0.5996
  435MOL0     C58600   8.575   4.501   3.084  0.8170  0.5573  0.2098
  435MOL0     C58601   8.721   4.515   3.039 -0.1713 -0.0048 -0.0389
  435MOL0     C58602   8.824   4.464   3.143 -0.7644 -0.2098  0.9356
  435MOL0     C58603   8.971   4.457   3.114  1.3292  0.5457 -0.2215
  435MOL0     C58604   9.033   4.590   3.154  0.0311  1.2077 -0.1168
  435MOL0     C58605   9.182   4.597   3.127 -0.7207  0.4338 -0.7556
  435MOL0     C58606   9.235   4.738   3.132 -0.3232 -0.2229 -0.1362
  435MOL0     N58607   9.378   4.735   3.092 -0.5146 -0.2522 -0.1923
  435MOL0     C58608   9.416   4.803   2.978 -0.3582  0.3993 -0.8015
  435MOL0     C58609   9.553   4.789   2.975  0.4402  0.5290 -0.5179
  435MOL0     C58610   9.631   4.836   2.860 -0.4714  0.5567 -0.5102
  435MOL0     C58611   9.733   4.956   2.865 -0.6660  0.2136  0.3928
  435MOL0     C58612   9.859   4.894   2.928  0.6050  0.0363 -0.6531
  435MOL0     C58613   9.973   4.990   2.928  0.2017  1.0373  0.3655
  435MOL0     O58614  10.046   4.989   2.803  0.1525 -0.7214  0.4691
  435MOL0     C58615  10.147   5.080   2.772  0.5398 -0.6122  0.1316
  435MOL0     C58616  10.164   5.194   2.851  0.1912  0.6098  0.2905
  435MOL0     C58617  10.263   5.282   2.816 -0.3971 -0.5764 -0.6811
  435MOL0     C58618  10.300   5.390   2.916 -0.2499 -0.1003  0.0428
  435MOL0     C58619  10.347   5.258   2.705  0.0700  0.4857  0.0471
  435MOL0     C58620  10.453   5.348   2.652 -0.6060  0.3474 -0.7717
  435MOL0     O58621  10.538   5.295   2.557 -0.5754  0.9375 -0.3327
  435MOL0     C58622  10.670   5.339   2.560  0.1631 -0.2486  0.2526
  435MOL0     C58623  10.728   5.391   2.435  0.8274 -0.1589 -0.6434
  435MOL0     C58624  10.859   5.427   2.429 -1.3860 -0.3794  0.7032
  435MOL0     C58625  10.943   5.401   2.534 -0.2395  0.1695 -0.5008
  435MOL0     O58626  11.075   5.430   2.513 -0.2331 -0.2941 -1.1775
  435MOL0     C58627  11.176   5.381   2.608  0.9395 -0.4472 -0.4568
  435MOL0     C58628  11.295   5.360   2.522 -0.2283 -1.0292 -0.1542
  435MOL0     C58629  11.387   5.482   2.521  0.6722  0.8929  0.7056
  435MOL0     C58630  11.373   5.586   2.404  0.2370 -0.1698  1.2473
  435MOL0     C58631  11.498   5.657   2.364 -0.2615 -0.6859 -0.2009
  435MOL0     C58632  11.483   5.715   2.216  0.4203 -0.3643 -0.6418
  435MOL0     C58633  11.612   5.792   2.189  0.4309  0.2726  0.2353
  435MOL0     C58634  11.649   5.816   2.046 -0.0258 -0.7170 -0.1164
  435MOL0    Cl58635  11.801   5.905   2.060 -0.1656 -0.5974  0.6885
  435MOL0     C58636  10.886   5.364   2.660  1.4148 -0.7266  0.1622
  435MOL0     C58637  10.745   5.333   2.672 -1.1256  0.3362 -0.5987
  435MOL0     O58638  10.459   5.461   2.696 -0.2325 -0.1873 -0.6747
  435MOL0     C58639  10.323   5.145   2.623 -0.0189  0.9535  0.1935
  435MOL0     C58640  10.224   5.053   2.662 -0.7247 -0.4077  0.0876
  435MOL0     N58641   9.596   4.723   3.086  0.9502  0.6739 -0.5048
  435MOL0     N58642   9.491   4.693   3.163  0.8292  0.4049  0.5497
  435MOL0     C58643   8.355   4.748   3.029  0.0714 -1.1583 -0.7127
  435MOL0     C58644   8.294   4.816   2.924  0.5181  0.4053  0.0765
  435MOL0     C58645   8.218   5.123   2.576 -0.2394  0.3408 -0.2099
  435MOL0     C58646   8.247   5.204   2.472 -0.0220 -1.3662 -0.5729
  435MOL0     C58647   8.145   5.273   2.401 -0.8074  1.6039  0.3547
  435MOL0     C58648   8.015   5.263   2.433  0.2787 -0.1989 -1.0124
  435MOL0     O58649   7.936   5.340   2.360  0.5078  0.2418  0.5968
  435MOL0     C58650   7.799   5.333   2.392 -0.3360 -0.0498  0.8940
  435MOL0     C58651   7.724   5.222   2.317  0.5237  0.3824 -0.0545
  435MOL0     C58652   7.579   5.232   2.333  0.9197 -1.5223  0.0511
  435MOL0     C58653   7.505   5.354   2.276  0.5365  0.6417  1.0807
  435MOL0     C58654   7.399   5.304   2.183  0.4488  0.1733 -0.2714
  435MOL0     C58655   7.328   5.244   2.099  0.4291 -0.6187  0.2408
  435MOL0     C58656   7.988   5.189   2.545 -0.1395  0.5165  0.2741
  435MOL0     C58657   8.083   5.113   2.612 -1.4225 -0.0727 -0.1150
  435MOL0     H58658   8.564   4.984   2.789  0.5320 -0.6636 -0.7092
  435MOL0     H58659   8.661   4.897   2.993  1.3332 -3.8521 -0.2485
  435MOL0     H58660   8.587   4.560   3.289  2.5423 -0.5950 -1.1581
  435MOL0     H58661   8.429   4.568   3.236 -0.4931  1.3526  1.0512
  435MOL0     H58662   8.557   4.395   3.102 -0.1124  0.9333  1.6498
  435MOL0     H58663   8.513   4.531   2.998 -0.1250 -0.2948  0.5727
  435MOL0     H58664   8.732   4.456   2.947  1.1510 -0.8531  0.6256
  435MOL0     H58665   8.751   4.619   3.022  0.0663  0.1281  1.1403
  435MOL0     H58666   8.812   4.513   3.239  1.4009 -0.4615  1.3693
  435MOL0     H58667   8.794   4.360   3.161 -1.9939  0.2238  1.5791
  435MOL0     H58668   9.016   4.375   3.170  1.7076 -0.8517 -2.4764
  435MOL0     H58669   8.984   4.440   3.007 -2.1429  2.5655 -1.1298
  435MOL0     H58670   8.994   4.669   3.091  3.2728  2.3360 -0.9097
  435MOL0     H58671   8.999   4.605   3.257 -4.7940 -0.2531 -1.2283
  435MOL0     H58672   9.236   4.533   3.198  4.2717  2.6180 -2.1492
  435MOL0     H58673   9.193   4.556   3.027 -0.4923 -0.7985 -0.2380
  435MOL0     H58674   9.220   4.772   3.235  2.7262  1.1386 -0.0104
  435MOL0     H58675   9.186   4.816   3.073  1.9067  0.8823 -0.6452
  435MOL0     H58676   9.354   4.863   2.911  0.3490  0.2792 -1.5721
  435MOL0     H58677   9.681   4.749   2.815 -0.8572  0.3948 -0.6286
  435MOL0     H58678   9.555   4.867   2.788  0.1693 -1.4935 -2.1752
  435MOL0     H58679   9.697   5.039   2.926 -4.3808  1.0488 -2.5432
  435MOL0     H58680   9.752   4.996   2.765 -2.3898  0.6400  0.2107
  435MOL0     H58681   9.898   4.806   2.875  0.1365 -1.0698  0.7594
  435MOL0     H58682   9.829   4.854   3.025  0.9564  0.2752 -0.4467
  435MOL0     H58683  10.030   4.960   3.016  0.6079 -0.7502 -0.4683
  435MOL0     H58684   9.931   5.088   2.954  2.1527  1.4846  2.1719
  435MOL0     H58685  10.099   5.223   2.933 -0.9546  1.3344 -0.8410
  435MOL0     H58686  10.232   5.381   3.001 -0.0432  1.3358  0.3817
  435MOL0     H58687  10.406   5.379   2.940 -0.1510  0.7178 -0.0030
  435MOL0     H58688  10.281   5.481   2.859  0.3466  0.5910  0.9253
  435MOL0     H58689  10.666   5.389   2.347 -1.7133  0.9754  1.0084
  435MOL0     H58690  10.908   5.473   2.344  2.0033  3.1817  4.1561
  435MOL0     H58691  11.201   5.450   2.690  2.1886  0.5101 -1.6062
  435MOL0     H58692  11.131   5.285   2.635 -2.4465  1.3887  1.1989
  435MOL0     H58693  11.349   5.281   2.574 -0.1931 -0.9556 -0.0770
  435MOL0     H58694  11.275   5.309   2.428 -0.4957  0.3795 -0.8992
  435MOL0     H58695  11.489   5.445   2.513 -0.2418 -1.4223 -2.4795
  435MOL0     H58696  11.390   5.529   2.620  1.8640  1.6152  0.3574
  435MOL0     H58697  11.344   5.537   2.310  1.6694 -2.6167  1.9759
  435MOL0     H58698  11.301   5.658   2.443  1.4924  2.8353 -1.4783
  435MOL0     H58699  11.584   5.590   2.363 -1.0598 -1.7636  0.7348
  435MOL0     H58700  11.519   5.742   2.429 -0.3089  0.3124 -1.4630
  435MOL0     H58701  11.478   5.639   2.138 -1.8483  0.0773 -0.9838
  435MOL0     H58702  11.398   5.783   2.203 -0.1311  0.1440  3.9431
  435MOL0     H58703  11.691   5.741   2.245  1.2664  1.7329  0.4560
  435MOL0     H58704  11.612   5.893   2.230  1.8792 -0.2779  1.6827
  435MOL0     H58705  11.568   5.871   1.997  0.0819 -0.8873 -0.4935
  435MOL0     H58706  11.665   5.724   1.988 -0.8365 -0.7518 -0.2984
  435MOL0     H58707  10.945   5.346   2.749  0.1687  0.5722  1.2984
  435MOL0     H58708  10.713   5.313   2.774 -1.2109 -0.9058 -0.8533
  435MOL0     H58709  10.367   5.131   2.525 -1.7217  0.2282 -0.5081
  435MOL0     H58710  10.209   4.961   2.606  1.4594 -1.3171  0.8942
  435MOL0     H58711   8.292   4.692   3.097  1.7617 -1.0370  1.0436
  435MOL0     H58712   8.188   4.799   2.911  0.6120  0.5454 -1.0129
  435MOL0     H58713   8.347   5.234   2.442 -0.3949 -0.2791 -0.7401
  435MOL0     H58714   8.171   5.331   2.313  0.4675 -2.4386 -2.2188
  435MOL0     H58715   7.782   5.333   2.500  2.3975 -0.5829  1.3977
  435MOL0     H58716   7.749   5.421   2.351 -1.2961 -2.2165 -3.1448
  435MOL0     H58717   7.764   5.123   2.339 -0.5675 -0.3743 -1.3378
  435MOL0     H58718   7.749   5.239   2.212  3.1397  1.0559  0.6051
  435MOL0     H58719   7.561   5.227   2.441 -0.8560 -1.2313 -0.2002
  435MOL0     H58720   7.527   5.145   2.292 -3.0084  1.2612 -1.5540
  435MOL0     H58721   7.570   5.417   2.215  0.4919 -0.4565 -0.1471
  435MOL0     H58722   7.476   5.424   2.356 -1.8201 -0.9010  1.6871
  435MOL0     H58723   7.263   5.205   2.024 -0.5444  1.2096  0.0798
  435MOL0     H58724   7.888   5.181   2.586 -0.7235  0.7189 -1.0578
  435MOL0     H58725   8.054   5.070   2.707 -3.4537  2.2495  0.4154
  436MOL0     O58726   7.939   7.421   4.359  0.1030  0.2686 -0.1211
  436MOL0     C58727   7.828   7.380   4.327 -0.2661 -0.5677 -0.2155
  436MOL0     O58728   7.789   7.352   4.206  0.2878  0.0880  0.4924
  436MOL0     C58729   7.873   7.344   4.101  0.4684 -0.5206 -0.9134
  436MOL0     C58730   8.006   7.307   4.098 -0.3463  0.3262  0.4787
  436MOL0     C58731   8.075   7.320   3.979  0.1025 -0.2248 -0.3742
  436MOL0     C58732   8.022   7.369   3.858  0.4315 -0.6460  0.3460
  436MOL0     O58733   8.096   7.357   3.738  0.4727 -0.5718  0.4155
  436MOL0     C58734   8.109   7.476   3.655 -0.4639 -0.4103  0.0266
  436MOL0     C58735   8.154   7.607   3.730 -0.0678 -0.8670  0.6298
  436MOL0     C58736   8.283   7.587   3.820 -0.7416 -0.3601 -0.0784
  436MOL0     C58737   8.298   7.709   3.910  0.0141 -0.5912 -0.1076
  436MOL0     C58738   8.430   7.688   3.990  0.1881 -0.5647  0.3721
  436MOL0     C58739   8.435   7.785   4.106 -0.0050 -0.2507  0.5131
  436MOL0     C58740   8.465   7.934   4.074 -0.0033  0.0265 -0.2191
  436MOL0     C58741   8.475   7.994   4.214  0.3133 -0.4678  0.9099
  436MOL0     N58742   8.446   8.132   4.208 -0.0435 -0.2732  0.0227
  436MOL0     C58743   8.310   8.181   4.215  0.4255  0.9169  0.1603
  436MOL0     C58744   8.333   8.316   4.201 -0.4600  0.6910  0.4702
  436MOL0     C58745   8.237   8.426   4.172 -0.0950 -0.7597  1.0975
  436MOL0     C58746   8.244   8.429   4.020  0.3643 -1.0576  0.5511
  436MOL0     C58747   8.132   8.515   3.964 -0.7041 -0.0103 -1.2645
  436MOL0     C58748   8.137   8.482   3.817  0.0351  0.5381 -0.1064
  436MOL0     O58749   8.049   8.576   3.763  0.0254  0.0080 -0.0902
  436MOL0     C58750   8.102   8.659   3.667 -0.0978 -0.1041  0.2682
  436MOL0     C58751   8.141   8.609   3.541  0.4124  0.3495 -0.3092
  436MOL0     C58752   8.205   8.693   3.446  0.5334  0.1395 -0.5602
  436MOL0     C58753   8.240   8.646   3.313 -0.8587 -0.4259 -0.2767
  436MOL0     C58754   8.237   8.823   3.488 -0.2762 -0.8368 -0.6677
  436MOL0     C58755   8.313   8.907   3.387 -0.4068  0.3567 -1.0151
  436MOL0     O58756   8.231   8.974   3.301 -0.1538 -0.1719 -0.1329
  436MOL0     C58757   8.287   9.046   3.199 -1.2935 -0.8623 -0.2909
  436MOL0     C58758   8.267   9.015   3.068  0.0405  0.8310  1.1005
  436MOL0     C58759   8.329   9.087   2.959 -0.3647  0.3847  0.7023
  436MOL0     C58760   8.391   9.211   2.984 -0.0051 -0.2691  0.2948
  436MOL0     O58761   8.445   9.298   2.893  0.7524  0.0680 -0.0707
  436MOL0     C58762   8.401   9.287   2.753 -0.3262 -0.6674 -0.3224
  436MOL0     C58763   8.478   9.372   2.651  0.8334  0.4164  0.1712
  436MOL0     C58764   8.418   9.351   2.501  1.2148  0.0780  0.1911
  436MOL0     C58765   8.509   9.244   2.437  0.1047 -0.7190 -0.1058
  436MOL0     C58766   8.444   9.172   2.321 -0.6902  0.3975 -0.5621
  436MOL0     C58767   8.324   9.089   2.384 -0.2537  0.3875  0.0233
  436MOL0     C58768   8.295   8.961   2.294  0.0900  0.0710 -0.3099
  436MOL0     C58769   8.189   8.871   2.358 -0.3711 -0.2552  0.0327
  436MOL0    Cl58770   8.138   8.733   2.258  0.0183  0.1404 -0.0377
  436MOL0     C58771   8.398   9.247   3.120 -0.2825 -0.2054  1.1012
  436MOL0     C58772   8.362   9.162   3.222 -0.9221  0.1792 -0.6720
  436MOL0     O58773   8.437   8.923   3.399  0.1551 -0.2811  0.9964
  436MOL0     C58774   8.191   8.875   3.608 -0.3783  0.3569 -0.7244
  436MOL0     C58775   8.117   8.803   3.691  0.0876  0.8219  0.9099
  436MOL0     N58776   8.475   8.343   4.193 -0.7280  0.3980  0.8956
  436MOL0     N58777   8.535   8.233   4.189 -0.5920  1.1362 -0.0978
  436MOL0     C58778   7.896   7.425   3.870 -0.9134  0.1095 -0.1811
  436MOL0     C58779   7.821   7.410   3.985 -0.8500 -0.3695 -0.4813
  436MOL0     C58780   7.727   7.389   4.437  0.5604  0.2490 -0.4464
  436MOL0     C58781   7.769   7.407   4.576  0.7768 -0.4537  0.7165
  436MOL0     C58782   7.678   7.392   4.678 -0.1601  0.4975  0.1768
  436MOL0     C58783   7.542   7.362   4.652  0.0834 -0.2059 -0.0516
  436MOL0     O58784   7.438   7.330   4.734 -0.1942 -0.8847 -0.1626
  436MOL0     C58785   7.447   7.376   4.867  0.1654  0.2432 -0.3592
  436MOL0     C58786   7.323   7.310   4.945 -0.3469 -0.2562 -0.0163
  436MOL0     C58787   7.319   7.158   4.953  0.1494 -0.3814  0.3485
  436MOL0     C58788   7.253   7.121   5.085 -0.6967 -1.0470  0.4073
  436MOL0     C58789   7.114   7.170   5.088  0.3030 -0.5951 -0.1841
  436MOL0     C58790   6.998   7.206   5.089  0.9240 -0.2262 -0.3751
  436MOL0     C58791   7.504   7.345   4.518  0.0531  0.0638 -0.3449
  436MOL0     C58792   7.592   7.352   4.412 -0.3562  0.3854 -0.4132
  436MOL0     H58793   8.069   7.284   4.183 -1.9017 -2.2765  1.0659
  436MOL0     H58794   8.178   7.287   3.971  0.8349  2.1442 -1.4531
  436MOL0     H58795   8.181   7.453   3.575  0.8538 -1.1932  1.3802
  436MOL0     H58796   8.018   7.501   3.601 -0.6212  1.5602  1.1236
  436MOL0     H58797   8.180   7.680   3.653  1.1308  1.6357  3.2350
  436MOL0     H58798   8.070   7.655   3.782  0.2830  1.6532 -0.9656
  436MOL0     H58799   8.270   7.503   3.889 -2.8229  1.2437  1.6451
  436MOL0     H58800   8.378   7.584   3.766 -2.2522 -1.9543 -2.8190
  436MOL0     H58801   8.302   7.793   3.841  0.9943  0.2885  0.9833
  436MOL0     H58802   8.209   7.725   3.971 -1.3841 -3.1588 -1.3175
  436MOL0     H58803   8.420   7.588   4.032 -1.8107 -0.5279  0.0584
  436MOL0     H58804   8.522   7.692   3.930 -1.6916 -0.5552 -2.7097
  436MOL0     H58805   8.346   7.783   4.170 -0.4964  0.3417 -0.1401
  436MOL0     H58806   8.516   7.747   4.170 -1.3947 -3.0626  0.7571
  436MOL0     H58807   8.561   7.949   4.023 -0.0478  0.3494 -0.2094
  436MOL0     H58808   8.376   7.967   4.020 -0.8968 -0.4242  0.9647
  436MOL0     H58809   8.574   7.978   4.257  0.2722 -3.7100  0.0172
  436MOL0     H58810   8.399   7.956   4.284  0.8552 -0.8353  1.3085
  436MOL0     H58811   8.214   8.131   4.220  1.1971 -0.7249 -0.6984
  436MOL0     H58812   8.137   8.398   4.206 -1.0507  0.3479 -0.6423
  436MOL0     H58813   8.258   8.523   4.217 -1.0564 -1.8538  4.1764
  436MOL0     H58814   8.248   8.326   3.981 -4.7476 -1.5346  0.5958
  436MOL0     H58815   8.341   8.473   3.994 -0.9937  1.1174 -1.2051
  436MOL0     H58816   8.143   8.620   3.992 -0.9677 -0.7054  1.7519
  436MOL0     H58817   8.038   8.475   4.004 -0.0226 -1.2808 -0.8884
  436MOL0     H58818   8.103   8.378   3.803 -0.8710  1.0157 -1.7201
  436MOL0     H58819   8.239   8.492   3.779  1.1602 -1.8925  1.8957
  436MOL0     H58820   8.124   8.512   3.497 -0.0151  0.3979 -0.2573
  436MOL0     H58821   8.239   8.537   3.314 -4.8987 -0.5916 -2.6228
  436MOL0     H58822   8.179   8.686   3.232 -1.4554  1.0818  0.8653
  436MOL0     H58823   8.341   8.678   3.286 -1.4780  1.8793 -0.1211
  436MOL0     H58824   8.200   8.931   3.053  1.9581 -0.6854  0.7186
  436MOL0     H58825   8.304   9.053   2.859  2.1884 -1.3884  0.5714
  436MOL0     H58826   8.418   9.181   2.733 -0.2021 -0.5469 -0.8643
  436MOL0     H58827   8.296   9.319   2.756 -0.5193 -1.3192  1.3941
  436MOL0     H58828   8.452   9.477   2.667 -0.2355 -0.1156  2.2261
  436MOL0     H58829   8.584   9.347   2.652  0.6792 -0.3488 -0.6649
  436MOL0     H58830   8.438   9.443   2.445  2.7291  0.2350  0.9338
  436MOL0     H58831   8.311   9.325   2.499  1.4336 -0.9525  1.1848
  436MOL0     H58832   8.606   9.287   2.409  2.0815 -3.3409  2.1627
  436MOL0     H58833   8.533   9.175   2.519 -1.0769 -1.2210 -0.1544
  436MOL0     H58834   8.533   9.121   2.281 -0.3127 -0.1442  0.8832
  436MOL0     H58835   8.407   9.247   2.252  1.3209 -0.3887 -2.6053
  436MOL0     H58836   8.358   9.063   2.485  1.2311  0.6330 -0.3979
  436MOL0     H58837   8.229   9.143   2.381 -0.2431  0.3636 -0.8579
  436MOL0     H58838   8.391   8.908   2.282 -0.7230 -1.1559 -1.6880
  436MOL0     H58839   8.256   8.989   2.196 -1.8685 -0.7839  0.1776
  436MOL0     H58840   8.101   8.929   2.385  0.4132 -0.4957  3.6567
  436MOL0     H58841   8.240   8.833   2.447  1.3777  0.1806 -0.7377
  436MOL0     H58842   8.431   9.348   3.141 -0.8632 -0.0202  1.1178
  436MOL0     H58843   8.367   9.205   3.322  0.6748 -2.4429  0.4838
  436MOL0     H58844   8.203   8.980   3.635 -1.1095 -0.0994  1.5741
  436MOL0     H58845   8.064   8.836   3.780 -4.3941  1.5819 -1.6875
  436MOL0     H58846   7.849   7.472   3.785  1.0473 -0.7391 -1.8189
  436MOL0     H58847   7.727   7.464   3.986  0.9527  3.0979  0.6205
  436MOL0     H58848   7.869   7.439   4.604  0.3921  0.0176  1.5833
  436MOL0     H58849   7.712   7.419   4.777  0.1209  0.9559 -0.0372
  436MOL0     H58850   7.536   7.341   4.921  1.4099  0.8594 -1.9222
  436MOL0     H58851   7.440   7.485   4.874 -2.0664  0.0428  2.3199
  436MOL0     H58852   7.236   7.346   4.889  1.0615  0.3627 -1.9416
  436MOL0     H58853   7.323   7.364   5.040  1.7104  2.5747 -1.4455
  436MOL0     H58854   7.425   7.137   4.944  1.1271  3.7177  0.1872
  436MOL0     H58855   7.263   7.114   4.869  0.8442 -0.2547 -0.1926
  436MOL0     H58856   7.305   7.153   5.175 -0.9641 -0.4423  0.3478
  436MOL0     H58857   7.249   7.012   5.095  1.0914 -1.1120  0.7228
  436MOL0     H58858   6.892   7.224   5.098  0.9518  3.2455 -3.9398
  436MOL0     H58859   7.404   7.312   4.492 -0.0387 -0.0254  0.1123
  436MOL0     H58860   7.563   7.348   4.308  0.8981 -0.5000 -0.7482
  437MOL0     O58861   6.851   3.961   1.129  0.6536  0.5578  0.8947
  437MOL0     C58862   6.942   3.930   1.202  0.9274 -0.0061 -0.3476
  437MOL0     O58863   7.014   3.809   1.189  0.7697 -0.7051 -0.2491
  437MOL0     C58864   6.991   3.720   1.096 -0.6015 -0.1050 -1.0531
  437MOL0     C58865   7.002   3.761   0.966  0.1350 -0.4958 -0.6263
  437MOL0     C58866   6.990   3.668   0.864  0.2685  1.0382  0.6955
  437MOL0     C58867   6.962   3.530   0.899 -0.4701  0.1165 -0.6854
  437MOL0     O58868   6.965   3.424   0.805  0.5913 -0.5531  0.9733
  437MOL0     C58869   7.088   3.341   0.817  0.1816  0.1079 -0.3953
  437MOL0     C58870   7.046   3.208   0.755 -0.8711 -0.4672 -0.8854
  437MOL0     C58871   6.967   3.225   0.617  0.2415  0.7671 -1.2036
  437MOL0     C58872   7.014   3.120   0.516  0.6293  0.9329 -0.0762
  437MOL0     C58873   6.957   3.123   0.383  0.3353  0.3735 -0.2208
  437MOL0     C58874   6.971   3.250   0.303 -0.1462 -0.3736 -0.3164
  437MOL0     C58875   6.898   3.245   0.166  0.0712 -0.9056 -0.1340
  437MOL0     C58876   6.930   3.367   0.078 -0.2366 -1.2604  0.3323
  437MOL0     N58877   6.809   3.381  -0.006 -0.6868 -0.2685  0.0195
  437MOL0     C58878   6.707   3.474   0.007  0.4320 -0.3400 -0.5294
  437MOL0     C58879   6.631   3.457  -0.101 -0.5837  1.4382  0.5459
  437MOL0     C58880   6.495   3.510  -0.126 -0.8919  0.4472  0.8649
  437MOL0     C58881   6.404   3.382  -0.142 -0.1706 -0.6228 -0.6740
  437MOL0     C58882   6.259   3.411  -0.118 -0.6592  0.7443 -0.3823
  437MOL0     C58883   6.203   3.509  -0.218 -1.1301 -1.4529 -0.1527
  437MOL0     O58884   6.202   3.636  -0.153  0.5401 -0.1674 -1.0875
  437MOL0     C58885   6.105   3.665  -0.059  0.5990 -0.5243  1.0157
  437MOL0     C58886   6.014   3.573   0.002 -0.2814  0.2692 -0.3944
  437MOL0     C58887   5.911   3.606   0.101 -0.4930  0.2453  0.4970
  437MOL0     C58888   5.851   3.499   0.184 -0.3303 -0.2508  0.4652
  437MOL0     C58889   5.896   3.750   0.126 -0.2872  0.0373 -0.2778
  437MOL0     C58890   5.798   3.812   0.213 -0.1043 -0.2572  0.2249
  437MOL0     O58891   5.802   3.953   0.226  0.2996 -0.1139  0.1438
  437MOL0     C58892   5.768   4.003   0.349 -0.4683  0.4698  0.8650
  437MOL0     C58893   5.639   4.051   0.381 -0.5286 -0.4398  0.2810
  437MOL0     C58894   5.616   4.111   0.509  0.1366 -0.2935 -0.7384
  437MOL0     C58895   5.716   4.136   0.602 -1.2826  0.4824  0.3572
  437MOL0     O58896   5.688   4.183   0.725  1.1508 -0.0414 -0.3388
  437MOL0     C58897   5.790   4.191   0.831  0.9418  0.8768  0.6035
  437MOL0     C58898   5.798   4.052   0.912 -0.0365  0.2347  0.2255
  437MOL0     C58899   5.692   4.034   1.019  0.0673 -0.4459 -0.9035
  437MOL0     C58900   5.711   3.900   1.091 -0.1843  0.2178 -0.3141
  437MOL0     C58901   5.660   3.788   0.998  0.0254  0.6550 -0.4448
  437MOL0     C58902   5.661   3.651   1.067  0.1737  0.4771  0.2596
  437MOL0     C58903   5.796   3.606   1.120 -0.9619 -0.6294 -0.4055
  437MOL0     C58904   5.804   3.463   1.167 -0.0760 -0.2124 -0.3179
  437MOL0    Cl58905   5.959   3.421   1.235 -0.0797  0.1158 -0.0977
  437MOL0     C58906   5.840   4.083   0.573 -0.1337 -0.4757  0.2316
  437MOL0     C58907   5.866   4.008   0.451  0.2641  0.2471 -0.2786
  437MOL0     O58908   5.735   3.741   0.294 -0.8100 -0.1027  0.4773
  437MOL0     C58909   5.991   3.843   0.066  1.2638  1.2143  0.2469
  437MOL0     C58910   6.092   3.796  -0.026  0.1385 -0.2340  0.1020
  437MOL0     N58911   6.692   3.354  -0.180  0.1407  0.2475  0.3303
  437MOL0     N58912   6.797   3.314  -0.126  0.6458 -0.2675 -0.1913
  437MOL0     C58913   6.947   3.492   1.037 -0.5571 -0.2088  0.5824
  437MOL0     C58914   6.956   3.589   1.131 -0.6666  0.0200  0.4409
  437MOL0     C58915   6.970   4.025   1.302  0.6308  0.8123 -0.3155
  437MOL0     C58916   6.906   4.152   1.312  0.5506 -0.2357 -0.0014
  437MOL0     C58917   6.922   4.237   1.427 -0.6138  1.2831  0.1292
  437MOL0     C58918   7.016   4.203   1.530 -0.8979 -0.1669 -0.1439
  437MOL0     O58919   7.026   4.278   1.644  0.1959 -0.0757  0.1758
  437MOL0     C58920   7.003   4.426   1.629 -0.2508  0.6175 -0.2958
  437MOL0     C58921   7.042   4.498   1.761  0.2231 -0.5897  0.8022
  437MOL0     C58922   7.189   4.483   1.817  0.7488 -0.4320 -0.3214
  437MOL0     C58923   7.217   4.354   1.897  0.5218  1.5815  0.2417
  437MOL0     C58924   7.355   4.349   1.940  0.1091 -0.1331  0.3194
  437MOL0     C58925   7.468   4.346   1.972 -0.2571  0.4154 -0.1496
  437MOL0     C58926   7.083   4.080   1.518  0.9771  0.4372  0.8509
  437MOL0     C58927   7.060   3.998   1.410  1.1607  0.3746 -0.0228
  437MOL0     H58928   7.044   3.860   0.947  4.3877 -1.8982  0.2927
  437MOL0     H58929   7.012   3.702   0.763  0.3179  0.2741  0.4437
  437MOL0     H58930   7.167   3.395   0.765  1.3280  2.5561  3.4828
  437MOL0     H58931   7.131   3.318   0.915  0.6206 -2.9251 -1.1836
  437MOL0     H58932   7.141   3.160   0.733 -0.5055  0.9469 -2.6828
  437MOL0     H58933   6.980   3.156   0.824  0.5523 -3.3295 -1.5598
  437MOL0     H58934   6.859   3.215   0.637  0.6800 -1.3564  0.4199
  437MOL0     H58935   6.985   3.325   0.576  3.0338 -0.5990 -3.6194
  437MOL0     H58936   7.122   3.142   0.512  0.6166  1.2019  0.8111
  437MOL0     H58937   6.984   3.019   0.547 -0.4243  1.1319 -0.4387
  437MOL0     H58938   7.002   3.047   0.319 -1.3628 -0.4731 -0.4832
  437MOL0     H58939   6.849   3.104   0.385 -0.0739  2.5409  0.9437
  437MOL0     H58940   6.933   3.331   0.365  1.1344 -1.2945  1.7784
  437MOL0     H58941   7.077   3.272   0.291 -0.1129  0.7158  1.6014
  437MOL0     H58942   6.931   3.159   0.108  0.7695 -1.0146  0.4088
  437MOL0     H58943   6.793   3.236   0.193 -0.8012  0.3750 -2.7203
  437MOL0     H58944   7.026   3.355   0.026 -0.2199  0.4997 -0.0975
  437MOL0     H58945   6.940   3.457   0.139  0.4542 -2.3016  1.8128
  437MOL0     H58946   6.688   3.537   0.093 -1.2964  0.7475 -1.6493
  437MOL0     H58947   6.460   3.566  -0.039 -4.5532 -4.1977  2.8215
  437MOL0     H58948   6.499   3.566  -0.220 -2.4725  1.2696  1.2448
  437MOL0     H58949   6.422   3.317  -0.055 -2.0765 -0.5708 -0.1924
  437MOL0     H58950   6.420   3.335  -0.239  1.6288  1.3204 -1.3984
  437MOL0     H58951   6.254   3.442  -0.014 -2.8188 -0.3014 -0.1171
  437MOL0     H58952   6.205   3.316  -0.130  0.3345  0.5044 -4.5409
  437MOL0     H58953   6.099   3.492  -0.248 -1.5822  0.8772 -0.1299
  437MOL0     H58954   6.265   3.508  -0.309  0.1886 -3.4889  0.6860
  437MOL0     H58955   6.032   3.469  -0.024  2.4884  1.1257 -2.3489
  437MOL0     H58956   5.836   3.517   0.291 -1.6328 -0.3743  0.3243
  437MOL0     H58957   5.759   3.463   0.136 -0.5530 -2.3936  2.3177
  437MOL0     H58958   5.917   3.411   0.184 -2.0823 -1.7327  3.2555
  437MOL0     H58959   5.550   4.045   0.319 -1.6483  3.4755  1.1959
  437MOL0     H58960   5.517   4.146   0.537  0.0903  0.6106 -1.9643
  437MOL0     H58961   5.889   4.215   0.790  0.4205  2.8552  0.4162
  437MOL0     H58962   5.765   4.276   0.896 -0.8946 -0.5725  1.9169
  437MOL0     H58963   5.801   3.959   0.855  2.0702 -1.0598  2.2331
  437MOL0     H58964   5.895   4.052   0.963  0.3843 -1.7001 -0.4796
  437MOL0     H58965   5.595   4.032   0.968  0.2211 -0.5994 -1.1966
  437MOL0     H58966   5.704   4.119   1.086  2.1817  0.3287 -2.1476
  437MOL0     H58967   5.814   3.877   1.122 -0.4807 -1.4599 -0.4443
  437MOL0     H58968   5.647   3.903   1.179  0.1849 -0.9811  0.0177
  437MOL0     H58969   5.724   3.777   0.909 -0.8668  1.3884 -1.2005
  437MOL0     H58970   5.561   3.814   0.958  0.6730 -1.7286 -4.1199
  437MOL0     H58971   5.590   3.640   1.151  1.1009 -2.5761  0.7811
  437MOL0     H58972   5.623   3.581   0.992  0.1478  1.3593 -0.5719
  437MOL0     H58973   5.837   3.658   1.207  0.3593 -1.2992 -0.5933
  437MOL0     H58974   5.864   3.624   1.036 -2.1089 -0.6032 -1.3523
  437MOL0     H58975   5.787   3.402   1.077 -0.7066 -2.0519  0.9745
  437MOL0     H58976   5.727   3.455   1.244  1.8165 -2.2123  1.4916
  437MOL0     H58977   5.929   4.093   0.634  0.4872  0.3517 -0.7967
  437MOL0     H58978   5.960   3.956   0.436 -0.8304 -2.1607  0.6352
  437MOL0     H58979   5.979   3.948   0.092  0.4230  1.1392  0.1756
  437MOL0     H58980   6.148   3.875  -0.075  1.4330 -0.0516  1.7567
  437MOL0     H58981   6.927   3.386   1.047  0.1512 -0.5538 -1.2184
  437MOL0     H58982   6.947   3.561   1.236  0.9037  0.1505  0.6375
  437MOL0     H58983   6.836   4.175   1.232  0.2022 -1.9760 -0.2261
  437MOL0     H58984   6.862   4.325   1.447 -0.5607  1.1326  1.0223
  437MOL0     H58985   7.067   4.472   1.552 -0.1266 -1.9416 -1.8116
  437MOL0     H58986   6.901   4.452   1.600 -1.2925 -1.1358  1.5664
  437MOL0     H58987   6.976   4.462   1.840 -1.6706 -0.5626 -0.7080
  437MOL0     H58988   7.019   4.603   1.742  1.5099 -0.6608 -1.5226
  437MOL0     H58989   7.200   4.565   1.889  0.3084 -1.3704  0.8661
  437MOL0     H58990   7.259   4.496   1.735 -0.4052 -2.5576 -1.7309
  437MOL0     H58991   7.191   4.269   1.834  1.7786  3.9207 -3.8181
  437MOL0     H58992   7.161   4.349   1.991  0.4074  0.7772  0.1404
  437MOL0     H58993   7.570   4.346   2.005 -0.6075 -0.0224  0.9772
  437MOL0     H58994   7.148   4.035   1.593 -1.6729  0.2276  3.1775
  437MOL0     H58995   7.113   3.904   1.401 -1.9155 -1.5273  0.2487
  438MOL0     O58996   5.351   9.373   8.044 -0.3703 -0.0989  0.0952
  438MOL0     C58997   5.257   9.408   7.967  0.3605 -0.8034  0.6108
  438MOL0     O58998   5.123   9.378   7.978 -0.0804 -0.6441 -0.4603
  438MOL0     C58999   5.077   9.295   8.085 -0.4693  0.6587 -0.0720
  438MOL0     C59000   4.956   9.236   8.060  0.7374 -0.2968 -0.5464
  438MOL0     C59001   4.889   9.148   8.164 -0.3586 -0.9730 -0.4844
  438MOL0     C59002   4.955   9.131   8.291 -0.9499 -0.0648  0.7400
  438MOL0     O59003   4.908   9.056   8.392  0.2807  0.4412 -0.6401
  438MOL0     C59004   4.767   9.027   8.383 -0.1270 -0.0096 -0.5893
  438MOL0     C59005   4.732   8.954   8.508  0.2931 -0.1530 -0.5634
  438MOL0     C59006   4.729   9.061   8.619  0.0884 -0.2765 -0.8328
  438MOL0     C59007   4.599   9.131   8.622  0.4446  0.1726 -0.0978
  438MOL0     C59008   4.574   9.181   8.755  0.4166  0.1130  0.5280
  438MOL0     C59009   4.449   9.265   8.771  0.0980 -1.4319 -1.1243
  438MOL0     C59010   4.438   9.383   8.670  0.5364 -0.4779 -0.1215
  438MOL0     C59011   4.307   9.457   8.674 -0.0482  0.4488 -0.0903
  438MOL0     N59012   4.300   9.552   8.559  0.3958  0.2268  0.3031
  438MOL0     C59013   4.226   9.672   8.553  0.4130  0.4366 -0.2119
  438MOL0     C59014   4.263   9.729   8.436 -0.1417 -0.7199 -0.0040
  438MOL0     C59015   4.193   9.845   8.365  0.6565 -0.5532 -0.0441
  438MOL0     C59016   4.158   9.965   8.452  0.3865 -0.1425  0.5144
  438MOL0     C59017   4.267  10.025   8.541 -0.2316  0.2384  0.5366
  438MOL0     C59018   4.222  10.166   8.592 -0.2356 -0.3509 -0.1505
  438MOL0     O59019   4.338  10.244   8.600 -0.4915  0.1857  0.1418
  438MOL0     C59020   4.309  10.382   8.589 -0.4759  0.0623  1.4456
  438MOL0     C59021   4.315  10.437   8.462 -1.0151 -0.9493  0.9489
  438MOL0     C59022   4.286  10.570   8.434  0.0308  0.4393  0.2457
  438MOL0     C59023   4.288  10.612   8.288  0.3864 -0.0836  0.7526
  438MOL0     C59024   4.242  10.657   8.542  0.2392 -0.0322 -0.3460
  438MOL0     C59025   4.181  10.791   8.529 -1.0434 -0.1794  0.2770
  438MOL0     O59026   4.146  10.846   8.652  0.5814 -1.0857 -0.3394
  438MOL0     C59027   4.111  10.974   8.652  1.3051  0.0409  0.9750
  438MOL0     C59028   4.196  11.074   8.670  0.7112  0.4781 -0.0930
  438MOL0     C59029   4.162  11.208   8.644  0.8341 -0.1100  0.1347
  438MOL0     C59030   4.035  11.243   8.608  0.5801  0.7396  0.0852
  438MOL0     O59031   3.981  11.370   8.594  0.1015 -0.4005  0.2125
  438MOL0     C59032   4.070  11.472   8.565 -0.2492 -0.1250 -0.1363
  438MOL0     C59033   4.005  11.571   8.466  0.0290 -0.2077  0.1494
  438MOL0     C59034   3.895  11.638   8.539  0.2287 -0.4387  0.4815
  438MOL0     C59035   3.826  11.759   8.459 -0.8011  0.1846 -0.3971
  438MOL0     C59036   3.886  11.890   8.515 -0.3354  0.2177 -0.4608
  438MOL0     C59037   3.853  12.010   8.429 -0.5004  0.6088 -0.6747
  438MOL0     C59038   3.714  12.064   8.468  0.0569 -0.9969 -0.4171
  438MOL0     C59039   3.665  12.194   8.397 -0.4810 -0.2248  0.3754
  438MOL0    Cl59040   3.675  12.174   8.220 -0.3675  0.0791  0.1914
  438MOL0     C59041   3.949  11.142   8.589  1.2872  0.1723  1.0116
  438MOL0     C59042   3.983  11.011   8.609  0.1720  0.0472 -0.4049
  438MOL0     O59043   4.152  10.835   8.418 -0.5246  0.4790 -0.1303
  438MOL0     C59044   4.243  10.603   8.671 -0.0796 -0.0647  0.6931
  438MOL0     C59045   4.276  10.461   8.692 -0.0557 -0.5552 -0.2175
  438MOL0     N59046   4.353   9.645   8.372  0.4576  0.4415  0.3498
  438MOL0     N59047   4.385   9.551   8.451 -0.9228  0.2176  0.0580
  438MOL0     C59048   5.067   9.208   8.315 -0.6281 -0.4891  0.4437
  438MOL0     C59049   5.127   9.281   8.212 -0.4688  0.2376 -1.2640
  438MOL0     C59050   5.298   9.471   7.839  0.7046 -0.5292  0.2820
  438MOL0     C59051   5.426   9.477   7.783  0.7024  0.2768 -0.4957
  438MOL0     C59052   5.447   9.552   7.664 -1.0304  0.8556  0.5960
  438MOL0     C59053   5.352   9.634   7.604  0.0539 -1.2809 -0.5674
  438MOL0     O59054   5.360   9.709   7.486  0.5581 -0.2854 -0.1060
  438MOL0     C59055   5.414   9.639   7.379 -1.3619 -0.4399  0.3219
  438MOL0     C59056   5.409   9.721   7.253 -0.2381 -0.8544  0.0439
  438MOL0     C59057   5.270   9.746   7.202  1.2876 -1.2965  0.1523
  438MOL0     C59058   5.181   9.633   7.157 -0.3759  0.7147  0.0899
  438MOL0     C59059   5.216   9.582   7.025  0.2517  0.4987 -0.2479
  438MOL0     C59060   5.230   9.542   6.911  0.0170  0.2776 -0.8575
  438MOL0     C59061   5.232   9.643   7.674  0.4228  0.5226 -0.4132
  438MOL0     C59062   5.209   9.569   7.787  0.0017 -1.1644  0.1377
  438MOL0     H59063   4.916   9.249   7.960 -0.2319  1.5801  0.0375
  438MOL0     H59064   4.789   9.111   8.141 -0.9547 -0.4928  1.1747
  438MOL0     H59065   4.711   9.121   8.383 -1.8871 -1.0293 -0.6914
  438MOL0     H59066   4.736   8.973   8.293 -0.9777  0.7645 -0.7693
  438MOL0     H59067   4.630   8.913   8.507 -0.2744  1.2232 -0.9710
  438MOL0     H59068   4.809   8.877   8.516  1.3443  0.9189 -0.1986
  438MOL0     H59069   4.733   8.994   8.705  0.4552 -0.9190 -1.3403
  438MOL0     H59070   4.812   9.129   8.603  0.7850 -0.9968 -0.3542
  438MOL0     H59071   4.607   9.213   8.550  0.0661 -0.8210 -1.3091
  438MOL0     H59072   4.510   9.075   8.591 -2.3520  4.2915 -0.2658
  438MOL0     H59073   4.564   9.098   8.825 -0.6178 -0.6079 -0.4237
  438MOL0     H59074   4.659   9.243   8.784 -0.8328  2.2666 -0.1947
  438MOL0     H59075   4.359   9.203   8.766 -0.6473 -0.6320  1.0092
  438MOL0     H59076   4.456   9.305   8.873  0.6780 -2.1627 -0.8719
  438MOL0     H59077   4.516   9.458   8.684 -1.5019  1.9921 -1.1320
  438MOL0     H59078   4.443   9.335   8.572  2.4940 -1.1329  0.2417
  438MOL0     H59079   4.275   9.498   8.770 -4.1659 -1.6351 -0.3459
  438MOL0     H59080   4.237   9.373   8.667  1.3167 -0.7057 -0.4078
  438MOL0     H59081   4.139   9.704   8.610 -0.2203  2.2359 -2.0850
  438MOL0     H59082   4.241   9.881   8.274 -4.0456 -0.7453 -2.9105
  438MOL0     H59083   4.102   9.812   8.315  2.4471 -0.3551 -3.7863
  438MOL0     H59084   4.066   9.943   8.508  0.8704 -0.4533  1.2058
  438MOL0     H59085   4.141  10.043   8.378 -0.0639 -1.6459 -1.0333
  438MOL0     H59086   4.358  10.044   8.483 -0.1802 -1.8624 -0.1776
  438MOL0     H59087   4.272   9.958   8.627 -0.9299  1.4203  1.5253
  438MOL0     H59088   4.176  10.161   8.691  2.2441 -1.8953  1.0329
  438MOL0     H59089   4.150  10.208   8.522  0.7955  0.3307 -0.8185
  438MOL0     H59090   4.337  10.377   8.374  1.6634  3.1368 -1.5259
  438MOL0     H59091   4.328  10.539   8.217 -1.4156 -0.4311  0.0440
  438MOL0     H59092   4.186  10.639   8.260  1.1998 -0.7868 -3.6939
  438MOL0     H59093   4.348  10.704   8.289 -0.1684  0.2829  0.5526
  438MOL0     H59094   4.288  11.034   8.709  0.5373 -1.9171 -1.9378
  438MOL0     H59095   4.232  11.289   8.664 -0.5870  0.9372  1.0764
  438MOL0     H59096   4.098  11.521   8.659  2.2229 -0.0295 -0.8434
  438MOL0     H59097   4.162  11.431   8.520  1.7988 -1.1244  4.4354
  438MOL0     H59098   4.071  11.649   8.429 -0.6314  0.7979  1.0115
  438MOL0     H59099   3.955  11.519   8.385  2.5682 -1.4528 -0.7115
  438MOL0     H59100   3.933  11.669   8.637  0.5604  1.4355 -0.1999
  438MOL0     H59101   3.819  11.562   8.558  0.1865 -0.5847 -0.2319
  438MOL0     H59102   3.838  11.732   8.354  0.1469 -0.9872  0.0022
  438MOL0     H59103   3.718  11.767   8.477 -1.1643 -1.3951 -1.6997
  438MOL0     H59104   3.995  11.885   8.521 -0.2489  1.3327 -0.9284
  438MOL0     H59105   3.845  11.906   8.615 -1.0737 -1.9071 -0.3668
  438MOL0     H59106   3.929  12.084   8.457  1.0947 -1.7254  1.5997
  438MOL0     H59107   3.852  11.995   8.321 -0.6089  1.4351 -0.7986
  438MOL0     H59108   3.701  12.069   8.577  1.7276 -2.8193 -0.0815
  438MOL0     H59109   3.645  11.994   8.421 -2.4808  1.1293 -0.1195
  438MOL0     H59110   3.720  12.288   8.415  1.5111 -0.8679 -1.7626
  438MOL0     H59111   3.560  12.214   8.419 -0.9920 -0.6707 -1.4756
  438MOL0     H59112   3.847  11.161   8.558  0.8095 -0.7227  1.9592
  438MOL0     H59113   3.908  10.936   8.587  1.1272 -0.1607 -3.4196
  438MOL0     H59114   4.212  10.657   8.760  0.3173  2.7862 -0.7844
  438MOL0     H59115   4.247  10.407   8.782 -1.2818  0.1797 -0.1501
  438MOL0     H59116   5.105   9.219   8.416  1.1353  2.4410 -0.4225
  438MOL0     H59117   5.222   9.326   8.240  0.2762 -2.3246  0.7020
  438MOL0     H59118   5.497   9.401   7.814 -1.0359 -2.1428 -2.0449
  438MOL0     H59119   5.545   9.532   7.622 -1.1013 -0.3428  0.9539
  438MOL0     H59120   5.519   9.612   7.392 -1.0299 -0.0460 -1.2745
  438MOL0     H59121   5.367   9.540   7.372  0.4209 -1.2782 -0.6623
  438MOL0     H59122   5.464   9.662   7.179  1.4423  1.4655 -0.6730
  438MOL0     H59123   5.466   9.813   7.270 -2.3705  0.2414  1.6725
  438MOL0     H59124   5.276   9.805   7.111  0.8038 -2.6389 -0.7897
  438MOL0     H59125   5.222   9.801   7.284  1.8765  2.0539 -1.6037
  438MOL0     H59126   5.075   9.659   7.143 -0.9040 -2.0675 -2.1124
  438MOL0     H59127   5.179   9.554   7.232 -0.6155 -0.1959 -0.8451
  438MOL0     H59128   5.233   9.497   6.814  0.0699 -0.9016 -0.3279
  438MOL0     H59129   5.153   9.712   7.647  1.5805  1.2042 -2.2465
  438MOL0     H59130   5.118   9.596   7.841 -0.3772 -0.5584 -0.7819
  439MOL0     O59131   5.460   2.493   4.641  0.9009  0.1578 -0.2719
  439MOL0     C59132   5.345   2.515   4.680 -0.7544 -0.5899  0.1228
  439MOL0     O59133   5.228   2.524   4.597 -0.9178  0.6020 -0.2853
  439MOL0     C59134   5.246   2.532   4.464  0.4206  0.5768  1.2572
  439MOL0     C59135   5.323   2.632   4.399 -0.5856 -0.0931 -0.0723
  439MOL0     C59136   5.336   2.627   4.259 -0.1591 -0.5201  0.7423
  439MOL0     C59137   5.267   2.527   4.188 -0.1527 -0.0447  0.8717
  439MOL0     O59138   5.276   2.537   4.046  0.4500 -0.1158 -0.4587
  439MOL0     C59139   5.184   2.467   3.964  1.3886  0.1414  0.9961
  439MOL0     C59140   5.190   2.513   3.812 -0.5692  0.0137 -0.1346
  439MOL0     C59141   5.301   2.439   3.747 -0.5084 -0.0112 -0.1647
  439MOL0     C59142   5.319   2.459   3.599 -0.0179  0.7882 -0.5735
  439MOL0     C59143   5.231   2.386   3.502 -0.3043 -0.0058 -0.6166
  439MOL0     C59144   5.278   2.243   3.477 -0.5332  0.1697 -0.5713
  439MOL0     C59145   5.193   2.172   3.377  0.9000 -0.0805  0.3332
  439MOL0     C59146   5.240   2.029   3.344 -0.1607 -0.8284  0.0976
  439MOL0     N59147   5.160   1.942   3.266  0.3011  0.0944  0.6600
  439MOL0     C59148   5.034   1.897   3.304 -0.0236 -0.2205  0.7492
  439MOL0     C59149   4.956   1.864   3.198  0.2436 -0.5923 -0.7939
  439MOL0     C59150   4.821   1.797   3.201  1.1869  0.9641  0.0804
  439MOL0     C59151   4.746   1.796   3.062 -0.2968 -0.0133  0.7682
  439MOL0     C59152   4.599   1.749   3.081  0.2455  0.1177  0.0313
  439MOL0     C59153   4.512   1.832   3.176 -0.2002  0.2504  0.0172
  439MOL0     O59154   4.547   1.972   3.155  1.0542 -0.2466  0.4147
  439MOL0     C59155   4.442   2.051   3.120  0.9072  0.1952 -0.7668
  439MOL0     C59156   4.364   2.015   3.012  0.4204 -0.7234  0.8988
  439MOL0     C59157   4.248   2.076   2.964  0.3911 -0.0312 -0.3569
  439MOL0     C59158   4.165   2.007   2.862  0.2003 -0.1012  0.4768
  439MOL0     C59159   4.204   2.188   3.039  0.1669 -0.5283 -0.0206
  439MOL0     C59160   4.084   2.276   2.999  0.8555  0.3093 -0.7244
  439MOL0     O59161   4.050   2.377   3.083 -0.4734 -0.5256  0.4308
  439MOL0     C59162   3.973   2.488   3.056  0.0508  0.8632 -0.2567
  439MOL0     C59163   3.918   2.560   3.158 -0.6542 -0.3103  0.9109
  439MOL0     C59164   3.825   2.669   3.133 -0.2975 -0.6083 -0.2611
  439MOL0     C59165   3.822   2.727   3.009 -0.1908  1.4681  0.1044
  439MOL0     O59166   3.757   2.848   2.993  0.6487 -0.6552  0.9870
  439MOL0     C59167   3.694   2.857   2.866 -0.0286  0.3568 -0.3721
  439MOL0     C59168   3.608   2.985   2.859 -0.5087  0.2503  0.3426
  439MOL0     C59169   3.644   3.069   2.735  0.3615 -0.1035 -0.4283
  439MOL0     C59170   3.551   3.200   2.734 -0.5690  0.2062 -0.6747
  439MOL0     C59171   3.595   3.304   2.623  0.0293  0.1262 -0.5125
  439MOL0     C59172   3.507   3.431   2.647  0.7174  0.3944 -0.2116
  439MOL0     C59173   3.568   3.526   2.759 -0.5868  0.1266  0.3273
  439MOL0     C59174   3.480   3.649   2.765 -0.1953 -0.3805 -1.1196
  439MOL0    Cl59175   3.318   3.612   2.844 -0.4718  0.9471 -0.2085
  439MOL0     C59176   3.890   2.663   2.899  0.2419  0.3817 -0.9112
  439MOL0     C59177   3.960   2.546   2.929 -0.2778 -0.3341 -0.0442
  439MOL0     O59178   4.027   2.263   2.892  0.0672  0.8655  1.4069
  439MOL0     C59179   4.282   2.226   3.151  0.4674 -0.0757 -0.1682
  439MOL0     C59180   4.399   2.153   3.203  1.0630 -0.3105 -0.1245
  439MOL0     N59181   5.036   1.888   3.086  0.7151  0.2450  0.0600
  439MOL0     N59182   5.152   1.928   3.124  0.0002 -0.0742  0.4583
  439MOL0     C59183   5.194   2.431   4.252  0.2669  0.0042 -0.3285
  439MOL0     C59184   5.174   2.433   4.390  0.2554 -0.1948 -0.0100
  439MOL0     C59185   5.332   2.549   4.824 -0.1773  1.5191  0.0730
  439MOL0     C59186   5.205   2.573   4.868  0.4486 -0.3331 -0.4277
  439MOL0     C59187   5.172   2.581   5.004 -0.3957 -0.3615  0.1290
  439MOL0     C59188   5.276   2.571   5.097  0.1767  0.2420  0.4496
  439MOL0     O59189   5.239   2.570   5.234 -0.5419  0.8070  0.5429
  439MOL0     C59190   5.337   2.556   5.340  0.4395  0.1407  0.6170
  439MOL0     C59191   5.338   2.410   5.401 -0.3235 -0.1300 -0.8724
  439MOL0     C59192   5.211   2.356   5.474 -0.4846  0.5280 -0.8282
  439MOL0     C59193   5.144   2.268   5.369  0.3202 -0.1987 -0.7304
  439MOL0     C59194   5.022   2.208   5.430  0.0596  1.2996 -0.5122
  439MOL0     C59195   4.925   2.160   5.489  0.4677  0.2155 -0.6899
  439MOL0     C59196   5.408   2.540   5.051  0.0462  0.6340 -0.6452
  439MOL0     C59197   5.434   2.528   4.912  0.9011  0.2405  0.6542
  439MOL0     H59198   5.365   2.712   4.460 -0.8098  0.8033 -1.0625
  439MOL0     H59199   5.401   2.696   4.205 -3.5685  1.8141 -0.7384
  439MOL0     H59200   5.207   2.361   3.976 -0.3083 -0.5503 -1.2139
  439MOL0     H59201   5.082   2.488   3.999  0.8535  0.9382 -0.9586
  439MOL0     H59202   5.095   2.495   3.761 -1.9159  2.5821  1.2744
  439MOL0     H59203   5.210   2.620   3.803  1.2673 -0.2371  0.5191
  439MOL0     H59204   5.403   2.463   3.776  0.4259 -3.0393 -0.5855
  439MOL0     H59205   5.283   2.332   3.764  2.6796 -0.8215 -1.1789
  439MOL0     H59206   5.293   2.565   3.591 -0.7810  0.7552  0.9544
  439MOL0     H59207   5.419   2.438   3.560 -0.7732 -1.2404 -1.5369
  439MOL0     H59208   5.128   2.397   3.537  0.5624  0.8172  1.9212
  439MOL0     H59209   5.221   2.440   3.408 -1.1406  0.7732 -0.1043
  439MOL0     H59210   5.380   2.251   3.438  1.1544 -2.1186  2.8775
  439MOL0     H59211   5.279   2.174   3.562 -2.2514  1.6937  0.7607
  439MOL0     H59212   5.088   2.171   3.408  0.9221 -2.7445  0.5295
  439MOL0     H59213   5.196   2.222   3.280 -0.9451  1.6846  1.0949
  439MOL0     H59214   5.263   1.975   3.436 -0.3480 -0.1128  0.5743
  439MOL0     H59215   5.336   2.048   3.294  0.9857 -2.0959  1.7372
  439MOL0     H59216   4.999   1.904   3.407  0.5472  0.1721  0.9256
  439MOL0     H59217   4.845   1.692   3.220 -0.0713 -0.3658 -4.3104
  439MOL0     H59218   4.770   1.837   3.289  0.4726 -1.4932  0.8642
  439MOL0     H59219   4.809   1.738   2.994 -0.0642  0.1850  0.8152
  439MOL0     H59220   4.747   1.898   3.023 -0.3913  0.6193  2.3301
  439MOL0     H59221   4.595   1.645   3.117  2.8924  1.0511  3.6891
  439MOL0     H59222   4.569   1.763   2.977  1.2975  2.0004 -0.0660
  439MOL0     H59223   4.536   1.803   3.279 -1.2473  2.1976  0.8712
  439MOL0     H59224   4.406   1.816   3.157 -0.8307  1.0950  2.4623
  439MOL0     H59225   4.396   1.936   2.946  2.9418  0.9371 -0.0026
  439MOL0     H59226   4.069   1.973   2.902 -0.1161  1.3078  0.9558
  439MOL0     H59227   4.160   2.096   2.799 -0.9348  0.4595  1.3398
  439MOL0     H59228   4.212   1.916   2.823 -2.0613 -1.5654  0.9351
  439MOL0     H59229   3.924   2.514   3.256 -1.9978  2.0615  2.2016
  439MOL0     H59230   3.784   2.705   3.227  0.0596 -1.1114  0.0975
  439MOL0     H59231   3.774   2.858   2.792 -0.9437  3.2072 -1.4369
  439MOL0     H59232   3.625   2.773   2.857 -1.7538  1.6076  0.5749
  439MOL0     H59233   3.502   2.959   2.857 -0.7435  1.0071 -2.6632
  439MOL0     H59234   3.634   3.043   2.948 -2.1515  1.4931  0.0686
  439MOL0     H59235   3.631   3.017   2.640  0.2352 -1.9296  0.5436
  439MOL0     H59236   3.750   3.097   2.745  0.2851  1.3061 -2.7635
  439MOL0     H59237   3.445   3.181   2.713 -0.4119  1.8401 -3.5838
  439MOL0     H59238   3.555   3.248   2.832 -2.2689  0.7721 -0.8394
  439MOL0     H59239   3.567   3.249   2.533 -0.6346 -3.3786  1.6645
  439MOL0     H59240   3.701   3.329   2.631 -0.0932  1.0644 -1.5769
  439MOL0     H59241   3.499   3.486   2.552 -0.0629  2.4259  0.9653
  439MOL0     H59242   3.405   3.399   2.668  1.2617 -1.8422 -0.6911
  439MOL0     H59243   3.676   3.541   2.747 -0.1530  1.7740  4.6435
  439MOL0     H59244   3.565   3.477   2.856  3.7389 -0.4655  0.3502
  439MOL0     H59245   3.464   3.687   2.663 -1.8710  2.0119 -0.0509
  439MOL0     H59246   3.538   3.720   2.824  0.9242 -3.9503  2.5317
  439MOL0     H59247   3.891   2.702   2.798 -3.1489  4.7701  0.4255
  439MOL0     H59248   4.009   2.504   2.842 -4.4916  0.6721 -3.1972
  439MOL0     H59249   4.247   2.308   3.213  0.3196  0.1055 -0.4876
  439MOL0     H59250   4.456   2.180   3.292 -1.3179  2.6875  0.6652
  439MOL0     H59251   5.138   2.353   4.199  2.0127 -0.4613 -1.5899
  439MOL0     H59252   5.116   2.362   4.448 -1.7528  2.4295  1.4348
  439MOL0     H59253   5.123   2.590   4.800  0.1417 -1.5282 -0.3625
  439MOL0     H59254   5.068   2.597   5.028 -1.0962  1.0179 -3.2476
  439MOL0     H59255   5.438   2.588   5.312 -0.1929  1.7115 -0.0116
  439MOL0     H59256   5.306   2.628   5.417  0.4146 -0.1874  0.9145
  439MOL0     H59257   5.423   2.419   5.469 -0.1120  2.9071 -1.3799
  439MOL0     H59258   5.361   2.338   5.322 -0.2113  0.9104 -1.8081
  439MOL0     H59259   5.148   2.440   5.502 -2.0398 -0.7598 -0.2914
  439MOL0     H59260   5.249   2.293   5.555 -0.5491 -1.0459 -1.9777
  439MOL0     H59261   5.202   2.186   5.325 -0.2119 -1.1503  0.2867
  439MOL0     H59262   5.112   2.325   5.282 -0.8805 -1.6971 -1.3201
  439MOL0     H59263   4.842   2.133   5.551 -1.6398  2.1943 -2.4523
  439MOL0     H59264   5.494   2.510   5.109 -0.1935 -3.9446 -2.2525
  439MOL0     H59265   5.536   2.501   4.885  0.7492  0.8010 -0.5197
  440MOL0     O59266   1.500   4.926   4.255 -0.4286  0.6750 -0.1226
  440MOL0     C59267   1.554   4.985   4.167  0.5553  0.5227  0.6652
  440MOL0     O59268   1.687   4.976   4.140 -0.6640  0.1466  0.0955
  440MOL0     C59269   1.780   4.929   4.234 -0.0785  0.1184 -0.5895
  440MOL0     C59270   1.903   4.889   4.185  1.2655  0.7382  0.0572
  440MOL0     C59271   2.004   4.840   4.262 -0.5960  0.3491  0.0471
  440MOL0     C59272   1.989   4.841   4.398  0.2710 -0.0658 -1.1197
  440MOL0     O59273   2.083   4.795   4.487  0.1507  0.6728  0.0205
  440MOL0     C59274   2.173   4.694   4.446 -0.5522 -0.2179 -0.5909
  440MOL0     C59275   2.278   4.671   4.561  0.4301 -0.3196  0.1653
  440MOL0     C59276   2.388   4.568   4.538  1.1989 -0.0755  0.2876
  440MOL0     C59277   2.480   4.544   4.660 -0.0782 -0.0190 -0.3370
  440MOL0     C59278   2.576   4.661   4.685 -0.0842  0.0862  0.4485
  440MOL0     C59279   2.659   4.633   4.813  0.1796  0.3640  1.1625
  440MOL0     C59280   2.752   4.748   4.863 -0.1729  0.8497 -0.3391
  440MOL0     C59281   2.847   4.686   4.967  0.1331 -1.1519 -0.0354
  440MOL0     N59282   2.970   4.764   5.009  1.0358 -0.8414 -0.1314
  440MOL0     C59283   3.066   4.815   4.931  0.0614 -0.5510 -0.3372
  440MOL0     C59284   3.162   4.862   5.016  1.4694  0.3357 -0.1801
  440MOL0     C59285   3.284   4.918   4.972 -0.5687  0.7737 -0.3906
  440MOL0     C59286   3.271   5.038   4.875  0.2195 -0.0805 -0.4965
  440MOL0     C59287   3.407   5.117   4.865  0.3815 -0.0527  0.4637
  440MOL0     C59288   3.386   5.247   4.782  0.1028  0.6039  0.0409
  440MOL0     O59289   3.496   5.334   4.787 -0.1263  0.9551 -1.0703
  440MOL0     C59290   3.489   5.455   4.725  0.4343  0.0630  0.3451
  440MOL0     C59291   3.375   5.506   4.652  1.1728 -0.6430 -0.1420
  440MOL0     C59292   3.364   5.637   4.610  0.3145  0.2020 -0.3825
  440MOL0     C59293   3.228   5.688   4.553 -0.2593 -0.7698  0.5032
  440MOL0     C59294   3.481   5.720   4.610 -0.5662 -0.9090  0.1844
  440MOL0     C59295   3.484   5.861   4.557 -0.4996  0.0741  0.7869
  440MOL0     O59296   3.594   5.934   4.585 -0.1251  0.2969 -0.1468
  440MOL0     C59297   3.640   6.051   4.535  0.0288 -0.0835 -0.1601
  440MOL0     C59298   3.567   6.169   4.523  0.8666 -0.1725 -0.6889
  440MOL0     C59299   3.593   6.282   4.445 -1.0683  0.9213  0.8872
  440MOL0     C59300   3.724   6.273   4.378  0.3910  0.5280  0.3707
  440MOL0     O59301   3.772   6.375   4.306 -0.4466 -0.9025 -0.2367
  440MOL0     C59302   3.728   6.508   4.326  0.2205  0.4362  0.2873
  440MOL0     C59303   3.805   6.616   4.250 -0.5412  0.1444  0.6745
  440MOL0     C59304   3.827   6.577   4.096  0.0349  0.9229 -0.6623
  440MOL0     C59305   3.854   6.709   4.026  0.3547  0.2927  0.2919
  440MOL0     C59306   3.882   6.684   3.875 -0.8551 -0.0201  0.3976
  440MOL0     C59307   3.758   6.641   3.785 -0.3549  1.1358 -0.4965
  440MOL0     C59308   3.782   6.678   3.640  0.3034 -0.3906  0.6827
  440MOL0     C59309   3.681   6.635   3.532 -0.3188 -0.7007 -0.3862
  440MOL0    Cl59310   3.565   6.755   3.511  0.2962 -0.1645 -0.3867
  440MOL0     C59311   3.809   6.155   4.390 -0.0299  0.4690 -0.1874
  440MOL0     C59312   3.767   6.040   4.463 -0.8226  0.2055 -1.2221
  440MOL0     O59313   3.397   5.901   4.481 -0.2894  0.1690 -0.4960
  440MOL0     C59314   3.605   5.665   4.670 -0.6230 -0.0499  0.6066
  440MOL0     C59315   3.604   5.535   4.729 -0.1857 -0.8853  0.3583
  440MOL0     N59316   3.121   4.827   5.150  0.3037 -1.5926 -0.3344
  440MOL0     N59317   3.004   4.773   5.142  0.2189  0.4200 -0.9042
  440MOL0     C59318   1.864   4.885   4.453 -0.3749 -0.6383 -0.1679
  440MOL0     C59319   1.759   4.929   4.370  0.1595 -0.0953 -0.4949
  440MOL0     C59320   1.472   5.045   4.064 -0.1420  0.6959 -0.4989
  440MOL0     C59321   1.337   5.077   4.086 -0.1629 -0.9511  0.0259
  440MOL0     C59322   1.263   5.151   3.992  0.9299 -0.3956  0.9008
  440MOL0     C59323   1.326   5.214   3.885 -0.0288 -0.7045  0.0150
  440MOL0     O59324   1.248   5.292   3.804 -0.6492  0.1656 -0.2058
  440MOL0     C59325   1.303   5.340   3.674 -0.4803 -0.6694  0.3963
  440MOL0     C59326   1.201   5.437   3.618 -0.0652  0.1559 -0.2267
  440MOL0     C59327   1.245   5.509   3.486 -0.4704 -0.2931 -1.3232
  440MOL0     C59328   1.133   5.579   3.407  0.1035 -0.3183  0.4651
  440MOL0     C59329   1.171   5.596   3.265  0.8603 -0.2443  0.0376
  440MOL0     C59330   1.189   5.605   3.146  0.2275  0.5946 -0.4916
  440MOL0     C59331   1.464   5.180   3.866 -0.2165 -0.5409 -0.3415
  440MOL0     C59332   1.536   5.095   3.949  0.4736 -0.6434  0.2635
  440MOL0     H59333   1.920   4.866   4.080 -3.6419  0.0888 -0.8682
  440MOL0     H59334   2.095   4.805   4.216 -0.4190 -1.4052  1.6246
  440MOL0     H59335   2.116   4.601   4.437  1.2263 -1.4271  0.0403
  440MOL0     H59336   2.223   4.727   4.354 -4.4487 -0.4867 -3.0434
  440MOL0     H59337   2.334   4.758   4.597  1.8576 -0.7867 -0.8488
  440MOL0     H59338   2.215   4.643   4.646 -0.8937  1.4647 -0.1588
  440MOL0     H59339   2.347   4.472   4.504  1.7037 -0.2356  0.1366
  440MOL0     H59340   2.438   4.614   4.453  0.4118  0.3872  0.0660
  440MOL0     H59341   2.418   4.539   4.750 -1.1821  1.1637 -0.9892
  440MOL0     H59342   2.539   4.456   4.635  2.2058  1.6375 -1.1066
  440MOL0     H59343   2.630   4.680   4.592 -0.8993  1.3872  0.2100
  440MOL0     H59344   2.509   4.745   4.707 -0.4141 -0.4453  1.5361
  440MOL0     H59345   2.604   4.606   4.904 -3.0497  1.5416 -0.3004
  440MOL0     H59346   2.707   4.538   4.787 -2.0823 -0.1759 -1.4011
  440MOL0     H59347   2.806   4.786   4.775 -2.1527  1.4711 -1.3345
  440MOL0     H59348   2.691   4.829   4.902 -1.9898 -0.0536 -1.1901
  440MOL0     H59349   2.880   4.587   4.934 -0.9221 -1.1952 -1.0211
  440MOL0     H59350   2.773   4.679   5.048 -0.1217 -0.0757 -0.1602
  440MOL0     H59351   3.062   4.827   4.823  1.4479  1.0462 -0.2551
  440MOL0     H59352   3.342   4.960   5.054  0.2576  2.3138 -1.6867
  440MOL0     H59353   3.347   4.840   4.928  2.1502  3.4775 -1.6993
  440MOL0     H59354   3.198   5.108   4.916  3.0891  0.7971  3.7465
  440MOL0     H59355   3.248   4.994   4.777  1.6067 -3.8320  0.6932
  440MOL0     H59356   3.477   5.045   4.823  0.8508 -0.0871  1.2733
  440MOL0     H59357   3.427   5.147   4.969 -0.9284  1.5887  0.2785
  440MOL0     H59358   3.296   5.302   4.812  1.9071  3.0944  1.2118
  440MOL0     H59359   3.369   5.216   4.678  0.8736  1.4824 -0.3599
  440MOL0     H59360   3.290   5.441   4.633  1.7019 -2.5072  3.0733
  440MOL0     H59361   3.222   5.697   4.444  1.9069  1.5466  0.5016
  440MOL0     H59362   3.146   5.622   4.583 -1.3274  1.2196  2.2069
  440MOL0     H59363   3.200   5.781   4.602  0.3222  0.7777 -1.9245
  440MOL0     H59364   3.477   6.166   4.584 -0.6481  1.4283 -2.6736
  440MOL0     H59365   3.523   6.365   4.440 -1.2252  0.7123 -0.7299
  440MOL0     H59366   3.623   6.527   4.299 -0.3720  0.8499  2.6304
  440MOL0     H59367   3.714   6.534   4.431  0.8514  0.3365  0.4014
  440MOL0     H59368   3.758   6.715   4.261 -1.7022  0.1359 -2.9836
  440MOL0     H59369   3.900   6.630   4.301 -0.2854  5.2709 -0.5727
  440MOL0     H59370   3.732   6.535   4.061  0.6985 -1.5773  0.3274
  440MOL0     H59371   3.907   6.503   4.092 -1.4199 -0.7668  0.2956
  440MOL0     H59372   3.769   6.777   4.027  0.7690  0.9432 -2.3556
  440MOL0     H59373   3.938   6.769   4.064  0.1591  0.3692  0.6034
  440MOL0     H59374   3.959   6.610   3.851 -2.9447 -1.5887 -2.0360
  440MOL0     H59375   3.929   6.774   3.835  0.1712 -0.2983  0.9440
  440MOL0     H59376   3.746   6.533   3.789  1.0134  0.8677 -2.4816
  440MOL0     H59377   3.671   6.697   3.821  0.0511  0.9040  0.9317
  440MOL0     H59378   3.883   6.647   3.613  0.5843 -1.0439  2.3482
  440MOL0     H59379   3.799   6.786   3.632 -0.2291 -0.4150 -1.1499
  440MOL0     H59380   3.632   6.543   3.567 -0.5638 -0.3807  0.1263
  440MOL0     H59381   3.727   6.609   3.436 -1.2339 -3.1057 -0.2417
  440MOL0     H59382   3.907   6.166   4.345 -0.4560 -1.0504 -1.6469
  440MOL0     H59383   3.824   5.949   4.452  1.2076  1.5300 -2.2450
  440MOL0     H59384   3.699   5.719   4.666  0.2164 -1.4659  0.8074
  440MOL0     H59385   3.697   5.499   4.772  0.8795 -1.3668 -2.2007
  440MOL0     H59386   1.849   4.885   4.560 -1.2865  1.7416 -0.2263
  440MOL0     H59387   1.665   4.958   4.416  1.5099 -1.3329  3.4271
  440MOL0     H59388   1.281   5.050   4.175 -0.0113 -0.7257  0.1890
  440MOL0     H59389   1.155   5.156   4.004  0.9962 -0.0212  1.3897
  440MOL0     H59390   1.387   5.403   3.705 -0.7351 -0.3920  0.5168
  440MOL0     H59391   1.323   5.259   3.602  1.3587 -0.1704  0.2881
  440MOL0     H59392   1.187   5.514   3.694  2.3892  0.4390  0.0048
  440MOL0     H59393   1.111   5.381   3.592 -2.2200  2.6880  1.3357
  440MOL0     H59394   1.290   5.431   3.423 -1.0739 -2.1626  0.4724
  440MOL0     H59395   1.333   5.572   3.498 -0.5685 -0.3798 -0.0923
  440MOL0     H59396   1.108   5.680   3.440  2.5614  1.0916 -1.5728
  440MOL0     H59397   1.044   5.516   3.405 -0.8406  0.8517 -3.5652
  440MOL0     H59398   1.208   5.606   3.040  0.0735 -0.9346 -0.5549
  440MOL0     H59399   1.515   5.224   3.780 -2.0833  3.5876  0.3849
  440MOL0     H59400   1.641   5.071   3.934  0.6242 -0.8304  1.4946
  441MOL0     O59401   7.342   3.487   1.014  0.0722 -0.3624  0.6250
  441MOL0     C59402   7.336   3.566   1.116  0.3162  1.2426 -0.1816
  441MOL0     O59403   7.373   3.696   1.114 -0.4573 -0.0891 -0.0764
  441MOL0     C59404   7.458   3.738   1.010  0.2493 -0.2458 -0.6969
  441MOL0     C59405   7.435   3.856   0.940  0.5729 -0.6245 -0.2060
  441MOL0     C59406   7.522   3.911   0.850 -0.6189 -0.3175  0.0751
  441MOL0     C59407   7.647   3.855   0.832 -0.3347  0.4018 -0.3326
  441MOL0     O59408   7.736   3.875   0.727 -0.2130 -0.6246  0.4452
  441MOL0     C59409   7.726   4.000   0.660 -0.4616  0.0990  0.7957
  441MOL0     C59410   7.846   3.993   0.565  0.1783 -0.0416 -0.3915
  441MOL0     C59411   7.976   3.967   0.638 -0.2894  0.3737  0.5626
  441MOL0     C59412   8.109   3.993   0.574  1.3332 -0.3670  0.2955
  441MOL0     C59413   8.235   3.941   0.643  0.6164  0.0546  0.1552
  441MOL0     C59414   8.269   4.003   0.780  0.0324  0.6608 -0.0273
  441MOL0     C59415   8.389   3.931   0.840 -0.3248  0.1042 -0.5285
  441MOL0     C59416   8.436   4.010   0.966  0.2509  0.1168  0.0259
  441MOL0     N59417   8.555   3.930   1.009  0.2577 -0.5229  0.7027
  441MOL0     C59418   8.670   3.922   0.935  0.4096 -1.0574  0.8515
  441MOL0     C59419   8.738   3.827   0.998 -0.5100 -0.0388  1.2245
  441MOL0     C59420   8.871   3.779   0.959  0.2395  0.1584 -0.9931
  441MOL0     C59421   8.864   3.633   0.937 -0.2704 -0.0788  0.2637
  441MOL0     C59422   8.897   3.541   1.062  0.1331  0.6495  0.2642
  441MOL0     C59423   9.035   3.541   1.107 -0.8243 -0.0239  1.2399
  441MOL0     O59424   9.122   3.462   1.023  1.0112 -0.1259  0.6953
  441MOL0     C59425   9.241   3.523   0.973  0.2570  0.8003 -0.6300
  441MOL0     C59426   9.340   3.423   0.948 -0.3197  0.8269  0.7025
  441MOL0     C59427   9.471   3.470   0.908  0.7963  0.2390 -0.7821
  441MOL0     C59428   9.560   3.358   0.860  0.6755  0.6746 -0.3703
  441MOL0     C59429   9.508   3.613   0.912 -0.6089  0.7479 -0.2002
  441MOL0     C59430   9.630   3.677   0.871  0.2602 -0.0951  0.8544
  441MOL0     O59431   9.655   3.813   0.902 -0.4758  1.0774 -0.2896
  441MOL0     C59432   9.788   3.849   0.909  0.0217 -1.2154 -0.1541
  441MOL0     C59433   9.871   3.865   0.804  0.2676  0.2447 -0.0872
  441MOL0     C59434  10.009   3.903   0.812 -0.2420 -0.0118 -0.7515
  441MOL0     C59435  10.058   3.947   0.935  0.0906 -0.3922 -1.1537
  441MOL0     O59436  10.193   3.988   0.935  0.3215  1.1159 -0.2177
  441MOL0     C59437  10.237   4.040   1.064 -0.2550  0.3984 -0.5791
  441MOL0     C59438  10.388   4.076   1.065  0.0230  0.9674  0.3183
  441MOL0     C59439  10.392   4.202   0.984  0.4845 -0.3825 -0.2208
  441MOL0     C59440  10.534   4.235   0.956 -0.0669  0.3223 -1.7374
  441MOL0     C59441  10.539   4.382   0.902  0.0899  1.3169 -0.6569
  441MOL0     C59442  10.686   4.441   0.882  0.6134 -0.6762 -0.5016
  441MOL0     C59443  10.759   4.459   1.017 -0.0184 -0.7037  1.1727
  441MOL0     C59444  10.884   4.539   0.992 -0.5842 -0.1634 -0.8155
  441MOL0    Cl59445  10.838   4.706   0.974  0.0270  0.3275  0.0838
  441MOL0     C59446   9.966   3.941   1.047  0.1623 -0.4583  0.0487
  441MOL0     C59447   9.836   3.887   1.033  0.4717  0.0669  1.2513
  441MOL0     O59448   9.696   3.613   0.789 -0.1337  0.2697 -0.1973
  441MOL0     C59449   9.401   3.700   0.943 -0.2878  0.1723 -0.8491
  441MOL0     C59450   9.264   3.659   0.962 -0.2296  0.9274  0.4652
  441MOL0     N59451   8.663   3.773   1.100  0.5602 -0.4997  0.2643
  441MOL0     N59452   8.549   3.839   1.108 -0.2141 -0.4466 -0.2301
  441MOL0     C59453   7.680   3.733   0.905 -0.1910 -0.4181  0.4483
  441MOL0     C59454   7.586   3.674   1.000  0.0091  0.0961  0.2233
  441MOL0     C59455   7.289   3.494   1.242  0.1648 -0.3227 -0.1353
  441MOL0     C59456   7.197   3.385   1.245 -0.6218 -0.4346  0.8004
  441MOL0     C59457   7.156   3.328   1.366 -0.6204  0.2051  0.3027
  441MOL0     C59458   7.200   3.371   1.485 -0.5108  0.4886 -1.1457
  441MOL0     O59459   7.144   3.321   1.602  0.4784  0.2049  0.3525
  441MOL0     C59460   7.196   3.371   1.731 -0.4761 -0.2212  0.8830
  441MOL0     C59461   7.127   3.311   1.850 -0.9600  0.3295 -0.6860
  441MOL0     C59462   6.978   3.339   1.859 -0.7711 -0.0037  0.3281
  441MOL0     C59463   6.908   3.244   1.952 -0.5501  0.4831 -0.4997
  441MOL0     C59464   6.787   3.313   2.006 -0.1213  1.0221 -0.3087
  441MOL0     C59465   6.681   3.352   2.044  1.1214 -0.3023  0.1601
  441MOL0     C59466   7.293   3.476   1.482  0.7461  0.2272  0.1013
  441MOL0     C59467   7.335   3.538   1.364  1.2133  0.0585 -0.7861
  441MOL0     H59468   7.335   3.899   0.935  1.4516  1.4007 -4.1912
  441MOL0     H59469   7.483   3.995   0.793 -0.4266 -0.4257 -0.2235
  441MOL0     H59470   7.634   3.994   0.602  0.6973 -3.7566 -0.9699
  441MOL0     H59471   7.730   4.083   0.731 -2.9630 -0.2365  1.4174
  441MOL0     H59472   7.818   3.912   0.497 -0.2442 -1.2770  1.2071
  441MOL0     H59473   7.858   4.085   0.507 -0.4259 -0.8024 -1.7813
  441MOL0     H59474   7.974   4.016   0.736 -1.9979 -1.2871  1.4196
  441MOL0     H59475   7.985   3.863   0.668  4.7427  0.5260  0.4068
  441MOL0     H59476   8.108   3.943   0.477  1.5280  0.8816 -0.3808
  441MOL0     H59477   8.122   4.099   0.549 -0.8868  0.2404  1.4540
  441MOL0     H59478   8.225   3.834   0.661  2.2973 -0.4081 -1.4307
  441MOL0     H59479   8.316   3.949   0.570 -0.3678  1.4125 -0.8446
  441MOL0     H59480   8.296   4.108   0.762 -0.2285  0.7318 -0.0032
  441MOL0     H59481   8.191   4.011   0.856 -1.0107  1.3710 -1.1398
  441MOL0     H59482   8.359   3.826   0.848 -1.7324  0.4959 -0.3950
  441MOL0     H59483   8.472   3.933   0.768 -2.1481  1.4687 -2.7348
  441MOL0     H59484   8.352   4.000   1.034 -0.9549 -1.0304 -1.5519
  441MOL0     H59485   8.464   4.116   0.956 -0.9367  0.2830 -1.8822
  441MOL0     H59486   8.694   3.987   0.852 -1.2744 -1.8511 -0.3023
  441MOL0     H59487   8.910   3.832   0.872  3.7188 -0.2926  0.1174
  441MOL0     H59488   8.938   3.788   1.045  0.8182 -0.3250 -1.3868
  441MOL0     H59489   8.947   3.615   0.868 -1.8724 -3.0098 -1.0872
  441MOL0     H59490   8.777   3.607   0.876 -1.8308 -0.0372  2.3770
  441MOL0     H59491   8.867   3.441   1.029 -2.1510  1.8051 -1.4900
  441MOL0     H59492   8.835   3.571   1.146 -1.1698  2.5719 -1.2830
  441MOL0     H59493   9.031   3.504   1.210  0.8224 -2.7016  0.4130
  441MOL0     H59494   9.079   3.641   1.115 -0.0459 -0.1457 -0.9109
  441MOL0     H59495   9.319   3.317   0.955 -2.8827  1.1113 -1.4647
  441MOL0     H59496   9.655   3.349   0.913  0.1347  2.5349  1.0238
  441MOL0     H59497   9.508   3.261   0.862 -0.5575  1.3187 -0.1329
  441MOL0     H59498   9.573   3.386   0.755  3.3714 -2.5639 -1.0762
  441MOL0     H59499   9.834   3.835   0.706  1.9899 -0.2574 -0.6177
  441MOL0     H59500  10.077   3.902   0.728  0.7810  1.1818  0.0200
  441MOL0     H59501  10.179   4.131   1.083  0.9225  1.1499 -0.5076
  441MOL0     H59502  10.214   3.968   1.143 -0.2416  0.6823 -0.3163
  441MOL0     H59503  10.433   4.088   1.165  1.0320  0.8375 -0.1059
  441MOL0     H59504  10.440   3.986   1.030 -2.0594 -1.2316  2.4585
  441MOL0     H59505  10.345   4.274   1.052  0.7715 -0.0345 -0.3889
  441MOL0     H59506  10.341   4.201   0.887  1.9808 -2.2127 -1.0468
  441MOL0     H59507  10.591   4.225   1.048  2.1316  3.9670 -2.4837
  441MOL0     H59508  10.576   4.158   0.890 -1.4644 -2.9163  0.8773
  441MOL0     H59509  10.486   4.456   0.962 -1.2156  0.9541 -1.3146
  441MOL0     H59510  10.496   4.389   0.801 -1.9209  2.0193  0.1936
  441MOL0     H59511  10.747   4.368   0.828 -0.9058 -1.8185 -0.7548
  441MOL0     H59512  10.683   4.526   0.814  1.8843 -0.6882 -0.5931
  441MOL0     H59513  10.797   4.359   1.039  2.6903  0.0632  0.4171
  441MOL0     H59514  10.698   4.493   1.101  0.9165  0.6162  1.3545
  441MOL0     H59515  10.936   4.504   0.902 -0.8716 -0.0710 -1.0177
  441MOL0     H59516  10.957   4.537   1.074  1.2818  0.6686 -2.3459
  441MOL0     H59517   9.991   3.986   1.143 -2.4341  0.4148  0.3861
  441MOL0     H59518   9.764   3.881   1.114 -1.7352  1.4909 -0.4955
  441MOL0     H59519   9.423   3.805   0.959  1.6503 -0.3465  0.3268
  441MOL0     H59520   9.202   3.746   0.981  0.9933  1.4367  2.5131
  441MOL0     H59521   7.765   3.674   0.873  1.6014  2.2272  0.0401
  441MOL0     H59522   7.598   3.581   1.055  3.1054  1.2447  1.7240
  441MOL0     H59523   7.155   3.347   1.154 -0.0124 -2.3975  1.2996
  441MOL0     H59524   7.068   3.266   1.376 -2.6561  3.2152  3.0314
  441MOL0     H59525   7.304   3.352   1.735 -0.7932 -2.0523  1.7044
  441MOL0     H59526   7.177   3.479   1.736 -0.7782 -0.3325  3.6416
  441MOL0     H59527   7.175   3.353   1.939  1.1828 -1.4742 -0.9080
  441MOL0     H59528   7.147   3.204   1.862 -2.1845  0.2429  1.1120
  441MOL0     H59529   6.928   3.329   1.762  0.3257  1.4150 -0.4103
  441MOL0     H59530   6.954   3.437   1.900 -3.9505 -0.1648 -0.8047
  441MOL0     H59531   6.978   3.214   2.031  0.3594 -0.0641 -1.4850
  441MOL0     H59532   6.888   3.159   1.887  2.5382 -1.0881  0.3917
  441MOL0     H59533   6.582   3.364   2.083  0.9183 -1.4587  0.0236
  441MOL0     H59534   7.340   3.511   1.573 -1.8452  0.9766  1.2421
  441MOL0     H59535   7.406   3.619   1.374  0.3410  0.7122  0.4869
  442MOL0     O59536   0.638   8.912   7.393  0.1866 -0.5031  0.6030
  442MOL0     C59537   0.525   8.942   7.441 -0.8727  0.1166 -0.5617
  442MOL0     O59538   0.506   9.042   7.533 -0.4591  0.1102  0.6382
  442MOL0     C59539   0.570   9.161   7.527  0.5168  0.6063  1.6016
  442MOL0     C59540   0.640   9.213   7.414  0.3986 -0.8745  0.3082
  442MOL0     C59541   0.706   9.336   7.432 -0.0275  1.1621 -0.1194
  442MOL0     C59542   0.709   9.401   7.554 -0.4204 -0.1186  0.4320
  442MOL0     O59543   0.791   9.508   7.573 -0.2161  0.2433  0.2510
  442MOL0     C59544   0.767   9.610   7.676  0.8010  1.1446  0.0874
  442MOL0     C59545   0.856   9.730   7.648  0.0736  0.5646  0.6114
  442MOL0     C59546   0.846   9.845   7.753 -0.4104  0.0069 -0.3372
  442MOL0     C59547   0.983   9.906   7.798 -0.3870  0.3740 -0.4792
  442MOL0     C59548   0.967  10.014   7.899 -0.2898 -0.2931  0.5125
  442MOL0     C59549   0.903  10.144   7.849  0.4073  0.2015 -0.0028
  442MOL0     C59550   0.937  10.259   7.951 -0.0341 -1.0899 -0.5995
  442MOL0     C59551   0.826  10.353   7.976  0.2069 -0.5486 -0.4081
  442MOL0     N59552   0.732  10.300   8.077 -0.4780  0.4857 -0.1531
  442MOL0     C59553   0.612  10.238   8.048 -0.4129 -0.6295  0.3981
  442MOL0     C59554   0.561  10.205   8.169  0.8952  0.8002  0.2054
  442MOL0     C59555   0.432  10.138   8.187  1.4698 -0.0362 -0.4812
  442MOL0     C59556   0.426  10.017   8.091  0.0919  0.2407 -0.1921
  442MOL0     C59557   0.515   9.905   8.132 -0.2824 -0.2420 -0.3192
  442MOL0     C59558   0.463   9.770   8.086 -1.2351  0.0148  0.7449
  442MOL0     O59559   0.470   9.765   7.945  0.7438  0.1681 -0.4843
  442MOL0     C59560   0.387   9.673   7.876  0.6075  0.0052  0.4183
  442MOL0     C59561   0.305   9.573   7.941 -0.5031 -1.1007  0.0918
  442MOL0     C59562   0.234   9.474   7.869 -0.1540  0.5105  0.3079
  442MOL0     C59563   0.138   9.396   7.944  0.1516 -0.1346 -0.1602
  442MOL0     C59564   0.253   9.457   7.730 -0.1201  0.0249 -0.0623
  442MOL0     C59565   0.208   9.331   7.644 -0.6854  1.1430 -0.5275
  442MOL0     O59566   0.238   9.350   7.512 -0.0670 -0.0551  0.5848
  442MOL0     C59567   0.173   9.269   7.422 -0.5831  0.1489 -1.0584
  442MOL0     C59568   0.034   9.278   7.407  0.5733  1.2142 -0.1174
  442MOL0     C59569  -0.032   9.203   7.310 -0.3481 -0.0523  0.6241
  442MOL0     C59570   0.052   9.141   7.215  1.0988  0.1011  0.1232
  442MOL0     O59571   0.000   9.069   7.113  0.4001  0.6631 -0.5322
  442MOL0     C59572  -0.058   8.948   7.156  0.3402 -0.7012  0.0181
  442MOL0     C59573  -0.082   8.849   7.036 -1.3653  0.1692 -0.4997
  442MOL0     C59574   0.057   8.809   6.979 -0.1791 -0.1744 -0.1521
  442MOL0     C59575   0.047   8.705   6.863  0.2460  0.2659 -0.4583
  442MOL0     C59576   0.027   8.559   6.897  0.4701  0.7236  0.0553
  442MOL0     C59577   0.073   8.469   6.785 -0.2667  0.4026 -0.6216
  442MOL0     C59578   0.062   8.328   6.834 -0.3576 -0.9192 -0.2564
  442MOL0     C59579   0.174   8.261   6.912 -0.5478  0.5701 -0.0545
  442MOL0    Cl59580   0.168   8.325   7.081 -0.3537  0.2465 -0.4947
  442MOL0     C59581   0.195   9.128   7.233  0.5351 -0.3570  0.7718
  442MOL0     C59582   0.253   9.201   7.330 -0.6636  0.2739  0.0646
  442MOL0     O59583   0.143   9.236   7.691  0.0472  0.3081 -0.8337
  442MOL0     C59584   0.318   9.570   7.665  0.6156 -0.8307 -0.0232
  442MOL0     C59585   0.385   9.674   7.735 -0.5487  0.3637  0.0070
  442MOL0     N59586   0.655  10.237   8.265 -0.6737  0.5426 -0.0493
  442MOL0     N59587   0.750  10.300   8.208  0.1817 -0.0185 -1.4759
  442MOL0     C59588   0.630   9.359   7.657  0.1861  0.4412 -0.1667
  442MOL0     C59589   0.563   9.239   7.643 -0.3358 -0.8495 -0.7115
  442MOL0     C59590   0.411   8.845   7.417 -1.0918  0.4432  0.7152
  442MOL0     C59591   0.287   8.860   7.479  0.1194  0.4562  0.1383
  442MOL0     C59592   0.191   8.756   7.466 -0.4431 -0.5688 -0.5947
  442MOL0     C59593   0.202   8.649   7.379  0.4922  0.3810 -0.1137
  442MOL0     O59594   0.100   8.552   7.353 -0.4978 -0.1023 -0.3225
  442MOL0     C59595  -0.010   8.527   7.443 -0.2154 -0.1422 -1.2616
  442MOL0     C59596  -0.087   8.404   7.401  0.4491 -0.2231  0.2238
  442MOL0     C59597  -0.166   8.425   7.274  0.2784  0.5267  0.4010
  442MOL0     C59598  -0.291   8.521   7.287  0.0055  0.0722  0.3732
  442MOL0     C59599  -0.371   8.516   7.170  0.3510 -0.3871  0.5734
  442MOL0     C59600  -0.437   8.528   7.075 -0.4092  0.4804 -0.2188
  442MOL0     C59601   0.331   8.637   7.310 -0.6304  0.3287  0.0247
  442MOL0     C59602   0.434   8.730   7.335 -0.5009 -0.9711  0.2677
  442MOL0     H59603   0.637   9.173   7.313 -0.9722 -0.8558  0.3160
  442MOL0     H59604   0.753   9.370   7.340  0.5644 -2.9145 -1.5250
  442MOL0     H59605   0.662   9.642   7.668  0.2151 -0.2852  1.5442
  442MOL0     H59606   0.789   9.578   7.778 -1.0416  0.0898  0.2065
  442MOL0     H59607   0.953   9.679   7.651 -0.1209  0.2359  1.3857
  442MOL0     H59608   0.847   9.767   7.545  1.0833  1.8376  0.9445
  442MOL0     H59609   0.796   9.926   7.700 -0.1315  0.3438 -0.0930
  442MOL0     H59610   0.791   9.814   7.843 -0.3277 -2.4238 -1.0488
  442MOL0     H59611   1.047   9.828   7.840 -3.1926 -2.3051 -0.7585
  442MOL0     H59612   1.033   9.947   7.710  1.7334 -0.0433  0.4688
  442MOL0     H59613   0.901   9.972   7.976 -0.6615 -1.4324 -0.4032
  442MOL0     H59614   1.064  10.044   7.939  0.0886 -2.0158  0.9610
  442MOL0     H59615   0.940  10.170   7.749  1.4236  0.2482  0.3793
  442MOL0     H59616   0.795  10.127   7.842  0.9530 -4.0424 -1.6266
  442MOL0     H59617   0.977  10.230   8.049 -0.0669  2.9954  0.7746
  442MOL0     H59618   1.006  10.322   7.893 -0.0855 -1.9289 -1.6182
  442MOL0     H59619   0.776  10.380   7.883 -1.6977 -1.8684  0.1497
  442MOL0     H59620   0.865  10.445   8.020 -1.9864 -1.0906  3.1180
  442MOL0     H59621   0.574  10.214   7.950  0.6482  2.3662 -0.8606
  442MOL0     H59622   0.421  10.098   8.288 -0.0738  0.7572 -0.2952
  442MOL0     H59623   0.361  10.217   8.158  0.7485  0.0983  1.4490
  442MOL0     H59624   0.445  10.061   7.992  1.5111 -0.7378 -0.4011
  442MOL0     H59625   0.327   9.971   8.098  0.9624 -1.4485  2.1068
  442MOL0     H59626   0.526   9.888   8.240 -0.1944 -1.3189 -0.4928
  442MOL0     H59627   0.620   9.912   8.104  0.6276 -2.3744  2.1676
  442MOL0     H59628   0.361   9.763   8.126 -0.5314 -0.4270  2.5523
  442MOL0     H59629   0.518   9.684   8.127  2.2951  1.1675 -1.1962
  442MOL0     H59630   0.294   9.564   8.048 -2.3577  1.5791  0.2106
  442MOL0     H59631   0.043   9.394   7.890  0.8438 -1.0704 -1.3632
  442MOL0     H59632   0.165   9.291   7.956 -3.7837 -1.0776  2.5542
  442MOL0     H59633   0.104   9.427   8.044  0.2581 -0.9344  0.1281
  442MOL0     H59634  -0.032   9.329   7.476  0.5151  0.7982  0.1413
  442MOL0     H59635  -0.138   9.194   7.291 -0.0972 -0.0591 -0.8957
  442MOL0     H59636   0.008   8.903   7.232  1.2650 -0.7174 -0.7818
  442MOL0     H59637  -0.157   8.963   7.201 -0.5844 -3.9662 -0.6159
  442MOL0     H59638  -0.118   8.753   7.072  3.3492 -1.9429 -0.6193
  442MOL0     H59639  -0.138   8.882   6.947  0.2745 -0.0301 -1.6578
  442MOL0     H59640   0.114   8.770   7.063 -1.9796 -1.2571  0.6090
  442MOL0     H59641   0.114   8.897   6.946 -3.7095  1.6943 -1.8383
  442MOL0     H59642  -0.028   8.742   6.792  0.2463 -0.1368 -0.6704
  442MOL0     H59643   0.137   8.716   6.802  0.1287  0.7618 -0.5509
  442MOL0     H59644  -0.079   8.536   6.913 -0.1883  2.4153 -1.5528
  442MOL0     H59645   0.077   8.537   6.992  1.6452  1.6905 -0.3273
  442MOL0     H59646   0.005   8.468   6.699 -2.0465 -0.1538  0.7185
  442MOL0     H59647   0.173   8.498   6.753  1.2544 -3.7443 -0.2393
  442MOL0     H59648   0.062   8.268   6.742  2.6886  1.3390 -1.9000
  442MOL0     H59649  -0.025   8.317   6.898 -0.1247  2.7335  0.9030
  442MOL0     H59650   0.273   8.281   6.870  0.5888 -2.1287  1.0734
  442MOL0     H59651   0.155   8.154   6.901  2.4879 -0.1936  1.0440
  442MOL0     H59652   0.247   9.063   7.163  0.9228  0.5238  0.2405
  442MOL0     H59653   0.362   9.202   7.338 -0.7501 -0.6320  2.2076
  442MOL0     H59654   0.329   9.581   7.558 -2.2846  0.0458 -0.3318
  442MOL0     H59655   0.429   9.753   7.673  0.9181 -1.2387 -1.0970
  442MOL0     H59656   0.623   9.412   7.752  0.7036  1.9447 -0.9452
  442MOL0     H59657   0.504   9.205   7.728  0.1702 -1.8172 -0.7345
  442MOL0     H59658   0.271   8.948   7.541  2.8059  0.9892  0.1835
  442MOL0     H59659   0.100   8.773   7.521 -0.8510 -0.5671 -1.2654
  442MOL0     H59660   0.028   8.493   7.539  0.5599 -0.4115 -1.6553
  442MOL0     H59661  -0.076   8.613   7.455  2.5096  1.6301  3.5220
  442MOL0     H59662  -0.155   8.378   7.483  1.3487 -2.0071  0.4494
  442MOL0     H59663  -0.018   8.319   7.395 -1.8353 -2.2363  0.6963
  442MOL0     H59664  -0.194   8.322   7.250 -0.7652  0.3663  2.0815
  442MOL0     H59665  -0.101   8.467   7.197 -0.0769  3.0895  1.4027
  442MOL0     H59666  -0.251   8.621   7.310 -0.7644  0.3521  0.5076
  442MOL0     H59667  -0.355   8.479   7.365  2.2675 -3.6160  0.4789
  442MOL0     H59668  -0.508   8.535   6.995  1.0701  3.2363 -1.4539
  442MOL0     H59669   0.333   8.562   7.231  0.0573 -0.8700  1.1566
  442MOL0     H59670   0.531   8.718   7.287 -0.2738  0.7835  0.2076
  443MOL0     O59671   0.679   9.979  11.221  0.5125  0.2778 -0.7916
  443MOL0     C59672   0.750   9.945  11.318 -1.2860  0.8296  0.0277
  443MOL0     O59673   0.739   9.831  11.389  0.3233 -0.1821 -0.6489
  443MOL0     C59674   0.641   9.737  11.365 -0.5390 -0.4345 -0.8141
  443MOL0     C59675   0.619   9.670  11.239  0.7133 -0.5453  0.7182
  443MOL0     C59676   0.516   9.580  11.240  0.6485  0.8407 -0.3193
  443MOL0     C59677   0.436   9.550  11.351 -0.0143 -0.0788  0.3708
  443MOL0     O59678   0.325   9.463  11.341  0.4103 -0.6946 -0.0016
  443MOL0     C59679   0.264   9.420  11.465 -0.2208 -0.4462  0.3480
  443MOL0     C59680   0.192   9.290  11.448  0.1273 -0.7546 -0.1833
  443MOL0     C59681   0.098   9.315  11.318 -0.4738 -0.2575  0.2656
  443MOL0     C59682   0.036   9.189  11.277  0.1933  0.0330 -0.1410
  443MOL0     C59683  -0.089   9.206  11.192 -0.1715  0.2738  0.1533
  443MOL0     C59684  -0.139   9.064  11.154 -0.0981 -0.8947 -0.1642
  443MOL0     C59685  -0.274   9.076  11.099  0.7359 -0.8384 -0.6697
  443MOL0     C59686  -0.360   8.950  11.091 -0.6327  0.3951 -0.3184
  443MOL0     N59687  -0.489   8.982  11.035  0.2439 -0.7595  0.7112
  443MOL0     C59688  -0.523   8.992  10.902  0.6975 -0.8957 -0.4132
  443MOL0     C59689  -0.653   9.025  10.897  0.3019  0.6745 -0.5994
  443MOL0     C59690  -0.739   9.051  10.783  0.8720  0.5103  0.4333
  443MOL0     C59691  -0.785   8.920  10.726  0.7588  0.2266 -0.1505
  443MOL0     C59692  -0.858   8.933  10.588  0.5272 -0.3854 -0.6799
  443MOL0     C59693  -1.007   8.951  10.605  0.4056 -0.6197 -0.0587
  443MOL0     O59694  -1.046   9.059  10.696 -0.9738  0.4181  0.7433
  443MOL0     C59695  -1.185   9.066  10.712  0.1622  0.3762  0.5441
  443MOL0     C59696  -1.237   9.169  10.787 -0.2124 -0.2680 -0.4152
  443MOL0     C59697  -1.371   9.187  10.809 -0.4272  0.0098 -0.2110
  443MOL0     C59698  -1.402   9.301  10.905 -0.9910 -0.7405  0.5733
  443MOL0     C59699  -1.465   9.101  10.761  0.0822  0.0881  0.8328
  443MOL0     C59700  -1.607   9.119  10.783  0.2815 -0.7403  0.0407
  443MOL0     O59701  -1.683   9.010  10.800 -0.7650  0.5732 -0.2139
  443MOL0     C59702  -1.819   9.000  10.797  0.2042 -0.3383  0.3224
  443MOL0     C59703  -1.894   9.073  10.703  0.1485  0.7295  0.3874
  443MOL0     C59704  -2.026   9.057  10.689  0.1111  0.9516  0.0925
  443MOL0     C59705  -2.091   8.951  10.769 -0.4342 -0.1928  0.1916
  443MOL0     O59706  -2.227   8.955  10.758  0.5070 -0.1161  0.0706
  443MOL0     C59707  -2.294   8.998  10.875 -0.6021  0.9536  0.2616
  443MOL0     C59708  -2.389   9.104  10.831 -0.0780  0.2053  0.1576
  443MOL0     C59709  -2.507   9.066  10.736 -1.2265  0.0897  0.1621
  443MOL0     C59710  -2.605   8.969  10.813 -0.9286  1.0586  0.0480
  443MOL0     C59711  -2.722   8.928  10.711  0.1317  0.8965 -1.0713
  443MOL0     C59712  -2.815   8.835  10.793  0.6588  0.5246  0.8886
  443MOL0     C59713  -2.937   8.789  10.715 -0.3148 -0.1106 -1.1736
  443MOL0     C59714  -3.049   8.731  10.808 -0.2879  0.0317  1.5502
  443MOL0    Cl59715  -2.987   8.612  10.920  0.0377 -0.3870  0.0286
  443MOL0     C59716  -2.017   8.881  10.869  0.5071 -0.4344 -0.5740
  443MOL0     C59717  -1.880   8.905  10.876  0.1231 -0.2971  0.4253
  443MOL0     O59718  -1.652   9.228  10.778  0.3578  0.5597 -0.4575
  443MOL0     C59719  -1.417   8.988  10.697 -0.1765 -0.0304 -0.5880
  443MOL0     C59720  -1.278   8.980  10.653  0.9464  0.7237 -0.4340
  443MOL0     N59721  -0.690   9.019  11.034  0.2433  0.4895  0.2192
  443MOL0     N59722  -0.594   8.999  11.115 -0.5864 -0.1961  0.3911
  443MOL0     C59723   0.462   9.617  11.470 -1.1534 -0.3748 -0.4950
  443MOL0     C59724   0.569   9.700  11.476 -0.5986 -0.4359 -0.1269
  443MOL0     C59725   0.873  10.025  11.357  0.5784 -0.0396  0.0985
  443MOL0     C59726   0.891  10.158  11.320 -1.3650 -0.0300  0.1772
  443MOL0     C59727   1.010  10.232  11.341  0.4259 -0.7685 -0.7621
  443MOL0     C59728   1.117  10.177  11.411  0.0762  1.3355 -0.1129
  443MOL0     O59729   1.232  10.243  11.442  0.4233  0.1331  0.2016
  443MOL0     C59730   1.276  10.345  11.349 -0.7967 -0.3563 -0.5251
  443MOL0     C59731   1.421  10.401  11.372  0.3045  0.3718 -0.5662
  443MOL0     C59732   1.477  10.496  11.270 -0.4632  0.0647  0.3131
  443MOL0     C59733   1.464  10.451  11.122  0.1905  0.0876 -0.3149
  443MOL0     C59734   1.542  10.332  11.101 -0.2082 -0.5036 -0.2972
  443MOL0     C59735   1.604  10.226  11.104 -0.2150 -0.0628 -0.4565
  443MOL0     C59736   1.099  10.043  11.462  0.9952 -0.7290  0.3257
  443MOL0     C59737   0.979   9.966  11.438  0.2548 -0.6216  0.0819
  443MOL0     H59738   0.679   9.685  11.149 -0.9300 -0.4937 -0.4060
  443MOL0     H59739   0.501   9.532  11.143  1.5642 -0.6728  0.2505
  443MOL0     H59740   0.339   9.401  11.543 -0.8819 -0.3555  1.0203
  443MOL0     H59741   0.207   9.503  11.506  0.5137  0.1685  0.1494
  443MOL0     H59742   0.268   9.214  11.430 -0.1714 -0.5794 -2.5336
  443MOL0     H59743   0.133   9.257  11.534  2.5462 -1.7382  1.1770
  443MOL0     H59744   0.023   9.390  11.345 -1.4821 -0.9874 -0.4527
  443MOL0     H59745   0.160   9.353  11.236  2.7760 -0.4351  2.4271
  443MOL0     H59746   0.104   9.127  11.217 -0.4642  2.1644 -3.3567
  443MOL0     H59747   0.009   9.126  11.362 -2.2584 -1.9323 -2.1871
  443MOL0     H59748  -0.157   9.250  11.266  1.5283  1.1455  1.2622
  443MOL0     H59749  -0.076   9.282  11.115  0.2854  2.4379  2.2381
  443MOL0     H59750  -0.075   9.021  11.076 -1.9858 -1.9691 -1.1824
  443MOL0     H59751  -0.144   9.005  11.246 -1.6223 -0.4896  0.0389
  443MOL0     H59752  -0.328   9.152  11.158  0.4706  1.2169 -3.3665
  443MOL0     H59753  -0.257   9.125  11.003  0.0778  1.0547  0.1087
  443MOL0     H59754  -0.376   8.898  11.185 -1.8948  0.5670 -0.4271
  443MOL0     H59755  -0.313   8.873  11.029  0.7779  0.0395  1.1369
  443MOL0     H59756  -0.465   8.997  10.810  1.8789 -2.5506  0.1967
  443MOL0     H59757  -0.810   9.128  10.818  2.2101  2.7197 -1.3935
  443MOL0     H59758  -0.679   9.096  10.703 -1.3028  1.5581 -0.7253
  443MOL0     H59759  -0.856   8.868  10.792  1.0813  0.9336  0.7681
  443MOL0     H59760  -0.698   8.855  10.713 -0.1193 -1.6582  2.4845
  443MOL0     H59761  -0.845   8.841  10.529 -0.5405 -0.2910 -1.0890
  443MOL0     H59762  -0.810   9.014  10.533  1.1845 -1.5938 -1.9724
  443MOL0     H59763  -1.046   8.862  10.654  1.2828  0.3091  2.5099
  443MOL0     H59764  -1.047   8.961  10.503  2.0063 -2.0616 -0.8771
  443MOL0     H59765  -1.164   9.242  10.819 -0.2275 -0.2134 -0.5063
  443MOL0     H59766  -1.418   9.389  10.842  0.8100 -1.2944 -0.7596
  443MOL0     H59767  -1.496   9.284  10.958 -2.9024  2.1044 -1.5771
  443MOL0     H59768  -1.321   9.314  10.977 -1.8918 -0.4607  1.5653
  443MOL0     H59769  -1.858   9.151  10.636  0.6384 -0.1994 -0.4590
  443MOL0     H59770  -2.082   9.114  10.615  3.0729  2.7139 -0.9493
  443MOL0     H59771  -2.353   8.912  10.907 -0.6722  0.3217 -1.4343
  443MOL0     H59772  -2.222   9.028  10.952  2.7586 -0.7551 -1.9568
  443MOL0     H59773  -2.432   9.143  10.924 -0.3299  2.1800 -0.7403
  443MOL0     H59774  -2.336   9.184  10.778 -0.3852  1.2272  1.3462
  443MOL0     H59775  -2.478   9.016  10.642 -0.5375  1.6661 -0.4997
  443MOL0     H59776  -2.551   9.159  10.699 -0.4645  1.6784  3.0025
  443MOL0     H59777  -2.554   8.874  10.832 -0.4790  1.3697  0.4202
  443MOL0     H59778  -2.648   9.017  10.901 -3.4033  1.2953 -1.2018
  443MOL0     H59779  -2.687   8.876  10.621 -1.0244  0.6071 -1.3628
  443MOL0     H59780  -2.767   9.023  10.682 -0.9220  1.4566  2.0706
  443MOL0     H59781  -2.765   8.753  10.845  0.6819  1.1183  1.8258
  443MOL0     H59782  -2.848   8.899  10.876 -1.6442  1.2036 -0.4637
  443MOL0     H59783  -2.908   8.716  10.638 -1.8359 -0.0046 -1.8804
  443MOL0     H59784  -2.977   8.879  10.668  0.4326  1.3024  0.7588
  443MOL0     H59785  -3.117   8.684  10.736 -0.8978  1.5417  1.0810
  443MOL0     H59786  -3.102   8.813  10.857  0.3617 -1.0670  4.2509
  443MOL0     H59787  -2.057   8.825  10.953 -3.1588  1.0611 -1.1702
  443MOL0     H59788  -1.821   8.859  10.955 -0.4787 -0.3064  0.8808
  443MOL0     H59789  -1.481   8.904  10.672 -0.8969 -0.6090  2.7110
  443MOL0     H59790  -1.244   8.892  10.600  0.7443 -0.6507  1.6044
  443MOL0     H59791   0.415   9.588  11.564 -1.5757  1.9342  0.0595
  443MOL0     H59792   0.597   9.744  11.571  0.9282 -0.6219 -0.4584
  443MOL0     H59793   0.813  10.207  11.261 -0.8796 -0.7859 -1.1471
  443MOL0     H59794   1.025  10.333  11.305 -2.1682 -0.1849 -0.4192
  443MOL0     H59795   1.260  10.319  11.244 -2.4202 -1.3731 -0.0545
  443MOL0     H59796   1.218  10.437  11.362 -1.6660 -0.9142 -0.3592
  443MOL0     H59797   1.472  10.305  11.385 -1.4683 -0.3932  1.4252
  443MOL0     H59798   1.429  10.448  11.470 -0.9784  0.1856 -0.3541
  443MOL0     H59799   1.583  10.518  11.288 -0.5264  1.5731 -0.9324
  443MOL0     H59800   1.427  10.592  11.285  2.7604  1.4667  3.9163
  443MOL0     H59801   1.502  10.530  11.057  3.7554  0.6469  2.1157
  443MOL0     H59802   1.362  10.433  11.087 -0.7588  1.7422  1.3987
  443MOL0     H59803   1.654  10.132  11.116  0.5919  0.1299 -2.0828
  443MOL0     H59804   1.185  10.000  11.511  0.1660 -1.6359  1.0216
  443MOL0     H59805   0.977   9.864  11.473 -1.0473 -0.5152  0.3694
  444MOL0     O59806   0.447   6.533   0.910 -0.1753 -0.0665 -0.2424
  444MOL0     C59807   0.563   6.504   0.918 -0.2152  0.5750 -0.1351
  444MOL0     O59808   0.649   6.509   0.821  0.1884  0.2195 -0.9833
  444MOL0     C59809   0.609   6.511   0.690  0.1656 -0.0378 -0.7703
  444MOL0     C59810   0.570   6.636   0.631  0.2955  0.0468 -0.4179
  444MOL0     C59811   0.537   6.662   0.504  0.2712  0.3644  0.1086
  444MOL0     C59812   0.544   6.547   0.424 -0.8707  0.8162 -0.1942
  444MOL0     O59813   0.504   6.568   0.291 -0.3307  0.6985  0.1553
  444MOL0     C59814   0.374   6.616   0.259  0.0621  0.8269  0.3442
  444MOL0     C59815   0.350   6.563   0.120  0.3021 -0.2577 -0.8972
  444MOL0     C59816   0.226   6.633   0.060  1.1771  0.2981  0.2474
  444MOL0     C59817   0.170   6.540  -0.045 -0.1070  0.6066  0.1394
  444MOL0     C59818   0.056   6.596  -0.119  0.1728 -0.4463  0.6646
  444MOL0     C59819   0.089   6.669  -0.253 -0.4017 -0.5852  0.4439
  444MOL0     C59820   0.157   6.586  -0.358  0.2799  0.0538  0.6960
  444MOL0     C59821   0.094   6.454  -0.396  0.1646  0.4280  0.5349
  444MOL0     N59822   0.160   6.394  -0.516  1.0218  0.4359  0.2476
  444MOL0     C59823   0.287   6.341  -0.515 -0.1230  0.8535 -0.6121
  444MOL0     C59824   0.312   6.322  -0.648  0.7141  1.1941 -0.1198
  444MOL0     C59825   0.429   6.287  -0.725 -0.0317 -0.2954  0.5878
  444MOL0     C59826   0.481   6.147  -0.724  0.0231  0.5755  0.9091
  444MOL0     C59827   0.594   6.119  -0.822 -0.1198 -0.1656  0.3654
  444MOL0     C59828   0.641   5.977  -0.788 -0.7430 -1.4532 -0.2890
  444MOL0     O59829   0.725   5.992  -0.671 -1.0307 -0.6410 -0.7005
  444MOL0     C59830   0.832   5.905  -0.662  0.5118 -0.4598 -0.6989
  444MOL0     C59831   0.816   5.764  -0.668  0.5439 -0.2318  0.1931
  444MOL0     C59832   0.918   5.675  -0.646  0.3055 -0.1139 -0.2977
  444MOL0     C59833   0.906   5.520  -0.666 -0.0573 -0.8003  0.0183
  444MOL0     C59834   1.044   5.727  -0.595 -0.4271 -0.2064  0.0612
  444MOL0     C59835   1.144   5.636  -0.526 -0.3735 -0.2309  0.3958
  444MOL0     O59836   1.092   5.550  -0.439  0.4372 -0.0691  0.2915
  444MOL0     C59837   1.180   5.452  -0.384  0.1362  0.2980 -0.5260
  444MOL0     C59838   1.274   5.381  -0.457  0.9004  0.9814 -0.0737
  444MOL0     C59839   1.356   5.290  -0.387 -0.2157 -0.6297  0.0380
  444MOL0     C59840   1.347   5.261  -0.252  0.2374  0.1328 -0.5812
  444MOL0     O59841   1.452   5.184  -0.199 -0.0715 -0.4290  0.0519
  444MOL0     C59842   1.479   5.171  -0.056  0.6575 -0.0265 -0.8441
  444MOL0     C59843   1.593   5.061  -0.019 -0.1826 -0.0626 -0.2545
  444MOL0     C59844   1.713   5.079  -0.113 -0.9825  0.5795  1.0515
  444MOL0     C59845   1.838   4.996  -0.058  0.2852 -0.5381  0.7536
  444MOL0     C59846   1.960   4.991  -0.149  0.8304 -0.2410 -0.3174
  444MOL0     C59847   2.007   5.130  -0.168  0.9277 -0.1766 -0.4421
  444MOL0     C59848   2.147   5.147  -0.234 -0.3457  0.0036 -0.9297
  444MOL0     C59849   2.178   5.293  -0.206 -0.0613  0.4424  0.5493
  444MOL0    Cl59850   2.269   5.294  -0.056  0.2626 -0.0322 -0.0791
  444MOL0     C59851   1.248   5.325  -0.183  0.8712  0.1463 -0.4363
  444MOL0     C59852   1.172   5.422  -0.251  0.0310 -1.3991 -0.5380
  444MOL0     O59853   1.262   5.653  -0.554  0.3609  0.6298 -0.1527
  444MOL0     C59854   1.066   5.870  -0.591  0.7305  0.7235  0.0277
  444MOL0     C59855   0.950   5.946  -0.615  0.5013  0.2646  0.0014
  444MOL0     N59856   0.194   6.339  -0.716  0.4436 -0.2105 -0.0517
  444MOL0     N59857   0.103   6.379  -0.639 -0.1427  0.4635 -0.1990
  444MOL0     C59858   0.573   6.417   0.472  1.1310  0.7900 -0.6000
  444MOL0     C59859   0.613   6.403   0.606  0.2757  0.2848 -0.0911
  444MOL0     C59860   0.616   6.469   1.056 -0.3582  0.8539  0.6719
  444MOL0     C59861   0.755   6.453   1.061  0.6018 -0.4567  0.2012
  444MOL0     C59862   0.816   6.413   1.170  0.2719  0.8137  0.3649
  444MOL0     C59863   0.742   6.377   1.284  0.7922  0.7240  0.5757
  444MOL0     O59864   0.804   6.312   1.389  0.1876  0.0412  0.0761
  444MOL0     C59865   0.789   6.383   1.513 -0.3878 -0.3336 -0.0079
  444MOL0     C59866   0.867   6.507   1.500  0.0803 -1.4822  0.7441
  444MOL0     C59867   0.900   6.572   1.635  0.1769  0.3532 -0.1948
  444MOL0     C59868   1.011   6.498   1.710 -0.2580 -0.0527  0.4670
  444MOL0     C59869   1.025   6.562   1.844 -0.3256 -0.1861  1.0212
  444MOL0     C59870   1.036   6.611   1.954 -0.0676  1.0412  0.1509
  444MOL0     C59871   0.600   6.390   1.284  0.6629  0.6014  0.4762
  444MOL0     C59872   0.536   6.437   1.167 -0.3956  0.7080 -0.1263
  444MOL0     H59873   0.597   6.716   0.700  0.9671 -1.5578  1.2852
  444MOL0     H59874   0.526   6.757   0.453  0.0910 -0.4817 -1.5058
  444MOL0     H59875   0.306   6.574   0.333  2.4088  2.4532  3.6580
  444MOL0     H59876   0.363   6.724   0.275  1.9718  0.7339  2.7311
  444MOL0     H59877   0.436   6.585   0.057 -2.0643 -0.7807 -4.5949
  444MOL0     H59878   0.335   6.455   0.127 -1.6286 -0.0148 -0.7567
  444MOL0     H59879   0.149   6.665   0.131 -0.7439  0.2873 -1.7194
  444MOL0     H59880   0.248   6.727   0.009 -0.3656 -1.6109 -4.4398
  444MOL0     H59881   0.247   6.504  -0.114 -1.5039 -2.3109 -0.0404
  444MOL0     H59882   0.130   6.455   0.010  0.5012  0.6163  0.6108
  444MOL0     H59883  -0.014   6.520  -0.154  0.4022 -0.2957 -0.1383
  444MOL0     H59884   0.005   6.669  -0.056 -0.8033  0.0064 -0.6118
  444MOL0     H59885   0.002   6.722  -0.293  1.2441  1.9051 -0.0568
  444MOL0     H59886   0.160   6.747  -0.225 -0.3908 -1.5774  3.5857
  444MOL0     H59887   0.151   6.645  -0.450  2.5584 -0.2093  0.3405
  444MOL0     H59888   0.263   6.574  -0.338  0.5479  3.8246  2.4554
  444MOL0     H59889  -0.012   6.462  -0.422  0.4911 -1.2942 -1.6667
  444MOL0     H59890   0.100   6.385  -0.311 -0.7741  1.1096  1.1727
  444MOL0     H59891   0.352   6.348  -0.429  0.9195  1.0024 -1.3854
  444MOL0     H59892   0.405   6.314  -0.828 -2.2618  2.5780  1.7334
  444MOL0     H59893   0.508   6.343  -0.675  0.1425 -0.7581  0.8413
  444MOL0     H59894   0.395   6.080  -0.738  1.2871 -1.1688  1.0620
  444MOL0     H59895   0.522   6.118  -0.627 -0.9590 -2.6193  0.5096
  444MOL0     H59896   0.684   6.181  -0.817 -1.0159  1.1354  1.0546
  444MOL0     H59897   0.550   6.113  -0.922 -0.8375 -4.5323  0.7395
  444MOL0     H59898   0.694   5.937  -0.875 -0.9287  0.2234 -1.2050
  444MOL0     H59899   0.556   5.912  -0.763  0.8380 -2.8974  1.8095
  444MOL0     H59900   0.723   5.716  -0.700 -0.0012  1.3411 -0.6754
  444MOL0     H59901   1.007   5.491  -0.699 -1.4289 -3.7867 -2.0181
  444MOL0     H59902   0.878   5.466  -0.576 -2.1513 -0.7498 -0.5462
  444MOL0     H59903   0.833   5.499  -0.744  0.4174  0.7930 -0.9192
  444MOL0     H59904   1.296   5.408  -0.560  1.7552  5.6412  1.0879
  444MOL0     H59905   1.432   5.249  -0.454  1.6685  2.0939  0.3566
  444MOL0     H59906   1.513   5.266  -0.015 -0.5146 -0.0710  0.2936
  444MOL0     H59907   1.391   5.146   0.004  0.6011 -0.5053 -1.1171
  444MOL0     H59908   1.627   5.073   0.084 -0.3100  4.0220 -0.5160
  444MOL0     H59909   1.551   4.960  -0.022 -0.5465  0.0789  0.0296
  444MOL0     H59910   1.737   5.186  -0.104  0.3540  0.5175 -1.1215
  444MOL0     H59911   1.700   5.052  -0.218  0.9417 -2.0945  1.3943
  444MOL0     H59912   1.864   5.033   0.042  3.7258  3.4652 -1.3093
  444MOL0     H59913   1.791   4.898  -0.044 -1.0072 -0.1626 -0.7730
  444MOL0     H59914   1.936   4.942  -0.244  0.8693 -2.5817  0.7989
  444MOL0     H59915   2.038   4.933  -0.098 -0.4005 -2.9903 -1.3708
  444MOL0     H59916   1.935   5.188  -0.226 -0.4896 -0.1691  1.2279
  444MOL0     H59917   2.010   5.175  -0.068  1.4447  0.3347 -0.6794
  444MOL0     H59918   2.135   5.128  -0.341  0.6170 -1.3838 -0.8047
  444MOL0     H59919   2.225   5.079  -0.198  0.2691  0.8556 -0.6141
  444MOL0     H59920   2.084   5.350  -0.200 -0.8349 -0.7852  0.4716
  444MOL0     H59921   2.237   5.333  -0.289 -0.6660 -3.9547 -2.3434
  444MOL0     H59922   1.222   5.301  -0.080 -1.3475 -2.0680 -1.3952
  444MOL0     H59923   1.094   5.479  -0.202 -0.3374  0.0368 -2.6216
  444MOL0     H59924   1.162   5.906  -0.555  0.8126  2.0166 -1.4020
  444MOL0     H59925   0.949   6.053  -0.594 -0.0385  0.0681  1.0061
  444MOL0     H59926   0.555   6.335   0.403  1.9959  0.0535  0.0227
  444MOL0     H59927   0.647   6.311   0.651 -1.4891  0.1408  1.0741
  444MOL0     H59928   0.823   6.484   0.983  1.4765 -0.4478  0.9546
  444MOL0     H59929   0.924   6.399   1.176  0.0829 -1.5580 -0.6966
  444MOL0     H59930   0.683   6.399   1.534 -0.0983  2.9082 -0.4542
  444MOL0     H59931   0.838   6.306   1.573 -2.3937 -4.0885 -2.7562
  444MOL0     H59932   0.816   6.580   1.436  3.6510 -1.8973 -3.0416
  444MOL0     H59933   0.961   6.494   1.445  1.2073  0.7090  2.0089
  444MOL0     H59934   0.809   6.572   1.695 -0.4130  1.2358 -1.0638
  444MOL0     H59935   0.924   6.677   1.619 -0.8200  0.8750  1.4598
  444MOL0     H59936   1.103   6.497   1.652 -0.8637  3.1547 -0.7618
  444MOL0     H59937   0.993   6.390   1.720 -0.1605  0.1029  2.9297
  444MOL0     H59938   1.042   6.635   2.058 -0.4292  0.3965  0.3262
  444MOL0     H59939   0.555   6.361   1.378 -1.5182  0.2355 -0.6015
  444MOL0     H59940   0.428   6.431   1.166 -0.2946 -2.6421 -0.4478
  445MOL0     O59941   5.640   0.890   9.630  0.1430  0.5768  0.4532
  445MOL0     C59942   5.602   0.996   9.585  0.1043  0.5858  0.2053
  445MOL0     O59943   5.628   1.121   9.637 -0.3774  0.3190  0.4148
  445MOL0     C59944   5.705   1.115   9.756  0.0292  0.2183  0.2028
  445MOL0     C59945   5.844   1.120   9.749 -0.7260  0.3026  0.9701
  445MOL0     C59946   5.930   1.117   9.861 -0.5336 -0.2443 -0.4273
  445MOL0     C59947   5.875   1.129   9.990  0.0687  0.0994  0.3142
  445MOL0     O59948   5.961   1.139  10.099 -0.2698  0.6901  1.2027
  445MOL0     C59949   5.970   1.260  10.176 -0.0228 -0.2049 -0.1073
  445MOL0     C59950   6.027   1.379  10.097  0.3318  0.2715 -0.4037
  445MOL0     C59951   6.170   1.359  10.042 -0.1792 -0.7192 -0.0662
  445MOL0     C59952   6.248   1.489  10.045 -0.3716  1.1011  0.3102
  445MOL0     C59953   6.308   1.514  10.187  0.1235 -0.3398 -0.6044
  445MOL0     C59954   6.434   1.432  10.209 -0.3627 -0.1939  0.9084
  445MOL0     C59955   6.498   1.444  10.346 -0.0125  0.1299 -0.4220
  445MOL0     C59956   6.411   1.383  10.464 -0.5428  0.8293 -0.7700
  445MOL0     N59957   6.397   1.235  10.442  0.1874  1.0521  0.3977
  445MOL0     C59958   6.499   1.143  10.467  0.5534 -0.7040 -0.8247
  445MOL0     C59959   6.428   1.033  10.463 -0.4712  0.9042 -0.2299
  445MOL0     C59960   6.502   0.894  10.500 -0.0401 -0.3341  0.0189
  445MOL0     C59961   6.624   0.869  10.396  0.9746  0.6832 -0.2025
  445MOL0     C59962   6.585   0.841  10.250  0.1577 -0.4430 -0.2462
  445MOL0     C59963   6.612   0.957  10.159 -0.6823 -0.6261  0.0121
  445MOL0     O59964   6.754   0.989  10.149  0.2449 -0.0282 -0.6080
  445MOL0     C59965   6.787   1.096  10.065 -0.1316  0.2546 -0.8361
  445MOL0     C59966   6.711   1.208  10.032  0.6815 -0.8026 -0.5475
  445MOL0     C59967   6.771   1.314   9.958  0.1276 -0.2617  0.2613
  445MOL0     C59968   6.673   1.421   9.907  0.1432  0.3293  0.4790
  445MOL0     C59969   6.904   1.323   9.923 -0.0569  0.5095 -0.3513
  445MOL0     C59970   6.977   1.439   9.863  0.1740 -0.3785 -0.4517
  445MOL0     O59971   7.119   1.418   9.856 -0.2860  0.0773  0.0486
  445MOL0     C59972   7.208   1.524   9.833  0.7785 -0.0827  0.1347
  445MOL0     C59973   7.312   1.495   9.754  0.3369 -0.0713  0.3490
  445MOL0     C59974   7.425   1.588   9.745  0.3994  0.6460  0.2406
  445MOL0     C59975   7.421   1.711   9.811  0.3734 -0.5036 -0.3679
  445MOL0     O59976   7.526   1.805   9.819  0.0444 -0.1906  0.1260
  445MOL0     C59977   7.659   1.755   9.811 -0.1078 -0.1111 -0.4896
  445MOL0     C59978   7.689   1.636   9.902 -0.2165  0.8562 -0.3038
  445MOL0     C59979   7.849   1.613   9.877  0.8701 -0.1812 -0.4885
  445MOL0     C59980   7.899   1.551  10.013 -0.8781 -0.1685 -0.1944
  445MOL0     C59981   7.831   1.424  10.061 -0.0927 -0.8832  0.3891
  445MOL0     C59982   7.782   1.435  10.205 -0.7421 -0.3172  0.0124
  445MOL0     C59983   7.742   1.298  10.257 -0.0519  0.2864  0.1321
  445MOL0     C59984   7.649   1.320  10.376  0.0873 -0.2709  0.1313
  445MOL0    Cl59985   7.648   1.168  10.465 -0.8433 -0.1236 -0.1696
  445MOL0     C59986   7.311   1.741   9.892  0.0001 -0.2483 -0.1690
  445MOL0     C59987   7.199   1.649   9.899 -0.5483 -0.3668 -0.3975
  445MOL0     O59988   6.922   1.536   9.816  0.0594  0.4751 -0.8400
  445MOL0     C59989   6.971   1.207   9.954 -0.1446  0.5332 -0.9106
  445MOL0     C59990   6.918   1.099  10.024 -0.8754 -0.0280  0.0751
  445MOL0     N59991   6.294   1.042  10.434 -0.5555 -0.0563  0.1888
  445MOL0     N59992   6.278   1.169  10.423  0.1086 -0.4473 -0.7430
  445MOL0     C59993   5.732   1.145  10.000 -0.3400  0.5658  0.6993
  445MOL0     C59994   5.652   1.137   9.884 -0.3416  0.2854  0.2515
  445MOL0     C59995   5.507   0.987   9.469 -0.1824 -0.2068 -0.3786
  445MOL0     C59996   5.463   0.864   9.417 -0.6859 -0.3187 -0.6085
  445MOL0     C59997   5.386   0.870   9.300  0.4065 -0.1394 -0.1204
  445MOL0     C59998   5.371   0.983   9.224  0.3938 -0.1300 -1.3279
  445MOL0     O59999   5.302   0.992   9.100  0.7870 -1.2827  0.4335
  445MOL0     C60000   5.251   0.879   9.016 -0.5705  0.5059 -0.4552
  445MOL0     C60001   5.111   0.821   9.057 -0.1302  0.2843  0.0053
  445MOL0     C60002   5.006   0.919   9.084 -0.6915  1.0260  0.6507
  445MOL0     C60003   4.885   0.852   9.128  1.3325  0.1986 -0.2875
  445MOL0     C60004   4.764   0.934   9.143 -0.7176  0.6891 -0.1052
  445MOL0     C60005   4.680   1.014   9.164  0.9614  0.8012 -0.2123
  445MOL0     C60006   5.396   1.108   9.281  0.6902 -0.5901  0.4667
  445MOL0     C60007   5.459   1.113   9.412  0.6585  0.4217  0.2150
  445MOL0     H60008   5.887   1.127   9.650 -0.7471 -2.6055  0.6851
  445MOL0     H60009   6.038   1.119   9.857 -0.4497  0.4458  1.3080
  445MOL0     H60010   5.876   1.295  10.219  1.0386  1.0525  1.2854
  445MOL0     H60011   6.041   1.249  10.258 -2.9460  0.4619  2.6773
  445MOL0     H60012   5.955   1.410  10.021  1.0173  2.7136 -0.1637
  445MOL0     H60013   6.014   1.452  10.178  1.8400  1.2882 -1.0267
  445MOL0     H60014   6.222   1.295  10.114  1.7311  1.6381  0.8216
  445MOL0     H60015   6.168   1.320   9.940 -2.1320 -1.1551  0.1106
  445MOL0     H60016   6.333   1.476   9.978 -0.2089  0.1398  0.6856
  445MOL0     H60017   6.188   1.567   9.997 -1.5100 -0.3435 -0.7425
  445MOL0     H60018   6.333   1.620  10.196 -0.4727 -0.3284  1.2369
  445MOL0     H60019   6.236   1.487  10.264 -1.3784  0.2372 -1.7612
  445MOL0     H60020   6.418   1.327  10.182 -5.6563  0.1474  1.5279
  445MOL0     H60021   6.506   1.477  10.141  0.6901  1.3089  2.9246
  445MOL0     H60022   6.585   1.380  10.333 -1.5274 -2.4422  1.2678
  445MOL0     H60023   6.525   1.550  10.356  4.7640 -0.9571  0.7053
  445MOL0     H60024   6.308   1.420  10.473 -0.2101  1.2642  2.3994
  445MOL0     H60025   6.466   1.382  10.559 -1.2785 -3.8896 -0.1525
  445MOL0     H60026   6.596   1.161  10.513  1.6660 -1.6450 -2.6611
  445MOL0     H60027   6.529   0.894  10.606 -1.9070  0.8290  0.5425
  445MOL0     H60028   6.426   0.815  10.488  0.5520 -0.7871 -0.8802
  445MOL0     H60029   6.647   0.773  10.443 -2.9385  0.7445  2.3159
  445MOL0     H60030   6.711   0.933  10.407  2.3062 -1.4159  2.8908
  445MOL0     H60031   6.479   0.815  10.242  0.2363 -0.4637 -1.3168
  445MOL0     H60032   6.637   0.752  10.213  0.6555 -1.3761  2.4561
  445MOL0     H60033   6.569   1.044  10.209  0.9545 -0.2164  0.7731
  445MOL0     H60034   6.569   0.942  10.060  0.5598  3.2274 -1.3047
  445MOL0     H60035   6.605   1.205  10.051  0.2745  1.4777 -2.0180
  445MOL0     H60036   6.677   1.438   9.799 -1.5084 -0.1208  0.3232
  445MOL0     H60037   6.571   1.392   9.934 -0.0543  1.1414  0.6447
  445MOL0     H60038   6.684   1.514   9.964  3.5902  0.7662 -0.7051
  445MOL0     H60039   7.331   1.402   9.701 -0.6360  1.1926 -2.4057
  445MOL0     H60040   7.509   1.558   9.682  0.5590  1.6191 -0.0370
  445MOL0     H60041   7.681   1.721   9.709 -0.0816 -2.2541  0.1999
  445MOL0     H60042   7.721   1.844   9.829 -2.0714  1.1557  0.3968
  445MOL0     H60043   7.653   1.671   9.999 -2.3400  1.1334 -1.1333
  445MOL0     H60044   7.640   1.541   9.879  1.7041 -1.3140  3.6715
  445MOL0     H60045   7.901   1.708   9.863  1.5260 -0.2648  1.2182
  445MOL0     H60046   7.872   1.556   9.786  1.6391 -0.5208 -0.0864
  445MOL0     H60047   8.007   1.535   9.999 -0.5984  1.2303  0.2335
  445MOL0     H60048   7.895   1.634  10.084 -0.3599 -0.2505 -0.0676
  445MOL0     H60049   7.909   1.347  10.060  0.7787 -0.0871 -2.1248
  445MOL0     H60050   7.746   1.400   9.997  0.3302 -0.3285 -0.4079
  445MOL0     H60051   7.868   1.465  10.265 -1.2510  0.6157  0.2898
  445MOL0     H60052   7.701   1.508  10.208 -0.4602  0.1239 -1.7286
  445MOL0     H60053   7.833   1.247  10.291  0.9072  1.3890 -0.7032
  445MOL0     H60054   7.686   1.248  10.178 -1.8960  2.2827  0.0863
  445MOL0     H60055   7.544   1.327  10.349  0.3978 -2.7174 -2.0791
  445MOL0     H60056   7.693   1.384  10.453  4.3252 -2.1145 -0.4469
  445MOL0     H60057   7.304   1.838   9.940 -1.0511 -1.2628  1.8687
  445MOL0     H60058   7.126   1.670   9.977 -2.8536  1.2485 -2.8071
  445MOL0     H60059   7.077   1.207   9.932 -0.0125 -0.9329 -0.3611
  445MOL0     H60060   6.988   1.021  10.051  0.2724  0.4888 -1.2762
  445MOL0     H60061   5.677   1.153  10.093 -1.1105 -0.2879  0.3275
  445MOL0     H60062   5.550   1.176   9.874  0.0801  2.0075  1.9770
  445MOL0     H60063   5.495   0.766   9.451  3.6365  1.1756  0.2285
  445MOL0     H60064   5.352   0.774   9.262  0.5934  0.0601 -0.8047
  445MOL0     H60065   5.257   0.913   8.912  4.1084 -2.4505 -1.4869
  445MOL0     H60066   5.316   0.791   9.023 -2.3287 -0.7143  2.2848
  445MOL0     H60067   5.134   0.768   9.150 -1.4455  1.4342  1.0379
  445MOL0     H60068   5.082   0.756   8.975 -1.1168  1.3016 -0.4803
  445MOL0     H60069   4.981   0.956   8.984 -2.1919 -1.9718 -0.2039
  445MOL0     H60070   5.026   1.005   9.147 -1.5141 -0.8758  3.7429
  445MOL0     H60071   4.898   0.822   9.233 -1.7806 -0.2312  0.0772
  445MOL0     H60072   4.864   0.764   9.066  1.0386 -0.1267  0.2638
  445MOL0     H60073   4.607   1.092   9.176  1.0138  1.0164 -1.1780
  445MOL0     H60074   5.358   1.200   9.238  1.6902  0.2094  1.2595
  445MOL0     H60075   5.501   1.202   9.457 -1.0055  1.3418 -0.0032
  446MOL0     O60076   2.367   1.213   2.692 -0.8268  0.3205 -0.0078
  446MOL0     C60077   2.356   1.307   2.614  0.2954 -0.1897  0.5094
  446MOL0     O60078   2.286   1.301   2.495 -0.4967  0.0338 -0.4163
  446MOL0     C60079   2.244   1.186   2.442  0.5812  0.8001 -1.1966
  446MOL0     C60080   2.105   1.181   2.413  0.0299  0.6437  0.4351
  446MOL0     C60081   2.056   1.073   2.335  0.4927 -0.4806 -0.5691
  446MOL0     C60082   2.134   0.976   2.287  0.2023  0.5823  0.1894
  446MOL0     O60083   2.067   0.884   2.218 -0.7078  0.3217  0.8764
  446MOL0     C60084   2.063   0.754   2.276 -0.6498 -0.7649 -0.0777
  446MOL0     C60085   1.939   0.674   2.257 -0.2635  0.3162 -0.1132
  446MOL0     C60086   1.938   0.608   2.120  0.2774 -0.3573  0.3449
  446MOL0     C60087   1.797   0.574   2.077 -0.5610 -0.0179  0.6662
  446MOL0     C60088   1.806   0.523   1.924 -0.8552  0.1040 -0.4745
  446MOL0     C60089   1.666   0.459   1.897  0.7802 -1.1411  0.4843
  446MOL0     C60090   1.642   0.434   1.753 -0.0315 -0.1284 -0.5092
  446MOL0     C60091   1.618   0.569   1.684  0.8116 -0.6631  0.4175
  446MOL0     N60092   1.604   0.537   1.540 -0.2111  0.9876  0.1210
  446MOL0     C60093   1.490   0.542   1.471 -0.5794 -0.0213  0.7335
  446MOL0     C60094   1.517   0.508   1.343 -0.3426 -0.8618  0.5481
  446MOL0     C60095   1.417   0.503   1.230  0.2028 -0.4486  0.3223
  446MOL0     C60096   1.308   0.399   1.242 -0.8547  0.1596  0.7039
  446MOL0     C60097   1.359   0.253   1.225  0.5493  0.1491 -0.1792
  446MOL0     C60098   1.439   0.192   1.343 -0.6870 -0.2090 -0.5648
  446MOL0     O60099   1.376   0.214   1.473 -0.5288 -0.1478  0.3872
  446MOL0     C60100   1.441   0.158   1.587  0.8380  0.2564 -0.3582
  446MOL0     C60101   1.354   0.144   1.709 -0.1622  0.8642  0.3237
  446MOL0     C60102   1.415   0.094   1.824 -0.1041 -0.4154  0.1326
  446MOL0     C60103   1.332   0.097   1.952 -0.7770 -0.1782 -0.8485
  446MOL0     C60104   1.545   0.052   1.826  0.1727 -1.0330  1.3655
  446MOL0     C60105   1.612   0.028   1.955  0.4380  0.0793 -0.8686
  446MOL0     O60106   1.732   0.073   1.957  0.5066  0.5794 -0.9107
  446MOL0     C60107   1.805   0.066   2.079  0.2159  0.6213 -0.1906
  446MOL0     C60108   1.881   0.178   2.113 -0.4297 -0.2521 -0.2755
  446MOL0     C60109   1.944   0.197   2.233  0.1397 -0.3932 -0.4602
  446MOL0     C60110   1.953   0.087   2.323  0.8983 -0.7113  0.1866
  446MOL0     O60111   2.019   0.095   2.437 -0.5461 -0.3774 -0.6067
  446MOL0     C60112   2.037  -0.020   2.526 -0.0058 -0.7394  0.9928
  446MOL0     C60113   2.119   0.007   2.656  0.0475  1.1761 -0.5312
  446MOL0     C60114   2.266   0.031   2.626 -0.0420  0.6683 -0.0397
  446MOL0     C60115   2.363  -0.079   2.662 -0.3141  0.3787 -0.3724
  446MOL0     C60116   2.514  -0.034   2.651  0.0507  0.0687 -0.8624
  446MOL0     C60117   2.604  -0.158   2.660 -0.0273  0.2903  0.1358
  446MOL0     C60118   2.594  -0.248   2.528 -0.2266 -0.6047 -0.2979
  446MOL0     C60119   2.731  -0.302   2.494 -0.1601  0.3514  0.2694
  446MOL0    Cl60120   2.790  -0.419   2.612  0.1282 -0.1772  0.0563
  446MOL0     C60121   1.888  -0.033   2.283  0.1643 -0.8190 -0.1510
  446MOL0     C60122   1.816  -0.045   2.165 -0.3224 -0.1962 -0.1221
  446MOL0     O60123   1.556  -0.024   2.054  0.3091  0.6248  0.0874
  446MOL0     C60124   1.613   0.048   1.708 -0.1124  0.7184  0.2799
  446MOL0     C60125   1.568   0.103   1.583  0.4482  0.5805 -0.3923
  446MOL0     N60126   1.654   0.489   1.336 -0.5784  0.2734  0.3168
  446MOL0     N60127   1.702   0.506   1.453 -0.4323 -0.2290 -0.0783
  446MOL0     C60128   2.267   0.963   2.344  0.0128 -1.1861  1.4629
  446MOL0     C60129   2.328   1.076   2.415  0.1452  0.0238 -0.2919
  446MOL0     C60130   2.438   1.430   2.640  0.0237 -0.4725  0.0328
  446MOL0     C60131   2.577   1.420   2.678 -0.0205 -0.9098  0.0489
  446MOL0     C60132   2.640   1.544   2.703 -0.3562  1.4786 -0.0260
  446MOL0     C60133   2.574   1.666   2.715 -0.6742  0.0546  0.0039
  446MOL0     O60134   2.622   1.789   2.756  0.3293 -0.4280 -0.2437
  446MOL0     C60135   2.745   1.805   2.820 -0.3562 -0.7807  0.8354
  446MOL0     C60136   2.751   1.781   2.973 -0.0403 -0.2418  0.9084
  446MOL0     C60137   2.639   1.869   3.043 -0.2239  0.3368 -0.1957
  446MOL0     C60138   2.665   2.016   3.040 -0.6100  0.7246 -0.7391
  446MOL0     C60139   2.570   2.085   3.128  0.5703  0.0442  0.5097
  446MOL0     C60140   2.496   2.152   3.205 -0.4948 -0.0403 -0.0816
  446MOL0     C60141   2.441   1.674   2.674  0.4350  0.2134  0.7018
  446MOL0     C60142   2.379   1.558   2.629 -0.3372 -0.2806 -1.2326
  446MOL0     H60143   2.044   1.259   2.456  0.7967  1.8806 -0.6424
  446MOL0     H60144   1.949   1.067   2.315  0.6211  1.6466 -2.2818
  446MOL0     H60145   2.135   0.694   2.219  1.4445  2.2991 -0.9079
  446MOL0     H60146   2.098   0.750   2.380  0.6212 -5.3262 -0.4833
  446MOL0     H60147   1.954   0.593   2.330 -0.1014 -1.3663 -1.9395
  446MOL0     H60148   1.847   0.730   2.272 -2.6323 -2.3949 -3.1554
  446MOL0     H60149   1.970   0.678   2.042  0.6660 -1.0846 -0.1585
  446MOL0     H60150   1.994   0.514   2.115  0.5217 -0.2590  1.1619
  446MOL0     H60151   1.761   0.490   2.138 -1.9281  0.1435  0.1080
  446MOL0     H60152   1.730   0.660   2.083 -0.0832  0.5563 -1.4502
  446MOL0     H60153   1.833   0.610   1.865 -0.9658 -0.3201 -1.1682
  446MOL0     H60154   1.888   0.451   1.915  0.5377  0.9929  3.2189
  446MOL0     H60155   1.665   0.366   1.955  0.1615 -0.9065  0.8589
  446MOL0     H60156   1.588   0.519   1.944  1.4020  1.3419 -1.4205
  446MOL0     H60157   1.733   0.392   1.709  0.1633 -0.2288 -0.0188
  446MOL0     H60158   1.564   0.358   1.747  2.6432 -3.0875 -0.4406
  446MOL0     H60159   1.710   0.626   1.701  2.4734 -3.2824  0.7014
  446MOL0     H60160   1.522   0.611   1.716  0.2427 -1.3251 -0.3710
  446MOL0     H60161   1.390   0.563   1.508  0.3408 -3.1884  5.9301
  446MOL0     H60162   1.373   0.602   1.210  1.1602 -0.1971 -0.6779
  446MOL0     H60163   1.479   0.485   1.142  0.4325  0.6116  0.2470
  446MOL0     H60164   1.221   0.425   1.181 -2.6017  2.6530  3.9290
  446MOL0     H60165   1.259   0.388   1.339 -2.3761 -0.8910 -0.1419
  446MOL0     H60166   1.415   0.240   1.132 -3.6601 -5.1401 -2.5722
  446MOL0     H60167   1.268   0.195   1.204 -0.0980  0.9263  0.4342
  446MOL0     H60168   1.544   0.221   1.330 -1.0135  1.8136  0.7434
  446MOL0     H60169   1.443   0.083   1.334 -1.7793 -0.1949 -1.4388
  446MOL0     H60170   1.251   0.177   1.709 -0.3420  0.4097 -1.9371
  446MOL0     H60171   1.369   0.159   2.034 -3.2218 -1.6817  1.5579
  446MOL0     H60172   1.230   0.131   1.933 -1.6677 -2.3267 -0.2473
  446MOL0     H60173   1.325  -0.005   1.992  2.1601  0.9075  2.9896
  446MOL0     H60174   1.892   0.250   2.032  1.7573 -1.6686 -1.3257
  446MOL0     H60175   1.998   0.288   2.256 -0.4584 -0.4296  1.2684
  446MOL0     H60176   1.938  -0.059   2.551  0.3947 -2.2208  0.3922
  446MOL0     H60177   2.083  -0.104   2.472 -1.5585 -2.0190  1.5825
  446MOL0     H60178   2.074   0.096   2.701 -2.2034  0.9193 -2.0892
  446MOL0     H60179   2.096  -0.072   2.729 -2.2375  2.4530  0.2280
  446MOL0     H60180   2.296   0.122   2.678 -3.0804  3.2652 -2.4029
  446MOL0     H60181   2.285   0.059   2.522  0.5815 -1.9921 -0.7373
  446MOL0     H60182   2.346  -0.113   2.764  0.9109  1.8006  0.3517
  446MOL0     H60183   2.354  -0.163   2.593  1.1634 -0.5071  0.4459
  446MOL0     H60184   2.534   0.026   2.741 -0.5449 -0.9261 -0.0360
  446MOL0     H60185   2.533   0.026   2.562  0.3831  0.5041 -0.5013
  446MOL0     H60186   2.706  -0.128   2.689 -0.3804  4.1919 -2.0793
  446MOL0     H60187   2.560  -0.221   2.738 -0.0872  0.9288  0.6238
  446MOL0     H60188   2.565  -0.181   2.446 -1.2060 -3.2095 -2.2304
  446MOL0     H60189   2.520  -0.328   2.542  0.0085 -0.7161  0.3096
  446MOL0     H60190   2.807  -0.224   2.488 -1.2928  1.3811 -2.1565
  446MOL0     H60191   2.731  -0.354   2.397 -0.2650  0.1578  0.3720
  446MOL0     H60192   1.882  -0.123   2.343 -1.7273  0.4064  1.6537
  446MOL0     H60193   1.754  -0.133   2.151 -2.6415  1.3710 -0.1919
  446MOL0     H60194   1.715   0.010   1.712 -0.5598 -1.0087 -2.3707
  446MOL0     H60195   1.639   0.105   1.501  0.0247 -1.1642 -0.8352
  446MOL0     H60196   2.325   0.885   2.296 -2.2020 -0.4607 -2.9345
  446MOL0     H60197   2.432   1.078   2.446 -0.0663  0.4170  0.4245
  446MOL0     H60198   2.627   1.326   2.657  0.0888 -0.2245 -3.3962
  446MOL0     H60199   2.744   1.533   2.731 -0.3617 -1.6101 -0.9477
  446MOL0     H60200   2.810   1.736   2.765 -3.8499 -3.1527 -0.6507
  446MOL0     H60201   2.801   1.897   2.805 -0.3910 -0.9388 -0.3576
  446MOL0     H60202   2.849   1.797   3.018 -0.9428  0.0929  2.8823
  446MOL0     H60203   2.725   1.677   2.995 -2.2025  0.1438  0.4447
  446MOL0     H60204   2.632   1.846   3.150 -1.6285 -1.0160 -0.5364
  446MOL0     H60205   2.540   1.841   3.005 -0.9922 -0.6890  2.3521
  446MOL0     H60206   2.654   2.056   2.939 -1.6173 -2.0004 -1.7904
  446MOL0     H60207   2.764   2.057   3.063 -0.6172  2.5487 -3.5035
  446MOL0     H60208   2.444   2.225   3.264 -0.7636 -0.2064 -0.1117
  446MOL0     H60209   2.406   1.776   2.660  2.8375  1.3379  2.2473
  446MOL0     H60210   2.276   1.578   2.599 -0.9747  1.4468  1.6938
  447MOL0     O60211   2.812   1.254   6.719  0.8125 -0.1646  0.6977
  447MOL0     C60212   2.827   1.356   6.781  0.2021 -0.6982 -0.5275
  447MOL0     O60213   2.754   1.391   6.895  0.0540  0.1823 -0.5662
  447MOL0     C60214   2.658   1.322   6.966 -0.6948  0.4038 -0.7306
  447MOL0     C60215   2.565   1.230   6.901 -0.1499  0.0209 -0.2637
  447MOL0     C60216   2.476   1.165   6.983  0.7581 -0.7251 -0.0539
  447MOL0     C60217   2.449   1.208   7.117  0.3366 -0.3381 -0.0263
  447MOL0     O60218   2.350   1.139   7.180 -0.4333  0.4101  0.2052
  447MOL0     C60219   2.234   1.210   7.223 -0.3162 -0.0462  0.2313
  447MOL0     C60220   2.115   1.118   7.218  0.3499 -0.0891 -0.4145
  447MOL0     C60221   2.125   0.989   7.312  0.6975 -0.3735 -0.3053
  447MOL0     C60222   2.000   0.893   7.326 -0.7925 -0.0379 -0.6240
  447MOL0     C60223   1.989   0.829   7.470 -0.3163 -0.1799  0.7446
  447MOL0     C60224   1.904   0.704   7.475 -0.0041  0.5601 -0.4462
  447MOL0     C60225   1.897   0.639   7.619  0.3620 -1.0035 -0.2349
  447MOL0     C60226   1.836   0.495   7.606 -0.1962  0.0500  0.4010
  447MOL0     N60227   1.937   0.382   7.587  0.2227 -0.6630 -0.5389
  447MOL0     C60228   2.067   0.386   7.619  0.6519 -0.4164  0.3669
  447MOL0     C60229   2.105   0.261   7.575 -0.3839 -0.8288  1.4389
  447MOL0     C60230   2.245   0.207   7.573 -0.7235 -0.1949 -0.8315
  447MOL0     C60231   2.360   0.300   7.630  0.2737  0.0032  0.0886
  447MOL0     C60232   2.408   0.419   7.543 -0.6898  0.9994 -0.1912
  447MOL0     C60233   2.555   0.413   7.491 -0.6555 -0.4512 -0.3619
  447MOL0     O60234   2.652   0.428   7.597 -0.6981 -0.2046 -0.0708
  447MOL0     C60235   2.738   0.532   7.593  0.1098 -0.2168  0.2572
  447MOL0     C60236   2.693   0.648   7.650  0.0687 -1.3431 -0.5387
  447MOL0     C60237   2.770   0.767   7.643  0.1995  0.3663 -0.0289
  447MOL0     C60238   2.692   0.894   7.666 -0.7679  0.2390 -0.0834
  447MOL0     C60239   2.905   0.752   7.596  0.0359 -0.4064  0.3417
  447MOL0     C60240   3.000   0.871   7.584 -0.1744 -0.5221 -0.4945
  447MOL0     O60241   3.100   0.871   7.499  0.5260  0.0845  0.6258
  447MOL0     C60242   3.197   0.966   7.502  0.0336  0.7798 -0.3900
  447MOL0     C60243   3.314   0.924   7.562 -0.4046  0.4064  0.4010
  447MOL0     C60244   3.410   1.020   7.580 -0.3751  0.0127  1.1811
  447MOL0     C60245   3.391   1.151   7.527 -0.0039 -0.4383  0.3999
  447MOL0     O60246   3.474   1.255   7.575  0.4337 -0.5141  0.2414
  447MOL0     C60247   3.611   1.247   7.542 -0.6615 -0.9261  0.8223
  447MOL0     C60248   3.624   1.247   7.387  0.2867 -0.8192  0.2750
  447MOL0     C60249   3.767   1.284   7.347 -0.6619 -0.7980 -0.9909
  447MOL0     C60250   3.878   1.254   7.455  0.6409 -0.4605 -0.3761
  447MOL0     C60251   4.009   1.284   7.388 -0.1650 -0.6862  1.0508
  447MOL0     C60252   4.138   1.236   7.463  0.7385  0.0159  0.3834
  447MOL0     C60253   4.178   1.333   7.571  0.5256  0.6020 -0.4801
  447MOL0     C60254   4.270   1.257   7.664  0.1893 -0.0382  0.2284
  447MOL0    Cl60255   4.326   1.353   7.797  0.5441  0.3067  0.0578
  447MOL0     C60256   3.272   1.185   7.462  0.1447 -0.5080 -0.5168
  447MOL0     C60257   3.171   1.089   7.457  0.1652 -0.4320 -0.2245
  447MOL0     O60258   2.972   0.967   7.652 -0.0212 -0.1095 -0.5192
  447MOL0     C60259   2.957   0.625   7.554  0.6069 -0.1007  0.6538
  447MOL0     C60260   2.865   0.520   7.551 -0.0979 -1.1003  0.7874
  447MOL0     N60261   2.006   0.202   7.499 -0.4987  0.2164 -0.4798
  447MOL0     N60262   1.903   0.270   7.517  0.1824  0.4540 -0.0673
  447MOL0     C60263   2.529   1.316   7.173  0.6190  0.3041 -0.5023
  447MOL0     C60264   2.636   1.367   7.099 -0.3119  0.6265  0.2755
  447MOL0     C60265   2.935   1.451   6.747  0.0872 -1.0979 -1.2557
  447MOL0     C60266   2.950   1.570   6.816 -0.4635  0.1113 -0.2793
  447MOL0     C60267   3.057   1.662   6.790 -0.0602 -0.0802 -0.1118
  447MOL0     C60268   3.148   1.630   6.699 -0.3120 -0.5208  0.5884
  447MOL0     O60269   3.253   1.707   6.671 -0.2176  0.2458  0.6706
  447MOL0     C60270   3.290   1.821   6.747  0.1953 -0.2212  0.3548
  447MOL0     C60271   3.427   1.864   6.698 -0.6419  0.1052  0.2117
  447MOL0     C60272   3.479   1.996   6.762 -0.8322  0.0019 -0.1606
  447MOL0     C60273   3.587   2.060   6.684  0.8293  0.1113  0.0191
  447MOL0     C60274   3.717   1.998   6.697 -0.1946  0.7459 -0.2641
  447MOL0     C60275   3.827   1.946   6.703 -0.0935  0.4225 -0.4174
  447MOL0     C60276   3.141   1.509   6.629  0.0393  0.3400  1.0927
  447MOL0     C60277   3.034   1.419   6.655 -1.0765  0.2337 -0.1516
  447MOL0     H60278   2.582   1.201   6.798  5.1255  0.5489  0.1623
  447MOL0     H60279   2.417   1.085   6.940  0.9046  0.1772 -2.0241
  447MOL0     H60280   2.256   1.239   7.326  1.3799 -1.3108  0.2723
  447MOL0     H60281   2.206   1.295   7.160  1.8958  0.2020 -0.5410
  447MOL0     H60282   2.021   1.163   7.250 -0.4236 -1.8205 -0.0831
  447MOL0     H60283   2.097   1.090   7.113 -2.1104 -1.7542  0.3389
  447MOL0     H60284   2.209   0.928   7.278 -0.1429 -1.0460 -1.2405
  447MOL0     H60285   2.156   1.014   7.413  0.4281 -0.0066 -0.3097
  447MOL0     H60286   1.909   0.947   7.299 -0.8178  1.0108  1.3620
  447MOL0     H60287   2.014   0.817   7.248 -1.3714 -0.6531 -0.1345
  447MOL0     H60288   2.093   0.800   7.483 -0.7027 -1.3145  1.4454
  447MOL0     H60289   1.953   0.914   7.529  0.4326  0.1606  0.7249
  447MOL0     H60290   1.804   0.718   7.435 -0.6666 -0.4458  0.7916
  447MOL0     H60291   1.957   0.629   7.415  1.0197  1.1528 -0.3054
  447MOL0     H60292   1.986   0.639   7.682 -1.1626 -0.7711  2.0444
  447MOL0     H60293   1.820   0.688   7.680  3.0356  0.2128  2.4340
  447MOL0     H60294   1.767   0.492   7.521  1.5627 -0.0288 -1.0983
  447MOL0     H60295   1.774   0.477   7.695 -2.6790  0.9067 -1.0395
  447MOL0     H60296   2.127   0.463   7.667 -2.3459  1.3607  1.5258
  447MOL0     H60297   2.259   0.118   7.634  2.6394 -0.7712 -2.2252
  447MOL0     H60298   2.280   0.171   7.476  2.2575 -1.4319  0.5761
  447MOL0     H60299   2.447   0.238   7.651  0.1212 -0.3390 -0.2894
  447MOL0     H60300   2.321   0.339   7.725 -2.0544 -2.4047  0.2328
  447MOL0     H60301   2.396   0.508   7.606  1.9847 -0.0955  2.0718
  447MOL0     H60302   2.337   0.421   7.460 -2.6014 -3.0664  1.1098
  447MOL0     H60303   2.562   0.495   7.418 -3.0252  1.2990  1.2392
  447MOL0     H60304   2.573   0.326   7.428  0.4206 -0.8846  0.5187
  447MOL0     H60305   2.593   0.653   7.692 -0.0359  0.8122 -0.9225
  447MOL0     H60306   2.721   0.960   7.748 -0.4335  1.7430 -1.3590
  447MOL0     H60307   2.716   0.959   7.581  1.1114 -2.0230 -1.4183
  447MOL0     H60308   2.587   0.872   7.686 -1.6282  1.1110 -3.0719
  447MOL0     H60309   3.319   0.826   7.609 -0.0630 -0.7315 -1.8796
  447MOL0     H60310   3.496   0.997   7.642  1.3419 -0.8693 -1.3605
  447MOL0     H60311   3.648   1.346   7.571 -0.9948 -0.0013 -1.6491
  447MOL0     H60312   3.672   1.171   7.592 -0.8483 -1.1337  0.7337
  447MOL0     H60313   3.580   1.152   7.357  0.5138 -1.3882  1.6960
  447MOL0     H60314   3.563   1.332   7.354  0.9986 -0.2989  0.2766
  447MOL0     H60315   3.778   1.389   7.319  3.2130 -0.0965  2.2128
  447MOL0     H60316   3.788   1.237   7.251  1.0364 -0.3095 -0.8941
  447MOL0     H60317   3.871   1.315   7.545  0.7115  0.9069 -1.2756
  447MOL0     H60318   3.868   1.149   7.485 -0.0671 -0.3465 -0.2048
  447MOL0     H60319   4.020   1.393   7.380  1.9756 -0.8588  0.8387
  447MOL0     H60320   4.011   1.239   7.288  0.9118  2.4414 -0.4640
  447MOL0     H60321   4.122   1.138   7.509 -1.4749  1.3392  2.6231
  447MOL0     H60322   4.219   1.228   7.390 -1.3749  0.9740 -2.2262
  447MOL0     H60323   4.095   1.366   7.635 -0.6138 -1.9503 -0.5162
  447MOL0     H60324   4.229   1.419   7.527  1.5741  0.1508 -0.1700
  447MOL0     H60325   4.363   1.233   7.611 -0.1356  1.5069 -1.1239
  447MOL0     H60326   4.225   1.165   7.701 -0.2579 -0.6623 -1.7387
  447MOL0     H60327   3.253   1.286   7.426  0.2323 -1.3003 -2.9805
  447MOL0     H60328   3.076   1.116   7.412  0.0434 -0.6394 -0.0971
  447MOL0     H60329   3.058   0.627   7.517 -0.2477  1.3749 -1.8418
  447MOL0     H60330   2.898   0.431   7.500  0.5607 -0.3865 -0.0491
  447MOL0     H60331   2.513   1.348   7.275  2.2966  2.8001 -0.9350
  447MOL0     H60332   2.708   1.444   7.126 -1.9659  1.5725  2.2568
  447MOL0     H60333   2.890   1.601   6.901 -0.4866  3.0462 -1.2236
  447MOL0     H60334   3.076   1.749   6.853  0.8399 -1.3436  1.4595
  447MOL0     H60335   3.219   1.898   6.715  0.3392 -0.6538 -1.0822
  447MOL0     H60336   3.292   1.799   6.854 -0.4510 -0.4847  0.3155
  447MOL0     H60337   3.424   1.868   6.589 -2.4662 -0.9968  0.1846
  447MOL0     H60338   3.492   1.784   6.734 -2.1833 -1.0649  0.5155
  447MOL0     H60339   3.509   1.978   6.866 -1.8239 -0.6427  0.0272
  447MOL0     H60340   3.398   2.069   6.765 -1.3740 -0.4456 -2.2878
  447MOL0     H60341   3.603   2.164   6.715  0.1703  0.7892 -1.7868
  447MOL0     H60342   3.554   2.075   6.581  0.1248  0.7690  0.3280
  447MOL0     H60343   3.927   1.908   6.708  0.2408  1.0589 -1.7708
  447MOL0     H60344   3.215   1.479   6.555  0.8696 -0.6405  2.2782
  447MOL0     H60345   3.019   1.325   6.604 -2.0999  0.0401  0.4785
  448MOL0     O60346   6.874   2.332   2.014 -0.1375 -0.3938  0.0188
  448MOL0     C60347   6.857   2.368   1.901 -0.7565 -0.1134  0.4801
  448MOL0     O60348   6.737   2.390   1.842  0.5840 -0.6410  0.0770
  448MOL0     C60349   6.620   2.364   1.917  0.0538 -0.3485  1.7504
  448MOL0     C60350   6.574   2.456   2.010 -0.2843  0.1650 -0.9751
  448MOL0     C60351   6.457   2.422   2.085  0.3366 -0.2700  1.4508
  448MOL0     C60352   6.386   2.298   2.062 -0.2560 -0.0365 -0.9283
  448MOL0     O60353   6.271   2.267   2.126 -0.1307  0.0338 -0.4855
  448MOL0     C60354   6.161   2.262   2.032 -0.4563 -0.3492  0.1377
  448MOL0     C60355   6.049   2.335   2.106  0.0101 -0.2537 -0.0121
  448MOL0     C60356   6.078   2.481   2.138 -0.4720  0.3292 -0.4693
  448MOL0     C60357   5.962   2.546   2.211 -0.2105  0.7949 -0.1607
  448MOL0     C60358   5.978   2.695   2.254 -0.4867  0.3306 -0.2879
  448MOL0     C60359   5.852   2.738   2.339 -0.1169  0.2738  0.1184
  448MOL0     C60360   5.842   2.893   2.349 -0.0611  0.0455  0.4816
  448MOL0     C60361   5.702   2.926   2.405  0.3276  0.4303 -0.0452
  448MOL0     N60362   5.710   3.066   2.458 -0.9661  0.1412  0.0664
  448MOL0     C60363   5.752   3.181   2.393 -0.2442  0.0683  0.1057
  448MOL0     C60364   5.745   3.278   2.481  0.7259  0.6809  0.7695
  448MOL0     C60365   5.794   3.413   2.456 -0.0479 -0.4463  0.1916
  448MOL0     C60366   5.711   3.515   2.542  0.6764  0.3109  0.2628
  448MOL0     C60367   5.754   3.656   2.500  0.0536 -0.9607  0.2643
  448MOL0     C60368   5.674   3.773   2.552  0.2507 -0.0828 -0.3602
  448MOL0     O60369   5.745   3.895   2.514  0.1049  0.4729  0.2621
  448MOL0     C60370   5.858   3.935   2.578  0.6008 -0.3244 -0.3562
  448MOL0     C60371   5.945   3.997   2.500  0.0635 -0.1682  0.7019
  448MOL0     C60372   6.065   4.042   2.545  0.3415  0.2213 -0.0080
  448MOL0     C60373   6.152   4.120   2.451  0.2965  0.1102  0.5416
  448MOL0     C60374   6.099   4.007   2.673 -0.0791 -0.1968 -0.2129
  448MOL0     C60375   6.230   4.054   2.723  0.1410  0.3837 -0.4449
  448MOL0     O60376   6.351   3.993   2.688  0.0485 -0.0393 -0.4630
  448MOL0     C60377   6.460   4.070   2.680 -0.5858  0.5004 -0.5520
  448MOL0     C60378   6.579   4.003   2.680  0.4874 -0.6112  0.2602
  448MOL0     C60379   6.701   4.074   2.684 -0.5475 -0.9539  0.7629
  448MOL0     C60380   6.692   4.215   2.676  0.1107  0.3457 -0.2881
  448MOL0     O60381   6.814   4.289   2.680 -0.1110  1.0555  0.1071
  448MOL0     C60382   6.895   4.259   2.566 -0.1491 -0.4343 -0.4781
  448MOL0     C60383   6.940   4.385   2.496  0.4285 -0.7460 -0.3497
  448MOL0     C60384   6.814   4.436   2.418 -0.1778  0.2290  0.5438
  448MOL0     C60385   6.857   4.516   2.294  0.7572 -0.3003 -0.1062
  448MOL0     C60386   6.745   4.598   2.230  0.1784 -0.4305  0.0415
  448MOL0     C60387   6.811   4.677   2.120  0.3111  0.3659  0.1133
  448MOL0     C60388   6.887   4.797   2.170  0.5357  0.5375  0.2118
  448MOL0     C60389   6.920   4.889   2.051  0.7519  0.2867 -0.6243
  448MOL0    Cl60390   7.007   5.033   2.114 -0.4833  0.3806 -0.1825
  448MOL0     C60391   6.569   4.286   2.671 -0.0716 -0.0167  0.0743
  448MOL0     C60392   6.455   4.211   2.669  0.5571 -0.6126 -0.0449
  448MOL0     O60393   6.219   4.132   2.817  0.1452  0.2956 -0.4347
  448MOL0     C60394   6.015   3.933   2.765 -0.3504 -0.0363 -0.2271
  448MOL0     C60395   5.887   3.908   2.715 -0.1289  0.4354 -0.1992
  448MOL0     N60396   5.711   3.230   2.608  0.3395 -0.3243  0.3434
  448MOL0     N60397   5.702   3.105   2.592 -0.2391  0.1268 -0.7684
  448MOL0     C60398   6.444   2.202   1.973 -0.2138 -0.2077  0.2095
  448MOL0     C60399   6.565   2.243   1.914  0.5832  0.8460 -0.9770
  448MOL0     C60400   6.976   2.378   1.806 -0.6078 -1.4962 -0.8482
  448MOL0     C60401   6.953   2.442   1.677  0.0815 -1.1532 -0.6270
  448MOL0     C60402   7.054   2.473   1.595 -0.6695 -0.1067  0.6542
  448MOL0     C60403   7.184   2.420   1.618 -0.2884  0.2098 -0.5989
  448MOL0     O60404   7.268   2.429   1.504  0.9826 -0.1312 -0.5756
  448MOL0     C60405   7.334   2.303   1.465  0.1863  0.3839  1.0148
  448MOL0     C60406   7.395   2.303   1.327 -0.1513 -0.9952  0.0316
  448MOL0     C60407   7.483   2.185   1.306 -0.1267 -0.5576 -0.1237
  448MOL0     C60408   7.421   2.083   1.213  0.3987  0.5720  0.2729
  448MOL0     C60409   7.295   2.029   1.266  0.0745  0.2622  0.5985
  448MOL0     C60410   7.186   1.982   1.293  0.0087  0.2660  0.4001
  448MOL0     C60411   7.207   2.351   1.737 -0.4412 -0.9962  0.4458
  448MOL0     C60412   7.109   2.332   1.835 -0.1092  0.3511 -1.0293
  448MOL0     H60413   6.623   2.553   2.021 -0.8224  0.3898 -0.5106
  448MOL0     H60414   6.428   2.488   2.166  2.2025  2.5301  0.0045
  448MOL0     H60415   6.187   2.314   1.939 -1.0396 -0.4917 -0.1117
  448MOL0     H60416   6.142   2.158   2.003 -1.5431  0.2617 -1.5119
  448MOL0     H60417   5.958   2.334   2.045  0.1808  1.8487 -0.3894
  448MOL0     H60418   6.035   2.296   2.207  0.4241  2.1277  1.0196
  448MOL0     H60419   6.175   2.493   2.187  0.0450  4.2058 -2.0927
  448MOL0     H60420   6.097   2.543   2.050 -0.7049 -1.1600 -1.6128
  448MOL0     H60421   5.879   2.537   2.140  0.0137 -0.7077 -0.2687
  448MOL0     H60422   5.935   2.489   2.300 -1.8723  0.9309 -0.5488
  448MOL0     H60423   6.069   2.705   2.313 -0.4311  0.6376 -0.4264
  448MOL0     H60424   5.984   2.756   2.163 -1.3852  3.4147  1.5857
  448MOL0     H60425   5.756   2.706   2.297 -0.2303 -1.1198  1.3415
  448MOL0     H60426   5.868   2.701   2.440  2.2724 -0.5373 -0.4687
  448MOL0     H60427   5.921   2.914   2.422 -0.9970  2.8570  0.8235
  448MOL0     H60428   5.857   2.935   2.249 -0.8712 -1.6386 -0.3872
  448MOL0     H60429   5.669   2.859   2.485  1.5764  0.3355  0.4144
  448MOL0     H60430   5.626   2.907   2.329  1.5409 -2.0276 -0.7500
  448MOL0     H60431   5.779   3.174   2.288  0.1686 -1.8552  0.2965
  448MOL0     H60432   5.898   3.405   2.489  0.3284  1.4527 -0.4042
  448MOL0     H60433   5.801   3.441   2.350  1.4176  1.0818  0.6392
  448MOL0     H60434   5.735   3.499   2.648  3.3938  0.1271 -0.2847
  448MOL0     H60435   5.604   3.516   2.524  0.6441  2.2973  0.2513
  448MOL0     H60436   5.750   3.655   2.390 -1.0147 -1.0416  0.2919
  448MOL0     H60437   5.856   3.674   2.534 -0.2563 -0.3675  0.9243
  448MOL0     H60438   5.671   3.759   2.661 -0.5123 -3.6894 -0.7106
  448MOL0     H60439   5.568   3.774   2.524  0.0490 -0.3568  0.3703
  448MOL0     H60440   5.930   3.997   2.392 -2.1402 -2.8751  0.8865
  448MOL0     H60441   6.226   4.056   2.400 -0.2746  1.3955 -2.0571
  448MOL0     H60442   6.106   4.164   2.362  3.7235  1.2564 -0.8549
  448MOL0     H60443   6.197   4.205   2.502 -0.3849 -0.0536  1.4271
  448MOL0     H60444   6.574   3.896   2.693  2.2181 -0.6107  1.3049
  448MOL0     H60445   6.790   4.015   2.698  0.0009 -0.3950 -0.2467
  448MOL0     H60446   6.986   4.205   2.594 -0.3938  0.0886  1.5089
  448MOL0     H60447   6.857   4.182   2.499  1.7344 -0.9763 -0.9794
  448MOL0     H60448   6.976   4.459   2.568 -1.2917 -0.7813  0.6107
  448MOL0     H60449   7.019   4.373   2.422  1.2123  5.0807 -0.9111
  448MOL0     H60450   6.763   4.495   2.494  2.0505 -0.9803  3.1466
  448MOL0     H60451   6.754   4.352   2.382  0.2787  1.4278 -3.4990
  448MOL0     H60452   6.939   4.584   2.320  0.5420  0.7800 -2.0729
  448MOL0     H60453   6.895   4.445   2.220  1.6428 -0.3565  0.3905
  448MOL0     H60454   6.684   4.662   2.294 -1.9571 -0.0264 -2.2397
  448MOL0     H60455   6.671   4.528   2.190 -0.7192  1.8028 -2.4662
  448MOL0     H60456   6.870   4.608   2.060 -1.6058  1.3884 -3.2041
  448MOL0     H60457   6.741   4.714   2.045  1.8821  0.7570 -1.1987
  448MOL0     H60458   6.984   4.780   2.217 -1.4747  0.4154  4.7444
  448MOL0     H60459   6.827   4.857   2.238 -2.7411 -0.9802 -1.1529
  448MOL0     H60460   6.831   4.933   2.004 -1.0063  1.4150  3.3465
  448MOL0     H60461   6.978   4.837   1.974  0.8041 -0.1179 -0.3100
  448MOL0     H60462   6.567   4.394   2.679  0.8059 -0.0999  2.0869
  448MOL0     H60463   6.365   4.271   2.672  0.4122 -0.6737 -1.8226
  448MOL0     H60464   6.049   3.914   2.866  2.6100  0.0312 -1.1076
  448MOL0     H60465   5.810   3.855   2.771  0.5139  1.2663  1.5341
  448MOL0     H60466   6.402   2.102   1.964  3.0174 -1.7707  0.7748
  448MOL0     H60467   6.612   2.165   1.853 -1.6444 -1.9224  0.5887
  448MOL0     H60468   6.858   2.478   1.641  0.4445  0.7061  0.1482
  448MOL0     H60469   7.026   2.524   1.503  0.1232 -2.7111 -1.1285
  448MOL0     H60470   7.410   2.296   1.543  0.2513 -0.0762  0.9097
  448MOL0     H60471   7.270   2.215   1.469 -1.7208  1.5500 -1.2982
  448MOL0     H60472   7.454   2.394   1.321 -2.9708  0.9220 -0.3186
  448MOL0     H60473   7.312   2.319   1.258 -2.7035 -0.6651  2.9833
  448MOL0     H60474   7.505   2.134   1.400  1.2374  1.4988  0.7424
  448MOL0     H60475   7.573   2.229   1.261  0.0014  1.7790  2.2046
  448MOL0     H60476   7.488   1.997   1.201 -1.0573 -0.8589  1.7915
  448MOL0     H60477   7.402   2.139   1.121  0.8706  1.1574  0.5268
  448MOL0     H60478   7.087   1.949   1.317 -0.8877  0.0960 -3.0085
  448MOL0     H60479   7.306   2.313   1.761 -0.8638 -2.0279  0.6010
  448MOL0     H60480   7.103   2.284   1.933 -2.9768  0.1708 -1.1938
  449MOL0     O60481  11.322  10.513   0.581 -0.4330  0.4315  0.1136
  449MOL0     C60482  11.388  10.485   0.686 -0.8807 -0.4874  0.4021
  449MOL0     O60483  11.457  10.367   0.712 -0.4227 -0.1403 -0.1155
  449MOL0     C60484  11.400  10.261   0.643 -0.4236  0.1993  0.8821
  449MOL0     C60485  11.271  10.212   0.664  0.4311 -0.9937 -0.2949
  449MOL0     C60486  11.215  10.103   0.600  0.6176  0.5115  0.7308
  449MOL0     C60487  11.290  10.039   0.501 -0.4349 -0.4839  0.7134
  449MOL0     O60488  11.247   9.940   0.417 -0.3904  0.1999 -0.8251
  449MOL0     C60489  11.105   9.923   0.399  0.2123  0.2199 -0.8271
  449MOL0     C60490  11.088   9.778   0.353  0.2006 -1.0105  0.4637
  449MOL0     C60491  10.943   9.729   0.361  0.4646 -0.8364 -0.7239
  449MOL0     C60492  10.933   9.590   0.334  0.2841  0.2981  0.2095
  449MOL0     C60493  10.789   9.546   0.327 -0.9911 -0.0919  0.5293
  449MOL0     C60494  10.702   9.614   0.212 -0.3944  0.2774 -0.8053
  449MOL0     C60495  10.572   9.541   0.197  0.2476 -0.4145 -0.7344
  449MOL0     C60496  10.491   9.603   0.079  0.2638 -0.7252 -0.2796
  449MOL0     N60497  10.351   9.557   0.079 -0.3464 -0.5882  0.0452
  449MOL0     C60498  10.296   9.471  -0.006 -0.0826 -0.3745 -0.2272
  449MOL0     C60499  10.165   9.483  -0.003 -0.2401  0.4322 -0.1421
  449MOL0     C60500  10.082   9.404  -0.098  0.1587  0.2095 -0.6638
  449MOL0     C60501  10.089   9.254  -0.053  0.7536 -0.7137  0.6719
  449MOL0     C60502   9.982   9.180  -0.135  0.2887 -0.7746  0.7533
  449MOL0     C60503   9.977   9.026  -0.113  0.1579 -0.0318 -0.0941
  449MOL0     O60504   9.845   8.980  -0.151 -0.0769 -0.3045 -0.3905
  449MOL0     C60505   9.797   8.857  -0.116 -0.1221  0.5249 -0.6228
  449MOL0     C60506   9.683   8.851  -0.049 -0.8193 -0.4100  0.1120
  449MOL0     C60507   9.629   8.728  -0.005 -0.4094  0.2553 -0.1179
  449MOL0     C60508   9.494   8.737   0.066  1.2444 -0.1168 -0.6709
  449MOL0     C60509   9.692   8.597  -0.036  0.3635 -0.2906  0.1653
  449MOL0     C60510   9.629   8.469  -0.011  0.6977  0.3152  0.2832
  449MOL0     O60511   9.694   8.353  -0.053  0.2901 -0.3017  0.5923
  449MOL0     C60512   9.621   8.242  -0.059  0.0639  0.8452  0.4919
  449MOL0     C60513   9.579   8.191   0.056 -0.1666 -0.6134 -0.2863
  449MOL0     C60514   9.515   8.068   0.056 -0.9300 -0.0921  0.0102
  449MOL0     C60515   9.475   8.006  -0.056 -0.2032  0.0575  0.2906
  449MOL0     O60516   9.420   7.880  -0.040  1.2114 -0.7400  0.4906
  449MOL0     C60517   9.318   7.835  -0.137 -0.1047 -0.0281  0.0010
  449MOL0     C60518   9.180   7.917  -0.138 -0.2029 -0.3745  0.2244
  449MOL0     C60519   9.089   7.897  -0.021 -0.3719  0.5974 -0.1774
  449MOL0     C60520   9.134   7.968   0.112 -0.9243  0.3529 -0.3640
  449MOL0     C60521   9.155   8.113   0.104  0.3041 -0.5874 -0.9150
  449MOL0     C60522   9.161   8.166   0.254  0.4235  0.9250  0.4775
  449MOL0     C60523   9.224   8.305   0.250 -0.0669  0.4358 -1.1531
  449MOL0     C60524   9.228   8.371   0.394 -0.6700  0.2667 -0.6323
  449MOL0    Cl60525   9.325   8.519   0.369 -0.2519  0.0849 -0.6969
  449MOL0     C60526   9.502   8.062  -0.181 -0.0682 -0.4093 -0.6777
  449MOL0     C60527   9.580   8.175  -0.182  0.2749 -0.0973  0.3081
  449MOL0     O60528   9.523   8.467   0.050 -0.5068 -0.2294  0.3655
  449MOL0     C60529   9.818   8.609  -0.100  0.8513  0.6486 -0.7970
  449MOL0     C60530   9.862   8.734  -0.139 -0.2666  0.2615 -0.5653
  449MOL0     N60531  10.136   9.562   0.106  0.5589 -0.4845 -0.0645
  449MOL0     N60532  10.251   9.606   0.154 -0.1610  0.5154 -0.3358
  449MOL0     C60533  11.421  10.080   0.479 -0.0122  0.0234 -1.1134
  449MOL0     C60534  11.474  10.188   0.554  0.1215  0.2386  0.1037
  449MOL0     C60535  11.414  10.581   0.794 -0.4763  0.3085  1.0073
  449MOL0     C60536  11.468  10.547   0.921 -1.0075  0.0110  0.7649
  449MOL0     C60537  11.500  10.635   1.023  0.0010  0.3246 -0.1079
  449MOL0     C60538  11.481  10.768   1.001  0.5421 -0.5890  0.4399
  449MOL0     O60539  11.497  10.838   1.119  0.6453 -1.0037 -0.0660
  449MOL0     C60540  11.558  10.965   1.099 -0.7992  0.1897 -0.7870
  449MOL0     C60541  11.711  10.961   1.142  0.3718  0.3227  0.0965
  449MOL0     C60542  11.716  10.964   1.295 -0.6115 -0.1781 -0.0689
  449MOL0     C60543  11.853  10.945   1.331 -1.2894  0.2713  0.5175
  449MOL0     C60544  11.901  10.999   1.463 -0.2963 -0.1950 -0.2139
  449MOL0     C60545  11.969  11.028   1.565 -0.6225  0.5811 -0.0757
  449MOL0     C60546  11.419  10.812   0.884 -0.5018 -0.3235  0.7654
  449MOL0     C60547  11.385  10.718   0.779  0.2101 -0.4915  0.4837
  449MOL0     H60548  11.222  10.264   0.747 -1.6258 -1.5895 -1.0695
  449MOL0     H60549  11.110  10.088   0.626  0.7588  0.0520  1.0457
  449MOL0     H60550  11.052   9.925   0.495  2.4118  3.7814  0.5087
  449MOL0     H60551  11.068  10.004   0.336  1.4887  1.1648 -0.3920
  449MOL0     H60552  11.111   9.769   0.247 -1.7793  0.8950 -0.2203
  449MOL0     H60553  11.158   9.715   0.408  0.2352 -0.7514  0.7194
  449MOL0     H60554  10.909   9.757   0.461 -0.0875  3.4478 -1.8951
  449MOL0     H60555  10.891   9.797   0.291  2.5898  1.9386  0.2079
  449MOL0     H60556  10.966   9.594   0.230 -3.2542  2.2281 -1.0369
  449MOL0     H60557  10.996   9.541   0.408 -0.3732  2.2859  2.1922
  449MOL0     H60558  10.804   9.440   0.304 -0.0338  0.1745 -0.1615
  449MOL0     H60559  10.735   9.562   0.421  0.4269 -0.6156  1.4758
  449MOL0     H60560  10.689   9.718   0.241 -2.4537  1.5692 -5.4076
  449MOL0     H60561  10.768   9.617   0.125  1.6845  4.1080  0.6921
  449MOL0     H60562  10.595   9.436   0.181  1.1550 -0.7251  2.0263
  449MOL0     H60563  10.526   9.544   0.297  3.6385 -0.6402  0.9724
  449MOL0     H60564  10.531   9.596  -0.022  0.6082  0.6033 -0.2529
  449MOL0     H60565  10.489   9.711   0.091 -0.9352 -0.4250 -2.6671
  449MOL0     H60566  10.346   9.410  -0.081 -0.4576  0.1439 -0.9180
  449MOL0     H60567   9.982   9.448  -0.095  0.9138  1.9490  2.1724
  449MOL0     H60568  10.115   9.413  -0.202  0.5646  0.7242 -0.4970
  449MOL0     H60569  10.066   9.241   0.053 -0.7528  1.9721  0.7882
  449MOL0     H60570  10.186   9.210  -0.076  0.9391 -0.1834  0.4045
  449MOL0     H60571  10.014   9.191  -0.239 -1.3642 -3.1104 -0.0906
  449MOL0     H60572   9.879   9.216  -0.125  0.5144  0.0236  0.2560
  449MOL0     H60573   9.992   9.001  -0.007  1.2728  2.4183  0.4047
  449MOL0     H60574  10.061   8.969  -0.154  0.8922 -0.7905  2.2613
  449MOL0     H60575   9.627   8.937  -0.014 -0.3075  0.2137 -0.5288
  449MOL0     H60576   9.497   8.689   0.164 -2.8342  0.6456  0.0075
  449MOL0     H60577   9.476   8.844   0.084  2.0595 -0.0233 -0.3608
  449MOL0     H60578   9.416   8.695   0.003  2.3387 -1.0753 -1.4394
  449MOL0     H60579   9.595   8.241   0.151  0.1677  0.0586 -0.6927
  449MOL0     H60580   9.512   8.022   0.154  0.3089  1.7998  0.9973
  449MOL0     H60581   9.348   7.822  -0.241 -1.2219 -1.7472 -0.1461
  449MOL0     H60582   9.279   7.739  -0.102 -2.4874  0.6526 -0.5540
  449MOL0     H60583   9.183   8.026  -0.150  0.9475 -0.5997 -2.2761
  449MOL0     H60584   9.128   7.874  -0.224  0.7561  1.3518 -1.3094
  449MOL0     H60585   9.072   7.791  -0.003  5.0561 -0.6395 -0.5869
  449MOL0     H60586   8.991   7.933  -0.053 -1.4274  1.7440  3.8712
  449MOL0     H60587   9.062   7.946   0.191 -2.2222 -1.0025 -1.8494
  449MOL0     H60588   9.223   7.917   0.148 -1.7676 -2.0748 -1.5061
  449MOL0     H60589   9.073   8.166   0.056  2.4790  1.7528 -2.2942
  449MOL0     H60590   9.250   8.144   0.059 -0.6154  1.5779 -1.4695
  449MOL0     H60591   9.064   8.157   0.304  1.1091 -2.0676  1.4953
  449MOL0     H60592   9.220   8.098   0.316 -0.4167  1.3104  1.7329
  449MOL0     H60593   9.162   8.365   0.183  1.2775  1.3114 -1.6593
  449MOL0     H60594   9.325   8.311   0.209 -0.1385  0.4307 -1.3327
  449MOL0     H60595   9.266   8.309   0.475 -0.0085 -1.7726 -2.3897
  449MOL0     H60596   9.121   8.389   0.411 -1.1757 -0.2287 -2.9355
  449MOL0     H60597   9.459   8.017  -0.270  0.5611 -1.2917 -0.5515
  449MOL0     H60598   9.600   8.206  -0.284 -0.5207  0.8785  0.4366
  449MOL0     H60599   9.871   8.519  -0.130 -0.9786 -0.6384 -0.3649
  449MOL0     H60600   9.960   8.744  -0.187 -0.8793 -2.0528 -2.5208
  449MOL0     H60601  11.486  10.032   0.407  1.4537 -0.8920  0.7128
  449MOL0     H60602  11.576  10.222   0.542  1.2415 -2.3740  1.6193
  449MOL0     H60603  11.486  10.441   0.939  1.8579  0.3937  0.6337
  449MOL0     H60604  11.539  10.604   1.120 -0.8884 -3.3137 -0.7467
  449MOL0     H60605  11.534  10.998   0.998 -1.3015 -1.5506 -1.2745
  449MOL0     H60606  11.517  11.037   1.171  1.7687 -0.6175  1.6500
  449MOL0     H60607  11.752  11.052   1.096  0.8913  1.3433  2.4578
  449MOL0     H60608  11.766  10.876   1.101  1.8662  0.9798  0.6809
  449MOL0     H60609  11.656  10.889   1.347  3.0598 -2.7763  0.7803
  449MOL0     H60610  11.696  11.069   1.320 -2.7065  0.3703 -3.3349
  449MOL0     H60611  11.912  11.010   1.265  1.3378 -2.6878 -0.2809
  449MOL0     H60612  11.889  10.842   1.321 -0.7992  0.2494  2.1347
  449MOL0     H60613  12.031  11.030   1.652 -1.3160  0.7658  0.4154
  449MOL0     H60614  11.384  10.912   0.859  4.8654  0.8896 -4.2832
  449MOL0     H60615  11.339  10.740   0.684 -1.9349 -3.5097  0.6938
  450MOL0     O60616   4.409   7.476   5.067  0.6923 -0.0862 -0.2179
  450MOL0     C60617   4.346   7.500   5.174 -0.1125 -0.8468  0.3504
  450MOL0     O60618   4.383   7.460   5.303  0.3296 -0.0620 -0.1277
  450MOL0     C60619   4.499   7.391   5.316 -0.5234 -0.0531 -0.2501
  450MOL0     C60620   4.521   7.257   5.287 -0.3096 -0.2766  0.4798
  450MOL0     C60621   4.650   7.203   5.305  0.1730 -0.8291  0.4929
  450MOL0     C60622   4.753   7.270   5.377 -0.5360  0.3319  0.7417
  450MOL0     O60623   4.869   7.202   5.391 -0.6685  0.1046  0.2467
  450MOL0     C60624   4.986   7.279   5.413 -0.5669  0.2769 -1.2819
  450MOL0     C60625   5.114   7.191   5.440 -0.7578  0.3079  0.9126
  450MOL0     C60626   5.105   7.102   5.575  0.0138  0.3023 -0.7428
  450MOL0     C60627   5.078   7.170   5.708  0.8823 -0.5861 -0.1758
  450MOL0     C60628   5.107   7.076   5.820 -0.7113 -0.0000  0.3461
  450MOL0     C60629   5.252   7.084   5.872 -0.0102  0.4535 -0.5044
  450MOL0     C60630   5.287   6.994   6.000  0.7159 -0.1463  0.2916
  450MOL0     C60631   5.198   7.026   6.118  0.2419  0.5173 -0.0479
  450MOL0     N60632   5.208   7.160   6.173  0.1105  1.2408 -0.2382
  450MOL0     C60633   5.327   7.214   6.217 -0.7985  0.2413  0.3421
  450MOL0     C60634   5.296   7.334   6.254 -0.1006 -0.3639  0.8319
  450MOL0     C60635   5.403   7.443   6.283 -0.1441 -0.4018 -0.3275
  450MOL0     C60636   5.427   7.473   6.426  0.1064 -0.6111 -0.7828
  450MOL0     C60637   5.317   7.568   6.479 -0.4074 -0.3854  0.4926
  450MOL0     C60638   5.340   7.599   6.623  0.1618 -0.2811 -0.4124
  450MOL0     O60639   5.235   7.695   6.658 -0.2306  0.6531  0.7282
  450MOL0     C60640   5.257   7.778   6.758 -0.4403 -0.4822 -1.0548
  450MOL0     C60641   5.227   7.731   6.876  0.2283  0.2382 -0.2504
  450MOL0     C60642   5.259   7.793   6.998 -0.7207 -0.1294 -0.1683
  450MOL0     C60643   5.210   7.719   7.118  0.7269 -0.0522  0.6342
  450MOL0     C60644   5.354   7.903   7.001  0.5527 -0.1696 -0.0684
  450MOL0     C60645   5.393   7.975   7.119  0.3257  1.3441 -0.5526
  450MOL0     O60646   5.487   8.068   7.098  0.1055  0.3407 -0.2260
  450MOL0     C60647   5.519   8.146   7.207  0.2624  0.8676  0.3981
  450MOL0     C60648   5.421   8.222   7.275  0.3500 -0.0910  0.5985
  450MOL0     C60649   5.464   8.287   7.388 -0.5334 -0.6952 -0.2496
  450MOL0     C60650   5.599   8.302   7.433  1.0927 -0.2968  0.8275
  450MOL0     O60651   5.644   8.383   7.536 -0.3648  0.4439 -1.1403
  450MOL0     C60652   5.610   8.518   7.544  0.3191  0.1818 -0.0893
  450MOL0     C60653   5.668   8.575   7.665 -0.4272  0.0519 -1.2165
  450MOL0     C60654   5.589   8.551   7.794 -0.5761 -0.4385 -0.3653
  450MOL0     C60655   5.682   8.476   7.895 -0.3357  0.0169 -0.2318
  450MOL0     C60656   5.609   8.457   8.026  0.0849  0.3513  0.4238
  450MOL0     C60657   5.682   8.353   8.115 -0.4998  1.1449 -0.6480
  450MOL0     C60658   5.591   8.299   8.237 -0.1753 -0.0999  0.3045
  450MOL0     C60659   5.683   8.220   8.335 -0.6761  0.2416  0.9635
  450MOL0    Cl60660   5.586   8.116   8.449  0.3427  0.1619 -0.0962
  450MOL0     C60661   5.692   8.239   7.355 -0.9439 -0.3439 -0.0765
  450MOL0     C60662   5.650   8.151   7.249 -0.2113 -0.1635 -0.2765
  450MOL0     O60663   5.360   7.940   7.236  0.4389 -0.1593  0.3049
  450MOL0     C60664   5.401   7.945   6.871 -0.8005 -0.1335  0.5519
  450MOL0     C60665   5.346   7.884   6.757 -0.2872 -0.5681  0.0732
  450MOL0     N60666   5.165   7.356   6.223  0.9377  0.2382  0.6730
  450MOL0     N60667   5.105   7.242   6.176  0.8916  0.2949 -0.7890
  450MOL0     C60668   4.723   7.402   5.407 -1.0229  0.8506  0.5171
  450MOL0     C60669   4.603   7.460   5.371 -0.3315 -0.7748  0.4941
  450MOL0     C60670   4.223   7.574   5.161  0.2846 -0.6486  0.0804
  450MOL0     C60671   4.127   7.591   5.270 -0.0161 -0.0384  0.0917
  450MOL0     C60672   4.004   7.649   5.244 -0.1824 -0.9024 -0.0511
  450MOL0     C60673   3.962   7.705   5.119  0.4007  0.7482  0.5096
  450MOL0     O60674   3.842   7.757   5.082  0.3209 -0.7011  0.0091
  450MOL0     C60675   3.731   7.705   5.152 -0.8438  0.6276  0.4403
  450MOL0     C60676   3.597   7.765   5.131  1.0418  0.2757  0.0827
  450MOL0     C60677   3.596   7.919   5.134  0.5023  0.3252  0.1723
  450MOL0     C60678   3.544   7.983   5.003 -0.8817 -0.3627  0.4929
  450MOL0     C60679   3.399   7.970   5.001 -0.2038  0.0574 -0.2849
  450MOL0     C60680   3.278   7.948   4.987 -0.0795  0.7283  0.4338
  450MOL0     C60681   4.061   7.692   5.018  0.5536  0.5769 -0.3280
  450MOL0     C60682   4.190   7.633   5.036 -0.5553 -0.1763  0.3525
  450MOL0     H60683   4.449   7.196   5.234 -0.5300 -0.7109  1.2657
  450MOL0     H60684   4.695   7.114   5.262  3.6053  0.1869  1.7157
  450MOL0     H60685   5.005   7.358   5.340  0.2526  2.0045  0.6927
  450MOL0     H60686   4.976   7.329   5.510  0.1899 -0.7589 -0.6532
  450MOL0     H60687   5.123   7.122   5.356 -1.0541  2.7600 -1.2634
  450MOL0     H60688   5.198   7.258   5.457  0.3128 -1.4507  3.0473
  450MOL0     H60689   5.015   7.040   5.564 -0.8252  1.2205  0.6658
  450MOL0     H60690   5.200   7.049   5.586 -1.5423 -2.4104  0.8027
  450MOL0     H60691   5.126   7.268   5.711 -0.1440 -0.0508 -0.8811
  450MOL0     H60692   4.973   7.195   5.722  1.0975 -0.4773  1.4393
  450MOL0     H60693   5.039   7.092   5.904 -0.7427  0.6908  0.1926
  450MOL0     H60694   5.102   6.975   5.778  2.0950  0.5135 -1.4390
  450MOL0     H60695   5.320   7.065   5.789  0.2067  2.4468 -0.8176
  450MOL0     H60696   5.287   7.181   5.909 -1.0670  1.2496 -1.5156
  450MOL0     H60697   5.286   6.890   5.966 -0.0111  0.0108 -0.1981
  450MOL0     H60698   5.392   7.009   6.027  0.7259 -3.7241  2.9306
  450MOL0     H60699   5.221   6.973   6.211 -2.0017  0.1036  0.3300
  450MOL0     H60700   5.096   7.011   6.081 -0.6440  2.9871  1.1683
  450MOL0     H60701   5.431   7.181   6.223 -0.9039 -0.0811  0.4175
  450MOL0     H60702   5.493   7.409   6.231 -0.0739 -0.6120 -0.0714
  450MOL0     H60703   5.375   7.533   6.226 -1.4640 -0.7318 -0.2174
  450MOL0     H60704   5.524   7.522   6.435 -0.3676  0.6152 -1.9415
  450MOL0     H60705   5.428   7.386   6.493  1.1499 -0.0633 -0.0713
  450MOL0     H60706   5.223   7.517   6.457 -0.9749  1.6951 -2.5714
  450MOL0     H60707   5.311   7.664   6.426 -2.7632 -0.1365  1.0885
  450MOL0     H60708   5.437   7.646   6.646  0.2051 -0.1113 -0.9377
  450MOL0     H60709   5.318   7.515   6.689 -0.4537  4.0628  5.8784
  450MOL0     H60710   5.173   7.637   6.871  1.5296 -0.6378  1.1402
  450MOL0     H60711   5.299   7.706   7.180  2.4098  4.8212 -0.3125
  450MOL0     H60712   5.145   7.790   7.170  0.8056  0.0643  0.5714
  450MOL0     H60713   5.151   7.628   7.101 -1.8258  0.7769  3.9004
  450MOL0     H60714   5.318   8.233   7.242  0.8653  0.3936 -0.9214
  450MOL0     H60715   5.394   8.336   7.455  1.4176 -1.6290  2.6267
  450MOL0     H60716   5.655   8.573   7.461  3.6112  0.1618  1.5120
  450MOL0     H60717   5.501   8.525   7.540  0.3556  0.2140 -1.8263
  450MOL0     H60718   5.767   8.527   7.663 -1.5642 -2.4334 -0.6829
  450MOL0     H60719   5.691   8.682   7.656  1.9718 -0.3260 -0.4406
  450MOL0     H60720   5.496   8.495   7.782 -0.3990 -0.7110 -0.4781
  450MOL0     H60721   5.564   8.651   7.831 -0.4968 -1.8557  4.0942
  450MOL0     H60722   5.726   8.384   7.855  0.6078 -0.3189  1.4520
  450MOL0     H60723   5.757   8.550   7.922 -1.8862  1.0491  1.4910
  450MOL0     H60724   5.511   8.420   7.992 -0.6781  2.5554  0.0720
  450MOL0     H60725   5.577   8.545   8.083 -0.0526 -0.9246  2.4440
  450MOL0     H60726   5.715   8.270   8.051  2.4479  0.2382  1.7878
  450MOL0     H60727   5.779   8.390   8.150  0.1202 -0.9219  0.0064
  450MOL0     H60728   5.518   8.226   8.200 -2.5197  1.4639  1.5876
  450MOL0     H60729   5.534   8.379   8.285  0.1237 -0.5249  1.4124
  450MOL0     H60730   5.745   8.293   8.388 -0.1346 -1.4741  2.8264
  450MOL0     H60731   5.747   8.159   8.271 -1.7550  0.7252 -0.6216
  450MOL0     H60732   5.798   8.244   7.381 -0.7129  0.4512 -1.1325
  450MOL0     H60733   5.726   8.090   7.202  1.3231 -0.4187  2.3377
  450MOL0     H60734   5.486   8.011   6.860 -0.8053 -0.0620  0.9365
  450MOL0     H60735   5.381   7.912   6.658 -2.7034 -2.5566 -1.4802
  450MOL0     H60736   4.801   7.465   5.448  2.0397 -2.7080  0.7009
  450MOL0     H60737   4.587   7.564   5.400  1.7337 -0.2489 -0.0794
  450MOL0     H60738   4.149   7.553   5.369 -2.0201 -2.7583 -0.3788
  450MOL0     H60739   3.941   7.662   5.331 -4.6211  1.3011 -3.1507
  450MOL0     H60740   3.730   7.597   5.133 -1.1135  0.5537  0.8598
  450MOL0     H60741   3.741   7.715   5.261  0.0913 -0.1447  0.4390
  450MOL0     H60742   3.515   7.726   5.193  1.3036  0.1020  0.3232
  450MOL0     H60743   3.564   7.725   5.035  1.8418  0.0108 -0.0856
  450MOL0     H60744   3.698   7.957   5.138 -0.0157  1.7388  1.1587
  450MOL0     H60745   3.530   7.953   5.215  1.8119  2.2283  0.5109
  450MOL0     H60746   3.589   7.935   4.915  2.0307 -0.8936  2.1427
  450MOL0     H60747   3.577   8.087   4.992  1.3665 -1.0832 -0.3139
  450MOL0     H60748   3.180   7.908   5.002  0.4766 -2.3267 -2.7307
  450MOL0     H60749   4.032   7.727   4.920 -4.9753  0.6355  1.0440
  450MOL0     H60750   4.257   7.628   4.950 -3.0284  0.3655 -1.7340
  451MOL0     O60751   5.238   1.005   4.687 -0.4406  0.4997  0.2481
  451MOL0     C60752   5.324   1.094   4.703  0.4193 -0.5916 -0.7169
  451MOL0     O60753   5.300   1.224   4.729  0.3686 -0.6535  0.1504
  451MOL0     C60754   5.173   1.269   4.751 -0.0870  0.1748  0.0165
  451MOL0     C60755   5.137   1.394   4.710 -0.1081  0.0653 -0.1559
  451MOL0     C60756   5.002   1.436   4.717 -0.2191  0.6665 -0.1197
  451MOL0     C60757   4.907   1.356   4.777 -0.8958  0.3178  0.0813
  451MOL0     O60758   4.786   1.412   4.776  0.3793 -0.0403  0.2989
  451MOL0     C60759   4.678   1.381   4.869 -1.0756 -0.1266  0.5968
  451MOL0     C60760   4.600   1.252   4.820  0.3115  0.4053  0.0336
  451MOL0     C60761   4.548   1.241   4.679  0.2636 -1.1251  1.0004
  451MOL0     C60762   4.408   1.169   4.674  0.1852 -0.2913 -0.2103
  451MOL0     C60763   4.349   1.201   4.532 -0.7999  0.6870  1.1773
  451MOL0     C60764   4.206   1.148   4.501 -0.4866 -0.1114  0.4438
  451MOL0     C60765   4.104   1.240   4.567  0.6527  0.2901  0.2377
  451MOL0     C60766   3.954   1.210   4.542 -0.2028  0.1558  0.3921
  451MOL0     N60767   3.908   1.097   4.616  0.5025  0.2503  0.3897
  451MOL0     C60768   3.893   1.095   4.749  0.5023  0.0395 -0.3611
  451MOL0     C60769   3.861   0.962   4.773 -0.0958  0.0242  1.4654
  451MOL0     C60770   3.829   0.908   4.909  0.4487 -0.8245 -1.0630
  451MOL0     C60771   3.940   0.906   5.010 -0.1622  1.1349  0.4664
  451MOL0     C60772   3.906   0.860   5.143  0.6022  0.9060  0.0630
  451MOL0     C60773   3.909   0.970   5.250  0.7681 -0.6606 -0.2420
  451MOL0     O60774   3.876   0.915   5.377 -0.2676  0.1825 -0.4041
  451MOL0     C60775   3.974   0.850   5.448  0.2040  0.8578  0.1471
  451MOL0     C60776   4.110   0.860   5.427 -1.2327 -0.8988 -0.3331
  451MOL0     C60777   4.205   0.787   5.509  0.1210 -0.2483  0.3335
  451MOL0     C60778   4.350   0.805   5.470  0.4270 -0.3100 -0.3019
  451MOL0     C60779   4.156   0.694   5.604 -0.2723  0.4413  0.8954
  451MOL0     C60780   4.240   0.598   5.683  0.2142 -0.1457 -0.3669
  451MOL0     O60781   4.181   0.529   5.789  0.7702  0.2561  0.1026
  451MOL0     C60782   4.257   0.438   5.864  0.1806  0.2132 -1.0339
  451MOL0     C60783   4.276   0.478   5.998  0.0470  0.4123 -0.4628
  451MOL0     C60784   4.371   0.409   6.078 -0.7776  0.6268 -0.8245
  451MOL0     C60785   4.445   0.294   6.033 -0.2315 -0.1465 -0.3303
  451MOL0     O60786   4.534   0.226   6.111  0.3928  0.3353 -0.0354
  451MOL0     C60787   4.491   0.086   6.137 -1.1390  0.3004  0.1904
  451MOL0     C60788   4.596  -0.018   6.128 -0.0240  0.6877  0.9587
  451MOL0     C60789   4.726   0.015   6.211 -0.2740 -1.1332 -0.1367
  451MOL0     C60790   4.806  -0.104   6.239  0.3642 -0.5186 -0.7264
  451MOL0     C60791   4.948  -0.063   6.296 -0.0783  0.4453 -0.7589
  451MOL0     C60792   5.017  -0.190   6.346 -0.5395  0.0033 -0.1145
  451MOL0     C60793   5.157  -0.177   6.407  0.3912 -0.5740  0.6313
  451MOL0     C60794   5.256  -0.129   6.298  0.0752 -0.2218 -0.2882
  451MOL0    Cl60795   5.421  -0.117   6.379 -0.7111 -0.1711  0.4461
  451MOL0     C60796   4.414   0.247   5.900  0.7555  1.1738 -0.3404
  451MOL0     C60797   4.319   0.318   5.821 -0.5205 -0.0638  0.5261
  451MOL0     O60798   4.360   0.580   5.645  0.3749 -0.3262 -0.5013
  451MOL0     C60799   4.013   0.687   5.618  0.2960  0.3514 -0.8134
  451MOL0     C60800   3.925   0.761   5.543  0.2085 -0.3912  0.0396
  451MOL0     N60801   3.869   0.883   4.651 -0.9523  0.0307  0.4911
  451MOL0     N60802   3.892   0.968   4.553 -0.0456  0.4027 -1.3258
  451MOL0     C60803   4.948   1.231   4.839 -0.1887 -1.3419  1.4171
  451MOL0     C60804   5.081   1.194   4.833 -0.8295  0.5539 -0.0011
  451MOL0     C60805   5.466   1.059   4.705  0.1101 -0.0361 -0.2735
  451MOL0     C60806   5.555   1.166   4.740  1.0602  0.4033 -0.2851
  451MOL0     C60807   5.693   1.142   4.730  0.0443 -1.0118 -0.7784
  451MOL0     C60808   5.746   1.009   4.722 -0.7688  0.0726  0.0301
  451MOL0     O60809   5.877   0.988   4.720  0.4653 -0.0571 -0.4885
  451MOL0     C60810   5.954   0.962   4.843  0.2178 -0.4505  0.5046
  451MOL0     C60811   6.055   1.081   4.872 -0.7216  0.7335 -1.3909
  451MOL0     C60812   6.119   1.151   4.744 -0.5820  0.1288 -0.5259
  451MOL0     C60813   6.116   1.300   4.748  0.3279  0.2595 -0.5839
  451MOL0     C60814   6.197   1.362   4.648 -1.2919 -0.4606  0.2008
  451MOL0     C60815   6.277   1.408   4.566  0.8010  0.6434  0.9040
  451MOL0     C60816   5.657   0.910   4.699  0.4828 -0.9504 -0.7299
  451MOL0     C60817   5.521   0.934   4.691  0.7511  0.0821 -0.3199
  451MOL0     H60818   5.217   1.448   4.659  0.3576 -0.6088 -0.1461
  451MOL0     H60819   4.971   1.537   4.691 -0.3136  1.1501  1.6860
  451MOL0     H60820   4.722   1.355   4.966 -2.6534 -2.0440  0.8696
  451MOL0     H60821   4.617   1.471   4.881  2.9460  3.2704 -1.6989
  451MOL0     H60822   4.662   1.162   4.828  0.8964  0.8597  0.7485
  451MOL0     H60823   4.517   1.231   4.888  2.0022 -1.9710  1.5042
  451MOL0     H60824   4.542   1.345   4.644  2.3933 -1.2997 -0.0502
  451MOL0     H60825   4.612   1.183   4.612  0.2224  0.0408 -0.0956
  451MOL0     H60826   4.427   1.063   4.692  3.3269  0.3298  0.8153
  451MOL0     H60827   4.335   1.207   4.746 -1.8497 -1.1054 -1.7445
  451MOL0     H60828   4.347   1.307   4.507  1.5412  0.5097 -0.0087
  451MOL0     H60829   4.421   1.157   4.462  1.1915 -1.6177  4.3803
  451MOL0     H60830   4.192   1.144   4.392 -1.8037 -1.5993  0.6402
  451MOL0     H60831   4.191   1.044   4.529  1.0486 -1.8090 -4.0836
  451MOL0     H60832   4.116   1.242   4.676  1.1403  1.1951  0.1775
  451MOL0     H60833   4.132   1.339   4.531  0.3651 -0.5147 -2.3483
  451MOL0     H60834   3.930   1.200   4.436 -1.1065 -0.6073  0.6537
  451MOL0     H60835   3.902   1.302   4.571 -2.7183 -0.6171 -1.3243
  451MOL0     H60836   3.900   1.183   4.812  2.4090  1.6708 -2.6513
  451MOL0     H60837   3.749   0.971   4.947  1.2677 -0.2089 -0.3035
  451MOL0     H60838   3.784   0.810   4.896  1.1719 -1.3814  0.4825
  451MOL0     H60839   3.997   1.000   5.016  1.9928 -0.0431 -0.3554
  451MOL0     H60840   4.010   0.826   4.986 -2.6880 -1.5733  1.5814
  451MOL0     H60841   3.978   0.781   5.167  0.8347  0.5965 -1.5230
  451MOL0     H60842   3.804   0.821   5.144  0.8472  0.2292  2.1282
  451MOL0     H60843   3.830   1.042   5.224  3.1266  1.4355 -2.1876
  451MOL0     H60844   3.993   1.041   5.245  2.3420 -1.9955  3.5764
  451MOL0     H60845   4.159   0.934   5.366 -2.8641 -0.1623 -0.8103
  451MOL0     H60846   4.420   0.789   5.552  0.7416  1.1289 -0.2723
  451MOL0     H60847   4.370   0.739   5.385  1.1478 -2.8427  1.6935
  451MOL0     H60848   4.366   0.911   5.447  2.6395 -0.0627  1.9131
  451MOL0     H60849   4.230   0.556   6.057 -2.7559 -2.0702  0.9029
  451MOL0     H60850   4.391   0.440   6.180  3.3268 -1.2950 -0.8315
  451MOL0     H60851   4.443   0.079   6.235 -0.4131 -1.4204  0.4432
  451MOL0     H60852   4.421   0.050   6.061 -0.3372 -0.2390 -0.3019
  451MOL0     H60853   4.551  -0.113   6.158 -2.3625  1.5596  0.4143
  451MOL0     H60854   4.633  -0.041   6.028 -1.4577  0.0374  0.5542
  451MOL0     H60855   4.706   0.078   6.299  2.5617 -1.8606  1.1437
  451MOL0     H60856   4.788   0.081   6.149  0.7497  0.4623  2.3947
  451MOL0     H60857   4.741  -0.172   6.295 -0.0721  2.7086  3.1525
  451MOL0     H60858   4.813  -0.156   6.143 -0.8878 -0.0716 -1.0739
  451MOL0     H60859   4.937   0.016   6.371 -1.5986 -0.7917  0.3958
  451MOL0     H60860   5.012  -0.016   6.221  0.9241  0.3332  0.0010
  451MOL0     H60861   4.956  -0.241   6.421 -1.8628 -0.8429 -1.7194
  451MOL0     H60862   5.022  -0.252   6.257  1.1121  0.1803 -0.1857
  451MOL0     H60863   5.190  -0.270   6.455  0.1235 -0.7134  0.5434
  451MOL0     H60864   5.164  -0.101   6.485 -1.4268  0.8417 -0.5232
  451MOL0     H60865   5.223  -0.038   6.247 -0.5518 -2.1340 -3.5264
  451MOL0     H60866   5.274  -0.209   6.226 -2.1319 -1.8106  0.8242
  451MOL0     H60867   4.461   0.159   5.857 -1.6688  0.7760 -2.4372
  451MOL0     H60868   4.308   0.286   5.718  0.6038 -1.2937  0.7771
  451MOL0     H60869   3.982   0.623   5.700  1.0117  1.4108  0.3243
  451MOL0     H60870   3.821   0.756   5.571  0.6583 -1.5572  1.7215
  451MOL0     H60871   4.879   1.170   4.897 -2.5659 -0.1267  0.0200
  451MOL0     H60872   5.104   1.103   4.886  0.4499  1.8625  1.8289
  451MOL0     H60873   5.520   1.266   4.762 -1.6406 -0.2254 -1.3252
  451MOL0     H60874   5.771   1.218   4.734 -0.2500 -0.7683  2.7107
  451MOL0     H60875   5.893   0.950   4.933  1.6411 -1.1019  1.4156
  451MOL0     H60876   6.002   0.864   4.832 -0.3513 -0.5041 -2.3237
  451MOL0     H60877   6.133   1.051   4.943 -1.7793  2.3268  0.5530
  451MOL0     H60878   6.001   1.158   4.928  0.4703 -1.6320  3.4736
  451MOL0     H60879   6.082   1.103   4.653  1.9538 -2.8327 -0.1742
  451MOL0     H60880   6.223   1.119   4.741 -0.4403  0.1224  2.2124
  451MOL0     H60881   6.153   1.341   4.842  3.2397 -1.8426 -0.6999
  451MOL0     H60882   6.016   1.330   4.714 -0.3792 -2.7351 -1.5089
  451MOL0     H60883   6.333   1.454   4.487  2.2647  2.0486  2.6649
  451MOL0     H60884   5.702   0.811   4.705 -1.1238 -1.6748 -0.1567
  451MOL0     H60885   5.461   0.846   4.666  2.2362 -1.2725  0.6745
  452MOL0     O60886   9.274   6.500   6.147  0.4560 -0.1329  0.8106
  452MOL0     C60887   9.311   6.407   6.213 -0.1242 -0.2512 -0.1133
  452MOL0     O60888   9.251   6.289   6.231  0.0743 -1.0437 -0.0813
  452MOL0     C60889   9.144   6.257   6.147  0.2485 -0.2943  0.3358
  452MOL0     C60890   9.018   6.318   6.136 -0.0868  0.3638 -0.3378
  452MOL0     C60891   8.929   6.270   6.034 -0.4156  0.2405 -0.1464
  452MOL0     C60892   8.954   6.153   5.959  0.2189  0.8869  0.0088
  452MOL0     O60893   8.864   6.097   5.866  0.8825 -0.4096 -0.6989
  452MOL0     C60894   8.741   6.177   5.848 -0.0483  0.6319 -0.6323
  452MOL0     C60895   8.658   6.111   5.737 -0.0798  0.1088  0.3792
  452MOL0     C60896   8.581   5.980   5.784  0.8180 -0.4527 -0.3030
  452MOL0     C60897   8.462   5.936   5.706 -0.3054  0.5086  0.3932
  452MOL0     C60898   8.348   6.042   5.686 -0.7232  0.0138 -0.0043
  452MOL0     C60899   8.226   5.990   5.605 -0.4037 -0.2012 -0.2922
  452MOL0     C60900   8.130   5.900   5.677 -0.1272  0.1215  0.3517
  452MOL0     C60901   8.028   5.961   5.768  0.7819 -0.0384 -0.4018
  452MOL0     N60902   7.923   6.034   5.697 -0.3202 -0.5955 -0.2015
  452MOL0     C60903   7.799   5.980   5.661  0.0107  0.2376 -0.1147
  452MOL0     C60904   7.714   6.083   5.656 -0.2615 -0.3885  0.4070
  452MOL0     C60905   7.573   6.087   5.603 -0.5364  0.0736  0.1037
  452MOL0     C60906   7.485   6.089   5.729 -0.7261  1.3134 -0.3554
  452MOL0     C60907   7.335   6.058   5.705  1.0039 -1.1759 -0.1916
  452MOL0     C60908   7.258   6.167   5.625  0.0325  0.3039 -0.2575
  452MOL0     O60909   7.262   6.145   5.484 -0.5304  0.1514 -0.3460
  452MOL0     C60910   7.243   6.266   5.410 -0.0655 -0.7692  0.2744
  452MOL0     C60911   7.214   6.389   5.467  0.1211 -0.5942  0.2145
  452MOL0     C60912   7.223   6.509   5.387  0.3092  0.8089 -0.7183
  452MOL0     C60913   7.174   6.635   5.462 -0.1439 -0.2784 -0.4847
  452MOL0     C60914   7.255   6.510   5.251  0.8714 -0.4997  0.2336
  452MOL0     C60915   7.268   6.637   5.159 -0.0213 -0.0845 -0.5634
  452MOL0     O60916   7.279   6.614   5.025  0.2584  0.2232 -0.7079
  452MOL0     C60917   7.231   6.704   4.941  0.6883 -0.2189 -0.0095
  452MOL0     C60918   7.109   6.771   4.967 -0.5408 -0.0886 -0.6431
  452MOL0     C60919   7.057   6.869   4.878 -0.3848  0.1087  0.2563
  452MOL0     C60920   7.133   6.899   4.768 -0.9190 -0.5322  0.0115
  452MOL0     O60921   7.085   7.001   4.685 -0.1962  0.0727 -0.2474
  452MOL0     C60922   7.154   7.014   4.557 -0.4714 -0.2842  0.3125
  452MOL0     C60923   7.069   7.105   4.467  0.4094  0.1086  0.6979
  452MOL0     C60924   7.074   7.242   4.537  0.6866  0.8345  0.5134
  452MOL0     C60925   6.980   7.347   4.474  0.0683  0.3148  0.3920
  452MOL0     C60926   7.014   7.494   4.520 -0.4028 -0.8933  0.0196
  452MOL0     C60927   6.898   7.598   4.510 -0.4570 -0.0525 -0.6696
  452MOL0     C60928   6.848   7.617   4.372  0.5219 -0.2856  0.4435
  452MOL0     C60929   6.733   7.717   4.347  0.4222 -0.2136 -0.7957
  452MOL0    Cl60930   6.796   7.879   4.390  0.1896 -0.0171 -0.1098
  452MOL0     C60931   7.253   6.837   4.745 -0.1411  0.1025 -0.0282
  452MOL0     C60932   7.301   6.742   4.834 -0.0077 -0.0494  0.0341
  452MOL0     O60933   7.277   6.746   5.219 -0.0595 -0.1759  0.7488
  452MOL0     C60934   7.281   6.381   5.195  0.7187 -0.6657  0.4249
  452MOL0     C60935   7.283   6.264   5.273  0.5058 -0.2921 -0.5252
  452MOL0     N60936   7.782   6.197   5.697  1.0702 -0.1086  0.6521
  452MOL0     N60937   7.905   6.170   5.712 -0.0418  0.3960  0.1109
  452MOL0     C60938   9.080   6.090   5.975 -0.5371 -1.0494 -0.4040
  452MOL0     C60939   9.185   6.159   6.056  0.1860  0.1901  0.1808
  452MOL0     C60940   9.425   6.438   6.300  0.0613  0.8733  0.0532
  452MOL0     C60941   9.466   6.573   6.295  0.5089 -0.3489  0.4244
  452MOL0     C60942   9.573   6.610   6.378  0.9013 -0.1484 -0.1877
  452MOL0     C60943   9.622   6.524   6.483  0.5864 -0.5865 -0.3776
  452MOL0     O60944   9.714   6.564   6.573 -0.1939 -0.7574  0.4364
  452MOL0     C60945   9.836   6.624   6.515 -1.1116 -0.3646 -0.7795
  452MOL0     C60946   9.949   6.534   6.463  0.1070 -0.4020 -0.1373
  452MOL0     C60947  10.004   6.439   6.585  0.6595  0.0103  0.6048
  452MOL0     C60948  10.026   6.298   6.540  0.5866 -0.4659 -0.8934
  452MOL0     C60949  10.119   6.299   6.424  0.1589  0.3310 -0.1158
  452MOL0     C60950  10.204   6.296   6.344  0.0681  0.0691 -0.4468
  452MOL0     C60951   9.568   6.390   6.495 -0.3766  0.4332  0.4855
  452MOL0     C60952   9.469   6.353   6.403 -0.8857  0.0745  0.8431
  452MOL0     H60953   9.013   6.404   6.202  2.4016  1.8397 -1.8803
  452MOL0     H60954   8.830   6.313   6.027 -0.6755 -0.1764  0.7481
  452MOL0     H60955   8.681   6.189   5.939 -0.7756  0.0124 -1.0175
  452MOL0     H60956   8.776   6.273   5.810 -0.1412  1.1088  0.4587
  452MOL0     H60957   8.587   6.183   5.693 -0.4987 -1.3809 -1.5232
  452MOL0     H60958   8.727   6.103   5.653 -0.4126 -0.8202  0.1812
  452MOL0     H60959   8.658   5.902   5.785  0.7250 -0.5922 -2.1472
  452MOL0     H60960   8.545   6.001   5.886  1.6323 -1.2956  0.1791
  452MOL0     H60961   8.496   5.923   5.603 -0.2713  0.8632  0.3566
  452MOL0     H60962   8.437   5.839   5.750  3.2413 -1.1010 -0.7492
  452MOL0     H60963   8.310   6.069   5.785 -1.0650  0.1682 -0.1782
  452MOL0     H60964   8.393   6.128   5.635  0.8251  0.9800  2.7860
  452MOL0     H60965   8.164   6.078   5.585 -1.4537 -1.1485 -1.3411
  452MOL0     H60966   8.260   5.930   5.520  1.6923 -0.9740  1.0333
  452MOL0     H60967   8.072   5.844   5.603  1.7358  0.1078 -1.1484
  452MOL0     H60968   8.195   5.837   5.738  0.1634  1.3665  1.3594
  452MOL0     H60969   8.083   6.023   5.839  3.3647 -1.3032 -1.2053
  452MOL0     H60970   7.969   5.883   5.818 -2.1089  0.0262 -3.3547
  452MOL0     H60971   7.774   5.875   5.646 -0.6756  0.3959 -0.1156
  452MOL0     H60972   7.536   6.167   5.539 -1.9608 -0.1090  0.6579
  452MOL0     H60973   7.539   5.996   5.552 -2.8514 -1.0400  3.2698
  452MOL0     H60974   7.492   6.187   5.777 -0.0762  1.6236 -1.0691
  452MOL0     H60975   7.517   6.012   5.801  1.1817  0.3407 -2.1452
  452MOL0     H60976   7.292   6.052   5.805  0.6463  2.3693  0.0106
  452MOL0     H60977   7.316   5.964   5.652 -3.0589  0.6392 -2.4184
  452MOL0     H60978   7.305   6.263   5.649 -2.2648  1.3813  0.2463
  452MOL0     H60979   7.154   6.174   5.659  0.5533  0.5557  1.3447
  452MOL0     H60980   7.184   6.391   5.571  2.6624  2.5184  1.0465
  452MOL0     H60981   7.141   6.612   5.564 -1.1818  1.0639 -0.4832
  452MOL0     H60982   7.252   6.710   5.476 -0.4288 -0.2457  1.0750
  452MOL0     H60983   7.084   6.675   5.414 -1.4503 -1.5223  0.8336
  452MOL0     H60984   7.041   6.752   5.049 -2.3283  1.7133 -1.6304
  452MOL0     H60985   6.962   6.921   4.884  0.2798  1.5569 -1.1374
  452MOL0     H60986   7.256   7.054   4.558 -0.6465  0.6605 -3.1840
  452MOL0     H60987   7.164   6.915   4.513  3.1468 -0.9740  2.2950
  452MOL0     H60988   7.127   7.101   4.374  4.3179 -1.1356  2.9555
  452MOL0     H60989   6.964   7.087   4.443  0.5980 -1.9317  1.2470
  452MOL0     H60990   7.177   7.271   4.519  0.6337  0.4919 -0.3968
  452MOL0     H60991   7.059   7.228   4.645  0.8073 -3.4482  0.1634
  452MOL0     H60992   6.978   7.349   4.365 -1.0105  0.2830  0.4038
  452MOL0     H60993   6.876   7.328   4.503 -0.4308  2.3214  0.1098
  452MOL0     H60994   7.102   7.521   4.460  1.1601 -0.8384  2.2232
  452MOL0     H60995   7.064   7.483   4.616  1.6536 -1.7933 -1.0860
  452MOL0     H60996   6.820   7.563   4.579  0.2553  1.0943  0.7866
  452MOL0     H60997   6.934   7.690   4.556 -0.5628 -0.7522  0.8835
  452MOL0     H60998   6.815   7.517   4.342 -0.7918 -0.5661  2.5807
  452MOL0     H60999   6.938   7.650   4.319 -0.8573  2.3672 -0.4693
  452MOL0     H61000   6.644   7.698   4.407  0.0936  1.5335 -0.6680
  452MOL0     H61001   6.702   7.707   4.242  2.1215 -0.2283 -1.3386
  452MOL0     H61002   7.324   6.894   4.685 -1.6634  3.3341  0.9960
  452MOL0     H61003   7.399   6.696   4.821 -0.5352 -0.6948 -2.1942
  452MOL0     H61004   7.314   6.367   5.092  3.4320  0.8516  0.9840
  452MOL0     H61005   7.318   6.173   5.224  0.5021 -0.6687  0.1602
  452MOL0     H61006   9.093   6.001   5.915 -0.9648 -2.1684  1.1159
  452MOL0     H61007   9.283   6.115   6.072  0.4094  0.7565  0.3986
  452MOL0     H61008   9.435   6.646   6.221  0.7656  0.6553  1.2833
  452MOL0     H61009   9.610   6.712   6.376 -0.0366  0.2571  1.5465
  452MOL0     H61010   9.816   6.690   6.429 -0.8238 -1.4420 -1.7023
  452MOL0     H61011   9.878   6.687   6.594 -2.5002  1.1269 -1.1566
  452MOL0     H61012  10.037   6.583   6.419  0.0958 -0.4570 -0.2227
  452MOL0     H61013   9.912   6.478   6.376 -1.3227  1.4208 -0.7824
  452MOL0     H61014   9.934   6.445   6.668  0.1891 -0.3616  0.2398
  452MOL0     H61015  10.099   6.479   6.621  0.2797  1.2921  0.2313
  452MOL0     H61016   9.929   6.263   6.505  0.0806  0.5794 -0.5737
  452MOL0     H61017  10.073   6.242   6.622  2.5886  1.5417 -0.5603
  452MOL0     H61018  10.283   6.291   6.272 -0.8180  1.3505 -1.5820
  452MOL0     H61019   9.594   6.324   6.577 -1.7751 -3.0501 -1.6870
  452MOL0     H61020   9.411   6.261   6.412 -0.1578 -0.5806 -0.6414
  453MOL0     O61021   5.386   4.438   5.034 -0.2671 -0.3240 -0.9795
  453MOL0     C61022   5.369   4.557   5.007  0.3624 -0.0681 -0.9628
  453MOL0     O61023   5.288   4.608   4.911  0.2968  0.1068  0.1467
  453MOL0     C61024   5.242   4.540   4.801 -0.4528  0.4597  0.3084
  453MOL0     C61025   5.284   4.408   4.757  0.0847  0.6967 -0.0649
  453MOL0     C61026   5.210   4.354   4.651  0.1899  0.3278 -0.3049
  453MOL0     C61027   5.104   4.422   4.596 -0.0719 -0.9039  0.9097
  453MOL0     O61028   5.024   4.372   4.501  0.4437  0.7096  0.1599
  453MOL0     C61029   4.976   4.235   4.515  0.7101  0.1781 -0.2393
  453MOL0     C61030   4.885   4.220   4.395  0.5952 -0.6514  0.3211
  453MOL0     C61031   4.752   4.301   4.409 -0.8589  0.1429  0.2511
  453MOL0     C61032   4.710   4.362   4.275 -0.1151 -0.5324  0.2163
  453MOL0     C61033   4.589   4.450   4.297  0.3164  0.0373 -0.2151
  453MOL0     C61034   4.476   4.365   4.364  0.3736  0.3407  0.0520
  453MOL0     C61035   4.460   4.225   4.305  1.0787 -0.0675  1.4298
  453MOL0     C61036   4.369   4.239   4.185  0.4925  0.3900 -0.2953
  453MOL0     N61037   4.365   4.119   4.103 -0.6426  0.7489 -0.3608
  453MOL0     C61038   4.449   4.056   4.009  0.0841 -0.7008 -0.1202
  453MOL0     C61039   4.398   3.933   3.988  0.2564 -1.0299 -0.3149
  453MOL0     C61040   4.448   3.837   3.885  0.2250 -0.0172 -0.6789
  453MOL0     C61041   4.574   3.755   3.942  0.5436 -0.2895  0.6514
  453MOL0     C61042   4.651   3.693   3.826  0.1735 -0.1387 -1.0878
  453MOL0     C61043   4.579   3.592   3.727  0.2979  0.0497 -0.2101
  453MOL0     O61044   4.662   3.564   3.612  0.3292  0.0645 -0.2674
  453MOL0     C61045   4.609   3.491   3.502 -0.6779 -0.1870 -1.2568
  453MOL0     C61046   4.518   3.387   3.515  0.2176 -0.0088 -0.8211
  453MOL0     C61047   4.472   3.329   3.389 -0.9165  0.2169 -0.5199
  453MOL0     C61048   4.362   3.220   3.401  0.0879 -0.9561 -0.2177
  453MOL0     C61049   4.518   3.378   3.267  0.9206  0.7887  0.3343
  453MOL0     C61050   4.466   3.324   3.135  0.7892  1.0561 -0.4984
  453MOL0     O61051   4.550   3.248   3.055 -0.3742  0.2786 -0.3721
  453MOL0     C61052   4.546   3.261   2.922 -0.3562  0.3603  0.6325
  453MOL0     C61053   4.666   3.284   2.841  0.1153  0.0144 -0.0833
  453MOL0     C61054   4.665   3.275   2.705 -0.1748 -0.1316 -0.5543
  453MOL0     C61055   4.558   3.222   2.635  0.1249  0.4994  0.6177
  453MOL0     O61056   4.593   3.217   2.506  0.2295  0.7201  0.8394
  453MOL0     C61057   4.502   3.142   2.428  0.2732  0.5997  0.2334
  453MOL0     C61058   4.531   3.164   2.279  0.7017  1.5291 -0.0473
  453MOL0     C61059   4.403   3.167   2.190  0.2853 -0.3943  0.1863
  453MOL0     C61060   4.305   3.041   2.208 -0.0589 -0.0244 -0.0890
  453MOL0     C61061   4.345   2.930   2.106 -0.2039 -0.0907 -0.1503
  453MOL0     C61062   4.258   2.806   2.136 -0.4268  0.1815  0.0852
  453MOL0     C61063   4.291   2.708   2.026 -0.1364  1.1044  0.1379
  453MOL0     C61064   4.214   2.576   2.062  0.1941 -0.1008 -0.4662
  453MOL0    Cl61065   4.081   2.588   2.187 -0.1273 -0.0164 -0.1203
  453MOL0     C61066   4.437   3.208   2.697 -0.3050 -0.4458 -0.4651
  453MOL0     C61067   4.434   3.214   2.842 -0.1878 -1.0306  0.1091
  453MOL0     O61068   4.346   3.346   3.109  0.2401  0.0927 -0.1354
  453MOL0     C61069   4.618   3.475   3.264 -0.9322  0.3006 -0.2880
  453MOL0     C61070   4.669   3.530   3.382 -0.1631  0.8363 -0.3377
  453MOL0     N61071   4.281   3.920   4.067 -0.1756 -0.6679 -0.4988
  453MOL0     N61072   4.261   4.031   4.131  0.1375  0.2296  0.0849
  453MOL0     C61073   5.063   4.540   4.644  0.1594 -0.1415  0.1596
  453MOL0     C61074   5.129   4.603   4.745 -0.3489 -0.0367 -0.5339
  453MOL0     C61075   5.418   4.660   5.099 -0.1360  0.4138 -0.8591
  453MOL0     C61076   5.506   4.618   5.203  0.4472  0.0634 -1.4334
  453MOL0     C61077   5.560   4.711   5.292 -0.1419  0.4626  0.1484
  453MOL0     C61078   5.535   4.851   5.275  0.2038  0.8586  0.0301
  453MOL0     O61079   5.608   4.944   5.346 -0.3906 -0.5264  0.6544
  453MOL0     C61080   5.541   5.016   5.448 -0.4405  0.0959 -1.4351
  453MOL0     C61081   5.607   5.151   5.480  0.8330 -0.4037  0.3693
  453MOL0     C61082   5.741   5.125   5.552 -0.5953 -0.4488  0.6757
  453MOL0     C61083   5.836   5.250   5.528  0.1297  0.2768 -0.3901
  453MOL0     C61084   5.761   5.378   5.568 -0.2253  1.0876  0.1790
  453MOL0     C61085   5.717   5.483   5.598 -0.6368  0.3283 -0.5358
  453MOL0     C61086   5.451   4.893   5.170  0.2192 -0.6535 -0.2882
  453MOL0     C61087   5.393   4.796   5.082 -0.7973 -0.3774  0.3752
  453MOL0     H61088   5.372   4.363   4.803 -0.4825 -0.3122  0.0621
  453MOL0     H61089   5.244   4.259   4.611 -2.1630 -0.5484 -0.3618
  453MOL0     H61090   5.053   4.159   4.499  0.0861  0.0632 -3.5791
  453MOL0     H61091   4.903   4.214   4.593  0.1497 -1.7699 -1.2336
  453MOL0     H61092   4.941   4.263   4.312  2.5802 -1.3513  1.2485
  453MOL0     H61093   4.851   4.118   4.378 -2.5274  0.4880 -1.1434
  453MOL0     H61094   4.672   4.237   4.448 -3.3304  2.1379 -1.2609
  453MOL0     H61095   4.763   4.384   4.480  1.2600  0.5940 -0.5247
  453MOL0     H61096   4.792   4.428   4.242 -0.7184  1.3724  2.3043
  453MOL0     H61097   4.698   4.287   4.196  1.5260  0.0601 -0.6530
  453MOL0     H61098   4.613   4.529   4.368 -1.4220 -0.1093  0.5871
  453MOL0     H61099   4.558   4.499   4.204  0.1077  0.7720  0.2333
  453MOL0     H61100   4.502   4.349   4.469  1.5047  1.8243  0.0255
  453MOL0     H61101   4.377   4.412   4.364  0.8773  1.6736  3.4050
  453MOL0     H61102   4.551   4.166   4.288  0.2333 -0.5837 -2.1371
  453MOL0     H61103   4.408   4.172   4.384  0.4693  2.5859  2.9411
  453MOL0     H61104   4.409   4.312   4.113 -1.0868  0.4889 -1.1259
  453MOL0     H61105   4.267   4.270   4.211  1.4598  3.3820  0.3470
  453MOL0     H61106   4.534   4.098   3.957  0.9373  2.0002  3.1004
  453MOL0     H61107   4.364   3.775   3.855  0.2401  1.1528 -3.3948
  453MOL0     H61108   4.475   3.898   3.798  1.9382 -0.9157 -0.8341
  453MOL0     H61109   4.546   3.668   4.002 -0.5473 -1.6118 -1.6539
  453MOL0     H61110   4.649   3.818   3.991  0.4265 -0.6211  1.2710
  453MOL0     H61111   4.738   3.646   3.872 -1.1426 -3.3392 -1.5621
  453MOL0     H61112   4.689   3.775   3.764  1.0678  0.0699 -0.2810
  453MOL0     H61113   4.480   3.627   3.699 -0.7703 -1.8741  0.9694
  453MOL0     H61114   4.563   3.502   3.786  0.0089  0.5618  0.5116
  453MOL0     H61115   4.481   3.346   3.609 -0.3906 -1.0763 -1.5131
  453MOL0     H61116   4.297   3.256   3.481  1.0003  1.9038 -0.6344
  453MOL0     H61117   4.308   3.191   3.311 -1.1759  2.2666 -0.6415
  453MOL0     H61118   4.415   3.140   3.453  0.6575  1.5795  3.4960
  453MOL0     H61119   4.757   3.300   2.899 -1.7838  2.3269  2.4886
  453MOL0     H61120   4.756   3.286   2.646 -0.5697  1.6971 -0.8755
  453MOL0     H61121   4.495   3.036   2.452 -3.1857  0.4759 -0.6623
  453MOL0     H61122   4.400   3.182   2.441 -0.1322 -0.3265 -0.0199
  453MOL0     H61123   4.582   3.258   2.255 -0.9654  2.3547 -0.4679
  453MOL0     H61124   4.599   3.083   2.251 -0.9671 -0.1657  0.6438
  453MOL0     H61125   4.425   3.183   2.084 -1.8885  1.1374 -0.1067
  453MOL0     H61126   4.350   3.257   2.223  3.8975  2.0124 -0.0245
  453MOL0     H61127   4.325   3.010   2.311 -1.4237 -0.7197 -0.0259
  453MOL0     H61128   4.201   3.062   2.184 -0.9446 -1.5393  2.1852
  453MOL0     H61129   4.451   2.904   2.112 -0.0077  0.8339  0.6102
  453MOL0     H61130   4.331   2.968   2.005  1.2443  0.5608 -0.1316
  453MOL0     H61131   4.281   2.773   2.238  1.0462  2.0694  0.4322
  453MOL0     H61132   4.150   2.819   2.137 -0.6462 -0.9066 -2.3375
  453MOL0     H61133   4.395   2.693   1.997 -0.2095  1.6505 -0.4264
  453MOL0     H61134   4.244   2.749   1.936  1.0652  0.0230 -1.0339
  453MOL0     H61135   4.280   2.502   2.107 -0.0068  0.1096  0.1853
  453MOL0     H61136   4.174   2.542   1.966 -0.8002  4.7213 -2.0687
  453MOL0     H61137   4.339   3.189   2.655 -1.2601 -4.6905  2.8892
  453MOL0     H61138   4.334   3.193   2.880 -0.6087  2.3521  1.1682
  453MOL0     H61139   4.637   3.502   3.160 -2.3814  1.4061 -0.2927
  453MOL0     H61140   4.747   3.605   3.382  2.1983 -1.4469  1.2327
  453MOL0     H61141   4.980   4.592   4.597  0.7103 -0.2254 -0.9365
  453MOL0     H61142   5.083   4.685   4.799  0.1752  0.5714 -1.0033
  453MOL0     H61143   5.531   4.513   5.216 -0.4658  0.0748  0.9087
  453MOL0     H61144   5.608   4.663   5.377 -2.1057 -0.2870  0.9067
  453MOL0     H61145   5.439   5.036   5.414 -0.8631  1.0637  0.2942
  453MOL0     H61146   5.538   4.964   5.544 -0.9372  0.2039 -1.3866
  453MOL0     H61147   5.542   5.222   5.531  2.1441  0.4226  0.9541
  453MOL0     H61148   5.609   5.204   5.384 -1.2451  2.4678  1.7533
  453MOL0     H61149   5.786   5.031   5.519  2.4722  1.0659  0.1540
  453MOL0     H61150   5.716   5.106   5.657 -1.4087 -1.5094  0.3104
  453MOL0     H61151   5.870   5.247   5.424 -1.0287  2.2551 -0.8772
  453MOL0     H61152   5.922   5.237   5.594 -0.9102  1.8537  1.4034
  453MOL0     H61153   5.702   5.576   5.649  3.2188  0.4035  0.7642
  453MOL0     H61154   5.438   4.999   5.148 -0.8111 -0.5246  0.8331
  453MOL0     H61155   5.340   4.835   4.996 -0.5239  3.3805  1.7202
  454MOL0     O61156   2.885   7.111   5.898  0.4889  0.2619 -0.1373
  454MOL0     C61157   2.817   7.045   5.823 -0.2068  0.0606  0.7347
  454MOL0     O61158   2.820   6.911   5.816  0.1806  0.0092 -0.6842
  454MOL0     C61159   2.914   6.840   5.892 -0.2840 -0.1201  0.3235
  454MOL0     C61160   2.874   6.750   5.982 -0.4777  0.4613 -0.0772
  454MOL0     C61161   2.964   6.665   6.041 -0.5981  0.2280  0.1702
  454MOL0     C61162   3.108   6.667   6.014 -0.9661 -0.0255  0.4273
  454MOL0     O61163   3.186   6.577   6.080 -0.2544  0.5804 -0.0523
  454MOL0     C61164   3.331   6.582   6.073 -0.0417  0.2122  0.3743
  454MOL0     C61165   3.400   6.446   6.069  0.1202  0.2413  0.6389
  454MOL0     C61166   3.546   6.451   6.122  0.4393  0.0843  0.1104
  454MOL0     C61167   3.587   6.305   6.171 -0.0305  0.0232  0.7320
  454MOL0     C61168   3.711   6.301   6.245 -0.0006 -0.4372 -0.1128
  454MOL0     C61169   3.703   6.353   6.390 -0.5780  0.6641  0.5567
  454MOL0     C61170   3.844   6.367   6.452 -1.6245  0.3055  0.0419
  454MOL0     C61171   3.861   6.385   6.603  1.1862 -0.2085 -0.4224
  454MOL0     N61172   3.731   6.448   6.662 -0.1815  0.1805 -0.8379
  454MOL0     C61173   3.625   6.376   6.719 -1.0115  0.1163 -0.2954
  454MOL0     C61174   3.527   6.462   6.718  0.0693  0.2608  0.0878
  454MOL0     C61175   3.387   6.427   6.746 -0.2097 -1.0201  0.1453
  454MOL0     C61176   3.315   6.322   6.646 -0.5125  0.0263  0.0106
  454MOL0     C61177   3.178   6.307   6.713  0.1953 -0.1640  1.3629
  454MOL0     C61178   3.069   6.230   6.631  0.2408  0.2388  0.2075
  454MOL0     O61179   3.002   6.314   6.538  0.0533 -0.1672 -1.2166
  454MOL0     C61180   2.896   6.395   6.586  0.2086  0.9143 -0.3501
  454MOL0     C61181   2.869   6.500   6.505 -0.2930 -0.1924  0.5836
  454MOL0     C61182   2.749   6.589   6.523 -0.1290 -0.5670 -0.5654
  454MOL0     C61183   2.714   6.701   6.432 -0.8601  0.7303  0.1659
  454MOL0     C61184   2.678   6.577   6.638 -0.9362 -0.6670 -1.0609
  454MOL0     C61185   2.573   6.667   6.698  0.2205  1.1788 -0.7558
  454MOL0     O61186   2.584   6.688   6.828 -0.6465 -0.1384 -0.4098
  454MOL0     C61187   2.472   6.728   6.907 -0.1029 -0.2253 -0.8779
  454MOL0     C61188   2.415   6.634   6.994  0.0329 -0.4249 -0.0726
  454MOL0     C61189   2.314   6.674   7.077 -0.2912  0.9462 -0.0738
  454MOL0     C61190   2.260   6.799   7.068  0.0406 -0.1875 -0.4551
  454MOL0     O61191   2.159   6.833   7.148  0.7935  0.2743  0.2954
  454MOL0     C61192   2.028   6.861   7.098  1.1829 -1.0334  0.2889
  454MOL0     C61193   2.023   7.000   7.041  0.6519 -0.1196 -0.8524
  454MOL0     C61194   1.880   7.050   7.065 -0.1082  0.2226 -0.1589
  454MOL0     C61195   1.772   6.985   6.971 -0.0145  0.4971 -0.1749
  454MOL0     C61196   1.638   7.045   6.983 -0.3625 -0.4307 -0.3585
  454MOL0     C61197   1.537   6.967   6.891  1.2201  1.0918  1.2621
  454MOL0     C61198   1.416   7.059   6.869  0.6323  0.4683  0.3322
  454MOL0     C61199   1.332   7.030   6.746 -0.7181 -0.0591  0.8754
  454MOL0    Cl61200   1.421   7.017   6.593  0.0843 -0.2546  0.2239
  454MOL0     C61201   2.328   6.897   6.993 -0.6575 -0.1586  0.3162
  454MOL0     C61202   2.439   6.860   6.910  0.6443  0.0745 -0.5267
  454MOL0     O61203   2.486   6.711   6.629 -0.5984  0.1405  0.8563
  454MOL0     C61204   2.703   6.461   6.720  0.1703 -0.6736  0.3742
  454MOL0     C61205   2.811   6.368   6.695 -0.0663  0.2944  0.2437
  454MOL0     N61206   3.568   6.582   6.663  0.9308  0.7243 -0.5468
  454MOL0     N61207   3.684   6.566   6.619 -0.7692  0.3024  0.0455
  454MOL0     C61208   3.150   6.754   5.920  0.1265  0.3777 -0.1285
  454MOL0     C61209   3.052   6.841   5.861  0.2397 -0.3162  0.5660
  454MOL0     C61210   2.736   7.103   5.716 -0.2453  0.7069  0.6558
  454MOL0     C61211   2.776   7.216   5.652  0.1267 -0.7632  0.0813
  454MOL0     C61212   2.727   7.254   5.529  0.7207  0.6588 -0.7965
  454MOL0     C61213   2.648   7.169   5.454  0.9027 -0.3189  0.4561
  454MOL0     O61214   2.601   7.193   5.326 -0.0585 -0.1152 -0.2429
  454MOL0     C61215   2.591   7.329   5.286  0.0251  0.9913  0.8143
  454MOL0     C61216   2.479   7.335   5.181  0.0199  0.3173  0.0326
  454MOL0     C61217   2.473   7.469   5.104 -0.5617  0.2167 -0.1328
  454MOL0     C61218   2.327   7.511   5.086 -0.5126  0.7443 -0.3606
  454MOL0     C61219   2.235   7.415   5.025 -0.3199  0.1448 -0.0388
  454MOL0     C61220   2.155   7.333   4.982  0.1583 -0.9487 -0.4003
  454MOL0     C61221   2.599   7.059   5.521  0.2654  0.0672  0.5669
  454MOL0     C61222   2.643   7.028   5.651  0.7353  0.0187 -0.2206
  454MOL0     H61223   2.769   6.755   6.010 -0.6238  2.3072 -0.7700
  454MOL0     H61224   2.926   6.596   6.116  0.8291  1.1313  1.7985
  454MOL0     H61225   3.376   6.647   5.997  1.5718 -1.6599 -0.3848
  454MOL0     H61226   3.371   6.614   6.170 -0.2757 -1.5673  1.0964
  454MOL0     H61227   3.345   6.374   6.131  1.7529  1.1627  3.3226
  454MOL0     H61228   3.403   6.409   5.966  0.9616 -0.3039  0.8509
  454MOL0     H61229   3.621   6.464   6.044  3.1983 -0.8639  2.4302
  454MOL0     H61230   3.558   6.524   6.202  1.3622  2.5825 -2.1550
  454MOL0     H61231   3.511   6.266   6.238 -0.0787  1.4651  1.5631
  454MOL0     H61232   3.587   6.241   6.083  0.2789 -0.8803  1.3790
  454MOL0     H61233   3.761   6.204   6.253 -0.2804 -0.4346  2.2638
  454MOL0     H61234   3.777   6.364   6.185 -0.5085 -0.2526 -0.4880
  454MOL0     H61235   3.649   6.449   6.385 -1.7563 -0.0094 -0.4029
  454MOL0     H61236   3.636   6.277   6.430 -0.1179  0.1398  0.3344
  454MOL0     H61237   3.907   6.286   6.416  1.2282  3.0738 -1.7210
  454MOL0     H61238   3.893   6.456   6.411  2.6772 -1.8477 -0.0505
  454MOL0     H61239   3.946   6.453   6.615  0.8993  0.7253 -3.0114
  454MOL0     H61240   3.876   6.284   6.642  1.5585 -0.8754 -2.1698
  454MOL0     H61241   3.622   6.274   6.753  0.4246  0.3345  0.5739
  454MOL0     H61242   3.390   6.376   6.842 -0.2687  1.8135  1.7796
  454MOL0     H61243   3.331   6.522   6.750  2.2892  0.5275  0.3541
  454MOL0     H61244   3.365   6.225   6.647  0.9676  0.7618  0.3486
  454MOL0     H61245   3.308   6.356   6.542 -2.0029 -1.1405 -0.3039
  454MOL0     H61246   3.145   6.410   6.730  0.7330  0.3818 -0.6359
  454MOL0     H61247   3.181   6.249   6.806  0.8760 -1.8910  0.2959
  454MOL0     H61248   2.999   6.175   6.694  0.5956  0.6181  0.9528
  454MOL0     H61249   3.118   6.149   6.578  1.6246  1.5359 -0.5905
  454MOL0     H61250   2.932   6.514   6.418 -0.8600 -0.4410  0.1209
  454MOL0     H61251   2.615   6.686   6.390 -0.8986  0.7521  0.2474
  454MOL0     H61252   2.722   6.793   6.491  1.1456 -1.2752  3.3232
  454MOL0     H61253   2.789   6.719   6.354  0.2013 -1.5734  0.5587
  454MOL0     H61254   2.461   6.540   7.022  2.0113  0.7208  0.6574
  454MOL0     H61255   2.269   6.595   7.137  0.5435 -0.3726 -1.1427
  454MOL0     H61256   2.000   6.784   7.025  3.0668 -0.9705 -0.5541
  454MOL0     H61257   1.959   6.850   7.183  0.5124 -0.6844 -0.2037
  454MOL0     H61258   2.086   7.072   7.095 -0.3281  0.7101 -0.7900
  454MOL0     H61259   2.049   7.016   6.936  0.7593  0.9875 -0.6693
  454MOL0     H61260   1.866   7.154   7.032 -0.7545 -0.1147 -0.9832
  454MOL0     H61261   1.858   7.044   7.172  0.9462 -3.5268 -0.0246
  454MOL0     H61262   1.793   7.009   6.867  1.2204  2.9142  0.5462
  454MOL0     H61263   1.779   6.876   6.969  2.4773  0.6020 -0.1837
  454MOL0     H61264   1.655   7.148   6.952  0.7213 -0.1017  1.1833
  454MOL0     H61265   1.599   7.030   7.084  2.7903 -0.0055  1.0685
  454MOL0     H61266   1.583   6.943   6.794 -2.1936  0.6543 -0.3922
  454MOL0     H61267   1.502   6.874   6.935 -2.3838  1.0730 -1.1581
  454MOL0     H61268   1.445   7.164   6.871  0.5553  0.5058 -0.2144
  454MOL0     H61269   1.352   7.037   6.955  1.5414 -2.1939  0.4109
  454MOL0     H61270   1.255   7.107   6.739 -0.0401  0.6006  0.5122
  454MOL0     H61271   1.279   6.935   6.755  1.0763 -0.9959  2.4911
  454MOL0     H61272   2.290   6.999   7.003 -1.4831 -0.3550 -0.6815
  454MOL0     H61273   2.490   6.935   6.850  1.8879 -0.8484 -0.6820
  454MOL0     H61274   2.637   6.448   6.805  1.4953  1.1599  1.7727
  454MOL0     H61275   2.816   6.282   6.760  1.3064  0.1065 -0.0775
  454MOL0     H61276   3.251   6.769   5.883  1.8322 -0.1332  3.8130
  454MOL0     H61277   3.076   6.919   5.789 -1.3560 -0.9636 -0.7525
  454MOL0     H61278   2.850   7.277   5.703  0.3002 -1.7869  1.0903
  454MOL0     H61279   2.756   7.354   5.500 -2.1542  2.1137  0.8838
  454MOL0     H61280   2.561   7.396   5.366 -1.0723  1.0425  0.3779
  454MOL0     H61281   2.687   7.361   5.244  0.4433 -0.2747  0.7459
  454MOL0     H61282   2.388   7.312   5.237 -1.0204  0.2371 -1.6015
  454MOL0     H61283   2.497   7.254   5.109 -3.1837 -0.4845 -0.0124
  454MOL0     H61284   2.526   7.461   5.008  1.9447  0.9484  1.1022
  454MOL0     H61285   2.518   7.556   5.153  0.1482 -0.2497  0.0459
  454MOL0     H61286   2.318   7.608   5.035  2.8287  2.4554  1.9046
  454MOL0     H61287   2.291   7.523   5.189 -0.9336 -1.6496 -0.1809
  454MOL0     H61288   2.087   7.261   4.942 -0.3134  0.0110 -1.3918
  454MOL0     H61289   2.549   6.984   5.460 -3.8821 -1.9592  5.7292
  454MOL0     H61290   2.594   6.941   5.695 -0.3921 -0.0258 -1.5007
  455MOL0     O61291   5.394   5.864   3.329  0.1709 -0.5990 -0.2461
  455MOL0     C61292   5.409   5.952   3.410 -0.7614 -0.2273  0.0279
  455MOL0     O61293   5.310   6.017   3.474 -0.1536  0.1411 -0.5251
  455MOL0     C61294   5.181   5.993   3.432  1.0022  0.2960 -0.0156
  455MOL0     C61295   5.127   6.077   3.337 -0.1357  0.1300  0.0659
  455MOL0     C61296   5.002   6.058   3.281 -0.2908 -0.3818 -0.5008
  455MOL0     C61297   4.922   5.963   3.345  0.4227  0.2057 -0.2121
  455MOL0     O61298   4.791   5.974   3.303  0.0760  0.2660  0.4546
  455MOL0     C61299   4.706   5.864   3.322  0.5840 -0.0373  0.7565
  455MOL0     C61300   4.573   5.893   3.249 -1.1001  0.1701 -0.0571
  455MOL0     C61301   4.570   5.865   3.100  0.3817 -0.4798  0.1545
  455MOL0     C61302   4.464   5.961   3.030  0.1380  0.0597 -0.3603
  455MOL0     C61303   4.460   5.934   2.873 -0.3775 -0.2173 -0.5119
  455MOL0     C61304   4.372   5.810   2.837 -0.0685  0.0366  0.6603
  455MOL0     C61305   4.354   5.800   2.685  1.0774  0.3603  0.6660
  455MOL0     C61306   4.475   5.766   2.600  0.0195  0.4279 -0.1720
  455MOL0     N61307   4.576   5.663   2.640  0.0469 -0.5049 -0.3802
  455MOL0     C61308   4.647   5.651   2.760  0.2069 -0.9149 -1.1245
  455MOL0     C61309   4.719   5.540   2.726  0.4681 -0.0194  0.3612
  455MOL0     C61310   4.809   5.479   2.829  0.5667 -0.2374 -0.2902
  455MOL0     C61311   4.936   5.568   2.843 -0.2644 -0.0687 -0.2823
  455MOL0     C61312   4.932   5.652   2.972 -0.1761 -0.0358 -0.6466
  455MOL0     C61313   5.072   5.725   3.003 -0.4783 -0.1760 -0.0681
  455MOL0     O61314   5.099   5.809   2.890  0.2988  0.0150 -0.4998
  455MOL0     C61315   5.005   5.906   2.856 -0.2301 -1.9319  0.1335
  455MOL0     C61316   4.922   5.988   2.933  0.5027 -0.6104 -0.2506
  455MOL0     C61317   4.836   6.087   2.887  0.1633 -0.1836  0.2640
  455MOL0     C61318   4.744   6.157   2.984  1.0266  0.5261  0.6602
  455MOL0     C61319   4.843   6.122   2.751  0.4491  0.5467  0.0263
  455MOL0     C61320   4.753   6.220   2.679 -0.4916 -0.2754 -0.1494
  455MOL0     O61321   4.689   6.173   2.565  0.8548 -0.4042 -0.0483
  455MOL0     C61322   4.608   6.254   2.492 -0.4116 -0.5064  0.3677
  455MOL0     C61323   4.626   6.254   2.350  0.2268 -0.8173 -0.7684
  455MOL0     C61324   4.533   6.317   2.262  0.3595  0.2019 -0.6117
  455MOL0     C61325   4.414   6.371   2.318 -0.4877  0.3323 -0.2964
  455MOL0     O61326   4.320   6.433   2.239  0.3811  0.0524 -0.5997
  455MOL0     C61327   4.282   6.564   2.298 -0.4764 -0.4407  0.0078
  455MOL0     C61328   4.134   6.568   2.331  0.8369  1.4380  0.0953
  455MOL0     C61329   4.073   6.694   2.383 -0.6979 -0.9045 -0.0747
  455MOL0     C61330   3.913   6.695   2.381 -0.1999 -0.6025 -0.4151
  455MOL0     C61331   3.848   6.794   2.479 -0.7028 -0.8956  0.0102
  455MOL0     C61332   3.881   6.758   2.630  0.3206 -0.0604  0.2492
  455MOL0     C61333   3.805   6.845   2.728  1.5687 -0.8675  0.7787
  455MOL0     C61334   3.838   6.797   2.871 -0.6341 -0.1669 -0.3152
  455MOL0    Cl61335   3.718   6.668   2.907 -0.2414 -0.7739  0.1486
  455MOL0     C61336   4.403   6.371   2.464  0.0943 -0.4867  0.8697
  455MOL0     C61337   4.502   6.318   2.550 -0.0883  0.1169 -0.5736
  455MOL0     O61338   4.732   6.326   2.738  0.7738 -0.0392  0.2058
  455MOL0     C61339   4.929   6.040   2.682 -0.0907 -0.0969  0.3893
  455MOL0     C61340   5.009   5.945   2.728 -0.7610  0.8707  0.2656
  455MOL0     N61341   4.693   5.485   2.602 -0.2703 -0.8471  0.1727
  455MOL0     N61342   4.618   5.578   2.544 -0.0450 -0.6240 -1.0891
  455MOL0     C61343   4.971   5.868   3.436 -0.4635 -0.7114 -0.3129
  455MOL0     C61344   5.105   5.890   3.477 -0.1432  0.9361 -0.1346
  455MOL0     C61345   5.553   5.983   3.442  0.9421 -0.9625  0.5073
  455MOL0     C61346   5.656   5.920   3.381 -0.3043  0.1846 -0.1927
  455MOL0     C61347   5.787   5.946   3.415 -1.0841  0.1994  0.0536
  455MOL0     C61348   5.818   6.046   3.509 -0.0366  0.7967  0.1967
  455MOL0     O61349   5.945   6.079   3.516 -0.7710  0.7302 -0.6426
  455MOL0     C61350   5.998   6.083   3.648 -0.4404  0.7458  0.7288
  455MOL0     C61351   6.135   6.150   3.636 -1.0445 -0.9559 -0.1985
  455MOL0     C61352   6.114   6.302   3.598 -0.6796 -0.6594  0.5543
  455MOL0     C61353   6.196   6.403   3.676 -0.1184  0.6329  0.1868
  455MOL0     C61354   6.139   6.422   3.812 -0.2470 -0.1882  0.4629
  455MOL0     C61355   6.084   6.431   3.915  0.2117 -0.6159 -0.3894
  455MOL0     C61356   5.715   6.113   3.574 -0.0317  1.0113  0.0345
  455MOL0     C61357   5.579   6.081   3.536  0.2772 -0.8558 -0.1542
  455MOL0     H61358   5.184   6.162   3.299 -0.0902  0.1260  0.1260
  455MOL0     H61359   4.974   6.135   3.210 -1.7578  0.9686  1.4363
  455MOL0     H61360   4.747   5.773   3.277 -0.9876  0.7260 -2.5179
  455MOL0     H61361   4.690   5.858   3.430  1.9440  2.1767  1.1481
  455MOL0     H61362   4.494   5.829   3.288  0.1296 -2.6662 -1.9379
  455MOL0     H61363   4.548   6.000   3.256 -1.3941  0.1061 -0.1061
  455MOL0     H61364   4.666   5.893   3.056  0.8300  1.4260  2.1712
  455MOL0     H61365   4.548   5.762   3.070 -0.4477 -0.6667  1.3238
  455MOL0     H61366   4.366   5.942   3.076  0.0171  2.1102  0.3105
  455MOL0     H61367   4.485   6.064   3.061 -0.6368 -0.0364  0.5533
  455MOL0     H61368   4.412   6.012   2.813 -1.9593 -2.0210 -1.6797
  455MOL0     H61369   4.561   5.919   2.832 -0.9678 -1.2737 -1.6310
  455MOL0     H61370   4.412   5.715   2.874  1.5437  1.5584  3.1100
  455MOL0     H61371   4.275   5.818   2.887 -1.1607  1.9562 -1.5800
  455MOL0     H61372   4.292   5.711   2.673  0.7574  0.4077  1.8327
  455MOL0     H61373   4.299   5.882   2.638 -0.1745  0.2925  1.9259
  455MOL0     H61374   4.535   5.856   2.585 -1.7552  1.9475  1.3012
  455MOL0     H61375   4.428   5.744   2.504 -1.7139  0.2518  0.6881
  455MOL0     H61376   4.655   5.709   2.851  1.5995 -1.1869 -1.0536
  455MOL0     H61377   4.768   5.458   2.928  0.9961 -0.1519 -0.0893
  455MOL0     H61378   4.843   5.388   2.779  0.6883 -0.3159 -0.0699
  455MOL0     H61379   4.956   5.630   2.755  0.3328 -2.4416 -1.9311
  455MOL0     H61380   5.021   5.500   2.852 -1.2956 -1.4070 -0.2531
  455MOL0     H61381   4.891   5.595   3.056 -1.6060 -0.1893 -1.4114
  455MOL0     H61382   4.864   5.736   2.955  2.0562  1.5229 -2.2735
  455MOL0     H61383   5.159   5.663   3.026  2.4466  2.5755 -2.7974
  455MOL0     H61384   5.051   5.798   3.082 -2.0641  1.0000 -1.5098
  455MOL0     H61385   4.905   5.961   3.037 -2.3391  2.3370  0.2178
  455MOL0     H61386   4.733   6.105   3.080  1.1923 -0.4222  0.1763
  455MOL0     H61387   4.781   6.259   3.000 -2.1112  1.8126  0.3960
  455MOL0     H61388   4.649   6.178   2.935  1.0559  1.6390  1.0518
  455MOL0     H61389   4.719   6.212   2.313  3.5909  2.5377  2.9457
  455MOL0     H61390   4.551   6.325   2.156 -1.1874 -1.7408 -1.0748
  455MOL0     H61391   4.338   6.598   2.385 -1.6651 -1.8575  1.3980
  455MOL0     H61392   4.291   6.635   2.215  0.2122 -4.0304 -3.2917
  455MOL0     H61393   4.086   6.530   2.241  1.8633 -0.4784  0.3094
  455MOL0     H61394   4.120   6.488   2.404  4.1848 -0.2360 -0.8937
  455MOL0     H61395   4.121   6.773   2.325 -0.2607 -1.1564 -0.0592
  455MOL0     H61396   4.121   6.705   2.481  3.3243  0.5348 -1.9931
  455MOL0     H61397   3.890   6.729   2.279  3.1687  2.0309 -0.4755
  455MOL0     H61398   3.892   6.590   2.404  1.0989 -0.5225  1.3589
  455MOL0     H61399   3.741   6.811   2.462 -0.4629  1.7344  0.6568
  455MOL0     H61400   3.888   6.891   2.448  0.2985 -2.0509 -2.6008
  455MOL0     H61401   3.841   6.656   2.638  1.2806 -0.3406  2.0691
  455MOL0     H61402   3.989   6.745   2.644  0.0122 -1.3047  1.8676
  455MOL0     H61403   3.699   6.842   2.703  2.0878 -2.7993 -1.6537
  455MOL0     H61404   3.841   6.947   2.715 -1.1765  0.1134  0.3612
  455MOL0     H61405   3.815   6.879   2.939  0.2889 -0.1859  0.0350
  455MOL0     H61406   3.942   6.766   2.883 -0.2050 -0.6457 -4.1082
  455MOL0     H61407   4.330   6.432   2.516  0.0594 -0.0180  0.2888
  455MOL0     H61408   4.475   6.305   2.654 -0.6564 -2.3603 -0.9522
  455MOL0     H61409   4.937   6.053   2.574 -0.0529 -1.0421  0.2620
  455MOL0     H61410   5.080   5.894   2.664  0.8744 -0.0928  2.6777
  455MOL0     H61411   4.899   5.801   3.483 -2.6566  0.8701 -1.2580
  455MOL0     H61412   5.148   5.823   3.551  1.2606  1.8935 -0.0537
  455MOL0     H61413   5.649   5.864   3.288  1.0501  1.5054 -1.1327
  455MOL0     H61414   5.878   5.911   3.367  1.3400  4.8929  0.5573
  455MOL0     H61415   5.931   6.136   3.716 -0.3793  1.2864  0.3668
  455MOL0     H61416   6.013   5.982   3.688 -5.0426  0.2306  1.7154
  455MOL0     H61417   6.197   6.099   3.561  0.3424  0.0385  0.2431
  455MOL0     H61418   6.195   6.133   3.726 -2.5364 -0.1868  0.9815
  455MOL0     H61419   6.011   6.330   3.625 -0.7380  0.3310 -0.6314
  455MOL0     H61420   6.139   6.321   3.494  0.9190 -0.6103  0.9262
  455MOL0     H61421   6.199   6.497   3.619 -0.3033 -0.0394 -0.9422
  455MOL0     H61422   6.300   6.368   3.684 -0.7298 -1.3889 -0.1964
  455MOL0     H61423   6.026   6.448   4.004  1.4385 -0.8221  0.4737
  455MOL0     H61424   5.746   6.203   3.625 -1.3538  2.7491 -2.0615
  455MOL0     H61425   5.504   6.123   3.602  0.9872 -3.0283  2.2284
  456MOL0     O61426  11.092   2.593   2.614 -0.1457 -0.8415  0.1198
  456MOL0     C61427  11.139   2.699   2.570  0.0348 -0.0538 -0.6794
  456MOL0     O61428  11.070   2.794   2.502  0.0349  0.4078  0.2766
  456MOL0     C61429  10.950   2.821   2.570 -0.3013  0.9886  0.9662
  456MOL0     C61430  10.829   2.808   2.507 -0.2476  0.1454  0.1666
  456MOL0     C61431  10.715   2.828   2.581  0.5635  1.3131 -0.6684
  456MOL0     C61432  10.712   2.845   2.716  0.2636 -0.1179 -0.3736
  456MOL0     O61433  10.584   2.830   2.778 -0.1822 -0.0703  0.5356
  456MOL0     C61434  10.591   2.751   2.901 -0.5132  0.1495  0.7970
  456MOL0     C61435  10.621   2.601   2.868 -0.4971 -0.1164  0.7286
  456MOL0     C61436  10.622   2.523   3.003  0.1779 -0.6371  0.5960
  456MOL0     C61437  10.479   2.483   3.046  0.2285  0.3485 -0.2534
  456MOL0     C61438  10.503   2.383   3.162 -0.4423 -1.1128  0.0610
  456MOL0     C61439  10.393   2.274   3.175  0.0644 -0.1709 -0.2457
  456MOL0     C61440  10.248   2.332   3.201  0.3331 -0.6014  0.2203
  456MOL0     C61441  10.162   2.218   3.259  0.2903  0.0504 -0.2271
  456MOL0     N61442  10.026   2.255   3.310 -0.3294  0.4976  0.2411
  456MOL0     C61443   9.994   2.274   3.440 -0.5862 -0.4178 -0.5692
  456MOL0     C61444   9.864   2.311   3.444 -0.8751 -0.7226  0.8360
  456MOL0     C61445   9.785   2.342   3.564  0.0254  0.0282  0.7244
  456MOL0     C61446   9.644   2.291   3.545  0.2422 -0.1134 -1.2080
  456MOL0     C61447   9.559   2.364   3.651  0.8723  0.0276  0.1414
  456MOL0     C61448   9.403   2.341   3.623 -0.0908 -0.2743 -0.7369
  456MOL0     O61449   9.342   2.413   3.517  0.0729  0.5109  0.0848
  456MOL0     C61450   9.206   2.422   3.497  0.4521 -0.2632 -0.1554
  456MOL0     C61451   9.167   2.495   3.387 -0.0991 -0.0235  0.0024
  456MOL0     C61452   9.037   2.527   3.354  0.0559  0.2249 -0.1464
  456MOL0     C61453   9.009   2.615   3.239 -0.1684  0.0846  0.3547
  456MOL0     C61454   8.934   2.504   3.456 -0.1457 -1.1252  0.0689
  456MOL0     C61455   8.793   2.547   3.439 -0.0680  1.0983  0.7868
  456MOL0     O61456   8.738   2.574   3.308 -0.4791 -0.8784  0.3492
  456MOL0     C61457   8.601   2.601   3.296 -0.0189 -0.4828 -0.2388
  456MOL0     C61458   8.510   2.495   3.283 -0.4532  0.0193  0.0579
  456MOL0     C61459   8.369   2.510   3.283 -0.7521  0.7518 -0.6507
  456MOL0     C61460   8.321   2.637   3.294 -0.3375  0.4745  0.8768
  456MOL0     O61461   8.190   2.672   3.293  0.7906 -0.3570  0.6276
  456MOL0     C61462   8.100   2.564   3.322  0.4394  0.0489 -0.2867
  456MOL0     C61463   7.962   2.635   3.337  0.7392  0.2141 -0.3372
  456MOL0     C61464   7.963   2.714   3.472  0.4179 -0.3374 -0.2869
  456MOL0     C61465   7.893   2.631   3.583 -1.0401 -1.0094  0.4426
  456MOL0     C61466   7.951   2.662   3.716 -0.2468 -0.0996 -0.1382
  456MOL0     C61467   7.849   2.622   3.831 -0.1840  0.3576 -0.2066
  456MOL0     C61468   7.724   2.705   3.844 -0.0866 -0.6007  0.8272
  456MOL0     C61469   7.609   2.612   3.841 -0.0187  0.9496  0.0654
  456MOL0    Cl61470   7.457   2.691   3.869 -0.0295 -0.7063 -0.6580
  456MOL0     C61471   8.411   2.750   3.297  0.4061 -0.2383 -0.1667
  456MOL0     C61472   8.552   2.736   3.295  0.4029 -0.3151 -0.0238
  456MOL0     O61473   8.720   2.541   3.539  0.1859 -0.3017 -0.4731
  456MOL0     C61474   8.966   2.423   3.565  0.5337  0.1810  0.7218
  456MOL0     C61475   9.100   2.379   3.582 -0.8206  0.0551 -0.4453
  456MOL0     N61476   9.823   2.294   3.309  0.1546  0.1322 -0.2206
  456MOL0     N61477   9.919   2.270   3.230 -0.0455 -0.1672 -0.3709
  456MOL0     C61478  10.836   2.868   2.776 -0.3309 -0.1288 -0.2686
  456MOL0     C61479  10.959   2.849   2.708  0.1482  0.2723  0.0452
  456MOL0     C61480  11.284   2.735   2.583  0.4225  0.5072 -0.4691
  456MOL0     C61481  11.372   2.641   2.635 -0.3715  0.2772  0.5668
  456MOL0     C61482  11.507   2.676   2.648  0.2571  1.1984  0.5358
  456MOL0     C61483  11.558   2.789   2.584 -0.5936  0.7497  0.2453
  456MOL0     O61484  11.698   2.809   2.594 -0.0640  0.3835 -0.2504
  456MOL0     C61485  11.756   2.910   2.512  1.0911 -0.4520  0.0575
  456MOL0     C61486  11.909   2.907   2.514 -0.2176 -0.3095 -0.6951
  456MOL0     C61487  11.972   2.784   2.458 -0.0441 -0.0450 -0.1942
  456MOL0     C61488  12.124   2.774   2.488  0.0975 -0.9370 -0.6263
  456MOL0     C61489  12.211   2.879   2.425  0.5868  0.1648 -0.1654
  456MOL0     C61490  12.283   2.948   2.369 -0.2596 -0.7352 -0.0691
  456MOL0     C61491  11.470   2.875   2.531  1.2280  0.3176 -0.8428
  456MOL0     C61492  11.333   2.857   2.536  0.1896  0.6570 -0.2188
  456MOL0     H61493  10.820   2.790   2.401 -4.0143  2.6519 -0.1049
  456MOL0     H61494  10.625   2.784   2.539 -0.8948  3.0895  0.4309
  456MOL0     H61495  10.644   2.800   2.983  0.8020 -2.2990  1.4874
  456MOL0     H61496  10.484   2.755   2.927 -0.8543 -0.1115 -0.4951
  456MOL0     H61497  10.548   2.553   2.802 -1.4949 -0.0407  1.7287
  456MOL0     H61498  10.718   2.583   2.821 -0.9654  1.7709 -1.1000
  456MOL0     H61499  10.690   2.437   3.000 -1.5387 -2.0568 -2.4272
  456MOL0     H61500  10.666   2.591   3.076  2.2466 -0.5507 -0.6413
  456MOL0     H61501  10.428   2.575   3.077  0.8225  0.0564  1.7641
  456MOL0     H61502  10.419   2.454   2.959 -0.5857  0.4229  0.2750
  456MOL0     H61503  10.600   2.336   3.143  1.2204  2.3896 -0.9580
  456MOL0     H61504  10.518   2.442   3.253  1.9194 -3.8501  1.6081
  456MOL0     H61505  10.394   2.205   3.089  0.8988  0.1519 -0.5055
  456MOL0     H61506  10.429   2.209   3.255  1.2374 -0.2603 -0.8293
  456MOL0     H61507  10.244   2.416   3.271  2.5006  1.2795 -1.7344
  456MOL0     H61508  10.203   2.377   3.112 -2.3798  1.3871  2.4011
  456MOL0     H61509  10.230   2.169   3.330  1.5499  1.7487 -0.1840
  456MOL0     H61510  10.145   2.145   3.180  0.4052  0.2658 -0.4520
  456MOL0     H61511  10.060   2.263   3.526  0.2459 -0.7816 -1.2402
  456MOL0     H61512   9.822   2.304   3.660 -0.7217 -2.7080  0.0041
  456MOL0     H61513   9.789   2.451   3.577  0.5671 -0.2428  3.5356
  456MOL0     H61514   9.652   2.183   3.561  1.1251 -0.7853 -5.0712
  456MOL0     H61515   9.610   2.307   3.442 -1.0931 -2.6950 -1.2540
  456MOL0     H61516   9.575   2.472   3.641 -0.8370  0.7454  3.5983
  456MOL0     H61517   9.587   2.339   3.754 -4.6170 -1.5484  1.5945
  456MOL0     H61518   9.357   2.374   3.717  2.4934  2.2012 -0.2052
  456MOL0     H61519   9.389   2.233   3.613  0.7170 -0.6120  1.2624
  456MOL0     H61520   9.248   2.517   3.319  2.0063 -1.1654  2.0136
  456MOL0     H61521   8.964   2.558   3.157  0.4287 -2.6290  1.7972
  456MOL0     H61522   8.930   2.687   3.262 -0.8158 -0.5809  0.2542
  456MOL0     H61523   9.099   2.671   3.214 -0.2619 -0.2691 -0.8560
  456MOL0     H61524   8.547   2.394   3.292 -1.5407 -0.3481  0.5347
  456MOL0     H61525   8.306   2.421   3.290  0.2118  0.1534  1.2469
  456MOL0     H61526   8.099   2.487   3.243 -1.0613 -0.5197  0.2474
  456MOL0     H61527   8.130   2.499   3.405  3.0075 -3.2682 -3.4728
  456MOL0     H61528   7.950   2.716   3.263 -1.3466  1.4483  1.2383
  456MOL0     H61529   7.883   2.561   3.327  0.0531  0.7642  0.8264
  456MOL0     H61530   7.896   2.800   3.468 -0.9927 -1.1422  2.7543
  456MOL0     H61531   8.056   2.756   3.511 -2.0373  3.3689  2.1839
  456MOL0     H61532   7.785   2.639   3.589 -0.7876  3.8674  3.3782
  456MOL0     H61533   7.918   2.527   3.560 -0.7127 -0.4589 -1.9559
  456MOL0     H61534   7.967   2.769   3.738 -2.0537 -0.4881  4.1633
  456MOL0     H61535   8.044   2.605   3.720 -1.1233 -1.6207 -0.6866
  456MOL0     H61536   7.829   2.515   3.824  0.0572  0.1150  2.1249
  456MOL0     H61537   7.908   2.632   3.923 -1.5049 -1.8698  0.9642
  456MOL0     H61538   7.721   2.772   3.758 -1.5050  0.4361  1.6332
  456MOL0     H61539   7.727   2.764   3.936  0.5610  3.9952 -1.8026
  456MOL0     H61540   7.622   2.535   3.918  2.3240  0.0356 -1.1691
  456MOL0     H61541   7.610   2.569   3.740  0.7233  0.0457  0.4380
  456MOL0     H61542   8.383   2.855   3.294  0.6988 -0.1093  1.0045
  456MOL0     H61543   8.616   2.824   3.297 -2.2511  1.8204 -1.8608
  456MOL0     H61544   8.890   2.400   3.639 -0.9837 -0.9319 -1.0890
  456MOL0     H61545   9.114   2.329   3.678 -2.8458 -0.4102 -0.3533
  456MOL0     H61546  10.843   2.902   2.878 -1.5451 -1.9516  0.4785
  456MOL0     H61547  11.043   2.892   2.761  0.4645  0.9404 -0.9739
  456MOL0     H61548  11.339   2.544   2.670  3.1711 -0.8156  1.3006
  456MOL0     H61549  11.570   2.609   2.706  0.1465 -0.6229 -1.3105
  456MOL0     H61550  11.719   2.887   2.412  1.2635 -0.6773  0.0456
  456MOL0     H61551  11.723   3.002   2.563 -1.3335 -1.8084  1.1536
  456MOL0     H61552  11.940   2.930   2.617 -1.5003  0.8876 -0.5403
  456MOL0     H61553  11.944   2.994   2.457  2.3219 -0.6791  0.1728
  456MOL0     H61554  11.966   2.772   2.349  3.8554 -2.0393 -0.3627
  456MOL0     H61555  11.916   2.703   2.506 -3.2529  0.1690 -3.2045
  456MOL0     H61556  12.166   2.685   2.441 -0.9997 -1.3452 -0.8643
  456MOL0     H61557  12.141   2.783   2.595 -2.3919  0.8838 -0.2885
  456MOL0     H61558  12.359   3.011   2.327 -1.6190 -0.2813 -1.9896
  456MOL0     H61559  11.504   2.956   2.468 -1.6017  2.3472  0.0687
  456MOL0     H61560  11.265   2.925   2.486 -1.7830 -1.0375 -0.0441
  457MOL0     O61561   5.069   3.112   1.181 -0.0872  0.1559  1.3859
  457MOL0     C61562   5.132   3.002   1.196 -0.0439 -0.7485  0.8802
  457MOL0     O61563   5.065   2.887   1.200  0.1527  0.0211 -0.4266
  457MOL0     C61564   4.940   2.880   1.146 -0.4431 -0.9263 -0.7996
  457MOL0     C61565   4.842   2.831   1.226 -0.1048  0.7175  0.4143
  457MOL0     C61566   4.712   2.811   1.182  0.8475  0.1616 -0.0454
  457MOL0     C61567   4.671   2.848   1.059 -0.9117 -0.1195  1.2493
  457MOL0     O61568   4.536   2.824   1.028 -0.6055 -0.3695  0.0433
  457MOL0     C61569   4.488   2.877   0.911  1.0745 -0.1080  0.5436
  457MOL0     C61570   4.334   2.873   0.906 -0.4278  0.4093  0.4109
  457MOL0     C61571   4.289   2.966   1.022 -0.1181 -0.6760 -0.0216
  457MOL0     C61572   4.145   2.994   0.980  0.0056 -0.0194  0.5914
  457MOL0     C61573   4.065   3.072   1.079  1.2768 -0.8289 -0.4234
  457MOL0     C61574   4.158   3.187   1.142 -0.8921 -0.4023 -0.2558
  457MOL0     C61575   4.082   3.282   1.234 -0.3260 -0.3630  0.5492
  457MOL0     C61576   4.184   3.380   1.293 -0.3746 -0.2846  1.0265
  457MOL0     N61577   4.124   3.479   1.384 -0.0758  0.0875 -0.7981
  457MOL0     C61578   4.180   3.520   1.499  0.4081 -0.0348 -0.7790
  457MOL0     C61579   4.099   3.612   1.560  0.9199  1.0494  0.1311
  457MOL0     C61580   4.124   3.677   1.702 -0.3492 -0.2140 -0.0034
  457MOL0     C61581   4.006   3.639   1.794 -0.2952 -0.6710  0.4547
  457MOL0     C61582   4.029   3.628   1.938  0.1831  0.4262 -0.0909
  457MOL0     C61583   3.895   3.594   2.013  0.8532 -0.3084  0.0763
  457MOL0     O61584   3.816   3.716   2.004  0.1201  0.1712  0.0168
  457MOL0     C61585   3.694   3.732   2.072 -0.5462  0.1694  0.2027
  457MOL0     C61586   3.637   3.856   2.090  0.9224  0.4549  0.7240
  457MOL0     C61587   3.527   3.882   2.178  0.0361  0.1626  0.3219
  457MOL0     C61588   3.464   4.022   2.205 -0.9253 -0.6407  0.3189
  457MOL0     C61589   3.465   3.770   2.242  0.1076  0.5401  0.4788
  457MOL0     C61590   3.324   3.766   2.297 -0.2148  0.8188 -0.7086
  457MOL0     O61591   3.301   3.730   2.419  0.4988  0.0546 -0.1832
  457MOL0     C61592   3.184   3.763   2.481  0.5463 -0.4789  0.9153
  457MOL0     C61593   3.127   3.895   2.462 -0.4924  0.9369 -0.1565
  457MOL0     C61594   3.016   3.929   2.539  0.0136  0.7257  0.0489
  457MOL0     C61595   2.955   3.840   2.631 -0.3885 -0.0813  0.0297
  457MOL0     O61596   2.846   3.873   2.707  0.1662  1.3857  0.1431
  457MOL0     C61597   2.767   3.984   2.672 -0.6066 -0.4597  0.5113
  457MOL0     C61598   2.681   4.027   2.792  0.3405  0.6050 -0.1986
  457MOL0     C61599   2.580   3.913   2.822  0.4413  0.6514  1.0893
  457MOL0     C61600   2.519   3.948   2.957  0.2028 -0.2632  0.2472
  457MOL0     C61601   2.433   4.076   2.943 -1.3181 -0.4866 -0.0953
  457MOL0     C61602   2.334   4.091   3.056  0.4180  0.0617  0.0924
  457MOL0     C61603   2.403   4.124   3.188  1.1855 -0.9704 -0.3096
  457MOL0     C61604   2.295   4.130   3.292 -0.5331 -0.1099 -0.0583
  457MOL0    Cl61605   2.168   4.264   3.273  0.1330  0.1131  0.4996
  457MOL0     C61606   3.006   3.713   2.639  0.1386 -0.2399  0.3973
  457MOL0     C61607   3.127   3.675   2.584 -0.5803 -0.2539 -0.4805
  457MOL0     O61608   3.239   3.814   2.226 -0.7092  0.1580  0.8233
  457MOL0     C61609   3.515   3.642   2.218  0.0465  0.9737 -0.0100
  457MOL0     C61610   3.631   3.628   2.138  0.7366  0.3296 -0.2666
  457MOL0     N61611   4.005   3.638   1.466  0.0678  0.6717 -0.5450
  457MOL0     N61612   4.020   3.562   1.361  0.3444  0.1574 -0.6555
  457MOL0     C61613   4.771   2.912   0.978  0.2154 -1.2564  0.0791
  457MOL0     C61614   4.900   2.923   1.019  0.1807  0.8295 -0.0634
  457MOL0     C61615   5.277   3.009   1.212  0.5753  0.1389 -0.1150
  457MOL0     C61616   5.354   3.122   1.207  0.7786 -0.8956  0.9323
  457MOL0     C61617   5.490   3.124   1.211  0.2646 -0.3507  0.2704
  457MOL0     C61618   5.563   3.009   1.248 -1.0699 -0.7473 -0.1868
  457MOL0     O61619   5.699   3.021   1.256  0.0966  0.1089 -0.3105
  457MOL0     C61620   5.771   2.903   1.291 -0.1975  0.2447  0.2012
  457MOL0     C61621   5.928   2.933   1.288  0.9062 -0.0931 -0.0286
  457MOL0     C61622   6.014   2.814   1.239 -0.3195  0.9371 -0.3063
  457MOL0     C61623   6.024   2.706   1.351  1.0967 -0.0500 -0.4736
  457MOL0     C61624   5.900   2.622   1.342 -0.4111  0.0729 -0.2728
  457MOL0     C61625   5.792   2.573   1.350 -0.1056 -0.1962  0.8104
  457MOL0     C61626   5.492   2.899   1.274  0.6466  0.1668  0.1282
  457MOL0     C61627   5.348   2.891   1.258  0.1691  0.0168  1.1575
  457MOL0     H61628   4.863   2.789   1.324 -2.7333  0.3214  0.8735
  457MOL0     H61629   4.637   2.772   1.251  0.4381  0.1339 -0.5039
  457MOL0     H61630   4.527   2.976   0.885  0.2324 -0.0853 -0.6799
  457MOL0     H61631   4.525   2.810   0.833  2.7638  2.2119 -0.7806
  457MOL0     H61632   4.317   2.912   0.805  0.9257  0.4264  0.1586
  457MOL0     H61633   4.299   2.771   0.925 -2.7900  1.5175  2.6199
  457MOL0     H61634   4.283   2.906   1.113  2.3397  3.5271  3.2906
  457MOL0     H61635   4.357   3.052   1.026 -0.5862 -0.3410  2.5030
  457MOL0     H61636   4.156   3.043   0.883  1.6301 -0.3116  0.6002
  457MOL0     H61637   4.101   2.894   0.966  4.1615 -1.5883 -4.5751
  457MOL0     H61638   3.992   3.136   1.029 -0.3938 -0.4771  2.2691
  457MOL0     H61639   4.025   3.020   1.166  1.3288  1.0263  0.7387
  457MOL0     H61640   4.236   3.144   1.206 -0.8043  1.1088  0.7211
  457MOL0     H61641   4.220   3.235   1.066  0.0211 -1.3473 -0.1258
  457MOL0     H61642   4.003   3.335   1.181  0.9438 -0.0833 -1.1531
  457MOL0     H61643   4.040   3.215   1.310 -1.1054 -1.1500 -0.5490
  457MOL0     H61644   4.230   3.432   1.209  1.2013 -1.3715  1.1770
  457MOL0     H61645   4.273   3.336   1.338  0.2438  0.1547  0.2554
  457MOL0     H61646   4.279   3.491   1.531  0.5009  0.6060 -0.4785
  457MOL0     H61647   4.221   3.637   1.734 -0.3524  1.2136  1.9432
  457MOL0     H61648   4.128   3.786   1.709  0.1683 -0.3279  1.9343
  457MOL0     H61649   3.967   3.542   1.760 -2.7368  0.0946  0.8552
  457MOL0     H61650   3.917   3.701   1.780 -0.1922 -1.1790 -3.3878
  457MOL0     H61651   4.076   3.724   1.961  1.1913  0.5994 -2.5709
  457MOL0     H61652   4.091   3.542   1.965  1.2138  1.6195  1.5366
  457MOL0     H61653   3.911   3.571   2.119  0.8080  0.9386  0.3730
  457MOL0     H61654   3.840   3.510   1.969  0.4287 -1.9594  3.4689
  457MOL0     H61655   3.697   3.942   2.063  1.5039  0.0396  0.6835
  457MOL0     H61656   3.549   4.091   2.212 -1.1801 -0.3873  0.9940
  457MOL0     H61657   3.410   4.060   2.117  2.8567 -3.0580 -3.4634
  457MOL0     H61658   3.409   4.035   2.298  1.4131 -0.1651  1.7124
  457MOL0     H61659   3.168   3.971   2.398  2.7890 -0.0054  0.6234
  457MOL0     H61660   2.968   4.024   2.519 -1.2106  1.1371  3.9907
  457MOL0     H61661   2.827   4.072   2.648  0.8651 -1.3374  0.8073
  457MOL0     H61662   2.705   3.968   2.584 -2.5114  1.6934  1.3841
  457MOL0     H61663   2.747   4.060   2.872  1.6660  0.2012 -1.0994
  457MOL0     H61664   2.641   4.120   2.750  3.3349  1.8806 -0.4255
  457MOL0     H61665   2.635   3.818   2.822  3.6793  2.3853  1.8924
  457MOL0     H61666   2.502   3.915   2.745 -1.3153  0.1686  2.7860
  457MOL0     H61667   2.463   3.857   2.983  0.9204 -1.0590 -0.9089
  457MOL0     H61668   2.594   3.959   3.036  0.5791  0.6663 -0.2320
  457MOL0     H61669   2.367   4.062   2.857  1.0330 -2.4381 -1.7137
  457MOL0     H61670   2.494   4.164   2.922  0.4954 -0.9558  2.6516
  457MOL0     H61671   2.256   4.164   3.031 -2.8132 -3.4356 -1.0008
  457MOL0     H61672   2.282   3.996   3.069 -2.0142  1.1504 -0.9919
  457MOL0     H61673   2.458   4.218   3.178 -1.3697  1.0713  2.7095
  457MOL0     H61674   2.463   4.036   3.211  0.9222 -0.8447  0.9165
  457MOL0     H61675   2.355   4.135   3.383  0.5031 -1.4503 -0.6277
  457MOL0     H61676   2.241   4.038   3.316 -0.3160  0.4302  2.9252
  457MOL0     H61677   2.962   3.646   2.713  1.0994  0.2048  1.4077
  457MOL0     H61678   3.181   3.586   2.614  1.9708  1.2713 -0.2283
  457MOL0     H61679   3.460   3.555   2.252  3.6722 -1.3550  0.4065
  457MOL0     H61680   3.671   3.527   2.130  2.4511  1.1038 -2.4988
  457MOL0     H61681   4.754   2.962   0.884 -1.7564  1.0920  1.5685
  457MOL0     H61682   4.965   2.976   0.950 -2.7326 -1.1526 -4.8022
  457MOL0     H61683   5.299   3.214   1.190  0.8177 -0.8306  1.1540
  457MOL0     H61684   5.531   3.222   1.189 -0.7580  0.4566  1.7657
  457MOL0     H61685   5.759   2.887   1.399  1.9278  3.4329  1.0856
  457MOL0     H61686   5.756   2.826   1.215  1.8522  0.0107 -0.0422
  457MOL0     H61687   5.960   2.964   1.388  0.4591 -2.1373  0.8014
  457MOL0     H61688   5.940   3.014   1.216 -0.5184 -0.6759 -0.9645
  457MOL0     H61689   6.110   2.861   1.217 -1.5097  2.5843 -2.3696
  457MOL0     H61690   6.000   2.770   1.140  1.5558  0.5372 -0.4398
  457MOL0     H61691   6.040   2.753   1.448  3.1957 -0.2519 -0.6704
  457MOL0     H61692   6.103   2.631   1.332 -0.3702 -2.5247  2.3876
  457MOL0     H61693   5.706   2.509   1.356 -0.2724 -0.5575 -2.7751
  457MOL0     H61694   5.541   2.812   1.316  0.5685 -1.5720 -3.0865
  457MOL0     H61695   5.288   2.803   1.281 -0.7843 -0.0534 -1.2763
  458MOL0     O61696  10.839   3.387   7.552  0.4507 -0.2474  0.0694
  458MOL0     C61697  10.889   3.280   7.567  0.0667 -0.3286  0.6085
  458MOL0     O61698  10.885   3.203   7.682 -0.3419  0.0535  0.2504
  458MOL0     C61699  10.827   3.265   7.785 -0.1021 -0.0947  0.0596
  458MOL0     C61700  10.894   3.356   7.867 -0.0080 -0.2195  0.9047
  458MOL0     C61701  10.826   3.435   7.960  0.9373 -1.0905 -0.2033
  458MOL0     C61702  10.684   3.406   7.976  0.2657  0.0977 -0.4875
  458MOL0     O61703  10.621   3.481   8.080 -0.4287  1.1568 -0.8063
  458MOL0     C61704  10.478   3.480   8.080  0.6372  1.0277 -0.5391
  458MOL0     C61705  10.446   3.607   8.164  0.7641  0.2631  0.3001
  458MOL0     C61706  10.307   3.664   8.127  0.1775 -0.7049  0.2943
  458MOL0     C61707  10.193   3.565   8.165 -0.1005  0.1528  0.1120
  458MOL0     C61708  10.056   3.632   8.131 -0.1752  0.2484  0.8912
  458MOL0     C61709   9.937   3.553   8.190 -0.1197  0.4951  0.2405
  458MOL0     C61710   9.801   3.589   8.139  0.2288 -0.3567  0.5830
  458MOL0     C61711   9.690   3.507   8.204  0.0439 -0.1905 -0.5342
  458MOL0     N61712   9.621   3.577   8.316 -0.3672  0.3334  0.1905
  458MOL0     C61713   9.692   3.593   8.440 -0.0005  0.3123 -0.8815
  458MOL0     C61714   9.596   3.653   8.517  0.3964 -0.1006  0.4014
  458MOL0     C61715   9.606   3.693   8.658 -0.3643 -0.7526  0.4161
  458MOL0     C61716   9.544   3.587   8.755 -0.3557  0.1985 -0.0870
  458MOL0     C61717   9.640   3.468   8.777 -0.4630 -0.4183  0.4971
  458MOL0     C61718   9.576   3.363   8.880 -0.0838  0.7416  0.9347
  458MOL0     O61719   9.559   3.418   9.009  0.3208  0.2356 -0.0522
  458MOL0     C61720   9.663   3.462   9.093  0.6247  0.3157 -1.0660
  458MOL0     C61721   9.797   3.416   9.080 -0.8666  0.4151 -0.3233
  458MOL0     C61722   9.899   3.459   9.169 -0.6011  0.7866 -0.3409
  458MOL0     C61723  10.049   3.406   9.160  0.4224  0.3773 -0.8023
  458MOL0     C61724   9.867   3.547   9.274 -0.3878 -0.1842  0.4854
  458MOL0     C61725   9.968   3.597   9.374  0.2042  0.0324  0.5764
  458MOL0     O61726  10.106   3.601   9.348  0.0744 -0.1260  0.2627
  458MOL0     C61727  10.186   3.654   9.442 -0.9760  0.6743 -0.2803
  458MOL0     C61728  10.295   3.582   9.500  0.4385 -0.0126 -0.1331
  458MOL0     C61729  10.373   3.634   9.602 -0.8009 -1.4240  0.5756
  458MOL0     C61730  10.371   3.771   9.629 -0.0239 -0.8909 -0.1397
  458MOL0     O61731  10.464   3.818   9.726  0.4828 -0.0061 -0.5158
  458MOL0     C61732  10.432   3.922   9.812 -0.2561  0.3208 -0.4827
  458MOL0     C61733  10.525   4.039   9.783 -0.2572  0.0902 -0.0482
  458MOL0     C61734  10.481   4.186   9.820  0.5565  0.3145  0.4881
  458MOL0     C61735  10.370   4.244   9.724 -0.2758  0.1270  0.6231
  458MOL0     C61736  10.311   4.375   9.773 -0.1288  0.5617 -0.6337
  458MOL0     C61737  10.218   4.358   9.891 -0.1156 -0.2398 -0.3774
  458MOL0     C61738  10.176   4.504   9.940  0.6835 -0.8000  0.3315
  458MOL0     C61739  10.058   4.491  10.031  0.7821  0.5402 -1.0466
  458MOL0    Cl61740   9.918   4.426   9.942  0.1215  0.2999 -0.0032
  458MOL0     C61741  10.269   3.847   9.571  0.5595 -1.0471  0.3756
  458MOL0     C61742  10.177   3.785   9.481  0.4806  0.0789 -0.3661
  458MOL0     O61743   9.916   3.653   9.473  0.4395 -0.0671  0.1719
  458MOL0     C61744   9.734   3.583   9.292  0.1908 -0.5637 -0.0812
  458MOL0     C61745   9.638   3.545   9.199  0.4801 -0.4636 -0.5843
  458MOL0     N61746   9.485   3.677   8.438 -0.1662 -0.9499  0.0425
  458MOL0     N61747   9.496   3.611   8.322 -0.8813  0.1304  0.4190
  458MOL0     C61748  10.616   3.312   7.893 -0.3636 -0.4028  0.1341
  458MOL0     C61749  10.689   3.244   7.800 -0.4436 -1.0894  0.1709
  458MOL0     C61750  10.962   3.230   7.447 -0.2237 -0.9164 -0.1403
  458MOL0     C61751  11.078   3.149   7.472  0.4109  1.1114  0.1524
  458MOL0     C61752  11.170   3.106   7.371  0.8814 -0.4494 -1.1279
  458MOL0     C61753  11.131   3.131   7.239 -0.0297  0.0987 -0.1728
  458MOL0     O61754  11.197   3.067   7.138  0.0422 -0.8475 -0.0570
  458MOL0     C61755  11.322   3.116   7.080 -0.7805 -0.3344 -0.0662
  458MOL0     C61756  11.430   3.002   7.072 -0.2105 -0.0224  0.5594
  458MOL0     C61757  11.380   2.889   6.985 -0.3464  0.8494 -1.3414
  458MOL0     C61758  11.399   2.912   6.833 -0.1393  0.5616 -0.9313
  458MOL0     C61759  11.534   2.938   6.784 -0.2116  1.1229 -0.2867
  458MOL0     C61760  11.649   2.955   6.756 -0.2234 -0.9628  0.0593
  458MOL0     C61761  11.017   3.208   7.213  0.6403  0.2148  0.4118
  458MOL0     C61762  10.937   3.257   7.316 -0.2996 -0.2466  0.3483
  458MOL0     H61763  10.996   3.358   7.830 -0.2948  0.6716  0.1226
  458MOL0     H61764  10.865   3.521   8.012 -2.7033  1.7721 -1.7237
  458MOL0     H61765  10.430   3.485   7.981  0.5293  1.6725 -0.4617
  458MOL0     H61766  10.448   3.389   8.132  1.2073 -1.5707 -4.3385
  458MOL0     H61767  10.460   3.586   8.271  4.7661  2.3904  0.3931
  458MOL0     H61768  10.518   3.687   8.147  2.1353 -1.0929 -0.5863
  458MOL0     H61769  10.304   3.756   8.186  1.5622  0.4785 -1.3436
  458MOL0     H61770  10.313   3.687   8.020  2.2144 -1.5500  0.1694
  458MOL0     H61771  10.203   3.472   8.108  2.5564 -0.0688  0.8433
  458MOL0     H61772  10.198   3.551   8.273  0.4577 -3.3557 -0.2356
  458MOL0     H61773  10.061   3.737   8.160 -0.7067  0.7625 -0.7950
  458MOL0     H61774  10.043   3.625   8.022 -2.4308  0.1012  1.1219
  458MOL0     H61775   9.948   3.446   8.170 -0.7589 -0.0031  2.2903
  458MOL0     H61776   9.942   3.575   8.297 -0.2060 -1.3607  0.6543
  458MOL0     H61777   9.789   3.697   8.147 -0.5224 -0.4775  1.1304
  458MOL0     H61778   9.788   3.560   8.034  3.6687 -1.0606  0.2161
  458MOL0     H61779   9.734   3.415   8.242  0.4425  0.5783  0.9411
  458MOL0     H61780   9.615   3.483   8.128  0.7587  2.0570 -2.0622
  458MOL0     H61781   9.793   3.561   8.466 -0.7440 -0.4369  1.3346
  458MOL0     H61782   9.710   3.707   8.688 -0.0242 -0.8384 -0.6664
  458MOL0     H61783   9.556   3.788   8.677  0.0807 -0.5834  0.7543
  458MOL0     H61784   9.452   3.553   8.707 -1.8489 -0.0828  2.7158
  458MOL0     H61785   9.512   3.624   8.854 -2.5863 -0.3428 -0.5410
  458MOL0     H61786   9.738   3.501   8.813 -0.1547  1.9513 -2.1586
  458MOL0     H61787   9.656   3.415   8.682  3.5934 -3.4389  2.5798
  458MOL0     H61788   9.644   3.277   8.880 -1.9159 -0.7697  0.4134
  458MOL0     H61789   9.484   3.325   8.834 -2.1182  0.8759  4.5312
  458MOL0     H61790   9.827   3.346   9.003  1.0081  2.1550 -1.2901
  458MOL0     H61791  10.048   3.326   9.085  2.0973 -0.6687  0.2350
  458MOL0     H61792  10.123   3.481   9.133  1.2108  0.2330  0.8362
  458MOL0     H61793  10.086   3.364   9.254  0.0960  2.2307  0.2022
  458MOL0     H61794  10.302   3.476   9.475  0.2172  0.6332 -3.4452
  458MOL0     H61795  10.450   3.566   9.636  0.6647 -0.1513 -0.0922
  458MOL0     H61796  10.325   3.944   9.817 -0.3651 -0.3722  3.1069
  458MOL0     H61797  10.455   3.895   9.916  0.3422  0.0157 -0.6927
  458MOL0     H61798  10.627   4.020   9.817  0.3569 -1.6575 -2.5891
  458MOL0     H61799  10.538   4.056   9.675  0.0063  0.5768  0.0573
  458MOL0     H61800  10.562   4.258   9.839  0.5711  0.7292 -0.9942
  458MOL0     H61801  10.433   4.169   9.917  2.1588 -0.2666  1.2082
  458MOL0     H61802  10.411   4.267   9.625  2.9344 -0.6337  1.6471
  458MOL0     H61803  10.293   4.167   9.713  1.7791 -1.6569 -3.3909
  458MOL0     H61804  10.261   4.432   9.694  1.4046  2.3563 -0.3812
  458MOL0     H61805  10.395   4.436   9.807  1.8040 -1.4581 -1.4739
  458MOL0     H61806  10.134   4.297   9.855 -0.5782  0.1583  0.0177
  458MOL0     H61807  10.278   4.309   9.969  0.6230  0.0461 -0.7557
  458MOL0     H61808  10.129   4.549   9.852  1.7462 -0.9169 -0.3138
  458MOL0     H61809  10.263   4.565   9.965  1.7339 -0.9385 -2.5300
  458MOL0     H61810  10.033   4.593  10.062 -0.2135  0.2937 -0.9927
  458MOL0     H61811  10.073   4.434  10.122 -3.2625 -1.9299 -1.6827
  458MOL0     H61812  10.258   3.953   9.589  1.0416 -1.1618  1.3998
  458MOL0     H61813  10.100   3.840   9.428 -0.3122 -3.8023 -3.6656
  458MOL0     H61814   9.704   3.652   9.369 -0.3062 -0.9696  0.0949
  458MOL0     H61815   9.534   3.578   9.207  0.1639 -0.8814 -2.4973
  458MOL0     H61816  10.512   3.283   7.894 -0.1955 -1.0738 -0.8593
  458MOL0     H61817  10.654   3.160   7.743  0.6372 -2.3605  1.2988
  458MOL0     H61818  11.104   3.111   7.570  1.2811  2.7965  0.6162
  458MOL0     H61819  11.262   3.061   7.407 -0.9488 -0.1966  4.9986
  458MOL0     H61820  11.297   3.164   6.984 -1.4003  0.7927  0.6286
  458MOL0     H61821  11.368   3.193   7.143 -1.4329 -0.3543  0.4543
  458MOL0     H61822  11.449   2.970   7.175 -1.2084  1.3446  1.1943
  458MOL0     H61823  11.530   3.036   7.041 -0.6967  1.7761  0.8582
  458MOL0     H61824  11.276   2.860   7.002  0.1630  0.5198  1.6884
  458MOL0     H61825  11.443   2.800   6.997 -0.2281  0.9106 -1.4969
  458MOL0     H61826  11.331   2.994   6.806 -2.2769 -0.5804  0.6759
  458MOL0     H61827  11.375   2.816   6.787  2.2645 -0.7071  0.2760
  458MOL0     H61828  11.745   2.982   6.719 -0.5983  4.1856  2.0519
  458MOL0     H61829  10.985   3.211   7.110  2.4013  0.3295 -0.1694
  458MOL0     H61830  10.846   3.306   7.283 -0.7688 -3.1835 -3.5602
  459MOL0     O61831   2.386   4.866   6.942 -0.0545 -0.4513  0.6210
  459MOL0     C61832   2.448   4.967   6.937 -0.2797 -0.0347 -0.0773
  459MOL0     O61833   2.419   5.078   6.860  0.0664 -0.6445  0.3503
  459MOL0     C61834   2.298   5.105   6.790 -0.5549  0.0075  0.5354
  459MOL0     C61835   2.188   5.014   6.779 -0.2531  0.7181  1.0074
  459MOL0     C61836   2.077   5.062   6.700 -0.7185 -0.0173 -0.6988
  459MOL0     C61837   2.077   5.185   6.628 -0.4116  0.8902  0.8429
  459MOL0     O61838   1.967   5.197   6.547 -0.2827  0.3127  0.5750
  459MOL0     C61839   1.936   5.324   6.485 -0.5422  0.0288 -0.1072
  459MOL0     C61840   1.930   5.455   6.567  0.0379 -0.4409 -0.1443
  459MOL0     C61841   1.858   5.444   6.693 -0.4296  0.9364 -0.3163
  459MOL0     C61842   1.716   5.394   6.678  0.6238 -0.3776  0.2379
  459MOL0     C61843   1.636   5.507   6.611 -0.1646 -0.3967  0.0094
  459MOL0     C61844   1.480   5.483   6.591  0.7561 -0.4987 -0.2465
  459MOL0     C61845   1.415   5.446   6.729 -0.8711 -0.5262  0.0862
  459MOL0     C61846   1.263   5.420   6.716 -0.5147 -1.3089  0.3140
  459MOL0     N61847   1.239   5.302   6.632  0.3195  0.1986 -0.4976
  459MOL0     C61848   1.242   5.168   6.676 -0.2549  0.3210  0.3125
  459MOL0     C61849   1.206   5.094   6.571 -0.5479  1.2944 -0.3839
  459MOL0     C61850   1.160   4.944   6.569  0.0525 -0.5470  0.1647
  459MOL0     C61851   1.004   4.953   6.584  0.8140 -0.1800 -0.0173
  459MOL0     C61852   0.940   4.807   6.593  0.3009  0.1405  0.2953
  459MOL0     C61853   0.812   4.809   6.688 -0.7351 -0.4663  1.0917
  459MOL0     O61854   0.790   4.668   6.711  0.0489  0.1940  0.5129
  459MOL0     C61855   0.783   4.625   6.843 -0.7696 -0.3706 -0.4173
  459MOL0     C61856   0.781   4.493   6.857 -0.1253  0.4460 -0.0454
  459MOL0     C61857   0.771   4.422   6.983  0.7997  0.1750 -0.9996
  459MOL0     C61858   0.772   4.269   6.975 -0.2974  0.2428 -0.8896
  459MOL0     C61859   0.743   4.494   7.106 -0.0787 -0.1534 -0.3577
  459MOL0     C61860   0.738   4.440   7.245  0.3722  0.5537 -0.1085
  459MOL0     O61861   0.726   4.527   7.354 -0.3711  0.2690  0.1128
  459MOL0     C61862   0.723   4.480   7.483 -0.7361  0.0132 -0.9112
  459MOL0     C61863   0.828   4.507   7.564  0.5497 -0.2486 -0.1419
  459MOL0     C61864   0.821   4.476   7.701 -0.3035 -0.0980 -0.9019
  459MOL0     C61865   0.707   4.411   7.761 -0.4759 -0.5731  0.6593
  459MOL0     O61866   0.687   4.371   7.892 -0.0545  0.1868 -0.1937
  459MOL0     C61867   0.700   4.463   7.998 -0.5312  0.1076 -0.0536
  459MOL0     C61868   0.716   4.380   8.123 -0.5697 -0.1438  1.0594
  459MOL0     C61869   0.700   4.480   8.235  0.1687 -0.1118 -0.1318
  459MOL0     C61870   0.737   4.397   8.360  0.0661  0.2349 -0.4908
  459MOL0     C61871   0.776   4.484   8.480 -0.7688 -0.1102 -0.2595
  459MOL0     C61872   0.671   4.487   8.586  0.8486  0.2367  0.4466
  459MOL0     C61873   0.552   4.557   8.551  0.0389  0.2783  1.2614
  459MOL0     C61874   0.438   4.534   8.647  0.5996  0.3497  0.6015
  459MOL0    Cl61875   0.484   4.596   8.806 -0.0109 -0.2227 -0.0945
  459MOL0     C61876   0.596   4.384   7.671 -0.5548  0.7391 -0.0314
  459MOL0     C61877   0.608   4.427   7.545  0.4318  1.0191 -0.1852
  459MOL0     O61878   0.735   4.316   7.262  0.2418  0.2668  0.5698
  459MOL0     C61879   0.746   4.631   7.090 -0.4280  0.2924  0.0893
  459MOL0     C61880   0.767   4.692   6.966 -0.5736 -0.2894  0.7131
  459MOL0     N61881   1.197   5.177   6.460 -0.3760  0.2594  0.5427
  459MOL0     N61882   1.224   5.298   6.499  0.3233 -0.6693 -0.0132
  459MOL0     C61883   2.198   5.261   6.629  1.1477  0.5814 -0.6747
  459MOL0     C61884   2.302   5.212   6.703  0.0659 -0.1914 -0.9614
  459MOL0     C61885   2.578   4.970   7.007 -0.2382  0.0783  0.0753
  459MOL0     C61886   2.661   5.079   6.985  0.7120  0.0986  0.3376
  459MOL0     C61887   2.783   5.078   7.051 -1.2080 -0.4724 -0.4790
  459MOL0     C61888   2.827   4.975   7.130  0.0631 -0.5921 -0.3244
  459MOL0     O61889   2.947   4.976   7.207  0.9571  0.1629 -0.0218
  459MOL0     C61890   3.031   5.091   7.204 -0.7428 -0.7080 -0.4705
  459MOL0     C61891   3.150   5.060   7.301  0.2726 -0.5484  0.3829
  459MOL0     C61892   3.240   4.950   7.239  0.1726 -0.7407  0.1545
  459MOL0     C61893   3.369   4.929   7.310 -0.0174 -0.0593 -0.3871
  459MOL0     C61894   3.458   5.048   7.331 -0.1871  0.0535  0.9149
  459MOL0     C61895   3.526   5.142   7.358  0.6758 -0.1809  0.3727
  459MOL0     C61896   2.750   4.868   7.148 -0.1041  0.2572  0.4805
  459MOL0     C61897   2.621   4.866   7.094  0.4655 -0.5534  0.2708
  459MOL0     H61898   2.177   4.919   6.831 -2.0071  0.3329  0.0281
  459MOL0     H61899   1.996   4.992   6.682  1.0184 -2.6149  0.8977
  459MOL0     H61900   1.998   5.341   6.397  0.3960  0.2811  0.5930
  459MOL0     H61901   1.837   5.308   6.442  1.0437  1.1217 -4.6991
  459MOL0     H61902   2.032   5.490   6.578  0.6193 -2.2676  0.6506
  459MOL0     H61903   1.879   5.536   6.513  2.7785  3.5106  2.6965
  459MOL0     H61904   1.905   5.370   6.758 -2.5961 -0.8088 -0.6048
  459MOL0     H61905   1.848   5.544   6.734 -1.3157  0.2010  1.3549
  459MOL0     H61906   1.704   5.297   6.629  1.0493 -0.2842 -0.0582
  459MOL0     H61907   1.672   5.381   6.777 -0.7490  2.9663  0.2089
  459MOL0     H61908   1.640   5.598   6.672 -0.2573  0.0624 -0.6556
  459MOL0     H61909   1.679   5.522   6.512 -1.0303 -3.6813 -0.9984
  459MOL0     H61910   1.425   5.572   6.557 -2.3038 -0.9625  2.8899
  459MOL0     H61911   1.467   5.407   6.514  0.9246  2.6234 -3.6361
  459MOL0     H61912   1.467   5.364   6.780  0.0897 -0.7071 -1.1097
  459MOL0     H61913   1.426   5.529   6.799 -2.5777 -0.1469 -0.0461
  459MOL0     H61914   1.216   5.513   6.684  1.1367 -1.2964 -2.3924
  459MOL0     H61915   1.221   5.401   6.815 -1.6078 -0.3902  0.0425
  459MOL0     H61916   1.240   5.127   6.776 -1.8758 -0.0245  0.1732
  459MOL0     H61917   1.207   4.889   6.487  0.4739 -0.8579  0.6114
  459MOL0     H61918   1.184   4.897   6.665  1.2953 -3.5043 -1.4637
  459MOL0     H61919   0.977   5.006   6.492  0.1330  2.7678  1.7486
  459MOL0     H61920   0.975   5.010   6.673 -0.5211  0.1758 -0.6598
  459MOL0     H61921   1.011   4.735   6.637  0.6911  0.1694 -0.2698
  459MOL0     H61922   0.911   4.780   6.491 -0.0932  2.3018 -0.2184
  459MOL0     H61923   0.737   4.853   6.622 -0.7104 -0.2675  1.1956
  459MOL0     H61924   0.811   4.872   6.778 -1.9120  0.3651  0.5201
  459MOL0     H61925   0.774   4.430   6.769  3.0410  0.8511 -0.7264
  459MOL0     H61926   0.795   4.236   6.873  4.5676  0.2386 -0.0395
  459MOL0     H61927   0.852   4.229   7.037 -0.9481 -0.6013 -0.5781
  459MOL0     H61928   0.676   4.220   6.993  0.4687 -0.8849  0.2942
  459MOL0     H61929   0.909   4.572   7.533  1.3826 -1.0186  0.3717
  459MOL0     H61930   0.914   4.500   7.752 -0.0171  0.4562 -1.6585
  459MOL0     H61931   0.789   4.525   7.987  1.3782 -2.7160 -1.6486
  459MOL0     H61932   0.613   4.530   8.004 -0.0674  0.6116  1.8817
  459MOL0     H61933   0.639   4.303   8.127 -0.7337  0.0429  1.5895
  459MOL0     H61934   0.819   4.342   8.116 -1.4327 -3.0003  2.2510
  459MOL0     H61935   0.596   4.512   8.242 -0.3528 -2.0221  2.8168
  459MOL0     H61936   0.762   4.569   8.219 -2.0866  2.0308  2.1440
  459MOL0     H61937   0.656   4.327   8.382  2.0589 -3.0430 -2.7932
  459MOL0     H61938   0.822   4.328   8.358 -2.6251 -3.7790  3.3548
  459MOL0     H61939   0.799   4.581   8.435 -0.8917 -0.0821 -0.2629
  459MOL0     H61940   0.862   4.441   8.532 -0.5195  0.4191 -0.2310
  459MOL0     H61941   0.641   4.384   8.608  0.9736 -0.0850 -0.7824
  459MOL0     H61942   0.713   4.532   8.676  0.5141  0.6351  0.4044
  459MOL0     H61943   0.518   4.537   8.449 -1.6391  3.1738  1.1469
  459MOL0     H61944   0.569   4.665   8.546  0.0110  0.2361 -1.0527
  459MOL0     H61945   0.411   4.428   8.649 -4.8492  1.4360  0.3950
  459MOL0     H61946   0.345   4.588   8.628 -0.0420  0.6290  3.9409
  459MOL0     H61947   0.504   4.343   7.712  0.6257 -0.3495  1.6973
  459MOL0     H61948   0.513   4.435   7.491 -1.5000  0.4651  2.8973
  459MOL0     H61949   0.743   4.687   7.183  4.1051  0.5310  0.2913
  459MOL0     H61950   0.754   4.799   6.953 -0.8574 -0.5837 -2.2841
  459MOL0     H61951   2.201   5.350   6.566  1.7095  1.0447 -0.0080
  459MOL0     H61952   2.385   5.280   6.715 -0.7314  0.6138  0.0988
  459MOL0     H61953   2.628   5.171   6.937  1.7290  0.2070 -0.1780
  459MOL0     H61954   2.839   5.171   7.045 -3.5601  1.1310  0.6696
  459MOL0     H61955   3.069   5.091   7.102  0.8111 -5.4681 -0.1688
  459MOL0     H61956   2.976   5.182   7.228  0.3104  0.0124 -0.7494
  459MOL0     H61957   3.118   5.025   7.399  0.4416  1.4523  1.1989
  459MOL0     H61958   3.204   5.154   7.317 -0.8570  0.1021  0.4952
  459MOL0     H61959   3.244   4.945   7.130  0.5851  0.4565  0.1022
  459MOL0     H61960   3.182   4.858   7.252  0.1847 -0.9756 -1.2720
  459MOL0     H61961   3.429   4.856   7.255  0.1400  0.8809 -1.4937
  459MOL0     H61962   3.349   4.891   7.411 -0.4083  0.0811 -0.4109
  459MOL0     H61963   3.591   5.223   7.383  2.5338 -1.2806 -0.6461
  459MOL0     H61964   2.770   4.777   7.204 -2.3072  0.7579  2.2382
  459MOL0     H61965   2.551   4.783   7.097  0.5765 -0.6980 -0.7675
  460MOL0     O61966  10.574   4.636   9.550 -0.3349 -0.0929 -0.2692
  460MOL0     C61967  10.623   4.662   9.654 -0.7493  0.9769 -0.5424
  460MOL0     O61968  10.718   4.582   9.723 -0.0959 -1.0963 -0.8890
  460MOL0     C61969  10.761   4.447   9.688 -0.2183 -0.5830 -0.2345
  460MOL0     C61970  10.838   4.386   9.789  0.3870  0.5168 -0.6229
  460MOL0     C61971  10.877   4.251   9.774  0.4194 -0.6054  0.1298
  460MOL0     C61972  10.840   4.169   9.665  0.5062  0.0585 -0.1038
  460MOL0     O61973  10.861   4.031   9.655 -0.1989 -0.2442  0.2623
  460MOL0     C61974  10.890   3.977   9.522 -0.0516 -0.0272  0.0098
  460MOL0     C61975  10.955   3.838   9.539  0.7395 -0.6044  0.0599
  460MOL0     C61976  10.866   3.743   9.630  0.0779 -0.0956 -0.3461
  460MOL0     C61977  10.931   3.674   9.750 -0.6901 -0.4589  0.0523
  460MOL0     C61978  10.836   3.562   9.796  0.0187 -0.2598  0.0336
  460MOL0     C61979  10.691   3.613   9.832  0.6979  0.0803  1.1968
  460MOL0     C61980  10.597   3.514   9.896 -0.4493  0.2153  0.5091
  460MOL0     C61981  10.660   3.469  10.033  0.3897 -0.4969 -0.3973
  460MOL0     N61982  10.588   3.523  10.156 -0.0842  0.1899 -0.2844
  460MOL0     C61983  10.574   3.660  10.161  0.2591 -0.5017 -0.1277
  460MOL0     C61984  10.472   3.672  10.253  0.1535  0.3463 -0.6740
  460MOL0     C61985  10.403   3.792  10.295  0.2438 -0.9284 -0.1992
  460MOL0     C61986  10.460   3.857  10.423 -0.5392 -0.6704 -1.1026
  460MOL0     C61987  10.365   3.866  10.545  0.3946 -0.1652 -0.0457
  460MOL0     C61988  10.414   3.962  10.656 -0.0763  0.7625  0.5211
  460MOL0     O61989  10.460   3.871  10.755  0.5749 -0.4353 -1.1559
  460MOL0     C61990  10.466   3.911  10.885  0.5429  0.4771  0.8225
  460MOL0     C61991  10.446   4.044  10.932  0.3253  0.1282  0.5913
  460MOL0     C61992  10.480   4.075  11.065 -0.1470 -0.6880  0.3949
  460MOL0     C61993  10.452   4.206  11.110  0.2805 -0.6295 -0.3044
  460MOL0     C61994  10.520   3.972  11.152  0.4117 -0.4449  0.6126
  460MOL0     C61995  10.572   3.991  11.283  0.4467 -1.3331  0.2201
  460MOL0     O61996  10.517   3.925  11.394 -0.5340  0.3479  0.5132
  460MOL0     C61997  10.572   3.952  11.517 -1.4963 -0.2919 -0.1813
  460MOL0     C61998  10.674   3.871  11.576  0.0088  0.4205  0.2966
  460MOL0     C61999  10.715   3.896  11.704  0.0476  0.7370  0.4673
  460MOL0     C62000  10.663   4.005  11.777  0.6717 -0.0637 -0.5941
  460MOL0     O62001  10.696   4.041  11.913  0.4929 -0.3651 -0.2025
  460MOL0     C62002  10.793   3.967  11.994 -0.3529 -0.0730  0.3336
  460MOL0     C62003  10.844   4.054  12.110 -0.3378 -0.6795  0.5095
  460MOL0     C62004  10.978   3.996  12.158 -0.1443  0.7577  0.1963
  460MOL0     C62005  11.034   4.071  12.284 -0.0762 -0.4343 -0.5981
  460MOL0     C62006  10.958   4.052  12.413 -0.1566 -0.1146 -0.9814
  460MOL0     C62007  11.022   4.138  12.526  0.6579  0.0815  0.1310
  460MOL0     C62008  10.960   4.099  12.663 -0.8344  1.2303  0.5371
  460MOL0     C62009  10.832   4.179  12.701  0.3109  0.4706 -0.2912
  460MOL0    Cl62010  10.796   4.158  12.876 -0.5638  0.9144 -0.1022
  460MOL0     C62011  10.563   4.081  11.719  0.2045 -0.6302  0.4250
  460MOL0     C62012  10.521   4.051  11.597  0.2490 -0.5185  1.1210
  460MOL0     O62013  10.652   4.086  11.300 -0.4784  0.5474 -0.1220
  460MOL0     C62014  10.534   3.848  11.107 -0.2158  0.1708 -0.7212
  460MOL0     C62015  10.513   3.823  10.973  0.1488 -0.1483 -1.0109
  460MOL0     N62016  10.421   3.551  10.285 -0.2113  0.3869  0.0179
  460MOL0     N62017  10.495   3.459  10.230  0.6076 -0.3234 -0.2894
  460MOL0     C62018  10.784   4.237   9.559  0.3893 -0.5550  0.1023
  460MOL0     C62019  10.735   4.370   9.576 -0.4448  0.4448 -1.8666
  460MOL0     C62020  10.583   4.796   9.718 -0.0788  0.5338 -0.0153
  460MOL0     C62021  10.455   4.846   9.704  0.4572  0.0276  0.1224
  460MOL0     C62022  10.426   4.965   9.767  1.0602 -1.1129  0.2112
  460MOL0     C62023  10.522   5.040   9.846 -0.6455 -0.0279  0.5633
  460MOL0     O62024  10.483   5.170   9.869  0.0197  0.1879 -0.2581
  460MOL0     C62025  10.592   5.258   9.924  0.5421  0.3645 -0.2182
  460MOL0     C62026  10.535   5.394   9.951 -0.4354  0.5158  0.1424
  460MOL0     C62027  10.637   5.508   9.915  0.6155  0.2020 -0.3903
  460MOL0     C62028  10.566   5.640   9.953  0.4478  0.0506 -0.5525
  460MOL0     C62029  10.647   5.765   9.934 -0.8911  0.2189  0.6680
  460MOL0     C62030  10.736   5.859   9.910  1.1846  0.1845 -0.1225
  460MOL0     C62031  10.648   4.979   9.866  1.0646  0.4693 -0.3944
  460MOL0     C62032  10.679   4.853   9.811  0.4673  0.2856 -0.5848
  460MOL0     H62033  10.870   4.446   9.875 -0.9971 -0.9168  0.9728
  460MOL0     H62034  10.938   4.192   9.840 -1.9599 -1.4805  1.6866
  460MOL0     H62035  10.791   3.955   9.482 -0.0512 -1.5414  0.7623
  460MOL0     H62036  10.967   4.034   9.469 -0.7043  2.2643  1.3623
  460MOL0     H62037  10.960   3.800   9.436 -0.1394  0.6303 -0.4620
  460MOL0     H62038  11.057   3.844   9.576  1.1502 -0.3442 -1.0727
  460MOL0     H62039  10.773   3.787   9.666 -0.5987 -1.1420 -0.7523
  460MOL0     H62040  10.835   3.660   9.566  1.4250 -2.3792  1.7419
  460MOL0     H62041  11.023   3.619   9.725 -0.6670 -0.0843 -0.6974
  460MOL0     H62042  10.921   3.745   9.833 -0.5947 -1.9564  1.4165
  460MOL0     H62043  10.814   3.493   9.714 -2.6420  1.3233 -0.6978
  460MOL0     H62044  10.880   3.499   9.874 -1.6063 -0.7839  0.5856
  460MOL0     H62045  10.685   3.714   9.873 -0.6955  1.8297 -2.8343
  460MOL0     H62046  10.640   3.634   9.737 -0.5535  0.1557  1.8575
  460MOL0     H62047  10.500   3.561   9.912  0.8921  3.4545 -0.0806
  460MOL0     H62048  10.580   3.427   9.831  1.6340 -3.7539  4.6882
  460MOL0     H62049  10.764   3.503  10.041  0.8766 -1.6898 -1.3522
  460MOL0     H62050  10.658   3.360  10.043  0.5319 -0.4320  0.4306
  460MOL0     H62051  10.642   3.738  10.127  1.4177 -2.4003 -2.4754
  460MOL0     H62052  10.424   3.858  10.211  1.5835 -3.8986 -2.3804
  460MOL0     H62053  10.297   3.774  10.310  0.2223  0.8608  2.7232
  460MOL0     H62054  10.492   3.960  10.404 -1.7012  0.4820  2.3098
  460MOL0     H62055  10.547   3.797  10.451 -1.3190 -1.5362 -0.4498
  460MOL0     H62056  10.350   3.762  10.575 -1.4288 -0.1077 -0.6770
  460MOL0     H62057  10.264   3.896  10.516 -0.6395 -2.4031  1.0022
  460MOL0     H62058  10.329   4.016  10.698 -0.0579  1.5505 -0.4249
  460MOL0     H62059  10.490   4.034  10.624  0.3968 -0.8017 -2.1049
  460MOL0     H62060  10.406   4.116  10.862 -0.7895 -2.0616 -1.1867
  460MOL0     H62061  10.447   4.278  11.028  0.8204 -1.7021 -1.3075
  460MOL0     H62062  10.354   4.200  11.159  0.6681  2.2005  1.0479
  460MOL0     H62063  10.516   4.249  11.189  4.3345 -1.6171 -2.7649
  460MOL0     H62064  10.717   3.795  11.512 -5.3078  0.8208 -4.5297
  460MOL0     H62065  10.789   3.833  11.753  0.6959  1.1877  0.0754
  460MOL0     H62066  10.753   3.875  12.037  2.3252 -0.5589  2.0350
  460MOL0     H62067  10.877   3.933  11.934 -1.1142 -2.2756  0.4205
  460MOL0     H62068  10.851   4.158  12.077 -1.9593 -0.9593 -0.8519
  460MOL0     H62069  10.772   4.048  12.192  0.9200 -0.8212  1.6435
  460MOL0     H62070  11.055   3.996  12.081 -1.3107 -1.9740 -1.0799
  460MOL0     H62071  10.964   3.890  12.179 -3.4068  1.0621  0.1048
  460MOL0     H62072  11.135   4.038  12.309 -0.8323 -1.0827  1.9039
  460MOL0     H62073  11.036   4.178  12.258 -0.8044 -0.5929 -1.3663
  460MOL0     H62074  10.960   3.944  12.426 -1.1304 -0.1486 -1.0782
  460MOL0     H62075  10.853   4.080  12.401  0.5513  2.7215 -1.4726
  460MOL0     H62076  11.125   4.103  12.535 -0.3033 -2.8117  1.4724
  460MOL0     H62077  11.027   4.246  12.513  0.9493 -0.0928 -1.3626
  460MOL0     H62078  11.027   4.114  12.748 -0.3899 -0.7445  0.5933
  460MOL0     H62079  10.942   3.991  12.660 -4.2930  1.6993 -0.6534
  460MOL0     H62080  10.749   4.143  12.639  2.2893 -1.8602 -1.7912
  460MOL0     H62081  10.842   4.286  12.681 -1.9167  0.7233 -0.2813
  460MOL0     H62082  10.518   4.166  11.771 -0.5496 -1.7253  1.6345
  460MOL0     H62083  10.448   4.120  11.556  0.3307 -0.9484  0.2113
  460MOL0     H62084  10.567   3.771  11.177 -1.1680 -0.1856 -0.6407
  460MOL0     H62085  10.533   3.719  10.951  1.2245 -0.3764  0.8312
  460MOL0     H62086  10.766   4.202   9.458 -2.8945  0.6401  0.1390
  460MOL0     H62087  10.699   4.425   9.490 -1.5357  1.7398 -0.6346
  460MOL0     H62088  10.380   4.789   9.651  0.8217 -2.5192  2.1047
  460MOL0     H62089  10.333   5.016   9.743 -0.2727 -3.7726 -0.6009
  460MOL0     H62090  10.634   5.211  10.013  0.2741  0.0993 -0.2286
  460MOL0     H62091  10.675   5.272   9.854  2.7477 -0.7374  2.0332
  460MOL0     H62092  10.503   5.409  10.054 -0.6388 -1.0106  0.3176
  460MOL0     H62093  10.456   5.401   9.876  0.8311  1.9274 -1.1416
  460MOL0     H62094  10.660   5.504   9.808 -0.8022 -0.4089 -0.6956
  460MOL0     H62095  10.732   5.491   9.966 -0.5781 -2.0221  1.2633
  460MOL0     H62096  10.551   5.632  10.061 -0.9235 -3.0051 -0.8762
  460MOL0     H62097  10.471   5.645   9.899  0.4417  1.2585 -0.4573
  460MOL0     H62098  10.803   5.939   9.884 -4.3999  4.5539 -3.4672
  460MOL0     H62099  10.731   5.021   9.922 -0.8458  1.6043  1.7266
  460MOL0     H62100  10.767   4.801   9.847  1.5154  1.1812 -1.7459
  461MOL0     O62101   3.360   6.666  11.327  0.5157 -0.1758  0.3007
  461MOL0     C62102   3.314   6.576  11.258 -0.5006 -1.0578 -0.6243
  461MOL0     O62103   3.362   6.451  11.257 -0.9344 -0.7460 -0.2870
  461MOL0     C62104   3.470   6.412  11.342  0.0514 -0.1943 -1.0270
  461MOL0     C62105   3.562   6.318  11.298  0.5597  0.8269  0.6401
  461MOL0     C62106   3.679   6.275  11.372  0.3416  0.1982  0.2644
  461MOL0     C62107   3.689   6.342  11.500  0.1258  0.7041  0.0851
  461MOL0     O62108   3.792   6.306  11.591  0.4087  0.3723  0.2015
  461MOL0     C62109   3.864   6.179  11.580 -0.8897  0.2363 -0.1841
  461MOL0     C62110   3.936   6.150  11.712  0.9448 -0.2920  0.1044
  461MOL0     C62111   3.854   6.032  11.777 -1.0363 -0.1916 -0.4701
  461MOL0     C62112   3.833   5.901  11.705 -0.5022  0.0650 -0.3216
  461MOL0     C62113   3.757   5.784  11.776  1.2089  0.0656 -0.0346
  461MOL0     C62114   3.774   5.660  11.683  0.3592  0.1128  0.4956
  461MOL0     C62115   3.669   5.551  11.708  0.3690  0.5777 -0.0066
  461MOL0     C62116   3.524   5.571  11.657 -0.2347  0.4048 -0.5478
  461MOL0     N62117   3.523   5.554  11.509  0.2192  0.7862 -0.3379
  461MOL0     C62118   3.427   5.596  11.414  0.0683 -0.2899 -1.0340
  461MOL0     C62119   3.482   5.580  11.288 -0.3353  0.5958 -0.0516
  461MOL0     C62120   3.409   5.633  11.170 -0.6324  0.6395  0.2279
  461MOL0     C62121   3.396   5.782  11.180 -0.2021 -0.4189 -0.1560
  461MOL0     C62122   3.339   5.834  11.052 -0.5715  0.0757  0.2036
  461MOL0     C62123   3.448   5.917  10.973  0.9385 -0.3179 -0.5350
  461MOL0     O62124   3.448   6.050  11.034  0.0005 -0.0376  0.1791
  461MOL0     C62125   3.424   6.154  10.941 -0.4949 -0.1956 -0.6419
  461MOL0     C62126   3.519   6.258  10.927 -0.0495 -0.7884  0.7221
  461MOL0     C62127   3.497   6.361  10.839 -0.6277 -0.5288  1.0531
  461MOL0     C62128   3.615   6.461  10.811 -0.2754  0.2523  0.4139
  461MOL0     C62129   3.365   6.374  10.774  0.4312  1.0508  0.0776
  461MOL0     C62130   3.336   6.485  10.682  0.4633  0.0026 -0.7421
  461MOL0     O62131   3.204   6.520  10.679  0.2860 -0.4619 -0.2173
  461MOL0     C62132   3.161   6.604  10.580 -0.9014 -0.2328  0.6512
  461MOL0     C62133   3.122   6.740  10.611  0.2198  0.5448  0.4969
  461MOL0     C62134   3.063   6.819  10.511 -0.0283  1.0514  0.4894
  461MOL0     C62135   3.039   6.772  10.381  0.3524 -0.1421  0.2624
  461MOL0     O62136   2.982   6.845  10.276 -0.1468  0.0867 -0.0279
  461MOL0     C62137   2.915   6.976  10.300  0.5580 -0.1541  0.4131
  461MOL0     C62138   2.797   7.006  10.205  0.1375 -0.1710  0.4320
  461MOL0     C62139   2.842   6.984  10.060 -0.2414 -0.3406  0.8141
  461MOL0     C62140   2.730   6.962   9.959 -0.3704  0.4951  0.0272
  461MOL0     C62141   2.769   6.939   9.814  0.0066 -0.6185  0.1479
  461MOL0     C62142   2.841   7.066   9.752 -1.0796 -0.3127 -0.1692
  461MOL0     C62143   2.757   7.186   9.736 -0.8091 -0.1282  0.0036
  461MOL0     C62144   2.815   7.293   9.647  0.4953 -0.0822  0.4834
  461MOL0    Cl62145   2.954   7.360   9.742  0.4191  0.2225  0.1071
  461MOL0     C62146   3.091   6.642  10.350  0.4857 -0.4046  0.1114
  461MOL0     C62147   3.157   6.558  10.448  1.6474 -0.3063  0.4014
  461MOL0     O62148   3.420   6.535  10.610  0.7217 -0.3848 -0.4135
  461MOL0     C62149   3.275   6.271  10.797  0.7212 -0.5774 -0.2295
  461MOL0     C62150   3.298   6.164  10.879 -0.2028 -0.3092 -0.8191
  461MOL0     N62151   3.603   5.528  11.296 -1.0974  1.0873 -0.5740
  461MOL0     N62152   3.628   5.515  11.428 -0.5864 -0.5425  0.4659
  461MOL0     C62153   3.598   6.428  11.540  0.8276 -0.9474 -0.6993
  461MOL0     C62154   3.492   6.465  11.467  0.6017 -1.1155  0.3923
  461MOL0     C62155   3.215   6.609  11.153 -0.3378  0.3541 -0.6105
  461MOL0     C62156   3.152   6.731  11.151  0.5003 -0.2802  0.0008
  461MOL0     C62157   3.051   6.753  11.058  0.0815  0.4097  0.5282
  461MOL0     C62158   3.014   6.662  10.960 -0.0525  0.0225  0.2725
  461MOL0     O62159   2.909   6.706  10.871 -0.0330 -0.7473  0.1742
  461MOL0     C62160   2.855   6.603  10.796  1.0064  0.6146  0.5028
  461MOL0     C62161   2.775   6.656  10.678 -0.5707  1.1750  0.6171
  461MOL0     C62162   2.713   6.542  10.585 -0.1122  0.8507 -0.4902
  461MOL0     C62163   2.612   6.446  10.653 -0.6400 -0.6317 -0.0587
  461MOL0     C62164   2.526   6.384  10.559 -0.5072 -0.1442  0.2167
  461MOL0     C62165   2.440   6.327  10.493 -0.0564 -0.0060  0.2921
  461MOL0     C62166   3.093   6.547  10.948 -0.7424  1.1423  0.4598
  461MOL0     C62167   3.196   6.518  11.044 -0.1565  0.0598 -0.1814
  461MOL0     H62168   3.552   6.267  11.202 -0.9720 -1.4829  1.9402
  461MOL0     H62169   3.751   6.201  11.339 -1.3311 -0.9470 -0.9512
  461MOL0     H62170   3.787   6.103  11.563  0.6936 -1.1561 -1.5483
  461MOL0     H62171   3.933   6.173  11.495 -2.1949  0.0901 -1.2697
  461MOL0     H62172   4.044   6.132  11.709  1.5063  2.5857  0.6570
  461MOL0     H62173   3.941   6.243  11.768  3.2228  1.6184 -2.9425
  461MOL0     H62174   3.907   6.006  11.869  1.0933 -0.6964 -1.7696
  461MOL0     H62175   3.758   6.078  11.801 -1.5955 -0.1410 -2.6051
  461MOL0     H62176   3.793   5.914  11.604 -0.9101  2.3104  0.0852
  461MOL0     H62177   3.934   5.863  11.684  0.7928  3.4575 -0.7613
  461MOL0     H62178   3.797   5.754  11.873 -0.5759 -3.8233 -0.2829
  461MOL0     H62179   3.651   5.813  11.780  0.3596 -2.3960 -1.7671
  461MOL0     H62180   3.769   5.696  11.580 -0.9495  0.0531  0.5255
  461MOL0     H62181   3.876   5.624  11.701  0.7732  0.4998 -0.9009
  461MOL0     H62182   3.692   5.450  11.672 -1.8082  0.2619 -0.6538
  461MOL0     H62183   3.664   5.540  11.816 -0.6047 -0.1736 -0.1153
  461MOL0     H62184   3.495   5.672  11.688  0.2569 -0.0355  1.5434
  461MOL0     H62185   3.460   5.491  11.696 -2.2997  1.8114 -0.9149
  461MOL0     H62186   3.329   5.640  11.432  1.3997  2.1207  0.9497
  461MOL0     H62187   3.457   5.600  11.078  0.3700  4.1703 -0.6661
  461MOL0     H62188   3.311   5.587  11.179 -0.9336  1.2218 -0.0352
  461MOL0     H62189   3.499   5.818  11.187 -0.4626  0.6719 -1.4012
  461MOL0     H62190   3.345   5.802  11.274  1.2503 -1.3625  0.8633
  461MOL0     H62191   3.246   5.891  11.060 -1.4252 -1.2364 -0.0188
  461MOL0     H62192   3.313   5.745  10.994 -1.6962  1.0058 -0.7789
  461MOL0     H62193   3.421   5.930  10.868  2.9032  1.4312 -0.9006
  461MOL0     H62194   3.548   5.873  10.981  1.1549 -0.1735 -2.1024
  461MOL0     H62195   3.617   6.252  10.974  0.6907  1.4257 -0.3909
  461MOL0     H62196   3.579   6.563  10.827  1.3834  0.9228  0.1005
  461MOL0     H62197   3.702   6.440  10.873 -1.2698 -3.5239  0.7829
  461MOL0     H62198   3.648   6.454  10.707  0.7588 -2.3631  0.8478
  461MOL0     H62199   3.125   6.770  10.715 -1.1640 -1.8073  1.2761
  461MOL0     H62200   3.030   6.919  10.538 -0.5049  1.7135 -2.2268
  461MOL0     H62201   2.860   6.974  10.394 -1.0308  0.8204 -0.4374
  461MOL0     H62202   2.989   7.056  10.296 -1.3803  1.7105 -0.1566
  461MOL0     H62203   2.712   6.942  10.225  0.8062 -1.9470 -1.9525
  461MOL0     H62204   2.773   7.112  10.216  3.9374  0.8803  0.2192
  461MOL0     H62205   2.917   6.905  10.052  1.6094  1.4962 -5.4589
  461MOL0     H62206   2.893   7.075  10.028  0.0458 -1.0933 -1.0184
  461MOL0     H62207   2.679   6.869   9.986 -2.6586  2.4692  3.0714
  461MOL0     H62208   2.662   7.047   9.961 -0.6123  0.3272 -0.6866
  461MOL0     H62209   2.670   6.924   9.770  0.1342 -0.5842 -0.1576
  461MOL0     H62210   2.826   6.846   9.808  2.1690  0.7042 -1.2039
  461MOL0     H62211   2.925   7.095   9.815 -1.1197 -0.5361 -0.0131
  461MOL0     H62212   2.894   7.037   9.661  1.4500  0.5778  0.9161
  461MOL0     H62213   2.741   7.235   9.832 -3.9297 -0.5297 -0.1907
  461MOL0     H62214   2.659   7.162   9.694 -0.3211 -0.5399 -0.9358
  461MOL0     H62215   2.751   7.375   9.615  2.0539  1.5621  1.3816
  461MOL0     H62216   2.845   7.240   9.556 -1.9239  0.8075 -0.9488
  461MOL0     H62217   3.064   6.594  10.257 -1.0358 -1.5402  1.0961
  461MOL0     H62218   3.201   6.460  10.431  2.0994 -0.1362  0.5961
  461MOL0     H62219   3.178   6.291  10.753 -0.9107 -2.1291  2.3957
  461MOL0     H62220   3.223   6.086  10.883  0.5489 -0.9985  1.3723
  461MOL0     H62221   3.619   6.478  11.635  1.5326 -0.1755 -1.2495
  461MOL0     H62222   3.434   6.546  11.511  2.6302  0.1856  0.7631
  461MOL0     H62223   3.154   6.804  11.232 -3.8898 -1.4536  1.4616
  461MOL0     H62224   3.004   6.850  11.051  1.3511  0.9253 -1.6897
  461MOL0     H62225   2.926   6.533  10.749 -3.3496 -1.8664 -3.3124
  461MOL0     H62226   2.793   6.545  10.865 -0.9300  2.5520  0.4707
  461MOL0     H62227   2.833   6.724  10.615 -1.7386  1.2955 -0.3832
  461MOL0     H62228   2.696   6.720  10.719 -1.2315  0.4088  0.5738
  461MOL0     H62229   2.782   6.467  10.545  0.9014 -0.0618  2.6572
  461MOL0     H62230   2.666   6.593  10.500 -0.0329  1.1562 -0.3537
  461MOL0     H62231   2.560   6.502  10.731  0.5428 -0.8653  0.9471
  461MOL0     H62232   2.677   6.366  10.691 -0.4436  0.5095  2.1739
  461MOL0     H62233   2.367   6.270  10.439 -0.5252 -1.1062  2.0375
  461MOL0     H62234   3.070   6.474  10.870  0.4379  1.0268  0.2082
  461MOL0     H62235   3.255   6.431  11.015  0.7645  0.9613 -1.0940
  462MOL0     O62236  11.142   0.198  10.144 -0.2192  0.9231 -0.0658
  462MOL0     C62237  11.132   0.151  10.037 -0.6507  0.4641  0.8057
  462MOL0     O62238  11.128   0.218   9.921 -0.0565 -0.3139 -0.8137
  462MOL0     C62239  11.107   0.361   9.907 -0.6795 -0.8789 -0.0088
  462MOL0     C62240  11.067   0.457  10.002 -0.6716 -0.2799 -0.4391
  462MOL0     C62241  11.055   0.595   9.967 -0.3076 -0.2351 -0.4366
  462MOL0     C62242  11.097   0.641   9.843 -0.5661  0.0653 -0.8069
  462MOL0     O62243  11.101   0.778   9.821 -0.3997 -0.3102 -0.7400
  462MOL0     C62244  11.076   0.822   9.689 -0.1671  0.0159  0.1214
  462MOL0     C62245  11.044   0.964   9.690  0.7272  0.2697  0.1412
  462MOL0     C62246  10.906   1.012   9.752 -0.2417 -0.1167 -0.0633
  462MOL0     C62247  10.903   1.167   9.731  0.3356 -0.0853 -0.5280
  462MOL0     C62248  10.787   1.231   9.818  1.2969  0.2561 -0.2888
  462MOL0     C62249  10.655   1.207   9.756  0.8854  0.3414 -0.0608
  462MOL0     C62250  10.555   1.318   9.768  0.2179  0.6912 -0.1094
  462MOL0     C62251  10.511   1.344   9.916  0.2835  0.0452 -0.6563
  462MOL0     N62252  10.393   1.435   9.910 -0.2906 -0.4903  0.4995
  462MOL0     C62253  10.269   1.420   9.970  0.7665  0.3298 -0.4764
  462MOL0     C62254  10.203   1.538   9.946 -0.3413  0.2542  0.1741
  462MOL0     C62255  10.081   1.591  10.013 -0.0592 -0.7197 -1.0037
  462MOL0     C62256   9.952   1.592   9.924  0.8498  0.9523  0.3740
  462MOL0     C62257   9.839   1.655  10.009 -0.0649 -0.5077  0.2324
  462MOL0     C62258   9.778   1.563  10.113 -0.4347 -0.5481  1.1825
  462MOL0     O62259   9.645   1.613  10.143  0.0761 -0.0748 -0.0012
  462MOL0     C62260   9.618   1.718  10.224 -0.2134  0.4584  0.0418
  462MOL0     C62261   9.480   1.737  10.229  0.5710 -0.6260  0.1786
  462MOL0     C62262   9.434   1.825  10.329  0.2132  0.3755 -0.8027
  462MOL0     C62263   9.282   1.832  10.337 -0.0498 -0.7187 -0.6940
  462MOL0     C62264   9.514   1.901  10.413  0.5134  1.1256 -0.8714
  462MOL0     C62265   9.455   1.987  10.531  0.7188  0.2274 -0.2581
  462MOL0     O62266   9.353   1.939  10.599  0.1213  0.6368  0.3946
  462MOL0     C62267   9.322   2.008  10.717  0.0330 -0.1469  0.1823
  462MOL0     C62268   9.256   2.139  10.712  0.1855 -0.1768  0.2384
  462MOL0     C62269   9.229   2.215  10.829 -0.3389  0.3193  0.9661
  462MOL0     C62270   9.249   2.159  10.950 -0.0384 -0.7416  0.7138
  462MOL0     O62271   9.213   2.222  11.066 -0.2037  0.3554 -0.6385
  462MOL0     C62272   9.082   2.261  11.080  0.5234 -0.5394  0.1966
  462MOL0     C62273   9.050   2.296  11.229  0.9225 -0.2446 -0.7268
  462MOL0     C62274   8.897   2.331  11.240 -0.5568 -0.4380 -0.4185
  462MOL0     C62275   8.844   2.329  11.388  0.3848 -0.4905  0.5947
  462MOL0     C62276   8.738   2.436  11.409 -0.0416  0.3800  0.8621
  462MOL0     C62277   8.693   2.446  11.555 -0.0336  0.1599  0.7221
  462MOL0     C62278   8.600   2.560  11.588 -0.5183  0.3869  1.0534
  462MOL0     C62279   8.612   2.581  11.737  0.4552  0.7011  0.2705
  462MOL0    Cl62280   8.502   2.716  11.776 -0.3583  0.1950 -0.2786
  462MOL0     C62281   9.305   2.032  10.957  0.4119  1.1706  1.1417
  462MOL0     C62282   9.351   1.954  10.844  0.2870  0.0066  0.0643
  462MOL0     O62283   9.532   2.075  10.562 -0.1643 -0.1015  0.4442
  462MOL0     C62284   9.649   1.897  10.379  0.0515 -0.2636  0.6013
  462MOL0     C62285   9.703   1.803  10.286 -0.3328 -0.1021  1.1461
  462MOL0     N62286  10.290   1.620   9.872 -0.3576 -0.6125  0.5934
  462MOL0     N62287  10.401   1.560   9.855 -0.4678  0.3698  1.1090
  462MOL0     C62288  11.119   0.542   9.749 -0.2047  0.2778  0.0717
  462MOL0     C62289  11.137   0.411   9.780 -0.2042 -0.3099 -0.0751
  462MOL0     C62290  11.157   0.005  10.015 -0.0845  0.4015  0.8174
  462MOL0     C62291  11.203  -0.085  10.121  1.3784 -0.7171  0.4144
  462MOL0     C62292  11.249  -0.212  10.091  0.5226 -0.2585  0.9323
  462MOL0     C62293  11.264  -0.260   9.962  0.1856 -1.1730 -0.1318
  462MOL0     O62294  11.317  -0.384   9.945 -0.1131 -0.7010 -0.0268
  462MOL0     C62295  11.345  -0.453   9.821  0.1151 -0.0717 -0.2682
  462MOL0     C62296  11.492  -0.424   9.783  1.1419 -1.5120  0.6966
  462MOL0     C62297  11.579  -0.479   9.885 -0.0752  1.4630 -0.4962
  462MOL0     C62298  11.635  -0.380   9.987 -0.3865  1.1780  0.5003
  462MOL0     C62299  11.713  -0.455  10.085 -0.2544 -1.2041 -0.1996
  462MOL0     C62300  11.802  -0.514  10.141  0.1111  0.7112  0.8692
  462MOL0     C62301  11.220  -0.174   9.856  0.4379 -0.3101  0.0887
  462MOL0     C62302  11.158  -0.046   9.886  0.1432  0.3955 -0.0353
  462MOL0     H62303  11.042   0.418  10.101  1.3876 -1.6983 -0.4135
  462MOL0     H62304  11.014   0.666  10.038  1.3873 -0.0316  0.4071
  462MOL0     H62305  11.160   0.802   9.622  0.0261  1.1033  0.0247
  462MOL0     H62306  10.983   0.774   9.656 -0.4009  1.1891 -0.9997
  462MOL0     H62307  11.132   1.016   9.730  1.4074 -0.1558 -0.7597
  462MOL0     H62308  11.029   1.000   9.588 -0.3141  0.7885  0.4683
  462MOL0     H62309  10.818   0.979   9.696  0.1974 -2.0075  0.2729
  462MOL0     H62310  10.908   0.983   9.857  1.5189  0.5910  0.1285
  462MOL0     H62311  10.992   1.219   9.768  1.1526 -3.0105  1.9557
  462MOL0     H62312  10.888   1.201   9.628  2.5622 -0.1342 -0.9139
  462MOL0     H62313  10.784   1.208   9.925 -0.2885 -2.7037 -0.8676
  462MOL0     H62314  10.824   1.333   9.808  0.1145  0.5797 -1.5975
  462MOL0     H62315  10.658   1.189   9.648  0.0883 -0.0117 -0.0328
  462MOL0     H62316  10.605   1.120   9.800 -0.8770  1.9714  1.3644
  462MOL0     H62317  10.607   1.403   9.724 -0.7128  0.5364 -1.5923
  462MOL0     H62318  10.466   1.292   9.710  0.6014 -0.5543 -0.1668
  462MOL0     H62319  10.585   1.391   9.982  0.6549 -1.6151  0.1836
  462MOL0     H62320  10.475   1.249   9.957 -4.2187  1.0692 -1.7958
  462MOL0     H62321  10.232   1.338  10.030  1.2803  0.8215  0.5367
  462MOL0     H62322  10.048   1.532  10.100  0.7929 -0.1517 -0.2867
  462MOL0     H62323  10.101   1.693  10.044  0.5746 -1.6820  2.0802
  462MOL0     H62324   9.920   1.491   9.896  0.8735  1.3837 -1.3234
  462MOL0     H62325   9.973   1.646   9.831 -2.4776  0.1084 -1.0274
  462MOL0     H62326   9.757   1.690   9.944 -0.0549 -0.8792  0.0161
  462MOL0     H62327   9.881   1.746  10.053  1.4771 -1.5418  0.9617
  462MOL0     H62328   9.838   1.552  10.204  0.1693 -0.8582  0.7585
  462MOL0     H62329   9.763   1.468  10.061 -2.5992  0.9574 -1.1953
  462MOL0     H62330   9.413   1.674  10.172  1.9105 -0.2956 -1.8356
  462MOL0     H62331   9.238   1.743  10.384  0.0372  0.0509  0.9230
  462MOL0     H62332   9.249   1.923  10.388  1.9073  0.6986 -1.8286
  462MOL0     H62333   9.240   1.839  10.236  1.8331  0.3169 -1.4673
  462MOL0     H62334   9.247   2.173  10.610  3.7226 -1.4541 -0.6256
  462MOL0     H62335   9.190   2.314  10.808  0.1056  0.3840  0.4324
  462MOL0     H62336   9.073   2.357  11.029 -1.2412 -0.1980  1.0680
  462MOL0     H62337   9.014   2.184  11.043  0.5192 -3.0594  4.7466
  462MOL0     H62338   9.073   2.211  11.293 -0.3168 -0.8040 -0.9905
  462MOL0     H62339   9.107   2.385  11.255 -1.7252  1.7898 -1.4723
  462MOL0     H62340   8.833   2.261  11.186 -0.1965 -1.4832  0.4668
  462MOL0     H62341   8.881   2.425  11.188  3.1769  1.0841  0.8134
  462MOL0     H62342   8.797   2.232  11.403 -1.0707  0.2363  0.9501
  462MOL0     H62343   8.926   2.358  11.455  2.9976  2.8376 -3.5010
  462MOL0     H62344   8.648   2.425  11.347  1.0938 -1.7423 -0.5197
  462MOL0     H62345   8.791   2.528  11.380 -2.3656  1.5711  0.0850
  462MOL0     H62346   8.639   2.356  11.585 -0.2941  0.4510  1.1479
  462MOL0     H62347   8.785   2.457  11.614  1.7667 -1.1277 -1.6850
  462MOL0     H62348   8.499   2.541  11.551  0.4567 -0.4178 -1.4350
  462MOL0     H62349   8.614   2.654  11.534  1.0367  0.0851  0.8782
  462MOL0     H62350   8.707   2.621  11.773  0.7585 -0.3048  0.6286
  462MOL0     H62351   8.585   2.488  11.788  1.5822  0.7191  0.9500
  462MOL0     H62352   9.324   1.977  11.049 -0.1919 -1.6006 -0.2615
  462MOL0     H62353   9.413   1.865  10.853 -0.1324 -0.1159  2.6314
  462MOL0     H62354   9.726   1.951  10.433  0.6994 -1.5246  0.9746
  462MOL0     H62355   9.809   1.781  10.276 -0.7166 -1.5282 -0.1473
  462MOL0     H62356  11.132   0.555   9.642 -1.7953 -2.1672 -0.5018
  462MOL0     H62357  11.185   0.344   9.709  1.5158  1.7110 -0.9249
  462MOL0     H62358  11.195  -0.048  10.222  1.2362  0.1466  0.0979
  462MOL0     H62359  11.280  -0.269  10.179  1.5255  1.1004  1.4994
  462MOL0     H62360  11.332  -0.561   9.833  0.2906 -0.1347 -0.6220
  462MOL0     H62361  11.285  -0.414   9.738  1.5672  2.1214 -0.3623
  462MOL0     H62362  11.506  -0.316   9.777 -1.6881 -1.1373 -1.6538
  462MOL0     H62363  11.523  -0.478   9.693  1.3259 -0.2516 -0.0150
  462MOL0     H62364  11.663  -0.529   9.836 -1.8562 -1.4910 -0.7685
  462MOL0     H62365  11.519  -0.554   9.938  2.2693  0.1747  0.4924
  462MOL0     H62366  11.557  -0.332  10.047 -1.6544 -0.3235  0.1036
  462MOL0     H62367  11.692  -0.302   9.936 -0.6938 -0.0256 -1.8353
  462MOL0     H62368  11.875  -0.570  10.195 -2.6402 -2.4969  1.5446
  462MOL0     H62369  11.219  -0.200   9.751 -3.8445  2.7084 -0.9076
  462MOL0     H62370  11.133   0.020   9.804  3.2488  1.9230  0.1226
  463MOL0     O62371  10.048   5.067   0.999  0.4223 -0.5518  0.3079
  463MOL0     C62372   9.942   5.010   1.015  0.3259  0.4212 -0.5934
  463MOL0     O62373   9.894   4.966   1.135 -0.0192  0.0311 -0.1628
  463MOL0     C62374   9.971   4.951   1.244 -0.5266  0.7927 -0.6787
  463MOL0     C62375  10.104   4.926   1.257 -0.3746 -0.7911 -0.6798
  463MOL0     C62376  10.161   4.892   1.387 -0.0150 -0.5912  0.3219
  463MOL0     C62377  10.083   4.880   1.504 -0.4479  0.3314  0.2992
  463MOL0     O62378  10.131   4.845   1.622 -0.1892  1.0474 -0.7223
  463MOL0     C62379  10.265   4.801   1.632  1.0381 -0.0357  1.4127
  463MOL0     C62380  10.274   4.743   1.777 -0.1606 -0.3949  0.2989
  463MOL0     C62381  10.173   4.625   1.806 -0.0229  0.3404 -0.8729
  463MOL0     C62382  10.152   4.528   1.693  0.1720 -0.5646  0.3653
  463MOL0     C62383  10.078   4.395   1.723 -0.4303 -0.0400 -0.7249
  463MOL0     C62384   9.934   4.411   1.776  0.1016 -0.1383  0.2958
  463MOL0     C62385   9.843   4.505   1.701  0.2852 -0.3655  0.3186
  463MOL0     C62386   9.810   4.454   1.558  0.0730  0.1963 -0.8677
  463MOL0     N62387   9.691   4.525   1.506  0.2319  0.3347 -0.2739
  463MOL0     C62388   9.560   4.504   1.560  0.8818 -0.8469 -0.2078
  463MOL0     C62389   9.491   4.606   1.517  0.0692 -0.1302 -0.0416
  463MOL0     C62390   9.342   4.629   1.537 -0.5190  0.2217  0.7326
  463MOL0     C62391   9.276   4.654   1.402  0.2336 -0.6333  0.1468
  463MOL0     C62392   9.141   4.738   1.412 -0.2865 -0.5223 -0.0774
  463MOL0     C62393   9.076   4.715   1.278  0.2460  0.0235  0.8492
  463MOL0     O62394   9.001   4.591   1.275 -0.4521 -0.3362 -0.5616
  463MOL0     C62395   8.959   4.542   1.152 -0.0805  0.0985 -0.2854
  463MOL0     C62396   8.876   4.431   1.156 -0.4272 -0.2119  0.6315
  463MOL0     C62397   8.815   4.386   1.037 -0.7501  0.0749 -0.4946
  463MOL0     C62398   8.725   4.266   1.046 -1.0164 -0.4463  0.7290
  463MOL0     C62399   8.832   4.457   0.915 -0.0781 -0.3555 -0.2643
  463MOL0     C62400   8.798   4.411   0.780  0.1480  0.5585 -0.2192
  463MOL0     O62401   8.777   4.279   0.772  0.3663 -0.6694  0.3433
  463MOL0     C62402   8.711   4.224   0.666  0.2378 -0.3947 -1.2324
  463MOL0     C62403   8.783   4.164   0.560  0.6337 -0.1713 -0.1100
  463MOL0     C62404   8.694   4.127   0.454 -0.2701  0.6471 -0.7636
  463MOL0     C62405   8.559   4.119   0.453 -0.0800  0.7642  0.3722
  463MOL0     O62406   8.489   4.082   0.344 -0.2954 -0.0039  0.2755
  463MOL0     C62407   8.551   3.991   0.253 -0.3018  0.2032 -0.2660
  463MOL0     C62408   8.475   3.953   0.129 -0.2353  0.6580 -0.5070
  463MOL0     C62409   8.354   3.864   0.153  0.7609  0.4306  0.2494
  463MOL0     C62410   8.228   3.936   0.212 -0.0876 -0.4347  0.4533
  463MOL0     C62411   8.157   4.034   0.121 -0.0435 -0.2830  0.1578
  463MOL0     C62412   8.055   4.128   0.188 -0.1873 -0.9770  0.3629
  463MOL0     C62413   7.919   4.060   0.203  0.7529  0.3955  0.6554
  463MOL0     C62414   7.797   4.159   0.187 -1.0519 -0.1666  0.7463
  463MOL0    Cl62415   7.648   4.070   0.228  0.7826  0.2128 -0.6527
  463MOL0     C62416   8.496   4.170   0.567 -0.3565 -0.1759  0.6374
  463MOL0     C62417   8.573   4.218   0.669 -0.1851 -0.6012 -1.0855
  463MOL0     O62418   8.805   4.484   0.689  0.1524  0.1207  0.0559
  463MOL0     C62419   8.918   4.572   0.915 -0.4228 -0.3056 -1.2171
  463MOL0     C62420   8.978   4.614   1.030  0.0240  0.1013  1.2752
  463MOL0     N62421   9.573   4.683   1.435 -0.4217 -0.3440  0.0594
  463MOL0     N62422   9.695   4.632   1.424  0.7990  0.0576 -0.0817
  463MOL0     C62423   9.947   4.900   1.491 -0.0222 -0.0271 -0.1669
  463MOL0     C62424   9.892   4.933   1.364 -0.0282 -0.1089 -0.5098
  463MOL0     C62425   9.861   4.973   0.900 -0.5147 -0.9746 -0.6318
  463MOL0     C62426   9.752   4.885   0.904 -0.2490  0.1180 -0.4606
  463MOL0     C62427   9.676   4.856   0.786  0.7626 -0.0421 -0.1454
  463MOL0     C62428   9.715   4.903   0.658  0.5903 -1.0220  0.3315
  463MOL0     O62429   9.649   4.884   0.538 -0.2550  0.0948  0.1427
  463MOL0     C62430   9.532   4.803   0.546  0.4193 -1.2370  0.2865
  463MOL0     C62431   9.467   4.783   0.407  0.3534  0.8236 -0.8512
  463MOL0     C62432   9.392   4.658   0.402  0.0893  0.2130  0.0770
  463MOL0     C62433   9.460   4.519   0.408  0.3270  0.7103  0.0264
  463MOL0     C62434   9.547   4.489   0.288  0.7572 -0.4603 -0.0620
  463MOL0     C62435   9.617   4.432   0.218 -0.0031  0.2505  0.9762
  463MOL0     C62436   9.817   4.997   0.653  0.0133  0.4509 -0.1877
  463MOL0     C62437   9.891   5.022   0.774  0.3565 -0.1211  0.5207
  463MOL0     H62438  10.158   4.943   1.164 -1.5366  1.5012 -1.0175
  463MOL0     H62439  10.269   4.882   1.398  0.0337  0.3032  0.7539
  463MOL0     H62440  10.289   4.737   1.547 -2.3777  0.2028  0.1149
  463MOL0     H62441  10.331   4.888   1.625  0.6942  0.3119  2.3118
  463MOL0     H62442  10.371   4.693   1.785  0.8805  1.0088 -2.4061
  463MOL0     H62443  10.276   4.818   1.856 -3.0660 -2.0737  2.1577
  463MOL0     H62444  10.209   4.573   1.895  3.3284  2.1941 -0.9694
  463MOL0     H62445  10.072   4.659   1.829 -0.7231 -1.1882 -1.4851
  463MOL0     H62446  10.086   4.583   1.625  0.0281  0.9752  1.6957
  463MOL0     H62447  10.251   4.496   1.660 -0.3491 -3.0652  1.0240
  463MOL0     H62448  10.059   4.330   1.637 -0.3918  0.6706 -1.2752
  463MOL0     H62449  10.133   4.351   1.807 -1.1287 -1.5064 -1.0083
  463MOL0     H62450   9.885   4.313   1.777 -1.7987  0.5537 -3.7792
  463MOL0     H62451   9.926   4.439   1.882  0.7954 -2.9328  1.1809
  463MOL0     H62452   9.749   4.509   1.757 -0.0907 -0.1337 -0.3069
  463MOL0     H62453   9.883   4.607   1.704  0.5130 -0.4426 -0.0411
  463MOL0     H62454   9.795   4.345   1.564  0.5181  0.1689 -0.1686
  463MOL0     H62455   9.903   4.466   1.501 -0.9823  2.2358 -2.2846
  463MOL0     H62456   9.525   4.422   1.623  0.5073 -2.4331 -2.3402
  463MOL0     H62457   9.295   4.546   1.590  2.0152 -1.3925  0.6118
  463MOL0     H62458   9.338   4.715   1.604  0.7272  1.8822 -1.1772
  463MOL0     H62459   9.246   4.558   1.358 -2.6121  0.5142 -0.6321
  463MOL0     H62460   9.346   4.708   1.337  0.8491  0.3233  1.5580
  463MOL0     H62461   9.178   4.837   1.442  1.3428 -2.1911  4.3066
  463MOL0     H62462   9.080   4.688   1.489  0.5280 -0.6018  0.5218
  463MOL0     H62463   9.158   4.728   1.207 -0.4361 -1.9523 -0.4023
  463MOL0     H62464   9.010   4.797   1.249  0.5943  0.4835  1.3655
  463MOL0     H62465   8.842   4.397   1.253 -0.4353 -1.9263  0.0631
  463MOL0     H62466   8.652   4.269   0.965 -0.3589 -0.4894  0.1266
  463MOL0     H62467   8.782   4.173   1.046  0.5096  0.4354  1.8336
  463MOL0     H62468   8.665   4.284   1.136 -2.6347 -1.8031 -0.0376
  463MOL0     H62469   8.890   4.185   0.553  0.5356  0.6828  0.7664
  463MOL0     H62470   8.767   4.101   0.379  3.6664  0.3083  2.8172
  463MOL0     H62471   8.633   4.051   0.212 -0.2954 -1.1782 -2.4513
  463MOL0     H62472   8.593   3.899   0.295  4.2894  2.0613 -0.1932
  463MOL0     H62473   8.441   4.046   0.083  0.4310  0.3209 -1.7217
  463MOL0     H62474   8.538   3.906   0.053  1.0516  3.0816 -1.0459
  463MOL0     H62475   8.380   3.782   0.221 -0.4445 -0.7641 -0.6575
  463MOL0     H62476   8.327   3.806   0.064 -0.8916 -0.5582  1.3330
  463MOL0     H62477   8.148   3.863   0.228 -1.8158  0.7838 -2.0289
  463MOL0     H62478   8.259   3.986   0.304 -1.3499 -0.8720  1.1435
  463MOL0     H62479   8.108   3.972   0.044 -1.7725 -0.5303  1.3977
  463MOL0     H62480   8.227   4.105   0.077 -2.1527  1.0144 -1.3126
  463MOL0     H62481   8.087   4.164   0.286 -3.7433 -0.2129  1.3853
  463MOL0     H62482   8.037   4.219   0.130  0.5942  0.4575  2.2809
  463MOL0     H62483   7.911   4.025   0.307  1.1360 -0.7761  0.3127
  463MOL0     H62484   7.906   3.981   0.128 -2.0659  0.3692  1.0478
  463MOL0     H62485   7.795   4.207   0.089  1.9182 -1.4808 -0.0970
  463MOL0     H62486   7.800   4.243   0.257  0.3635  0.5949 -0.1654
  463MOL0     H62487   8.389   4.186   0.565  0.0722  3.3814  0.4150
  463MOL0     H62488   8.513   4.274   0.740  1.0629 -0.4590 -0.1191
  463MOL0     H62489   8.930   4.626   0.821  0.1041  1.3164 -0.2664
  463MOL0     H62490   9.040   4.702   1.026 -1.5900  1.2644  0.6286
  463MOL0     H62491   9.872   4.897   1.570 -2.8922  1.9032 -2.5849
  463MOL0     H62492   9.784   4.944   1.369  0.2652  3.2114  2.8579
  463MOL0     H62493   9.719   4.843   0.999 -1.2806  2.0318  0.0823
  463MOL0     H62494   9.593   4.787   0.799  0.4073  0.1110 -1.4358
  463MOL0     H62495   9.573   4.707   0.580  1.9612 -0.3555  0.9880
  463MOL0     H62496   9.452   4.836   0.614  1.0142 -1.4066  1.0837
  463MOL0     H62497   9.546   4.783   0.331  0.0971 -0.2688 -1.1277
  463MOL0     H62498   9.401   4.868   0.387  0.9008  2.3296  2.9288
  463MOL0     H62499   9.328   4.662   0.314 -2.0614  0.2763  1.5627
  463MOL0     H62500   9.323   4.677   0.485  1.0470  3.0181  0.3375
  463MOL0     H62501   9.390   4.435   0.416 -1.0984  2.0265  3.0615
  463MOL0     H62502   9.524   4.522   0.496 -0.2799  0.0155  0.5038
  463MOL0     H62503   9.675   4.389   0.139 -1.8258  5.1160 -3.5844
  463MOL0     H62504   9.838   5.047   0.559 -1.5502  1.8018  0.1443
  463MOL0     H62505   9.983   5.077   0.760  0.1949 -0.2777 -1.5520
  464MOL0     O62506   4.565   4.388   4.803  0.1536  0.7125  0.0239
  464MOL0     C62507   4.537   4.435   4.912 -0.4155 -0.0021 -0.0233
  464MOL0     O62508   4.416   4.433   4.979 -0.1417  0.2379  0.0434
  464MOL0     C62509   4.314   4.350   4.941 -0.2270  0.2580  0.0756
  464MOL0     C62510   4.311   4.221   4.998  0.0109 -0.7742 -0.1579
  464MOL0     C62511   4.197   4.142   4.988  0.3932  0.6621  0.7881
  464MOL0     C62512   4.096   4.182   4.901 -0.0483  0.5875  0.4255
  464MOL0     O62513   3.977   4.111   4.869 -0.3845 -1.1775  0.2401
  464MOL0     C62514   3.955   3.995   4.929  0.3511  0.1522 -0.0266
  464MOL0     C62515   3.820   3.938   4.899  0.2065  0.1107  0.9857
  464MOL0     C62516   3.771   3.934   4.750 -0.4337  0.3105  1.1449
  464MOL0     C62517   3.834   3.825   4.662  0.3165  0.0557 -1.2246
  464MOL0     C62518   3.760   3.817   4.523  0.0174  0.1298 -0.2206
  464MOL0     C62519   3.766   3.951   4.435 -0.0022  1.1723 -0.0442
  464MOL0     C62520   3.908   3.972   4.377 -0.3704  0.4652  0.3483
  464MOL0     C62521   3.915   4.080   4.262 -1.0273 -0.4075  0.2269
  464MOL0     N62522   3.849   4.034   4.137 -0.2415 -0.2546 -0.5151
  464MOL0     C62523   3.900   3.956   4.033  0.6509 -1.1949 -0.4157
  464MOL0     C62524   3.803   3.950   3.939 -0.0463  0.6337 -0.2875
  464MOL0     C62525   3.808   3.861   3.824 -0.4232 -0.0811 -0.2344
  464MOL0     C62526   3.681   3.778   3.819  0.0006 -0.3697  0.3014
  464MOL0     C62527   3.643   3.679   3.933  0.2484 -0.1607 -0.0625
  464MOL0     C62528   3.749   3.568   3.960  0.0946  0.2323 -0.0355
  464MOL0     O62529   3.777   3.498   3.843 -1.0993  0.4643 -0.2129
  464MOL0     C62530   3.884   3.414   3.836 -0.4705 -0.9392  1.0505
  464MOL0     C62531   4.010   3.470   3.832  0.4600  0.4663 -0.7363
  464MOL0     C62532   4.123   3.387   3.836 -0.0168 -0.0930 -0.0967
  464MOL0     C62533   4.251   3.461   3.821  0.4760 -0.0432 -0.0916
  464MOL0     C62534   4.116   3.242   3.823  0.2700  0.2519 -0.7436
  464MOL0     C62535   4.223   3.140   3.797  0.0140  0.3813 -0.1147
  464MOL0     O62536   4.193   3.011   3.783  0.1330 -0.7191 -0.0109
  464MOL0     C62537   4.289   2.924   3.744 -0.3656  0.2372 -0.0149
  464MOL0     C62538   4.286   2.861   3.620 -0.7020  0.1974 -0.6563
  464MOL0     C62539   4.384   2.774   3.572 -0.2100  0.1105 -0.0608
  464MOL0     C62540   4.493   2.738   3.658 -0.3564 -1.3087  0.7838
  464MOL0     O62541   4.585   2.643   3.630 -0.7626  0.0879 -0.0831
  464MOL0     C62542   4.551   2.549   3.534 -0.5220 -0.3283 -0.4896
  464MOL0     C62543   4.686   2.511   3.481  0.3886  0.1617  0.8804
  464MOL0     C62544   4.786   2.474   3.590  0.5498  0.5519 -0.7061
  464MOL0     C62545   4.738   2.340   3.659 -0.0876  0.7187 -0.2827
  464MOL0     C62546   4.843   2.282   3.751 -0.6109 -0.9155 -0.6866
  464MOL0     C62547   4.817   2.145   3.808 -0.0776 -0.5364 -0.5335
  464MOL0     C62548   4.933   2.074   3.868  0.2040 -0.1304 -0.6882
  464MOL0     C62549   5.056   2.044   3.777 -0.4652  0.0429 -0.7167
  464MOL0    Cl62550   5.040   1.886   3.688 -0.4387  0.3584  0.0360
  464MOL0     C62551   4.492   2.795   3.780 -0.0824 -1.0019 -0.5958
  464MOL0     C62552   4.397   2.893   3.828  0.5422  0.0034  0.0994
  464MOL0     O62553   4.333   3.188   3.779 -0.3494  0.3131  0.3209
  464MOL0     C62554   3.982   3.194   3.844  0.1549  0.4355  0.2582
  464MOL0     C62555   3.869   3.274   3.856  0.9838 -0.3268  0.0587
  464MOL0     N62556   3.692   4.023   3.986 -0.2216 -0.2729 -0.4660
  464MOL0     N62557   3.726   4.078   4.100  0.3903  0.3119 -0.2208
  464MOL0     C62558   4.097   4.305   4.834 -0.3786 -0.6553 -1.0692
  464MOL0     C62559   4.213   4.391   4.860 -0.6791  0.2736  0.8669
  464MOL0     C62560   4.642   4.507   4.992  0.2066 -0.4314 -0.2654
  464MOL0     C62561   4.608   4.597   5.093 -1.5474 -0.8887 -0.6046
  464MOL0     C62562   4.706   4.672   5.167  0.4086  0.5330  1.3348
  464MOL0     C62563   4.835   4.665   5.123 -1.9891  1.1267  0.2047
  464MOL0     O62564   4.923   4.731   5.198  0.3801 -0.5220 -0.3824
  464MOL0     C62565   5.050   4.664   5.228  0.8433 -0.8792 -0.5981
  464MOL0     C62566   5.114   4.763   5.331 -0.3353 -0.5345 -0.1708
  464MOL0     C62567   5.086   4.698   5.471  0.3015  0.3573  0.6425
  464MOL0     C62568   5.134   4.774   5.595  0.2354  0.1788  0.7344
  464MOL0     C62569   5.068   4.914   5.595 -0.3774  0.8049 -0.0414
  464MOL0     C62570   5.009   5.015   5.619  0.9493 -0.2115  0.4007
  464MOL0     C62571   4.871   4.576   5.023 -0.2167  0.7533  0.7795
  464MOL0     C62572   4.778   4.498   4.951 -0.8189 -0.4827 -0.4419
  464MOL0     H62573   4.399   4.210   5.061  2.8294  3.1196 -2.9785
  464MOL0     H62574   4.169   4.050   5.038 -1.9481 -0.2865 -1.9731
  464MOL0     H62575   4.036   3.927   4.902  1.0908  0.8601  0.3420
  464MOL0     H62576   3.951   4.010   5.037 -3.3617  1.4441 -0.2014
  464MOL0     H62577   3.818   3.833   4.932  1.1237 -1.4236 -3.2250
  464MOL0     H62578   3.740   3.987   4.955  0.8662  0.8989  1.2560
  464MOL0     H62579   3.664   3.912   4.754  0.2279 -5.0212 -1.7124
  464MOL0     H62580   3.783   4.032   4.703  1.5685 -1.2562 -1.9500
  464MOL0     H62581   3.938   3.855   4.654  0.6224  0.8508  3.0854
  464MOL0     H62582   3.833   3.730   4.718  3.2698 -1.3248 -3.3034
  464MOL0     H62583   3.804   3.731   4.471 -0.5426 -1.0605  1.1880
  464MOL0     H62584   3.655   3.791   4.538  0.7349 -1.8312  1.9866
  464MOL0     H62585   3.703   3.946   4.346  1.8910  3.4440 -1.6578
  464MOL0     H62586   3.732   4.040   4.489 -1.3830 -0.0834  1.2480
  464MOL0     H62587   3.971   4.008   4.459 -2.0472  0.5661  1.6528
  464MOL0     H62588   3.943   3.876   4.338  1.2219  1.2327 -0.1974
  464MOL0     H62589   4.016   4.112   4.237 -0.7349  0.4032  2.2302
  464MOL0     H62590   3.873   4.176   4.296 -0.1098 -0.3038  1.1193
  464MOL0     H62591   4.005   3.930   4.028  1.6113  1.8723  1.1795
  464MOL0     H62592   3.808   3.935   3.744  0.4071 -0.0371 -0.2078
  464MOL0     H62593   3.900   3.801   3.824  0.5522  1.3113  1.4251
  464MOL0     H62594   3.670   3.732   3.721 -0.3056 -0.7037  0.4889
  464MOL0     H62595   3.606   3.857   3.825  2.5403  2.5475 -2.5415
  464MOL0     H62596   3.546   3.632   3.917 -0.8491  2.3782 -1.4009
  464MOL0     H62597   3.632   3.736   4.025  0.5610 -0.1696 -0.0190
  464MOL0     H62598   3.719   3.510   4.048 -0.4232 -0.2150 -0.4968
  464MOL0     H62599   3.841   3.621   3.989 -0.5507 -0.8974  5.1842
  464MOL0     H62600   4.017   3.578   3.816  0.8385  0.6123  0.3435
  464MOL0     H62601   4.241   3.566   3.850  2.0297 -0.4185  2.0822
  464MOL0     H62602   4.329   3.437   3.894 -0.2718 -2.9643 -0.1591
  464MOL0     H62603   4.298   3.448   3.724  1.7143 -0.2886  0.5195
  464MOL0     H62604   4.200   2.897   3.564  0.6970  4.0246 -0.6150
  464MOL0     H62605   4.370   2.744   3.468 -1.8329 -1.5399  0.5902
  464MOL0     H62606   4.501   2.465   3.582 -0.2829  0.5312  1.3490
  464MOL0     H62607   4.493   2.591   3.451 -1.1852 -2.3780 -1.1205
  464MOL0     H62608   4.664   2.421   3.422  2.7201  0.2680 -0.2483
  464MOL0     H62609   4.732   2.590   3.422  1.6741 -0.4834  0.9844
  464MOL0     H62610   4.793   2.555   3.663 -1.4400 -0.3689  0.6127
  464MOL0     H62611   4.882   2.446   3.547 -0.2543 -3.6475 -0.2793
  464MOL0     H62612   4.649   2.360   3.719 -1.7241 -0.5239 -2.1410
  464MOL0     H62613   4.711   2.263   3.586 -0.6900  1.0693 -0.4366
  464MOL0     H62614   4.854   2.355   3.832 -0.6521 -2.8649  1.1696
  464MOL0     H62615   4.938   2.278   3.698  1.3547  1.5530  2.3199
  464MOL0     H62616   4.750   2.154   3.893  2.0348 -1.5668  1.3349
  464MOL0     H62617   4.775   2.076   3.734  1.0065 -0.7658 -0.9634
  464MOL0     H62618   4.889   1.984   3.913 -1.5219  0.9669 -0.0784
  464MOL0     H62619   4.967   2.139   3.949 -0.4004  0.3709 -0.8296
  464MOL0     H62620   5.152   2.057   3.828 -1.9045  0.3871  2.1147
  464MOL0     H62621   5.060   2.119   3.697  1.6788 -0.7080 -1.3973
  464MOL0     H62622   4.566   2.769   3.854 -1.9094  0.2519  1.8502
  464MOL0     H62623   4.398   2.935   3.928 -0.0787 -3.1264  1.5462
  464MOL0     H62624   3.974   3.088   3.867 -1.3250  0.4594 -0.0569
  464MOL0     H62625   3.775   3.223   3.874 -0.6445  1.9979 -1.2727
  464MOL0     H62626   4.008   4.337   4.780 -1.3058 -0.2267  0.6325
  464MOL0     H62627   4.209   4.493   4.823  0.3409  0.0973  0.2472
  464MOL0     H62628   4.504   4.611   5.121 -0.8759  2.0670  0.8055
  464MOL0     H62629   4.677   4.732   5.252  1.3894  0.2121  1.9135
  464MOL0     H62630   5.020   4.566   5.266  0.6875  0.7964  4.2940
  464MOL0     H62631   5.120   4.649   5.145  1.8458 -1.5394  0.3277
  464MOL0     H62632   5.075   4.864   5.317  0.2880 -0.2895 -0.1536
  464MOL0     H62633   5.222   4.769   5.313 -0.6122  2.1927 -1.3650
  464MOL0     H62634   5.144   4.606   5.466  1.6471  1.2240 -0.3066
  464MOL0     H62635   4.984   4.661   5.483  0.3740 -0.5801 -1.2941
  464MOL0     H62636   5.242   4.784   5.585  0.0708  0.4004 -0.9876
  464MOL0     H62637   5.117   4.711   5.684  0.1519 -0.4304  0.2935
  464MOL0     H62638   4.958   5.103   5.652  0.6011 -0.6879  1.1604
  464MOL0     H62639   4.975   4.580   4.992  0.5201  2.7769  3.2537
  464MOL0     H62640   4.804   4.437   4.865 -0.5570  0.0145 -0.7180
  465MOL0     O62641   5.119   3.263   7.245 -0.7124 -0.0332  0.1799
  465MOL0     C62642   5.004   3.223   7.265  0.1931  0.1863 -0.8608
  465MOL0     O62643   4.970   3.124   7.351 -0.1966  0.2102 -0.5800
  465MOL0     C62644   5.062   3.031   7.390  0.7934  0.7166  0.4664
  465MOL0     C62645   5.051   2.888   7.363  0.1850  0.9383 -0.4011
  465MOL0     C62646   5.139   2.807   7.432  0.3340  0.7212 -0.4260
  465MOL0     C62647   5.262   2.851   7.478 -0.3702  0.2191  0.1923
  465MOL0     O62648   5.374   2.772   7.521  0.3396  0.0741 -0.1600
  465MOL0     C62649   5.367   2.627   7.504  0.7616 -0.1777  0.7168
  465MOL0     C62650   5.490   2.547   7.519 -0.5000  0.2185 -0.4613
  465MOL0     C62651   5.542   2.526   7.660 -0.5145  0.0176 -0.6145
  465MOL0     C62652   5.449   2.547   7.772 -1.1485  0.7196  0.6972
  465MOL0     C62653   5.523   2.492   7.904 -0.1051 -0.1136  0.3046
  465MOL0     C62654   5.442   2.507   8.031  0.5579 -0.7878 -0.0987
  465MOL0     C62655   5.504   2.420   8.144 -0.0352  0.3150  0.3822
  465MOL0     C62656   5.638   2.443   8.198  0.2128  0.1397  0.0901
  465MOL0     N62657   5.654   2.581   8.247 -0.1520  0.2294 -0.1575
  465MOL0     C62658   5.604   2.620   8.369 -0.5436  0.5017  0.4723
  465MOL0     C62659   5.651   2.747   8.394 -0.2114 -0.5280 -0.7001
  465MOL0     C62660   5.634   2.828   8.521  0.3787 -0.0527  0.0333
  465MOL0     C62661   5.495   2.869   8.542 -0.4891 -0.1240 -0.1900
  465MOL0     C62662   5.454   2.973   8.438  0.5242 -0.4956 -0.1986
  465MOL0     C62663   5.307   3.031   8.451 -0.4770  0.2564  0.0576
  465MOL0     O62664   5.316   3.166   8.397 -0.6698 -0.5813 -0.8201
  465MOL0     C62665   5.192   3.225   8.379 -0.2991  1.0383  0.0361
  465MOL0     C62666   5.125   3.285   8.483 -0.1479 -0.1459 -0.2570
  465MOL0     C62667   4.999   3.351   8.471 -0.0180  0.3293 -1.0046
  465MOL0     C62668   4.941   3.393   8.607 -0.4071 -0.4570 -0.3794
  465MOL0     C62669   4.933   3.365   8.344  0.0679 -0.8438 -1.0249
  465MOL0     C62670   4.794   3.402   8.315 -0.6581 -0.6176  0.5809
  465MOL0     O62671   4.765   3.399   8.177 -0.9133  0.3825 -0.1041
  465MOL0     C62672   4.662   3.479   8.146 -0.4960  0.3165  0.9961
  465MOL0     C62673   4.683   3.615   8.101  0.2458 -0.5278  0.2777
  465MOL0     C62674   4.578   3.686   8.036 -0.2548  0.1272 -0.0979
  465MOL0     C62675   4.449   3.629   8.024  0.0735 -0.2793  0.0639
  465MOL0     O62676   4.337   3.701   7.983 -0.0451 -0.0661  0.3928
  465MOL0     C62677   4.338   3.831   7.918 -1.0858  0.3902 -0.0783
  465MOL0     C62678   4.344   3.826   7.767 -0.1114  0.2800 -0.8982
  465MOL0     C62679   4.469   3.785   7.688  0.5795  0.1001 -0.7931
  465MOL0     C62680   4.576   3.894   7.700 -1.3030 -0.0195 -0.0215
  465MOL0     C62681   4.707   3.835   7.656  0.0127  1.0419 -0.3460
  465MOL0     C62682   4.706   3.745   7.533 -0.2868 -0.4540 -0.7059
  465MOL0     C62683   4.835   3.762   7.476 -0.3919  0.8209 -0.4536
  465MOL0     C62684   4.863   3.663   7.361 -0.5271 -0.0239  0.1143
  465MOL0    Cl62685   4.883   3.759   7.203 -0.6311 -0.1903  0.1231
  465MOL0     C62686   4.426   3.500   8.068 -0.7894 -0.8538  0.2363
  465MOL0     C62687   4.530   3.428   8.129 -0.0017  0.3982 -0.0758
  465MOL0     O62688   4.726   3.457   8.406 -0.4385 -0.4778 -0.0092
  465MOL0     C62689   5.008   3.294   8.246  0.5241 -1.1306  0.2504
  465MOL0     C62690   5.118   3.213   8.259 -1.2467  0.2872  0.2559
  465MOL0     N62691   5.722   2.782   8.279 -0.4957  0.7262  0.6591
  465MOL0     N62692   5.724   2.691   8.196  0.1350  0.7237  0.7667
  465MOL0     C62693   5.277   2.989   7.499 -0.0031  0.2957 -0.2367
  465MOL0     C62694   5.179   3.075   7.461  0.1277 -0.7717  0.0892
  465MOL0     C62695   4.895   3.281   7.177 -0.0746 -0.5816 -0.0762
  465MOL0     C62696   4.766   3.216   7.166 -1.9884  0.1778 -1.2121
  465MOL0     C62697   4.660   3.272   7.102 -0.6281 -0.7971  0.1290
  465MOL0     C62698   4.672   3.400   7.057 -0.7255 -0.4067 -0.4137
  465MOL0     O62699   4.557   3.447   6.998 -0.0069 -0.2443  0.2240
  465MOL0     C62700   4.549   3.598   6.969  0.3648  0.0356  0.5409
  465MOL0     C62701   4.473   3.676   7.074  0.0006 -1.7512 -0.3891
  465MOL0     C62702   4.513   3.827   7.056 -0.2655  0.1324 -0.1391
  465MOL0     C62703   4.402   3.922   7.092 -0.1705  0.1592 -0.8565
  465MOL0     C62704   4.295   3.958   6.996  0.7038  0.3994 -0.0772
  465MOL0     C62705   4.191   3.981   6.930 -0.1525 -0.3101 -1.1498
  465MOL0     C62706   4.795   3.471   7.069  0.0738 -0.1552  0.9364
  465MOL0     C62707   4.911   3.409   7.130  0.8464 -0.3290 -0.0169
  465MOL0     H62708   4.970   2.838   7.311  0.2455 -1.7558  1.8269
  465MOL0     H62709   5.132   2.700   7.416  1.7354  0.3126  1.3315
  465MOL0     H62710   5.294   2.592   7.578 -1.5856  2.7764  0.0092
  465MOL0     H62711   5.329   2.615   7.402 -2.4887 -0.3723  1.8521
  465MOL0     H62712   5.470   2.451   7.470  0.1530 -0.1158 -0.0855
  465MOL0     H62713   5.566   2.600   7.462 -0.7259  0.1468 -0.8330
  465MOL0     H62714   5.568   2.420   7.658 -4.7643 -1.2615 -3.6552
  465MOL0     H62715   5.638   2.573   7.680  1.8618 -3.6630 -2.3469
  465MOL0     H62716   5.427   2.653   7.791 -2.2715  0.3452  1.6432
  465MOL0     H62717   5.359   2.487   7.756  0.0813 -1.1787  0.6439
  465MOL0     H62718   5.531   2.383   7.895 -4.7110 -0.8271  1.8868
  465MOL0     H62719   5.620   2.541   7.915  0.9858 -1.9540 -0.6328
  465MOL0     H62720   5.437   2.614   8.054  0.3435 -0.9031  0.4035
  465MOL0     H62721   5.342   2.471   8.007 -1.0867  1.9313  2.1120
  465MOL0     H62722   5.429   2.403   8.221 -1.5345 -0.0952 -1.1085
  465MOL0     H62723   5.513   2.323   8.094 -1.8385 -0.4953  1.5447
  465MOL0     H62724   5.718   2.431   8.124 -0.4512  1.9083 -0.9738
  465MOL0     H62725   5.655   2.367   8.276  4.6439 -0.2486 -0.9524
  465MOL0     H62726   5.550   2.554   8.436  0.5297 -0.4403  0.4472
  465MOL0     H62727   5.659   2.763   8.605 -1.7004  1.0383  1.5936
  465MOL0     H62728   5.711   2.906   8.525  1.8874 -1.5032  0.1680
  465MOL0     H62729   5.468   2.905   8.642 -0.6993  0.0416 -0.3044
  465MOL0     H62730   5.432   2.780   8.534  1.7539 -1.9788  1.2852
  465MOL0     H62731   5.459   2.933   8.336 -0.7395 -0.4519 -0.2962
  465MOL0     H62732   5.519   3.059   8.452 -0.2763  0.5623 -2.4520
  465MOL0     H62733   5.281   3.029   8.557 -1.4520 -0.1647 -0.1808
  465MOL0     H62734   5.232   2.974   8.395  0.9023  0.9604 -2.6403
  465MOL0     H62735   5.182   3.294   8.575  1.3122  2.2577 -1.2964
  465MOL0     H62736   4.867   3.473   8.599  0.5662  0.7769  2.0285
  465MOL0     H62737   4.909   3.301   8.655  1.9854 -0.0159  2.3146
  465MOL0     H62738   5.022   3.426   8.672 -1.4207 -0.2253  0.7928
  465MOL0     H62739   4.785   3.651   8.104  0.5725 -1.3529 -0.4608
  465MOL0     H62740   4.607   3.785   8.002 -0.0750 -0.1274 -0.7003
  465MOL0     H62741   4.235   3.855   7.946 -1.4294 -2.7562  1.8815
  465MOL0     H62742   4.408   3.909   7.949 -1.6022  1.7452 -2.1647
  465MOL0     H62743   4.278   3.747   7.733 -1.0671 -0.5221  2.4051
  465MOL0     H62744   4.312   3.924   7.731  1.7790  1.4954  0.4966
  465MOL0     H62745   4.432   3.764   7.587 -1.1887  2.0412 -0.6299
  465MOL0     H62746   4.495   3.690   7.735  1.4875  0.3546 -0.7660
  465MOL0     H62747   4.545   3.987   7.650 -1.5335  0.9449  1.8204
  465MOL0     H62748   4.598   3.930   7.801 -0.7283  0.1781 -0.2080
  465MOL0     H62749   4.757   3.792   7.743 -0.3621 -1.6206 -1.3692
  465MOL0     H62750   4.760   3.926   7.625  0.8557 -0.3553 -3.4296
  465MOL0     H62751   4.697   3.640   7.562  1.5544 -0.8265 -1.3742
  465MOL0     H62752   4.633   3.771   7.456 -0.9104  0.7842  0.2669
  465MOL0     H62753   4.902   3.750   7.561 -1.2616 -1.4027 -0.0316
  465MOL0     H62754   4.854   3.866   7.449  2.8068  0.4136 -0.1137
  465MOL0     H62755   4.777   3.598   7.348  0.5070 -1.8815  2.0300
  465MOL0     H62756   4.949   3.597   7.375 -0.7943 -0.3085  0.4065
  465MOL0     H62757   4.333   3.448   8.049 -2.3908  1.3113  1.6966
  465MOL0     H62758   4.503   3.323   8.136 -1.6385  0.8597  1.0166
  465MOL0     H62759   4.973   3.283   8.143 -1.4799  0.1963  0.7373
  465MOL0     H62760   5.157   3.150   8.180  2.2462  0.4490  1.6561
  465MOL0     H62761   5.364   3.029   7.550  0.6105 -0.0785 -0.9624
  465MOL0     H62762   5.198   3.182   7.468  1.8830 -0.9136 -1.7675
  465MOL0     H62763   4.748   3.115   7.201  1.4932  0.1072  0.8173
  465MOL0     H62764   4.563   3.224   7.098 -1.5063  0.9615 -2.5088
  465MOL0     H62765   4.644   3.646   6.943 -1.0632  2.0692 -1.2854
  465MOL0     H62766   4.491   3.624   6.880  0.7191  0.3608  0.4023
  465MOL0     H62767   4.504   3.646   7.174 -1.0437 -3.1338 -0.4355
  465MOL0     H62768   4.367   3.662   7.052 -0.8202  1.8297  0.7175
  465MOL0     H62769   4.542   3.847   6.952 -1.4211  2.0663 -0.1376
  465MOL0     H62770   4.598   3.862   7.115  0.0970  2.3135 -1.8203
  465MOL0     H62771   4.447   4.016   7.123  0.7500  0.1040 -1.9780
  465MOL0     H62772   4.356   3.884   7.184  3.3044  3.1188  2.4191
  465MOL0     H62773   4.107   4.004   6.867  0.5494 -1.4829 -2.5636
  465MOL0     H62774   4.795   3.574   7.035 -0.4324 -0.8862 -1.4158
  465MOL0     H62775   5.003   3.467   7.132  1.5374 -1.3338  3.3258
  466MOL0     O62776   7.382   2.980   6.033 -0.1956  0.7386 -0.1966
  466MOL0     C62777   7.337   2.915   6.126  0.1716  0.3346 -0.6214
  466MOL0     O62778   7.209   2.919   6.163  0.1136  0.0464 -0.9235
  466MOL0     C62779   7.110   2.984   6.094  0.0463  0.5816  0.6260
  466MOL0     C62780   7.000   3.045   6.161  0.1200  0.1029 -0.4528
  466MOL0     C62781   6.887   3.087   6.094  0.3085  0.6293 -0.2090
  466MOL0     C62782   6.885   3.079   5.955  0.1191 -0.1674  0.5217
  466MOL0     O62783   6.778   3.117   5.884 -0.0918 -1.0389 -0.1878
  466MOL0     C62784   6.778   3.252   5.850  0.5274 -0.0389  0.8147
  466MOL0     C62785   6.701   3.264   5.718  0.6571 -0.3570 -0.3297
  466MOL0     C62786   6.545   3.247   5.733  0.5430 -0.0908 -0.1106
  466MOL0     C62787   6.490   3.213   5.594  1.2005  0.5136  0.2961
  466MOL0     C62788   6.343   3.172   5.616  0.7011  0.1365  0.3090
  466MOL0     C62789   6.270   3.116   5.494 -0.4334  0.6914  0.5752
  466MOL0     C62790   6.123   3.091   5.525  0.2036  0.2721 -0.0430
  466MOL0     C62791   6.052   3.218   5.494 -0.5314 -0.4512 -0.1901
  466MOL0     N62792   5.910   3.214   5.533 -0.9428  0.8875 -0.5779
  466MOL0     C62793   5.851   3.112   5.607 -0.5468  0.0386  0.3059
  466MOL0     C62794   5.715   3.143   5.621 -1.8369  1.0861 -0.3272
  466MOL0     C62795   5.618   3.048   5.687  0.5852 -0.1888  0.3022
  466MOL0     C62796   5.633   3.026   5.837 -0.4957 -0.1655  0.6425
  466MOL0     C62797   5.606   3.156   5.914 -0.2740 -0.2526 -0.2540
  466MOL0     C62798   5.635   3.156   6.066  0.0818  0.0302 -0.0689
  466MOL0     O62799   5.787   3.172   6.075  0.7715  0.4648 -0.5889
  466MOL0     C62800   5.843   3.290   6.110  0.2993  0.0054  0.1996
  466MOL0     C62801   5.968   3.320   6.048  0.6906  0.3738 -0.2699
  466MOL0     C62802   6.042   3.438   6.077 -0.3742  0.8615 -0.2040
  466MOL0     C62803   6.155   3.467   5.980  0.1818 -0.4332 -0.4957
  466MOL0     C62804   5.996   3.524   6.177 -0.2938 -0.3789  1.4117
  466MOL0     C62805   6.058   3.653   6.208 -0.0380 -0.1988  0.2764
  466MOL0     O62806   5.970   3.735   6.276  0.8781 -0.1277  0.5390
  466MOL0     C62807   6.034   3.827   6.355 -0.2609  0.5324 -0.1034
  466MOL0     C62808   6.027   3.963   6.306 -0.9625  0.3498  0.0772
  466MOL0     C62809   6.093   4.062   6.386  0.8613  0.0599 -0.8067
  466MOL0     C62810   6.170   4.023   6.492  0.0990 -0.1075 -0.0379
  466MOL0     O62811   6.219   4.129   6.565 -0.5683 -0.1514 -0.4851
  466MOL0     C62812   6.312   4.101   6.667 -0.1812  0.3058 -0.0850
  466MOL0     C62813   6.404   4.229   6.687 -1.1163  0.1080 -0.1574
  466MOL0     C62814   6.329   4.330   6.769 -0.0634  0.3461 -0.2941
  466MOL0     C62815   6.424   4.453   6.793 -0.4086  0.2068 -0.0064
  466MOL0     C62816   6.369   4.562   6.879  0.4257 -0.8820 -0.1069
  466MOL0     C62817   6.473   4.674   6.903  1.0255  0.1962 -0.3249
  466MOL0     C62818   6.409   4.770   7.008 -0.2049 -0.0481  0.0118
  466MOL0     C62819   6.497   4.819   7.130  0.4806  0.2250  0.3810
  466MOL0    Cl62820   6.663   4.852   7.080  0.1162 -0.0817 -0.3981
  466MOL0     C62821   6.165   3.895   6.544  0.0388  0.9522  0.5828
  466MOL0     C62822   6.100   3.795   6.469  0.2520  0.0807  0.2712
  466MOL0     O62823   6.181   3.678   6.184 -0.4131 -0.5064 -0.2513
  466MOL0     C62824   5.876   3.495   6.242  0.7868 -0.3329 -0.5796
  466MOL0     C62825   5.802   3.383   6.206  0.2552  0.4424  0.8376
  466MOL0     N62826   5.689   3.251   5.538  0.0844 -0.2109  0.3906
  466MOL0     N62827   5.802   3.284   5.477 -1.0700  0.1443  0.9343
  466MOL0     C62828   6.990   3.025   5.880 -0.1261 -0.5981  0.3900
  466MOL0     C62829   7.106   2.991   5.951 -0.7656 -0.0771 -0.6971
  466MOL0     C62830   7.433   2.829   6.198  0.7536 -0.9661 -0.1606
  466MOL0     C62831   7.418   2.826   6.337  0.2264 -0.1113  0.3157
  466MOL0     C62832   7.503   2.751   6.427  0.0244 -0.1807 -0.2204
  466MOL0     C62833   7.610   2.679   6.374 -0.6832  0.4824  0.6784
  466MOL0     O62834   7.694   2.614   6.460 -0.5828 -0.5408 -0.0229
  466MOL0     C62835   7.821   2.689   6.475  0.0958  0.4195  0.2069
  466MOL0     C62836   7.808   2.766   6.606  0.1022  0.4344 -0.0597
  466MOL0     C62837   7.757   2.678   6.726  0.2651 -0.1218  0.3204
  466MOL0     C62838   7.829   2.719   6.861  0.1053 -0.4240 -0.7552
  466MOL0     C62839   7.775   2.660   6.985  0.1407 -0.6339  0.2781
  466MOL0     C62840   7.758   2.613   7.095  1.2786  0.6316 -0.0390
  466MOL0     C62841   7.631   2.693   6.240 -0.0600 -0.2103 -1.1408
  466MOL0     C62842   7.546   2.765   6.150 -1.6492  0.0890  0.2043
  466MOL0     H62843   7.003   3.053   6.269 -0.0592 -1.0270 -0.3489
  466MOL0     H62844   6.806   3.115   6.161 -0.6309  1.8250 -1.7463
  466MOL0     H62845   6.747   3.314   5.935  0.8863  3.0233 -1.1243
  466MOL0     H62846   6.878   3.293   5.831  1.3768 -0.0560  4.4263
  466MOL0     H62847   6.732   3.361   5.678  1.2516 -0.1445  0.6276
  466MOL0     H62848   6.724   3.185   5.647  0.4424 -0.1357 -0.6473
  466MOL0     H62849   6.526   3.166   5.805  0.1361  0.7887  0.8011
  466MOL0     H62850   6.511   3.345   5.769  4.0937  1.0696  0.5567
  466MOL0     H62851   6.495   3.298   5.525  0.9289  0.6064  0.3913
  466MOL0     H62852   6.551   3.133   5.550  0.0057  0.0079 -0.4742
  466MOL0     H62853   6.334   3.095   5.692 -2.1636 -0.8183 -0.8558
  466MOL0     H62854   6.283   3.254   5.656  0.0872 -0.0784 -0.1478
  466MOL0     H62855   6.289   3.181   5.408  2.5454 -0.2520  0.4017
  466MOL0     H62856   6.317   3.018   5.477  2.1546  2.0326 -0.5501
  466MOL0     H62857   6.086   3.012   5.459  0.3922  1.7588 -2.0177
  466MOL0     H62858   6.110   3.063   5.629 -2.3684 -1.8188 -0.8332
  466MOL0     H62859   6.058   3.233   5.386 -4.1601  1.0327 -0.3137
  466MOL0     H62860   6.090   3.303   5.550  1.8914 -0.8587 -1.0530
  466MOL0     H62861   5.894   3.020   5.645 -1.4739 -0.9662 -0.9738
  466MOL0     H62862   5.522   3.090   5.657  1.8281  2.3828 -0.3840
  466MOL0     H62863   5.630   2.958   5.626  0.6337  0.0457 -0.0391
  466MOL0     H62864   5.729   2.980   5.862 -0.6996  0.9286  3.9192
  466MOL0     H62865   5.557   2.953   5.865  0.4957 -1.2319  0.5978
  466MOL0     H62866   5.501   3.182   5.898 -0.7695 -0.6009  2.0988
  466MOL0     H62867   5.669   3.236   5.873  0.3973 -0.1030  1.0187
  466MOL0     H62868   5.613   3.058   6.108 -0.9670 -1.1575 -3.0788
  466MOL0     H62869   5.576   3.227   6.125  1.1842  1.5510 -0.7255
  466MOL0     H62870   6.000   3.241   5.980  1.6721  0.4597  0.0779
  466MOL0     H62871   6.251   3.422   6.008  2.1170  1.8732 -2.8537
  466MOL0     H62872   6.137   3.421   5.882 -0.3848 -2.5405  0.5390
  466MOL0     H62873   6.161   3.575   5.965 -1.7431 -0.0547  1.1509
  466MOL0     H62874   5.978   3.993   6.214 -0.6291  1.1531  0.1526
  466MOL0     H62875   6.097   4.166   6.356  1.8523  0.3485  0.2808
  466MOL0     H62876   6.255   4.085   6.759 -1.7349 -0.2795 -1.1055
  466MOL0     H62877   6.373   4.013   6.648  2.0449  2.0597 -1.7524
  466MOL0     H62878   6.496   4.208   6.743 -0.9427  0.3561 -0.3421
  466MOL0     H62879   6.427   4.260   6.584  0.2895 -0.9657 -0.2062
  466MOL0     H62880   6.300   4.284   6.863 -2.6254 -0.6983 -1.5011
  466MOL0     H62881   6.234   4.363   6.726 -0.4271  0.2448  0.4283
  466MOL0     H62882   6.507   4.410   6.850 -0.0054 -0.2601 -0.9392
  466MOL0     H62883   6.454   4.486   6.694  2.8785 -0.1318  0.7510
  466MOL0     H62884   6.330   4.523   6.973  0.4243  2.5072  1.4328
  466MOL0     H62885   6.281   4.608   6.832 -0.4612  0.7296  2.8734
  466MOL0     H62886   6.567   4.628   6.935  0.5780 -0.1551  0.5208
  466MOL0     H62887   6.501   4.725   6.810  1.4528 -1.2754 -1.0264
  466MOL0     H62888   6.310   4.735   7.040 -1.1903  2.6745  0.2042
  466MOL0     H62889   6.395   4.867   6.960  0.3634  0.4972  0.9161
  466MOL0     H62890   6.503   4.744   7.209  1.7061 -1.3260 -1.1023
  466MOL0     H62891   6.455   4.909   7.175 -0.9945 -0.5213  0.5343
  466MOL0     H62892   6.194   3.874   6.647 -2.0638 -1.9682  0.7013
  466MOL0     H62893   6.083   3.696   6.510  3.0206 -0.7375 -0.3564
  466MOL0     H62894   5.835   3.556   6.320  0.2600 -1.5524  0.1253
  466MOL0     H62895   5.707   3.378   6.260 -0.0921  1.1959  0.3167
  466MOL0     H62896   6.976   3.022   5.772 -2.0434  0.7964  0.5400
  466MOL0     H62897   7.178   2.940   5.888  2.6117  3.2473  0.0641
  466MOL0     H62898   7.334   2.869   6.392  1.2507  1.6753  0.5533
  466MOL0     H62899   7.483   2.756   6.533  5.2616 -2.2244  1.1375
  466MOL0     H62900   7.911   2.627   6.477  2.1073  2.8082 -3.5643
  466MOL0     H62901   7.842   2.760   6.394 -1.3549 -0.9184 -1.4040
  466MOL0     H62902   7.733   2.844   6.591 -3.6652 -1.7062  4.8901
  466MOL0     H62903   7.906   2.809   6.632 -0.2210  0.5884  0.9550
  466MOL0     H62904   7.778   2.570   6.721 -2.4518 -0.6883 -0.5493
  466MOL0     H62905   7.650   2.694   6.711 -0.4759 -2.5932  2.3244
  466MOL0     H62906   7.821   2.828   6.866  0.5452 -0.2946 -2.3216
  466MOL0     H62907   7.937   2.703   6.856  0.2138  0.2105 -0.5986
  466MOL0     H62908   7.752   2.565   7.191 -0.7348 -2.5312 -1.5644
  466MOL0     H62909   7.723   2.644   6.210 -0.2736 -1.0257 -0.4836
  466MOL0     H62910   7.561   2.756   6.043 -1.0294  1.4602  0.1609
  467MOL0     O62911   7.489   6.817   3.999 -0.1404  0.1184 -0.5743
  467MOL0     C62912   7.495   6.818   4.119  1.1810 -0.0294 -0.2333
  467MOL0     O62913   7.485   6.925   4.203 -0.3069 -0.3349 -0.0525
  467MOL0     C62914   7.434   7.043   4.154 -0.2488 -0.8881  0.9434
  467MOL0     C62915   7.298   7.065   4.179 -0.9439  0.4102 -0.0581
  467MOL0     C62916   7.236   7.181   4.128 -0.7667 -0.4560 -0.3997
  467MOL0     C62917   7.319   7.271   4.047  0.3037  0.3020 -0.0615
  467MOL0     O62918   7.266   7.386   3.993  0.0924  0.3008  0.0373
  467MOL0     C62919   7.133   7.430   4.029  0.5234 -0.0827  0.6847
  467MOL0     C62920   7.110   7.568   3.946 -0.4659  0.8149 -1.2266
  467MOL0     C62921   7.004   7.653   4.011 -0.0802  0.2870  0.4355
  467MOL0     C62922   6.999   7.794   3.951  0.3587 -0.1249  0.5103
  467MOL0     C62923   6.882   7.869   4.016  0.1420 -0.7608 -1.0903
  467MOL0     C62924   6.871   8.010   3.953 -0.3767 -0.7496  0.1775
  467MOL0     C62925   6.783   8.014   3.822 -0.4732 -0.0987 -0.4271
  467MOL0     C62926   6.779   8.154   3.762  0.8434  0.6576 -0.3260
  467MOL0     N62927   6.667   8.236   3.831  0.4373  0.3922 -0.0766
  467MOL0     C62928   6.696   8.302   3.947  0.4797 -0.0525 -0.4705
  467MOL0     C62929   6.574   8.329   3.998 -1.1986 -0.7231  0.4900
  467MOL0     C62930   6.561   8.366   4.139 -0.1187 -0.6418 -0.1846
  467MOL0     C62931   6.579   8.510   4.177 -0.5451  0.0585 -0.0948
  467MOL0     C62932   6.512   8.613   4.090  0.3661  0.3000 -0.7125
  467MOL0     C62933   6.598   8.657   3.963  1.4721 -0.4353  0.1412
  467MOL0     O62934   6.510   8.729   3.874  0.1427  0.8855  0.8226
  467MOL0     C62935   6.509   8.866   3.884 -0.2977  0.2897 -0.1462
  467MOL0     C62936   6.628   8.942   3.883 -0.0879 -1.1212 -0.8660
  467MOL0     C62937   6.619   9.082   3.883  0.6641  0.5836  0.3470
  467MOL0     C62938   6.754   9.157   3.877  0.6836 -0.2980  0.0719
  467MOL0     C62939   6.501   9.149   3.887 -0.0085 -0.5244  0.8429
  467MOL0     C62940   6.487   9.294   3.880  0.1093  0.3540 -0.0204
  467MOL0     O62941   6.402   9.355   3.964 -0.0353  0.0102 -0.6893
  467MOL0     C62942   6.373   9.489   3.965 -0.0874 -0.2012  0.9769
  467MOL0     C62943   6.443   9.587   3.893 -0.8460 -0.4970  0.8376
  467MOL0     C62944   6.391   9.718   3.875 -0.8913 -0.4155 -0.7385
  467MOL0     C62945   6.289   9.756   3.958  0.5788 -0.0546  1.5804
  467MOL0     O62946   6.245   9.884   3.949 -0.0686  0.0615  0.1798
  467MOL0     C62947   6.241   9.955   4.073 -0.2098  0.1045  0.6280
  467MOL0     C62948   6.264  10.107   4.060 -0.9702 -0.1227 -0.9502
  467MOL0     C62949   6.408  10.141   4.014 -0.3847 -0.2099  0.1134
  467MOL0     C62950   6.527  10.102   4.102  0.4856 -0.1715 -0.3908
  467MOL0     C62951   6.658  10.182   4.075  0.6170 -0.5916  0.3880
  467MOL0     C62952   6.667  10.308   4.164 -0.1527  0.9133 -0.4076
  467MOL0     C62953   6.790  10.388   4.129  0.1634  0.5145 -0.4545
  467MOL0     C62954   6.913  10.328   4.191  0.0367 -0.1471 -0.2628
  467MOL0    Cl62955   7.064  10.414   4.184 -0.1887  0.1168 -0.2202
  467MOL0     C62956   6.236   9.667   4.053 -1.0047 -0.3756 -0.6337
  467MOL0     C62957   6.279   9.531   4.061 -0.0264  0.1570  0.4167
  467MOL0     O62958   6.532   9.336   3.779  0.1451 -0.3204  0.4902
  467MOL0     C62959   6.388   9.068   3.870 -0.0642  0.1945 -0.0390
  467MOL0     C62960   6.388   8.934   3.870  0.6309  0.7297 -0.3901
  467MOL0     N62961   6.471   8.300   3.915  0.8397  0.3470  0.4289
  467MOL0     N62962   6.525   8.242   3.816 -0.5798  0.9774  0.0014
  467MOL0     C62963   7.454   7.259   4.034  0.4381 -0.6146  0.0547
  467MOL0     C62964   7.512   7.143   4.087 -0.2676  0.6131  0.2054
  467MOL0     C62965   7.488   6.691   4.191  0.1573  0.5285  0.5851
  467MOL0     C62966   7.557   6.673   4.314  0.3098 -0.1783  1.3438
  467MOL0     C62967   7.532   6.556   4.384  0.7391 -0.0320 -0.2257
  467MOL0     C62968   7.448   6.451   4.339  0.5625 -0.4764  0.4503
  467MOL0     O62969   7.421   6.334   4.411 -0.7262  0.2573  0.1626
  467MOL0     C62970   7.435   6.343   4.555  0.5020  0.3475  0.1238
  467MOL0     C62971   7.566   6.264   4.594 -0.1426 -0.0522 -0.2038
  467MOL0     C62972   7.549   6.109   4.559 -0.9381 -0.0595 -0.5518
  467MOL0     C62973   7.672   6.030   4.612  0.1741  0.5866 -0.0266
  467MOL0     C62974   7.790   6.062   4.534  1.6787 -0.5302  0.5102
  467MOL0     C62975   7.885   6.083   4.456  0.1531 -0.0032  0.2100
  467MOL0     C62976   7.390   6.471   4.211 -0.5938 -0.6734  1.0139
  467MOL0     C62977   7.404   6.589   4.140 -0.7143 -0.4676 -0.1818
  467MOL0     H62978   7.238   6.995   4.236 -2.9985  3.3465  1.6645
  467MOL0     H62979   7.132   7.178   4.158 -0.5224 -0.4266  0.4909
  467MOL0     H62980   7.050   7.367   3.996  0.5641 -0.9291  2.1107
  467MOL0     H62981   7.126   7.456   4.135 -0.9398 -4.1236  1.7689
  467MOL0     H62982   7.201   7.627   3.939 -0.0471  0.3218 -0.2055
  467MOL0     H62983   7.083   7.535   3.846  0.6892 -4.2647 -0.1953
  467MOL0     H62984   6.903   7.610   4.007  0.8328 -1.9818 -3.2536
  467MOL0     H62985   7.031   7.668   4.116  0.8473  1.3391  0.0611
  467MOL0     H62986   7.091   7.850   3.973  0.5354  0.0973 -0.7232
  467MOL0     H62987   6.975   7.788   3.845  0.7324 -1.2997  0.4811
  467MOL0     H62988   6.790   7.811   4.005  0.4551 -1.5341  0.1337
  467MOL0     H62989   6.896   7.883   4.124  1.9054 -1.3998 -1.2023
  467MOL0     H62990   6.827   8.074   4.031  0.7170 -1.4964  1.4607
  467MOL0     H62991   6.972   8.037   3.921  0.5898 -2.2445  1.7714
  467MOL0     H62992   6.837   7.951   3.750  0.7928  1.8977 -1.3336
  467MOL0     H62993   6.680   7.979   3.831 -0.5918 -0.1592 -1.7625
  467MOL0     H62994   6.751   8.143   3.656 -0.1217 -1.8092  0.1118
  467MOL0     H62995   6.880   8.195   3.764  2.0030 -1.8996  3.0063
  467MOL0     H62996   6.792   8.305   3.998  0.7614  0.0506 -0.9981
  467MOL0     H62997   6.461   8.337   4.172  0.2607 -1.7322  0.0319
  467MOL0     H62998   6.631   8.303   4.194 -2.0087 -1.1256  1.7855
  467MOL0     H62999   6.688   8.521   4.179 -0.2763 -2.3407  1.2199
  467MOL0     H63000   6.544   8.515   4.281 -1.3392 -2.2025 -0.1963
  467MOL0     H63001   6.478   8.705   4.139 -3.1272 -0.1902 -1.9239
  467MOL0     H63002   6.415   8.575   4.058  0.3443  0.6765 -1.0946
  467MOL0     H63003   6.635   8.572   3.906  1.5238  1.7284 -3.3749
  467MOL0     H63004   6.679   8.715   4.007 -1.1175  2.8135  1.0279
  467MOL0     H63005   6.728   8.901   3.885  1.3619  1.2816  6.7533
  467MOL0     H63006   6.780   9.161   3.771 -1.1384  3.0972 -0.3740
  467MOL0     H63007   6.744   9.259   3.915 -1.0585 -1.8961  4.5474
  467MOL0     H63008   6.837   9.099   3.919  0.1579 -0.5213  0.8151
  467MOL0     H63009   6.530   9.559   3.835 -0.4875 -0.9778  1.5912
  467MOL0     H63010   6.431   9.799   3.816  0.5084 -1.1541 -0.8394
  467MOL0     H63011   6.139   9.939   4.109 -0.8445 -2.7323 -1.9900
  467MOL0     H63012   6.311   9.916   4.149 -1.5990  0.5604  2.2045
  467MOL0     H63013   6.195  10.146   3.985 -2.8250  3.2921  2.1960
  467MOL0     H63014   6.240  10.153   4.157  1.2200 -1.7116  0.4360
  467MOL0     H63015   6.413  10.248   3.991  0.6840 -0.6851 -2.2506
  467MOL0     H63016   6.423  10.095   3.915  0.7932  0.4565 -0.0342
  467MOL0     H63017   6.494  10.098   4.206 -1.8180 -1.2965 -1.0820
  467MOL0     H63018   6.554   9.997   4.082 -1.8045 -1.0258  0.6496
  467MOL0     H63019   6.666  10.203   3.968 -1.3885  0.6149  0.4232
  467MOL0     H63020   6.746  10.120   4.096  1.6081  0.9966  1.0890
  467MOL0     H63021   6.581  10.368   4.135 -0.7482 -0.1161 -0.8470
  467MOL0     H63022   6.664  10.285   4.271  1.1950 -0.8696 -0.7055
  467MOL0     H63023   6.776  10.488   4.172 -0.6112  0.6280 -0.9513
  467MOL0     H63024   6.793  10.402   4.021 -0.8780  0.9124 -0.4493
  467MOL0     H63025   6.926  10.226   4.152 -1.5924 -0.2091 -0.7062
  467MOL0     H63026   6.889  10.326   4.298 -1.9878  1.2134 -0.6393
  467MOL0     H63027   6.157   9.708   4.115 -1.8533  0.4571 -2.2303
  467MOL0     H63028   6.228   9.465   4.130 -3.1219 -1.1702 -2.7662
  467MOL0     H63029   6.296   9.122   3.848  0.1964  1.3094  1.3948
  467MOL0     H63030   6.297   8.874   3.864 -0.5335  1.9660  2.8412
  467MOL0     H63031   7.509   7.330   3.973  1.0834 -0.1987  1.0986
  467MOL0     H63032   7.615   7.111   4.084 -0.0336  1.2883  0.6858
  467MOL0     H63033   7.622   6.753   4.346  0.6003  1.5317 -2.8049
  467MOL0     H63034   7.595   6.542   4.471  1.0271  0.1476 -0.4007
  467MOL0     H63035   7.420   6.446   4.589  1.0033  1.0067 -1.5132
  467MOL0     H63036   7.356   6.298   4.616 -1.2942  4.7263  1.4121
  467MOL0     H63037   7.585   6.279   4.701  2.1848  1.1320 -0.7045
  467MOL0     H63038   7.646   6.298   4.528 -0.4924  0.3945 -0.3972
  467MOL0     H63039   7.552   6.103   4.450  1.2687 -1.3233 -0.4927
  467MOL0     H63040   7.460   6.066   4.606 -1.0162 -2.1205 -2.4041
  467MOL0     H63041   7.646   5.924   4.617 -1.5767  0.8797 -1.7616
  467MOL0     H63042   7.691   6.081   4.708 -0.0056  1.8235 -0.6201
  467MOL0     H63043   7.969   6.091   4.390 -0.1365 -2.3840 -0.5141
  467MOL0     H63044   7.324   6.397   4.168 -2.0013  1.5978 -0.9583
  467MOL0     H63045   7.348   6.623   4.054  0.0337  1.5119  0.0683
  468MOL0     O63046   5.510   2.305   1.568  0.0534  0.2830  0.3693
  468MOL0     C63047   5.515   2.346   1.449  0.1635  0.6741  0.5380
  468MOL0     O63048   5.449   2.454   1.406 -0.2691 -0.5466 -1.0462
  468MOL0     C63049   5.389   2.544   1.492  0.2676 -0.7663  0.6750
  468MOL0     C63050   5.252   2.571   1.481 -0.6079  0.2160 -0.5359
  468MOL0     C63051   5.196   2.675   1.552 -0.0576 -0.2736  0.1903
  468MOL0     C63052   5.275   2.752   1.645  0.4137 -0.1922  0.4680
  468MOL0     O63053   5.197   2.847   1.708  0.3429 -0.4302  0.3478
  468MOL0     C63054   5.269   2.947   1.787  0.6735  1.2469  0.4763
  468MOL0     C63055   5.219   3.092   1.759 -0.6375 -0.0788 -0.3091
  468MOL0     C63056   5.219   3.118   1.608 -0.6136 -0.0673 -0.3182
  468MOL0     C63057   5.142   3.246   1.560 -0.2327  0.0758  0.2298
  468MOL0     C63058   4.994   3.257   1.590  1.3145  0.4067  0.4307
  468MOL0     C63059   4.911   3.167   1.509  0.0173 -0.2901 -0.1857
  468MOL0     C63060   4.769   3.181   1.557 -0.1106  1.0299 -0.3410
  468MOL0     C63061   4.676   3.124   1.442 -0.0737  0.7763  0.6866
  468MOL0     N63062   4.643   3.221   1.332 -0.4509 -0.2679 -1.0439
  468MOL0     C63063   4.718   3.213   1.215 -0.2094  0.3129 -0.2477
  468MOL0     C63064   4.661   3.300   1.143  0.7389 -0.5202  0.2574
  468MOL0     C63065   4.708   3.369   1.021  0.0493  0.2327 -1.2765
  468MOL0     C63066   4.669   3.301   0.887 -0.0368 -0.2948 -0.2622
  468MOL0     C63067   4.779   3.315   0.786 -0.0220  0.0759 -1.2120
  468MOL0     C63068   4.742   3.278   0.636  0.0259 -0.0760  0.1242
  468MOL0     O63069   4.748   3.134   0.623  0.2925  0.2637 -0.3711
  468MOL0     C63070   4.872   3.079   0.606  0.5335  0.7527 -0.1303
  468MOL0     C63071   4.874   2.940   0.571  1.1166  0.1941  0.5017
  468MOL0     C63072   4.994   2.863   0.562  0.1492  0.0160  0.3988
  468MOL0     C63073   4.993   2.717   0.543  0.4228 -0.7879 -0.4168
  468MOL0     C63074   5.112   2.938   0.552  0.4764  0.3579  0.2698
  468MOL0     C63075   5.252   2.876   0.517  0.1578  0.0578  1.0900
  468MOL0     O63076   5.339   2.967   0.455  0.7048 -0.7099  0.1953
  468MOL0     C63077   5.479   2.946   0.445 -0.3185 -0.2710  0.6918
  468MOL0     C63078   5.554   3.047   0.380 -0.2460  0.6172  1.0347
  468MOL0     C63079   5.691   3.036   0.343 -0.3766 -0.1813  0.6421
  468MOL0     C63080   5.758   2.922   0.374 -0.4986  1.3697 -0.7334
  468MOL0     O63081   5.899   2.912   0.362  0.0505 -0.9166  0.4724
  468MOL0     C63082   5.972   2.893   0.484  0.1524  0.8078  0.0379
  468MOL0     C63083   5.940   3.001   0.586 -0.8694  0.0780  0.9807
  468MOL0     C63084   5.989   3.147   0.563  0.5970 -0.1610  0.3366
  468MOL0     C63085   5.937   3.241   0.667 -0.4146 -0.1574 -0.8164
  468MOL0     C63086   5.991   3.384   0.649  0.4079  0.0195  0.2856
  468MOL0     C63087   5.921   3.486   0.735  0.4354 -0.3585 -0.5480
  468MOL0     C63088   5.975   3.621   0.723 -0.4782 -0.0323  0.1678
  468MOL0     C63089   6.103   3.631   0.786 -0.5018  0.5387 -0.3893
  468MOL0    Cl63090   6.140   3.802   0.805 -0.5542  0.4493 -0.2492
  468MOL0     C63091   5.682   2.812   0.432 -0.5659 -0.4508  0.0080
  468MOL0     C63092   5.549   2.833   0.477  0.0060  0.2993 -0.1899
  468MOL0     O63093   5.274   2.761   0.532 -0.6138 -0.4471 -0.1901
  468MOL0     C63094   5.110   3.078   0.581 -0.3425 -0.0634  0.5599
  468MOL0     C63095   4.994   3.146   0.608 -0.4428 -1.2020 -0.4266
  468MOL0     N63096   4.555   3.356   1.209 -0.0496 -0.6028  0.7930
  468MOL0     N63097   4.533   3.300   1.317  0.0505 -0.0821  0.1306
  468MOL0     C63098   5.408   2.711   1.662  0.5910  0.9492 -0.9836
  468MOL0     C63099   5.466   2.613   1.582 -0.1772 -0.1457  0.5857
  468MOL0     C63100   5.598   2.274   1.346 -0.5735  0.7776 -0.4286
  468MOL0     C63101   5.700   2.189   1.392 -0.2798  1.0689  0.1531
  468MOL0     C63102   5.768   2.110   1.297 -0.0348  0.6434  0.4016
  468MOL0     C63103   5.743   2.122   1.160 -0.0406 -0.6002  0.6232
  468MOL0     O63104   5.808   2.033   1.072 -0.0161 -0.0273  0.0754
  468MOL0     C63105   5.884   2.089   0.961  0.0015 -0.5224  0.6272
  468MOL0     C63106   6.021   2.157   1.001  0.5352  0.3027  0.3629
  468MOL0     C63107   6.136   2.056   1.016 -1.1336 -1.0112 -0.3097
  468MOL0     C63108   6.258   2.125   1.098 -0.7507 -0.6279  0.0730
  468MOL0     C63109   6.366   2.029   1.128  0.4603  0.3453 -0.4639
  468MOL0     C63110   6.444   1.946   1.164 -0.4940 -0.3648 -0.0256
  468MOL0     C63111   5.637   2.199   1.118 -0.3313 -1.0763 -0.3901
  468MOL0     C63112   5.571   2.282   1.209  0.3689  0.9119  0.8306
  468MOL0     H63113   5.183   2.515   1.419 -0.2904  0.1685 -0.8476
  468MOL0     H63114   5.093   2.707   1.540 -0.7739 -2.6883 -0.7528
  468MOL0     H63115   5.243   2.919   1.889 -2.6592  0.9960 -0.3257
  468MOL0     H63116   5.375   2.949   1.760  0.3646 -1.5812 -1.2929
  468MOL0     H63117   5.123   3.112   1.807 -0.8294  2.9171 -1.7164
  468MOL0     H63118   5.290   3.159   1.810 -0.7625 -1.5539  1.9542
  468MOL0     H63119   5.321   3.126   1.570 -0.2372 -0.0377  0.6884
  468MOL0     H63120   5.174   3.034   1.553  2.4262 -2.3112  0.3828
  468MOL0     H63121   5.198   3.323   1.615  2.9384 -3.5259  2.5626
  468MOL0     H63122   5.152   3.258   1.452  0.9606  1.5289  0.4629
  468MOL0     H63123   4.977   3.228   1.694  2.1536  0.0972  0.4907
  468MOL0     H63124   4.972   3.364   1.578 -3.4113 -0.4064  0.0480
  468MOL0     H63125   4.925   3.202   1.406 -1.2719  1.4138  0.1786
  468MOL0     H63126   4.954   3.066   1.508  0.3786 -0.1390 -1.1544
  468MOL0     H63127   4.756   3.124   1.649 -0.8810  0.4865 -0.7784
  468MOL0     H63128   4.739   3.284   1.577  2.0716  1.3108  2.0589
  468MOL0     H63129   4.574   3.096   1.470 -0.3157  0.5399 -0.3937
  468MOL0     H63130   4.725   3.039   1.394  1.1562  0.0332  3.1258
  468MOL0     H63131   4.799   3.146   1.188  0.4174  0.0304  2.1067
  468MOL0     H63132   4.688   3.476   1.033 -0.0457  0.2866 -1.8472
  468MOL0     H63133   4.817   3.375   1.030 -0.1981  2.7123  1.8718
  468MOL0     H63134   4.588   3.365   0.849 -1.5967 -2.2573 -0.3820
  468MOL0     H63135   4.640   3.196   0.884  1.4579 -0.7517  0.4769
  468MOL0     H63136   4.865   3.262   0.827 -1.2054  0.6602  2.3790
  468MOL0     H63137   4.798   3.423   0.778 -0.8441  0.6230  2.3652
  468MOL0     H63138   4.809   3.325   0.564 -0.4809  1.0208  0.3571
  468MOL0     H63139   4.642   3.315   0.612  0.2389 -0.7839 -2.0902
  468MOL0     H63140   4.779   2.888   0.571  1.7136 -0.9209  0.0626
  468MOL0     H63141   4.907   2.688   0.604 -1.0848  0.4393 -1.8388
  468MOL0     H63142   4.963   2.686   0.442 -0.7744  1.9191 -1.0073
  468MOL0     H63143   5.076   2.655   0.578 -0.9940 -2.3191  0.3635
  468MOL0     H63144   5.499   3.134   0.345  1.9386  0.7749 -2.5150
  468MOL0     H63145   5.736   3.115   0.284  0.1836 -0.6812  0.3895
  468MOL0     H63146   5.956   2.791   0.521 -0.1828  1.0209  0.4830
  468MOL0     H63147   6.079   2.889   0.462  0.0909  1.0558 -0.3211
  468MOL0     H63148   5.834   3.006   0.613 -1.2090 -0.2080 -0.2608
  468MOL0     H63149   5.998   2.960   0.669  1.9950 -0.7652 -1.2886
  468MOL0     H63150   5.960   3.170   0.461  1.4554 -3.5798 -0.8295
  468MOL0     H63151   6.098   3.143   0.557  0.6740 -0.9100  1.6612
  468MOL0     H63152   5.828   3.235   0.674 -0.2751 -0.9298  3.9258
  468MOL0     H63153   5.971   3.208   0.766 -2.7851 -0.3605 -0.0147
  468MOL0     H63154   5.984   3.419   0.546  0.9338  1.6453  0.7764
  468MOL0     H63155   6.099   3.387   0.662  0.3588  0.6478  0.6027
  468MOL0     H63156   5.817   3.482   0.703 -0.4564 -2.9476  2.1926
  468MOL0     H63157   5.930   3.453   0.839  1.4422  4.2492  1.0521
  468MOL0     H63158   5.910   3.696   0.767  0.5350  1.3234 -0.5584
  468MOL0     H63159   5.990   3.647   0.617 -0.1795 -2.7205 -0.5474
  468MOL0     H63160   6.185   3.574   0.742  0.1970  0.0794  1.3872
  468MOL0     H63161   6.086   3.594   0.888  1.5026  0.0829 -0.1841
  468MOL0     H63162   5.730   2.716   0.451  1.0846  0.2206 -0.6092
  468MOL0     H63163   5.500   2.750   0.529 -0.1086  0.7844  0.4944
  468MOL0     H63164   5.202   3.135   0.572 -1.9482  2.4061 -1.7886
  468MOL0     H63165   5.008   3.250   0.637 -0.3015 -0.8914 -1.5559
  468MOL0     H63166   5.459   2.769   1.739 -1.5583 -0.4000  1.6347
  468MOL0     H63167   5.571   2.587   1.590  0.5310  0.9097 -3.1855
  468MOL0     H63168   5.720   2.180   1.498  0.9373  1.5100 -0.0230
  468MOL0     H63169   5.850   2.044   1.322  0.1299  0.3087 -0.9696
  468MOL0     H63170   5.898   2.009   0.887  1.1331 -1.2934  1.6338
  468MOL0     H63171   5.819   2.168   0.922  0.7357 -0.7619 -1.1659
  468MOL0     H63172   6.004   2.210   1.095 -4.7924 -0.3758  0.0762
  468MOL0     H63173   6.034   2.233   0.923 -1.9811  0.2221 -0.1954
  468MOL0     H63174   6.170   2.035   0.914  2.3298  3.5283 -0.4028
  468MOL0     H63175   6.101   1.973   1.078  0.1055 -1.0415  0.3869
  468MOL0     H63176   6.239   2.188   1.185 -0.6395  1.6027 -1.4410
  468MOL0     H63177   6.295   2.196   1.024 -2.4085  0.2360  0.0403
  468MOL0     H63178   6.510   1.868   1.196 -1.2780 -0.0672  2.5932
  468MOL0     H63179   5.607   2.205   1.014 -1.8285 -2.3780 -0.0734
  468MOL0     H63180   5.485   2.336   1.170  1.4087  1.5076 -0.7345
  469MOL0     O63181  10.757   0.687   9.434  0.1649  0.5551  0.3312
  469MOL0     C63182  10.759   0.808   9.436 -0.7230 -0.4467  0.2152
  469MOL0     O63183  10.858   0.896   9.387 -0.1226  0.3692 -0.0677
  469MOL0     C63184  10.975   0.855   9.333 -0.1334  0.3750 -0.4553
  469MOL0     C63185  10.996   0.740   9.255  0.1489  0.7040 -0.0067
  469MOL0     C63186  11.111   0.699   9.190 -0.2046 -0.6427  0.6466
  469MOL0     C63187  11.226   0.791   9.198  0.8916  0.2681 -0.0415
  469MOL0     O63188  11.336   0.788   9.124 -0.4095 -0.1424  0.0946
  469MOL0     C63189  11.365   0.689   9.018  0.9028 -1.0532 -0.3671
  469MOL0     C63190  11.478   0.606   9.057 -0.0793  1.0188 -0.7940
  469MOL0     C63191  11.620   0.674   9.060  0.8897  0.4805 -0.5310
  469MOL0     C63192  11.722   0.591   8.990 -0.3108  0.8214  0.0699
  469MOL0     C63193  11.678   0.584   8.838 -0.6258  0.8458 -0.2054
  469MOL0     C63194  11.742   0.465   8.769 -0.0165 -0.0444 -0.1122
  469MOL0     C63195  11.715   0.467   8.618  0.5735  0.5159  0.4826
  469MOL0     C63196  11.759   0.335   8.552 -0.1480 -0.7069 -0.5775
  469MOL0     N63197  11.676   0.280   8.444  0.0623 -0.3430 -0.0792
  469MOL0     C63198  11.544   0.235   8.450  0.4825  0.1480 -0.0262
  469MOL0     C63199  11.512   0.228   8.316 -0.0621  0.0867  0.6885
  469MOL0     C63200  11.379   0.165   8.255 -0.0450 -0.4898  0.1060
  469MOL0     C63201  11.430   0.022   8.209 -0.5263 -1.3812 -0.6073
  469MOL0     C63202  11.314  -0.051   8.147 -0.8703 -0.2247 -0.3050
  469MOL0     C63203  11.213  -0.106   8.241  0.3764 -0.9123 -0.3587
  469MOL0     O63204  11.107  -0.163   8.168 -0.9887  0.6636 -0.1282
  469MOL0     C63205  10.997  -0.096   8.153  0.6886 -0.4627  0.1303
  469MOL0     C63206  10.889  -0.167   8.115 -0.4195  0.5580  0.4434
  469MOL0     C63207  10.760  -0.110   8.095  0.6779 -1.0400  1.1644
  469MOL0     C63208  10.655  -0.202   8.036  0.1177  0.4476 -0.0126
  469MOL0     C63209  10.749   0.036   8.106 -0.6315 -0.6458  1.0531
  469MOL0     C63210  10.624   0.118   8.102 -0.2201  0.6180 -0.2906
  469MOL0     O63211  10.646   0.250   8.113  1.2769  0.2355  0.2735
  469MOL0     C63212  10.531   0.321   8.123  0.4561  0.8931 -0.4888
  469MOL0     C63213  10.438   0.353   8.020  0.0062 -0.7882 -0.5757
  469MOL0     C63214  10.315   0.421   8.045  0.2231 -0.6170  0.1822
  469MOL0     C63215  10.295   0.476   8.180  0.3635  0.1045 -0.0663
  469MOL0     O63216  10.199   0.577   8.191 -0.1160  1.0087  0.3999
  469MOL0     C63217  10.156   0.640   8.310 -0.1789 -0.0870 -0.3921
  469MOL0     C63218  10.015   0.687   8.304  0.0800 -0.4246 -0.1498
  469MOL0     C63219   9.995   0.786   8.194  0.1742 -0.4733 -0.0036
  469MOL0     C63220  10.030   0.928   8.229 -0.8698  0.9644 -0.1667
  469MOL0     C63221   9.923   1.038   8.193 -0.1703 -0.6772  0.2297
  469MOL0     C63222   9.913   1.077   8.045  0.0602  0.0343  0.5936
  469MOL0     C63223   9.795   1.175   8.026 -0.4039  0.3231  0.0097
  469MOL0     C63224   9.828   1.321   8.028 -0.8647  0.2678 -0.1435
  469MOL0    Cl63225   9.674   1.417   7.993 -0.0429 -0.3555  0.5715
  469MOL0     C63226  10.376   0.428   8.280 -0.5762  0.5928 -0.3337
  469MOL0     C63227  10.484   0.337   8.254  0.9266 -0.6873  0.2320
  469MOL0     O63228  10.513   0.060   8.086  0.1188 -0.0837  0.4120
  469MOL0     C63229  10.869   0.109   8.139  0.4004 -0.0011  0.3730
  469MOL0     C63230  10.991   0.044   8.162  0.3272  0.2156 -0.7670
  469MOL0     N63231  11.614   0.282   8.233  0.0867  0.2483 -0.1222
  469MOL0     N63232  11.706   0.307   8.316  0.4235  0.3160  0.6691
  469MOL0     C63233  11.203   0.909   9.270 -0.3092  0.4441  0.2451
  469MOL0     C63234  11.092   0.933   9.341 -0.2648 -1.2487  0.3775
  469MOL0     C63235  10.636   0.880   9.474  0.0233 -0.0768  0.0896
  469MOL0     C63236  10.555   0.826   9.578  0.6849 -0.9560 -1.0573
  469MOL0     C63237  10.450   0.897   9.624  0.0950  0.4491  0.8127
  469MOL0     C63238  10.420   1.022   9.564  1.4752 -0.0295 -0.8458
  469MOL0     O63239  10.327   1.114   9.600  0.0720 -0.2134  0.0686
  469MOL0     C63240  10.223   1.078   9.687 -0.2408  0.8677 -0.8467
  469MOL0     C63241  10.107   1.175   9.651  0.1686 -0.2692 -0.4335
  469MOL0     C63242  10.024   1.227   9.767  0.0296 -0.1310  0.1737
  469MOL0     C63243   9.927   1.112   9.830 -0.8864  0.8492  0.5590
  469MOL0     C63244   9.816   1.167   9.896  0.4232 -0.4508  0.4485
  469MOL0     C63245   9.716   1.211   9.956  0.4421  1.0556 -0.3675
  469MOL0     C63246  10.483   1.060   9.448  0.0920  0.1579 -0.1008
  469MOL0     C63247  10.592   0.992   9.404 -0.1914  0.6106  0.2859
  469MOL0     H63248  10.911   0.673   9.241  0.5139  0.4964 -1.4699
  469MOL0     H63249  11.116   0.611   9.127 -1.3170  0.8458 -1.6989
  469MOL0     H63250  11.279   0.626   8.990 -1.8310  1.4483  1.8195
  469MOL0     H63251  11.389   0.740   8.924  0.6630  2.8386  1.5049
  469MOL0     H63252  11.468   0.564   9.157  0.3478  4.3428  0.7779
  469MOL0     H63253  11.470   0.520   8.989 -4.0061  1.1767 -0.7611
  469MOL0     H63254  11.617   0.782   9.044 -0.2796  0.7715  1.3573
  469MOL0     H63255  11.655   0.675   9.164 -1.0044 -0.1893  0.1509
  469MOL0     H63256  11.822   0.633   9.003 -0.0507  0.9670 -2.0512
  469MOL0     H63257  11.730   0.490   9.032  1.3406  1.0890  0.4523
  469MOL0     H63258  11.570   0.596   8.824 -1.1183 -0.2637  2.1613
  469MOL0     H63259  11.721   0.668   8.783  3.0571 -1.4415 -1.2431
  469MOL0     H63260  11.851   0.468   8.783 -0.0302  0.5543 -0.1127
  469MOL0     H63261  11.699   0.379   8.821  0.4612  0.2872  0.8593
  469MOL0     H63262  11.608   0.487   8.612  0.0303 -2.2559 -0.2084
  469MOL0     H63263  11.766   0.549   8.566  1.9571  0.4932  1.7070
  469MOL0     H63264  11.754   0.260   8.631  0.8967  0.5850  0.7727
  469MOL0     H63265  11.858   0.347   8.507  0.8788 -0.2210  1.7024
  469MOL0     H63266  11.485   0.195   8.532 -1.2845  0.6515 -1.0004
  469MOL0     H63267  11.300   0.152   8.329  1.2045 -1.1764  1.3851
  469MOL0     H63268  11.340   0.221   8.170  0.2232 -1.4305 -0.6540
  469MOL0     H63269  11.471  -0.038   8.290  2.7086 -2.4393 -2.7986
  469MOL0     H63270  11.513   0.030   8.138  1.7844 -1.1035  1.9862
  469MOL0     H63271  11.347  -0.135   8.086 -0.3640 -0.7862  0.7051
  469MOL0     H63272  11.266  -0.005   8.060 -2.4570 -3.3369 -1.2406
  469MOL0     H63273  11.186  -0.027   8.311 -0.0407 -1.0269 -0.3862
  469MOL0     H63274  11.258  -0.190   8.294 -1.3220 -1.1031  0.8679
  469MOL0     H63275  10.904  -0.273   8.098 -0.3157  0.7827 -1.0570
  469MOL0     H63276  10.676  -0.309   8.047 -0.8145  0.4261  1.9791
  469MOL0     H63277  10.557  -0.180   8.080  0.1669  0.8440 -0.0942
  469MOL0     H63278  10.648  -0.176   7.930  0.7643  1.5021  0.1934
  469MOL0     H63279  10.459   0.330   7.916  0.5045  1.0345 -0.9260
  469MOL0     H63280  10.256   0.456   7.961  1.3068 -1.3807 -0.9383
  469MOL0     H63281  10.156   0.568   8.392  0.3868 -2.1499 -2.1318
  469MOL0     H63282  10.224   0.722   8.339  0.2559 -0.4576 -0.3570
  469MOL0     H63283   9.948   0.602   8.289  1.7235 -1.5814 -1.3065
  469MOL0     H63284   9.984   0.729   8.400  1.8345  0.4554  0.0759
  469MOL0     H63285   9.887   0.789   8.177 -0.1261  3.0546  1.7318
  469MOL0     H63286  10.031   0.749   8.097  0.7720 -1.9013  0.7261
  469MOL0     H63287  10.057   0.931   8.335 -0.3602 -3.5919  0.0263
  469MOL0     H63288  10.118   0.947   8.167 -1.6486 -1.9742 -2.3969
  469MOL0     H63289   9.946   1.124   8.256  2.0512 -1.4420  0.5434
  469MOL0     H63290   9.827   0.997   8.227 -2.4496  2.6429 -1.6635
  469MOL0     H63291  10.006   1.111   7.997  1.5045 -1.9812  1.7945
  469MOL0     H63292   9.890   0.983   7.993  1.8629  0.4403 -1.0700
  469MOL0     H63293   9.708   1.156   8.090 -0.4657 -1.1563 -0.4779
  469MOL0     H63294   9.766   1.163   7.921  0.8029 -1.3160 -0.1735
  469MOL0     H63295   9.909   1.348   7.960  1.1698  2.1891  2.8370
  469MOL0     H63296   9.857   1.345   8.130  1.5805  2.0519 -1.1505
  469MOL0     H63297  10.365   0.451   8.386  0.1969  0.3888 -0.1976
  469MOL0     H63298  10.545   0.301   8.336  2.5848 -0.9868 -1.0678
  469MOL0     H63299  10.868   0.214   8.169  0.0012  0.0328  0.2507
  469MOL0     H63300  11.073   0.109   8.190 -0.3180  0.7606 -0.0816
  469MOL0     H63301  11.284   0.982   9.269  1.0587 -0.9575  2.0326
  469MOL0     H63302  11.094   1.025   9.398  1.4967 -1.1771  0.2745
  469MOL0     H63303  10.592   0.737   9.628  1.3288  0.6203  1.4885
  469MOL0     H63304  10.386   0.867   9.706 -1.5251 -0.9383 -0.8767
  469MOL0     H63305  10.192   0.974   9.688  0.2192  0.7303 -0.2338
  469MOL0     H63306  10.246   1.108   9.790 -0.6914 -0.5580 -0.3159
  469MOL0     H63307  10.043   1.113   9.588 -1.1716 -0.4030  1.0098
  469MOL0     H63308  10.137   1.260   9.589  0.1303 -0.1212 -0.2491
  469MOL0     H63309   9.957   1.306   9.731  0.5186  0.4111  0.4343
  469MOL0     H63310  10.092   1.268   9.843 -0.1611 -1.1513  0.9078
  469MOL0     H63311   9.975   1.048   9.905 -2.8651  0.2756  1.4200
  469MOL0     H63312   9.892   1.040   9.755  0.5211  0.2012  0.5056
  469MOL0     H63313   9.629   1.242  10.011  0.1230  0.5856 -0.5972
  469MOL0     H63314  10.469   1.152   9.393  3.2506  1.5175  1.0927
  469MOL0     H63315  10.646   1.021   9.314 -1.7976 -1.2071 -1.3790
  470MOL0     O63316   4.422   2.707   4.701 -0.1253 -0.0611  0.0467
  470MOL0     C63317   4.492   2.684   4.604 -0.1000  0.1462  0.3307
  470MOL0     O63318   4.508   2.559   4.535 -1.6368 -0.2093 -1.2150
  470MOL0     C63319   4.416   2.457   4.550  0.5639 -0.3039  0.7215
  470MOL0     C63320   4.281   2.482   4.547 -0.6943  0.6739 -0.5126
  470MOL0     C63321   4.193   2.375   4.526  0.6065 -0.5688  0.9846
  470MOL0     C63322   4.241   2.240   4.514 -0.0064 -0.2685 -0.7551
  470MOL0     O63323   4.168   2.129   4.493 -1.2293  0.5797 -1.1014
  470MOL0     C63324   4.034   2.127   4.550 -0.2654 -0.9317  0.5031
  470MOL0     C63325   3.968   2.000   4.484  0.8362 -0.4276 -0.7889
  470MOL0     C63326   3.837   1.983   4.572  0.3275  0.2951  0.2852
  470MOL0     C63327   3.776   1.839   4.555 -0.2937  0.3588 -0.0202
  470MOL0     C63328   3.657   1.846   4.470 -0.7628  0.8470  0.6886
  470MOL0     C63329   3.602   1.704   4.438 -0.3989  0.0825 -0.9114
  470MOL0     C63330   3.521   1.649   4.555  0.4067 -0.1497  0.3908
  470MOL0     C63331   3.499   1.495   4.541 -0.5292 -0.0705 -0.2202
  470MOL0     N63332   3.408   1.461   4.429  0.6555  0.3018  0.4283
  470MOL0     C63333   3.419   1.455   4.294 -0.4225  0.2134  0.2102
  470MOL0     C63334   3.301   1.402   4.237 -0.7766 -0.0613 -0.3860
  470MOL0     C63335   3.269   1.380   4.092 -0.5967 -0.0312 -0.1499
  470MOL0     C63336   3.259   1.513   4.012  0.1123  1.0489 -0.2074
  470MOL0     C63337   3.308   1.503   3.857  0.2273 -0.5006  0.1773
  470MOL0     C63338   3.281   1.642   3.791 -0.1508  0.5533 -0.7755
  470MOL0     O63339   3.269   1.634   3.645 -0.0251  0.9599  0.4392
  470MOL0     C63340   3.378   1.577   3.578 -0.2609  0.1510 -0.1669
  470MOL0     C63341   3.497   1.644   3.573 -0.0084 -0.8357 -0.2055
  470MOL0     C63342   3.608   1.579   3.507 -0.3139 -0.1187  0.6317
  470MOL0     C63343   3.742   1.634   3.518 -0.6485  0.2408 -0.4623
  470MOL0     C63344   3.594   1.453   3.443 -0.3057  0.4821  0.6196
  470MOL0     C63345   3.695   1.372   3.375 -0.6268 -0.1505  0.3452
  470MOL0     O63346   3.709   1.243   3.411 -0.1986  0.1591  0.6014
  470MOL0     C63347   3.794   1.167   3.334 -0.0995  0.6086 -0.5200
  470MOL0     C63348   3.912   1.128   3.391 -0.2610  0.6015 -0.5373
  470MOL0     C63349   4.004   1.054   3.329  0.8368 -0.0044  0.6938
  470MOL0     C63350   3.975   0.988   3.203  0.3524  0.3027 -0.2381
  470MOL0     O63351   4.045   0.875   3.146 -0.2810  0.1756  0.3714
  470MOL0     C63352   3.975   0.756   3.180  0.5896  0.1467  0.1676
  470MOL0     C63353   4.007   0.707   3.320 -0.0289 -0.3756  0.2806
  470MOL0     C63354   3.981   0.556   3.330 -0.1777  0.1269 -0.0606
  470MOL0     C63355   3.980   0.505   3.478 -0.3508 -0.5326 -0.2830
  470MOL0     C63356   3.955   0.364   3.496  0.4168 -0.2001  0.8959
  470MOL0     C63357   3.946   0.322   3.644  0.4055 -0.3311 -0.2212
  470MOL0     C63358   3.829   0.384   3.719  0.4990  0.6853 -0.3219
  470MOL0     C63359   3.820   0.339   3.867  0.4294  0.6016  0.7277
  470MOL0    Cl63360   3.781   0.169   3.883 -0.1690  0.8629  0.1582
  470MOL0     C63361   3.849   1.031   3.147 -0.5312  0.2139  0.2213
  470MOL0     C63362   3.766   1.127   3.198 -0.3415 -0.3312 -0.6607
  470MOL0     O63363   3.754   1.428   3.288 -0.3382  0.7437  0.2752
  470MOL0     C63364   3.465   1.394   3.439 -0.0175  0.1632  0.4196
  470MOL0     C63365   3.357   1.457   3.504 -0.3890  0.4291 -0.1205
  470MOL0     N63366   3.208   1.389   4.337 -0.6279 -0.2430 -0.0211
  470MOL0     N63367   3.275   1.425   4.448  0.2420  0.3752 -0.1586
  470MOL0     C63368   4.378   2.221   4.522  0.1191 -0.0674  0.5910
  470MOL0     C63369   4.461   2.327   4.536 -0.3186  0.2924  0.5627
  470MOL0     C63370   4.585   2.788   4.584  0.5560  0.0547  1.0420
  470MOL0     C63371   4.706   2.745   4.526  0.5766 -0.6100 -0.6980
  470MOL0     C63372   4.806   2.846   4.510 -0.4938  0.6290 -0.1582
  470MOL0     C63373   4.802   2.979   4.545  1.1913  1.0766  0.4085
  470MOL0     O63374   4.911   3.048   4.510 -0.4007  0.8433  0.0379
  470MOL0     C63375   4.913   3.194   4.519 -0.1636 -0.4347  0.8353
  470MOL0     C63376   4.831   3.259   4.394  0.7915 -0.3574  0.7677
  470MOL0     C63377   4.815   3.412   4.402 -0.4344 -1.2682  0.5283
  470MOL0     C63378   4.726   3.471   4.295  0.8833  1.6359 -0.4862
  470MOL0     C63379   4.668   3.597   4.337 -0.9628  0.7457 -0.7124
  470MOL0     C63380   4.633   3.711   4.365  0.4759  0.0234 -0.6520
  470MOL0     C63381   4.675   3.020   4.597 -0.5379 -0.0260  0.1964
  470MOL0     C63382   4.572   2.927   4.614 -0.1690 -0.1770 -0.1230
  470MOL0     H63383   4.261   2.587   4.567  0.5338  0.8005  0.2185
  470MOL0     H63384   4.085   2.391   4.531  0.7241  1.4034 -1.0923
  470MOL0     H63385   4.040   2.116   4.659  0.4382  0.2327  0.6001
  470MOL0     H63386   3.971   2.211   4.520  0.5931 -0.7318 -0.7997
  470MOL0     H63387   3.937   2.019   4.381  1.3528 -0.4171 -0.9468
  470MOL0     H63388   4.044   1.923   4.502 -1.7647 -2.3244  4.4790
  470MOL0     H63389   3.845   2.002   4.679 -0.2661 -0.3056  0.4481
  470MOL0     H63390   3.768   2.053   4.525  1.6444  0.8637 -0.8503
  470MOL0     H63391   3.854   1.776   4.512 -1.0869 -0.5640 -0.1206
  470MOL0     H63392   3.769   1.794   4.654  1.9778 -0.7146 -0.2822
  470MOL0     H63393   3.580   1.899   4.527 -0.8172  1.5260 -0.0129
  470MOL0     H63394   3.670   1.905   4.380  0.5129  2.0419  1.6246
  470MOL0     H63395   3.528   1.714   4.358 -3.1421 -2.3707  1.0855
  470MOL0     H63396   3.684   1.633   4.426 -0.6582 -0.5930  0.9358
  470MOL0     H63397   3.572   1.668   4.650 -1.6132 -1.4260  1.8047
  470MOL0     H63398   3.429   1.707   4.559 -1.2282 -2.6193  0.4254
  470MOL0     H63399   3.451   1.467   4.635 -0.1980  1.3097  0.3893
  470MOL0     H63400   3.594   1.443   4.526 -0.9167 -0.3926 -1.7477
  470MOL0     H63401   3.510   1.480   4.240 -1.0951  3.1104  0.2622
  470MOL0     H63402   3.354   1.320   4.060 -1.6607 -1.9409  0.3872
  470MOL0     H63403   3.175   1.326   4.076 -0.2739 -0.0147 -2.3135
  470MOL0     H63404   3.326   1.584   4.060 -1.7232  2.6028  0.1777
  470MOL0     H63405   3.155   1.548   4.013 -0.3959 -0.2835 -1.8483
  470MOL0     H63406   3.267   1.419   3.800 -2.5242 -0.3602  1.7588
  470MOL0     H63407   3.416   1.504   3.869  0.2304  1.4509  0.3546
  470MOL0     H63408   3.369   1.700   3.819  0.4418 -0.6245 -0.1140
  470MOL0     H63409   3.193   1.684   3.840  0.6812  3.0593 -1.3229
  470MOL0     H63410   3.513   1.741   3.620  1.4048 -1.3284  0.3875
  470MOL0     H63411   3.797   1.564   3.581  1.8569  0.7440 -1.9794
  470MOL0     H63412   3.798   1.636   3.424  1.6818 -0.2296  0.8598
  470MOL0     H63413   3.739   1.736   3.558 -0.4769 -0.1933  0.7075
  470MOL0     H63414   3.926   1.156   3.495 -0.6879  2.3010 -0.9084
  470MOL0     H63415   4.102   1.035   3.371  2.7614  2.5477 -2.1525
  470MOL0     H63416   3.868   0.760   3.161  0.5724 -0.5385  0.0898
  470MOL0     H63417   4.022   0.687   3.109 -1.6604 -1.8477  0.4732
  470MOL0     H63418   4.113   0.724   3.342 -0.0881  2.6648 -1.2982
  470MOL0     H63419   3.945   0.765   3.390 -1.7715 -2.5490  0.6528
  470MOL0     H63420   4.060   0.501   3.277  0.2964 -0.8462  1.5619
  470MOL0     H63421   3.885   0.530   3.285 -0.2087  1.1418 -0.6269
  470MOL0     H63422   4.075   0.534   3.524 -0.3216  2.9339 -2.1770
  470MOL0     H63423   3.901   0.565   3.524 -1.3083 -2.9456  1.3823
  470MOL0     H63424   4.033   0.306   3.446 -3.1963 -2.8056 -2.2773
  470MOL0     H63425   3.867   0.334   3.440  0.6588 -1.6562  1.2463
  470MOL0     H63426   3.929   0.214   3.656  1.4742 -0.1982  4.4318
  470MOL0     H63427   4.033   0.360   3.698  0.6947  1.5179 -1.8670
  470MOL0     H63428   3.731   0.355   3.680  1.2981 -2.4495 -0.2416
  470MOL0     H63429   3.829   0.493   3.722  1.3553  0.6689  0.8236
  470MOL0     H63430   3.745   0.391   3.927 -0.6526 -0.2059  0.0914
  470MOL0     H63431   3.921   0.357   3.906  0.9175  0.8874 -0.6031
  470MOL0     H63432   3.814   0.982   3.056  1.1244  1.1539 -0.9608
  470MOL0     H63433   3.681   1.158   3.137 -0.0310  0.5040 -0.6807
  470MOL0     H63434   3.439   1.300   3.392 -0.5845  1.7753 -2.7852
  470MOL0     H63435   3.261   1.405   3.504  0.5508 -1.4964  2.1517
  470MOL0     H63436   4.420   2.125   4.494  0.5240  0.8810 -2.4380
  470MOL0     H63437   4.568   2.316   4.517 -0.5646  0.1747 -0.8713
  470MOL0     H63438   4.738   2.646   4.497  1.2216 -0.4661 -0.5047
  470MOL0     H63439   4.893   2.815   4.453 -0.6758 -1.1335  0.4568
  470MOL0     H63440   4.867   3.229   4.612  2.3244  2.2227  1.2056
  470MOL0     H63441   5.019   3.222   4.520  0.3734 -2.2565 -0.3276
  470MOL0     H63442   4.729   3.217   4.398 -0.8437  2.4755 -3.7375
  470MOL0     H63443   4.875   3.234   4.297 -0.3381  3.9021 -1.0658
  470MOL0     H63444   4.913   3.460   4.399  0.7525 -3.6340 -1.5579
  470MOL0     H63445   4.767   3.442   4.496 -1.3336  0.2021 -0.3666
  470MOL0     H63446   4.643   3.401   4.285  0.2244  2.4302 -0.6372
  470MOL0     H63447   4.791   3.476   4.207  2.8357  2.0779  0.9139
  470MOL0     H63448   4.602   3.813   4.372  0.3974 -0.0772  0.5460
  470MOL0     H63449   4.657   3.125   4.619  1.5845  0.4436 -0.1581
  470MOL0     H63450   4.483   2.978   4.649  0.6263  0.5908  0.8568
  471MOL0     O63451   5.856   6.877  10.632 -0.2326  0.1604 -0.3818
  471MOL0     C63452   5.782   6.828  10.719  0.0754 -0.1178 -1.1037
  471MOL0     O63453   5.724   6.892  10.827  1.2010  0.8899  0.3332
  471MOL0     C63454   5.712   7.026  10.821  0.4549 -0.6994  0.2300
  471MOL0     C63455   5.738   7.116  10.719  0.1745  0.2062 -0.2527
  471MOL0     C63456   5.717   7.250  10.730 -0.2039 -0.7128  0.0117
  471MOL0     C63457   5.656   7.311  10.845  0.2231 -0.0512  0.2083
  471MOL0     O63458   5.625   7.450  10.845 -0.1258 -0.4205  0.2312
  471MOL0     C63459   5.510   7.494  10.905  0.2436  0.0102 -0.1464
  471MOL0     C63460   5.494   7.651  10.871 -0.1489  0.2673  0.1633
  471MOL0     C63461   5.374   7.723  10.927 -0.4479  0.5246  0.3939
  471MOL0     C63462   5.318   7.679  11.068 -0.9124 -0.4328 -0.0070
  471MOL0     C63463   5.411   7.725  11.180 -0.0585 -0.3833 -0.4511
  471MOL0     C63464   5.392   7.880  11.197  0.0644  0.4239 -0.7833
  471MOL0     C63465   5.505   7.943  11.289  0.1167  0.4450  0.0407
  471MOL0     C63466   5.489   8.087  11.310 -0.2467 -0.6346  0.3189
  471MOL0     N63467   5.355   8.120  11.358 -0.5856  0.2482  0.0674
  471MOL0     C63468   5.305   8.075  11.472  1.1155  0.0282 -0.3956
  471MOL0     C63469   5.198   8.157  11.500 -0.6317  0.4832  0.3312
  471MOL0     C63470   5.111   8.169  11.620 -1.1663 -0.1800  0.3691
  471MOL0     C63471   5.202   8.194  11.742  0.8890  0.4048  0.7077
  471MOL0     C63472   5.107   8.226  11.857  0.3396 -0.0662 -0.0455
  471MOL0     C63473   5.190   8.284  11.969  0.5871 -0.2173  1.2214
  471MOL0     O63474   5.134   8.392  12.043 -0.3476  0.5477  0.2875
  471MOL0     C63475   5.032   8.364  12.137 -0.2587 -1.1462  0.8992
  471MOL0     C63476   4.994   8.470  12.209 -0.0988 -0.1711 -0.2182
  471MOL0     C63477   4.911   8.477  12.311 -0.1856  0.4323  0.7348
  471MOL0     C63478   4.908   8.598  12.406 -0.0040 -0.8362  0.3012
  471MOL0     C63479   4.841   8.353  12.348 -0.4272  1.2587  0.4170
  471MOL0     C63480   4.732   8.336  12.445  1.0619  0.8942  0.0084
  471MOL0     O63481   4.701   8.203  12.476  0.0476 -0.0902 -0.3976
  471MOL0     C63482   4.600   8.159  12.566 -0.0582 -0.0800  0.2131
  471MOL0     C63483   4.569   8.020  12.573 -0.3805  0.2106  0.2813
  471MOL0     C63484   4.493   7.963  12.676  0.3189  0.9563  0.3866
  471MOL0     C63485   4.449   8.052  12.777 -0.5527 -0.7212  0.6806
  471MOL0     O63486   4.381   8.006  12.879 -0.5819  0.3605  0.4253
  471MOL0     C63487   4.398   7.871  12.919 -0.6864  0.1075 -0.5035
  471MOL0     C63488   4.365   7.861  13.067  0.3164  0.2104  0.3988
  471MOL0     C63489   4.218   7.896  13.084  0.0909  0.3804 -0.1250
  471MOL0     C63490   4.164   7.936  13.223 -0.6415  0.1127 -0.4549
  471MOL0     C63491   4.128   7.816  13.316  0.1110 -0.1734 -0.5322
  471MOL0     C63492   4.023   7.851  13.420 -0.3778 -0.1325  0.6266
  471MOL0     C63493   4.018   7.731  13.513 -0.1046 -0.0720  0.7725
  471MOL0     C63494   3.960   7.763  13.648 -0.3734 -0.9382  0.1490
  471MOL0    Cl63495   4.082   7.845  13.754 -0.0008  0.4535  0.2927
  471MOL0     C63496   4.482   8.188  12.771  1.0767 -0.0910 -0.1680
  471MOL0     C63497   4.558   8.244  12.673 -0.1501  0.0138  0.2507
  471MOL0     O63498   4.667   8.440  12.486 -1.0661  0.0682 -0.1491
  471MOL0     C63499   4.865   8.239  12.261  1.0800 -0.9873 -0.3688
  471MOL0     C63500   4.971   8.240  12.164  0.2262  0.4625 -0.4072
  471MOL0     N63501   5.180   8.238  11.394 -0.0586 -0.4012  1.1225
  471MOL0     N63502   5.274   8.221  11.311  0.3235  0.2220  0.1269
  471MOL0     C63503   5.624   7.225  10.946  0.3675 -0.6783 -0.1100
  471MOL0     C63504   5.648   7.085  10.932 -0.8480 -0.0774  0.0936
  471MOL0     C63505   5.786   6.679  10.717 -0.4403  0.1943 -0.5623
  471MOL0     C63506   5.782   6.600  10.830  0.1937  0.3816  0.0489
  471MOL0     C63507   5.798   6.465  10.825 -0.4417  0.5362 -0.4264
  471MOL0     C63508   5.828   6.389  10.706  0.9366 -0.5809 -0.3740
  471MOL0     O63509   5.849   6.261  10.689 -0.0898  0.3028 -0.1746
  471MOL0     C63510   5.905   6.187  10.797  0.1600  0.1863 -0.4301
  471MOL0     C63511   5.801   6.137  10.900 -0.5060  0.2374  0.2080
  471MOL0     C63512   5.878   6.041  11.001  0.4513 -0.0913 -0.4368
  471MOL0     C63513   5.850   6.088  11.145  0.7001  0.1357  0.4267
  471MOL0     C63514   5.701   6.071  11.180 -0.5911 -0.0281  0.3635
  471MOL0     C63515   5.578   6.060  11.191 -0.2598 -0.0739 -0.5989
  471MOL0     C63516   5.824   6.476  10.588  0.3409  1.0615 -0.9522
  471MOL0     C63517   5.806   6.610  10.596  0.2788 -0.8116 -0.6975
  471MOL0     H63518   5.761   7.074  10.622  0.3181 -1.6989  0.5526
  471MOL0     H63519   5.739   7.313  10.644  1.1782  1.1237  1.6132
  471MOL0     H63520   5.423   7.447  10.857  0.1664 -3.0685  2.7267
  471MOL0     H63521   5.512   7.483  11.013 -2.4633  0.1593  0.0020
  471MOL0     H63522   5.581   7.704  10.909  0.4495 -2.7664  3.6113
  471MOL0     H63523   5.497   7.661  10.762  4.2684 -2.5488 -0.2122
  471MOL0     H63524   5.394   7.831  10.931  2.3104  0.1034  4.4511
  471MOL0     H63525   5.284   7.704  10.868 -2.3743  0.6156  3.1068
  471MOL0     H63526   5.220   7.723  11.090  0.3860  2.4222  0.5897
  471MOL0     H63527   5.298   7.571  11.069  0.1739 -0.6385  0.0414
  471MOL0     H63528   5.392   7.659  11.265 -2.3075  1.9300  0.9890
  471MOL0     H63529   5.515   7.706  11.150 -0.1842 -1.2318 -0.3653
  471MOL0     H63530   5.410   7.927  11.100  0.0493 -2.3002 -2.2148
  471MOL0     H63531   5.288   7.901  11.226  0.6263  2.1763  0.0830
  471MOL0     H63532   5.495   7.906  11.392  0.1638 -0.2445 -0.1949
  471MOL0     H63533   5.603   7.906  11.258  2.2950  1.6684  4.6464
  471MOL0     H63534   5.509   8.141  11.218  0.6152 -0.9527  0.3066
  471MOL0     H63535   5.568   8.110  11.383  0.7425 -2.1228 -0.2274
  471MOL0     H63536   5.348   7.995  11.531 -0.6477 -1.1549 -0.6316
  471MOL0     H63537   5.042   8.250  11.594 -3.2072 -2.2770 -1.1870
  471MOL0     H63538   5.052   8.078  11.632 -1.8261  0.0159 -1.1427
  471MOL0     H63539   5.286   8.262  11.720  1.7092 -1.0393 -0.8278
  471MOL0     H63540   5.249   8.099  11.769 -3.1178 -1.1222  3.1517
  471MOL0     H63541   5.063   8.137  11.904  1.8117  0.5343  2.6939
  471MOL0     H63542   5.030   8.301  11.836  0.5028 -0.2173 -1.2747
  471MOL0     H63543   5.276   8.330  11.920 -0.1783  0.2979  0.3306
  471MOL0     H63544   5.223   8.202  12.034 -1.6526 -2.0285  0.2317
  471MOL0     H63545   5.048   8.564  12.203 -0.1999 -0.1231 -0.3634
  471MOL0     H63546   4.943   8.566  12.504  0.4575 -0.0781  0.3975
  471MOL0     H63547   4.968   8.685  12.377  0.2854 -1.2767 -0.4603
  471MOL0     H63548   4.805   8.635  12.404  1.2259  3.0544  0.3865
  471MOL0     H63549   4.602   7.958  12.490 -2.5013  1.3790 -1.5313
  471MOL0     H63550   4.464   7.859  12.668  1.9498  0.4196  0.9361
  471MOL0     H63551   4.325   7.802  12.875 -1.0186 -0.7578  1.2796
  471MOL0     H63552   4.496   7.823  12.924 -0.9069 -0.2630  0.7510
  471MOL0     H63553   4.387   7.757  13.091  0.7769  0.5551  1.5100
  471MOL0     H63554   4.433   7.917  13.132 -0.9131  1.2279  0.8469
  471MOL0     H63555   4.171   7.800  13.060  0.1633 -0.4974  2.8244
  471MOL0     H63556   4.194   7.982  13.020  1.6705  0.4231 -0.6822
  471MOL0     H63557   4.234   8.002  13.275 -0.2173 -1.8492  1.6350
  471MOL0     H63558   4.076   7.999  13.208 -1.9874 -2.1021 -2.5311
  471MOL0     H63559   4.218   7.765  13.353  1.1371 -1.4162 -4.2734
  471MOL0     H63560   4.084   7.741  13.249 -0.6676 -0.0132 -0.2072
  471MOL0     H63561   4.043   7.947  13.468 -0.4899  0.2550 -0.0778
  471MOL0     H63562   3.933   7.864  13.358  0.4532  0.2878 -0.5304
  471MOL0     H63563   4.118   7.689  13.524  1.9152  4.2094  0.7964
  471MOL0     H63564   3.950   7.662  13.463  1.5041 -1.1418 -0.0102
  471MOL0     H63565   3.939   7.676  13.710 -1.2073 -0.8605 -0.0024
  471MOL0     H63566   3.879   7.835  13.633  2.2811  2.4012  0.5456
  471MOL0     H63567   4.445   8.249  12.853  2.0563  0.2172  0.0542
  471MOL0     H63568   4.591   8.346  12.691 -1.2434  0.4451 -0.1504
  471MOL0     H63569   4.816   8.142  12.263 -0.6341 -0.1717 -0.7274
  471MOL0     H63570   4.988   8.144  12.116 -1.7025 -1.1770  1.9627
  471MOL0     H63571   5.567   7.254  11.034  1.5873 -0.0323  0.4953
  471MOL0     H63572   5.615   7.013  11.006 -0.9146  0.4630  0.5962
  471MOL0     H63573   5.756   6.650  10.922 -1.3769  0.1949 -0.2514
  471MOL0     H63574   5.800   6.410  10.919 -3.9239 -0.2866 -0.7229
  471MOL0     H63575   5.955   6.101  10.749 -2.1632 -0.2586 -2.2614
  471MOL0     H63576   5.988   6.241  10.842  0.1812  0.5345 -0.8819
  471MOL0     H63577   5.726   6.080  10.844 -0.0436 -0.4041  0.2279
  471MOL0     H63578   5.745   6.220  10.942 -0.7619  0.1228  0.0950
  471MOL0     H63579   5.987   6.038  10.992  0.3839 -2.3745 -1.4077
  471MOL0     H63580   5.847   5.936  11.000 -0.7641  0.2196  1.2571
  471MOL0     H63581   5.876   6.195  11.146 -0.1990  0.3752 -0.6110
  471MOL0     H63582   5.915   6.039  11.218  0.0702 -0.5504  0.5416
  471MOL0     H63583   5.474   6.041  11.211 -0.9323  5.1325  2.9134
  471MOL0     H63584   5.830   6.421  10.495  2.5438 -0.4732  0.0162
  471MOL0     H63585   5.812   6.670  10.506  0.3374 -1.7367 -1.3218
  472MOL0     O63586   4.168   0.168   1.385 -0.2218  0.4640  0.1173
  472MOL0     C63587   4.162   0.070   1.315 -0.1869 -0.5429  0.1597
  472MOL0     O63588   4.273   0.001   1.274 -0.0589 -0.3578 -0.5576
  472MOL0     C63589   4.396   0.025   1.330 -0.3958 -0.6242 -0.1348
  472MOL0     C63590   4.474  -0.077   1.376 -0.6127  0.6779  1.0071
  472MOL0     C63591   4.608  -0.053   1.404 -0.4650 -0.8589 -0.4656
  472MOL0     C63592   4.663   0.076   1.388 -0.5031  0.1617 -0.2299
  472MOL0     O63593   4.793   0.101   1.421 -0.3720  0.5290  0.1036
  472MOL0     C63594   4.851   0.035   1.533 -0.3272 -0.2453 -0.8562
  472MOL0     C63595   4.839   0.126   1.652 -0.2474 -0.5262 -0.0201
  472MOL0     C63596   4.975   0.163   1.706 -0.6244  0.7705 -0.1090
  472MOL0     C63597   4.981   0.323   1.734 -0.2460  0.0197  0.4928
  472MOL0     C63598   5.128   0.358   1.739 -0.3283  0.8786 -0.0498
  472MOL0     C63599   5.158   0.516   1.746  0.1266  0.6287 -0.3347
  472MOL0     C63600   5.148   0.587   1.612  0.2462 -0.6657 -1.0654
  472MOL0     C63601   5.185   0.738   1.621 -0.0445 -0.2632  0.9085
  472MOL0     N63602   5.326   0.774   1.642 -0.2750 -0.4305  0.1824
  472MOL0     C63603   5.379   0.787   1.769 -0.3124 -0.6151  0.5221
  472MOL0     C63604   5.507   0.829   1.748  0.1286  0.6617 -0.7429
  472MOL0     C63605   5.613   0.862   1.857 -0.0989 -0.3820  1.0417
  472MOL0     C63606   5.638   1.015   1.892  0.2737 -0.1162 -0.3188
  472MOL0     C63607   5.507   1.094   1.876  0.3861  0.2717  0.2347
  472MOL0     C63608   5.500   1.227   1.951  0.4440  0.8439 -0.2219
  472MOL0     O63609   5.530   1.345   1.878 -0.0308 -0.1423  0.2648
  472MOL0     C63610   5.659   1.385   1.866  0.0810  0.7291 -0.5040
  472MOL0     C63611   5.674   1.470   1.753  0.3777 -0.4804 -0.1976
  472MOL0     C63612   5.794   1.527   1.718 -0.1691 -0.3852 -0.0053
  472MOL0     C63613   5.787   1.618   1.599  0.5405  0.3446  0.3461
  472MOL0     C63614   5.902   1.508   1.811 -0.0162  0.0199  0.5762
  472MOL0     C63615   6.032   1.561   1.788  0.0472  0.0318  0.4512
  472MOL0     O63616   6.118   1.570   1.892  0.1237 -0.9664 -0.2757
  472MOL0     C63617   6.230   1.650   1.894  1.1756  0.2203  0.7777
  472MOL0     C63618   6.356   1.596   1.928  0.9676  1.1580 -0.2604
  472MOL0     C63619   6.476   1.670   1.919 -1.5425 -0.0285 -0.1369
  472MOL0     C63620   6.479   1.799   1.867  0.4850  0.5383  0.0918
  472MOL0     O63621   6.586   1.875   1.830  0.3696 -0.1816  0.5799
  472MOL0     C63622   6.705   1.816   1.870 -0.5637 -0.3404  0.4626
  472MOL0     C63623   6.809   1.929   1.839 -1.1382  0.1520  0.0548
  472MOL0     C63624   6.947   1.861   1.860 -0.1469  0.1148 -0.4189
  472MOL0     C63625   7.064   1.934   1.797 -1.0560 -0.2595 -0.3865
  472MOL0     C63626   7.188   1.847   1.765  0.5395  0.8487 -0.3758
  472MOL0     C63627   7.318   1.922   1.737  0.7586 -0.5559 -0.3497
  472MOL0     C63628   7.446   1.840   1.781  1.0643  0.3171 -0.0578
  472MOL0     C63629   7.569   1.910   1.748 -0.6282  0.0705 -0.2024
  472MOL0    Cl63630   7.582   1.935   1.578  0.1549 -0.2000  0.0208
  472MOL0     C63631   6.347   1.849   1.837 -0.3631 -0.8320 -0.3889
  472MOL0     C63632   6.234   1.780   1.848  0.6679  0.6313  0.6690
  472MOL0     O63633   6.058   1.614   1.682 -0.6786  0.0161  0.0974
  472MOL0     C63634   5.882   1.417   1.920  0.5317  0.0300  0.4617
  472MOL0     C63635   5.763   1.362   1.950 -0.5652 -0.1306 -0.4930
  472MOL0     N63636   5.524   0.843   1.612  0.2590  0.0391 -0.3399
  472MOL0     N63637   5.418   0.813   1.547 -0.7542  0.2936 -0.4859
  472MOL0     C63638   4.586   0.182   1.345 -0.2309 -0.2386  0.0475
  472MOL0     C63639   4.451   0.155   1.314  0.8825 -0.0862 -0.2998
  472MOL0     C63640   4.029   0.046   1.258 -0.3453 -0.4432  0.7217
  472MOL0     C63641   4.021  -0.043   1.142  0.7498 -0.3660 -0.0837
  472MOL0     C63642   3.894  -0.078   1.087  0.5076 -0.3490 -0.1778
  472MOL0     C63643   3.782  -0.018   1.141 -0.5621 -0.4448 -0.1957
  472MOL0     O63644   3.664  -0.044   1.070  0.2871 -0.3274 -0.1517
  472MOL0     C63645   3.543   0.026   1.112  0.6108  0.7424 -0.2157
  472MOL0     C63646   3.422   0.003   1.021 -0.0589 -0.2477 -0.4576
  472MOL0     C63647   3.404   0.087   0.893 -1.0102 -0.3530  0.3408
  472MOL0     C63648   3.273   0.048   0.812  0.2247  0.0325  0.4980
  472MOL0     C63649   3.274  -0.082   0.743 -0.6370  0.5516 -0.9097
  472MOL0     C63650   3.283  -0.189   0.688 -0.5442  0.2015 -1.2593
  472MOL0     C63651   3.791   0.060   1.261 -0.0808 -0.5729 -0.6027
  472MOL0     C63652   3.915   0.097   1.313  0.4905  0.7808  0.1615
  472MOL0     H63653   4.443  -0.181   1.365  0.8003  0.4574 -1.8361
  472MOL0     H63654   4.668  -0.139   1.431 -1.8929 -1.5242  0.7175
  472MOL0     H63655   4.807  -0.063   1.555  0.3544 -0.1295  1.1867
  472MOL0     H63656   4.957   0.011   1.518  0.2397  2.4585 -1.7077
  472MOL0     H63657   4.792   0.221   1.626  1.5659  2.0443  4.8247
  472MOL0     H63658   4.778   0.069   1.723 -1.1175 -2.6701 -2.3241
  472MOL0     H63659   4.994   0.106   1.797  1.5014  0.5615 -0.6496
  472MOL0     H63660   5.060   0.139   1.642  0.4942 -0.3941  1.7365
  472MOL0     H63661   4.926   0.370   1.653  1.2390  0.3742 -0.3482
  472MOL0     H63662   4.920   0.341   1.823  0.1869 -0.5172  0.9151
  472MOL0     H63663   5.175   0.320   1.831  0.2646  0.6496 -0.4408
  472MOL0     H63664   5.191   0.313   1.661 -1.8167 -1.8955  0.2368
  472MOL0     H63665   5.103   0.567   1.826 -2.5182  1.6438 -2.6565
  472MOL0     H63666   5.264   0.520   1.774  1.3163 -4.3254 -3.0306
  472MOL0     H63667   5.204   0.533   1.535 -1.8828 -1.6580 -2.0171
  472MOL0     H63668   5.048   0.571   1.570  0.4442  0.6314 -2.1106
  472MOL0     H63669   5.132   0.774   1.710 -1.8973 -3.0918  1.0628
  472MOL0     H63670   5.157   0.786   1.527 -0.5279 -0.2473  1.0595
  472MOL0     H63671   5.326   0.755   1.858 -2.8849  1.0381 -0.3154
  472MOL0     H63672   5.562   0.820   1.945 -2.5927  0.9017  0.3133
  472MOL0     H63673   5.710   0.813   1.842 -0.8759 -1.6999  0.0640
  472MOL0     H63674   5.701   1.061   1.815 -2.1534  2.3028 -1.0167
  472MOL0     H63675   5.676   1.018   1.994 -0.9918 -1.7383  0.2505
  472MOL0     H63676   5.436   1.033   1.933  0.5545 -0.6688 -0.5484
  472MOL0     H63677   5.493   1.097   1.768 -1.5788 -0.4090  0.4311
  472MOL0     H63678   5.565   1.229   2.039 -0.8610  2.3444  0.7634
  472MOL0     H63679   5.395   1.234   1.984  0.1905 -1.8640 -0.2499
  472MOL0     H63680   5.588   1.480   1.688 -1.5859 -1.7265  2.0272
  472MOL0     H63681   5.825   1.720   1.610  2.1546 -0.4070  2.4954
  472MOL0     H63682   5.842   1.572   1.516 -1.0502 -1.1576  0.0615
  472MOL0     H63683   5.685   1.627   1.561  0.8357  2.6697 -0.0420
  472MOL0     H63684   6.362   1.491   1.957 -0.6253  1.2426  0.4211
  472MOL0     H63685   6.569   1.618   1.939 -1.8385  0.0299  1.5356
  472MOL0     H63686   6.712   1.791   1.976  0.4099 -2.2042  0.0159
  472MOL0     H63687   6.726   1.721   1.819 -0.5995  0.8609 -1.9186
  472MOL0     H63688   6.803   1.958   1.734  0.4975  2.9618  0.6316
  472MOL0     H63689   6.802   2.010   1.913 -1.7462  0.3107 -0.1701
  472MOL0     H63690   6.929   1.758   1.829 -2.2054  0.2123  0.2530
  472MOL0     H63691   6.966   1.862   1.968  3.0195 -0.3063 -0.8792
  472MOL0     H63692   7.030   1.980   1.705 -0.8990  0.2778 -0.1777
  472MOL0     H63693   7.102   2.007   1.870  0.9973 -1.9170  0.3375
  472MOL0     H63694   7.156   1.791   1.676  1.8733  0.3153 -0.5411
  472MOL0     H63695   7.214   1.781   1.849 -1.8265  1.6843  1.1231
  472MOL0     H63696   7.334   1.934   1.630  2.9936  3.1943  0.2436
  472MOL0     H63697   7.321   2.017   1.791  1.9172 -1.1363  0.6507
  472MOL0     H63698   7.427   1.746   1.728 -0.8431  1.7137 -2.0588
  472MOL0     H63699   7.436   1.818   1.887  1.2525 -0.3664 -0.1778
  472MOL0     H63700   7.651   1.845   1.782 -2.9051 -1.3699  3.0630
  472MOL0     H63701   7.570   2.005   1.802 -0.0723  0.4081 -0.7877
  472MOL0     H63702   6.338   1.951   1.803  4.8709  0.0427  0.0512
  472MOL0     H63703   6.142   1.820   1.807  1.7915  0.4220 -2.3571
  472MOL0     H63704   5.965   1.385   1.982  0.7498 -3.1446 -1.2657
  472MOL0     H63705   5.769   1.296   2.036  1.9568 -2.3570 -2.2145
  472MOL0     H63706   4.627   0.280   1.325  0.3837 -0.5867 -0.4195
  472MOL0     H63707   4.392   0.231   1.265 -2.0322 -1.3584  1.0372
  472MOL0     H63708   4.119  -0.064   1.101  0.0174 -0.9258 -1.5931
  472MOL0     H63709   3.888  -0.132   0.993  3.9588  1.1374 -1.4224
  472MOL0     H63710   3.515  -0.005   1.213 -0.3122 -0.3048 -0.7712
  472MOL0     H63711   3.567   0.133   1.112 -0.5526  1.0268  1.1303
  472MOL0     H63712   3.331  -0.002   1.082  1.0161 -2.2081  1.1279
  472MOL0     H63713   3.421  -0.099   0.982  1.1748  1.0133 -4.1501
  472MOL0     H63714   3.488   0.073   0.824 -0.3125  1.4846  0.7380
  472MOL0     H63715   3.414   0.193   0.919  0.1678 -0.3169 -0.1674
  472MOL0     H63716   3.263   0.120   0.730  0.0295 -0.2347  0.2830
  472MOL0     H63717   3.189   0.064   0.881  0.0313 -0.4979  0.3867
  472MOL0     H63718   3.298  -0.286   0.645 -0.1696 -1.6848  2.7025
  472MOL0     H63719   3.698   0.104   1.295  1.2915  1.1401  1.1900
  472MOL0     H63720   3.925   0.159   1.402 -1.1292  0.9311  0.2768
  473MOL0     O63721  10.820   4.547   3.710  0.0968 -0.1378 -0.1741
  473MOL0     C63722  10.782   4.617   3.617  0.0754  0.1902 -0.0516
  473MOL0     O63723  10.849   4.720   3.564  0.5981 -0.0955 -0.1532
  473MOL0     C63724  10.958   4.780   3.630  0.0680  0.8108  0.3479
  473MOL0     C63725  10.959   4.792   3.763 -0.5018 -0.7095  0.1553
  473MOL0     C63726  11.076   4.856   3.815  0.6763  0.4871 -0.2845
  473MOL0     C63727  11.194   4.877   3.749  0.7447 -0.5451 -0.4601
  473MOL0     O63728  11.299   4.923   3.832  0.0968  0.2423  0.0507
  473MOL0     C63729  11.418   4.970   3.768 -0.2928  0.3870  0.5172
  473MOL0     C63730  11.505   5.042   3.865 -0.4080 -0.0915  0.2840
  473MOL0     C63731  11.638   5.086   3.790  0.5357 -0.5294  0.3825
  473MOL0     C63732  11.602   5.210   3.699  0.0004  0.1883  0.8546
  473MOL0     C63733  11.715   5.253   3.606  0.8455  0.4748 -0.4643
  473MOL0     C63734  11.747   5.150   3.502  0.5838  1.0388 -0.3355
  473MOL0     C63735  11.873   5.172   3.428 -0.4636  0.5796 -0.0971
  473MOL0     C63736  11.998   5.159   3.516 -0.0326  0.5323 -0.1844
  473MOL0     N63737  12.040   5.024   3.534  0.5141 -0.3031  0.4615
  473MOL0     C63738  11.979   4.925   3.606  1.3740  0.1577 -0.4136
  473MOL0     C63739  12.064   4.822   3.609 -0.1144  0.4588 -0.0018
  473MOL0     C63740  12.041   4.697   3.684 -0.7102 -0.1003  0.1586
  473MOL0     C63741  12.090   4.571   3.609  0.0227 -0.0314 -0.6069
  473MOL0     C63742  12.003   4.533   3.492 -0.5870  0.4628  0.2922
  473MOL0     C63743  12.020   4.386   3.445  0.2381 -0.0204 -0.2084
  473MOL0     O63744  11.968   4.367   3.307  0.0593  0.0152  0.1398
  473MOL0     C63745  11.830   4.349   3.301  0.5805 -0.5697 -0.3986
  473MOL0     C63746  11.745   4.443   3.229 -0.5961 -0.7602 -0.0786
  473MOL0     C63747  11.604   4.430   3.233 -0.6010 -1.8224 -0.4803
  473MOL0     C63748  11.534   4.537   3.153  0.0446 -0.4344  1.2886
  473MOL0     C63749  11.555   4.318   3.297  0.6667  0.1543  0.6610
  473MOL0     C63750  11.415   4.279   3.303 -0.0255  0.9600 -0.2420
  473MOL0     O63751  11.371   4.218   3.420 -0.0697 -0.7207  0.2119
  473MOL0     C63752  11.239   4.178   3.424  0.5624 -0.0962 -0.8347
  473MOL0     C63753  11.136   4.258   3.482 -0.5506 -0.1790 -0.6100
  473MOL0     C63754  11.001   4.212   3.500 -0.6035  0.0843 -0.0974
  473MOL0     C63755  10.965   4.090   3.455  0.4899 -0.6707  0.1240
  473MOL0     O63756  10.834   4.043   3.477 -0.4685 -0.1185  0.4889
  473MOL0     C63757  10.806   3.905   3.445 -0.0558 -0.1839  1.0647
  473MOL0     C63758  10.685   3.854   3.509 -0.2482  0.4058  0.7206
  473MOL0     C63759  10.559   3.913   3.445 -0.1777 -1.3370 -0.2351
  473MOL0     C63760  10.428   3.854   3.492 -0.1923 -0.5961 -0.1001
  473MOL0     C63761  10.314   3.950   3.504  0.4854 -0.0421  0.2242
  473MOL0     C63762  10.236   3.971   3.375 -1.0467  0.0008 -0.9358
  473MOL0     C63763  10.301   4.060   3.266 -0.5119  0.0022 -0.9623
  473MOL0     C63764  10.217   4.056   3.141  1.0254  0.5968 -0.2377
  473MOL0    Cl63765  10.247   4.190   3.033  0.2073 -0.1910  0.7164
  473MOL0     C63766  11.067   4.018   3.390 -0.6121  0.9371 -0.1908
  473MOL0     C63767  11.198   4.056   3.378  0.4929  1.0444  0.0975
  473MOL0     O63768  11.356   4.283   3.193  0.1089 -0.8189 -0.2615
  473MOL0     C63769  11.642   4.240   3.381 -0.2219  0.3470  0.5584
  473MOL0     C63770  11.775   4.252   3.389 -1.0686  1.1256  0.1617
  473MOL0     N63771  12.172   4.858   3.524  0.2526  0.2367 -0.6057
  473MOL0     N63772  12.145   4.974   3.475 -0.5009 -0.9663 -0.4319
  473MOL0     C63773  11.197   4.844   3.610 -0.5655 -0.4628  0.0466
  473MOL0     C63774  11.072   4.806   3.554 -0.5215  0.2280 -0.2268
  473MOL0     C63775  10.653   4.568   3.547 -0.0819 -0.0089 -0.3886
  473MOL0     C63776  10.594   4.444   3.587 -0.5107 -0.4996 -0.3316
  473MOL0     C63777  10.465   4.410   3.544 -0.2507 -0.5812 -0.1500
  473MOL0     C63778  10.394   4.496   3.458  0.5784 -0.2279  0.2658
  473MOL0     O63779  10.271   4.464   3.408  0.9322 -0.1642 -0.9711
  473MOL0     C63780  10.185   4.404   3.508 -0.5490 -0.0188  0.4968
  473MOL0     C63781  10.046   4.351   3.454 -0.0257 -0.1383 -0.1188
  473MOL0     C63782   9.960   4.328   3.575  0.4186  0.6535 -0.0546
  473MOL0     C63783   9.814   4.277   3.542  0.9467  0.3509  0.0564
  473MOL0     C63784   9.738   4.368   3.451  0.4810  1.1967 -0.5161
  473MOL0     C63785   9.676   4.444   3.384 -0.8042  0.2656 -0.7020
  473MOL0     C63786  10.463   4.610   3.407  0.3106  0.2880 -0.1146
  473MOL0     C63787  10.585   4.657   3.460  0.6887  0.1149  0.3199
  473MOL0     H63788  10.882   4.756   3.831 -0.1539 -1.2247  0.2837
  473MOL0     H63789  11.076   4.879   3.921  0.4195 -0.4071 -0.0778
  473MOL0     H63790  11.467   4.882   3.727 -0.9963  0.2009  0.0612
  473MOL0     H63791  11.388   5.037   3.687 -3.5734 -2.0150 -0.4623
  473MOL0     H63792  11.456   5.133   3.901 -1.9768  0.2147 -2.4192
  473MOL0     H63793  11.532   4.982   3.952 -2.2306  0.3806  1.2252
  473MOL0     H63794  11.707   5.112   3.871 -0.5621 -1.5857  1.6984
  473MOL0     H63795  11.679   5.004   3.731  0.1576 -0.0101 -0.6473
  473MOL0     H63796  11.509   5.193   3.644 -0.6697 -3.1854  2.7813
  473MOL0     H63797  11.580   5.297   3.761 -1.6600 -0.3897  1.1287
  473MOL0     H63798  11.680   5.344   3.557 -0.3635 -0.5928 -1.6892
  473MOL0     H63799  11.799   5.270   3.674 -0.4200  1.0500  1.0007
  473MOL0     H63800  11.744   5.045   3.535  2.5829  0.8539 -0.6088
  473MOL0     H63801  11.669   5.162   3.426  0.1382 -1.7004 -0.4342
  473MOL0     H63802  11.875   5.088   3.358  1.3892 -0.7625  1.4593
  473MOL0     H63803  11.872   5.265   3.372  0.0844  0.3869 -0.4332
  473MOL0     H63804  11.991   5.213   3.611  1.2700 -0.9936  0.8245
  473MOL0     H63805  12.072   5.214   3.457  0.2564  1.1721  0.7546
  473MOL0     H63806  11.881   4.931   3.653  0.9813 -0.5943 -1.0989
  473MOL0     H63807  12.095   4.697   3.779 -0.0540 -0.7420 -0.2037
  473MOL0     H63808  11.935   4.698   3.707 -1.5537 -1.4131 -3.1147
  473MOL0     H63809  12.083   4.492   3.685  0.0766 -3.2485 -3.7180
  473MOL0     H63810  12.198   4.579   3.596  0.2858  1.4381  1.8003
  473MOL0     H63811  12.033   4.603   3.413  3.3815 -1.1624  0.1159
  473MOL0     H63812  11.897   4.544   3.514 -2.0079 -2.6412 -3.6101
  473MOL0     H63813  11.981   4.329   3.530  0.1469  1.1562  0.5714
  473MOL0     H63814  12.125   4.358   3.435  0.7513  2.3689 -3.0652
  473MOL0     H63815  11.798   4.527   3.185  0.7610 -1.5976 -0.0921
  473MOL0     H63816  11.456   4.590   3.209  0.7593  3.6183 -1.1125
  473MOL0     H63817  11.598   4.614   3.110  0.1356 -1.1030  0.2069
  473MOL0     H63818  11.476   4.488   3.074  2.7430  1.1460 -1.8928
  473MOL0     H63819  11.171   4.356   3.512  1.9327 -0.5917 -1.8426
  473MOL0     H63820  10.930   4.268   3.561 -3.1564 -3.2456  0.2914
  473MOL0     H63821  10.786   3.908   3.337  0.9724 -3.8598  0.6370
  473MOL0     H63822  10.879   3.826   3.464 -1.3975 -1.4652  1.0890
  473MOL0     H63823  10.680   3.746   3.493  2.3772  0.5444 -1.9238
  473MOL0     H63824  10.685   3.886   3.614 -3.4480  2.7334  0.1759
  473MOL0     H63825  10.565   3.909   3.336 -0.7264 -0.7981 -0.2918
  473MOL0     H63826  10.549   4.017   3.476 -3.1316 -2.0966  1.8700
  473MOL0     H63827  10.407   3.786   3.409 -1.9959 -1.0939  0.7052
  473MOL0     H63828  10.445   3.789   3.578  0.5265 -0.5229 -0.1853
  473MOL0     H63829  10.361   4.044   3.534  1.2697  0.0187 -1.1372
  473MOL0     H63830  10.246   3.917   3.584  0.5357 -0.7344 -0.0105
  473MOL0     H63831  10.211   3.876   3.328 -1.6210  0.9863 -2.7015
  473MOL0     H63832  10.142   4.014   3.411 -0.0528 -0.1013  2.1053
  473MOL0     H63833  10.403   4.027   3.245 -0.3954 -0.9666  0.8724
  473MOL0     H63834  10.308   4.157   3.316  2.2087 -0.2567 -0.7060
  473MOL0     H63835  10.116   4.045   3.180  1.9029 -1.1330  1.6898
  473MOL0     H63836  10.234   3.965   3.081 -0.9516  0.1350 -0.1563
  473MOL0     H63837  11.043   3.920   3.351  0.4182  0.8879 -0.7214
  473MOL0     H63838  11.270   3.992   3.327 -1.5577 -2.5331  1.3730
  473MOL0     H63839  11.596   4.161   3.439 -1.2337  0.5778  0.0977
  473MOL0     H63840  11.838   4.175   3.432  1.7021  2.3740 -1.3516
  473MOL0     H63841  11.288   4.862   3.554  0.6277 -1.0904  1.7148
  473MOL0     H63842  11.073   4.782   3.448 -0.3030  1.9219 -0.6398
  473MOL0     H63843  10.654   4.378   3.649  1.9420  1.1175 -0.8192
  473MOL0     H63844  10.423   4.323   3.593  3.9088 -2.0180  1.3549
  473MOL0     H63845  10.232   4.319   3.558  0.5759  1.9006  2.9011
  473MOL0     H63846  10.170   4.475   3.590 -1.2847  0.9527 -0.4525
  473MOL0     H63847  10.057   4.265   3.387 -2.6167  0.4652 -1.4275
  473MOL0     H63848  10.006   4.438   3.401 -1.5077 -0.8629 -0.2350
  473MOL0     H63849   9.948   4.415   3.640  0.7191 -0.9894  2.3503
  473MOL0     H63850  10.009   4.249   3.634  0.9047  2.6006  2.3451
  473MOL0     H63851   9.760   4.275   3.637  1.9119 -2.4799  0.6394
  473MOL0     H63852   9.819   4.176   3.502  3.0070  0.8270 -1.0673
  473MOL0     H63853   9.613   4.515   3.336 -0.3112  2.0074  1.0885
  473MOL0     H63854  10.405   4.662   3.331 -0.9194  0.2722  0.7926
  473MOL0     H63855  10.629   4.753   3.434  0.3289 -0.0273 -0.9053
  474MOL0     O63856   6.486   1.804   9.945 -0.2964 -0.0803  0.2888
  474MOL0     C63857   6.500   1.921   9.904  0.3880 -0.5582 -0.3057
  474MOL0     O63858   6.393   2.011   9.896  0.5841  0.3951 -0.6856
  474MOL0     C63859   6.270   1.976   9.951  0.3235 -0.4352 -0.0112
  474MOL0     C63860   6.156   2.018   9.873  0.2826  0.3022 -0.1550
  474MOL0     C63861   6.025   1.970   9.901 -0.3058 -0.4197 -0.0218
  474MOL0     C63862   6.006   1.893  10.016  0.4812 -0.8908  1.2809
  474MOL0     O63863   5.878   1.860  10.045 -0.0270 -0.1878 -0.0348
  474MOL0     C63864   5.855   1.745  10.131 -0.1111 -0.9349 -0.0799
  474MOL0     C63865   5.705   1.716  10.165  0.3585 -0.9599  0.6736
  474MOL0     C63866   5.673   1.562  10.184  0.5081  0.0087  0.5826
  474MOL0     C63867   5.529   1.549  10.242  0.0033  0.0043  0.9527
  474MOL0     C63868   5.505   1.413  10.306 -0.5908 -0.6005  1.1683
  474MOL0     C63869   5.394   1.340  10.220  0.6937  0.3520 -0.4547
  474MOL0     C63870   5.327   1.221  10.287  0.4738  0.0268 -0.6331
  474MOL0     C63871   5.412   1.086  10.267  0.4178 -0.4435 -0.6410
  474MOL0     N63872   5.395   1.024  10.134 -0.5182  1.4427  0.4911
  474MOL0     C63873   5.464   0.920  10.089 -0.2654  0.0430 -0.0130
  474MOL0     C63874   5.411   0.891   9.963 -0.0392 -0.0118  0.0631
  474MOL0     C63875   5.440   0.766   9.886  0.2850 -0.2390  0.8606
  474MOL0     C63876   5.567   0.690   9.932 -0.8865 -0.8685  0.2082
  474MOL0     C63877   5.611   0.572   9.834  0.5554 -0.1222 -0.1243
  474MOL0     C63878   5.743   0.502   9.864 -0.8922 -0.3820 -0.6961
  474MOL0     O63879   5.757   0.394   9.771  0.7603  0.1940  0.9746
  474MOL0     C63880   5.853   0.304   9.805  0.7676  0.1419  0.1107
  474MOL0     C63881   5.819   0.171   9.772 -0.4298 -0.9082  1.0601
  474MOL0     C63882   5.915   0.072   9.804 -0.2338 -0.6355 -0.9870
  474MOL0     C63883   5.901  -0.061   9.741 -0.1797 -0.2496  0.0106
  474MOL0     C63884   6.029   0.105   9.876 -0.4482  0.6428 -0.1528
  474MOL0     C63885   6.127  -0.003   9.931  0.0329 -0.3501  0.8698
  474MOL0     O63886   6.254   0.040   9.952 -0.7607 -1.3600 -0.2473
  474MOL0     C63887   6.322   0.021  10.074  0.4135  0.3044  0.6618
  474MOL0     C63888   6.461   0.021  10.073  0.8541 -0.0588 -0.1202
  474MOL0     C63889   6.533  -0.011  10.192  0.7172 -0.8102  0.3391
  474MOL0     C63890   6.457  -0.035  10.309  0.0414  0.0304 -0.4957
  474MOL0     O63891   6.527  -0.047  10.427 -0.7344  0.9596 -0.2087
  474MOL0     C63892   6.504   0.052  10.529  0.3662  0.2871 -0.1321
  474MOL0     C63893   6.608   0.046  10.639  0.0125  0.0698  0.2464
  474MOL0     C63894   6.738   0.103  10.599 -0.0915  0.1297  0.1456
  474MOL0     C63895   6.831   0.003  10.514 -0.6577  0.4844 -0.0700
  474MOL0     C63896   6.872  -0.114  10.596  0.4918 -0.1407 -0.1370
  474MOL0     C63897   7.023  -0.113  10.621  0.2784  0.9008 -0.0621
  474MOL0     C63898   7.066   0.013  10.700 -1.1893 -0.4610 -0.3242
  474MOL0     C63899   7.207   0.001  10.745 -1.2231  0.0025 -0.3062
  474MOL0    Cl63900   7.307  -0.004  10.607  0.0367 -0.1042  0.4772
  474MOL0     C63901   6.324  -0.051  10.302 -0.0912  0.4257 -0.0677
  474MOL0     C63902   6.254  -0.031  10.187 -0.3287 -0.5402  0.3064
  474MOL0     O63903   6.081  -0.108   9.960  0.3220  0.1042 -0.3058
  474MOL0     C63904   6.052   0.233   9.914  0.7786 -0.2863  1.1369
  474MOL0     C63905   5.966   0.338   9.878  0.3536  0.5159 -0.2860
  474MOL0     N63906   5.330   0.989   9.926 -0.0669 -0.0047  0.4557
  474MOL0     N63907   5.318   1.068  10.031 -0.0559 -0.5622  0.4242
  474MOL0     C63908   6.113   1.860  10.101  0.1654  1.2191 -0.6753
  474MOL0     C63909   6.244   1.897  10.062 -0.4520 -0.1272  0.5883
  474MOL0     C63910   6.636   1.957   9.852 -0.4475 -0.0976 -0.0140
  474MOL0     C63911   6.726   1.853   9.825 -0.5139  0.4311 -0.7295
  474MOL0     C63912   6.857   1.878   9.778 -0.1329 -0.1547  0.5492
  474MOL0     C63913   6.893   2.007   9.730  0.5961  0.4613  0.0480
  474MOL0     O63914   7.000   2.038   9.652  0.3391  0.3314  0.3690
  474MOL0     C63915   7.109   1.948   9.644  0.0405 -0.1299 -0.7722
  474MOL0     C63916   7.213   1.994   9.554  0.2776 -0.4373  0.6358
  474MOL0     C63917   7.158   2.037   9.415 -0.6374 -1.1168  0.4788
  474MOL0     C63918   7.272   2.083   9.323  0.4353 -0.7038  0.4458
  474MOL0     C63919   7.229   2.179   9.214 -0.3659  0.3503 -0.0405
  474MOL0     C63920   7.179   2.256   9.139  0.8874  0.4385 -0.1697
  474MOL0     C63921   6.798   2.104   9.743 -0.0989  0.4091 -0.5360
  474MOL0     C63922   6.674   2.083   9.811 -0.1906 -0.3120  1.0262
  474MOL0     H63923   6.171   2.080   9.785  1.6896 -0.2268 -0.3152
  474MOL0     H63924   5.942   1.999   9.837 -1.5056  0.6854  1.9130
  474MOL0     H63925   5.919   1.661  10.102  2.5832  0.3003  1.8516
  474MOL0     H63926   5.897   1.763  10.230  0.4543 -2.0133 -0.1137
  474MOL0     H63927   5.686   1.753  10.266  0.9961 -0.8974  0.7720
  474MOL0     H63928   5.637   1.760  10.092  0.3742 -1.1225  0.5594
  474MOL0     H63929   5.687   1.501  10.094 -0.4237 -1.0218  1.1175
  474MOL0     H63930   5.743   1.522  10.258  1.5163 -1.4133 -1.0511
  474MOL0     H63931   5.519   1.623  10.322 -1.0999 -0.9468  1.7241
  474MOL0     H63932   5.453   1.581  10.170  0.3604  0.9706  0.9910
  474MOL0     H63933   5.596   1.353  10.314 -1.4561 -2.2666 -0.6638
  474MOL0     H63934   5.469   1.442  10.405  1.3565  0.1849  1.7004
  474MOL0     H63935   5.307   1.405  10.202  1.1213  2.2843  3.3808
  474MOL0     H63936   5.452   1.310  10.133  3.0088  0.5857  0.9127
  474MOL0     H63937   5.334   1.239  10.394 -1.0785  1.1513 -0.6839
  474MOL0     H63938   5.220   1.215  10.265  0.3895  1.5723 -0.7088
  474MOL0     H63939   5.383   1.014  10.345 -5.3643  1.4773 -0.6071
  474MOL0     H63940   5.519   1.110  10.275  0.6497 -1.5658 -0.1046
  474MOL0     H63941   5.521   0.854  10.152 -4.2657 -2.8435  0.9917
  474MOL0     H63942   5.354   0.698   9.894  0.0735 -0.8089 -3.6580
  474MOL0     H63943   5.441   0.792   9.780  1.7040  0.3054  0.9941
  474MOL0     H63944   5.534   0.642  10.024  2.3201 -3.3654  0.2464
  474MOL0     H63945   5.654   0.755   9.946 -1.7708  0.5598 -0.6946
  474MOL0     H63946   5.612   0.600   9.728 -1.7579  2.5197  0.4609
  474MOL0     H63947   5.537   0.492   9.848 -0.1181  0.5548  0.2253
  474MOL0     H63948   5.746   0.461   9.965 -2.3344 -0.8599 -0.8306
  474MOL0     H63949   5.819   0.578   9.846  0.9140 -2.0305 -0.3660
  474MOL0     H63950   5.738   0.157   9.701  0.7430  2.2374 -1.0785
  474MOL0     H63951   6.000  -0.093   9.708  0.5511  0.0594  1.7887
  474MOL0     H63952   5.870  -0.146   9.802 -0.2807 -0.3965 -0.2435
  474MOL0     H63953   5.840  -0.046   9.651  3.2000 -4.0090 -3.2367
  474MOL0     H63954   6.526   0.032   9.986  0.5862 -1.9383 -0.6067
  474MOL0     H63955   6.640   0.005  10.189  0.2864  3.0447 -2.0862
  474MOL0     H63956   6.494   0.152  10.485 -3.5382 -1.2919 -3.5629
  474MOL0     H63957   6.407   0.025  10.574 -0.1223  0.1814 -1.2198
  474MOL0     H63958   6.565   0.104  10.720  1.1636  0.2194  0.7704
  474MOL0     H63959   6.607  -0.059  10.671 -2.6126 -0.3771 -1.0280
  474MOL0     H63960   6.786   0.130  10.693 -0.7660  0.6158  0.3530
  474MOL0     H63961   6.733   0.190  10.532  2.4658 -0.3588 -0.7782
  474MOL0     H63962   6.778  -0.038  10.428  1.7978  0.2038 -1.5649
  474MOL0     H63963   6.917   0.045  10.461 -1.9577 -0.1274 -2.8655
  474MOL0     H63964   6.856  -0.204  10.536  2.5445  1.0996 -2.7635
  474MOL0     H63965   6.813  -0.113  10.689  0.8163  0.0157  0.0685
  474MOL0     H63966   7.055  -0.201  10.678 -1.5472  0.6430  0.6085
  474MOL0     H63967   7.061  -0.136  10.520 -3.2097 -0.3012 -1.2515
  474MOL0     H63968   7.005   0.021  10.790  0.1629  0.5970  0.5236
  474MOL0     H63969   7.052   0.097  10.631 -4.8922 -1.6458 -1.2989
  474MOL0     H63970   7.216  -0.088  10.808  0.7513  0.5326  0.2366
  474MOL0     H63971   7.231   0.090  10.804 -1.8564  1.1060 -1.6773
  474MOL0     H63972   6.264  -0.069  10.391 -3.6160  1.2061 -2.0906
  474MOL0     H63973   6.146  -0.036  10.181 -0.4450  1.6313 -0.0828
  474MOL0     H63974   6.141   0.239   9.977  1.8858 -0.8162 -0.3221
  474MOL0     H63975   5.995   0.436   9.916 -2.1494  1.1414  0.1861
  474MOL0     H63976   6.103   1.803  10.193 -1.2149  1.2417 -0.8016
  474MOL0     H63977   6.327   1.851  10.114  1.6128 -0.1230 -2.4464
  474MOL0     H63978   6.692   1.751   9.843  0.0597  0.4254  0.4273
  474MOL0     H63979   6.917   1.789   9.759  0.3351  0.7580 -3.0427
  474MOL0     H63980   7.148   1.928   9.745 -0.8828 -1.6780 -0.6980
  474MOL0     H63981   7.060   1.865   9.594 -0.2168  0.5359 -1.6611
  474MOL0     H63982   7.285   1.913   9.533  0.9264  0.4323 -0.6176
  474MOL0     H63983   7.271   2.070   9.608  1.8360 -0.7175 -0.5539
  474MOL0     H63984   7.092   2.123   9.430  3.6672  2.6851 -0.1446
  474MOL0     H63985   7.113   1.951   9.364 -0.7220  0.0562 -1.5454
  474MOL0     H63986   7.330   1.997   9.287  2.4020 -0.6500  3.1801
  474MOL0     H63987   7.343   2.127   9.393  0.9017  0.0914 -0.5079
  474MOL0     H63988   7.125   2.317   9.069 -0.4482 -1.6508 -1.0278
  474MOL0     H63989   6.813   2.206   9.708 -2.6059  1.0244 -0.0018
  474MOL0     H63990   6.624   2.178   9.827  1.2248  0.2632  2.1670
  475MOL0     O63991   7.685  11.024   3.851 -0.1100 -0.0684  0.7889
  475MOL0     C63992   7.692  11.137   3.887  0.1448 -0.1281  0.1553
  475MOL0     O63993   7.606  11.236   3.857  0.7786  0.2084  0.8246
  475MOL0     C63994   7.493  11.216   3.774 -0.6046  0.5861  0.4828
  475MOL0     C63995   7.410  11.099   3.764 -0.7258  0.8574  0.4047
  475MOL0     C63996   7.304  11.102   3.682 -0.2527  0.4172  0.4300
  475MOL0     C63997   7.261  11.207   3.603 -0.5408  0.5578 -0.7564
  475MOL0     O63998   7.152  11.213   3.519  0.0419  0.2780 -0.1082
  475MOL0     C63999   7.072  11.086   3.496 -0.3986  0.4248 -0.0252
  475MOL0     C64000   6.970  11.048   3.603 -0.6171  0.0783 -0.3443
  475MOL0     C64001   6.898  10.925   3.558  0.5537 -0.2057 -0.3883
  475MOL0     C64002   6.871  10.842   3.678 -0.4978  0.1976  0.6811
  475MOL0     C64003   6.785  10.718   3.643 -0.0296  0.7656  0.0856
  475MOL0     C64004   6.760  10.621   3.763 -0.4356 -0.3549 -0.1049
  475MOL0     C64005   6.669  10.508   3.707 -0.1422 -1.0562 -0.1024
  475MOL0     C64006   6.525  10.554   3.686 -0.1722  0.2186 -0.2240
  475MOL0     N64007   6.441  10.436   3.692 -1.0268  0.2808 -0.2267
  475MOL0     C64008   6.463  10.315   3.622  1.1837 -0.3248  0.0135
  475MOL0     C64009   6.352  10.253   3.647  0.5802  0.0572 -0.3616
  475MOL0     C64010   6.326  10.113   3.590 -0.1519  0.1111  0.5692
  475MOL0     C64011   6.456  10.035   3.586 -0.4618  0.7419  0.3999
  475MOL0     C64012   6.509  10.022   3.444 -0.6428 -0.2933 -0.4474
  475MOL0     C64013   6.647   9.967   3.445 -0.2298  0.5526  0.5967
  475MOL0     O64014   6.735  10.041   3.529  0.0342  0.0642 -0.4697
  475MOL0     C64015   6.790  10.160   3.495  0.4354  0.8339 -0.2482
  475MOL0     C64016   6.782  10.221   3.376  0.1617 -0.5054  0.8127
  475MOL0     C64017   6.849  10.331   3.333 -0.0086  0.5541  0.9232
  475MOL0     C64018   6.808  10.384   3.201  0.0066  0.1758 -0.4341
  475MOL0     C64019   6.940  10.386   3.419 -0.3078 -0.3013 -0.0648
  475MOL0     C64020   7.025  10.502   3.377  0.1420 -0.2222 -0.0271
  475MOL0     O64021   7.067  10.509   3.248 -0.2660  0.4264  0.1720
  475MOL0     C64022   7.132  10.614   3.195 -0.9507 -0.4881  0.9204
  475MOL0     C64023   7.162  10.746   3.250 -0.7078  0.8250  0.1941
  475MOL0     C64024   7.228  10.842   3.177 -0.3263 -0.6675  0.1263
  475MOL0     C64025   7.265  10.824   3.046  0.0764  1.0374  0.2446
  475MOL0     O64026   7.304  10.927   2.970 -0.7868 -0.6363  0.3227
  475MOL0     C64027   7.242  11.059   2.976  0.5130  0.2558  0.3445
  475MOL0     C64028   7.279  11.129   2.847 -0.1433 -1.0650  0.7099
  475MOL0     C64029   7.293  11.049   2.712  0.7282  0.2060 -0.0552
  475MOL0     C64030   7.153  10.991   2.678  0.3021 -0.5915 -0.5100
  475MOL0     C64031   7.152  10.929   2.545  0.1506 -0.2821 -0.3043
  475MOL0     C64032   7.216  10.789   2.536 -0.9297 -0.0657 -0.5536
  475MOL0     C64033   7.220  10.737   2.392  0.3242 -0.7009  0.6885
  475MOL0     C64034   7.336  10.628   2.379 -0.6421  0.9968  0.0334
  475MOL0    Cl64035   7.357  10.551   2.215  0.4226 -0.5147  0.0186
  475MOL0     C64036   7.245  10.697   2.991  0.2539  0.1258 -0.9540
  475MOL0     C64037   7.186  10.596   3.066  0.3354 -0.2718  0.2104
  475MOL0     O64038   7.075  10.576   3.473  0.6468  0.5569  0.1706
  475MOL0     C64039   6.943  10.338   3.557 -0.1915  0.3457  0.4488
  475MOL0     C64040   6.869  10.225   3.589  0.2473  1.2807  0.1959
  475MOL0     N64041   6.264  10.325   3.719  0.2984 -0.1708  0.1323
  475MOL0     N64042   6.320  10.436   3.734  0.4159 -0.1795 -0.7029
  475MOL0     C64043   7.345  11.318   3.605 -0.5770  0.2979 -0.5310
  475MOL0     C64044   7.458  11.324   3.695 -0.6835  0.0940  0.8192
  475MOL0     C64045   7.820  11.198   3.946  0.0247  0.3382 -0.9366
  475MOL0     C64046   7.825  11.340   3.984  0.0248 -0.4190  0.0531
  475MOL0     C64047   7.944  11.402   4.022  0.3968 -0.3345  0.0874
  475MOL0     C64048   8.066  11.334   4.014  0.1362  0.6050  0.4833
  475MOL0     O64049   8.174  11.417   4.025 -1.0818  0.1078 -0.1901
  475MOL0     C64050   8.238  11.396   4.156 -0.2609  0.3798  0.4463
  475MOL0     C64051   8.169  11.462   4.273  0.0613  0.2643 -0.7572
  475MOL0     C64052   8.204  11.615   4.288 -0.1601  0.7597 -0.6065
  475MOL0     C64053   8.124  11.691   4.398 -0.0282 -0.0518 -0.4137
  475MOL0     C64054   8.156  11.642   4.535 -0.5087  0.3560  0.7226
  475MOL0     C64055   8.191  11.601   4.637  0.3862  0.3592 -0.8081
  475MOL0     C64056   8.073  11.194   3.990 -0.2563 -0.0818  0.0045
  475MOL0     C64057   7.946  11.126   3.958 -0.5091  0.6115 -0.6717
  475MOL0     H64058   7.446  11.003   3.802  3.2047  1.5626 -1.0890
  475MOL0     H64059   7.257  11.004   3.681  0.2255  0.1871  0.4452
  475MOL0     H64060   7.030  11.077   3.396  0.5774  2.1781 -0.6325
  475MOL0     H64061   7.146  11.006   3.493 -0.1788  0.6676 -1.5145
  475MOL0     H64062   7.025  11.024   3.694 -2.3113  0.8659  0.9587
  475MOL0     H64063   6.893  11.123   3.626  0.6908  1.0971  0.8281
  475MOL0     H64064   6.805  10.965   3.515  0.4384 -0.8821 -0.7967
  475MOL0     H64065   6.948  10.863   3.483  0.6819 -1.9291  1.0549
  475MOL0     H64066   6.963  10.812   3.729 -0.0566  2.6207  1.4326
  475MOL0     H64067   6.808  10.905   3.741 -1.0620  0.5343 -0.1981
  475MOL0     H64068   6.690  10.762   3.609  0.0565 -0.4321 -1.8125
  475MOL0     H64069   6.831  10.659   3.564 -0.6497 -1.8974  1.5675
  475MOL0     H64070   6.854  10.579   3.797  0.0899  0.9279  0.1028
  475MOL0     H64071   6.716  10.681   3.844 -1.3736 -2.1355  0.7615
  475MOL0     H64072   6.702  10.475   3.608  0.7738 -0.1165 -0.1218
  475MOL0     H64073   6.665  10.432   3.786  0.0268 -0.2150  0.7264
  475MOL0     H64074   6.503  10.604   3.591 -1.0647  1.4803  0.6143
  475MOL0     H64075   6.481  10.617   3.764 -2.5239 -2.6965  1.0229
  475MOL0     H64076   6.551  10.282   3.567 -1.1919 -4.1128 -1.9427
  475MOL0     H64077   6.251  10.070   3.658 -0.3833  0.1543  0.3434
  475MOL0     H64078   6.282  10.126   3.490 -0.0383 -0.6066  0.4213
  475MOL0     H64079   6.418   9.935   3.612 -1.9643  1.1690 -0.0272
  475MOL0     H64080   6.531  10.059   3.661  1.7148 -3.6217 -0.0473
  475MOL0     H64081   6.516  10.121   3.397  0.7439  0.1451  0.6229
  475MOL0     H64082   6.441   9.970   3.376 -0.0121 -0.9202 -0.6110
  475MOL0     H64083   6.691   9.940   3.349  1.8812 -0.6628  1.8279
  475MOL0     H64084   6.647   9.868   3.492 -1.1253 -0.7628 -2.0089
  475MOL0     H64085   6.719  10.177   3.300  0.0216 -2.7363  2.1442
  475MOL0     H64086   6.704  10.369   3.172 -0.0394  0.0227 -0.1913
  475MOL0     H64087   6.821  10.492   3.199  1.2161  0.0412 -0.8502
  475MOL0     H64088   6.871  10.328   3.131 -0.9882 -1.0054 -0.4253
  475MOL0     H64089   7.134  10.784   3.348 -0.4524  1.7201 -0.0739
  475MOL0     H64090   7.229  10.938   3.228  0.5150  1.0428 -2.8673
  475MOL0     H64091   7.134  11.047   2.979  0.5577 -0.3157 -0.1287
  475MOL0     H64092   7.267  11.120   3.064 -2.0567  0.2675  1.1332
  475MOL0     H64093   7.199  11.202   2.832 -0.8605 -2.2183 -1.5431
  475MOL0     H64094   7.376  11.176   2.860 -0.7497  0.3721  0.2062
  475MOL0     H64095   7.364  10.966   2.719  0.3411 -0.0489  1.0312
  475MOL0     H64096   7.322  11.123   2.636 -2.6214 -0.3544 -2.0856
  475MOL0     H64097   7.126  10.920   2.757  0.3621 -0.1066 -0.0552
  475MOL0     H64098   7.082  11.073   2.668  0.7482  0.0480  1.3120
  475MOL0     H64099   7.209  10.992   2.476  0.5037 -2.9420 -2.6061
  475MOL0     H64100   7.050  10.924   2.507  0.0677 -0.6805 -0.0291
  475MOL0     H64101   7.319  10.813   2.563 -0.9350  1.0014 -1.3977
  475MOL0     H64102   7.172  10.714   2.603 -3.8457 -0.2766 -2.5305
  475MOL0     H64103   7.258  10.815   2.325  1.3751 -0.0459  2.0000
  475MOL0     H64104   7.127  10.688   2.361  0.9856 -1.9746  0.6480
  475MOL0     H64105   7.320  10.560   2.463  1.3887 -0.3095 -0.5637
  475MOL0     H64106   7.434  10.672   2.398  0.6005 -0.8722 -1.6145
  475MOL0     H64107   7.282  10.674   2.891  0.4900  2.3573 -1.4323
  475MOL0     H64108   7.174  10.496   3.024 -0.2404  1.0139 -2.9281
  475MOL0     H64109   7.011  10.382   3.630 -0.5027  0.1818  0.8458
  475MOL0     H64110   6.880  10.168   3.681  1.5601  2.0549  0.5433
  475MOL0     H64111   7.298  11.402   3.553 -3.3820 -1.2450 -0.6944
  475MOL0     H64112   7.520  11.412   3.710  0.3439 -0.1605 -1.4740
  475MOL0     H64113   7.733  11.397   3.975  0.6397  0.4725 -0.8293
  475MOL0     H64114   7.931  11.508   4.042  2.3808  0.1631 -0.9429
  475MOL0     H64115   8.235  11.288   4.173 -1.2035  0.2759 -0.3013
  475MOL0     H64116   8.339  11.437   4.148 -0.5481  0.9575 -0.4250
  475MOL0     H64117   8.211  11.407   4.357 -1.5449  2.7075  1.7961
  475MOL0     H64118   8.062  11.442   4.262 -0.6040  2.4628  1.0405
  475MOL0     H64119   8.192  11.662   4.190  2.5609  1.2026 -0.7819
  475MOL0     H64120   8.311  11.617   4.311 -0.3663 -0.0152  0.5513
  475MOL0     H64121   8.016  11.684   4.382 -0.7472  1.4297  2.8828
  475MOL0     H64122   8.151  11.797   4.392  1.5862 -0.1686  2.6657
  475MOL0     H64123   8.217  11.548   4.726  0.1061  1.4419 -0.0664
  475MOL0     H64124   8.157  11.125   4.000 -0.7661 -0.6614  0.4596
  475MOL0     H64125   7.956  11.021   3.931  1.8352  0.4987  0.4213
  476MOL0     O64126   9.796   2.099  10.095  0.0922  0.7428 -0.2034
  476MOL0     C64127   9.869   2.197  10.071  0.0793  0.6121  0.0875
  476MOL0     O64128   9.833   2.320  10.033  0.3902 -0.5096 -0.3685
  476MOL0     C64129   9.702   2.346  10.036  0.4298  0.0901 -0.0967
  476MOL0     C64130   9.649   2.393   9.911  0.5546 -0.1005  0.2864
  476MOL0     C64131   9.516   2.413   9.888  0.9579 -0.9222  0.5078
  476MOL0     C64132   9.425   2.410   9.994 -0.0553 -0.1955 -0.2238
  476MOL0     O64133   9.296   2.446   9.975 -0.0639 -0.0045  0.0882
  476MOL0     C64134   9.235   2.420   9.844  0.1499  1.6686 -0.7538
  476MOL0     C64135   9.080   2.449   9.847  0.2226  0.7471 -0.3015
  476MOL0     C64136   9.005   2.394   9.729  0.5543 -0.4787  0.0551
  476MOL0     C64137   9.047   2.456   9.597  0.6047  0.4727 -0.1098
  476MOL0     C64138   8.931   2.550   9.546  0.3775  0.7891 -0.6948
  476MOL0     C64139   8.803   2.479   9.493  1.1727  0.3221 -0.8574
  476MOL0     C64140   8.674   2.555   9.518  0.5347 -0.0262 -0.6813
  476MOL0     C64141   8.659   2.671   9.412 -0.5970  0.3769  0.7611
  476MOL0     N64142   8.534   2.743   9.434  0.9287  0.8495  0.2457
  476MOL0     C64143   8.514   2.852   9.517  0.0602  1.1737 -0.6450
  476MOL0     C64144   8.382   2.880   9.512  0.2507  0.3672 -0.8777
  476MOL0     C64145   8.326   2.987   9.605  1.0266 -0.5415  0.3085
  476MOL0     C64146   8.386   3.128   9.562 -0.9582 -0.4345  0.7296
  476MOL0     C64147   8.332   3.245   9.648 -0.4557  0.0534  0.5968
  476MOL0     C64148   8.384   3.242   9.793 -0.0921  0.3755 -0.0595
  476MOL0     O64149   8.345   3.366   9.841  0.0401 -0.3040  0.0110
  476MOL0     C64150   8.445   3.458   9.862 -0.1190  0.3640 -0.2448
  476MOL0     C64151   8.494   3.539   9.754 -0.7796 -0.7360 -0.4045
  476MOL0     C64152   8.599   3.637   9.778 -0.5573  0.3010 -0.6281
  476MOL0     C64153   8.644   3.720   9.661  0.5024 -0.2328  1.1543
  476MOL0     C64154   8.645   3.646   9.915  1.4395  0.4054  0.1654
  476MOL0     C64155   8.734   3.760   9.958  0.2830 -0.4776  0.3831
  476MOL0     O64156   8.737   3.869   9.880  0.5741 -0.0300 -0.3436
  476MOL0     C64157   8.851   3.945   9.894 -0.1658  0.5128  0.0752
  476MOL0     C64158   8.867   4.051   9.976 -0.0583  0.3820 -0.5450
  476MOL0     C64159   8.990   4.114   9.982 -0.6787  0.6319 -0.7402
  476MOL0     C64160   9.093   4.091   9.894  0.0024 -0.3152  0.3878
  476MOL0     O64161   9.220   4.151   9.882 -0.4398  0.2007 -0.0618
  476MOL0     C64162   9.283   4.187  10.006  0.0726 -0.3551 -0.4607
  476MOL0     C64163   9.427   4.240   9.977 -0.8952  0.1137 -0.8502
  476MOL0     C64164   9.524   4.135   9.922 -0.5797 -0.2596  0.0022
  476MOL0     C64165   9.650   4.206   9.856 -0.2904 -0.2186  0.4314
  476MOL0     C64166   9.717   4.110   9.762 -1.2277 -0.0543 -0.5920
  476MOL0     C64167   9.852   4.161   9.711 -0.8589 -0.1276  0.1824
  476MOL0     C64168   9.923   4.063   9.616 -0.6465  0.2149  0.2725
  476MOL0     C64169   9.838   4.032   9.489 -0.3782 -0.0091 -0.1068
  476MOL0    Cl64170   9.783   4.195   9.418 -0.0433  0.2174 -0.0261
  476MOL0     C64171   9.067   3.997   9.795  0.2378 -0.7518 -0.3874
  476MOL0     C64172   8.951   3.918   9.801 -0.1069  0.0649  0.1470
  476MOL0     O64173   8.800   3.742  10.062  0.0085  0.4227 -0.3120
  476MOL0     C64174   8.588   3.572  10.013 -0.7614  0.4009 -0.3672
  476MOL0     C64175   8.493   3.477   9.984  0.5843  0.8569 -0.7378
  476MOL0     N64176   8.326   2.803   9.423  0.3544  0.5214 -0.3933
  476MOL0     N64177   8.414   2.722   9.370  0.2568 -0.1083  0.3933
  476MOL0     C64178   9.472   2.365  10.120  0.0914 -1.0740  0.7018
  476MOL0     C64179   9.604   2.333  10.142 -0.2008  0.0349 -1.2048
  476MOL0     C64180  10.014   2.184  10.083 -0.1245  0.0955 -0.3217
  476MOL0     C64181  10.078   2.057  10.075  0.4191  0.5073  0.5975
  476MOL0     C64182  10.220   2.048  10.091  0.2398  0.3268 -0.3855
  476MOL0     C64183  10.292   2.154  10.109  0.1150 -0.0897 -0.4085
  476MOL0     O64184  10.427   2.128  10.142  0.4370  0.0532 -0.6114
  476MOL0     C64185  10.534   2.216  10.094  0.3967 -0.2510 -0.2032
  476MOL0     C64186  10.616   2.133   9.999  0.0547 -0.3769  0.2990
  476MOL0     C64187  10.714   2.218   9.913  0.4874  0.7391  0.2394
  476MOL0     C64188  10.860   2.240   9.978  0.2261 -0.1061 -0.5905
  476MOL0     C64189  10.866   2.297  10.112 -0.2235 -0.2087  0.1048
  476MOL0     C64190  10.878   2.346  10.222 -0.5146  1.1680  0.5822
  476MOL0     C64191  10.230   2.280  10.128  0.5838  0.2031 -0.3185
  476MOL0     C64192  10.096   2.293  10.111  0.9252  0.6930  0.1185
  476MOL0     H64193   9.720   2.399   9.829 -1.5081  1.4694 -1.5008
  476MOL0     H64194   9.492   2.431   9.784  1.4880  1.0903  0.7029
  476MOL0     H64195   9.279   2.464   9.755  0.2836  0.4040 -1.3307
  476MOL0     H64196   9.252   2.314   9.823 -0.6096  0.5339  3.4118
  476MOL0     H64197   9.040   2.388   9.929 -0.1060  0.5975 -0.5718
  476MOL0     H64198   9.055   2.553   9.872  0.7854  0.7156  0.4173
  476MOL0     H64199   9.015   2.287   9.709  2.9407 -0.0750 -1.2549
  476MOL0     H64200   8.900   2.414   9.750  0.3753 -1.8791  0.6390
  476MOL0     H64201   9.149   2.496   9.592  0.2879  1.1382 -1.4712
  476MOL0     H64202   9.071   2.381   9.522 -1.5190 -0.5674  0.1648
  476MOL0     H64203   8.911   2.626   9.622  0.2183  0.5165 -0.4635
  476MOL0     H64204   8.971   2.601   9.457 -2.3953 -0.9951 -3.1538
  476MOL0     H64205   8.824   2.475   9.386  1.9520  0.7777 -0.7346
  476MOL0     H64206   8.808   2.380   9.540  1.8370  0.5248 -0.4769
  476MOL0     H64207   8.591   2.483   9.520  0.9445 -0.5497  2.1282
  476MOL0     H64208   8.659   2.601   9.617 -0.3976 -0.1165 -0.7650
  476MOL0     H64209   8.656   2.635   9.309 -1.3763 -1.4982  1.3833
  476MOL0     H64210   8.752   2.729   9.417  1.6757 -2.2231 -4.1333
  476MOL0     H64211   8.581   2.898   9.589 -0.9253 -1.5785  2.2814
  476MOL0     H64212   8.220   3.012   9.609  1.6246  2.2321  0.6675
  476MOL0     H64213   8.336   2.975   9.713 -0.8656  2.7525  1.0043
  476MOL0     H64214   8.355   3.146   9.458  2.7358  0.5962 -0.3782
  476MOL0     H64215   8.495   3.128   9.576 -0.9891 -3.0239  1.4812
  476MOL0     H64216   8.222   3.241   9.646 -0.4393 -0.4457 -1.2171
  476MOL0     H64217   8.345   3.346   9.609 -0.7544  0.5127  1.6287
  476MOL0     H64218   8.489   3.214   9.806 -0.4505 -1.0065  0.0139
  476MOL0     H64219   8.331   3.156   9.835 -0.8286  1.2082  0.7577
  476MOL0     H64220   8.436   3.533   9.662  0.3499 -0.3873 -1.1652
  476MOL0     H64221   8.614   3.669   9.569  1.4282  1.9121 -0.4201
  476MOL0     H64222   8.606   3.822   9.672 -0.3530 -0.5166  0.9106
  476MOL0     H64223   8.753   3.724   9.653  0.5514  0.4937  1.9156
  476MOL0     H64224   8.786   4.076  10.044  1.8827  2.5853  1.1485
  476MOL0     H64225   9.008   4.180  10.065 -3.3045 -0.9045  1.2060
  476MOL0     H64226   9.238   4.272  10.058  3.8294  1.7236 -0.2677
  476MOL0     H64227   9.279   4.095  10.066  0.3321 -0.5555 -0.7464
  476MOL0     H64228   9.423   4.331   9.918  1.6318  2.3368  2.0726
  476MOL0     H64229   9.473   4.271  10.071 -1.1256 -2.7340  0.3144
  476MOL0     H64230   9.475   4.070   9.850 -2.8067  0.0056  1.1973
  476MOL0     H64231   9.557   4.060   9.994  2.8309 -0.1480 -1.2622
  476MOL0     H64232   9.628   4.296   9.797 -2.5052  0.4012  2.0501
  476MOL0     H64233   9.727   4.243   9.924  1.9001 -0.1108 -1.9365
  476MOL0     H64234   9.645   4.079   9.685 -1.8239 -1.3566  0.4644
  476MOL0     H64235   9.733   4.024   9.827  0.1038  2.9579  3.4362
  476MOL0     H64236   9.858   4.263   9.673 -1.9741 -0.7177 -1.7074
  476MOL0     H64237   9.917   4.157   9.799  0.6115  1.5937 -0.7707
  476MOL0     H64238   9.954   3.968   9.662  3.2508  2.1762  2.2025
  476MOL0     H64239  10.010   4.118   9.580 -0.2741 -0.4146  0.2016
  476MOL0     H64240   9.745   3.978   9.506  0.9256 -2.3770 -0.1255
  476MOL0     H64241   9.885   3.979   9.406 -2.4659  0.1745 -1.4820
  476MOL0     H64242   9.137   3.977   9.713 -0.9192 -1.0932 -1.3168
  476MOL0     H64243   8.920   3.843   9.729 -1.8514 -1.7265  2.5738
  476MOL0     H64244   8.626   3.587  10.114  0.9014 -2.8915 -0.3467
  476MOL0     H64245   8.460   3.419  10.070  2.4005 -0.1830 -0.6923
  476MOL0     H64246   9.409   2.376  10.208 -1.1063 -0.4469 -0.1972
  476MOL0     H64247   9.622   2.290  10.240  0.7568  0.8099 -1.0273
  476MOL0     H64248  10.030   1.962  10.056  0.6721  0.7860 -1.7467
  476MOL0     H64249  10.270   1.952  10.082  1.3479  0.9524 -1.2408
  476MOL0     H64250  10.497   2.301  10.036 -2.4139 -0.8807  0.5223
  476MOL0     H64251  10.585   2.255  10.183  1.4035  0.0034 -0.8774
  476MOL0     H64252  10.561   2.076   9.923  1.6721 -0.1878 -1.0680
  476MOL0     H64253  10.672   2.055  10.052  0.4448  1.0093  1.9870
  476MOL0     H64254  10.670   2.314   9.887  0.7756  1.3574  1.9045
  476MOL0     H64255  10.735   2.168   9.818  1.6964 -2.6230  2.0998
  476MOL0     H64256  10.917   2.308   9.914  0.2409  0.0915 -0.3687
  476MOL0     H64257  10.906   2.141   9.979 -0.1789 -0.2956 -0.1050
  476MOL0     H64258  10.879   2.391  10.319 -2.0151  1.7378  0.3645
  476MOL0     H64259  10.287   2.365  10.163  0.7139 -0.3575  0.9132
  476MOL0     H64260  10.054   2.393  10.120 -0.9638 -0.1725  1.5702
  477MOL0     O64261   8.729   9.370   8.846 -0.3551  0.4552  0.5781
  477MOL0     C64262   8.763   9.458   8.922 -0.0864  0.0615  1.2734
  477MOL0     O64263   8.680   9.546   9.005  1.1903  0.4027  0.4412
  477MOL0     C64264   8.549   9.559   8.956  0.7626 -0.7050 -0.1403
  477MOL0     C64265   8.519   9.676   8.881 -0.0908  0.3262 -0.4500
  477MOL0     C64266   8.388   9.697   8.837  0.1843 -0.2901 -0.3805
  477MOL0     C64267   8.275   9.616   8.885 -0.6416 -0.4440 -0.4597
  477MOL0     O64268   8.152   9.646   8.856 -0.0118 -0.0976  0.2767
  477MOL0     C64269   8.097   9.742   8.764  0.2066  0.3344 -0.2206
  477MOL0     C64270   8.094   9.876   8.840  0.1431 -0.7809 -0.0508
  477MOL0     C64271   7.984   9.971   8.798 -0.2434 -1.1524  0.0309
  477MOL0     C64272   7.988  10.005   8.645  0.6423  0.7554 -0.0425
  477MOL0     C64273   7.860  10.087   8.614  0.3426  0.0736  0.2698
  477MOL0     C64274   7.859  10.134   8.474  0.3345  0.2423  0.4231
  477MOL0     C64275   7.758  10.236   8.420  0.7340 -0.5014  0.4000
  477MOL0     C64276   7.608  10.212   8.471  0.0944  0.6727 -0.5636
  477MOL0     N64277   7.556  10.079   8.437 -0.4536 -0.2095 -0.9528
  477MOL0     C64278   7.496  10.039   8.318  0.3327  0.3808  0.0987
  477MOL0     C64279   7.442   9.918   8.336  0.5220 -1.0200  0.4056
  477MOL0     C64280   7.368   9.832   8.243  0.6917  0.7688  0.2035
  477MOL0     C64281   7.434   9.785   8.114 -0.7651  0.1926  0.0740
  477MOL0     C64282   7.533   9.670   8.125 -0.2272  0.1044  0.3697
  477MOL0     C64283   7.677   9.709   8.153  0.9690 -0.5549 -0.0009
  477MOL0     O64284   7.731   9.764   8.033 -0.3893 -0.3464 -0.5718
  477MOL0     C64285   7.866   9.760   8.034 -0.1918 -0.1787  0.6242
  477MOL0     C64286   7.929   9.787   7.911  0.5303 -0.3299 -0.1598
  477MOL0     C64287   8.063   9.762   7.878  0.9196 -0.2409 -0.5526
  477MOL0     C64288   8.109   9.791   7.734  0.1143  0.3041 -0.7572
  477MOL0     C64289   8.143   9.711   7.977 -0.1673 -0.7158  0.2149
  477MOL0     C64290   8.289   9.674   7.962  0.3360 -0.5160 -0.8577
  477MOL0     O64291   8.354   9.625   8.079 -0.8473  0.4977  0.3976
  477MOL0     C64292   8.472   9.568   8.066  0.0217 -0.6159 -0.2111
  477MOL0     C64293   8.490   9.452   8.131 -0.5337 -0.2330 -0.5562
  477MOL0     C64294   8.607   9.380   8.121 -0.5790 -0.6479 -0.6725
  477MOL0     C64295   8.717   9.430   8.056  0.7059  1.2732  0.6944
  477MOL0     O64296   8.837   9.364   8.033  0.4041 -0.5823 -0.0827
  477MOL0     C64297   8.870   9.231   8.075 -0.4113 -0.4681 -0.9606
  477MOL0     C64298   9.007   9.196   8.017  0.2034 -0.2529  0.1746
  477MOL0     C64299   9.009   9.212   7.872  0.3393  0.1690 -0.0023
  477MOL0     C64300   9.147   9.168   7.828  0.9956 -0.1606 -0.4272
  477MOL0     C64301   9.176   9.197   7.679 -0.4041 -0.2111  0.3196
  477MOL0     C64302   9.299   9.127   7.618 -0.2361  0.2064  1.1021
  477MOL0     C64303   9.301   8.978   7.634 -0.1072  0.0906 -0.7063
  477MOL0     C64304   9.163   8.911   7.605 -0.7861 -0.4227 -0.1153
  477MOL0    Cl64305   9.183   8.737   7.579  0.0782  0.3913 -0.3331
  477MOL0     C64306   8.699   9.555   7.989  0.3135  1.1222 -0.7112
  477MOL0     C64307   8.581   9.626   7.998  0.0272  0.1176  1.0267
  477MOL0     O64308   8.329   9.674   7.848 -0.1619 -0.0623 -0.1020
  477MOL0     C64309   8.086   9.693   8.108 -0.1385 -0.3560  0.2463
  477MOL0     C64310   7.953   9.719   8.136  0.0715 -0.4644  0.0689
  477MOL0     N64311   7.471   9.881   8.467 -0.1152  0.1927 -0.3906
  477MOL0     N64312   7.528   9.980   8.534 -0.0514  0.5098 -0.0598
  477MOL0     C64313   8.305   9.514   8.966  0.4170 -0.3918 -0.6549
  477MOL0     C64314   8.443   9.480   9.004 -0.1763 -0.2068  0.3696
  477MOL0     C64315   8.913   9.474   8.942 -0.3371  0.3221 -0.2419
  477MOL0     C64316   8.970   9.551   9.040 -0.1758  0.0991 -1.4199
  477MOL0     C64317   9.108   9.556   9.070  1.1509 -0.2134 -0.7954
  477MOL0     C64318   9.189   9.488   8.986 -0.0696  0.2759  0.0880
  477MOL0     O64319   9.319   9.523   8.979 -0.6417  0.3688 -0.5843
  477MOL0     C64320   9.389   9.479   9.100  0.1677 -0.0004  0.1497
  477MOL0     C64321   9.508   9.402   9.056 -0.7670  0.3860  0.2092
  477MOL0     C64322   9.488   9.294   8.939 -0.0234  1.3382 -0.4860
  477MOL0     C64323   9.403   9.179   8.976 -0.4313  1.3547 -0.1328
  477MOL0     C64324   9.376   9.105   8.849 -0.1245 -0.1856  0.0978
  477MOL0     C64325   9.361   9.043   8.740 -0.1648 -0.1487  0.4564
  477MOL0     C64326   9.138   9.399   8.892  0.0945  0.0551  0.4669
  477MOL0     C64327   8.997   9.394   8.869  0.5486  0.3259 -0.6913
  477MOL0     H64328   8.596   9.742   8.842  1.5511 -1.4826 -0.4452
  477MOL0     H64329   8.371   9.784   8.775 -0.1399  0.6508  0.9724
  477MOL0     H64330   8.164   9.748   8.678  2.2967  0.5743  1.3477
  477MOL0     H64331   7.999   9.707   8.731  1.6521 -1.7432 -2.7485
  477MOL0     H64332   8.092   9.868   8.949  1.0200 -0.6755 -0.0154
  477MOL0     H64333   8.186   9.928   8.810 -0.5934 -0.0461 -1.1273
  477MOL0     H64334   7.889   9.921   8.819 -0.1039 -1.6726 -0.5430
  477MOL0     H64335   7.997  10.059   8.861 -0.1412 -1.4320  0.4029
  477MOL0     H64336   8.077  10.061   8.617  0.1661  0.1067 -3.2351
  477MOL0     H64337   7.977   9.912   8.588 -0.3479  1.4252 -1.0099
  477MOL0     H64338   7.769  10.028   8.625  0.8199 -1.0832 -1.4555
  477MOL0     H64339   7.848  10.173   8.680 -1.2945  0.4410 -0.4678
  477MOL0     H64340   7.960  10.164   8.443 -0.2882  0.7740 -1.1935
  477MOL0     H64341   7.850  10.050   8.404 -1.4880  3.7539 -4.0138
  477MOL0     H64342   7.794  10.337   8.441  1.9958 -1.2389  2.0015
  477MOL0     H64343   7.749  10.231   8.311  2.2088  0.5153  0.1904
  477MOL0     H64344   7.523  10.277   8.451 -1.7004 -1.3380  0.1500
  477MOL0     H64345   7.613  10.217   8.580 -0.6840  0.9894 -0.5341
  477MOL0     H64346   7.496  10.103   8.231 -1.0268 -0.9882 -0.9690
  477MOL0     H64347   7.333   9.744   8.298 -0.3072  0.4835 -0.8652
  477MOL0     H64348   7.278   9.884   8.210 -0.9425 -1.1918  1.2975
  477MOL0     H64349   7.494   9.859   8.060  3.6197 -4.4426 -2.3242
  477MOL0     H64350   7.349   9.755   8.052 -0.9052 -2.9734  1.6095
  477MOL0     H64351   7.527   9.622   8.027 -0.7565  3.3632 -1.3091
  477MOL0     H64352   7.506   9.597   8.202 -0.1187 -0.2552  0.0739
  477MOL0     H64353   7.729   9.618   8.184  1.6820 -0.4319 -0.8310
  477MOL0     H64354   7.672   9.787   8.230 -1.0312  0.3250 -0.9553
  477MOL0     H64355   7.859   9.820   7.834  0.5201 -0.5895 -0.2662
  477MOL0     H64356   8.195   9.858   7.734 -0.7523  1.5556  1.8816
  477MOL0     H64357   8.143   9.702   7.681  1.8650  0.0506  0.7146
  477MOL0     H64358   8.026   9.849   7.692 -0.4033  1.1449  1.3023
  477MOL0     H64359   8.410   9.419   8.197  1.2229 -0.9843  1.3188
  477MOL0     H64360   8.629   9.292   8.182  0.0888 -2.0882 -2.8591
  477MOL0     H64361   8.860   9.215   8.182  1.5667 -0.4011 -0.7355
  477MOL0     H64362   8.790   9.166   8.039 -1.4081  0.1199  0.1429
  477MOL0     H64363   9.084   9.254   8.069 -0.5736  1.4110 -0.4802
  477MOL0     H64364   9.011   9.089   8.038 -0.4979 -0.4863 -0.8239
  477MOL0     H64365   8.986   9.317   7.851  0.9694  0.8765  2.5009
  477MOL0     H64366   8.937   9.149   7.819  1.5763 -1.7652  0.5400
  477MOL0     H64367   9.218   9.237   7.874  0.8569  0.5928 -1.3228
  477MOL0     H64368   9.172   9.064   7.850  3.0819  0.0330 -1.6426
  477MOL0     H64369   9.181   9.306   7.667  1.3398 -0.4328 -1.3275
  477MOL0     H64370   9.090   9.177   7.615 -0.0200  1.8128 -0.9069
  477MOL0     H64371   9.312   9.163   7.516  2.0773 -2.1997  0.4535
  477MOL0     H64372   9.387   9.171   7.666  0.8888 -1.2205  0.4230
  477MOL0     H64373   9.322   8.956   7.739 -4.5456 -2.6145 -0.1139
  477MOL0     H64374   9.387   8.944   7.576  1.5847  0.0440  1.6905
  477MOL0     H64375   9.124   8.958   7.515 -0.7577  3.3949  1.6661
  477MOL0     H64376   9.093   8.938   7.685 -2.1974  0.5420 -1.5999
  477MOL0     H64377   8.779   9.610   7.939 -0.4827  2.9374 -0.1019
  477MOL0     H64378   8.562   9.726   7.961 -1.5222 -0.1612  0.9680
  477MOL0     H64379   8.143   9.643   8.186 -0.8996  1.5519  2.1430
  477MOL0     H64380   7.922   9.705   8.239  0.6858  1.8726  0.6337
  477MOL0     H64381   8.226   9.449   9.003  2.0654 -1.8576  0.3971
  477MOL0     H64382   8.461   9.401   9.077  2.3430 -0.8288 -0.7976
  477MOL0     H64383   8.918   9.624   9.102  2.3800  1.7589 -1.0701
  477MOL0     H64384   9.150   9.628   9.139 -2.7093  1.2987  0.1731
  477MOL0     H64385   9.420   9.572   9.147  1.8695  0.4964 -1.8098
  477MOL0     H64386   9.319   9.415   9.154 -3.6382  0.4139 -3.7531
  477MOL0     H64387   9.558   9.356   9.141  2.1041  1.8486 -0.5499
  477MOL0     H64388   9.577   9.480   9.022 -0.0894 -0.8886 -1.5092
  477MOL0     H64389   9.586   9.254   8.911  0.3115  1.2794  0.7061
  477MOL0     H64390   9.447   9.349   8.854  0.1062 -0.5453 -1.8050
  477MOL0     H64391   9.312   9.211   9.027  1.1875  4.0497  1.2893
  477MOL0     H64392   9.458   9.109   9.038  0.9221  2.3220 -0.1926
  477MOL0     H64393   9.371   8.979   8.655  1.7362 -2.9384  2.6311
  477MOL0     H64394   9.202   9.347   8.821  0.3981  2.6018 -1.2543
  477MOL0     H64395   8.957   9.331   8.790  1.1497 -3.2185  1.5856
  478MOL0     O64396   5.870   5.649   6.615  0.0978  0.2546  0.0912
  478MOL0     C64397   5.878   5.617   6.737 -0.0301  0.3070  0.1102
  478MOL0     O64398   5.765   5.604   6.813  0.1016 -0.7909 -0.1578
  478MOL0     C64399   5.647   5.579   6.743 -1.0853 -0.2425  0.3143
  478MOL0     C64400   5.607   5.447   6.723 -0.3846  0.0809 -0.0555
  478MOL0     C64401   5.482   5.419   6.657 -0.0843 -0.0790 -1.4672
  478MOL0     C64402   5.412   5.511   6.581  0.0832 -1.9084  0.9016
  478MOL0     O64403   5.296   5.481   6.511 -0.0114  0.5524 -0.6713
  478MOL0     C64404   5.282   5.346   6.461  0.3079 -0.2148 -0.0788
  478MOL0     C64405   5.206   5.344   6.327  0.3603 -0.6167  0.0283
  478MOL0     C64406   5.066   5.388   6.347  0.5560  0.8863  0.2772
  478MOL0     C64407   4.988   5.345   6.217  0.2932  0.8925  0.1366
  478MOL0     C64408   4.860   5.416   6.194  0.3285 -0.1765 -0.7983
  478MOL0     C64409   4.752   5.400   6.296  0.0715  0.8950 -0.3204
  478MOL0     C64410   4.628   5.475   6.272  0.3660 -0.7364 -0.6058
  478MOL0     C64411   4.544   5.428   6.157 -0.0694 -0.9967 -0.3615
  478MOL0     N64412   4.424   5.514   6.156  0.1051 -0.4228 -0.0366
  478MOL0     C64413   4.296   5.467   6.185 -0.3380 -0.4258 -0.1992
  478MOL0     C64414   4.224   5.567   6.140  0.1564 -0.3912  0.8398
  478MOL0     C64415   4.074   5.574   6.144  0.3156 -0.0989 -0.2763
  478MOL0     C64416   4.038   5.624   6.288  0.0347 -0.0984 -0.4057
  478MOL0     C64417   3.971   5.517   6.371 -0.4033 -0.0888  0.2622
  478MOL0     C64418   3.935   5.578   6.509  0.3209  0.7602  0.4048
  478MOL0     O64419   4.048   5.570   6.596 -0.0430 -0.9262  0.1759
  478MOL0     C64420   4.032   5.638   6.710 -0.2164  0.2111 -0.1155
  478MOL0     C64421   4.147   5.693   6.767 -0.6741 -0.1355 -1.0314
  478MOL0     C64422   4.150   5.759   6.892  1.1138  0.5132 -0.3517
  478MOL0     C64423   4.292   5.802   6.943  0.5342 -0.8534 -0.7935
  478MOL0     C64424   4.029   5.791   6.953  0.4063  0.3835  0.4734
  478MOL0     C64425   4.016   5.867   7.078 -0.0196  0.2982 -0.1988
  478MOL0     O64426   3.886   5.882   7.121  0.4136  0.4023 -0.0909
  478MOL0     C64427   3.843   5.969   7.218 -0.6903  1.0651  0.3676
  478MOL0     C64428   3.931   6.028   7.315  1.1542  0.1869 -0.2790
  478MOL0     C64429   3.874   6.112   7.425 -0.0613  0.2161  0.1390
  478MOL0     C64430   3.738   6.146   7.420  0.0045 -0.8004  0.3246
  478MOL0     O64431   3.683   6.226   7.513 -0.3747  0.0876 -0.3715
  478MOL0     C64432   3.680   6.189   7.652  0.4685  0.3996  0.2001
  478MOL0     C64433   3.742   6.304   7.726 -0.5705  0.1131 -0.2053
  478MOL0     C64434   3.737   6.282   7.879  0.0174 -0.2392  0.2789
  478MOL0     C64435   3.593   6.274   7.937  0.0126 -0.2314 -0.4252
  478MOL0     C64436   3.497   6.370   7.868  0.1203  0.1875 -0.4053
  478MOL0     C64437   3.379   6.395   7.961  0.2985 -1.3843  0.2003
  478MOL0     C64438   3.296   6.262   7.978  0.5152  0.1774 -0.2712
  478MOL0     C64439   3.330   6.146   8.076  0.3062 -0.3720 -0.3637
  478MOL0    Cl64440   3.373   5.990   7.994  0.0356  0.3677  0.0599
  478MOL0     C64441   3.659   6.092   7.315  0.4042  0.6810 -0.1706
  478MOL0     C64442   3.712   6.009   7.222 -0.1055 -0.9742 -0.4577
  478MOL0     O64443   4.117   5.924   7.119  0.2968  0.0909  0.6889
  478MOL0     C64444   3.911   5.729   6.890 -0.5622 -0.0680 -0.0921
  478MOL0     C64445   3.911   5.644   6.782 -0.7374 -0.6441 -0.1079
  478MOL0     N64446   4.297   5.672   6.092 -0.1782 -0.2271 -0.3834
  478MOL0     N64447   4.420   5.637   6.097  0.3886 -0.3696 -0.2559
  478MOL0     C64448   5.468   5.644   6.587  0.7124 -0.7267 -0.0439
  478MOL0     C64449   5.569   5.682   6.680  0.1537 -0.0509 -0.1700
  478MOL0     C64450   6.004   5.595   6.807  0.1848  0.4122 -0.7101
  478MOL0     C64451   6.011   5.558   6.944  0.4732 -0.3403  1.4091
  478MOL0     C64452   6.137   5.537   7.005 -0.4672 -0.4944 -0.1143
  478MOL0     C64453   6.253   5.539   6.926 -0.1343 -0.5553 -0.8481
  478MOL0     O64454   6.368   5.511   6.991  0.2219  0.6317  0.1667
  478MOL0     C64455   6.494   5.520   6.924 -0.1085 -0.2305 -0.5986
  478MOL0     C64456   6.568   5.652   6.944 -0.0931  0.0649 -0.6875
  478MOL0     C64457   6.624   5.653   7.091 -1.0956  0.3555  0.0391
  478MOL0     C64458   6.751   5.734   7.095 -0.4368  0.7200 -0.3209
  478MOL0     C64459   6.714   5.874   7.063  0.0679 -0.3871 -0.1262
  478MOL0     C64460   6.674   5.984   7.023 -0.6778 -0.4202 -0.2563
  478MOL0     C64461   6.239   5.564   6.790  0.0735 -0.1940  0.9274
  478MOL0     C64462   6.116   5.605   6.734 -0.3389 -0.0892  0.6759
  478MOL0     H64463   5.656   5.365   6.774 -1.8360 -0.0340  1.2241
  478MOL0     H64464   5.446   5.317   6.651 -0.3260 -0.1768  0.7710
  478MOL0     H64465   5.378   5.297   6.444  0.0977 -1.3257  1.6786
  478MOL0     H64466   5.230   5.281   6.532 -2.5188  1.3412 -0.5868
  478MOL0     H64467   5.267   5.405   6.260  1.8425 -0.0249  1.8260
  478MOL0     H64468   5.207   5.242   6.288  1.0295 -0.0140 -1.6135
  478MOL0     H64469   5.013   5.335   6.427  0.1559  0.6960 -0.1080
  478MOL0     H64470   5.069   5.495   6.371 -1.0999  0.6746  1.6131
  478MOL0     H64471   5.045   5.360   6.125 -2.4865  1.9490 -1.5442
  478MOL0     H64472   4.965   5.238   6.219  0.0253  0.8816  3.4756
  478MOL0     H64473   4.889   5.521   6.182  2.2251 -0.2262  2.2162
  478MOL0     H64474   4.821   5.384   6.097  0.0533  0.6158 -0.9567
  478MOL0     H64475   4.732   5.293   6.313 -0.0455  1.2183  1.9717
  478MOL0     H64476   4.784   5.433   6.396 -1.2909 -0.5037  0.6349
  478MOL0     H64477   4.572   5.474   6.366  1.8557  3.0942  0.5468
  478MOL0     H64478   4.654   5.581   6.265  1.1264 -0.8086  0.6399
  478MOL0     H64479   4.515   5.324   6.177 -0.8333 -0.6381  0.5141
  478MOL0     H64480   4.599   5.433   6.063  1.7910  3.0381  0.7164
  478MOL0     H64481   4.272   5.375   6.237 -0.0664 -1.4829 -1.8805
  478MOL0     H64482   4.035   5.645   6.070  1.4175 -0.6635 -1.4384
  478MOL0     H64483   4.036   5.473   6.128 -1.4608 -0.0550  2.7917
  478MOL0     H64484   3.967   5.706   6.270  1.4471  1.9948  2.6555
  478MOL0     H64485   4.123   5.675   6.335  0.6127 -0.2751 -1.2308
  478MOL0     H64486   4.039   5.435   6.397 -0.7925 -0.1344  1.1774
  478MOL0     H64487   3.890   5.470   6.315  0.2922 -0.8685 -0.1072
  478MOL0     H64488   3.862   5.512   6.556 -0.0046 -0.1903 -1.3692
  478MOL0     H64489   3.877   5.670   6.499 -1.9923 -0.7754 -1.3360
  478MOL0     H64490   4.235   5.689   6.704 -1.7683 -0.2003 -2.6176
  478MOL0     H64491   4.303   5.911   6.948 -2.0241 -0.4332 -2.6658
  478MOL0     H64492   4.322   5.750   7.035 -3.1929 -0.0279  1.0635
  478MOL0     H64493   4.356   5.781   6.857 -0.0351 -0.3960 -1.3383
  478MOL0     H64494   4.038   6.011   7.320  1.0968 -0.8411 -1.8131
  478MOL0     H64495   3.942   6.150   7.501  0.3513  0.4502 -0.3465
  478MOL0     H64496   3.578   6.157   7.673  0.3763 -0.1701 -1.0385
  478MOL0     H64497   3.736   6.097   7.673  0.2960  0.0394 -0.8608
  478MOL0     H64498   3.848   6.323   7.704 -0.3802  0.4022  0.8831
  478MOL0     H64499   3.703   6.403   7.702  0.0814  0.7760  1.3290
  478MOL0     H64500   3.785   6.374   7.915  1.5326 -0.2708 -1.5129
  478MOL0     H64501   3.807   6.207   7.916 -0.2204 -0.3972  0.4141
  478MOL0     H64502   3.550   6.174   7.924  0.4810 -0.5960  0.6884
  478MOL0     H64503   3.605   6.294   8.044 -0.2690 -0.6005 -0.3223
  478MOL0     H64504   3.481   6.316   7.774  0.5877  0.6386 -0.7585
  478MOL0     H64505   3.556   6.461   7.847  1.2133 -0.7641 -1.6765
  478MOL0     H64506   3.427   6.422   8.056  2.0416 -2.2029 -0.4068
  478MOL0     H64507   3.329   6.486   7.927  2.0827 -0.0643  0.9841
  478MOL0     H64508   3.274   6.223   7.878  1.2022 -1.4902  0.1786
  478MOL0     H64509   3.206   6.310   8.018 -0.7498 -3.0860  1.1673
  478MOL0     H64510   3.245   6.129   8.142 -0.2305  1.6106 -0.4698
  478MOL0     H64511   3.408   6.185   8.143 -0.6196  1.3960 -0.2587
  478MOL0     H64512   3.553   6.117   7.318 -0.0550 -1.0991 -0.5329
  478MOL0     H64513   3.661   5.952   7.145  0.8823  0.4589 -2.2525
  478MOL0     H64514   3.811   5.739   6.931 -0.7212 -0.9460 -0.2382
  478MOL0     H64515   3.820   5.593   6.750  0.5671 -1.8885 -2.0173
  478MOL0     H64516   5.418   5.698   6.507 -0.6719 -1.0720  0.5675
  478MOL0     H64517   5.594   5.786   6.697 -1.3940  0.6594 -1.8236
  478MOL0     H64518   5.917   5.538   6.995 -2.2433  2.4034 -1.9732
  478MOL0     H64519   6.153   5.511   7.109  3.5056 -2.3870 -1.0175
  478MOL0     H64520   6.548   5.439   6.973 -0.5715  0.6019  1.3968
  478MOL0     H64521   6.486   5.503   6.816 -0.9889 -0.6292 -0.4836
  478MOL0     H64522   6.512   5.737   6.904 -0.5199 -0.0665 -0.3762
  478MOL0     H64523   6.653   5.653   6.875 -1.0005  3.4995 -1.9509
  478MOL0     H64524   6.647   5.552   7.124  1.9297  2.3135  5.1303
  478MOL0     H64525   6.557   5.700   7.163 -0.1892  0.3719  0.8820
  478MOL0     H64526   6.818   5.701   7.014 -0.9273  1.5676 -1.0899
  478MOL0     H64527   6.802   5.723   7.191 -0.2770 -1.0071 -0.5634
  478MOL0     H64528   6.636   6.078   6.988  1.0262  0.2167 -0.4713
  478MOL0     H64529   6.325   5.559   6.724  1.6154  2.5832  2.5167
  478MOL0     H64530   6.122   5.630   6.629  1.1522  1.0828  1.0024
  479MOL0     O64531   8.568   4.593   1.367 -0.2649  0.1611  0.5906
  479MOL0     C64532   8.570   4.679   1.271 -0.1615  0.6600  0.4928
  479MOL0     O64533   8.578   4.820   1.284 -0.0003 -0.0380  0.1291
  479MOL0     C64534   8.644   4.891   1.382  0.2043  0.7045 -0.4255
  479MOL0     C64535   8.766   4.843   1.439  0.0575  0.3272  0.8831
  479MOL0     C64536   8.843   4.918   1.532  0.2914  0.4858  0.1538
  479MOL0     C64537   8.801   5.046   1.566 -0.7528 -0.0010  0.4656
  479MOL0     O64538   8.868   5.111   1.659  0.4933 -0.6863  0.2016
  479MOL0     C64539   8.784   5.150   1.771 -0.0334  0.3264 -0.3492
  479MOL0     C64540   8.872   5.182   1.894  0.2103 -0.1349 -0.5482
  479MOL0     C64541   8.969   5.072   1.931 -0.1447 -0.4628 -0.4841
  479MOL0     C64542   9.030   5.095   2.070 -0.5572  0.4146 -0.4829
  479MOL0     C64543   9.111   4.966   2.118 -0.1071 -0.7575  0.0284
  479MOL0     C64544   9.177   4.984   2.254 -0.5393 -1.2379 -0.2805
  479MOL0     C64545   9.315   5.065   2.252  0.1573 -0.3576 -0.2452
  479MOL0     C64546   9.307   5.209   2.296 -0.0967 -1.0990 -0.7020
  479MOL0     N64547   9.443   5.276   2.283 -0.1543 -0.1081 -1.0204
  479MOL0     C64548   9.565   5.218   2.281  0.8271  0.0076 -0.2203
  479MOL0     C64549   9.654   5.305   2.228  0.1595 -0.9009  0.6387
  479MOL0     C64550   9.793   5.290   2.177 -0.3588  0.1579 -0.5400
  479MOL0     C64551   9.889   5.241   2.287 -0.3485  0.3694 -0.2079
  479MOL0     C64552   9.937   5.362   2.372  0.0624 -0.3345  0.0981
  479MOL0     C64553  10.043   5.309   2.478  0.5528  0.5161 -0.3047
  479MOL0     O64554  10.164   5.276   2.409 -0.5218 -0.6501  0.4747
  479MOL0     C64555  10.246   5.388   2.385 -0.5092  0.5817  0.0474
  479MOL0     C64556  10.316   5.368   2.268 -0.5132 -0.9758  1.2552
  479MOL0     C64557  10.409   5.460   2.212 -0.0233  0.8397 -0.3202
  479MOL0     C64558  10.482   5.411   2.084  0.2316  0.1680  0.4263
  479MOL0     C64559  10.423   5.583   2.282 -0.3420 -0.3307 -0.6834
  479MOL0     C64560  10.511   5.686   2.240 -0.9159 -0.5372  1.1899
  479MOL0     O64561  10.473   5.816   2.259 -0.1192  0.7338 -0.2442
  479MOL0     C64562  10.526   5.928   2.196  0.6532 -0.3000 -0.1410
  479MOL0     C64563  10.629   5.943   2.100  0.1689  0.9734  0.0480
  479MOL0     C64564  10.679   6.064   2.062 -1.1019  0.4649 -0.0145
  479MOL0     C64565  10.637   6.185   2.125  0.9584  0.7941  0.0644
  479MOL0     O64566  10.705   6.302   2.111  0.2694  0.2672 -0.1315
  479MOL0     C64567  10.615   6.413   2.072  0.2392  0.3526  0.8642
  479MOL0     C64568  10.700   6.536   2.019 -0.1507  0.9412 -0.3111
  479MOL0     C64569  10.607   6.631   1.959 -0.5794 -0.3164 -0.8640
  479MOL0     C64570  10.669   6.771   1.959 -0.1134 -0.6851  0.8946
  479MOL0     C64571  10.615   6.864   1.857  0.1672  0.1374  0.0722
  479MOL0     C64572  10.457   6.870   1.856 -0.4399 -0.8753  0.2038
  479MOL0     C64573  10.414   7.014   1.798 -0.1246 -0.8093 -0.0671
  479MOL0     C64574  10.441   7.027   1.646  0.4215 -0.3559 -0.6084
  479MOL0    Cl64575  10.328   7.143   1.579  0.0046  0.1570  0.2628
  479MOL0     C64576  10.526   6.171   2.213  1.1423 -0.3094 -0.3352
  479MOL0     C64577  10.469   6.046   2.250 -0.1167 -0.1188  0.2935
  479MOL0     O64578  10.620   5.653   2.189  0.3983  0.1294 -0.5670
  479MOL0     C64579  10.347   5.599   2.397 -0.4637  0.6228 -0.0702
  479MOL0     C64580  10.263   5.499   2.463 -0.7270  0.1936 -0.3759
  479MOL0     N64581   9.589   5.428   2.219  0.3339  0.4270  0.2363
  479MOL0     N64582   9.463   5.408   2.259 -0.4997  0.4718  0.2258
  479MOL0     C64583   8.678   5.093   1.514  0.6527  0.0626 -0.0837
  479MOL0     C64584   8.592   5.018   1.419 -0.2734 -0.4818  0.5694
  479MOL0     C64585   8.556   4.637   1.124 -0.8345  0.0968  0.3159
  479MOL0     C64586   8.501   4.513   1.094  0.3808  0.2436 -0.5212
  479MOL0     C64587   8.468   4.480   0.962  0.5318 -0.8533  0.0075
  479MOL0     C64588   8.507   4.566   0.859  0.5775  0.6198 -0.3384
  479MOL0     O64589   8.483   4.518   0.735 -0.0821  1.0620 -0.6409
  479MOL0     C64590   8.432   4.615   0.639 -0.3532  0.8823  0.9331
  479MOL0     C64591   8.495   4.566   0.511  0.2550 -0.4993  0.0258
  479MOL0     C64592   8.437   4.650   0.396  1.0185  0.2923  0.0014
  479MOL0     C64593   8.483   4.608   0.260  0.0787 -0.5949  0.0959
  479MOL0     C64594   8.421   4.471   0.234 -0.4791  0.7295  0.5323
  479MOL0     C64595   8.372   4.363   0.222  1.1075  1.1050 -0.5216
  479MOL0     C64596   8.576   4.682   0.890  1.0362 -0.5440 -0.6727
  479MOL0     C64597   8.603   4.717   1.026 -0.6328  0.8757  0.1641
  479MOL0     H64598   8.818   4.751   1.416  1.6978  1.0874  1.4105
  479MOL0     H64599   8.939   4.882   1.568  1.7104  2.3094 -1.5719
  479MOL0     H64600   8.725   5.241   1.756  0.8391  0.8519 -0.6262
  479MOL0     H64601   8.715   5.067   1.791 -1.1784  0.6635 -2.5920
  479MOL0     H64602   8.924   5.277   1.878  0.5089 -0.6491 -3.1087
  479MOL0     H64603   8.815   5.201   1.985 -1.0113 -1.1733 -1.0735
  479MOL0     H64604   8.914   4.978   1.929 -1.9368  0.5289 -3.1978
  479MOL0     H64605   9.052   5.068   1.860  0.8269  1.5219  0.4585
  479MOL0     H64606   9.102   5.177   2.064 -2.1624  2.1800  2.3993
  479MOL0     H64607   8.954   5.116   2.145  1.0734 -1.0184  1.7037
  479MOL0     H64608   9.052   4.875   2.108  0.5255 -1.1283 -0.4236
  479MOL0     H64609   9.194   4.951   2.048  2.6324  3.1204  2.0419
  479MOL0     H64610   9.102   5.007   2.330 -1.0922 -2.1185 -0.5495
  479MOL0     H64611   9.217   4.888   2.288  1.5820  0.4327  2.4052
  479MOL0     H64612   9.366   5.013   2.334 -0.4254 -0.6192 -0.0433
  479MOL0     H64613   9.358   5.049   2.153 -3.2454 -0.7349 -1.7898
  479MOL0     H64614   9.280   5.207   2.402  0.2570  0.0269 -0.5748
  479MOL0     H64615   9.229   5.274   2.255  1.9813  1.4794 -0.8745
  479MOL0     H64616   9.576   5.116   2.318  1.6226  0.9136  2.2217
  479MOL0     H64617   9.799   5.214   2.099  1.9555 -3.7101  2.9847
  479MOL0     H64618   9.827   5.383   2.130 -0.1124  0.6576  0.6025
  479MOL0     H64619   9.976   5.190   2.245  1.9974  3.4009  0.5472
  479MOL0     H64620   9.825   5.180   2.351  0.6319  1.0713  1.5365
  479MOL0     H64621   9.848   5.413   2.409 -1.0676 -1.5538 -0.8456
  479MOL0     H64622   9.995   5.434   2.314 -1.9188 -0.2628 -1.9353
  479MOL0     H64623   9.995   5.217   2.512  0.4469  0.4162 -0.7217
  479MOL0     H64624  10.056   5.367   2.569  1.8593 -3.2492  2.1650
  479MOL0     H64625  10.289   5.281   2.208  1.2569 -0.6328 -0.1200
  479MOL0     H64626  10.437   5.474   2.007 -1.8831 -1.4648  0.2105
  479MOL0     H64627  10.591   5.416   2.087  0.4793 -2.4660 -1.1138
  479MOL0     H64628  10.455   5.309   2.055  0.0210  0.9930 -2.5868
  479MOL0     H64629  10.676   5.856   2.054  0.3193  2.2902 -2.4284
  479MOL0     H64630  10.772   6.070   2.008  2.3762 -1.9740  4.9199
  479MOL0     H64631  10.541   6.382   1.997  0.5009  1.4183  0.1385
  479MOL0     H64632  10.559   6.449   2.159  3.2698 -0.2568  3.2283
  479MOL0     H64633  10.751   6.575   2.108 -1.7250 -0.8064  1.4315
  479MOL0     H64634  10.772   6.508   1.942 -0.0135  2.2145 -0.6786
  479MOL0     H64635  10.512   6.628   2.014  0.1068 -2.9451  0.3359
  479MOL0     H64636  10.588   6.599   1.856 -2.5828 -2.3267  0.0421
  479MOL0     H64637  10.666   6.822   2.056  0.3485  1.3681 -0.1053
  479MOL0     H64638  10.776   6.763   1.940 -0.2397 -0.2762 -0.0151
  479MOL0     H64639  10.656   6.842   1.757 -0.2746  2.7326 -0.7729
  479MOL0     H64640  10.654   6.966   1.865  0.8465  0.3830 -3.9131
  479MOL0     H64641  10.412   6.789   1.798 -4.4279 -0.4907  2.4425
  479MOL0     H64642  10.425   6.855   1.959  0.9382 -5.5977  0.1736
  479MOL0     H64643  10.454   7.098   1.854  0.8343  0.1772 -2.1536
  479MOL0     H64644  10.306   7.010   1.819 -0.0655  0.1492  0.4514
  479MOL0     H64645  10.423   6.931   1.598  0.7782 -1.7110  1.7997
  479MOL0     H64646  10.546   7.056   1.635  0.0686  0.5872 -1.7039
  479MOL0     H64647  10.492   6.255   2.273  1.6624 -1.4366  1.6302
  479MOL0     H64648  10.384   6.057   2.317 -1.3120  0.7198 -1.3000
  479MOL0     H64649  10.355   5.697   2.443  1.9378  0.6933 -0.5343
  479MOL0     H64650  10.228   5.498   2.566 -0.7938 -1.3602 -0.3971
  479MOL0     H64651   8.645   5.194   1.537  0.6431 -0.0768  0.5211
  479MOL0     H64652   8.502   5.051   1.367 -0.4352 -2.4059 -0.4412
  479MOL0     H64653   8.466   4.443   1.170  2.6547  0.9963  1.3428
  479MOL0     H64654   8.406   4.397   0.929  0.7371 -0.5301 -1.2581
  479MOL0     H64655   8.323   4.609   0.637 -0.2646 -1.9860  0.5714
  479MOL0     H64656   8.472   4.714   0.660  0.7006  0.4194  1.1446
  479MOL0     H64657   8.481   4.459   0.491 -3.7818 -0.0274 -0.4535
  479MOL0     H64658   8.603   4.583   0.515  0.4250 -1.1768 -1.2624
  479MOL0     H64659   8.475   4.752   0.401 -1.0980  1.1200  0.3265
  479MOL0     H64660   8.328   4.652   0.395  0.9330 -1.8158 -1.2221
  479MOL0     H64661   8.592   4.614   0.257  0.2601 -2.8336 -3.2048
  479MOL0     H64662   8.442   4.678   0.186 -0.9714 -0.4872  0.7511
  479MOL0     H64663   8.324   4.271   0.193 -0.7300  0.8731  2.8315
  479MOL0     H64664   8.621   4.742   0.811  1.6629 -1.4567 -1.0395
  479MOL0     H64665   8.662   4.805   1.049  0.9043  0.1771 -0.8970
  480MOL0     O64666   7.811   6.068   2.752 -1.0138  0.1978  0.0244
  480MOL0     C64667   7.785   6.161   2.827  0.9867  0.4972  0.4841
  480MOL0     O64668   7.817   6.170   2.964  0.1810  0.0463 -0.1278
  480MOL0     C64669   7.865   6.060   3.025 -0.1096 -0.1499 -0.4007
  480MOL0     C64670   7.994   6.017   3.018  0.2018  0.3193 -0.6060
  480MOL0     C64671   8.034   5.886   3.059 -0.1384 -0.9337  0.2957
  480MOL0     C64672   7.944   5.804   3.115  0.1131  0.5615  0.4034
  480MOL0     O64673   7.990   5.675   3.141 -0.4319 -0.0583 -0.0916
  480MOL0     C64674   7.897   5.573   3.184 -0.1023 -0.9123  0.3639
  480MOL0     C64675   7.939   5.422   3.162  0.1700 -0.4702 -0.3377
  480MOL0     C64676   7.870   5.362   3.032  0.0294  0.9055  0.4494
  480MOL0     C64677   7.923   5.225   3.010 -0.4059  0.1681  0.2753
  480MOL0     C64678   7.872   5.118   3.109 -0.0421 -0.8238 -0.2266
  480MOL0     C64679   7.930   4.983   3.080 -0.5485 -0.4823  0.2030
  480MOL0     C64680   7.852   4.854   3.129 -0.4219 -0.0296 -0.5391
  480MOL0     C64681   7.741   4.828   3.031 -0.6718  0.7779 -0.1495
  480MOL0     N64682   7.781   4.828   2.888 -0.5027  0.0168 -0.6949
  480MOL0     C64683   7.846   4.733   2.824 -0.6042  0.1620  0.4240
  480MOL0     C64684   7.869   4.784   2.703 -0.6102  0.4225  0.5765
  480MOL0     C64685   7.937   4.733   2.580 -0.2379  1.2541  0.1602
  480MOL0     C64686   8.086   4.738   2.596 -0.6409 -0.6944 -0.2349
  480MOL0     C64687   8.143   4.594   2.604  0.4706  0.1093 -0.7450
  480MOL0     C64688   8.296   4.599   2.631 -0.5430  0.5876 -0.9301
  480MOL0     O64689   8.348   4.458   2.648  0.4682  0.1613 -0.0178
  480MOL0     C64690   8.490   4.450   2.636 -0.2192 -0.5805 -0.2298
  480MOL0     C64691   8.545   4.328   2.608  0.7034 -0.0864 -0.0226
  480MOL0     C64692   8.679   4.302   2.591  1.0388  0.3648 -1.0350
  480MOL0     C64693   8.715   4.162   2.557 -0.5169  0.1558 -1.3288
  480MOL0     C64694   8.769   4.414   2.611  0.3156 -0.6802  0.3434
  480MOL0     C64695   8.921   4.409   2.600  0.0499 -0.1559  0.2497
  480MOL0     O64696   8.985   4.526   2.637 -0.0841 -0.1338  0.0260
  480MOL0     C64697   9.123   4.535   2.621 -0.2646  0.0749 -0.4000
  480MOL0     C64698   9.206   4.514   2.726  0.1470 -0.0989  0.0281
  480MOL0     C64699   9.342   4.530   2.712 -0.3340  0.2359  0.0390
  480MOL0     C64700   9.410   4.570   2.593  0.1155 -0.3956 -0.6954
  480MOL0     O64701   9.543   4.573   2.587 -0.0965 -0.6436 -0.5562
  480MOL0     C64702   9.601   4.585   2.462  0.2592  0.2690 -0.3644
  480MOL0     C64703   9.741   4.628   2.484  0.3812  0.1216 -1.0658
  480MOL0     C64704   9.769   4.781   2.488 -0.1025  0.3375 -0.2471
  480MOL0     C64705   9.781   4.861   2.361  0.2182 -0.0280 -0.0389
  480MOL0     C64706   9.873   4.804   2.248  0.9744 -0.1650 -0.5212
  480MOL0     C64707  10.015   4.789   2.303 -0.0357 -0.1355 -0.3182
  480MOL0     C64708  10.102   4.748   2.185  0.2738  0.3108  0.4916
  480MOL0     C64709  10.254   4.742   2.220  0.4259  0.2696  0.2808
  480MOL0    Cl64710  10.313   4.904   2.292 -0.0251 -0.1405  0.2160
  480MOL0     C64711   9.316   4.602   2.488 -0.2445 -1.3417  0.1955
  480MOL0     C64712   9.177   4.584   2.502 -0.1155 -0.2446  0.4433
  480MOL0     O64713   8.973   4.308   2.551 -0.5491 -0.2803  0.3132
  480MOL0     C64714   8.724   4.548   2.641  0.0534 -0.8124 -0.5369
  480MOL0     C64715   8.586   4.566   2.652  0.2340 -0.6841  0.3330
  480MOL0     N64716   7.808   4.908   2.689  0.4686  0.0214  0.2142
  480MOL0     N64717   7.751   4.932   2.804 -0.5256 -0.2484  0.3455
  480MOL0     C64718   7.811   5.854   3.132  0.7606  0.4906 -0.2077
  480MOL0     C64719   7.769   5.979   3.084 -0.2072 -0.3580 -0.9724
  480MOL0     C64720   7.729   6.280   2.757 -0.3052 -0.7974  0.7154
  480MOL0     C64721   7.697   6.275   2.620 -0.0871  0.6921 -0.1645
  480MOL0     C64722   7.655   6.387   2.544  0.8962 -0.3614 -0.3447
  480MOL0     C64723   7.651   6.507   2.614 -0.1404  0.0732 -0.8569
  480MOL0     O64724   7.605   6.626   2.568 -0.9468 -0.3071  0.7520
  480MOL0     C64725   7.550   6.643   2.439 -1.5480 -0.3341 -0.1576
  480MOL0     C64726   7.658   6.648   2.327 -0.5755 -0.0446 -0.4447
  480MOL0     C64727   7.605   6.649   2.184  0.1183 -0.2648 -0.3538
  480MOL0     C64728   7.710   6.627   2.073  0.3292 -0.1041 -0.3070
  480MOL0     C64729   7.777   6.758   2.028  0.6129  0.2989  0.5377
  480MOL0     C64730   7.806   6.873   2.010 -0.0308 -0.2864  0.1572
  480MOL0     C64731   7.688   6.520   2.746 -0.1264  0.4075 -0.2055
  480MOL0     C64732   7.742   6.406   2.808  0.2812  0.2624  0.2059
  480MOL0     H64733   8.058   6.086   2.963  0.8931 -1.0826 -1.6284
  480MOL0     H64734   8.131   5.862   3.017 -0.5132  2.6446 -3.1608
  480MOL0     H64735   7.879   5.600   3.289  3.2900 -1.1575  1.1245
  480MOL0     H64736   7.802   5.579   3.131 -0.9280  0.8031  1.9301
  480MOL0     H64737   8.046   5.409   3.176  0.4661  2.9840  1.3983
  480MOL0     H64738   7.897   5.364   3.245 -1.6912 -0.2967 -1.1087
  480MOL0     H64739   7.762   5.357   3.052  0.0098  2.4250  0.8453
  480MOL0     H64740   7.896   5.430   2.951 -2.1412  4.6766  2.6031
  480MOL0     H64741   7.901   5.192   2.908  0.4661  2.1046 -0.5848
  480MOL0     H64742   8.032   5.233   3.020 -0.3363  0.5739 -0.7028
  480MOL0     H64743   7.878   5.148   3.214 -3.5426  1.4596 -0.5130
  480MOL0     H64744   7.765   5.118   3.086 -0.2154 -0.3582  0.5345
  480MOL0     H64745   7.957   4.973   2.974  0.9947  0.8807  0.4341
  480MOL0     H64746   8.029   4.988   3.125  1.6638  2.0560 -4.3010
  480MOL0     H64747   7.912   4.764   3.146 -2.7598 -1.0220  4.0634
  480MOL0     H64748   7.804   4.885   3.222 -4.6141  1.9411 -3.0270
  480MOL0     H64749   7.671   4.907   3.060 -1.0911  0.1815  0.4854
  480MOL0     H64750   7.692   4.733   3.053  1.9940 -1.4025 -2.7433
  480MOL0     H64751   7.883   4.641   2.868  1.1832  1.1470  1.1055
  480MOL0     H64752   7.911   4.628   2.561  0.4482  1.2383 -0.7061
  480MOL0     H64753   7.900   4.793   2.497 -2.5369  1.5123  1.2835
  480MOL0     H64754   8.113   4.792   2.687  0.9796  1.6460 -1.9907
  480MOL0     H64755   8.134   4.775   2.506 -1.1545 -0.8963 -0.5981
  480MOL0     H64756   8.123   4.527   2.520  2.4419  1.7654 -2.6412
  480MOL0     H64757   8.106   4.541   2.693  3.2542 -1.0645 -0.1766
  480MOL0     H64758   8.314   4.637   2.732 -2.6406 -1.7970  0.4704
  480MOL0     H64759   8.350   4.662   2.559 -1.9402  0.7194 -1.9003
  480MOL0     H64760   8.465   4.256   2.593  1.1061 -0.5831  0.1718
  480MOL0     H64761   8.799   4.127   2.618 -0.0285  1.7479 -1.0254
  480MOL0     H64762   8.622   4.109   2.577 -3.0862  4.4657 -0.6185
  480MOL0     H64763   8.746   4.147   2.453  3.1281 -0.2151 -0.3421
  480MOL0     H64764   9.169   4.493   2.826 -0.6708 -0.2379 -0.2955
  480MOL0     H64765   9.407   4.505   2.795  0.0699 -2.4125 -0.9899
  480MOL0     H64766   9.614   4.484   2.423  1.7912  0.8817 -1.5546
  480MOL0     H64767   9.554   4.646   2.384 -2.1241 -1.4662 -0.3885
  480MOL0     H64768   9.764   4.592   2.585 -1.3562 -0.1999 -0.7506
  480MOL0     H64769   9.814   4.581   2.417  2.6421 -0.1511  1.4122
  480MOL0     H64770   9.868   4.788   2.533 -1.1233 -1.7056  2.6474
  480MOL0     H64771   9.707   4.842   2.554 -1.4630 -2.0417  0.8054
  480MOL0     H64772   9.683   4.871   2.313  0.0495  1.9532  0.6102
  480MOL0     H64773   9.813   4.962   2.388  0.1975 -0.1243  0.3517
  480MOL0     H64774   9.884   4.876   2.167  0.4897  1.2471  0.6092
  480MOL0     H64775   9.828   4.709   2.216 -0.5038  0.0138  0.8798
  480MOL0     H64776  10.040   4.886   2.345  0.2766 -0.8622  1.2432
  480MOL0     H64777  10.032   4.719   2.386  1.5047  1.4798  0.7894
  480MOL0     H64778  10.080   4.809   2.097 -2.4861 -2.4179 -0.8725
  480MOL0     H64779  10.077   4.644   2.159 -1.6374  0.7361  0.5231
  480MOL0     H64780  10.314   4.728   2.130  0.8710 -0.2069  0.6425
  480MOL0     H64781  10.278   4.658   2.287  2.9971 -0.2947 -1.2341
  480MOL0     H64782   9.346   4.638   2.390 -1.9862 -1.5226 -0.4443
  480MOL0     H64783   9.120   4.608   2.413 -0.5988  0.9613  1.0613
  480MOL0     H64784   8.786   4.636   2.626 -1.2689 -0.0164 -1.5664
  480MOL0     H64785   8.540   4.663   2.665 -1.5576 -1.2499 -1.3002
  480MOL0     H64786   7.736   5.795   3.183 -2.5490  4.0946 -0.4882
  480MOL0     H64787   7.667   6.017   3.087  0.0824  0.3979  1.7594
  480MOL0     H64788   7.713   6.184   2.563  2.7336  0.9083  0.1323
  480MOL0     H64789   7.635   6.377   2.438  1.9210 -1.7996 -0.4352
  480MOL0     H64790   7.485   6.558   2.419 -1.6417 -0.3927  0.3749
  480MOL0     H64791   7.492   6.736   2.437 -1.2114  0.1675  4.0957
  480MOL0     H64792   7.726   6.563   2.344 -0.5883  0.2830  1.4800
  480MOL0     H64793   7.715   6.741   2.336  0.2091 -0.6729  1.6483
  480MOL0     H64794   7.549   6.740   2.158 -0.1869 -0.7181 -1.3479
  480MOL0     H64795   7.540   6.561   2.180  0.9373 -0.9216  0.5472
  480MOL0     H64796   7.648   6.578   1.998 -0.3920 -0.4330  0.4848
  480MOL0     H64797   7.781   6.551   2.105  0.3262  1.0818  2.9076
  480MOL0     H64798   7.817   6.978   1.990 -1.9321  0.1605  1.1506
  480MOL0     H64799   7.692   6.615   2.797  1.9792  1.3545 -1.9864
  480MOL0     H64800   7.778   6.423   2.909  1.0927  0.6135 -0.1305
  481MOL0     O64801   5.831   6.294   4.706  0.1487  0.5720  0.1688
  481MOL0     C64802   5.711   6.300   4.674 -0.0269 -0.1129  1.1336
  481MOL0     O64803   5.662   6.347   4.555 -0.3120 -0.4021 -0.2673
  481MOL0     C64804   5.744   6.410   4.466  0.3972  0.0799 -0.0563
  481MOL0     C64805   5.766   6.359   4.341  1.1660 -0.3506  0.1194
  481MOL0     C64806   5.828   6.442   4.254 -0.6508 -0.7106  1.7738
  481MOL0     C64807   5.874   6.573   4.268  1.3018 -0.0370 -0.3792
  481MOL0     O64808   5.949   6.636   4.165  0.6511  0.4014 -0.2912
  481MOL0     C64809   5.916   6.773   4.133 -0.1736 -0.3992 -0.7601
  481MOL0     C64810   5.962   6.807   3.997  0.4721  0.4865  0.1686
  481MOL0     C64811   5.939   6.950   3.951  0.0586  0.0346  0.2487
  481MOL0     C64812   5.791   6.975   3.903 -0.0288 -0.7734 -0.1451
  481MOL0     C64813   5.771   7.111   3.849 -0.9241 -0.0373  0.3815
  481MOL0     C64814   5.760   7.136   3.693  0.0406  0.1767 -0.0460
  481MOL0     C64815   5.882   7.084   3.620  0.7853  0.0600  0.3086
  481MOL0     C64816   5.883   7.105   3.471  0.4342  0.8078  0.5868
  481MOL0     N64817   5.891   7.237   3.415 -0.1746  0.1572 -0.4212
  481MOL0     C64818   5.782   7.328   3.411  0.5617 -0.4709  0.2935
  481MOL0     C64819   5.840   7.436   3.361 -0.1200  0.0655 -0.4064
  481MOL0     C64820   5.766   7.565   3.332  0.4485 -0.4991 -0.4863
  481MOL0     C64821   5.687   7.607   3.447  0.6262  0.2900 -0.8551
  481MOL0     C64822   5.626   7.745   3.429  0.1989 -0.4289 -0.4169
  481MOL0     C64823   5.526   7.793   3.551  0.2597  0.3722 -0.1186
  481MOL0     O64824   5.404   7.720   3.550  0.3756 -0.3998  0.9141
  481MOL0     C64825   5.316   7.739   3.456  0.0881 -0.2699  0.4920
  481MOL0     C64826   5.215   7.654   3.455  0.4206  0.6314  1.1708
  481MOL0     C64827   5.100   7.666   3.372  0.1220 -0.2236 -0.0191
  481MOL0     C64828   5.003   7.549   3.376 -0.3567 -0.7211  0.8789
  481MOL0     C64829   5.104   7.764   3.273 -0.2685  0.8557  0.2141
  481MOL0     C64830   5.010   7.767   3.154  0.2408 -0.1933 -0.1167
  481MOL0     O64831   4.885   7.736   3.179  0.2575 -0.1958 -0.6212
  481MOL0     C64832   4.797   7.735   3.072  0.8179 -1.1963  0.0572
  481MOL0     C64833   4.761   7.624   3.006 -0.3377  0.5032  0.2787
  481MOL0     C64834   4.661   7.621   2.911 -0.0596 -0.0397  0.9019
  481MOL0     C64835   4.582   7.727   2.888  0.3402  0.6924  0.1420
  481MOL0     O64836   4.475   7.720   2.812 -0.2923 -0.1735  0.1307
  481MOL0     C64837   4.389   7.839   2.792 -0.3510 -0.5634  0.3200
  481MOL0     C64838   4.279   7.798   2.698  0.1179  0.1449  0.2462
  481MOL0     C64839   4.140   7.790   2.767  0.5017  0.0639 -0.0159
  481MOL0     C64840   4.042   7.727   2.658  0.9201  0.1046 -0.3762
  481MOL0     C64841   3.888   7.716   2.711 -0.2588 -0.1870 -0.3852
  481MOL0     C64842   3.790   7.708   2.595 -0.3911 -0.3168  0.0053
  481MOL0     C64843   3.761   7.840   2.527 -0.5848  0.4194 -0.6510
  481MOL0     C64844   3.671   7.836   2.410 -0.4694  0.2959  0.3826
  481MOL0    Cl64845   3.524   7.742   2.431  0.1862 -0.1796 -0.1282
  481MOL0     C64846   4.617   7.851   2.947  0.1797  0.0771 -0.0773
  481MOL0     C64847   4.729   7.851   3.035  0.0011 -0.6618 -0.2371
  481MOL0     O64848   5.047   7.816   3.048 -0.4406 -0.9802  0.5442
  481MOL0     C64849   5.207   7.850   3.269 -0.9296 -0.7270 -0.5667
  481MOL0     C64850   5.313   7.845   3.366 -0.0843  0.5300 -0.3193
  481MOL0     N64851   5.971   7.419   3.354  0.1246 -0.1786  0.1386
  481MOL0     N64852   6.010   7.293   3.379 -0.4280  0.2476  0.4695
  481MOL0     C64853   5.834   6.627   4.399  0.3383 -0.3202  0.6282
  481MOL0     C64854   5.764   6.545   4.489  0.7053  0.2614 -0.4478
  481MOL0     C64855   5.604   6.269   4.766 -0.3187  0.3977  0.7524
  481MOL0     C64856   5.465   6.277   4.737 -0.2465 -0.2388 -0.1138
  481MOL0     C64857   5.368   6.252   4.834  1.0095  0.7012 -0.8750
  481MOL0     C64858   5.402   6.214   4.959  0.2000 -0.0464  0.0151
  481MOL0     O64859   5.299   6.187   5.038  0.1632  0.1949 -0.3553
  481MOL0     C64860   5.330   6.170   5.173  1.0262  0.5236  0.2936
  481MOL0     C64861   5.209   6.117   5.251  0.6275 -0.6768 -0.1249
  481MOL0     C64862   5.081   6.209   5.229 -0.2232  0.4494 -0.4496
  481MOL0     C64863   4.956   6.167   5.303  0.3981 -0.2794 -0.3197
  481MOL0     C64864   4.842   6.256   5.275  0.1269 -0.5712 -0.1366
  481MOL0     C64865   4.745   6.332   5.252  1.1001  0.0469  0.1162
  481MOL0     C64866   5.540   6.207   4.993 -0.3562  0.7383  0.3293
  481MOL0     C64867   5.643   6.243   4.900  0.4677 -0.0898  1.3182
  481MOL0     H64868   5.729   6.259   4.318  1.3307 -0.3498 -0.1578
  481MOL0     H64869   5.865   6.394   4.164 -0.0255 -1.0618  2.2114
  481MOL0     H64870   5.807   6.784   4.144  0.0962  0.6168  1.4172
  481MOL0     H64871   5.963   6.846   4.200 -1.1861  0.9626 -1.4765
  481MOL0     H64872   6.069   6.784   3.994  0.2568 -1.5331 -5.5902
  481MOL0     H64873   5.921   6.736   3.925 -0.4008  1.0201  0.1347
  481MOL0     H64874   5.967   7.021   4.029 -0.5142  0.3456  0.1731
  481MOL0     H64875   6.004   6.967   3.864 -1.4295 -2.6589 -1.5565
  481MOL0     H64876   5.771   6.905   3.822  1.8698 -0.7384 -0.6953
  481MOL0     H64877   5.714   6.961   3.979  0.6671 -0.9742  0.5453
  481MOL0     H64878   5.674   7.145   3.887 -0.1965  1.9449  0.5910
  481MOL0     H64879   5.839   7.186   3.889 -2.7295  0.8303  1.9865
  481MOL0     H64880   5.668   7.089   3.658  0.6927 -1.1319 -0.0581
  481MOL0     H64881   5.752   7.243   3.670  3.5689  1.5116  3.7079
  481MOL0     H64882   5.974   7.126   3.663  0.9019  0.9628 -0.7676
  481MOL0     H64883   5.898   6.977   3.632 -0.7700 -0.2873 -0.4915
  481MOL0     H64884   5.797   7.051   3.430  1.1431 -1.2528  1.6566
  481MOL0     H64885   5.963   7.044   3.428 -2.2232 -2.3664 -0.2737
  481MOL0     H64886   5.679   7.307   3.437  0.0223 -2.2608 -2.8267
  481MOL0     H64887   5.833   7.646   3.302 -1.1412  1.2411  0.4981
  481MOL0     H64888   5.696   7.536   3.253 -0.6219  0.7790 -0.0291
  481MOL0     H64889   5.766   7.608   3.522 -0.2849  2.4139  0.1677
  481MOL0     H64890   5.610   7.538   3.480  0.1859  0.2646 -1.8826
  481MOL0     H64891   5.556   7.736   3.345  1.3070  2.0303 -1.6995
  481MOL0     H64892   5.691   7.831   3.413 -2.0009  1.7592  1.6469
  481MOL0     H64893   5.507   7.901   3.555  1.6219  0.6046  1.3693
  481MOL0     H64894   5.584   7.776   3.643  1.2711  2.7817 -0.2361
  481MOL0     H64895   5.213   7.571   3.525 -1.0339 -0.8340 -0.4798
  481MOL0     H64896   5.059   7.463   3.414  3.0057  0.0628 -1.7912
  481MOL0     H64897   4.908   7.571   3.426 -0.7432  4.6217 -1.5478
  481MOL0     H64898   4.979   7.532   3.271 -4.2181  0.3340  1.4212
  481MOL0     H64899   4.824   7.538   3.024  1.7194  2.3213  2.4485
  481MOL0     H64900   4.661   7.527   2.858  3.4903  1.3607 -2.0289
  481MOL0     H64901   4.336   7.862   2.885 -0.8462 -0.8938  0.1213
  481MOL0     H64902   4.433   7.932   2.755  0.2466 -0.7062  0.6643
  481MOL0     H64903   4.291   7.862   2.610 -0.6822 -0.9712 -0.7137
  481MOL0     H64904   4.301   7.701   2.653  0.0980  0.8497 -1.3480
  481MOL0     H64905   4.112   7.893   2.791 -1.1920 -0.5840  0.9787
  481MOL0     H64906   4.138   7.719   2.849 -1.0174 -1.7809 -1.5345
  481MOL0     H64907   4.050   7.789   2.568 -0.8385  0.2983 -0.4501
  481MOL0     H64908   4.070   7.623   2.645 -1.1649 -0.5472 -0.0666
  481MOL0     H64909   3.870   7.804   2.774  3.7179  2.1642 -2.1768
  481MOL0     H64910   3.883   7.619   2.761  0.2378  0.2228  0.4710
  481MOL0     H64911   3.821   7.640   2.515 -3.2503 -0.9120 -0.7369
  481MOL0     H64912   3.697   7.673   2.641 -0.5418 -0.5557 -0.4755
  481MOL0     H64913   3.864   7.862   2.497 -0.6917 -0.6872 -1.9434
  481MOL0     H64914   3.739   7.914   2.604  2.5496  1.6663 -0.8209
  481MOL0     H64915   3.719   7.807   2.316 -1.8830  0.0656 -0.3144
  481MOL0     H64916   3.639   7.935   2.376 -3.1108 -0.5820  0.0402
  481MOL0     H64917   4.554   7.940   2.943 -0.1913 -0.0678  1.6447
  481MOL0     H64918   4.753   7.943   3.088  1.4295 -0.9581 -0.3252
  481MOL0     H64919   5.214   7.930   3.195  0.1613 -0.5738 -0.3159
  481MOL0     H64920   5.398   7.912   3.359 -0.0990  0.9001  2.1501
  481MOL0     H64921   5.857   6.729   4.428  0.8115 -0.3644  0.4171
  481MOL0     H64922   5.724   6.598   4.574 -0.8046  0.7930 -1.4402
  481MOL0     H64923   5.426   6.315   4.643 -0.3689  3.7500  1.3521
  481MOL0     H64924   5.260   6.252   4.833  0.6345 -5.3563  0.3450
  481MOL0     H64925   5.406   6.094   5.195  0.3588  0.9975  5.6129
  481MOL0     H64926   5.369   6.260   5.221  2.5917 -1.5193  3.1564
  481MOL0     H64927   5.230   6.114   5.359  1.5991 -2.0593 -0.3307
  481MOL0     H64928   5.182   6.017   5.216  1.1164 -0.4487 -1.1794
  481MOL0     H64929   5.063   6.191   5.122  0.8291 -1.8985 -0.3039
  481MOL0     H64930   5.109   6.314   5.237 -0.5579  0.4215  1.6772
  481MOL0     H64931   4.969   6.156   5.411 -2.4524  0.6478  0.1969
  481MOL0     H64932   4.922   6.070   5.266  2.2167 -0.6441 -1.1894
  481MOL0     H64933   4.651   6.383   5.242 -0.4890 -1.7436  3.9460
  481MOL0     H64934   5.585   6.176   5.086  0.8692 -0.3129 -0.5791
  481MOL0     H64935   5.749   6.239   4.922  0.5690  1.2314  1.1196
  482MOL0     O64936  10.364   0.434   2.395 -0.3512  0.2520 -0.8292
  482MOL0     C64937  10.459   0.384   2.348  0.1654  0.3162  0.4008
  482MOL0     O64938  10.500   0.250   2.356 -0.4867  0.6146  0.1467
  482MOL0     C64939  10.419   0.144   2.390 -0.1464 -0.7506  0.3345
  482MOL0     C64940  10.468   0.058   2.476 -0.3171  0.8898  0.7122
  482MOL0     C64941  10.407  -0.064   2.499  0.8292  0.4081  0.0835
  482MOL0     C64942  10.278  -0.088   2.448 -0.2568  0.4766 -0.1916
  482MOL0     O64943  10.237  -0.220   2.468  0.7440 -0.2416  0.3365
  482MOL0     C64944  10.095  -0.245   2.447 -0.6714 -0.0235 -0.0514
  482MOL0     C64945  10.052  -0.392   2.467  0.1988 -0.7877 -0.3372
  482MOL0     C64946  10.102  -0.485   2.350  0.9881  0.4732 -0.7774
  482MOL0     C64947  10.038  -0.632   2.354 -0.1297 -0.8465 -0.0740
  482MOL0     C64948  10.090  -0.708   2.227  1.1982 -0.0507 -0.1431
  482MOL0     C64949  10.012  -0.844   2.212 -0.9438  0.1480 -0.0253
  482MOL0     C64950  10.018  -0.882   2.064  0.1217 -0.3870  1.1997
  482MOL0     C64951   9.921  -0.990   2.031  0.4473  0.2911 -0.2855
  482MOL0     N64952   9.911  -1.021   1.890 -0.4166 -0.2284  0.5695
  482MOL0     C64953   9.895  -0.926   1.799  1.2387 -0.3449 -0.7999
  482MOL0     C64954   9.913  -0.982   1.685  0.1990  0.9536  0.5520
  482MOL0     C64955   9.890  -0.912   1.549  0.3131 -0.2987  0.0851
  482MOL0     C64956  10.002  -0.823   1.504 -0.2720  0.7379  0.2060
  482MOL0     C64957   9.965  -0.761   1.365 -0.2787  0.1500  0.6897
  482MOL0     C64958  10.085  -0.702   1.305 -0.6296 -0.4472 -0.0702
  482MOL0     O64959  10.124  -0.590   1.385  0.0378  0.1203 -0.1591
  482MOL0     C64960  10.236  -0.518   1.355 -0.4703 -0.3186  0.1054
  482MOL0     C64961  10.297  -0.438   1.449 -0.2528  0.0264  0.4424
  482MOL0     C64962  10.411  -0.355   1.433  0.3403 -0.0270  0.1773
  482MOL0     C64963  10.465  -0.277   1.553  0.3747  0.8048  0.6970
  482MOL0     C64964  10.470  -0.360   1.304  0.2127  0.7546 -0.0896
  482MOL0     C64965  10.597  -0.285   1.264  0.6998 -0.2604  0.4852
  482MOL0     O64966  10.692  -0.266   1.365  0.6911  0.2743 -0.5047
  482MOL0     C64967  10.786  -0.171   1.348  0.4502  0.0115  0.4532
  482MOL0     C64968  10.917  -0.221   1.349 -0.1192 -0.0861  0.0359
  482MOL0     C64969  11.022  -0.132   1.339  0.0010  0.6145  0.7288
  482MOL0     C64970  11.006   0.001   1.325  0.2389 -0.4516  0.4923
  482MOL0     O64971  11.122   0.064   1.289  0.1015  1.0506  0.3445
  482MOL0     C64972  11.121   0.151   1.181 -0.0560  0.9918  0.3228
  482MOL0     C64973  11.226   0.259   1.205 -0.4711  0.1018 -0.0162
  482MOL0     C64974  11.217   0.360   1.083 -0.4222 -0.2869 -0.1894
  482MOL0     C64975  11.319   0.476   1.103  0.8379 -0.1589 -0.3864
  482MOL0     C64976  11.324   0.558   0.977 -0.9375  0.1815 -0.4478
  482MOL0     C64977  11.378   0.699   1.000  0.4928  0.4046  0.0455
  482MOL0     C64978  11.409   0.770   0.870  0.0392  0.9148  0.4611
  482MOL0     C64979  11.452   0.917   0.900  0.9270 -0.1877 -0.2944
  482MOL0    Cl64980  11.624   0.919   0.967  0.0546  0.0146 -0.1559
  482MOL0     C64981  10.874   0.058   1.322 -0.5183  0.5742 -0.5131
  482MOL0     C64982  10.765  -0.032   1.330  0.1608 -0.2548 -0.3383
  482MOL0     O64983  10.617  -0.260   1.145  0.8055 -0.3109 -0.4330
  482MOL0     C64984  10.406  -0.434   1.208  0.3674  0.5127 -0.0615
  482MOL0     C64985  10.291  -0.503   1.229  0.5553 -1.2556  0.3679
  482MOL0     N64986   9.939  -1.119   1.701 -0.3806 -0.0053 -0.3008
  482MOL0     N64987   9.944  -1.136   1.832 -0.0015 -0.2768 -0.1667
  482MOL0     C64988  10.216   0.005   2.360  1.0492 -1.2209 -0.0923
  482MOL0     C64989  10.287   0.129   2.341 -0.0334 -0.2469 -1.3122
  482MOL0     C64990  10.549   0.482   2.261 -0.4231 -0.0013 -0.9123
  482MOL0     C64991  10.662   0.433   2.186 -0.0775  0.0364 -1.0792
  482MOL0     C64992  10.735   0.519   2.109  0.5768 -0.5874 -1.4307
  482MOL0     C64993  10.699   0.654   2.094  0.7244 -0.0141 -0.2118
  482MOL0     O64994  10.782   0.724   2.012  0.1428 -0.2791  0.2379
  482MOL0     C64995  10.725   0.839   1.947 -0.7206 -0.4394 -0.2314
  482MOL0     C64996  10.808   0.861   1.826 -0.0406  0.2823  1.7302
  482MOL0     C64997  10.749   0.761   1.715  0.7916  0.4871  0.4708
  482MOL0     C64998  10.846   0.764   1.594 -0.3389 -0.0184  0.1706
  482MOL0     C64999  10.980   0.712   1.635 -0.3654 -0.6851  0.2225
  482MOL0     C65000  11.084   0.665   1.674 -0.4721  0.3469 -0.0107
  482MOL0     C65001  10.575   0.701   2.159  0.0138  0.6425 -0.1545
  482MOL0     C65002  10.510   0.613   2.249 -0.8298 -0.5534 -0.4496
  482MOL0     H65003  10.565   0.081   2.519  0.0760  1.0246 -0.2076
  482MOL0     H65004  10.450  -0.139   2.565 -0.7638 -1.1652 -0.5743
  482MOL0     H65005  10.027  -0.188   2.511 -0.6373  1.2251 -1.1060
  482MOL0     H65006  10.062  -0.210   2.349 -1.3700  0.0287  0.1896
  482MOL0     H65007  10.087  -0.423   2.565 -1.5216 -0.1807  0.5185
  482MOL0     H65008   9.943  -0.392   2.472  0.0671  0.4926 -2.1498
  482MOL0     H65009  10.092  -0.431   2.255 -1.6908  1.1852 -0.1756
  482MOL0     H65010  10.207  -0.507   2.371  0.9488  0.1301 -0.9290
  482MOL0     H65011  10.053  -0.676   2.453  0.8806  0.0390  0.1901
  482MOL0     H65012   9.931  -0.617   2.337 -0.0314 -1.6340 -1.5019
  482MOL0     H65013  10.064  -0.648   2.139 -1.0286  2.8862  2.2906
  482MOL0     H65014  10.199  -0.716   2.231  1.2795  1.2466  0.9090
  482MOL0     H65015  10.055  -0.923   2.275 -1.4909  1.2511  1.8213
  482MOL0     H65016   9.908  -0.831   2.243 -1.5728 -2.7035 -0.6384
  482MOL0     H65017   9.990  -0.793   2.007  0.6072  2.1926  4.6782
  482MOL0     H65018  10.119  -0.909   2.034 -0.0539  0.9359 -0.7338
  482MOL0     H65019   9.825  -0.957   2.073  0.1566 -2.3100  1.3034
  482MOL0     H65020   9.938  -1.093   2.063  0.7296  0.2654 -0.5159
  482MOL0     H65021   9.863  -0.823   1.813 -0.7180 -1.1460  1.2544
  482MOL0     H65022   9.872  -0.989   1.473  0.5554  0.4320 -0.7185
  482MOL0     H65023   9.803  -0.846   1.557 -0.9874 -1.7418 -1.4832
  482MOL0     H65024  10.095  -0.879   1.496  0.2553  1.2932  2.0614
  482MOL0     H65025  10.006  -0.741   1.576 -0.7399  0.5376  0.4648
  482MOL0     H65026   9.887  -0.685   1.378 -0.0330  0.4593  0.3647
  482MOL0     H65027   9.927  -0.848   1.310  1.2312 -0.9020  1.2169
  482MOL0     H65028  10.054  -0.687   1.202  6.8603  1.8772 -2.6793
  482MOL0     H65029  10.170  -0.771   1.290  0.6962  1.5795 -2.7388
  482MOL0     H65030  10.266  -0.442   1.553  1.9365  0.6364  1.1743
  482MOL0     H65031  10.384  -0.244   1.620 -0.7800 -1.1337  0.3471
  482MOL0     H65032  10.537  -0.338   1.608  0.2794 -1.9039 -1.9208
  482MOL0     H65033  10.517  -0.186   1.524 -0.4376  1.4624  1.2530
  482MOL0     H65034  10.933  -0.328   1.359  0.1351 -0.2020 -1.4134
  482MOL0     H65035  11.126  -0.165   1.342 -0.4472 -1.2346 -1.8299
  482MOL0     H65036  11.156   0.091   1.097  2.1749  0.9992  1.1689
  482MOL0     H65037  11.021   0.190   1.158 -0.4956 -1.0318 -1.5251
  482MOL0     H65038  11.206   0.305   1.302  1.5251  0.2647  0.3595
  482MOL0     H65039  11.326   0.214   1.209 -1.0159 -1.0883  2.7995
  482MOL0     H65040  11.114   0.395   1.073 -1.4802 -3.0539  0.1729
  482MOL0     H65041  11.242   0.299   0.996 -2.9162 -2.2137  0.3389
  482MOL0     H65042  11.284   0.539   1.185 -2.3747 -0.9387 -1.0235
  482MOL0     H65043  11.418   0.446   1.139  1.4429  0.9011 -1.1440
  482MOL0     H65044  11.222   0.562   0.936 -2.3296  2.3552  2.7616
  482MOL0     H65045  11.396   0.500   0.920 -0.8835 -1.9693  1.6182
  482MOL0     H65046  11.293   0.744   1.052 -1.4246  1.1929 -3.4767
  482MOL0     H65047  11.465   0.680   1.065 -1.8593 -0.0497  3.2975
  482MOL0     H65048  11.312   0.758   0.821 -0.3813  0.1021  1.4487
  482MOL0     H65049  11.481   0.710   0.814  0.8616  0.3043  2.0935
  482MOL0     H65050  11.380   0.969   0.964 -0.7067 -3.1583  0.4991
  482MOL0     H65051  11.450   0.966   0.802  3.9421 -1.0711 -0.9026
  482MOL0     H65052  10.848   0.163   1.318 -0.3344  0.9406  3.7143
  482MOL0     H65053  10.665   0.010   1.334 -0.2216 -1.2334  2.4020
  482MOL0     H65054  10.439  -0.443   1.105 -1.5803  0.0610 -0.6832
  482MOL0     H65055  10.239  -0.544   1.143 -0.5735  0.0923  0.3589
  482MOL0     H65056  10.110  -0.007   2.337  0.2611  1.6418  1.5861
  482MOL0     H65057  10.231   0.206   2.289 -2.0882 -0.5956  0.2598
  482MOL0     H65058  10.692   0.329   2.192 -1.1271 -0.2060  1.6281
  482MOL0     H65059  10.822   0.495   2.049 -0.1130  1.0863 -3.2228
  482MOL0     H65060  10.622   0.841   1.912 -1.4385  2.3798  1.7182
  482MOL0     H65061  10.734   0.921   2.019 -0.6268 -1.1488  0.5824
  482MOL0     H65062  10.913   0.846   1.851  0.1297  0.2590  1.0236
  482MOL0     H65063  10.800   0.966   1.795 -2.4786 -0.4980 -0.6687
  482MOL0     H65064  10.655   0.805   1.681 -1.3306 -4.2566 -0.6575
  482MOL0     H65065  10.725   0.665   1.761  0.2666 -1.5331 -3.5153
  482MOL0     H65066  10.858   0.867   1.558 -2.1976  0.1204 -0.1640
  482MOL0     H65067  10.807   0.698   1.515 -1.6407 -1.1502  1.6917
  482MOL0     H65068  11.182   0.629   1.700 -1.4879 -0.5845  2.8895
  482MOL0     H65069  10.555   0.806   2.143  3.1985  1.2077 -1.2378
  482MOL0     H65070  10.434   0.658   2.311  1.5261  0.1620  2.1328
  483MOL0     O65071   4.900   5.458  10.964  0.6578  0.2873  0.4112
  483MOL0     C65072   4.828   5.369  10.926  0.0594  1.0021  0.1906
  483MOL0     O65073   4.868   5.262  10.848  0.7420 -0.4137 -0.5083
  483MOL0     C65074   4.996   5.249  10.788 -0.7270 -1.5924 -0.0273
  483MOL0     C65075   5.092   5.355  10.764 -0.1329 -0.0682 -0.2758
  483MOL0     C65076   5.217   5.317  10.703 -0.1398 -0.3050 -0.0719
  483MOL0     C65077   5.236   5.186  10.663 -0.7698 -0.2359 -1.2946
  483MOL0     O65078   5.361   5.159  10.620 -0.0496 -0.3801 -0.1940
  483MOL0     C65079   5.376   5.067  10.515 -0.5629 -0.4622  0.4707
  483MOL0     C65080   5.377   5.150  10.387 -0.6321 -0.0212  0.3569
  483MOL0     C65081   5.235   5.204  10.361 -0.5294 -0.6750  0.1801
  483MOL0     C65082   5.218   5.278  10.227 -0.3807  0.3950 -0.5407
  483MOL0     C65083   5.061   5.300  10.199 -0.3583 -0.6302  0.8453
  483MOL0     C65084   4.990   5.399  10.284  0.0587  1.0238  0.4211
  483MOL0     C65085   4.830   5.386  10.280 -0.1764 -0.6613 -0.1261
  483MOL0     C65086   4.768   5.521  10.348 -0.1012  0.5436 -0.2689
  483MOL0     N65087   4.622   5.505  10.357 -0.5136 -0.9573 -0.6522
  483MOL0     C65088   4.569   5.439  10.462  0.6164  0.4714 -1.1953
  483MOL0     C65089   4.440   5.406  10.411 -0.3685  1.2200  0.2346
  483MOL0     C65090   4.351   5.292  10.448 -0.5831  0.0458 -0.7337
  483MOL0     C65091   4.213   5.346  10.497 -0.0185 -0.8921  0.7224
  483MOL0     C65092   4.152   5.267  10.625 -0.6056 -0.2070  0.9920
  483MOL0     C65093   4.009   5.329  10.665  0.1959 -0.7330  0.1240
  483MOL0     O65094   3.926   5.334  10.547 -0.1130  0.0471  0.3755
  483MOL0     C65095   3.788   5.337  10.548 -0.2799  0.8330 -0.2238
  483MOL0     C65096   3.715   5.350  10.672  0.1217  0.7039  0.8629
  483MOL0     C65097   3.575   5.365  10.677 -0.6905  0.5096  0.1503
  483MOL0     C65098   3.515   5.415  10.802 -0.9793  0.0953 -0.4236
  483MOL0     C65099   3.503   5.359  10.549 -0.0615  0.2802 -0.4288
  483MOL0     C65100   3.359   5.362  10.532  0.1863 -0.1153 -0.0331
  483MOL0     O65101   3.318   5.375  10.405 -0.4755 -0.2862 -0.6408
  483MOL0     C65102   3.191   5.328  10.363  0.0278  0.2647  0.2972
  483MOL0     C65103   3.188   5.260  10.243  1.0227 -0.0841 -0.7977
  483MOL0     C65104   3.068   5.209  10.196  0.3525  0.4957 -0.1596
  483MOL0     C65105   2.957   5.217  10.272  0.4424  0.1252 -0.1022
  483MOL0     O65106   2.836   5.167  10.237  0.1499  0.9886  0.0748
  483MOL0     C65107   2.772   5.238  10.130 -0.4937  0.2056  0.1656
  483MOL0     C65108   2.621   5.215  10.127  0.3772  0.4029 -0.4225
  483MOL0     C65109   2.585   5.066  10.122 -0.0418 -0.4424  0.0029
  483MOL0     C65110   2.640   5.005   9.991  0.2720  0.8198 -0.3896
  483MOL0     C65111   2.585   4.869   9.980  0.7527 -0.2556  0.1393
  483MOL0     C65112   2.612   4.800   9.843  0.4297 -0.2402  0.4959
  483MOL0     C65113   2.541   4.657   9.821  0.2987  0.1121  0.4945
  483MOL0     C65114   2.391   4.632   9.847 -0.3511 -1.5097 -0.0059
  483MOL0    Cl65115   2.301   4.756   9.744 -0.6121 -0.3088 -0.2907
  483MOL0     C65116   2.955   5.287  10.395 -0.7853 -0.9738 -0.1073
  483MOL0     C65117   3.072   5.341  10.436 -0.0325 -0.4409 -0.4093
  483MOL0     O65118   3.285   5.346  10.631  0.1009  0.3593  0.0481
  483MOL0     C65119   3.576   5.333  10.433 -0.8760  0.6582 -0.9582
  483MOL0     C65120   3.715   5.317  10.430 -0.0924 -1.3258 -0.8667
  483MOL0     N65121   4.421   5.469  10.285 -0.5099  0.3865 -0.4103
  483MOL0     N65122   4.535   5.532  10.258  0.7633 -0.2783  0.0119
  483MOL0     C65123   5.149   5.084  10.692  0.4431  0.2942  0.2635
  483MOL0     C65124   5.019   5.119  10.742  0.2201 -0.2396 -0.3629
  483MOL0     C65125   4.683   5.379  10.958  0.0989 -0.3148 -0.0274
  483MOL0     C65126   4.593   5.272  10.924 -0.3809 -0.3822  0.5717
  483MOL0     C65127   4.456   5.287  10.944 -0.5776  0.0526  1.2047
  483MOL0     C65128   4.405   5.398  10.985  0.0875 -0.9354 -0.7249
  483MOL0     O65129   4.269   5.407  10.987 -0.0844  1.1081 -0.1775
  483MOL0     C65130   4.195   5.511  11.043  0.3324 -0.1995  0.6057
  483MOL0     C65131   4.043   5.509  11.006  0.3075 -0.4297  0.2020
  483MOL0     C65132   3.963   5.606  11.085 -0.3720  0.6237 -0.0153
  483MOL0     C65133   3.817   5.601  11.053  0.6648  0.4694 -0.3312
  483MOL0     C65134   3.795   5.689  10.943 -0.0679  0.4441 -0.2981
  483MOL0     C65135   3.778   5.757  10.850  0.7302 -0.5151 -0.4476
  483MOL0     C65136   4.485   5.505  11.024  0.4218 -0.2299  0.8847
  483MOL0     C65137   4.622   5.494  11.017 -0.6482  0.3137  0.1784
  483MOL0     H65138   5.079   5.457  10.800  1.5351  0.4633 -1.0817
  483MOL0     H65139   5.285   5.398  10.680  0.4720 -1.0918 -1.1380
  483MOL0     H65140   5.473   5.017  10.518 -0.0936  0.3270 -0.7261
  483MOL0     H65141   5.299   4.992  10.496 -1.6036  1.0839 -1.8545
  483MOL0     H65142   5.444   5.236  10.382 -1.6467  0.8133  0.6860
  483MOL0     H65143   5.399   5.081  10.305  4.0421 -2.6136  3.4120
  483MOL0     H65144   5.171   5.116  10.369 -0.7466 -0.5334 -0.0046
  483MOL0     H65145   5.197   5.272  10.438  3.5649  0.9015  1.0616
  483MOL0     H65146   5.280   5.368  10.230 -2.6514  2.1313  4.2626
  483MOL0     H65147   5.256   5.202  10.159  3.0353 -1.1028  2.7283
  483MOL0     H65148   5.035   5.327  10.096 -2.0469  1.0956  1.6525
  483MOL0     H65149   5.024   5.197  10.212  0.1600 -0.7029  1.8037
  483MOL0     H65150   5.018   5.398  10.390  0.2006 -1.1869  0.4153
  483MOL0     H65151   5.031   5.492  10.243 -0.7547  2.8655  3.4325
  483MOL0     H65152   4.789   5.363  10.181 -0.4825  0.5179 -0.2839
  483MOL0     H65153   4.800   5.300  10.340  1.5257 -0.5057  1.0369
  483MOL0     H65154   4.792   5.610  10.290 -0.9740  1.0876  0.1797
  483MOL0     H65155   4.819   5.538  10.443 -0.8183  2.2774 -0.1532
  483MOL0     H65156   4.616   5.380  10.540 -2.2628 -1.6513 -0.9187
  483MOL0     H65157   4.330   5.229  10.361  1.6305  0.8653 -1.9708
  483MOL0     H65158   4.388   5.227  10.527 -0.3746 -1.8891 -2.3363
  483MOL0     H65159   4.138   5.326  10.419 -0.0815  0.7323  0.3193
  483MOL0     H65160   4.207   5.454  10.516 -1.3411 -0.0757 -3.3522
  483MOL0     H65161   4.217   5.284  10.711  0.4514  4.8146 -0.4707
  483MOL0     H65162   4.134   5.162  10.601 -1.2007  0.0460  0.2808
  483MOL0     H65163   4.010   5.430  10.707 -0.6510 -0.1681 -1.1508
  483MOL0     H65164   3.956   5.261  10.732 -2.1089 -1.2473 -2.0846
  483MOL0     H65165   3.767   5.365  10.766  0.9110  1.6330  0.3004
  483MOL0     H65166   3.457   5.507  10.788  1.0633  1.4711 -0.2967
  483MOL0     H65167   3.451   5.334  10.838 -1.3010  0.7442  0.4978
  483MOL0     H65168   3.600   5.433  10.868  0.2342 -1.6345 -1.4497
  483MOL0     H65169   3.271   5.257  10.173  1.8976 -0.3794  0.2236
  483MOL0     H65170   3.066   5.167  10.096  0.6180  0.6877 -0.2475
  483MOL0     H65171   2.778   5.347  10.134 -0.4738  0.2608 -1.0130
  483MOL0     H65172   2.812   5.200  10.035  1.0909  2.3047 -0.0781
  483MOL0     H65173   2.564   5.262  10.208  1.5828  0.0393  0.6641
  483MOL0     H65174   2.585   5.267  10.038  0.4033  3.9958  1.4688
  483MOL0     H65175   2.476   5.056  10.125 -0.0611 -0.1977  0.2195
  483MOL0     H65176   2.616   5.010  10.210 -1.0853 -1.5031 -0.2857
  483MOL0     H65177   2.604   5.070   9.911 -2.1932  1.9689  1.4915
  483MOL0     H65178   2.748   4.991  10.000  0.2618  1.7221  2.0511
  483MOL0     H65179   2.479   4.872  10.007  0.7602  1.8200  0.1486
  483MOL0     H65180   2.632   4.805  10.054 -0.0847 -1.4695 -0.3619
  483MOL0     H65181   2.581   4.865   9.761 -0.1755  0.1170  0.9997
  483MOL0     H65182   2.721   4.791   9.833  0.1540 -2.7374 -1.2088
  483MOL0     H65183   2.601   4.582   9.874  2.0136  1.3003  0.3217
  483MOL0     H65184   2.548   4.635   9.714  0.4126 -1.0177  0.7173
  483MOL0     H65185   2.364   4.659   9.949 -1.9172  0.1774 -0.8086
  483MOL0     H65186   2.369   4.525   9.838  1.0967 -1.8592  0.3177
  483MOL0     H65187   2.871   5.284  10.463 -0.9587 -1.7500 -0.3447
  483MOL0     H65188   3.077   5.400  10.527  0.5986 -0.4036 -0.4637
  483MOL0     H65189   3.542   5.318  10.332  5.7712  3.2931 -4.2421
  483MOL0     H65190   3.763   5.286  10.338 -0.2310  0.0051 -1.4211
  483MOL0     H65191   5.182   4.983  10.671 -0.3342 -0.1593  1.1183
  483MOL0     H65192   4.944   5.043  10.760  1.6399 -1.7703 -0.6113
  483MOL0     H65193   4.624   5.175  10.886 -4.2615 -1.8895  0.7335
  483MOL0     H65194   4.391   5.202  10.924 -0.0427  0.3260 -2.4349
  483MOL0     H65195   4.209   5.508  11.151 -0.5341  0.2636  0.7357
  483MOL0     H65196   4.234   5.605  11.004 -0.1574 -0.2136  0.0743
  483MOL0     H65197   4.008   5.409  11.035  1.7483 -0.2805  2.7545
  483MOL0     H65198   4.029   5.529  10.900 -1.8498 -1.7303  0.1821
  483MOL0     H65199   4.006   5.703  11.059 -2.1096  0.8907 -2.2213
  483MOL0     H65200   3.981   5.587  11.191  0.2053 -1.0960 -0.3993
  483MOL0     H65201   3.771   5.653  11.139  2.0856 -2.6765  2.5369
  483MOL0     H65202   3.777   5.501  11.033  1.0525  0.4084 -0.8200
  483MOL0     H65203   3.768   5.831  10.773 -0.4641  2.7330  2.5667
  483MOL0     H65204   4.436   5.592  11.067 -0.4121 -0.1815 -0.1154
  483MOL0     H65205   4.686   5.578  11.041  1.8007 -1.6894  1.0077
  484MOL0     O65206   2.965  11.235   2.191  0.4832  0.1343  0.2068
  484MOL0     C65207   2.961  11.121   2.150  0.4649 -0.4936  0.0029
  484MOL0     O65208   2.917  11.082   2.016 -0.2034  0.2846  0.5285
  484MOL0     C65209   2.862  11.160   1.920  0.8449  0.0031  0.4780
  484MOL0     C65210   2.805  11.286   1.947 -0.5728  0.4198  0.5078
  484MOL0     C65211   2.747  11.365   1.853 -0.8906 -0.2516 -1.0226
  484MOL0     C65212   2.757  11.334   1.719  0.1505 -0.0082  0.6047
  484MOL0     O65213   2.698  11.404   1.621 -0.3284 -0.4112 -0.1296
  484MOL0     C65214   2.634  11.529   1.638 -0.5059 -0.4986  1.0345
  484MOL0     C65215   2.525  11.541   1.530  0.0520  0.7377 -0.6971
  484MOL0     C65216   2.580  11.561   1.390  0.9819  0.3025  0.5841
  484MOL0     C65217   2.486  11.624   1.280 -0.1889  0.1495 -0.6424
  484MOL0     C65218   2.432  11.766   1.314 -1.0794 -0.1527 -0.9133
  484MOL0     C65219   2.397  11.856   1.192 -0.0743  0.2778  0.7679
  484MOL0     C65220   2.250  11.828   1.151  0.7451  0.4483 -0.1722
  484MOL0     C65221   2.141  11.880   1.243  0.1740  0.5307  0.5384
  484MOL0     N65222   2.059  11.985   1.173  0.9081 -0.4003 -0.7082
  484MOL0     C65223   1.920  11.969   1.152 -0.4024 -0.6633 -0.3576
  484MOL0     C65224   1.884  12.077   1.070 -0.7153 -0.5975  0.0464
  484MOL0     C65225   1.748  12.079   1.006  0.2532 -0.0770  0.3435
  484MOL0     C65226   1.732  12.185   0.891  0.2120  0.5229 -1.1644
  484MOL0     C65227   1.809  12.112   0.783 -0.2941  0.3731  0.5336
  484MOL0     C65228   1.797  12.168   0.646  0.1388  0.2576 -0.1612
  484MOL0     O65229   1.666  12.204   0.600  0.2950  0.2114 -0.4482
  484MOL0     C65230   1.613  12.331   0.619  0.4858  0.6027  0.0060
  484MOL0     C65231   1.685  12.447   0.665 -0.3488 -0.0448 -0.5909
  484MOL0     C65232   1.634  12.579   0.664 -0.0377 -0.1004  0.4457
  484MOL0     C65233   1.738  12.688   0.692 -0.0458 -0.8252 -0.0248
  484MOL0     C65234   1.493  12.594   0.657  0.4055  0.4787  0.0127
  484MOL0     C65235   1.417  12.722   0.687 -0.5917 -0.3416 -0.4888
  484MOL0     O65236   1.278  12.721   0.667 -0.5019  0.0091 -0.4893
  484MOL0     C65237   1.218  12.843   0.696 -0.1666  0.5175 -1.0378
  484MOL0     C65238   1.180  12.936   0.608 -0.1038 -1.1192  0.8949
  484MOL0     C65239   1.118  13.056   0.649  0.3606  0.7548  0.6060
  484MOL0     C65240   1.085  13.080   0.776  0.9922 -0.0754 -0.1489
  484MOL0     O65241   1.001  13.182   0.810 -0.3006  0.3627 -0.3280
  484MOL0     C65242   1.045  13.315   0.784  0.7436  0.9017 -0.8131
  484MOL0     C65243   0.936  13.409   0.828 -0.5001 -0.4353 -0.4856
  484MOL0     C65244   0.801  13.392   0.755 -0.2444 -0.4630 -0.9176
  484MOL0     C65245   0.743  13.532   0.719  0.5690 -0.2553  0.7951
  484MOL0     C65246   0.587  13.530   0.685  0.0024 -0.1548 -0.2798
  484MOL0     C65247   0.497  13.463   0.802  0.9427 -0.3335  0.7274
  484MOL0     C65248   0.347  13.495   0.776 -0.4767 -0.3583 -0.2113
  484MOL0     C65249   0.252  13.427   0.869  0.1064  0.7490  0.0441
  484MOL0    Cl65250   0.085  13.451   0.796 -0.1723 -0.7243  0.2884
  484MOL0     C65251   1.106  12.984   0.869 -0.0936 -0.1507 -0.7359
  484MOL0     C65252   1.186  12.866   0.833 -0.4071 -0.5998  0.9151
  484MOL0     O65253   1.483  12.809   0.736  0.8057  0.2577 -0.0159
  484MOL0     C65254   1.419  12.480   0.634  1.3418  0.0348  0.8561
  484MOL0     C65255   1.476  12.351   0.606 -0.8184 -0.2730  0.1734
  484MOL0     N65256   1.995  12.158   1.055 -0.6363  0.7871  0.9739
  484MOL0     N65257   2.101  12.099   1.116  0.2856  0.0933  0.2821
  484MOL0     C65258   2.811  11.213   1.684  0.1733  0.0193  0.4682
  484MOL0     C65259   2.859  11.129   1.786  0.6893 -0.1745 -0.0080
  484MOL0     C65260   2.997  11.017   2.244 -0.7064 -0.7023  0.1779
  484MOL0     C65261   2.941  10.896   2.218  0.2813 -0.8976 -0.0298
  484MOL0     C65262   2.943  10.792   2.313  0.2492  0.0993  0.5946
  484MOL0     C65263   3.010  10.811   2.429 -0.2817  0.5678  0.4931
  484MOL0     O65264   3.017  10.693   2.510 -0.0462  0.0235  0.4033
  484MOL0     C65265   2.882  10.657   2.557 -0.2840 -0.0403  0.4851
  484MOL0     C65266   2.894  10.610   2.708  1.1836  0.4314  0.2407
  484MOL0     C65267   2.993  10.693   2.794 -0.8985  0.8263 -0.2212
  484MOL0     C65268   3.038  10.620   2.922  0.5455  0.6994 -0.1188
  484MOL0     C65269   3.138  10.691   3.000 -0.4291  0.4623 -0.1411
  484MOL0     C65270   3.208  10.763   3.058 -0.7699  0.0359 -0.4588
  484MOL0     C65271   3.075  10.929   2.459  0.1854 -0.4356 -0.1440
  484MOL0     C65272   3.066  11.042   2.367 -0.1374  0.2220 -0.4164
  484MOL0     H65273   2.805  11.321   2.050  1.3182  0.2982  0.5703
  484MOL0     H65274   2.698  11.458   1.877 -0.8814 -0.5050  0.0667
  484MOL0     H65275   2.580  11.536   1.733  0.5559  2.2931  1.5382
  484MOL0     H65276   2.697  11.617   1.655 -1.7670  0.4884  0.7440
  484MOL0     H65277   2.452  11.460   1.524 -0.4960  1.2996 -1.9103
  484MOL0     H65278   2.463  11.627   1.556  0.8438  1.0724  0.1713
  484MOL0     H65279   2.679  11.608   1.384  1.6789 -1.0825  0.7165
  484MOL0     H65280   2.605  11.462   1.350 -3.7014 -0.4450 -1.0669
  484MOL0     H65281   2.538  11.627   1.184 -0.6493 -1.0874 -0.9529
  484MOL0     H65282   2.407  11.549   1.270 -2.2340  2.1405 -0.1861
  484MOL0     H65283   2.365  11.757   1.400 -0.8158 -0.6188 -0.7523
  484MOL0     H65284   2.517  11.820   1.357 -0.2743 -1.9854 -0.0812
  484MOL0     H65285   2.405  11.962   1.218 -1.3040 -0.5091  5.2144
  484MOL0     H65286   2.451  11.840   1.098 -0.9037 -0.2657  0.3804
  484MOL0     H65287   2.239  11.869   1.050 -0.4533  1.3472  0.3052
  484MOL0     H65288   2.244  11.720   1.135  1.2714  0.3555  0.2249
  484MOL0     H65289   2.181  11.913   1.339  0.3997 -0.3346  0.7526
  484MOL0     H65290   2.087  11.790   1.274  3.0377 -0.3851  3.4111
  484MOL0     H65291   1.855  11.890   1.186  1.4022 -1.0704  2.4586
  484MOL0     H65292   1.733  11.977   0.968  0.2689  0.0196  0.0809
  484MOL0     H65293   1.677  12.092   1.089 -0.7177  0.0754 -0.4882
  484MOL0     H65294   1.788  12.274   0.922 -0.3403 -0.5019  3.4430
  484MOL0     H65295   1.627  12.202   0.868 -0.2528  0.8107  0.9714
  484MOL0     H65296   1.779  12.008   0.765 -1.1004  1.1700 -3.6335
  484MOL0     H65297   1.912  12.116   0.818 -0.5156  1.8892  1.0594
  484MOL0     H65298   1.846  12.102   0.574 -0.2051  0.5332 -0.6516
  484MOL0     H65299   1.867  12.252   0.641 -0.8250  1.2959  2.3290
  484MOL0     H65300   1.790  12.442   0.690 -0.5314  1.9399  0.8448
  484MOL0     H65301   1.836  12.645   0.669 -0.0882 -1.7678  1.4049
  484MOL0     H65302   1.729  12.777   0.629 -0.6614 -1.2351 -0.5289
  484MOL0     H65303   1.731  12.718   0.797 -2.2537 -0.4458 -0.2263
  484MOL0     H65304   1.222  12.928   0.508  0.7118  2.3521  0.8194
  484MOL0     H65305   1.096  13.131   0.573  1.2148  0.0568 -0.3613
  484MOL0     H65306   1.134  13.341   0.842 -0.4440 -0.9702  2.0862
  484MOL0     H65307   1.064  13.340   0.680  1.0917  3.9857 -0.0978
  484MOL0     H65308   0.935  13.410   0.937 -1.0258 -1.2720 -0.4730
  484MOL0     H65309   0.978  13.505   0.797  1.9263 -1.7516 -1.5329
  484MOL0     H65310   0.735  13.349   0.830  0.0446  0.5109 -0.0876
  484MOL0     H65311   0.819  13.326   0.670  1.2776 -1.0292 -0.1953
  484MOL0     H65312   0.754  13.601   0.803 -1.5613  3.2084 -1.5247
  484MOL0     H65313   0.797  13.579   0.637  0.2802 -0.1542  0.6599
  484MOL0     H65314   0.578  13.463   0.598 -4.5557 -0.0873 -0.1164
  484MOL0     H65315   0.547  13.631   0.672  1.0634  0.2733 -0.2718
  484MOL0     H65316   0.499  13.355   0.788  3.3591 -0.2674  0.0271
  484MOL0     H65317   0.521  13.488   0.906 -1.6681  0.2782  1.2532
  484MOL0     H65318   0.325  13.453   0.678 -2.3199 -0.7832  0.3563
  484MOL0     H65319   0.331  13.603   0.781 -4.1075 -0.8403  1.8012
  484MOL0     H65320   0.267  13.473   0.967  3.9931  1.2542 -0.6372
  484MOL0     H65321   0.277  13.321   0.879 -1.2870  0.4792  0.9143
  484MOL0     H65322   1.069  12.994   0.971 -1.6196 -1.7691 -1.0721
  484MOL0     H65323   1.229  12.802   0.908  1.4226 -2.5295 -1.6136
  484MOL0     H65324   1.314  12.493   0.609  1.8608  1.5968 -0.7121
  484MOL0     H65325   1.409  12.275   0.567 -1.1261 -1.5998  3.0006
  484MOL0     H65326   2.802  11.193   1.578 -0.5304  2.0055  0.1110
  484MOL0     H65327   2.890  11.031   1.750 -1.3370 -1.3167  1.2149
  484MOL0     H65328   2.894  10.873   2.123  0.5319  0.1265 -0.4094
  484MOL0     H65329   2.880  10.706   2.291 -1.2042  1.1904  0.3438
  484MOL0     H65330   2.813  10.742   2.555 -1.9812 -1.3518 -0.1186
  484MOL0     H65331   2.838  10.569   2.507  1.2127 -0.4572 -0.1487
  484MOL0     H65332   2.921  10.504   2.711  1.2783  0.3320 -2.4900
  484MOL0     H65333   2.794  10.617   2.752 -0.9335 -1.8810 -3.7067
  484MOL0     H65334   2.956  10.787   2.835  1.6362  1.7150  0.2243
  484MOL0     H65335   3.084  10.703   2.735  0.2975 -4.0703  0.3686
  484MOL0     H65336   3.084  10.523   2.899  0.6787  0.4443  1.1262
  484MOL0     H65337   2.949  10.609   2.985  1.9309  0.9457  1.9706
  484MOL0     H65338   3.260  10.833   3.119  1.4640 -2.7972  1.1267
  484MOL0     H65339   3.127  10.939   2.554  4.1700  2.8939 -2.3439
  484MOL0     H65340   3.126  11.130   2.390  2.6198 -1.5306 -0.3672
  485MOL0     O65341   3.863   4.534   5.609 -0.4496  0.2511  0.7551
  485MOL0     C65342   3.860   4.488   5.721 -0.0008  0.8514 -0.4056
  485MOL0     O65343   3.764   4.516   5.816  0.1380  0.4761  0.7100
  485MOL0     C65344   3.657   4.602   5.776  0.4021  0.5873  0.6766
  485MOL0     C65345   3.677   4.731   5.726 -0.7449  0.2654  0.5275
  485MOL0     C65346   3.579   4.818   5.675 -0.3891  0.6748  0.6698
  485MOL0     C65347   3.448   4.770   5.674  0.0994 -0.0350 -0.2758
  485MOL0     O65348   3.344   4.841   5.626 -0.1568  0.4045 -0.7850
  485MOL0     C65349   3.378   4.952   5.540 -0.0512 -1.1963 -0.4029
  485MOL0     C65350   3.456   4.919   5.404  0.4142 -0.4124  0.2521
  485MOL0     C65351   3.456   5.027   5.300  0.1051  0.4607  0.4808
  485MOL0     C65352   3.487   5.167   5.341 -0.7317  0.4373  0.8187
  485MOL0     C65353   3.627   5.183   5.394  0.4334  0.4026  0.4911
  485MOL0     C65354   3.685   5.324   5.409 -0.0774 -0.3513 -0.5903
  485MOL0     C65355   3.826   5.336   5.465 -0.0596 -0.3189 -0.4482
  485MOL0     C65356   3.859   5.484   5.491 -0.0443  0.4953  0.2639
  485MOL0     N65357   3.815   5.534   5.623  0.1595  0.1331  0.6278
  485MOL0     C65358   3.781   5.662   5.659  0.6125  0.1063  0.2972
  485MOL0     C65359   3.790   5.668   5.786 -0.9238 -1.2638 -0.4661
  485MOL0     C65360   3.765   5.794   5.875 -0.2805 -0.2402  0.4298
  485MOL0     C65361   3.859   5.908   5.852  0.6973  0.0548  0.1545
  485MOL0     C65362   3.807   6.056   5.869 -1.1025  0.0179  0.2553
  485MOL0     C65363   3.687   6.086   5.786 -0.2029 -0.2095 -0.4270
  485MOL0     O65364   3.670   6.230   5.779  0.5758  0.3280  0.1168
  485MOL0     C65365   3.548   6.284   5.762  0.3198  0.7764  0.9118
  485MOL0     C65366   3.550   6.422   5.746 -0.3494 -0.0082  0.1779
  485MOL0     C65367   3.437   6.499   5.708 -1.0050  0.4900 -0.1800
  485MOL0     C65368   3.462   6.643   5.683  0.0611  0.0557 -0.5374
  485MOL0     C65369   3.320   6.429   5.693 -0.1516 -1.3655 -0.4607
  485MOL0     C65370   3.196   6.501   5.633 -0.5727  1.3511  0.8197
  485MOL0     O65371   3.089   6.414   5.628  0.7082 -0.9665  0.7068
  485MOL0     C65372   2.963   6.464   5.582 -0.8438 -0.3893 -0.5994
  485MOL0     C65373   2.893   6.567   5.640  0.4502 -0.2057 -0.5177
  485MOL0     C65374   2.758   6.593   5.604 -0.3029 -0.3096  0.8364
  485MOL0     C65375   2.700   6.534   5.487 -0.6843  0.7498 -0.5735
  485MOL0     O65376   2.577   6.589   5.438 -0.3030  0.2096  0.0131
  485MOL0     C65377   2.508   6.519   5.331 -0.8793 -0.0467  0.2991
  485MOL0     C65378   2.388   6.609   5.300 -1.5096  0.2933 -0.0640
  485MOL0     C65379   2.294   6.647   5.418  0.2738  0.4771 -0.6246
  485MOL0     C65380   2.219   6.777   5.378  0.5564 -0.0290  0.5782
  485MOL0     C65381   2.269   6.893   5.455 -0.6513 -0.3522  0.4859
  485MOL0     C65382   2.200   7.019   5.400 -0.6123 -0.1594 -0.3905
  485MOL0     C65383   2.238   7.142   5.486 -0.1918  0.2046  0.3875
  485MOL0     C65384   2.153   7.268   5.451 -0.7605  0.8203  0.6958
  485MOL0    Cl65385   2.256   7.416   5.465  0.1815 -0.2802 -0.5790
  485MOL0     C65386   2.777   6.425   5.436 -0.0785 -0.6291  0.5931
  485MOL0     C65387   2.901   6.392   5.484  0.9969  0.0287 -0.2435
  485MOL0     O65388   3.195   6.616   5.595  0.8544 -0.2367  0.3999
  485MOL0     C65389   3.310   6.296   5.745 -0.2825 -0.2499 -0.0559
  485MOL0     C65390   3.421   6.219   5.776 -0.1540  0.0810 -0.2906
  485MOL0     N65391   3.812   5.538   5.838  0.0527  0.6180  0.2974
  485MOL0     N65392   3.846   5.461   5.734  0.4081 -0.3290 -0.1977
  485MOL0     C65393   3.423   4.645   5.719  0.1533  0.7582 -0.3311
  485MOL0     C65394   3.524   4.559   5.772  0.3155 -0.1566  0.3315
  485MOL0     C65395   3.973   4.392   5.763 -0.8941 -0.7543  0.0775
  485MOL0     C65396   4.087   4.401   5.682 -0.7614 -0.8395 -0.3214
  485MOL0     C65397   4.191   4.315   5.708  0.5007  0.8962  0.2000
  485MOL0     C65398   4.182   4.212   5.808  0.0327  0.4633 -0.2569
  485MOL0     O65399   4.280   4.118   5.838 -0.5113  0.9614 -0.5192
  485MOL0     C65400   4.399   4.096   5.757  0.1301  0.0835 -0.1879
  485MOL0     C65401   4.535   4.157   5.805  1.2200 -0.2087  0.6901
  485MOL0     C65402   4.605   4.077   5.906  0.3676  0.4496  0.7094
  485MOL0     C65403   4.538   4.083   6.045 -0.4671  0.4623  0.0755
  485MOL0     C65404   4.597   3.978   6.135  0.4982 -0.4157  0.7905
  485MOL0     C65405   4.650   3.894   6.204  0.1808 -0.2854  0.4035
  485MOL0     C65406   4.065   4.196   5.883 -0.4115  0.2698  0.3702
  485MOL0     C65407   3.961   4.291   5.860  0.2845  0.0475 -1.0206
  485MOL0     H65408   3.773   4.773   5.752 -0.4844  0.1792 -0.2540
  485MOL0     H65409   3.626   4.907   5.634  2.6357 -1.5090 -0.9686
  485MOL0     H65410   3.291   5.017   5.524  1.4742  0.3684 -2.8686
  485MOL0     H65411   3.448   5.015   5.595  1.0722 -2.6949 -0.0877
  485MOL0     H65412   3.562   4.896   5.420  0.9688  0.7503 -1.3772
  485MOL0     H65413   3.403   4.836   5.356  1.1188 -0.9798  0.4299
  485MOL0     H65414   3.521   4.995   5.218 -3.4203 -3.0552 -1.2824
  485MOL0     H65415   3.356   5.025   5.256  0.1842  0.1573  0.3124
  485MOL0     H65416   3.479   5.235   5.256  2.3542  3.1956  2.5202
  485MOL0     H65417   3.416   5.203   5.415 -0.1210  2.5984  0.4225
  485MOL0     H65418   3.631   5.143   5.496  1.8114  1.6755  0.9839
  485MOL0     H65419   3.692   5.116   5.337 -1.8217 -1.5683  0.0772
  485MOL0     H65420   3.671   5.389   5.322 -0.8870  0.8162  0.3704
  485MOL0     H65421   3.620   5.373   5.482 -1.1700 -0.1013 -1.6965
  485MOL0     H65422   3.843   5.270   5.551 -1.8492 -2.4115 -1.5919
  485MOL0     H65423   3.891   5.295   5.387 -0.9379 -0.1984 -1.2653
  485MOL0     H65424   3.827   5.542   5.404 -1.6623 -2.5111 -1.3164
  485MOL0     H65425   3.968   5.485   5.493 -0.0319  2.1186 -0.1901
  485MOL0     H65426   3.775   5.742   5.585  0.4602 -1.0183 -0.9372
  485MOL0     H65427   3.661   5.821   5.853  0.2942  1.7079 -0.0935
  485MOL0     H65428   3.776   5.759   5.978  1.0420  1.9930  1.1142
  485MOL0     H65429   3.917   5.892   5.760  4.7481  2.7370  1.9425
  485MOL0     H65430   3.940   5.891   5.924  1.7901  1.8164 -0.5726
  485MOL0     H65431   3.888   6.114   5.824 -3.1024  2.5092 -0.4031
  485MOL0     H65432   3.796   6.077   5.975  2.6832  1.3767  0.5173
  485MOL0     H65433   3.600   6.038   5.833  1.0679 -3.6680 -1.2915
  485MOL0     H65434   3.699   6.056   5.682 -0.8503 -1.6070 -0.1321
  485MOL0     H65435   3.643   6.476   5.758  0.5449 -1.2483 -0.8882
  485MOL0     H65436   3.435   6.673   5.581  2.4898  2.2768 -0.6471
  485MOL0     H65437   3.406   6.694   5.761  0.7632 -0.7256  0.4988
  485MOL0     H65438   3.567   6.666   5.702 -0.2632 -0.0925  1.6813
  485MOL0     H65439   2.933   6.612   5.730 -3.4262 -1.1409  1.9333
  485MOL0     H65440   2.694   6.661   5.659  1.4306  1.3542  0.8612
  485MOL0     H65441   2.575   6.510   5.245 -0.1572  0.5244  0.7900
  485MOL0     H65442   2.481   6.415   5.353 -2.2608 -0.4532 -2.7808
  485MOL0     H65443   2.419   6.705   5.256  0.2707  0.8287  2.1416
  485MOL0     H65444   2.325   6.557   5.228  0.8532 -1.9141 -0.6989
  485MOL0     H65445   2.350   6.661   5.511  1.6598 -0.3270 -1.3153
  485MOL0     H65446   2.219   6.568   5.426 -0.6325  1.2152 -1.5054
  485MOL0     H65447   2.215   6.798   5.271 -2.2780 -3.0189 -0.0985
  485MOL0     H65448   2.113   6.754   5.396  0.6567 -0.5560  0.5234
  485MOL0     H65449   2.377   6.908   5.441 -0.6327 -0.4880  0.4883
  485MOL0     H65450   2.260   6.883   5.563  1.7404  1.3044  0.9222
  485MOL0     H65451   2.239   7.033   5.299 -0.1506  1.2430 -0.0374
  485MOL0     H65452   2.091   7.010   5.396 -0.7283  1.0609 -0.2433
  485MOL0     H65453   2.344   7.158   5.467 -0.1107 -1.9401 -1.3973
  485MOL0     H65454   2.228   7.113   5.591 -0.7420 -2.1116 -0.2518
  485MOL0     H65455   2.062   7.272   5.512 -1.9230  0.4760 -0.9325
  485MOL0     H65456   2.132   7.270   5.343 -1.3929 -1.9047  0.7062
  485MOL0     H65457   2.739   6.379   5.345  1.8973 -0.4013 -0.3953
  485MOL0     H65458   2.958   6.310   5.441  1.0146  0.1317 -0.4158
  485MOL0     H65459   3.208   6.259   5.748 -0.4722  0.1075 -1.3053
  485MOL0     H65460   3.408   6.114   5.799  0.9681  0.3244  1.6884
  485MOL0     H65461   3.319   4.616   5.709  0.3240  0.7532 -2.9366
  485MOL0     H65462   3.491   4.457   5.790 -2.4102  0.0445 -2.6405
  485MOL0     H65463   4.102   4.475   5.604 -3.0399 -0.7437 -0.7386
  485MOL0     H65464   4.278   4.322   5.643  1.7921  0.0706  1.7861
  485MOL0     H65465   4.414   3.988   5.742  0.4573  0.2745 -1.3138
  485MOL0     H65466   4.377   4.130   5.656 -2.7383 -0.7061  0.1032
  485MOL0     H65467   4.504   4.254   5.845  0.2021  0.4297 -1.5050
  485MOL0     H65468   4.595   4.166   5.714  0.5362  2.6439  0.4329
  485MOL0     H65469   4.712   4.087   5.922  0.4915 -1.2815  1.1976
  485MOL0     H65470   4.603   3.975   5.865 -1.2867 -0.9376  3.8431
  485MOL0     H65471   4.433   4.059   6.026 -0.0006  0.2848 -2.7254
  485MOL0     H65472   4.545   4.182   6.092 -0.9338  0.3469  0.4009
  485MOL0     H65473   4.702   3.821   6.263 -0.5104 -0.4722  0.7868
  485MOL0     H65474   4.053   4.115   5.954 -0.6035 -2.3532 -2.4484
  485MOL0     H65475   3.881   4.298   5.933  0.8226 -0.9986 -0.2977
  486MOL0     O65476  11.018   3.351   3.992 -0.5325  0.1154  0.0415
  486MOL0     C65477  10.967   3.342   4.099 -0.8414  1.1103 -0.7010
  486MOL0     O65478  10.830   3.303   4.134 -0.3743 -0.2814  0.2002
  486MOL0     C65479  10.733   3.276   4.043 -0.3773 -0.0689 -0.1420
  486MOL0     C65480  10.753   3.286   3.902  0.0897 -0.1681  0.7231
  486MOL0     C65481  10.651   3.249   3.814  0.2996 -0.1167 -0.8197
  486MOL0     C65482  10.530   3.199   3.854  0.4674  0.5180 -0.0044
  486MOL0     O65483  10.449   3.164   3.752  0.2706 -0.4855  0.1812
  486MOL0     C65484  10.314   3.190   3.754  0.8907 -0.2405  0.2908
  486MOL0     C65485  10.283   3.286   3.633 -0.5282 -0.1666 -0.7846
  486MOL0     C65486  10.134   3.315   3.630  0.0911  0.2045 -0.7788
  486MOL0     C65487  10.123   3.426   3.529  0.8004 -0.2687  0.1341
  486MOL0     C65488   9.976   3.461   3.498  0.2453  0.5780 -0.4068
  486MOL0     C65489   9.898   3.505   3.614  0.2377  0.3007 -0.5973
  486MOL0     C65490   9.751   3.511   3.574 -0.1401  0.2470  0.5184
  486MOL0     C65491   9.708   3.607   3.468 -0.4807  0.6534  0.0240
  486MOL0     N65492   9.682   3.739   3.531 -0.2717 -0.0131  0.3430
  486MOL0     C65493   9.566   3.809   3.533 -0.1137 -0.0853 -0.4864
  486MOL0     C65494   9.607   3.938   3.568 -0.5870  0.0599  1.0152
  486MOL0     C65495   9.497   4.052   3.598  0.4299 -0.0326  0.1694
  486MOL0     C65496   9.426   4.041   3.732  0.1376  0.2647 -0.5207
  486MOL0     C65497   9.297   3.956   3.717  1.0071  0.4511 -0.5482
  486MOL0     C65498   9.252   3.923   3.856  0.3021 -0.2608  0.6274
  486MOL0     O65499   9.152   3.814   3.844 -0.4683 -0.6504 -0.5076
  486MOL0     C65500   9.025   3.855   3.864  0.5215  0.0543  0.2960
  486MOL0     C65501   8.931   3.852   3.758  0.1749 -0.4964 -0.4170
  486MOL0     C65502   8.793   3.896   3.771  0.0348 -0.5882  0.2695
  486MOL0     C65503   8.714   3.882   3.649  0.3679 -0.0570  0.2880
  486MOL0     C65504   8.745   3.940   3.894  0.3586 -0.2601 -0.7011
  486MOL0     C65505   8.606   3.983   3.922 -0.3298  0.3472 -0.8522
  486MOL0     O65506   8.508   3.908   3.868 -0.1832 -0.6361 -0.1954
  486MOL0     C65507   8.382   3.939   3.912 -0.5338  0.4696  0.3542
  486MOL0     C65508   8.319   3.856   4.004  0.7586 -0.2164  0.4448
  486MOL0     C65509   8.183   3.864   4.036  0.0695  0.0517  0.8296
  486MOL0     C65510   8.105   3.964   3.969 -0.3166 -0.0859  0.0914
  486MOL0     O65511   7.971   3.961   3.995 -0.2634  0.2809 -0.3537
  486MOL0     C65512   7.911   4.084   3.991  0.3513 -0.2414  0.2381
  486MOL0     C65513   7.763   4.085   4.046 -1.0630 -0.5762  0.6500
  486MOL0     C65514   7.767   4.114   4.193 -0.8068  0.0294 -0.1661
  486MOL0     C65515   7.628   4.151   4.248  0.7563  0.2092  0.5302
  486MOL0     C65516   7.634   4.164   4.395  0.3228 -0.1033 -0.6698
  486MOL0     C65517   7.500   4.157   4.455 -0.3304  0.3161 -0.6750
  486MOL0     C65518   7.510   4.152   4.607 -0.1892  1.0038 -0.5669
  486MOL0     C65519   7.375   4.105   4.661 -0.1797 -0.3312  0.4989
  486MOL0    Cl65520   7.256   4.240   4.637 -0.2991  0.0535 -0.1054
  486MOL0     C65521   8.166   4.034   3.874  0.1983 -0.4934 -0.4733
  486MOL0     C65522   8.304   4.028   3.845  0.5411  0.2267 -0.8545
  486MOL0     O65523   8.597   4.090   3.987  0.0644  0.1579  0.2246
  486MOL0     C65524   8.841   3.961   3.995  0.2656  0.3430 -0.3398
  486MOL0     C65525   8.970   3.920   3.979  0.7374  0.4067  0.6423
  486MOL0     N65526   9.742   3.942   3.588 -0.5070  0.3140  0.3310
  486MOL0     N65527   9.786   3.818   3.571  0.4607 -0.1165  0.6596
  486MOL0     C65528  10.501   3.200   3.996 -0.0815 -0.1745  0.6315
  486MOL0     C65529  10.600   3.246   4.092 -0.3535 -0.1639  1.1367
  486MOL0     C65530  11.043   3.389   4.218 -0.1279  0.3085  0.2308
  486MOL0     C65531  10.970   3.429   4.334 -0.2763  0.6213 -0.3205
  486MOL0     C65532  11.035   3.436   4.464  0.7618 -0.0896  0.4364
  486MOL0     C65533  11.168   3.450   4.469 -0.3441 -0.0958  0.4159
  486MOL0     O65534  11.216   3.497   4.589 -0.6139  0.1256 -0.5477
  486MOL0     C65535  11.355   3.472   4.640  0.2469 -0.5305  0.3055
  486MOL0     C65536  11.377   3.583   4.743 -0.5315  1.0074  0.2938
  486MOL0     C65537  11.526   3.629   4.724 -0.2132  0.6909  0.6495
  486MOL0     C65538  11.537   3.757   4.638 -0.2445 -0.6546  0.3529
  486MOL0     C65539  11.472   3.745   4.514 -0.0950 -0.5020 -0.1331
  486MOL0     C65540  11.411   3.725   4.413  0.2678  0.6503  0.8167
  486MOL0     C65541  11.250   3.419   4.357 -0.3081  0.1573  0.0876
  486MOL0     C65542  11.190   3.379   4.233  0.3351 -0.1496 -0.4659
  486MOL0     H65543  10.846   3.323   3.861  0.3724 -0.9923  0.5951
  486MOL0     H65544  10.668   3.257   3.707 -0.2369  1.2949 -0.8179
  486MOL0     H65545  10.268   3.094   3.729  0.4182  0.1497 -0.3724
  486MOL0     H65546  10.281   3.228   3.851  0.6175 -0.7969  0.4201
  486MOL0     H65547  10.343   3.377   3.647 -1.5182  0.2378  1.2124
  486MOL0     H65548  10.313   3.223   3.549 -0.6891 -3.9078  1.7362
  486MOL0     H65549  10.076   3.227   3.603  2.7166 -2.5491  1.7467
  486MOL0     H65550  10.098   3.351   3.726  3.1038 -1.0895  0.9968
  486MOL0     H65551  10.173   3.515   3.566  3.1286 -1.9983  1.4588
  486MOL0     H65552  10.179   3.391   3.442  2.8626 -1.9643  2.0086
  486MOL0     H65553   9.977   3.535   3.417  0.1184 -0.1912 -1.1210
  486MOL0     H65554   9.937   3.368   3.456  2.1295 -1.7371  2.5958
  486MOL0     H65555   9.894   3.440   3.702 -0.8035  1.0853 -0.0314
  486MOL0     H65556   9.927   3.601   3.657  1.4212 -1.9968  4.5115
  486MOL0     H65557   9.728   3.411   3.537  0.6729  0.4753 -0.6489
  486MOL0     H65558   9.690   3.532   3.662  1.0991  3.2329  0.7627
  486MOL0     H65559   9.615   3.572   3.423 -0.8892 -0.4071  1.6395
  486MOL0     H65560   9.786   3.615   3.391  1.2601  0.6724  1.7294
  486MOL0     H65561   9.466   3.767   3.523  0.4530 -2.0872  1.5660
  486MOL0     H65562   9.543   4.152   3.598 -3.7325  2.0977 -0.1066
  486MOL0     H65563   9.422   4.041   3.519 -2.7692  0.1390  2.9642
  486MOL0     H65564   9.388   4.142   3.749 -0.0774 -0.1549  1.8366
  486MOL0     H65565   9.493   4.006   3.811  0.6878 -0.0666 -1.1260
  486MOL0     H65566   9.310   3.862   3.662  0.7052  0.0712  0.0170
  486MOL0     H65567   9.229   4.017   3.656  3.9221  1.2774 -3.2775
  486MOL0     H65568   9.205   4.010   3.903 -3.4002 -2.6545  1.8189
  486MOL0     H65569   9.337   3.896   3.919 -0.5418 -1.6033  1.2251
  486MOL0     H65570   8.962   3.816   3.661  1.1991 -2.2785  0.5242
  486MOL0     H65571   8.660   3.787   3.653  2.1392 -1.1983 -1.0081
  486MOL0     H65572   8.660   3.976   3.636 -0.7841 -0.9268 -1.5795
  486MOL0     H65573   8.777   3.873   3.560 -0.6594  1.4388 -0.6397
  486MOL0     H65574   8.368   3.776   4.058  0.2067  1.0380  2.9467
  486MOL0     H65575   8.129   3.799   4.105  1.1105  1.3621  2.9878
  486MOL0     H65576   7.977   4.149   4.050  0.4424 -2.5392  2.8422
  486MOL0     H65577   7.909   4.108   3.884  1.1342 -3.5489 -0.6335
  486MOL0     H65578   7.693   4.156   4.000 -0.6699 -0.8465 -0.3874
  486MOL0     H65579   7.734   3.983   4.023  3.3735 -2.1939  1.2479
  486MOL0     H65580   7.828   4.204   4.206  2.0822 -1.8713  0.5111
  486MOL0     H65581   7.817   4.036   4.251  1.9443  2.4813  1.0568
  486MOL0     H65582   7.597   4.244   4.198  0.0577 -1.2431 -1.9101
  486MOL0     H65583   7.552   4.078   4.217  1.7949 -1.4441  1.7426
  486MOL0     H65584   7.689   4.253   4.427  2.0800 -1.0539 -0.8796
  486MOL0     H65585   7.687   4.077   4.435  1.1826  0.0029 -1.5440
  486MOL0     H65586   7.461   4.249   4.410 -0.2742 -0.1579 -1.7086
  486MOL0     H65587   7.448   4.071   4.412  5.2826 -3.7024 -0.5513
  486MOL0     H65588   7.535   4.250   4.650 -1.9542  0.9521  0.6890
  486MOL0     H65589   7.579   4.077   4.646 -2.8512 -1.0995  0.4348
  486MOL0     H65590   7.377   4.090   4.769 -0.7421  2.2095  0.9115
  486MOL0     H65591   7.352   4.013   4.605  2.2737 -0.8452  0.2228
  486MOL0     H65592   8.104   4.102   3.818 -0.0109 -0.5899 -0.3592
  486MOL0     H65593   8.347   4.087   3.765 -0.7445  0.3467 -1.4984
  486MOL0     H65594   8.806   3.994   4.093 -0.3115  3.0585 -1.3745
  486MOL0     H65595   9.054   3.922   4.047  0.2522  1.6900  1.2401
  486MOL0     H65596  10.411   3.155   4.038  0.1237  0.1714  1.4583
  486MOL0     H65597  10.589   3.241   4.200  1.0643  1.2307  1.3803
  486MOL0     H65598  10.864   3.430   4.313  0.1321  0.9442 -2.5323
  486MOL0     H65599  10.977   3.453   4.554  1.2481  3.0112  0.2742
  486MOL0     H65600  11.362   3.373   4.687  0.1109  0.1789  1.8731
  486MOL0     H65601  11.419   3.482   4.552 -2.6655  4.3384 -1.7086
  486MOL0     H65602  11.374   3.537   4.842  1.5639  1.6365  0.6958
  486MOL0     H65603  11.299   3.660   4.740 -0.9305  0.5812 -0.3391
  486MOL0     H65604  11.591   3.554   4.678  2.8115  1.6535  2.9667
  486MOL0     H65605  11.578   3.645   4.819  1.0133 -3.2050  0.8163
  486MOL0     H65606  11.643   3.781   4.622 -0.4011  0.1615  0.5113
  486MOL0     H65607  11.498   3.843   4.693 -2.3318 -1.3788  0.0891
  486MOL0     H65608  11.365   3.723   4.316  1.7130 -0.7977  0.1016
  486MOL0     H65609  11.357   3.414   4.375 -0.8094  1.1656  4.9124
  486MOL0     H65610  11.255   3.336   4.158  0.9311  1.9961 -1.2367
  487MOL0     O65611   5.162   3.798   2.818  0.2184  0.3329 -0.0401
  487MOL0     C65612   5.201   3.745   2.718 -0.2132 -0.9068 -0.1205
  487MOL0     O65613   5.325   3.737   2.685 -0.0066  0.4474  0.4770
  487MOL0     C65614   5.420   3.797   2.770  0.5552 -0.6864  1.2828
  487MOL0     C65615   5.485   3.714   2.864 -0.3443  0.9401 -0.6343
  487MOL0     C65616   5.585   3.761   2.954 -0.5437 -0.0197  0.0189
  487MOL0     C65617   5.603   3.898   2.957 -0.6543  0.0452  0.2933
  487MOL0     O65618   5.678   3.939   3.061  0.1136  0.6434 -0.0981
  487MOL0     C65619   5.738   4.069   3.042  0.7897  0.4764  0.1122
  487MOL0     C65620   5.830   4.094   3.153  0.5880 -0.2825 -0.5143
  487MOL0     C65621   5.963   4.025   3.133  0.0720  0.9459  0.3176
  487MOL0     C65622   6.056   4.032   3.263  1.2561  0.6704 -0.3547
  487MOL0     C65623   6.122   4.166   3.295 -0.5812  0.0729 -0.2752
  487MOL0     C65624   6.196   4.238   3.182 -0.6242 -0.6708 -0.9698
  487MOL0     C65625   6.275   4.360   3.240 -0.5920 -0.0946 -0.1691
  487MOL0     C65626   6.178   4.465   3.280  0.8467 -0.6933  0.8058
  487MOL0     N65627   6.233   4.593   3.330  0.0949 -0.7814  0.4290
  487MOL0     C65628   6.336   4.673   3.278 -0.1908  0.2635 -0.9921
  487MOL0     C65629   6.325   4.797   3.334  0.0888 -0.8768 -0.3467
  487MOL0     C65630   6.402   4.925   3.306  0.6118 -0.6836 -0.7624
  487MOL0     C65631   6.300   5.012   3.224 -0.5186 -1.0018  0.2701
  487MOL0     C65632   6.371   5.146   3.174  0.1112 -0.2853 -0.3328
  487MOL0     C65633   6.251   5.245   3.133 -0.3073 -0.9011  0.0353
  487MOL0     O65634   6.289   5.369   3.066 -0.5592  0.1398 -0.4335
  487MOL0     C65635   6.181   5.430   2.993 -0.5600  0.7312 -0.0972
  487MOL0     C65636   6.218   5.518   2.893 -1.1319 -0.1076  0.0879
  487MOL0     C65637   6.126   5.578   2.803  0.3034  0.0229 -0.1743
  487MOL0     C65638   6.187   5.683   2.710  0.2696  0.2790 -0.1057
  487MOL0     C65639   5.985   5.540   2.809  0.2009 -0.5092 -0.4311
  487MOL0     C65640   5.878   5.608   2.723 -0.6058  1.2193  0.5922
  487MOL0     O65641   5.750   5.547   2.733 -0.1173 -1.3781  0.7279
  487MOL0     C65642   5.646   5.593   2.661 -0.1201  0.7558  1.0284
  487MOL0     C65643   5.607   5.727   2.639  0.1245 -0.1241  0.2200
  487MOL0     C65644   5.486   5.748   2.574  0.5152  0.0009 -0.8494
  487MOL0     C65645   5.406   5.641   2.529 -0.3630  0.6204  0.4376
  487MOL0     O65646   5.295   5.665   2.452 -0.3643  0.7357 -0.5240
  487MOL0     C65647   5.186   5.591   2.492 -0.4265 -0.7092  0.8606
  487MOL0     C65648   5.080   5.651   2.410  0.0403 -0.5944  1.0547
  487MOL0     C65649   4.955   5.576   2.390  0.1101  0.4645  0.7243
  487MOL0     C65650   4.840   5.667   2.335 -0.2885 -0.5884 -0.3810
  487MOL0     C65651   4.888   5.744   2.206  0.7541 -0.4094  0.7854
  487MOL0     C65652   4.766   5.776   2.124 -0.9210 -0.1717 -0.2370
  487MOL0     C65653   4.671   5.867   2.198  0.0525  0.2640  0.0891
  487MOL0     C65654   4.551   5.900   2.108  0.0105  0.8380 -0.5295
  487MOL0    Cl65655   4.452   5.744   2.082  0.6636  0.0719 -0.1477
  487MOL0     C65656   5.451   5.512   2.556 -0.1327  0.0336 -0.1408
  487MOL0     C65657   5.569   5.485   2.619 -0.3451 -0.2986  0.3084
  487MOL0     O65658   5.913   5.690   2.639  0.6061  0.0968 -0.1779
  487MOL0     C65659   5.953   5.456   2.917  0.2709 -0.1764 -0.9484
  487MOL0     C65660   6.044   5.409   3.008  0.7233  1.6755  0.3772
  487MOL0     N65661   6.225   4.783   3.422  0.3864 -0.1738 -0.2797
  487MOL0     N65662   6.158   4.671   3.419  0.4469  0.1738  0.2880
  487MOL0     C65663   5.531   3.982   2.866  0.3855 -1.4173  0.7260
  487MOL0     C65664   5.450   3.932   2.766  0.1315  0.2310  0.8348
  487MOL0     C65665   5.093   3.706   2.621  0.3668 -0.5565 -0.9141
  487MOL0     C65666   5.129   3.680   2.486  0.2413  1.4221 -0.0864
  487MOL0     C65667   5.040   3.641   2.388 -0.6999  0.1060  0.1660
  487MOL0     C65668   4.906   3.622   2.419  0.2911  0.1342  0.2250
  487MOL0     O65669   4.816   3.579   2.320  0.8437  0.3998  0.0797
  487MOL0     C65670   4.690   3.524   2.353 -0.2976 -0.3887  0.0296
  487MOL0     C65671   4.577   3.629   2.377  0.0070 -0.6821 -0.1699
  487MOL0     C65672   4.523   3.675   2.245  0.2909  0.3446 -0.7270
  487MOL0     C65673   4.444   3.568   2.162 -0.6504 -0.2293 -0.3435
  487MOL0     C65674   4.315   3.557   2.232  0.0337  0.0160 -0.7194
  487MOL0     C65675   4.213   3.525   2.288 -0.3702  0.5784 -0.0795
  487MOL0     C65676   4.863   3.639   2.550 -0.3929 -0.3231 -0.5361
  487MOL0     C65677   4.957   3.686   2.655 -0.8531  0.2729  0.9725
  487MOL0     H65678   5.456   3.610   2.853 -0.6427  0.9658 -0.1269
  487MOL0     H65679   5.647   3.688   3.006 -0.6008  1.4605  2.3000
  487MOL0     H65680   5.786   4.062   2.944 -1.0236 -3.3568 -0.6620
  487MOL0     H65681   5.661   4.147   3.035  3.7919  3.8164  1.2004
  487MOL0     H65682   5.830   4.203   3.164 -0.8401 -0.5145  3.1647
  487MOL0     H65683   5.777   4.052   3.239 -0.9596 -0.4923 -1.5303
  487MOL0     H65684   5.946   3.920   3.108  3.0777 -0.5804  3.6902
  487MOL0     H65685   6.015   4.067   3.046  0.5044 -0.5162 -0.1586
  487MOL0     H65686   5.993   3.992   3.344  2.5649 -1.8929 -0.5241
  487MOL0     H65687   6.143   3.968   3.246  0.0140 -1.0499 -0.5256
  487MOL0     H65688   6.037   4.222   3.336 -0.2771 -0.3443  0.9770
  487MOL0     H65689   6.193   4.152   3.377  0.5571 -1.0760 -1.4116
  487MOL0     H65690   6.253   4.160   3.131 -1.1492 -1.9018  0.2246
  487MOL0     H65691   6.119   4.280   3.117 -2.1356 -2.1176 -0.2254
  487MOL0     H65692   6.333   4.334   3.329  0.4100  3.0471  0.2156
  487MOL0     H65693   6.347   4.396   3.167  1.6083  0.5870  2.1892
  487MOL0     H65694   6.116   4.433   3.364 -1.2428  0.9195 -0.0399
  487MOL0     H65695   6.106   4.486   3.200 -1.0345 -0.2321  2.5539
  487MOL0     H65696   6.399   4.641   3.196 -0.6754 -1.3107 -0.7731
  487MOL0     H65697   6.434   4.970   3.401  2.1532 -1.6234 -0.8076
  487MOL0     H65698   6.493   4.906   3.248  0.6758  1.0126 -1.2703
  487MOL0     H65699   6.210   5.036   3.281 -1.4439 -0.2641 -1.4250
  487MOL0     H65700   6.274   4.964   3.130 -0.4819 -0.0017 -0.2705
  487MOL0     H65701   6.434   5.111   3.092 -0.8717  1.0946 -1.7472
  487MOL0     H65702   6.428   5.193   3.254 -0.3985 -2.1697  1.1993
  487MOL0     H65703   6.185   5.258   3.219 -0.1386 -1.6915  0.2915
  487MOL0     H65704   6.197   5.196   3.052  2.1444  1.9605 -3.6622
  487MOL0     H65705   6.324   5.537   2.881 -1.4534  1.0609 -1.0453
  487MOL0     H65706   6.148   5.785   2.720  0.3533  0.1208  2.2211
  487MOL0     H65707   6.297   5.686   2.710  0.3017  3.1502 -2.0607
  487MOL0     H65708   6.166   5.649   2.608  1.7403 -0.0704 -0.3252
  487MOL0     H65709   5.678   5.802   2.671  3.2492 -1.8797 -2.0797
  487MOL0     H65710   5.452   5.849   2.551  2.1525  0.6181 -0.6426
  487MOL0     H65711   5.206   5.487   2.463  0.5899 -0.3099  0.0742
  487MOL0     H65712   5.165   5.607   2.599 -0.3943 -3.4850  1.3652
  487MOL0     H65713   5.065   5.757   2.436 -0.2232 -0.1940 -0.6060
  487MOL0     H65714   5.115   5.670   2.308 -0.1010 -0.9682  0.9383
  487MOL0     H65715   4.931   5.531   2.487  2.9364 -1.1668  0.7599
  487MOL0     H65716   4.970   5.494   2.320  3.4978  1.1010  0.5481
  487MOL0     H65717   4.741   5.622   2.323 -2.2548  2.8500  1.2805
  487MOL0     H65718   4.825   5.736   2.419  1.3638  0.2809 -0.7572
  487MOL0     H65719   4.948   5.675   2.146 -1.5786  0.1778 -2.5067
  487MOL0     H65720   4.943   5.837   2.220 -1.0565  0.7247  0.5998
  487MOL0     H65721   4.798   5.815   2.027  1.9964  0.3466  0.8448
  487MOL0     H65722   4.715   5.681   2.102 -2.7404 -0.0767  2.9030
  487MOL0     H65723   4.727   5.950   2.242 -0.0988 -0.2642  1.3064
  487MOL0     H65724   4.620   5.815   2.280 -0.7041 -0.4012 -0.7792
  487MOL0     H65725   4.588   5.943   2.014  1.3961 -0.6479 -0.7082
  487MOL0     H65726   4.485   5.972   2.158 -1.2655 -0.1278 -0.7513
  487MOL0     H65727   5.400   5.423   2.521  0.3783  0.8313 -3.2516
  487MOL0     H65728   5.588   5.380   2.641 -3.0975 -2.5016 -5.4616
  487MOL0     H65729   5.849   5.426   2.925  0.5820 -1.8233 -2.4529
  487MOL0     H65730   6.006   5.342   3.085  1.9604  1.2284  0.6379
  487MOL0     H65731   5.549   4.089   2.869  0.1821 -1.3080 -1.0590
  487MOL0     H65732   5.405   3.990   2.687 -0.0967 -0.5948  0.3410
  487MOL0     H65733   5.232   3.687   2.453  0.6554 -3.5153 -0.5725
  487MOL0     H65734   5.077   3.622   2.288  1.2474 -0.0407  0.8837
  487MOL0     H65735   4.660   3.452   2.276  2.1653  0.3275 -1.6968
  487MOL0     H65736   4.707   3.460   2.441  1.8008 -0.1809 -0.1800
  487MOL0     H65737   4.637   3.714   2.412  0.0964 -1.4004  1.5452
  487MOL0     H65738   4.497   3.594   2.443 -1.4652  2.3296 -0.1746
  487MOL0     H65739   4.597   3.709   2.172 -1.4206 -1.4765 -3.4944
  487MOL0     H65740   4.455   3.758   2.263 -0.7863 -0.3839 -1.3444
  487MOL0     H65741   4.490   3.470   2.147 -0.3210  0.2397 -2.8005
  487MOL0     H65742   4.434   3.611   2.062 -1.7387 -0.8258 -0.5140
  487MOL0     H65743   4.123   3.495   2.337 -0.6903  1.7727  0.1092
  487MOL0     H65744   4.759   3.617   2.571 -0.2613 -2.7948 -2.0413
  487MOL0     H65745   4.918   3.702   2.755 -1.4616 -2.5817  1.2783
  488MOL0     O65746   2.695   1.420   9.911 -0.3558  0.7001  0.3849
  488MOL0     C65747   2.779   1.411   9.999  0.3308  0.5273 -0.1005
  488MOL0     O65748   2.760   1.357  10.118 -0.2109  0.5194  0.7748
  488MOL0     C65749   2.631   1.342  10.164 -0.2344  0.2709 -0.3696
  488MOL0     C65750   2.538   1.239  10.116 -0.3763  0.1811  0.1073
  488MOL0     C65751   2.410   1.234  10.172  0.4385 -0.7469 -0.1415
  488MOL0     C65752   2.374   1.322  10.279  0.7534 -0.7889 -0.8423
  488MOL0     O65753   2.248   1.328  10.325 -0.6228 -0.0376 -0.5320
  488MOL0     C65754   2.150   1.231  10.290  0.4689 -1.0707 -0.0951
  488MOL0     C65755   2.036   1.225  10.389 -0.8191 -0.7713  0.4572
  488MOL0     C65756   1.966   1.371  10.395 -0.0700  0.6078 -0.5514
  488MOL0     C65757   1.830   1.369  10.456 -0.3065 -0.1159  0.2565
  488MOL0     C65758   1.757   1.506  10.469  0.1268 -0.5306  0.6856
  488MOL0     C65759   1.614   1.481  10.528  0.1995  0.6097 -1.0172
  488MOL0     C65760   1.514   1.404  10.443 -0.5369 -0.8049 -0.1059
  488MOL0     C65761   1.373   1.392  10.491  1.2982  0.8160 -0.0452
  488MOL0     N65762   1.311   1.527  10.514 -0.7763 -0.5523 -0.7911
  488MOL0     C65763   1.247   1.571  10.627 -0.9091 -1.5289 -0.7428
  488MOL0     C65764   1.202   1.691  10.588 -0.1123  0.3080 -0.2448
  488MOL0     C65765   1.126   1.795  10.668  0.9550  0.5522  0.4558
  488MOL0     C65766   1.037   1.731  10.778  0.4253 -0.1475  0.2424
  488MOL0     C65767   0.931   1.825  10.841  0.2224 -0.7734  0.0265
  488MOL0     C65768   0.870   1.757  10.962  1.0513 -0.5203 -0.3653
  488MOL0     O65769   0.787   1.638  10.918 -0.0548 -0.2862 -0.8627
  488MOL0     C65770   0.747   1.560  11.025  0.5531 -1.0699 -0.3572
  488MOL0     C65771   0.818   1.450  11.061 -0.7369 -0.6013 -0.2992
  488MOL0     C65772   0.780   1.364  11.160 -0.7378  0.5922  0.3669
  488MOL0     C65773   0.857   1.231  11.175  0.4437 -0.1107 -0.5152
  488MOL0     C65774   0.676   1.397  11.250  1.0672  0.4474 -0.6153
  488MOL0     C65775   0.637   1.320  11.362 -0.4633 -0.2139 -0.3331
  488MOL0     O65776   0.589   1.201  11.336  0.9990  0.2337 -0.0663
  488MOL0     C65777   0.593   1.111  11.435  0.3852 -0.6331 -1.0221
  488MOL0     C65778   0.483   1.046  11.491 -0.3113 -0.2479 -1.4887
  488MOL0     C65779   0.495   0.960  11.600 -0.0498  0.5203  0.0691
  488MOL0     C65780   0.619   0.931  11.646 -0.1465  0.0861  0.6998
  488MOL0     O65781   0.641   0.843  11.748 -0.2877 -0.3380 -0.2473
  488MOL0     C65782   0.538   0.753  11.776  0.0981  0.2331  0.0680
  488MOL0     C65783   0.594   0.636  11.864  0.9580 -0.2234  0.4831
  488MOL0     C65784   0.685   0.531  11.787 -0.3168  0.0389  0.4220
  488MOL0     C65785   0.604   0.431  11.703 -0.0054 -1.1679 -0.3630
  488MOL0     C65786   0.564   0.307  11.779 -0.5686  0.7859 -0.3882
  488MOL0     C65787   0.686   0.211  11.795  0.4252  0.7107 -0.3540
  488MOL0     C65788   0.654   0.086  11.894 -0.0187 -0.6209  0.1646
  488MOL0     C65789   0.696  -0.046  11.841 -0.1510 -0.2578 -0.4624
  488MOL0    Cl65790   0.607  -0.088  11.694  0.2648 -0.4449  0.0571
  488MOL0     C65791   0.734   0.982  11.583  0.3788 -0.9552  0.1092
  488MOL0     C65792   0.722   1.075  11.474 -0.7426  1.3332  0.2455
  488MOL0     O65793   0.663   1.372  11.475  0.2283 -0.1312  0.5761
  488MOL0     C65794   0.600   1.515  11.214 -0.0395  0.0687  0.6388
  488MOL0     C65795   0.631   1.590  11.105 -0.8019  0.5050  0.4934
  488MOL0     N65796   1.220   1.703  10.452  0.5190  0.4033  0.1673
  488MOL0     N65797   1.289   1.608  10.412 -0.3121 -0.2606  0.2671
  488MOL0     C65798   2.465   1.415  10.330  0.7028 -1.3133  0.0763
  488MOL0     C65799   2.597   1.419  10.280 -0.6866 -0.5131  0.0316
  488MOL0     C65800   2.910   1.457   9.969 -0.4929  0.4732 -0.3009
  488MOL0     C65801   3.013   1.444  10.073 -0.1415  0.3725  0.5528
  488MOL0     C65802   3.144   1.495  10.044  0.1221  0.7166  0.5146
  488MOL0     C65803   3.177   1.551   9.920  1.1346 -0.1199  0.3909
  488MOL0     O65804   3.307   1.623   9.912  0.5410 -0.7091  0.0483
  488MOL0     C65805   3.341   1.690   9.793 -1.3146  0.2259 -0.0728
  488MOL0     C65806   3.462   1.779   9.815  0.7311  1.0359 -0.0308
  488MOL0     C65807   3.509   1.841   9.677 -0.0994 -0.4622 -0.0112
  488MOL0     C65808   3.415   1.936   9.593  0.2659 -0.1160  0.1439
  488MOL0     C65809   3.358   2.056   9.657 -0.6070 -0.6789  0.8071
  488MOL0     C65810   3.316   2.164   9.691  0.3119  0.5047  0.0634
  488MOL0     C65811   3.078   1.571   9.827 -0.0949  0.5184  0.1932
  488MOL0     C65812   2.941   1.525   9.853  0.7361 -0.3672  0.1484
  488MOL0     H65813   2.577   1.175  10.038  0.4233  0.4242  0.2965
  488MOL0     H65814   2.340   1.170  10.119  0.8607 -0.7190 -0.7387
  488MOL0     H65815   2.114   1.261  10.191  0.9216  0.7840  0.2690
  488MOL0     H65816   2.184   1.127  10.282  1.2435 -0.7454 -1.2702
  488MOL0     H65817   1.960   1.158  10.346 -0.2007  0.1447 -2.2802
  488MOL0     H65818   2.074   1.188  10.484 -1.3424 -0.0312  0.9612
  488MOL0     H65819   2.031   1.444  10.445 -0.4528  1.0683 -0.7137
  488MOL0     H65820   1.950   1.403  10.291  1.2646 -0.6149 -1.1715
  488MOL0     H65821   1.762   1.297  10.409  0.1046  0.7419 -1.7722
  488MOL0     H65822   1.850   1.332  10.557 -0.6862  1.9984  1.1456
  488MOL0     H65823   1.808   1.581  10.531 -0.4888  2.3611 -2.0702
  488MOL0     H65824   1.726   1.560  10.379  1.0945  1.1470  1.3190
  488MOL0     H65825   1.624   1.441  10.630 -2.8913  1.7628 -0.1230
  488MOL0     H65826   1.576   1.582  10.547 -0.0657  0.6473 -1.7464
  488MOL0     H65827   1.507   1.438  10.339 -1.6329 -1.5952 -0.3109
  488MOL0     H65828   1.543   1.299  10.428 -2.8249 -1.3315 -1.3398
  488MOL0     H65829   1.370   1.328  10.579  1.6415 -0.2972 -0.8240
  488MOL0     H65830   1.317   1.339  10.414  1.0260  0.2099  0.5679
  488MOL0     H65831   1.229   1.536  10.728 -3.9389 -1.0404 -1.0110
  488MOL0     H65832   1.201   1.857  10.718  1.0055 -0.4822  1.6918
  488MOL0     H65833   1.061   1.853  10.602 -0.0732 -1.2600 -0.2058
  488MOL0     H65834   1.107   1.707  10.859 -0.7886 -0.7465  1.1512
  488MOL0     H65835   0.984   1.636  10.764  1.7912 -1.1379  1.5524
  488MOL0     H65836   0.855   1.839  10.764  1.2090  0.4248 -0.7711
  488MOL0     H65837   0.977   1.922  10.865  3.5410 -1.5400 -2.3889
  488MOL0     H65838   0.807   1.822  11.025  2.5707 -1.1449  1.9374
  488MOL0     H65839   0.945   1.734  11.038  0.5854 -0.8296  0.0121
  488MOL0     H65840   0.913   1.436  11.010 -0.0930  2.1607  0.0000
  488MOL0     H65841   0.918   1.199  11.091  0.1310  0.2643 -0.8864
  488MOL0     H65842   0.928   1.248  11.257  0.3341  3.8329 -1.0032
  488MOL0     H65843   0.800   1.145  11.210  2.6771 -1.2207  0.5924
  488MOL0     H65844   0.381   1.060  11.456  0.2867  3.6081 -2.0909
  488MOL0     H65845   0.410   0.935  11.663  1.0020  2.3386  2.3657
  488MOL0     H65846   0.457   0.792  11.839  0.0679 -1.5605  1.1921
  488MOL0     H65847   0.495   0.711  11.685 -0.6795  0.5529  0.2737
  488MOL0     H65848   0.642   0.672  11.956 -1.0678 -0.8078  1.8477
  488MOL0     H65849   0.508   0.587  11.909  0.9733  0.5377  1.3796
  488MOL0     H65850   0.743   0.472  11.859 -0.1425  1.2665  1.3045
  488MOL0     H65851   0.752   0.587  11.721 -0.9616 -1.6991 -1.8822
  488MOL0     H65852   0.512   0.481  11.669  1.2072  0.3452 -1.5801
  488MOL0     H65853   0.652   0.408  11.607 -1.4411  2.6383 -2.2059
  488MOL0     H65854   0.495   0.259  11.709  0.1767  0.6669 -1.0591
  488MOL0     H65855   0.512   0.318  11.874  1.4366 -3.8191  1.5841
  488MOL0     H65856   0.720   0.175  11.697  0.7951 -1.5624  0.5503
  488MOL0     H65857   0.768   0.262  11.845  0.8238  0.3334 -0.6091
  488MOL0     H65858   0.545   0.086  11.901 -0.0286 -1.6620  0.2049
  488MOL0     H65859   0.697   0.100  11.994 -1.7083  0.7502  0.7456
  488MOL0     H65860   0.679  -0.122  11.919 -3.4674  1.0956  0.2874
  488MOL0     H65861   0.803  -0.025  11.835 -0.0755  0.6294  2.4551
  488MOL0     H65862   0.832   0.950  11.617  0.7706  1.1068  1.0609
  488MOL0     H65863   0.807   1.125  11.428  1.0808 -0.8585  1.0281
  488MOL0     H65864   0.515   1.543  11.276 -0.7011 -2.5572  1.0159
  488MOL0     H65865   0.572   1.673  11.067 -1.2720 -1.4268 -3.5783
  488MOL0     H65866   2.430   1.489  10.402 -1.4402 -0.2254 -1.9166
  488MOL0     H65867   2.674   1.483  10.321  1.4399 -0.8374 -3.0934
  488MOL0     H65868   2.997   1.388  10.165  0.4442 -1.9857 -0.7142
  488MOL0     H65869   3.218   1.474  10.121  1.1412  0.4935 -0.5098
  488MOL0     H65870   3.363   1.620   9.711  0.2622  1.5687 -0.8633
  488MOL0     H65871   3.256   1.749   9.756  0.1388  0.0639 -4.2579
  488MOL0     H65872   3.544   1.733   9.870 -0.8722  1.0728  2.5379
  488MOL0     H65873   3.430   1.864   9.877  1.9289  1.7902 -0.4107
  488MOL0     H65874   3.531   1.758   9.608  1.2126 -2.6304  2.7995
  488MOL0     H65875   3.603   1.895   9.694  1.0427 -1.8985 -1.4408
  488MOL0     H65876   3.346   1.860   9.555 -1.0461  0.0317  2.0894
  488MOL0     H65877   3.470   1.966   9.504  0.4775 -1.8087 -0.3396
  488MOL0     H65878   3.275   2.254   9.731 -0.2192  0.7454 -0.9821
  488MOL0     H65879   3.110   1.613   9.732  1.7170 -2.0542 -0.4449
  488MOL0     H65880   2.864   1.523   9.777  0.1134 -3.4721  0.7333
  489MOL0     O65881  10.405   8.429   1.448  0.1938 -0.7411  0.4288
  489MOL0     C65882  10.332   8.400   1.356  0.4943 -0.0194 -0.0001
  489MOL0     O65883  10.346   8.289   1.277 -0.6114  0.4714 -0.8429
  489MOL0     C65884  10.453   8.204   1.307 -0.3356 -0.0714  0.6466
  489MOL0     C65885  10.583   8.257   1.294  0.1300 -0.0910 -0.9840
  489MOL0     C65886  10.693   8.172   1.312  0.4749 -0.2761  0.6812
  489MOL0     C65887  10.672   8.039   1.360 -0.4076 -0.2438  0.8888
  489MOL0     O65888  10.779   7.955   1.381  0.4117 -0.3802  0.3916
  489MOL0     C65889  10.911   7.979   1.332 -1.2353 -0.2534  0.0947
  489MOL0     C65890  10.974   7.847   1.267  0.4125  0.0579 -0.3100
  489MOL0     C65891  10.906   7.814   1.129  0.0004 -0.2858 -0.2751
  489MOL0     C65892  10.958   7.693   1.048 -0.0116 -0.1606 -0.2479
  489MOL0     C65893  10.900   7.696   0.904 -0.3803  0.4830 -0.1045
  489MOL0     C65894  10.971   7.595   0.811  0.7323 -0.6268 -0.4190
  489MOL0     C65895  10.940   7.619   0.666 -0.1898  0.7100  1.6211
  489MOL0     C65896  11.031   7.538   0.571 -0.9554  0.5680  1.1424
  489MOL0     N65897  10.973   7.531   0.434 -0.3307 -0.0798 -0.2450
  489MOL0     C65898  10.937   7.644   0.361 -0.5804  1.1797  0.7772
  489MOL0     C65899  10.928   7.601   0.233  0.9391 -0.0472 -0.3477
  489MOL0     C65900  10.900   7.686   0.112 -0.4652  0.0100  0.5280
  489MOL0     C65901  10.775   7.769   0.124 -0.1514 -0.0935 -0.3723
  489MOL0     C65902  10.757   7.841  -0.008  0.2867  0.0609 -0.2148
  489MOL0     C65903  10.624   7.918  -0.022  0.6263 -0.2500 -0.1982
  489MOL0     O65904  10.597   7.998   0.092  0.3526  0.2268  0.2756
  489MOL0     C65905  10.662   8.109   0.125 -0.6259  0.4990 -0.1925
  489MOL0     C65906  10.755   8.176   0.044  0.7485  0.4665 -0.3289
  489MOL0     C65907  10.840   8.280   0.084  0.9843 -0.0379 -0.7230
  489MOL0     C65908  10.949   8.327  -0.002  0.7097 -0.2420 -0.1315
  489MOL0     C65909  10.832   8.320   0.221  0.6689 -0.3079  0.6106
  489MOL0     C65910  10.920   8.421   0.295  0.9995 -0.1108  0.8506
  489MOL0     O65911  10.958   8.531   0.221 -0.9887  0.5412  0.2643
  489MOL0     C65912  11.042   8.627   0.278 -0.2593 -0.3983  0.0153
  489MOL0     C65913  10.999   8.712   0.380  0.2276  0.0042 -0.1223
  489MOL0     C65914  11.100   8.792   0.446 -0.2765  0.4281 -0.2586
  489MOL0     C65915  11.233   8.789   0.408  0.0750  0.0628 -1.3792
  489MOL0     O65916  11.336   8.857   0.467  0.0138  0.7732 -0.1809
  489MOL0     C65917  11.318   8.947   0.577 -0.1594 -0.0628  0.0928
  489MOL0     C65918  11.452   9.009   0.612  0.6802  0.5065 -0.8094
  489MOL0     C65919  11.514   9.064   0.491 -0.3023 -0.2600 -0.4792
  489MOL0     C65920  11.595   9.196   0.523 -0.5764  0.5218 -0.7937
  489MOL0     C65921  11.720   9.225   0.440 -0.1797 -0.7748 -0.1576
  489MOL0     C65922  11.785   9.357   0.487 -0.7457  0.9234 -0.1874
  489MOL0     C65923  11.900   9.402   0.394  0.0336  0.3792 -0.8483
  489MOL0     C65924  11.932   9.545   0.422  0.2698 -0.0226 -0.7731
  489MOL0    Cl65925  12.081   9.583   0.338 -0.3249  0.0241  0.1359
  489MOL0     C65926  11.269   8.703   0.308  0.1678  0.0409  1.0463
  489MOL0     C65927  11.174   8.621   0.241  0.3784  0.0691 -0.1677
  489MOL0     O65928  10.957   8.395   0.408 -0.4340  0.3624  0.3175
  489MOL0     C65929  10.752   8.240   0.307 -0.0651  0.2646 -0.0485
  489MOL0     C65930  10.670   8.136   0.260  0.2881  0.3176 -0.3845
  489MOL0     N65931  10.947   7.465   0.236 -0.0858  0.1906  0.6963
  489MOL0     N65932  10.970   7.424   0.355  0.0402 -0.3351  0.1073
  489MOL0     C65933  10.544   7.985   1.369  0.6000  0.1649  0.4425
  489MOL0     C65934  10.435   8.065   1.339  0.3283 -0.2516 -0.7947
  489MOL0     C65935  10.223   8.485   1.316  0.7152 -0.7940 -0.0711
  489MOL0     C65936  10.228   8.620   1.360 -0.0184 -0.9439 -1.1501
  489MOL0     C65937  10.117   8.710   1.340 -0.3392  0.7257 -0.3695
  489MOL0     C65938  10.024   8.678   1.244 -0.3435  0.1947  0.8329
  489MOL0     O65939   9.910   8.752   1.202 -0.1675  0.1963  0.0862
  489MOL0     C65940   9.895   8.886   1.237 -0.1362  0.4336 -0.0806
  489MOL0     C65941   9.808   8.966   1.145  0.5130  0.0817 -0.2598
  489MOL0     C65942   9.891   9.059   1.039  0.1694  0.0147 -1.1077
  489MOL0     C65943   9.984   8.986   0.948  0.6644  1.1283  0.1174
  489MOL0     C65944   9.922   8.875   0.873 -1.4098 -0.1071 -0.5676
  489MOL0     C65945   9.870   8.775   0.818 -0.1310  0.3652 -0.5813
  489MOL0     C65946  10.019   8.543   1.195  0.1773 -1.0673 -0.1467
  489MOL0     C65947  10.114   8.443   1.234  0.2803 -0.3784  0.8095
  489MOL0     H65948  10.624   8.357   1.288 -0.1731 -0.0411 -3.0145
  489MOL0     H65949  10.790   8.220   1.301  0.0685  1.3745  3.3582
  489MOL0     H65950  10.916   8.058   1.256  2.7712  1.6272  2.0490
  489MOL0     H65951  10.979   8.021   1.407 -0.2651  0.7991 -1.3015
  489MOL0     H65952  11.076   7.857   1.230 -0.3434  0.6619 -2.3568
  489MOL0     H65953  10.973   7.756   1.329  0.3282 -0.3385 -0.8849
  489MOL0     H65954  10.801   7.800   1.155 -0.2101 -0.0885 -0.9764
  489MOL0     H65955  10.917   7.901   1.063  1.9522 -1.9116 -2.2287
  489MOL0     H65956  11.065   7.672   1.045 -0.1478 -0.7877 -1.2575
  489MOL0     H65957  10.908   7.608   1.096  1.3357 -1.2539 -0.7316
  489MOL0     H65958  10.796   7.663   0.902 -0.5996  1.1829 -1.8174
  489MOL0     H65959  10.889   7.793   0.855 -2.2008 -0.5429 -1.9043
  489MOL0     H65960  11.075   7.626   0.822  0.6104  0.5008 -2.1958
  489MOL0     H65961  10.965   7.490   0.843 -3.0723 -0.2872  0.4520
  489MOL0     H65962  10.837   7.583   0.658 -0.7258  2.3216  0.7315
  489MOL0     H65963  10.939   7.725   0.638 -1.9166  0.6531  1.3477
  489MOL0     H65964  11.047   7.436   0.608  0.4555 -0.5675 -2.1490
  489MOL0     H65965  11.125   7.595   0.571 -1.2861  1.2155 -1.2166
  489MOL0     H65966  10.930   7.747   0.392 -0.4178  1.0551  1.2333
  489MOL0     H65967  10.985   7.755   0.104 -1.8292  1.5185 -3.4067
  489MOL0     H65968  10.892   7.625   0.022 -2.0921  1.7633 -0.6036
  489MOL0     H65969  10.784   7.833   0.213 -0.5872 -1.2007  0.5012
  489MOL0     H65970  10.686   7.706   0.135  1.0630 -1.6207  1.3100
  489MOL0     H65971  10.762   7.767  -0.088 -0.7094  0.4075 -0.6084
  489MOL0     H65972  10.843   7.909  -0.017 -0.2461  1.3148  2.7814
  489MOL0     H65973  10.543   7.848  -0.047  0.5480 -1.1398  2.2416
  489MOL0     H65974  10.617   7.997  -0.098 -1.4750  3.8141  3.7393
  489MOL0     H65975  10.763   8.149  -0.061  1.9868  0.3443 -0.2101
  489MOL0     H65976  11.044   8.305   0.048 -0.3229 -2.0096  1.1613
  489MOL0     H65977  10.956   8.275  -0.099  3.9719  1.0085 -0.7049
  489MOL0     H65978  10.936   8.435  -0.006 -0.3452 -0.1433  3.2182
  489MOL0     H65979  10.892   8.707   0.393  0.3811 -2.6679  0.5998
  489MOL0     H65980  11.068   8.877   0.504 -0.8392  1.5220 -2.1016
  489MOL0     H65981  11.233   9.015   0.565  0.4492  0.7990  0.4724
  489MOL0     H65982  11.298   8.893   0.670 -1.8355  0.0164 -0.1990
  489MOL0     H65983  11.437   9.081   0.692 -0.4918  2.5129 -2.7525
  489MOL0     H65984  11.519   8.935   0.658  2.2752  1.6965 -1.1071
  489MOL0     H65985  11.449   9.086   0.406 -1.2459 -1.9305 -0.2539
  489MOL0     H65986  11.592   8.992   0.466 -0.2617 -0.0755 -0.8906
  489MOL0     H65987  11.520   9.275   0.525 -0.4911  1.0119  5.7503
  489MOL0     H65988  11.631   9.183   0.626  1.3769 -0.8563 -1.5966
  489MOL0     H65989  11.692   9.239   0.335 -0.6250 -3.7114 -0.4947
  489MOL0     H65990  11.786   9.140   0.457  0.1899 -1.0866 -2.6772
  489MOL0     H65991  11.708   9.434   0.490 -1.4413  0.2344  0.0246
  489MOL0     H65992  11.843   9.343   0.580  0.4490  0.1595 -1.0122
  489MOL0     H65993  11.872   9.396   0.288  0.8365  1.0360 -1.1094
  489MOL0     H65994  11.993   9.346   0.408 -0.2814  0.0584  0.0126
  489MOL0     H65995  11.960   9.546   0.528  0.9975 -3.1609 -0.8522
  489MOL0     H65996  11.845   9.605   0.395 -1.5073 -3.0183 -2.2495
  489MOL0     H65997  11.371   8.687   0.275 -0.3556 -1.7032  0.1736
  489MOL0     H65998  11.210   8.545   0.173  1.6730 -0.9859  1.6120
  489MOL0     H65999  10.751   8.263   0.413 -0.3145 -0.6627  0.1553
  489MOL0     H66000  10.614   8.082   0.336  4.1032 -0.2219  2.3616
  489MOL0     H66001  10.513   7.886   1.401 -0.1983  0.2393 -0.0592
  489MOL0     H66002  10.333   8.029   1.351  1.0542 -2.4084 -0.6290
  489MOL0     H66003  10.307   8.651   1.429  0.0729 -2.0210 -0.7551
  489MOL0     H66004  10.130   8.809   1.384  2.4179  0.2822  0.0131
  489MOL0     H66005   9.852   8.889   1.338 -0.4229 -0.0093 -0.1818
  489MOL0     H66006   9.996   8.928   1.237 -0.3650  0.9906 -0.0287
  489MOL0     H66007   9.744   9.030   1.207 -0.6670  0.0919 -1.4337
  489MOL0     H66008   9.739   8.903   1.087 -0.4387 -0.1462  1.0749
  489MOL0     H66009   9.943   9.133   1.101 -0.7533  1.4644 -2.0030
  489MOL0     H66010   9.826   9.122   0.977  0.6253  2.4434  0.7138
  489MOL0     H66011  10.071   8.940   0.996 -0.9224 -1.2169  0.9630
  489MOL0     H66012  10.031   9.064   0.888  0.0827  4.5282  3.7022
  489MOL0     H66013   9.809   8.697   0.778 -2.4729  1.2076  1.1030
  489MOL0     H66014   9.942   8.518   1.123  1.3739 -3.0185 -0.8241
  489MOL0     H66015  10.103   8.341   1.200 -1.5766  0.0584 -0.0424
  490MOL0     O66016  10.943   3.731  10.071  0.1143 -0.3414 -0.1577
  490MOL0     C66017  10.919   3.775  10.186 -0.6850  0.0034 -0.7669
  490MOL0     O66018  10.956   3.711  10.301 -0.2935  0.5699  0.0335
  490MOL0     C66019  11.014   3.583  10.277  0.0934 -1.0404 -0.8522
  490MOL0     C66020  11.155   3.563  10.281 -0.6065  0.5032 -0.0940
  490MOL0     C66021  11.210   3.434  10.263  1.1474  0.2217 -1.0516
  490MOL0     C66022  11.122   3.321  10.254 -0.0016  0.6043 -0.1869
  490MOL0     O66023  11.170   3.195  10.230  0.6375 -0.2512  0.1716
  490MOL0     C66024  11.298   3.157  10.292 -0.1342  0.4910 -0.8347
  490MOL0     C66025  11.340   3.020  10.228  0.4821  0.5078 -0.7785
  490MOL0     C66026  11.377   3.048  10.076  0.0794  0.0970  0.5780
  490MOL0     C66027  11.519   3.094  10.055  0.0280  0.1039 -0.2040
  490MOL0     C66028  11.551   3.125   9.906  0.2175 -0.4318 -0.4481
  490MOL0     C66029  11.700   3.158   9.892  0.1471 -0.3044 -0.3998
  490MOL0     C66030  11.745   3.155   9.745 -0.6527  1.1476  0.0272
  490MOL0     C66031  11.879   3.222   9.720  0.0734  0.6796 -0.9543
  490MOL0     N66032  11.860   3.370   9.699  0.4589 -0.1207  0.6954
  490MOL0     C66033  11.744   3.434   9.656  0.3294  0.2617 -0.4905
  490MOL0     C66034  11.760   3.559   9.696 -0.3245 -0.2615 -0.1450
  490MOL0     C66035  11.659   3.672   9.662 -0.6986 -0.1449  0.0396
  490MOL0     C66036  11.717   3.761   9.544 -0.7778  0.0804 -0.1236
  490MOL0     C66037  11.626   3.878   9.513  0.3768 -0.0393  0.0441
  490MOL0     C66038  11.656   3.944   9.378 -0.8319 -0.4980 -0.0952
  490MOL0     O66039  11.642   3.854   9.263  0.5061 -0.0393 -0.5823
  490MOL0     C66040  11.514   3.825   9.230  0.3479 -0.4823 -0.0155
  490MOL0     C66041  11.450   3.721   9.299 -0.7818 -0.2123 -0.5884
  490MOL0     C66042  11.308   3.700   9.290  0.4723  0.4368  0.0385
  490MOL0     C66043  11.250   3.590   9.382  0.4962  0.6785  0.4185
  490MOL0     C66044  11.228   3.777   9.200 -1.2631  0.6089  0.2041
  490MOL0     C66045  11.082   3.762   9.192  0.8511 -0.1811  0.6447
  490MOL0     O66046  11.013   3.867   9.135  0.6895 -0.2141  0.1196
  490MOL0     C66047  10.868   3.861   9.113  0.1567 -0.2372  0.0238
  490MOL0     C66048  10.780   3.826   9.214  0.1486  0.4774 -0.6282
  490MOL0     C66049  10.643   3.825   9.190 -0.4664  0.4278 -0.1137
  490MOL0     C66050  10.592   3.873   9.077 -0.7403 -0.9494  0.3745
  490MOL0     O66051  10.451   3.873   9.070 -0.6184  0.4049 -0.1577
  490MOL0     C66052  10.389   3.810   8.956 -0.2153  0.0906  0.1225
  490MOL0     C66053  10.249   3.752   9.019  0.6959  0.3363 -0.3883
  490MOL0     C66054  10.150   3.866   9.040 -0.6719  0.0137  0.2245
  490MOL0     C66055  10.018   3.809   9.100 -0.8643 -0.8131  0.1263
  490MOL0     C66056   9.917   3.921   9.101  0.1497  0.0192  0.1826
  490MOL0     C66057   9.778   3.869   9.122  0.4135  0.1743  0.1839
  490MOL0     C66058   9.677   3.981   9.127  0.6670 -0.9200  0.1508
  490MOL0     C66059   9.534   3.952   9.179  0.3156  0.1726  0.2357
  490MOL0    Cl66060   9.500   3.983   9.356 -0.1668 -0.4539  0.0601
  490MOL0     C66061  10.676   3.929   8.977  0.5535  0.2566 -0.6237
  490MOL0     C66062  10.819   3.921   8.996  0.2843 -1.0289 -1.1396
  490MOL0     O66063  11.034   3.658   9.215  0.3462 -0.2658 -0.0301
  490MOL0     C66064  11.297   3.876   9.121  0.0895  0.6421 -1.1764
  490MOL0     C66065  11.429   3.904   9.150 -0.0607  0.8499  0.5322
  490MOL0     N66066  11.883   3.578   9.752 -0.9368  0.3687 -0.5918
  490MOL0     N66067  11.942   3.465   9.754  0.3133 -0.4018  0.1749
  490MOL0     C66068  10.982   3.335  10.259 -0.4813 -0.5429 -0.4418
  490MOL0     C66069  10.931   3.471  10.272 -0.3200  0.1326  0.5782
  490MOL0     C66070  10.835   3.900  10.199 -0.0020 -0.6589  0.5755
  490MOL0     C66071  10.803   3.976  10.082  0.3480  0.4961  0.2214
  490MOL0     C66072  10.738   4.100  10.082  0.1941  0.1162  0.0582
  490MOL0     C66073  10.693   4.148  10.206  1.0423 -0.7852  0.3473
  490MOL0     O66074  10.619   4.271  10.202 -0.5235  0.2108 -1.0377
  490MOL0     C66075  10.699   4.387  10.181  0.8775 -0.6038  1.0431
  490MOL0     C66076  10.613   4.517  10.155 -0.4788 -0.2942 -1.4322
  490MOL0     C66077  10.719   4.627  10.122  0.7046 -0.0539  0.5838
  490MOL0     C66078  10.655   4.761  10.171 -0.8752  0.9729  0.3086
  490MOL0     C66079  10.746   4.877  10.166 -0.0194  0.5796 -0.4776
  490MOL0     C66080  10.827   4.964  10.162  0.1190 -0.1425  0.1197
  490MOL0     C66081  10.732   4.078  10.324  0.1387  0.2590 -0.4289
  490MOL0     C66082  10.803   3.960  10.321  0.0907  0.4577 -0.6113
  490MOL0     H66083  11.225   3.646  10.291 -1.3590  0.9691  1.4610
  490MOL0     H66084  11.317   3.419  10.256  1.1842 -0.7409  1.0829
  490MOL0     H66085  11.375   3.233  10.284 -0.1152  0.5650 -0.0873
  490MOL0     H66086  11.275   3.132  10.397 -1.0056 -0.8000 -1.2964
  490MOL0     H66087  11.437   2.989  10.269  1.0800  2.8904 -0.2057
  490MOL0     H66088  11.272   2.936  10.244  0.8664  0.0294 -1.6026
  490MOL0     H66089  11.350   2.958  10.020 -1.4531 -0.4938  2.1507
  490MOL0     H66090  11.316   3.124  10.027  0.3419 -0.4004 -0.5450
  490MOL0     H66091  11.532   3.183  10.116 -2.7965  2.6246 -2.9222
  490MOL0     H66092  11.593   3.025  10.095  2.2222  1.1890 -2.1346
  490MOL0     H66093  11.542   3.024   9.867  2.2107 -0.9508  0.3236
  490MOL0     H66094  11.496   3.199   9.848  3.8131  3.2130  0.3651
  490MOL0     H66095  11.716   3.250   9.948 -3.0255 -0.9330  1.7416
  490MOL0     H66096  11.760   3.088   9.951 -1.6699 -0.3210  1.5079
  490MOL0     H66097  11.765   3.050   9.721  1.8096  1.1635  1.6774
  490MOL0     H66098  11.660   3.194   9.688 -1.1439  2.2733  1.4730
  490MOL0     H66099  11.923   3.177   9.630  0.0750 -2.3222  0.4278
  490MOL0     H66100  11.943   3.216   9.809 -2.2313  4.2434  1.1890
  490MOL0     H66101  11.674   3.407   9.577  0.6814  5.2469 -2.8863
  490MOL0     H66102  11.562   3.626   9.645  0.2570 -2.1885 -0.1561
  490MOL0     H66103  11.661   3.734   9.753  2.5996  2.4551 -1.5710
  490MOL0     H66104  11.729   3.695   9.457 -0.2121  1.3022 -1.0052
  490MOL0     H66105  11.823   3.784   9.562 -1.2398  0.8794  1.7923
  490MOL0     H66106  11.639   3.945   9.598 -1.0341 -0.0793  0.3149
  490MOL0     H66107  11.522   3.843   9.509  0.4416 -0.2930  0.5592
  490MOL0     H66108  11.762   3.971   9.380 -1.3462  1.7234 -0.7612
  490MOL0     H66109  11.587   4.027   9.368  0.6379  1.1355  2.1766
  490MOL0     H66110  11.515   3.656   9.356  0.5218  2.2493  0.9115
  490MOL0     H66111  11.223   3.504   9.320  1.1650 -0.1381  1.2301
  490MOL0     H66112  11.322   3.558   9.458  2.2756 -0.5855 -1.6789
  490MOL0     H66113  11.163   3.621   9.440  0.5442  0.6451  0.5103
  490MOL0     H66114  10.807   3.784   9.310 -1.9578 -0.5806 -0.4426
  490MOL0     H66115  10.578   3.796   9.272  1.5412  0.1466  1.4741
  490MOL0     H66116  10.369   3.869   8.866  0.4348 -2.2980 -1.6663
  490MOL0     H66117  10.445   3.722   8.925 -0.6945 -0.5579  1.0586
  490MOL0     H66118  10.205   3.693   8.938  0.7716  1.9891 -1.6768
  490MOL0     H66119  10.275   3.706   9.115 -0.5133 -0.1106 -0.2496
  490MOL0     H66120  10.136   3.917   8.944  0.8768  0.8433  0.4052
  490MOL0     H66121  10.197   3.936   9.110  0.0137 -1.2028  1.0173
  490MOL0     H66122   9.984   3.726   9.038  1.6148  0.1743 -2.8064
  490MOL0     H66123  10.041   3.777   9.201  2.4257 -1.1276 -0.6014
  490MOL0     H66124   9.912   3.976   9.007  0.6206  0.6527  0.5183
  490MOL0     H66125   9.937   3.996   9.178 -1.8251 -1.1688  1.9529
  490MOL0     H66126   9.755   3.797   9.043  0.4660 -0.6853  0.9286
  490MOL0     H66127   9.769   3.816   9.218 -0.2581 -3.0329 -1.5113
  490MOL0     H66128   9.653   4.026   9.030 -0.3205 -2.5346 -0.3871
  490MOL0     H66129   9.725   4.054   9.193  0.5225  0.6668 -1.4337
  490MOL0     H66130   9.499   3.852   9.154  1.2908 -0.8535  2.6053
  490MOL0     H66131   9.458   4.026   9.153 -0.7617 -0.4134  1.5961
  490MOL0     H66132  10.624   3.981   8.897  0.1697 -0.0467 -0.5716
  490MOL0     H66133  10.899   3.946   8.927  4.1093  0.6591  3.3430
  490MOL0     H66134  11.239   3.946   9.062 -0.9655  2.2814  1.6283
  490MOL0     H66135  11.474   3.993   9.105  2.3827 -1.0640 -1.0724
  490MOL0     H66136  10.917   3.250  10.240 -1.5405  0.5183 -1.6776
  490MOL0     H66137  10.825   3.494  10.272 -0.7325 -1.1943  3.6104
  490MOL0     H66138  10.831   3.938   9.984 -1.9092 -0.9404  0.0536
  490MOL0     H66139  10.714   4.157   9.993 -2.2609  0.0653  0.6289
  490MOL0     H66140  10.758   4.401  10.272  2.4647 -3.4853  0.5815
  490MOL0     H66141  10.778   4.382  10.105 -0.4301  1.3046 -0.5413
  490MOL0     H66142  10.573   4.540  10.254 -0.7949 -3.6829 -0.6789
  490MOL0     H66143  10.538   4.503  10.077 -1.1964 -2.7198 -0.3878
  490MOL0     H66144  10.737   4.638  10.014 -0.2459 -2.5744  0.0991
  490MOL0     H66145  10.812   4.619  10.179  0.5915 -0.6797  0.6949
  490MOL0     H66146  10.641   4.743  10.278  1.7002 -1.2136  0.3600
  490MOL0     H66147  10.562   4.777  10.115 -1.5695 -1.3121  0.7053
  490MOL0     H66148  10.896   5.046  10.163  0.3846 -0.3636  0.5653
  490MOL0     H66149  10.710   4.112  10.425  0.4866 -2.9616  0.8674
  490MOL0     H66150  10.840   3.910  10.410 -0.7041 -0.0464 -0.5480
  491MOL0     O66151   5.636   2.397   9.830 -0.6531 -0.4265 -0.9034
  491MOL0     C66152   5.521   2.392   9.878 -0.2645 -0.5893 -0.1268
  491MOL0     O66153   5.420   2.479   9.848  0.6690 -0.6411  0.9065
  491MOL0     C66154   5.436   2.578   9.753 -0.7336  0.1141  0.4190
  491MOL0     C66155   5.421   2.708   9.797 -0.1657  0.2137  1.1713
  491MOL0     C66156   5.412   2.812   9.702  0.3973  0.5247  1.1527
  491MOL0     C66157   5.432   2.787   9.564 -0.8785 -0.3010 -0.3299
  491MOL0     O66158   5.443   2.894   9.481 -0.2268  0.2006  0.1845
  491MOL0     C66159   5.340   2.912   9.373  1.0949 -0.1355 -0.4297
  491MOL0     C66160   5.296   3.062   9.364 -0.0249  0.4395 -0.5108
  491MOL0     C66161   5.196   3.080   9.243  0.5782 -1.0633  0.1514
  491MOL0     C66162   5.051   3.099   9.285 -0.7690 -0.7537 -1.4192
  491MOL0     C66163   4.969   3.115   9.162 -0.2596  0.2382  0.0352
  491MOL0     C66164   4.822   3.102   9.199  0.0526 -0.9734 -0.0609
  491MOL0     C66165   4.728   3.115   9.080 -1.0069  0.7349  0.5171
  491MOL0     C66166   4.724   3.259   9.039  0.7520  0.7870  0.8433
  491MOL0     N66167   4.617   3.288   8.949  0.2917  0.2819 -0.3182
  491MOL0     C66168   4.644   3.360   8.831 -0.3585 -0.5236  0.8593
  491MOL0     C66169   4.525   3.410   8.794  0.5726  0.8102 -0.7993
  491MOL0     C66170   4.495   3.507   8.689  0.9538  0.0558 -0.4029
  491MOL0     C66171   4.534   3.647   8.731 -0.4858 -0.1100 -0.3879
  491MOL0     C66172   4.500   3.764   8.641  0.4254 -0.6200  0.0033
  491MOL0     C66173   4.572   3.744   8.500 -0.0445  0.1250  0.2093
  491MOL0     O66174   4.572   3.873   8.428 -0.4535  0.5063 -0.3508
  491MOL0     C66175   4.459   3.927   8.379  0.2154 -0.8357 -0.2969
  491MOL0     C66176   4.430   4.064   8.391  0.6765 -0.3901  1.3997
  491MOL0     C66177   4.319   4.119   8.323 -0.1473 -0.7130  1.8394
  491MOL0     C66178   4.309   4.271   8.326  0.7088  0.5974 -0.9788
  491MOL0     C66179   4.234   4.036   8.247  0.6711  0.2671 -0.4745
  491MOL0     C66180   4.128   4.099   8.166 -0.1781  0.6056  0.4268
  491MOL0     O66181   4.042   4.175   8.234 -0.2013 -0.4047  0.8918
  491MOL0     C66182   3.958   4.254   8.167  0.0201  0.7588  0.4149
  491MOL0     C66183   4.006   4.378   8.117  0.2665  0.0531  0.1922
  491MOL0     C66184   3.917   4.457   8.038 -1.4326  0.9367  0.1389
  491MOL0     C66185   3.794   4.422   8.013  0.2593 -0.3595 -0.0408
  491MOL0     O66186   3.724   4.522   7.952  0.2091 -0.1230 -0.3519
  491MOL0     C66187   3.582   4.535   7.979 -0.3804 -0.3444  0.5461
  491MOL0     C66188   3.547   4.652   7.886  0.8571 -0.0021 -0.1965
  491MOL0     C66189   3.531   4.623   7.739  0.1484  0.3072 -0.0387
  491MOL0     C66190   3.391   4.625   7.690 -0.2200  0.2961  0.1361
  491MOL0     C66191   3.396   4.588   7.531 -0.4258  0.3130 -0.7893
  491MOL0     C66192   3.253   4.566   7.484  0.6528 -0.1167 -0.2092
  491MOL0     C66193   3.243   4.521   7.339  0.0538 -0.4663 -0.3433
  491MOL0     C66194   3.102   4.486   7.295 -0.4102 -0.2478 -0.8881
  491MOL0    Cl66195   3.103   4.409   7.136 -0.3118  0.1954 -0.1760
  491MOL0     C66196   3.747   4.300   8.069  0.5113  1.0008 -0.2635
  491MOL0     C66197   3.834   4.212   8.147 -0.4027 -0.5663 -0.0793
  491MOL0     O66198   4.124   4.083   8.043 -0.7729 -0.4737 -0.3848
  491MOL0     C66199   4.261   3.898   8.238 -0.0665  0.6954 -0.5657
  491MOL0     C66200   4.374   3.845   8.307  0.0743 -0.5328  0.5902
  491MOL0     N66201   4.428   3.370   8.878  1.7654 -0.1088  0.5966
  491MOL0     N66202   4.477   3.295   8.965  0.0379 -0.0536  0.1729
  491MOL0     C66203   5.452   2.654   9.515 -0.0300 -0.0836 -0.8322
  491MOL0     C66204   5.458   2.551   9.615  0.9371 -0.0104  2.1842
  491MOL0     C66205   5.486   2.282   9.966 -0.4665  0.3982  1.1058
  491MOL0     C66206   5.367   2.287  10.025 -1.0685  0.1184 -0.0493
  491MOL0     C66207   5.317   2.184  10.110 -0.6049 -0.2958  0.8134
  491MOL0     C66208   5.393   2.071  10.131 -0.9771 -0.5186 -0.0259
  491MOL0     O66209   5.349   1.964  10.202  0.4644  0.6644  0.2205
  491MOL0     C66210   5.272   1.985  10.324 -0.1450 -0.1875  0.2204
  491MOL0     C66211   5.318   1.892  10.430  0.2647  0.0139 -0.4790
  491MOL0     C66212   5.282   1.751  10.390 -0.1516 -0.2906 -0.0230
  491MOL0     C66213   5.140   1.709  10.429  0.5266 -0.2874 -0.4995
  491MOL0     C66214   5.114   1.570  10.405 -0.1100  0.8025  0.7462
  491MOL0     C66215   5.099   1.447  10.379  0.1612 -0.3200  0.6228
  491MOL0     C66216   5.522   2.069  10.073  0.3783  0.5262 -0.8933
  491MOL0     C66217   5.577   2.168   9.992  0.8513 -1.0702 -0.2567
  491MOL0     H66218   5.410   2.740   9.900  0.5075 -0.3288  1.4218
  491MOL0     H66219   5.400   2.917   9.727  0.4559  1.8519 -3.3799
  491MOL0     H66220   5.389   2.884   9.279 -0.3861 -0.0018 -1.2674
  491MOL0     H66221   5.252   2.847   9.383  1.3089 -0.1759  1.6675
  491MOL0     H66222   5.248   3.088   9.459  1.0035  1.7245 -0.3190
  491MOL0     H66223   5.383   3.128   9.356  0.1734  0.0887 -1.2742
  491MOL0     H66224   5.236   3.162   9.181  2.2139 -2.5790 -0.9183
  491MOL0     H66225   5.199   2.995   9.174 -0.2013  1.3365 -3.1297
  491MOL0     H66226   5.007   3.021   9.348  0.7720 -1.8053 -1.5612
  491MOL0     H66227   5.037   3.183   9.354  1.4190  0.2998 -2.1388
  491MOL0     H66228   4.985   3.210   9.111 -1.9369 -0.2205 -1.4703
  491MOL0     H66229   4.993   3.040   9.086  0.7882  0.3788  0.2192
  491MOL0     H66230   4.801   3.005   9.244 -0.4165  0.0992  2.1865
  491MOL0     H66231   4.800   3.180   9.273 -2.1143 -0.8271 -0.7918
  491MOL0     H66232   4.769   3.059   8.995 -0.3558 -0.5350  1.6297
  491MOL0     H66233   4.631   3.070   9.105  0.4478 -3.0464  0.0886
  491MOL0     H66234   4.813   3.282   8.981  0.5144 -0.6584 -0.1546
  491MOL0     H66235   4.718   3.320   9.129 -0.7246 -0.0330  1.3415
  491MOL0     H66236   4.746   3.380   8.799 -0.2777 -0.5246  1.1086
  491MOL0     H66237   4.545   3.469   8.599 -0.0423 -0.0651 -0.9200
  491MOL0     H66238   4.387   3.505   8.669  1.0448  0.6527 -0.9789
  491MOL0     H66239   4.643   3.644   8.731 -0.5115 -1.8933 -0.8033
  491MOL0     H66240   4.488   3.667   8.828  2.2726 -1.4458  1.3181
  491MOL0     H66241   4.548   3.854   8.682  1.0160 -1.3370  0.9369
  491MOL0     H66242   4.393   3.778   8.624  0.5285 -2.0856 -2.1859
  491MOL0     H66243   4.518   3.666   8.445 -4.0134  3.0820 -0.4937
  491MOL0     H66244   4.677   3.719   8.518  1.0045  2.4674 -2.0685
  491MOL0     H66245   4.504   4.122   8.447  0.3216  1.7133 -0.1620
  491MOL0     H66246   4.218   4.294   8.381  0.1607 -2.6213 -0.3297
  491MOL0     H66247   4.388   4.309   8.392 -0.6059 -0.3024  1.2063
  491MOL0     H66248   4.303   4.321   8.229 -0.0428 -0.0171 -1.2551
  491MOL0     H66249   4.111   4.403   8.131  0.8593 -3.1463  2.7801
  491MOL0     H66250   3.953   4.550   7.994 -2.7488  1.6696  0.5741
  491MOL0     H66251   3.527   4.447   7.945  4.3777 -3.8821  1.0130
  491MOL0     H66252   3.560   4.544   8.085  0.8562 -2.3299  1.0287
  491MOL0     H66253   3.447   4.683   7.918  0.2527 -1.2208 -0.8520
  491MOL0     H66254   3.611   4.741   7.887  0.1641  0.6749 -3.6361
  491MOL0     H66255   3.574   4.531   7.699 -2.1745  0.5192 -3.4865
  491MOL0     H66256   3.574   4.714   7.697  1.0633 -0.0003  0.2047
  491MOL0     H66257   3.326   4.547   7.731 -1.8565 -0.4211 -3.4328
  491MOL0     H66258   3.339   4.721   7.698 -2.5629 -0.6818 -1.8946
  491MOL0     H66259   3.450   4.494   7.514  0.9091  1.0416 -0.7126
  491MOL0     H66260   3.445   4.667   7.474  0.3947  1.5949  1.5666
  491MOL0     H66261   3.202   4.489   7.544 -0.3973 -0.5527 -1.5955
  491MOL0     H66262   3.202   4.662   7.495  0.2475 -0.4420  0.8527
  491MOL0     H66263   3.309   4.436   7.319 -2.7192 -2.5711 -1.3000
  491MOL0     H66264   3.277   4.606   7.280 -1.3113  0.1839 -0.2386
  491MOL0     H66265   3.037   4.573   7.292  0.7689  0.6923 -0.0856
  491MOL0     H66266   3.061   4.418   7.371  0.6668  2.1566  2.0519
  491MOL0     H66267   3.644   4.271   8.047  0.8946 -0.1783 -0.5832
  491MOL0     H66268   3.810   4.112   8.181 -3.0159 -0.4061 -1.2391
  491MOL0     H66269   4.208   3.828   8.174  2.6183 -1.8312 -0.2717
  491MOL0     H66270   4.397   3.741   8.289 -1.1641 -1.1378  2.3283
  491MOL0     H66271   5.469   2.629   9.411  3.8077  1.6207 -0.7654
  491MOL0     H66272   5.472   2.446   9.592  1.7504  0.9743 -2.9350
  491MOL0     H66273   5.298   2.366   9.999 -0.5199  0.4066 -0.6639
  491MOL0     H66274   5.211   2.189  10.130 -0.7914 -0.5615 -0.0503
  491MOL0     H66275   5.304   2.085  10.355  0.3137 -0.0363 -0.7176
  491MOL0     H66276   5.167   1.965  10.300  0.1185  0.2130 -1.3489
  491MOL0     H66277   5.263   1.923  10.519 -0.9307 -0.3808 -1.0619
  491MOL0     H66278   5.426   1.887  10.445  0.0124  0.4705  1.9451
  491MOL0     H66279   5.345   1.682  10.448 -1.0642 -0.5296  0.7094
  491MOL0     H66280   5.292   1.739  10.282 -3.0327 -1.5952 -0.2158
  491MOL0     H66281   5.062   1.763  10.375  0.4064  0.6563  0.5850
  491MOL0     H66282   5.120   1.724  10.536 -0.5657 -2.2912 -0.3767
  491MOL0     H66283   5.061   1.346  10.380 -1.0479  0.1277  1.7379
  491MOL0     H66284   5.597   1.992  10.087 -0.3525 -0.1949 -0.8916
  491MOL0     H66285   5.665   2.147   9.932 -1.4721 -5.0322 -2.7238
  492MOL0     O66286   1.355   3.147   0.568 -0.3676 -0.6538 -0.3986
  492MOL0     C66287   1.478   3.113   0.549 -0.1967  0.7724  0.5978
  492MOL0     O66288   1.542   2.994   0.594  0.5480  0.1767  0.4561
  492MOL0     C66289   1.475   2.893   0.655  0.7324 -0.5052 -0.2828
  492MOL0     C66290   1.550   2.769   0.668 -0.1536  0.5843 -0.1339
  492MOL0     C66291   1.490   2.652   0.720  0.3611  0.4778  0.8194
  492MOL0     C66292   1.353   2.653   0.752  0.1727 -0.6608  1.0420
  492MOL0     O66293   1.298   2.541   0.804  0.3118  0.2846 -0.0084
  492MOL0     C66294   1.231   2.556   0.932  0.3030  0.2153  0.5415
  492MOL0     C66295   1.225   2.415   0.984 -0.8015  0.2880  0.0828
  492MOL0     C66296   1.181   2.413   1.132 -0.3748  0.1291  0.1972
  492MOL0     C66297   1.119   2.279   1.177 -0.6973  0.0588 -0.2588
  492MOL0     C66298   1.214   2.153   1.162 -0.1674  0.2216  0.1104
  492MOL0     C66299   1.155   2.033   1.224 -0.0298  0.3120 -0.0172
  492MOL0     C66300   1.264   1.928   1.256  0.5412 -0.1989  0.5642
  492MOL0     C66301   1.201   1.793   1.299 -0.6018 -0.4055  0.6315
  492MOL0     N66302   1.081   1.795   1.381  0.8895  0.7383 -0.1943
  492MOL0     C66303   1.074   1.853   1.505 -0.1519 -0.6318 -0.1996
  492MOL0     C66304   0.946   1.840   1.543  0.0347 -0.0987 -0.0826
  492MOL0     C66305   0.900   1.881   1.682 -0.0474  0.0694 -0.6483
  492MOL0     C66306   0.844   1.769   1.771  0.3514  0.0713 -1.0983
  492MOL0     C66307   0.919   1.636   1.772 -0.3305 -0.7144  0.4980
  492MOL0     C66308   0.896   1.559   1.898  0.0942  0.2308 -0.0894
  492MOL0     O66309   0.977   1.444   1.884  0.4829 -0.0584 -0.2326
  492MOL0     C66310   0.957   1.337   1.973 -0.1676 -0.5160 -0.0961
  492MOL0     C66311   1.073   1.265   2.002  0.4428 -0.1733 -0.1878
  492MOL0     C66312   1.064   1.155   2.092 -1.0982  0.5501 -1.1865
  492MOL0     C66313   1.197   1.086   2.117 -0.6225  0.5054  0.2528
  492MOL0     C66314   0.944   1.116   2.154 -0.1005 -0.4382 -0.4512
  492MOL0     C66315   0.915   0.991   2.238  0.8531 -2.0258  0.1827
  492MOL0     O66316   0.794   0.995   2.312  0.1832  0.5800 -0.0685
  492MOL0     C66317   0.762   0.894   2.391 -0.5088  1.2820 -0.8263
  492MOL0     C66318   0.645   0.815   2.371  0.4882 -0.0825 -0.2409
  492MOL0     C66319   0.604   0.720   2.470 -0.4140 -1.1790  0.7146
  492MOL0     C66320   0.685   0.705   2.587 -0.2423  0.4036  0.1028
  492MOL0     O66321   0.657   0.617   2.685 -0.1562  0.5531  0.1888
  492MOL0     C66322   0.542   0.525   2.687 -0.1824  0.3463  0.1060
  492MOL0     C66323   0.563   0.413   2.796 -0.1654  0.2046  0.8915
  492MOL0     C66324   0.548   0.462   2.945 -0.2335 -1.1734  0.9133
  492MOL0     C66325   0.610   0.347   3.024  0.9371  0.2353 -0.4693
  492MOL0     C66326   0.560   0.362   3.167 -0.5672 -0.1391 -0.3765
  492MOL0     C66327   0.600   0.234   3.258  1.1191  0.6584  0.2050
  492MOL0     C66328   0.585   0.250   3.399  0.2503 -0.2744 -0.1805
  492MOL0     C66329   0.666   0.140   3.465 -0.3248 -0.1536 -0.1433
  492MOL0    Cl66330   0.576  -0.012   3.441 -0.1345 -0.2976  0.0681
  492MOL0     C66331   0.803   0.776   2.598 -0.2232  0.1389  0.9246
  492MOL0     C66332   0.844   0.871   2.505 -0.4801 -1.0050 -0.0023
  492MOL0     O66333   0.990   0.892   2.234 -0.1333  0.1045  0.1303
  492MOL0     C66334   0.838   1.191   2.113 -0.0688  0.0533  0.7747
  492MOL0     C66335   0.838   1.293   2.023 -0.2733 -0.7549 -0.1995
  492MOL0     N66336   0.881   1.765   1.453 -0.2071 -0.4205  0.3132
  492MOL0     N66337   0.954   1.743   1.353 -0.3622  0.3802  0.3578
  492MOL0     C66338   1.279   2.766   0.734  0.5898  0.0889 -0.7027
  492MOL0     C66339   1.336   2.887   0.698 -0.4094  0.5974 -0.0366
  492MOL0     C66340   1.571   3.193   0.474 -0.5216  0.2916 -0.2019
  492MOL0     C66341   1.690   3.149   0.415 -0.0886 -0.0242  0.2898
  492MOL0     C66342   1.770   3.243   0.347 -0.1203 -0.2791 -0.6426
  492MOL0     C66343   1.732   3.378   0.347  0.2629  0.2800 -0.8535
  492MOL0     O66344   1.800   3.466   0.272 -0.1288 -0.7930  0.8324
  492MOL0     C66345   1.807   3.607   0.303  0.2080 -0.3737 -0.0748
  492MOL0     C66346   1.958   3.635   0.279  0.1879  0.0826 -0.3847
  492MOL0     C66347   2.070   3.568   0.361 -0.1047 -0.1277 -0.3753
  492MOL0     C66348   2.076   3.606   0.509  0.4281 -0.8284  0.5848
  492MOL0     C66349   2.055   3.746   0.547 -0.0435 -1.3317  0.0241
  492MOL0     C66350   2.034   3.869   0.580  0.2065  0.4939  0.1209
  492MOL0     C66351   1.597   3.408   0.399 -0.4973 -0.0032 -0.2098
  492MOL0     C66352   1.530   3.323   0.468  1.2574  0.1497  0.0010
  492MOL0     H66353   1.656   2.765   0.646  0.0798 -0.8717  1.0838
  492MOL0     H66354   1.542   2.557   0.728 -1.1007 -0.2970  1.4500
  492MOL0     H66355   1.288   2.611   1.007 -0.4653 -1.4045  2.4054
  492MOL0     H66356   1.133   2.604   0.931  0.3769  0.4881  2.3210
  492MOL0     H66357   1.161   2.357   0.918  3.8250 -1.1354 -3.7307
  492MOL0     H66358   1.320   2.361   0.972 -0.6444  1.0330 -2.6825
  492MOL0     H66359   1.263   2.438   1.200 -0.5911  4.2414 -0.7705
  492MOL0     H66360   1.109   2.493   1.150  1.1476  1.7952 -0.7370
  492MOL0     H66361   1.086   2.282   1.281 -1.8498 -5.0723 -0.2049
  492MOL0     H66362   1.030   2.250   1.119 -0.4580 -0.5639 -0.3214
  492MOL0     H66363   1.232   2.131   1.056  0.9312 -0.9671  0.5133
  492MOL0     H66364   1.312   2.168   1.208  0.2153 -0.9194 -0.2919
  492MOL0     H66365   1.117   2.061   1.323  2.1724 -0.4583  1.1102
  492MOL0     H66366   1.076   1.983   1.166  1.9113 -2.6151 -0.3127
  492MOL0     H66367   1.320   1.935   1.162  0.4709  3.0967  0.6355
  492MOL0     H66368   1.338   1.965   1.328  0.2186 -0.1626  0.8794
  492MOL0     H66369   1.273   1.739   1.361  0.9425 -1.6008 -1.9989
  492MOL0     H66370   1.183   1.733   1.209  0.3497 -0.8430  0.7228
  492MOL0     H66371   1.150   1.887   1.574  1.7270 -3.2350 -0.8219
  492MOL0     H66372   0.979   1.932   1.737  1.9518 -2.0407 -1.4128
  492MOL0     H66373   0.822   1.957   1.673  1.2606  1.2957 -2.2985
  492MOL0     H66374   0.739   1.752   1.750  0.0264  0.6145  0.0183
  492MOL0     H66375   0.853   1.812   1.871 -0.3027 -1.8041 -0.1829
  492MOL0     H66376   1.027   1.652   1.763 -0.7838  1.4356 -2.3944
  492MOL0     H66377   0.887   1.576   1.687  1.3193 -4.3165  2.1913
  492MOL0     H66378   0.792   1.528   1.908  0.2991 -0.7558 -0.8633
  492MOL0     H66379   0.912   1.614   1.991 -2.4884  1.8359 -0.4880
  492MOL0     H66380   1.166   1.289   1.951 -0.2617 -0.9160 -1.8795
  492MOL0     H66381   1.212   1.072   2.225 -3.4631 -5.4601  0.2646
  492MOL0     H66382   1.209   0.980   2.096  2.8000  0.5080  1.4924
  492MOL0     H66383   1.274   1.143   2.064 -1.8328  1.6924 -0.2865
  492MOL0     H66384   0.586   0.814   2.280 -1.8875  2.7449  1.0954
  492MOL0     H66385   0.509   0.668   2.458 -1.5526  0.4195  2.3267
  492MOL0     H66386   0.448   0.577   2.707 -1.7784 -2.4584  0.5464
  492MOL0     H66387   0.546   0.482   2.586  0.4464  3.7955 -1.4607
  492MOL0     H66388   0.496   0.328   2.785  0.5254 -0.3536  0.9121
  492MOL0     H66389   0.669   0.390   2.780 -0.2840 -1.5877  2.3525
  492MOL0     H66390   0.443   0.475   2.971  0.6473  0.9197  4.0412
  492MOL0     H66391   0.608   0.550   2.972  0.9065 -2.4161  2.7005
  492MOL0     H66392   0.562   0.255   2.990  2.4746 -1.6366  2.0990
  492MOL0     H66393   0.717   0.331   3.014  1.0385  0.7735 -0.2946
  492MOL0     H66394   0.452   0.378   3.159 -0.8103 -1.1177  0.6771
  492MOL0     H66395   0.620   0.446   3.204  0.1831 -0.8318  0.0193
  492MOL0     H66396   0.527   0.159   3.226  1.6984  0.4306 -0.6264
  492MOL0     H66397   0.702   0.203   3.230  1.1401 -0.5529  1.5309
  492MOL0     H66398   0.480   0.250   3.430 -0.8822  2.8129 -3.3231
  492MOL0     H66399   0.629   0.348   3.422  1.4795 -0.8909  0.2123
  492MOL0     H66400   0.656   0.154   3.573 -0.8119 -1.2566 -0.0288
  492MOL0     H66401   0.771   0.145   3.438 -0.0644  0.5722  0.9271
  492MOL0     H66402   0.873   0.751   2.677  2.4210 -0.9971 -1.5991
  492MOL0     H66403   0.937   0.925   2.519 -1.2452  0.5141 -0.6231
  492MOL0     H66404   0.736   1.180   2.148  0.2450 -0.2535  1.6384
  492MOL0     H66405   0.747   1.344   1.993 -0.7871 -0.8951  1.0621
  492MOL0     H66406   1.171   2.761   0.747  0.6170 -1.3496 -0.8836
  492MOL0     H66407   1.264   2.968   0.695 -2.8803 -1.4634  0.4386
  492MOL0     H66408   1.713   3.043   0.420 -0.4441 -0.2722 -2.0943
  492MOL0     H66409   1.856   3.216   0.287 -0.6953  0.2996 -1.7540
  492MOL0     H66410   1.736   3.667   0.245  2.3791  1.2735 -1.1907
  492MOL0     H66411   1.777   3.632   0.405 -0.4400  0.2979 -0.4227
  492MOL0     H66412   1.969   3.743   0.294  1.7853 -0.3840  2.5211
  492MOL0     H66413   1.972   3.619   0.172 -1.8358  1.4628 -0.9159
  492MOL0     H66414   2.165   3.590   0.313 -0.1945 -2.8038 -1.9832
  492MOL0     H66415   2.073   3.458   0.355  2.1857 -0.1456  0.3473
  492MOL0     H66416   2.167   3.571   0.557  1.7433  1.8872  0.2581
  492MOL0     H66417   1.983   3.558   0.541  0.9775 -0.4375  2.9663
  492MOL0     H66418   2.025   3.973   0.603 -1.3009  0.7038 -1.2106
  492MOL0     H66419   1.548   3.504   0.383  0.1685  0.3514 -0.1610
  492MOL0     H66420   1.435   3.353   0.512  1.5736  1.9376 -0.4710
  493MOL0     O66421   6.780   6.117  10.600 -0.5366 -0.3223  0.0715
  493MOL0     C66422   6.858   6.218  10.581  0.3187  0.2277 -1.1233
  493MOL0     O66423   6.964   6.221  10.500  0.7275  0.5100  0.8594
  493MOL0     C66424   7.000   6.106  10.438  0.4599 -0.7191  0.3927
  493MOL0     C66425   7.137   6.092  10.424  0.8568  0.3263 -0.4038
  493MOL0     C66426   7.189   5.993  10.336 -0.2555 -0.2927 -0.5571
  493MOL0     C66427   7.104   5.896  10.280  0.5956 -0.0782 -0.0179
  493MOL0     O66428   7.155   5.789  10.208 -0.3639 -0.1486 -1.1301
  493MOL0     C66429   7.125   5.654  10.268  0.1337 -0.7577 -0.1427
  493MOL0     C66430   7.259   5.580  10.289  0.2246  0.0694  0.1548
  493MOL0     C66431   7.237   5.428  10.318  0.2404  0.5376  1.1726
  493MOL0     C66432   7.171   5.362  10.191 -0.4899 -1.2293  0.0828
  493MOL0     C66433   7.171   5.204  10.191  0.3970 -0.2207 -0.2813
  493MOL0     C66434   7.313   5.141  10.182  0.3138  0.2302  1.2762
  493MOL0     C66435   7.305   4.989  10.201 -0.5307 -0.9402 -0.0924
  493MOL0     C66436   7.210   4.923  10.096 -0.8176 -0.6457 -0.1608
  493MOL0     N66437   7.212   4.773  10.109  0.0829 -0.1634  0.0894
  493MOL0     C66438   7.185   4.704  10.229  0.7809  1.0193 -1.2680
  493MOL0     C66439   7.127   4.573  10.192 -0.7847  0.3774  0.4245
  493MOL0     C66440   7.084   4.463  10.292 -0.0839 -0.0457 -0.3733
  493MOL0     C66441   7.059   4.508  10.441 -0.5325  0.2671 -0.1255
  493MOL0     C66442   7.185   4.482  10.527 -0.3685  0.2013  0.0646
  493MOL0     C66443   7.171   4.529  10.678 -0.2436  0.5944 -0.0749
  493MOL0     O66444   7.274   4.626  10.718  0.3584 -0.0102  0.6572
  493MOL0     C66445   7.213   4.747  10.740  0.0161 -0.2595  0.7510
  493MOL0     C66446   7.182   4.836  10.632  0.1188 -0.3731 -0.0617
  493MOL0     C66447   7.134   4.964  10.657 -0.1183  0.2498 -0.3149
  493MOL0     C66448   7.109   5.050  10.539 -0.6019 -0.4522 -0.1118
  493MOL0     C66449   7.112   5.005  10.795 -0.7023 -1.3291  0.4252
  493MOL0     C66450   7.068   5.140  10.828 -0.4680  0.8952  0.0861
  493MOL0     O66451   7.076   5.176  10.961 -0.2661 -0.5153  0.1754
  493MOL0     C66452   7.037   5.308  10.996 -0.6124  0.5341  0.1041
  493MOL0     C66453   7.117   5.418  11.036 -0.2368 -0.5093 -0.3939
  493MOL0     C66454   7.059   5.537  11.084  0.3826  0.6973 -0.3309
  493MOL0     C66455   6.918   5.558  11.089  0.0944 -1.2979 -0.6314
  493MOL0     O66456   6.877   5.684  11.121  0.3342  0.6598  0.1733
  493MOL0     C66457   6.731   5.713  11.144 -0.9773  1.0215  0.8648
  493MOL0     C66458   6.679   5.648  11.268 -0.9707 -0.0535 -1.4302
  493MOL0     C66459   6.531   5.674  11.310  0.2951 -0.3521 -0.1209
  493MOL0     C66460   6.489   5.596  11.436 -0.3656  0.4822 -0.4189
  493MOL0     C66461   6.343   5.608  11.460  0.2514  0.3687  0.9822
  493MOL0     C66462   6.314   5.576  11.606 -0.0010  0.2408 -0.2881
  493MOL0     C66463   6.166   5.604  11.658 -0.6647 -0.5855 -1.1420
  493MOL0     C66464   6.163   5.610  11.815 -0.3575  0.6935 -0.1945
  493MOL0    Cl66465   6.176   5.438  11.871  0.5743 -0.0993 -0.4900
  493MOL0     C66466   6.838   5.459  11.032  0.4115 -0.0985  0.2177
  493MOL0     C66467   6.899   5.334  10.991  0.3570 -1.1007 -1.3882
  493MOL0     O66468   7.026   5.208  10.738  0.0088 -0.0862 -0.2784
  493MOL0     C66469   7.141   4.912  10.892 -0.2209  0.4246 -0.0346
  493MOL0     C66470   7.195   4.788  10.871  0.1251  0.8869  0.4897
  493MOL0     N66471   7.151   4.574  10.057  0.6191  0.1739 -0.0768
  493MOL0     N66472   7.195   4.683  10.013  0.1684  0.7044  0.1231
  493MOL0     C66473   6.968   5.907  10.291  0.4247 -0.3862  0.1001
  493MOL0     C66474   6.921   6.013  10.373  0.8564 -0.0278  1.1959
  493MOL0     C66475   6.849   6.326  10.681  0.4288  0.6395  0.2571
  493MOL0     C66476   6.921   6.445  10.670  1.2903 -0.2492  0.5454
  493MOL0     C66477   6.917   6.544  10.760 -0.6637 -0.7402 -0.5787
  493MOL0     C66478   6.849   6.529  10.887  0.3581 -0.2122 -0.2276
  493MOL0     O66479   6.858   6.606  10.996  0.8974  0.2168  0.1803
  493MOL0     C66480   6.988   6.622  11.056  1.0910  0.9881 -0.2297
  493MOL0     C66481   6.990   6.718  11.173 -1.0472  0.0464  0.3435
  493MOL0     C66482   6.893   6.682  11.295 -0.4930 -0.8154 -0.2382
  493MOL0     C66483   6.737   6.734  11.290 -0.1296  0.0835 -0.0487
  493MOL0     C66484   6.661   6.634  11.221 -0.2046 -0.0366 -0.0136
  493MOL0     C66485   6.596   6.538  11.183  0.5253  0.2840 -0.3627
  493MOL0     C66486   6.770   6.412  10.904 -0.3393  0.3955  0.2082
  493MOL0     C66487   6.765   6.310  10.801  0.3517  0.2487  0.6501
  493MOL0     H66488   7.201   6.177  10.446 -1.8523  2.3636  0.1465
  493MOL0     H66489   7.296   5.995  10.314 -0.5257  0.9747 -1.8937
  493MOL0     H66490   7.091   5.655  10.372  0.9114  1.9378  0.1549
  493MOL0     H66491   7.056   5.596  10.207 -0.6914 -2.4906  2.2722
  493MOL0     H66492   7.307   5.589  10.192 -1.8608  3.9615 -0.7042
  493MOL0     H66493   7.328   5.630  10.358 -1.1414  0.4284  1.3018
  493MOL0     H66494   7.336   5.384  10.332  0.1504 -1.2284 -2.5772
  493MOL0     H66495   7.178   5.408  10.409  1.7568  1.3231  2.3681
  493MOL0     H66496   7.068   5.400  10.185 -0.1990 -0.4486 -0.1163
  493MOL0     H66497   7.221   5.386  10.097 -1.3427  0.3221 -0.0088
  493MOL0     H66498   7.132   5.172  10.288  2.0025  2.6429  1.4565
  493MOL0     H66499   7.109   5.166  10.109  0.5937 -2.3772  0.5017
  493MOL0     H66500   7.368   5.169  10.092  1.4691 -2.4730  1.0635
  493MOL0     H66501   7.382   5.172  10.261  4.9539 -0.3659 -2.1245
  493MOL0     H66502   7.405   4.959  10.168  0.7233  1.2387  1.4437
  493MOL0     H66503   7.295   4.973  10.309  0.8722 -0.5839  0.1056
  493MOL0     H66504   7.247   4.957   9.999  2.7314  0.5849  1.4315
  493MOL0     H66505   7.103   4.943  10.108 -1.9021 -4.7640 -1.5415
  493MOL0     H66506   7.186   4.740  10.332  1.2156  0.0910 -0.9297
  493MOL0     H66507   6.997   4.411  10.251  1.4866 -1.1987 -2.4544
  493MOL0     H66508   7.156   4.381  10.304 -0.8516 -0.7574 -0.5221
  493MOL0     H66509   6.980   4.449  10.487 -0.4845  0.8091  0.6809
  493MOL0     H66510   7.041   4.616  10.451 -1.2093  0.2139 -0.7495
  493MOL0     H66511   7.277   4.526  10.488  0.1893 -0.6561  0.3889
  493MOL0     H66512   7.208   4.375  10.523 -0.8114  0.1340 -0.8872
  493MOL0     H66513   7.181   4.434  10.731  1.8913 -1.1943 -3.2848
  493MOL0     H66514   7.069   4.568  10.677  0.3021  2.4644 -4.0221
  493MOL0     H66515   7.210   4.802  10.532 -2.5877  2.2456 -1.8826
  493MOL0     H66516   7.168   5.140  10.554 -1.5548  0.1120  0.3243
  493MOL0     H66517   7.146   4.998  10.450 -0.2829 -0.6183  0.1134
  493MOL0     H66518   7.002   5.070  10.544 -0.3903  1.7885  6.8113
  493MOL0     H66519   7.224   5.414  11.021  0.2413  1.3666  1.8824
  493MOL0     H66520   7.106   5.629  11.117  0.6162  0.8879 -1.1813
  493MOL0     H66521   6.715   5.821  11.154 -1.6495  0.8799  1.4217
  493MOL0     H66522   6.670   5.693  11.056  2.9791 -0.9213 -1.7498
  493MOL0     H66523   6.719   5.546  11.259  4.5467  1.9598 -5.0440
  493MOL0     H66524   6.743   5.685  11.348 -0.4579 -4.6238  0.6269
  493MOL0     H66525   6.475   5.659  11.217 -0.1735  5.0806 -1.0816
  493MOL0     H66526   6.522   5.782  11.328  0.1934 -0.3111 -0.4018
  493MOL0     H66527   6.506   5.489  11.421 -0.0921  0.1952  1.6243
  493MOL0     H66528   6.553   5.612  11.523  2.6075 -1.0890 -2.1776
  493MOL0     H66529   6.298   5.540  11.387  2.6960 -0.3608  0.0475
  493MOL0     H66530   6.311   5.707  11.427  2.9968  1.4697  1.3503
  493MOL0     H66531   6.351   5.474  11.618 -1.2646  0.0258  2.6627
  493MOL0     H66532   6.379   5.630  11.675  2.0472 -1.3262 -0.8798
  493MOL0     H66533   6.095   5.531  11.619  1.7634 -2.7010 -1.8926
  493MOL0     H66534   6.146   5.707  11.624 -3.1347 -0.8700 -0.7245
  493MOL0     H66535   6.072   5.660  11.852 -0.0892  1.7378 -0.8979
  493MOL0     H66536   6.247   5.671  11.849  0.4562  1.4533 -3.2226
  493MOL0     H66537   6.733   5.481  11.015  0.2200 -0.8503  0.3773
  493MOL0     H66538   6.844   5.249  10.952 -0.0868 -1.4274 -0.0969
  493MOL0     H66539   7.107   4.941  10.991 -2.5744 -2.2722  0.0977
  493MOL0     H66540   7.228   4.725  10.953  0.6452  0.6386  0.1011
  493MOL0     H66541   6.898   5.848  10.234  0.7367 -0.4134 -0.2534
  493MOL0     H66542   6.814   6.028  10.384  0.6846 -1.5220  1.8625
  493MOL0     H66543   6.968   6.465  10.574 -0.0367 -1.0502 -0.3100
  493MOL0     H66544   6.989   6.625  10.756 -1.2657 -0.2461 -1.8775
  493MOL0     H66545   7.010   6.525  11.101 -3.5022  0.6631  1.9057
  493MOL0     H66546   7.054   6.650  10.974  1.2219  1.8090  0.1427
  493MOL0     H66547   6.966   6.814  11.128 -1.6453 -0.5406 -0.6218
  493MOL0     H66548   7.095   6.725  11.201 -0.8286  1.9985 -0.7592
  493MOL0     H66549   6.934   6.743  11.376 -2.4498 -1.6564  1.4910
  493MOL0     H66550   6.894   6.578  11.327 -1.5702 -0.9751 -0.6892
  493MOL0     H66551   6.720   6.830  11.240 -1.0909 -0.1104 -0.1212
  493MOL0     H66552   6.699   6.742  11.393 -1.5750 -0.2036 -0.5421
  493MOL0     H66553   6.532   6.462  11.143 -1.4745  2.4757 -1.5827
  493MOL0     H66554   6.722   6.389  10.999  0.9924  1.3724  1.1557
  493MOL0     H66555   6.706   6.220  10.814 -0.5457  0.6344 -0.5630
  494MOL0     O66556   1.465   1.174   8.263  0.1580 -0.1607  0.1512
  494MOL0     C66557   1.371   1.222   8.199 -0.0488 -0.1807  0.7240
  494MOL0     O66558   1.241   1.202   8.235  0.8376 -0.6109 -0.0757
  494MOL0     C66559   1.204   1.129   8.340  0.3754  0.7288 -0.5530
  494MOL0     C66560   1.096   1.182   8.417  0.0902 -0.1729 -0.2780
  494MOL0     C66561   1.061   1.115   8.539  0.0301 -0.6046 -0.4743
  494MOL0     C66562   1.120   0.995   8.583  0.1282 -0.6112  0.0600
  494MOL0     O66563   1.059   0.940   8.693 -0.5110  0.1534 -0.8413
  494MOL0     C66564   1.128   0.850   8.775 -0.4473  0.2772 -0.7900
  494MOL0     C66565   1.052   0.847   8.908  0.1044  0.1520 -0.4662
  494MOL0     C66566   1.106   0.734   8.994  0.3788  0.5355  1.0970
  494MOL0     C66567   1.060   0.594   8.951 -0.3155  0.8880  0.3148
  494MOL0     C66568   1.116   0.467   9.040 -0.0160  0.0985 -0.0543
  494MOL0     C66569   1.044   0.344   8.991 -0.3795  0.0161 -0.3620
  494MOL0     C66570   1.078   0.238   9.098 -1.4629  0.0369 -0.2341
  494MOL0     C66571   0.977   0.248   9.217 -0.0865 -0.5400 -0.1906
  494MOL0     N66572   0.959   0.125   9.293 -0.5381  0.2324  0.5693
  494MOL0     C66573   0.909   0.008   9.242 -0.7480 -0.4850  0.7412
  494MOL0     C66574   0.930  -0.081   9.338 -0.0255  0.5224 -0.3796
  494MOL0     C66575   0.887  -0.226   9.355 -0.4471 -0.0084 -0.7684
  494MOL0     C66576   0.978  -0.317   9.280  0.4153  0.0286  0.1605
  494MOL0     C66577   0.955  -0.318   9.128  0.3046 -0.0801  0.1596
  494MOL0     C66578   1.064  -0.413   9.050  0.1396 -0.6793  0.3189
  494MOL0     O66579   1.196  -0.353   9.040  0.0484 -0.1845  0.5458
  494MOL0     C66580   1.294  -0.445   9.039 -0.4069 -0.2977  0.4341
  494MOL0     C66581   1.400  -0.432   9.130 -0.8069  0.3250 -0.4871
  494MOL0     C66582   1.509  -0.522   9.127 -0.0342  0.1565  0.7947
  494MOL0     C66583   1.621  -0.488   9.223  0.6347 -0.0940  0.0354
  494MOL0     C66584   1.499  -0.637   9.055  0.1026  0.3131 -0.9381
  494MOL0     C66585   1.604  -0.743   9.055 -0.3058 -0.4098  0.9691
  494MOL0     O66586   1.732  -0.688   9.049 -0.0133  0.3619 -0.3400
  494MOL0     C66587   1.851  -0.759   9.070  0.8417  0.2855 -0.8449
  494MOL0     C66588   1.964  -0.682   9.070  0.0641  0.0696 -0.0219
  494MOL0     C66589   2.092  -0.739   9.082 -0.0640 -0.0753 -0.1886
  494MOL0     C66590   2.109  -0.872   9.102 -0.3526 -0.2696 -0.4936
  494MOL0     O66591   2.240  -0.906   9.115  0.2861  0.3303  0.7954
  494MOL0     C66592   2.255  -1.041   9.143  0.3642  1.1974  0.5281
  494MOL0     C66593   2.401  -1.072   9.199  0.2294  0.9548  0.0630
  494MOL0     C66594   2.411  -1.206   9.280 -0.3128  0.6221 -0.4505
  494MOL0     C66595   2.451  -1.319   9.183 -0.6333  0.6520 -0.1886
  494MOL0     C66596   2.500  -1.455   9.248 -0.5823 -1.2201  0.5474
  494MOL0     C66597   2.401  -1.537   9.312  0.0020 -0.2302  0.3336
  494MOL0     C66598   2.437  -1.693   9.316 -0.9070  0.9871  0.0260
  494MOL0     C66599   2.332  -1.776   9.384 -0.1678  0.6690  0.0022
  494MOL0    Cl66600   2.178  -1.749   9.298  0.4476  0.0102 -0.3336
  494MOL0     C66601   1.997  -0.957   9.099 -0.1735  0.4080 -0.6534
  494MOL0     C66602   1.869  -0.899   9.089  0.4484  0.5333 -1.0535
  494MOL0     O66603   1.570  -0.860   9.061  0.6761  0.1765 -0.1109
  494MOL0     C66604   1.397  -0.645   8.966 -0.3877  0.4311 -0.6953
  494MOL0     C66605   1.299  -0.550   8.951  0.0756 -0.1306  0.9068
  494MOL0     N66606   0.990  -0.020   9.440 -0.5621 -0.1598  0.2160
  494MOL0     N66607   0.992   0.105   9.421 -0.2627 -0.0975  0.4397
  494MOL0     C66608   1.214   0.942   8.495  0.7174 -0.5580 -0.3472
  494MOL0     C66609   1.250   1.001   8.370 -0.1223  0.1428  0.0923
  494MOL0     C66610   1.407   1.299   8.076  0.8679  0.2514  0.0334
  494MOL0     C66611   1.537   1.294   8.020  0.3205  0.3336 -0.0876
  494MOL0     C66612   1.564   1.348   7.899 -0.5328  0.0399  0.1646
  494MOL0     C66613   1.460   1.418   7.841  0.7331  0.3898 -0.0934
  494MOL0     O66614   1.487   1.482   7.724  0.1544  0.6373  0.1996
  494MOL0     C66615   1.527   1.621   7.719  1.1856  0.1894  0.3749
  494MOL0     C66616   1.670   1.641   7.674 -0.2163  0.6815 -0.4698
  494MOL0     C66617   1.690   1.758   7.575  0.2652  0.8065 -0.1958
  494MOL0     C66618   1.817   1.733   7.492 -0.8414  0.9814 -0.5722
  494MOL0     C66619   1.834   1.813   7.375 -0.1400  0.3081  0.1294
  494MOL0     C66620   1.853   1.887   7.286 -1.1867 -0.1024  0.3976
  494MOL0     C66621   1.332   1.433   7.891  0.1585 -0.0299 -0.2281
  494MOL0     C66622   1.296   1.362   8.006 -0.6832  0.0359  0.5335
  494MOL0     H66623   1.047   1.274   8.384  2.0730  0.7688 -0.7145
  494MOL0     H66624   0.979   1.144   8.604  0.0868 -1.0538 -0.1937
  494MOL0     H66625   1.130   0.750   8.730  2.5077 -0.0046 -0.2813
  494MOL0     H66626   1.232   0.880   8.795  0.3338 -1.6767 -1.6176
  494MOL0     H66627   1.055   0.946   8.954  0.0122  1.1699 -2.5034
  494MOL0     H66628   0.945   0.831   8.890 -0.6847  0.5159  3.1722
  494MOL0     H66629   1.212   0.721   9.014  0.8555 -0.0289 -1.3920
  494MOL0     H66630   1.070   0.740   9.097 -1.2587 -3.2731  0.8998
  494MOL0     H66631   0.951   0.589   8.951 -0.2687 -0.7519  0.1183
  494MOL0     H66632   1.093   0.572   8.849 -0.0330 -0.8154  0.7314
  494MOL0     H66633   1.224   0.460   9.024  0.0469  2.1902 -0.9691
  494MOL0     H66634   1.089   0.478   9.145  2.0413 -2.0967  0.7914
  494MOL0     H66635   0.938   0.369   8.992 -0.2062  1.2442  3.6087
  494MOL0     H66636   1.072   0.310   8.891 -1.4392 -0.8786 -0.3696
  494MOL0     H66637   1.061   0.139   9.056  0.8405 -0.1657 -0.8158
  494MOL0     H66638   1.171   0.267   9.148 -2.7469  3.2741  0.5382
  494MOL0     H66639   0.876   0.274   9.183 -0.0886 -0.3273 -0.0191
  494MOL0     H66640   1.006   0.312   9.300 -4.2824 -0.5680  1.5352
  494MOL0     H66641   0.848  -0.004   9.154  0.1209  0.9181 -0.0922
  494MOL0     H66642   0.895  -0.263   9.458  2.5908  0.8716 -0.5997
  494MOL0     H66643   0.785  -0.216   9.318 -1.4975  0.1319  1.9106
  494MOL0     H66644   0.982  -0.420   9.316 -0.9217  0.1711  0.7953
  494MOL0     H66645   1.081  -0.282   9.292  0.1770  1.3359 -1.2651
  494MOL0     H66646   0.965  -0.216   9.093 -0.1482 -0.5545 -1.4059
  494MOL0     H66647   0.852  -0.348   9.108  0.3204 -0.1555  0.1866
  494MOL0     H66648   1.033  -0.436   8.948  1.4523  3.2789 -1.1599
  494MOL0     H66649   1.077  -0.505   9.108 -1.3086  0.4917  2.6547
  494MOL0     H66650   1.392  -0.349   9.200 -0.0669  0.1451 -0.1821
  494MOL0     H66651   1.677  -0.569   9.270  2.4653  2.6316  2.9830
  494MOL0     H66652   1.700  -0.428   9.178  1.4698  0.7981  2.5410
  494MOL0     H66653   1.580  -0.433   9.308 -0.4694  1.4789 -1.4458
  494MOL0     H66654   1.965  -0.576   9.046  1.0371  0.0250 -0.2232
  494MOL0     H66655   2.175  -0.670   9.081 -0.3111  0.2902  1.7274
  494MOL0     H66656   2.183  -1.063   9.223 -3.3939  1.4173 -2.4993
  494MOL0     H66657   2.230  -1.105   9.058 -2.2606  0.3589  1.8262
  494MOL0     H66658   2.459  -1.084   9.107  0.2239 -0.8596  0.2620
  494MOL0     H66659   2.421  -0.986   9.263 -0.7103  0.8852  0.4642
  494MOL0     H66660   2.321  -1.245   9.329 -0.7113 -0.6934 -2.1202
  494MOL0     H66661   2.494  -1.192   9.350 -0.3288  3.5639 -0.9180
  494MOL0     H66662   2.368  -1.340   9.115 -2.2088  0.0555  1.8028
  494MOL0     H66663   2.545  -1.288   9.138  1.1498 -0.8514  2.2359
  494MOL0     H66664   2.591  -1.435   9.305 -1.6813  2.7565  1.1840
  494MOL0     H66665   2.529  -1.514   9.160  2.0054 -0.6014  0.8932
  494MOL0     H66666   2.384  -1.501   9.414  2.2109  2.6527 -0.1802
  494MOL0     H66667   2.310  -1.522   9.254  0.4195 -0.8334 -0.5104
  494MOL0     H66668   2.534  -1.701   9.367  0.3585 -1.8342 -2.4910
  494MOL0     H66669   2.458  -1.725   9.214  0.5668  2.7270 -0.2655
  494MOL0     H66670   2.322  -1.744   9.488 -0.5201  1.8327 -0.3776
  494MOL0     H66671   2.361  -1.882   9.376  3.7084  1.1877  3.7928
  494MOL0     H66672   2.000  -1.061   9.129 -3.2909  0.6318  0.7967
  494MOL0     H66673   1.789  -0.972   9.094  1.9977 -1.1361  1.6163
  494MOL0     H66674   1.379  -0.741   8.919  0.5143 -0.6792  1.0869
  494MOL0     H66675   1.226  -0.557   8.870 -0.3796  1.1041  1.1886
  494MOL0     H66676   1.262   0.847   8.515  1.8795 -0.4812 -2.4022
  494MOL0     H66677   1.324   0.954   8.307 -0.3998  2.6329 -2.2589
  494MOL0     H66678   1.619   1.242   8.069 -1.8898 -0.9948  2.5205
  494MOL0     H66679   1.661   1.331   7.853 -1.7585 -4.0504 -1.3779
  494MOL0     H66680   1.455   1.666   7.650 -0.5600 -1.4903  0.9895
  494MOL0     H66681   1.500   1.665   7.816 -0.8479 -0.7652  0.2948
  494MOL0     H66682   1.712   1.550   7.630 -1.8758 -1.5034  2.1601
  494MOL0     H66683   1.729   1.656   7.765  0.9687  2.7567 -1.4985
  494MOL0     H66684   1.693   1.861   7.611 -2.0259  0.8566  0.0546
  494MOL0     H66685   1.612   1.771   7.499  4.1014  3.6507 -4.0996
  494MOL0     H66686   1.820   1.630   7.457  0.4427  0.4126  1.0976
  494MOL0     H66687   1.900   1.756   7.558  0.3272  0.9508 -1.9718
  494MOL0     H66688   1.857   1.952   7.201 -0.4250  0.4571  0.8396
  494MOL0     H66689   1.253   1.490   7.842  2.3881  4.0829  0.5610
  494MOL0     H66690   1.192   1.356   8.034 -0.8394 -0.2171 -0.0886
  495MOL0     O66691   6.824   2.180   4.598  0.3972  0.4702  0.0723
  495MOL0     C66692   6.913   2.215   4.516 -0.0805 -0.0146 -0.5295
  495MOL0     O66693   6.885   2.234   4.387  0.2899 -0.3211  0.6690
  495MOL0     C66694   6.756   2.240   4.361  0.2142 -0.8615  0.7255
  495MOL0     C66695   6.679   2.358   4.368  0.5389  0.6304  1.0093
  495MOL0     C66696   6.539   2.349   4.338  0.0255  0.0567  0.1104
  495MOL0     C66697   6.477   2.226   4.311  0.3772  0.1889  0.1687
  495MOL0     O66698   6.340   2.219   4.305  0.1698 -0.0701 -0.4312
  495MOL0     C66699   6.286   2.235   4.174  0.0681  0.2752  0.3238
  495MOL0     C66700   6.279   2.378   4.146  0.3434 -0.8055  0.5218
  495MOL0     C66701   6.213   2.469   4.251  0.1287 -0.8745  1.2246
  495MOL0     C66702   6.062   2.436   4.251 -0.0345  1.0804  0.1209
  495MOL0     C66703   5.972   2.539   4.331 -0.9796  0.3013 -0.4634
  495MOL0     C66704   5.822   2.513   4.344  0.4840  0.3976  1.0001
  495MOL0     C66705   5.729   2.593   4.442 -0.3390 -0.4705  0.1546
  495MOL0     C66706   5.770   2.743   4.482  0.0233 -0.4877 -0.6079
  495MOL0     N66707   5.669   2.818   4.561 -0.3685 -0.4594 -0.2503
  495MOL0     C66708   5.674   2.835   4.696 -0.3319  0.6605 -0.6268
  495MOL0     C66709   5.587   2.934   4.718  0.4917  0.0007  0.2590
  495MOL0     C66710   5.552   2.986   4.859 -0.8456  0.5047  0.3884
  495MOL0     C66711   5.424   2.925   4.913 -0.2033  0.3037 -0.8802
  495MOL0     C66712   5.302   2.938   4.812 -0.0669 -0.3627  0.2313
  495MOL0     C66713   5.273   3.083   4.779  0.7274 -0.8822  0.3154
  495MOL0     O66714   5.218   3.161   4.882  0.2861 -0.4165  0.1707
  495MOL0     C66715   5.084   3.172   4.897 -0.5518  0.4623  0.4715
  495MOL0     C66716   5.044   3.251   4.996 -0.0982  0.4535  0.3482
  495MOL0     C66717   4.911   3.250   5.046  0.6795  1.0424 -0.1715
  495MOL0     C66718   4.887   3.331   5.176 -0.2213 -0.7576 -0.7385
  495MOL0     C66719   4.809   3.165   4.988 -0.0032  0.4906  0.8208
  495MOL0     C66720   4.669   3.156   5.029  0.0149 -0.0878  0.2057
  495MOL0     O66721   4.592   3.060   4.967 -0.3181 -0.8564  0.1101
  495MOL0     C66722   4.456   3.047   4.988  0.0735 -0.8160 -0.0217
  495MOL0     C66723   4.407   2.932   4.935  0.2444 -0.2469  0.8860
  495MOL0     C66724   4.277   2.900   4.936  0.7652 -0.3385  0.6400
  495MOL0     C66725   4.179   2.983   4.987  0.0664  0.0096  0.0650
  495MOL0     O66726   4.042   2.949   4.984  0.1177 -0.1669  0.2399
  495MOL0     C66727   3.950   3.054   5.033 -0.0121 -0.9244 -0.3224
  495MOL0     C66728   3.795   3.024   5.028  0.0904  0.9313 -0.4166
  495MOL0     C66729   3.759   2.901   5.104 -0.9678 -0.2770 -0.2596
  495MOL0     C66730   3.606   2.890   5.136 -0.1477  0.6981  0.0130
  495MOL0     C66731   3.572   2.740   5.176  0.0623 -0.2462 -0.7548
  495MOL0     C66732   3.426   2.719   5.213  0.0280  0.5383 -0.2942
  495MOL0     C66733   3.332   2.754   5.098 -0.1875 -0.0652 -0.3841
  495MOL0     C66734   3.189   2.725   5.137 -0.7271 -0.2197 -0.2302
  495MOL0    Cl66735   3.160   2.550   5.185  0.2447 -0.2713  0.0970
  495MOL0     C66736   4.228   3.112   5.032  0.8905 -0.2607 -0.0058
  495MOL0     C66737   4.364   3.138   5.038  0.6742  0.2432  0.2839
  495MOL0     O66738   4.642   3.220   5.133 -0.6665  0.4603  0.7584
  495MOL0     C66739   4.846   3.097   4.875  0.0210  0.2288  0.1772
  495MOL0     C66740   4.981   3.094   4.831 -0.4325  0.0066 -0.0835
  495MOL0     N66741   5.540   2.980   4.592 -0.0575  0.8173 -0.1031
  495MOL0     N66742   5.589   2.909   4.498  0.0540 -0.1056  0.1021
  495MOL0     C66743   6.565   2.107   4.307  0.6773 -0.3082  0.2069
  495MOL0     C66744   6.699   2.125   4.330 -0.4764  0.2370  0.0515
  495MOL0     C66745   7.044   2.244   4.568 -0.3380 -1.5786  0.2550
  495MOL0     C66746   7.162   2.222   4.487  0.0229  0.2400  0.3859
  495MOL0     C66747   7.289   2.237   4.541  0.0327  0.3689  0.9949
  495MOL0     C66748   7.297   2.276   4.672  0.7122 -0.7955  0.5546
  495MOL0     O66749   7.429   2.275   4.714  0.3807 -0.0345  0.3985
  495MOL0     C66750   7.457   2.324   4.848 -0.4793 -0.3137  1.0375
  495MOL0     C66751   7.615   2.325   4.888  1.3512  0.2463 -0.3290
  495MOL0     C66752   7.700   2.416   4.801 -0.2217  0.0263  0.6168
  495MOL0     C66753   7.841   2.380   4.850  0.7245 -1.5674  0.5269
  495MOL0     C66754   7.895   2.268   4.775  0.1599  0.3821  0.3295
  495MOL0     C66755   7.950   2.184   4.705  1.1248  0.1129  0.0777
  495MOL0     C66756   7.186   2.302   4.754 -0.7550 -0.0558  0.4200
  495MOL0     C66757   7.058   2.302   4.692  0.1204  0.2018  0.6337
  495MOL0     H66758   6.719   2.452   4.405 -1.5766  2.1315 -0.2767
  495MOL0     H66759   6.479   2.440   4.348  0.2277  0.3161 -0.9379
  495MOL0     H66760   6.352   2.193   4.098  1.6400 -0.3637  1.9789
  495MOL0     H66761   6.192   2.180   4.162  0.9758 -1.0160 -1.2204
  495MOL0     H66762   6.384   2.408   4.142 -0.0870  1.2201  2.3973
  495MOL0     H66763   6.240   2.393   4.045  0.9397 -0.9769  0.2607
  495MOL0     H66764   6.256   2.456   4.351  4.8745  1.3384 -0.2350
  495MOL0     H66765   6.220   2.577   4.236 -0.5470 -0.8762  0.8503
  495MOL0     H66766   6.038   2.445   4.145 -0.8626  5.1853  0.4847
  495MOL0     H66767   6.051   2.336   4.293 -1.2240  1.8791  1.8328
  495MOL0     H66768   6.018   2.543   4.431 -1.9145 -0.2228 -0.0021
  495MOL0     H66769   5.978   2.639   4.288 -0.3573 -0.1306 -1.4294
  495MOL0     H66770   5.768   2.529   4.250 -0.7370 -4.4082  0.6185
  495MOL0     H66771   5.808   2.408   4.373  0.1291 -0.3482 -1.5864
  495MOL0     H66772   5.633   2.594   4.390 -0.6543 -1.2408  0.7119
  495MOL0     H66773   5.706   2.542   4.536 -0.2966 -2.1956 -0.7280
  495MOL0     H66774   5.789   2.807   4.395 -1.9395 -1.7367 -2.0596
  495MOL0     H66775   5.860   2.747   4.544 -2.4028 -1.3022  3.2612
  495MOL0     H66776   5.727   2.780   4.772  2.2352 -0.1715 -2.8480
  495MOL0     H66777   5.627   2.949   4.930  0.4130 -1.3823 -1.7707
  495MOL0     H66778   5.551   3.095   4.867  2.6327  0.6987 -0.4494
  495MOL0     H66779   5.398   2.958   5.014  0.6544 -3.5599  0.7830
  495MOL0     H66780   5.438   2.818   4.929  0.0518  0.7594  2.5830
  495MOL0     H66781   5.207   2.901   4.851 -0.7117  1.9509  0.9821
  495MOL0     H66782   5.327   2.881   4.722 -1.1956  0.5880 -0.7186
  495MOL0     H66783   5.207   3.091   4.691 -0.6729  0.2104  1.4088
  495MOL0     H66784   5.366   3.138   4.766  2.2508 -2.4880  3.4250
  495MOL0     H66785   5.126   3.303   5.043 -0.6942  0.1009  1.8266
  495MOL0     H66786   4.968   3.404   5.184 -1.0983  0.2220 -0.5784
  495MOL0     H66787   4.799   3.396   5.170 -1.1146 -1.9415 -0.8249
  495MOL0     H66788   4.881   3.288   5.276 -1.6975  0.6025 -0.1820
  495MOL0     H66789   4.483   2.867   4.892  0.3735  1.0031 -0.8779
  495MOL0     H66790   4.228   2.813   4.891  0.4224 -0.3236  0.9817
  495MOL0     H66791   3.972   3.068   5.139  1.1602 -0.0667 -0.6541
  495MOL0     H66792   3.973   3.154   4.996 -3.0264  0.2409  0.6514
  495MOL0     H66793   3.732   3.107   5.058 -2.0469 -0.8734  0.3722
  495MOL0     H66794   3.762   3.002   4.926  0.2630 -0.6957 -0.1486
  495MOL0     H66795   3.822   2.913   5.193 -0.6667 -1.1208 -0.3522
  495MOL0     H66796   3.795   2.810   5.056 -0.0733  0.6258 -1.3427
  495MOL0     H66797   3.589   2.953   5.223 -0.4545  0.2758  0.2608
  495MOL0     H66798   3.542   2.920   5.052  0.7461 -0.4254 -1.1124
  495MOL0     H66799   3.640   2.703   5.253 -1.3377 -3.7856 -1.0212
  495MOL0     H66800   3.583   2.678   5.086  0.8495  0.6817 -1.3203
  495MOL0     H66801   3.409   2.614   5.237  0.5157  0.0922 -1.7453
  495MOL0     H66802   3.413   2.783   5.300  1.7272  2.0822 -1.1083
  495MOL0     H66803   3.353   2.692   5.010  1.9499 -0.1677  0.1592
  495MOL0     H66804   3.348   2.860   5.075 -4.1767  1.0604  1.1543
  495MOL0     H66805   3.138   2.747   5.043  1.8659  1.0146 -1.4533
  495MOL0     H66806   3.169   2.797   5.217  1.4668  1.3825 -1.0319
  495MOL0     H66807   4.162   3.180   5.085 -1.0890 -0.4832 -2.0470
  495MOL0     H66808   4.399   3.235   5.073  1.7396  0.1393 -0.4736
  495MOL0     H66809   4.778   3.031   4.821  2.2198 -0.8499 -1.4555
  495MOL0     H66810   4.992   3.027   4.746  1.3741  0.0262  0.1075
  495MOL0     H66811   6.531   2.005   4.292 -0.5560 -0.0654  1.1991
  495MOL0     H66812   6.760   2.036   4.339 -0.7347  0.0216 -0.3370
  495MOL0     H66813   7.157   2.182   4.386  2.5432  1.1815 -0.1683
  495MOL0     H66814   7.374   2.225   4.475 -0.5833  3.9519 -0.6996
  495MOL0     H66815   7.403   2.418   4.862  0.0327  0.1291  0.1148
  495MOL0     H66816   7.420   2.253   4.924 -0.8425 -1.9253 -0.5800
  495MOL0     H66817   7.642   2.220   4.872 -3.2287 -1.0583 -0.9266
  495MOL0     H66818   7.614   2.361   4.991 -0.9258 -1.8266  0.4611
  495MOL0     H66819   7.697   2.524   4.822  1.8166  0.7982 -2.4252
  495MOL0     H66820   7.684   2.406   4.694 -0.0074  1.7652  0.3873
  495MOL0     H66821   7.840   2.354   4.956  0.2985 -1.1179  0.6363
  495MOL0     H66822   7.909   2.464   4.832  1.4543 -2.7361 -2.7500
  495MOL0     H66823   7.972   2.110   4.631  4.7216 -0.4381  1.4986
  495MOL0     H66824   7.199   2.336   4.856  0.6710  1.5698 -0.2496
  495MOL0     H66825   6.979   2.332   4.760 -0.9296  1.4280 -1.0419
  496MOL0     O66826   4.415   4.667   2.981 -0.1362  0.2607  0.2504
  496MOL0     C66827   4.411   4.612   2.868  0.0907 -0.9903  0.2785
  496MOL0     O66828   4.478   4.491   2.838  0.6365 -0.6745  0.2717
  496MOL0     C66829   4.549   4.432   2.936 -0.2441  0.6910  0.5089
  496MOL0     C66830   4.485   4.403   3.058 -0.3859 -0.6076 -0.0365
  496MOL0     C66831   4.564   4.357   3.159  0.2038  0.5367 -0.3911
  496MOL0     C66832   4.698   4.307   3.147 -0.6355 -0.0645 -0.1623
  496MOL0     O66833   4.774   4.274   3.260  0.1730 -0.3883 -0.5208
  496MOL0     C66834   4.872   4.379   3.288  0.4040 -0.4593 -0.4951
  496MOL0     C66835   4.983   4.324   3.375  0.8983 -0.7138 -0.9927
  496MOL0     C66836   5.085   4.229   3.309  0.0852 -0.4428 -0.2428
  496MOL0     C66837   5.131   4.142   3.431 -0.3866  0.2495  0.0362
  496MOL0     C66838   5.219   4.233   3.531 -0.0421  1.0332  0.3735
  496MOL0     C66839   5.292   4.155   3.633  0.4708 -1.4039  0.0215
  496MOL0     C66840   5.404   4.247   3.697  0.7245 -0.6416 -0.2984
  496MOL0     C66841   5.401   4.225   3.848  0.8887 -0.2017 -0.1588
  496MOL0     N66842   5.512   4.282   3.917 -0.7919 -1.0717  0.3433
  496MOL0     C66843   5.646   4.251   3.906 -0.1329 -0.1578 -0.2886
  496MOL0     C66844   5.704   4.335   3.984 -0.1095 -0.4004 -0.4129
  496MOL0     C66845   5.850   4.340   4.007  0.2923  0.9845 -0.4273
  496MOL0     C66846   5.890   4.278   4.144 -0.1378  1.1350  1.1902
  496MOL0     C66847   5.828   4.361   4.255 -0.1208  0.4996 -0.5563
  496MOL0     C66848   5.909   4.346   4.384 -0.9664  0.1194  0.4476
  496MOL0     O66849   6.019   4.441   4.391 -0.6219  0.1308 -0.2346
  496MOL0     C66850   6.125   4.418   4.484  0.2608  0.6956 -0.7064
  496MOL0     C66851   6.251   4.461   4.442  0.8352  0.0657 -0.8014
  496MOL0     C66852   6.350   4.453   4.536  0.3243  0.0427  0.2632
  496MOL0     C66853   6.474   4.500   4.496 -0.7240 -0.3782 -1.1137
  496MOL0     C66854   6.328   4.418   4.669 -0.1830  0.2174  0.4573
  496MOL0     C66855   6.434   4.403   4.767  0.1204 -0.2236 -0.4115
  496MOL0     O66856   6.507   4.292   4.776 -0.5011  0.1271 -0.2214
  496MOL0     C66857   6.633   4.288   4.835  0.2262  0.4653  0.7242
  496MOL0     C66858   6.740   4.284   4.751 -0.3916 -0.1284 -0.1118
  496MOL0     C66859   6.866   4.297   4.808 -0.3396 -0.7024 -0.1115
  496MOL0     C66860   6.885   4.309   4.949 -0.2190  0.2133 -0.0378
  496MOL0     O66861   7.019   4.307   4.983  0.1067  0.9926 -0.3005
  496MOL0     C66862   7.064   4.242   5.106  0.5148 -0.2349  0.4548
  496MOL0     C66863   7.205   4.275   5.143  0.1513  0.2436 -0.3952
  496MOL0     C66864   7.220   4.245   5.291  0.4165  0.1739  0.2004
  496MOL0     C66865   7.363   4.268   5.342  0.6265 -0.6669  0.3335
  496MOL0     C66866   7.364   4.231   5.488 -0.2403  0.1547  0.2848
  496MOL0     C66867   7.492   4.277   5.556 -0.7284 -0.6440 -0.3048
  496MOL0     C66868   7.497   4.218   5.697  0.5048 -0.2363  0.9664
  496MOL0     C66869   7.629   4.272   5.749  0.3827  0.1419  0.4447
  496MOL0    Cl66870   7.629   4.453   5.769 -0.1960 -0.4031 -0.0963
  496MOL0     C66871   6.777   4.292   5.037  0.0585  0.4272  1.6703
  496MOL0     C66872   6.650   4.279   4.983 -0.9989 -0.0288 -0.4982
  496MOL0     O66873   6.462   4.507   4.819 -0.0742  0.6799  0.1063
  496MOL0     C66874   6.199   4.387   4.708 -0.8078 -0.0391  0.5417
  496MOL0     C66875   6.096   4.381   4.616  0.0819 -0.4869 -0.8655
  496MOL0     N66876   5.605   4.426   4.034 -0.3921 -0.3970  0.9019
  496MOL0     N66877   5.491   4.394   3.993 -0.6196  0.2766 -0.2297
  496MOL0     C66878   4.756   4.333   3.019  0.2704  0.2284 -0.0686
  496MOL0     C66879   4.684   4.389   2.915  0.3807  0.4140 -0.4034
  496MOL0     C66880   4.335   4.676   2.760  0.7351  0.3580 -0.2417
  496MOL0     C66881   4.330   4.817   2.749 -0.2802 -0.1028 -0.0039
  496MOL0     C66882   4.243   4.872   2.656  0.6815 -0.5763 -0.7614
  496MOL0     C66883   4.158   4.804   2.567  1.0753 -0.4128 -0.6908
  496MOL0     O66884   4.075   4.870   2.483 -0.3664 -0.8820  0.4256
  496MOL0     C66885   3.943   4.819   2.448 -0.1847  0.4375 -0.2509
  496MOL0     C66886   3.864   4.919   2.364 -0.5723 -0.1371 -0.5253
  496MOL0     C66887   3.914   4.941   2.225 -0.2468 -0.0838 -0.4369
  496MOL0     C66888   3.870   5.087   2.177  0.2106 -0.8259  0.0086
  496MOL0     C66889   3.730   5.073   2.139 -0.2067  0.7694 -0.2147
  496MOL0     C66890   3.608   5.081   2.113  0.3964 -0.4534 -0.0653
  496MOL0     C66891   4.186   4.664   2.569  0.0565  0.6879  0.5871
  496MOL0     C66892   4.271   4.603   2.666  0.7907 -1.0741  0.6975
  496MOL0     H66893   4.384   4.422   3.093 -0.3894 -1.3508  0.3836
  496MOL0     H66894   4.512   4.347   3.254  2.2527  2.5523  1.0447
  496MOL0     H66895   4.917   4.411   3.194 -4.8268 -0.9037 -3.5624
  496MOL0     H66896   4.815   4.458   3.338 -1.9272 -1.8916 -0.7250
  496MOL0     H66897   5.035   4.415   3.407 -1.3095 -0.0501  0.9923
  496MOL0     H66898   4.922   4.286   3.458 -0.1977  0.9562 -0.9926
  496MOL0     H66899   5.040   4.169   3.229  4.2298  0.5328 -3.6638
  496MOL0     H66900   5.162   4.288   3.260  1.9206 -1.4657  1.2809
  496MOL0     H66901   5.048   4.094   3.483  0.3245  0.2147  1.1776
  496MOL0     H66902   5.190   4.056   3.399  1.0771  2.1960 -2.9525
  496MOL0     H66903   5.295   4.291   3.479 -2.2772  3.5646 -0.2950
  496MOL0     H66904   5.159   4.307   3.584  1.8827  3.7303 -0.9736
  496MOL0     H66905   5.234   4.104   3.710 -2.6627 -1.2892 -2.0762
  496MOL0     H66906   5.343   4.080   3.572  0.4358 -1.1886 -0.2754
  496MOL0     H66907   5.505   4.224   3.661  1.6128 -0.4968  1.9281
  496MOL0     H66908   5.390   4.354   3.678 -2.3732 -0.8711  0.2195
  496MOL0     H66909   5.390   4.117   3.866 -1.9010 -0.0405 -0.4934
  496MOL0     H66910   5.305   4.263   3.883  0.5366 -1.7893  0.6945
  496MOL0     H66911   5.700   4.182   3.842  1.1002 -0.1958  0.7601
  496MOL0     H66912   5.902   4.277   3.934 -1.6402  1.2931 -2.1461
  496MOL0     H66913   5.885   4.439   3.977  2.0875  0.5239 -0.0123
  496MOL0     H66914   5.999   4.268   4.152 -0.0601 -1.2064 -1.2335
  496MOL0     H66915   5.856   4.174   4.136  2.8459  0.0752  0.8468
  496MOL0     H66916   5.727   4.321   4.268  0.1115  0.7527  2.9367
  496MOL0     H66917   5.820   4.470   4.242  0.7573  0.5653 -0.6063
  496MOL0     H66918   5.946   4.245   4.404 -0.4356 -0.0276 -1.1006
  496MOL0     H66919   5.833   4.358   4.461 -1.2903  0.1982  0.1229
  496MOL0     H66920   6.261   4.499   4.341 -1.7455  1.0004 -0.7841
  496MOL0     H66921   6.552   4.451   4.555 -2.8731 -1.2504  1.1963
  496MOL0     H66922   6.483   4.477   4.389  0.1244 -0.7498 -0.9726
  496MOL0     H66923   6.477   4.609   4.499  0.5781 -0.3921 -1.0763
  496MOL0     H66924   6.727   4.295   4.644  0.5075 -0.8101 -0.3129
  496MOL0     H66925   6.949   4.290   4.738 -0.1977 -0.8266  0.0700
  496MOL0     H66926   7.008   4.287   5.189  0.3864 -0.7165  0.6378
  496MOL0     H66927   7.050   4.133   5.102  1.2002 -0.3006 -0.3546
  496MOL0     H66928   7.272   4.203   5.096  0.7644 -0.4218  1.3969
  496MOL0     H66929   7.228   4.379   5.119  1.2299  0.1076  0.0166
  496MOL0     H66930   7.203   4.138   5.305  2.7663 -0.8116 -3.2793
  496MOL0     H66931   7.149   4.301   5.353 -1.1073 -0.3863 -0.9909
  496MOL0     H66932   7.436   4.221   5.275 -0.1941 -0.6237 -0.6198
  496MOL0     H66933   7.394   4.373   5.344 -0.1422 -0.4367  0.4454
  496MOL0     H66934   7.364   4.123   5.504  0.6257 -0.3033 -2.3571
  496MOL0     H66935   7.275   4.273   5.537 -0.9991  0.8025 -1.5365
  496MOL0     H66936   7.587   4.260   5.506  0.9994  5.1866  0.2393
  496MOL0     H66937   7.478   4.386   5.560  2.3033 -0.0114 -3.3369
  496MOL0     H66938   7.483   4.110   5.693 -0.8610 -0.0914 -3.5393
  496MOL0     H66939   7.415   4.259   5.757 -3.1747 -3.4640 -1.3515
  496MOL0     H66940   7.717   4.245   5.690  0.7598  1.5619  0.3401
  496MOL0     H66941   7.652   4.238   5.851  2.4931 -1.1121 -0.3805
  496MOL0     H66942   6.797   4.287   5.143 -0.6613 -2.1660  1.7638
  496MOL0     H66943   6.564   4.263   5.046  0.1463 -4.2873  0.2880
  496MOL0     H66944   6.183   4.368   4.813  2.2589 -0.0437  1.0883
  496MOL0     H66945   5.996   4.344   4.638 -0.1279  0.0629 -0.8581
  496MOL0     H66946   4.863   4.318   3.014  0.2642  0.5695 -1.9675
  496MOL0     H66947   4.742   4.416   2.827 -1.0993  0.2597 -1.4865
  496MOL0     H66948   4.393   4.869   2.821 -0.0528 -1.2275  0.6475
  496MOL0     H66949   4.237   4.980   2.647 -1.6513 -0.7271 -1.8576
  496MOL0     H66950   3.943   4.728   2.388 -0.2194  0.7330 -0.7075
  496MOL0     H66951   3.886   4.811   2.541  3.5992  6.6654  3.3025
  496MOL0     H66952   3.868   5.013   2.420  1.6883 -1.1871  1.2073
  496MOL0     H66953   3.757   4.895   2.365 -0.7648  0.6859 -0.1971
  496MOL0     H66954   3.885   4.858   2.162 -0.8837 -1.9089  2.0884
  496MOL0     H66955   4.022   4.939   2.242 -0.3266  2.2756  0.8466
  496MOL0     H66956   3.916   5.122   2.084  0.3038 -4.7456 -1.6108
  496MOL0     H66957   3.882   5.166   2.251 -0.4037 -1.1503  0.4575
  496MOL0     H66958   3.503   5.091   2.095  0.1250  0.1592  1.6413
  496MOL0     H66959   4.147   4.595   2.495  0.1684 -1.0910  2.1061
  496MOL0     H66960   4.272   4.495   2.673 -1.0089 -1.4895 -2.8682
  497MOL0     O66961   8.401   3.442   2.822 -0.2173 -0.0579  0.1421
  497MOL0     C66962   8.389   3.551   2.764 -0.1997  0.6760  0.7074
  497MOL0     O66963   8.273   3.623   2.756 -0.4787 -0.1386  0.1609
  497MOL0     C66964   8.181   3.584   2.848 -0.3477 -0.3603 -0.3639
  497MOL0     C66965   8.147   3.673   2.951  0.4605  0.3221 -0.0778
  497MOL0     C66966   8.055   3.637   3.055 -0.3503  0.3007  0.0056
  497MOL0     C66967   7.994   3.508   3.060 -0.2048 -0.3248  0.6531
  497MOL0     O66968   7.909   3.462   3.161 -0.5825 -0.1556  0.4410
  497MOL0     C66969   7.786   3.408   3.117 -0.0501 -0.0746 -0.5121
  497MOL0     C66970   7.674   3.393   3.222 -0.5165  0.9458 -1.0770
  497MOL0     C66971   7.596   3.514   3.226  0.9134  0.0623 -0.7633
  497MOL0     C66972   7.501   3.515   3.347  0.6787  0.6408 -0.6500
  497MOL0     C66973   7.565   3.524   3.497  0.0084  0.2932  0.5485
  497MOL0     C66974   7.461   3.528   3.608 -0.1323  0.5908  0.0553
  497MOL0     C66975   7.530   3.562   3.743  0.2034 -0.0534  0.4319
  497MOL0     C66976   7.443   3.569   3.863 -0.2135  0.2400  0.6821
  497MOL0     N66977   7.338   3.675   3.884 -0.5906 -0.3573 -0.7002
  497MOL0     C66978   7.199   3.665   3.875  0.0840 -0.8833  0.2554
  497MOL0     C66979   7.143   3.782   3.915 -0.5241 -0.8346 -0.7039
  497MOL0     C66980   6.998   3.823   3.902 -0.5061 -0.0789 -0.6234
  497MOL0     C66981   6.963   3.856   3.753 -0.4302 -0.0808  0.0578
  497MOL0     C66982   7.033   3.968   3.700  0.5215 -0.7281  0.5315
  497MOL0     C66983   7.004   3.980   3.555 -0.2587  0.6490  0.4983
  497MOL0     O66984   7.042   3.870   3.472 -0.7219 -0.6773  0.2279
  497MOL0     C66985   7.150   3.890   3.386 -0.1239  0.7580 -0.8748
  497MOL0     C66986   7.282   3.914   3.425 -0.1422 -0.2439  0.0608
  497MOL0     C66987   7.390   3.900   3.334 -0.8533 -0.7746 -0.5404
  497MOL0     C66988   7.528   3.928   3.395 -0.2496  0.6155 -0.5102
  497MOL0     C66989   7.369   3.873   3.199 -0.3235  0.3601 -0.3122
  497MOL0     C66990   7.473   3.895   3.103 -0.4860  0.6269 -0.2264
  497MOL0     O66991   7.462   3.799   3.003  0.2013 -0.7773  0.3945
  497MOL0     C66992   7.563   3.804   2.908 -0.2958 -0.3174  0.4267
  497MOL0     C66993   7.693   3.753   2.933 -0.3783 -0.1874  0.1385
  497MOL0     C66994   7.782   3.744   2.823 -0.0577 -0.0246 -0.1289
  497MOL0     C66995   7.736   3.752   2.692 -0.1237 -0.2261  0.7364
  497MOL0     O66996   7.822   3.698   2.597  0.0627 -0.1908 -0.5109
  497MOL0     C66997   7.763   3.647   2.480 -0.1983  0.0234 -0.3904
  497MOL0     C66998   7.867   3.559   2.409  0.4121 -0.1260  0.0283
  497MOL0     C66999   7.990   3.640   2.357  0.6251 -0.2619 -0.1018
  497MOL0     C67000   8.042   3.589   2.221  1.0410  0.4290 -0.0293
  497MOL0     C67001   8.157   3.672   2.173  0.0673  0.1700  0.7970
  497MOL0     C67002   8.182   3.629   2.026 -0.1191  0.6252 -0.0077
  497MOL0     C67003   8.290   3.708   1.954 -0.3995 -0.3163 -0.2314
  497MOL0     C67004   8.268   3.858   1.947  0.5385  0.1896  0.2142
  497MOL0    Cl67005   8.104   3.907   1.889  0.2316 -0.0103 -0.3232
  497MOL0     C67006   7.605   3.796   2.666  0.8845 -0.6569 -0.3403
  497MOL0     C67007   7.518   3.832   2.777 -0.2488  0.4044 -0.3333
  497MOL0     O67008   7.550   3.995   3.107 -0.6653  0.6436 -0.4607
  497MOL0     C67009   7.240   3.837   3.160 -0.0904  0.0129  0.5166
  497MOL0     C67010   7.134   3.843   3.254 -0.7810  0.0885 -0.0372
  497MOL0     N67011   7.254   3.860   3.963  0.1686  1.2853 -0.0168
  497MOL0     N67012   7.365   3.807   3.923 -0.0187  0.1105  1.2300
  497MOL0     C67013   8.034   3.419   2.957 -0.1281 -0.8252  0.5336
  497MOL0     C67014   8.122   3.452   2.851  0.8843 -0.0293  0.0906
  497MOL0     C67015   8.514   3.608   2.715  0.3384  0.1162  0.2064
  497MOL0     C67016   8.522   3.710   2.620  0.0661  0.1606 -0.1594
  497MOL0     C67017   8.639   3.758   2.569  0.2983 -0.2798  0.1170
  497MOL0     C67018   8.764   3.702   2.606 -0.4740  0.9550 -0.4044
  497MOL0     O67019   8.874   3.753   2.545  0.2858 -0.7927  0.2969
  497MOL0     C67020   9.005   3.706   2.579 -0.8915  0.3350 -0.3942
  497MOL0     C67021   9.086   3.729   2.449 -1.1721  0.0978  0.5276
  497MOL0     C67022   9.237   3.697   2.479  0.0951  0.2965  0.0173
  497MOL0     C67023   9.281   3.554   2.492 -0.9407  0.7413 -0.5521
  497MOL0     C67024   9.263   3.497   2.627 -0.3977 -0.6053 -0.4152
  497MOL0     C67025   9.237   3.446   2.732 -0.2793 -0.7080  0.2819
  497MOL0     C67026   8.769   3.601   2.696 -0.3118 -0.1427 -0.6885
  497MOL0     C67027   8.646   3.552   2.747  0.0419  0.8481 -0.4578
  497MOL0     H67028   8.191   3.772   2.947  0.2397  0.3891 -1.2310
  497MOL0     H67029   8.025   3.707   3.132 -1.7513  0.5061 -0.6997
  497MOL0     H67030   7.751   3.480   3.043 -0.5807  1.2098  0.9203
  497MOL0     H67031   7.802   3.307   3.079 -0.4619 -1.1413  1.9557
  497MOL0     H67032   7.601   3.317   3.192  0.1946 -1.3529  2.4634
  497MOL0     H67033   7.717   3.367   3.319 -0.8919  1.3267 -0.8036
  497MOL0     H67034   7.671   3.591   3.248 -0.0043  0.6805  0.3049
  497MOL0     H67035   7.540   3.524   3.133 -0.2928  0.0527 -0.0524
  497MOL0     H67036   7.447   3.608   3.330  2.5307  2.0638  0.8559
  497MOL0     H67037   7.435   3.428   3.357  0.2746  1.1429  1.9499
  497MOL0     H67038   7.629   3.437   3.513 -1.2447 -2.0466 -4.7469
  497MOL0     H67039   7.629   3.613   3.501 -2.9561  2.5311  1.9727
  497MOL0     H67040   7.392   3.606   3.576 -1.5855 -0.0559  1.4815
  497MOL0     H67041   7.407   3.433   3.619 -0.4566  0.8769  1.0550
  497MOL0     H67042   7.601   3.479   3.742 -0.4113 -0.7074 -2.8482
  497MOL0     H67043   7.580   3.659   3.737 -1.1489  0.6008 -0.7597
  497MOL0     H67044   7.510   3.593   3.946  0.0064 -0.9515  0.8664
  497MOL0     H67045   7.403   3.467   3.868  1.6237 -0.7359 -2.0449
  497MOL0     H67046   7.132   3.594   3.829  0.3532 -0.4345 -0.8650
  497MOL0     H67047   6.927   3.745   3.932 -1.1643  1.4336  2.1399
  497MOL0     H67048   6.970   3.901   3.973  1.2757  1.4555 -1.5040
  497MOL0     H67049   6.856   3.875   3.745 -0.2098  0.6039 -1.9271
  497MOL0     H67050   6.991   3.767   3.694 -0.3778 -0.1897  0.2466
  497MOL0     H67051   7.137   3.940   3.718  0.4774 -2.4155 -1.4700
  497MOL0     H67052   7.020   4.067   3.745 -0.3617  0.0336 -1.2974
  497MOL0     H67053   7.038   4.072   3.507 -4.4456  2.9753  1.4690
  497MOL0     H67054   6.895   3.991   3.551 -0.2515  0.4310 -0.7505
  497MOL0     H67055   7.291   3.954   3.525 -1.5201  1.1898 -0.3350
  497MOL0     H67056   7.546   4.034   3.414 -1.7444  1.0324 -1.2651
  497MOL0     H67057   7.536   3.875   3.491 -0.8454  1.0415 -0.2213
  497MOL0     H67058   7.612   3.893   3.333  1.2499  0.9501  1.2533
  497MOL0     H67059   7.720   3.741   3.038  0.2035  0.8063  0.1159
  497MOL0     H67060   7.882   3.705   2.832 -0.8818 -3.5256 -3.4831
  497MOL0     H67061   7.674   3.587   2.503 -1.2377  1.2654 -1.0667
  497MOL0     H67062   7.744   3.729   2.410 -3.1706 -2.5303 -2.8830
  497MOL0     H67063   7.899   3.485   2.483  3.5783 -0.4501 -1.5063
  497MOL0     H67064   7.812   3.514   2.327  0.3235  2.0602 -1.2016
  497MOL0     H67065   8.067   3.636   2.435  1.6876  0.4028 -1.0737
  497MOL0     H67066   7.962   3.746   2.364  1.5482  0.1285 -1.7285
  497MOL0     H67067   8.071   3.484   2.221  1.9858  0.6677 -0.7264
  497MOL0     H67068   7.960   3.598   2.149  0.9526  1.9994  0.2166
  497MOL0     H67069   8.245   3.644   2.234 -0.6737  1.4476  2.5469
  497MOL0     H67070   8.142   3.778   2.194  2.8305  0.5848  1.1179
  497MOL0     H67071   8.208   3.523   2.028 -2.2338  0.0125  3.5461
  497MOL0     H67072   8.088   3.651   1.975  0.1448  0.4169 -0.5877
  497MOL0     H67073   8.314   3.668   1.855  3.2300  1.5446 -0.2743
  497MOL0     H67074   8.385   3.702   2.006  0.6259  0.1677 -1.9485
  497MOL0     H67075   8.343   3.910   1.886  3.0392 -2.9416  0.3783
  497MOL0     H67076   8.289   3.892   2.048  2.8229 -0.6785  0.0857
  497MOL0     H67077   7.572   3.827   2.567  1.4242  2.0701  0.2731
  497MOL0     H67078   7.414   3.856   2.762  0.3075  1.6963 -2.5180
  497MOL0     H67079   7.220   3.822   3.054  0.3605  0.4833  0.3595
  497MOL0     H67080   7.032   3.820   3.223 -0.6967 -0.4324  0.0594
  497MOL0     H67081   7.990   3.320   2.948 -2.5573  0.2065  0.2551
  497MOL0     H67082   8.147   3.373   2.781 -0.1382  0.0519 -0.3785
  497MOL0     H67083   8.431   3.756   2.583 -0.1786 -0.6251 -0.5658
  497MOL0     H67084   8.632   3.819   2.479  0.3464 -1.9768 -1.0725
  497MOL0     H67085   9.049   3.771   2.655 -2.0870 -0.4354  1.0309
  497MOL0     H67086   9.013   3.600   2.606 -0.0787 -0.4357 -3.3453
  497MOL0     H67087   9.080   3.832   2.413 -3.2637 -0.4523 -0.8921
  497MOL0     H67088   9.050   3.661   2.370  1.6460 -2.1816  1.0481
  497MOL0     H67089   9.252   3.742   2.577 -0.8959  1.7144 -0.4415
  497MOL0     H67090   9.294   3.749   2.402  0.9671 -1.1692 -0.3627
  497MOL0     H67091   9.383   3.556   2.453 -0.4793 -1.9208  0.2866
  497MOL0     H67092   9.234   3.487   2.419  2.3438 -1.2338 -1.0359
  497MOL0     H67093   9.210   3.392   2.821 -1.6591  0.6954  0.7587
  497MOL0     H67094   8.860   3.550   2.725 -0.0587 -1.4607 -3.4864
  497MOL0     H67095   8.647   3.469   2.817  0.6270  0.5308 -0.8372
  498MOL0     O67096   8.020   2.070  11.218  0.0787  0.3281 -0.1283
  498MOL0     C67097   7.960   1.969  11.209  0.3019 -0.4484  0.2768
  498MOL0     O67098   7.834   1.941  11.251 -0.1507 -0.5333 -1.2544
  498MOL0     C67099   7.771   2.055  11.305 -0.6266 -0.1689 -0.1695
  498MOL0     C67100   7.737   2.164  11.227  0.1670  0.4507  0.1556
  498MOL0     C67101   7.682   2.280  11.279  0.3062  0.7057 -0.6041
  498MOL0     C67102   7.648   2.285  11.420  0.6477  1.0995  0.5977
  498MOL0     O67103   7.598   2.394  11.482  0.5216  0.1474 -0.2180
  498MOL0     C67104   7.676   2.467  11.582 -0.6483 -0.1244  0.5173
  498MOL0     C67105   7.580   2.539  11.673  0.6175 -0.1644 -0.9322
  498MOL0     C67106   7.485   2.638  11.599 -1.1912  0.7205  0.5395
  498MOL0     C67107   7.368   2.666  11.692 -0.4154 -0.1153  0.6808
  498MOL0     C67108   7.259   2.754  11.643 -0.1703 -0.9285 -0.0903
  498MOL0     C67109   7.304   2.904  11.632  0.3357  0.4094 -0.3383
  498MOL0     C67110   7.196   2.980  11.545  0.1701  0.5627  0.2175
  498MOL0     C67111   7.206   2.935  11.401 -0.5839  0.7412 -0.6792
  498MOL0     N67112   7.215   3.041  11.315  0.0586 -0.8182  0.8450
  498MOL0     C67113   7.108   3.110  11.268  0.6934 -0.2806 -0.6099
  498MOL0     C67114   7.151   3.196  11.176 -0.3898 -0.7534 -0.3099
  498MOL0     C67115   7.073   3.300  11.105 -0.8976 -0.4283  1.1752
  498MOL0     C67116   7.022   3.237  10.970  0.6938  0.3329 -0.2575
  498MOL0     C67117   7.011   3.342  10.859  0.9200  1.3045 -0.5985
  498MOL0     C67118   6.903   3.438  10.901  0.2345  0.3228 -0.0989
  498MOL0     O67119   6.859   3.525  10.790  0.1505 -0.2648  0.5639
  498MOL0     C67120   6.734   3.591  10.797 -0.4748 -0.0053 -0.4306
  498MOL0     C67121   6.709   3.681  10.699  0.0780  0.6463  0.7096
  498MOL0     C67122   6.584   3.763  10.695 -0.4408 -0.7738 -0.4987
  498MOL0     C67123   6.571   3.860  10.582  0.0424 -1.2572  1.0233
  498MOL0     C67124   6.488   3.738  10.796  0.7840 -0.4872 -0.2020
  498MOL0     C67125   6.351   3.787  10.803  0.0983 -0.5666 -0.5517
  498MOL0     O67126   6.334   3.907  10.862  0.3234  0.1145 -0.1747
  498MOL0     C67127   6.205   3.950  10.856 -0.3064  0.1047 -0.5326
  498MOL0     C67128   6.107   3.924  10.958  0.6272  0.1649 -0.3243
  498MOL0     C67129   5.986   3.995  10.964  0.1578 -0.0034  0.1676
  498MOL0     C67130   5.951   4.077  10.861 -0.2387  0.2560 -0.0813
  498MOL0     O67131   5.844   4.161  10.855 -0.1198  1.2305 -0.6062
  498MOL0     C67132   5.728   4.136  10.946 -0.3655 -0.1801  0.4047
  498MOL0     C67133   5.623   4.237  10.905  1.4333 -0.1559 -0.6309
  498MOL0     C67134   5.680   4.382  10.916 -0.7500  0.3196 -0.6614
  498MOL0     C67135   5.573   4.485  10.861 -0.1236  0.4823 -0.6127
  498MOL0     C67136   5.616   4.632  10.899 -0.4579 -0.6161 -0.0086
  498MOL0     C67137   5.525   4.737  10.835  0.3758 -0.3895 -0.2740
  498MOL0     C67138   5.377   4.744  10.885  0.2117 -0.4219 -0.6785
  498MOL0     C67139   5.355   4.825  11.014  0.0660  0.8247  0.0801
  498MOL0    Cl67140   5.186   4.805  11.050 -0.3823  0.5751  0.0970
  498MOL0     C67141   6.048   4.103  10.759 -0.3057  0.3161 -0.2839
  498MOL0     C67142   6.173   4.035  10.752 -0.6279  0.0656  0.7605
  498MOL0     O67143   6.269   3.731  10.732 -0.1271  0.4581 -0.6054
  498MOL0     C67144   6.507   3.630  10.893 -0.5383 -0.5068  0.5093
  498MOL0     C67145   6.633   3.568  10.895  0.3421 -0.3553 -0.3430
  498MOL0     N67146   7.292   3.181  11.174  1.1631  0.5551  0.2445
  498MOL0     N67147   7.335   3.087  11.257 -0.1995 -0.9403  0.1158
  498MOL0     C67148   7.695   2.184  11.501 -1.1320 -0.3485  0.5886
  498MOL0     C67149   7.760   2.072  11.445  0.6668  0.6038 -0.3490
  498MOL0     C67150   8.025   1.855  11.145  1.4365  0.2323  0.3749
  498MOL0     C67151   7.950   1.737  11.124  0.0456 -0.2249  0.4519
  498MOL0     C67152   8.002   1.652  11.027 -0.0997  0.4256 -0.3273
  498MOL0     C67153   8.127   1.667  10.965 -0.0670  0.1850  0.1434
  498MOL0     O67154   8.177   1.585  10.870  0.0342 -0.6588 -0.4930
  498MOL0     C67155   8.101   1.477  10.818 -0.4309  0.8025 -0.3619
  498MOL0     C67156   7.981   1.533  10.742  0.8369  0.2879  0.4131
  498MOL0     C67157   7.909   1.414  10.675  0.2330  0.0056  0.2701
  498MOL0     C67158   7.854   1.313  10.769  0.4705 -1.3147  0.3125
  498MOL0     C67159   7.785   1.360  10.888  0.5072 -0.1418 -0.2917
  498MOL0     C67160   7.723   1.388  10.991  0.0762  0.1642 -0.7177
  498MOL0     C67161   8.200   1.777  10.993  0.2255 -1.1484  0.4007
  498MOL0     C67162   8.150   1.874  11.084 -0.1583 -0.2885  0.8097
  498MOL0     H67163   7.745   2.158  11.119 -0.7623  2.0015 -0.0257
  498MOL0     H67164   7.651   2.351  11.204  0.6696  0.3030 -1.1442
  498MOL0     H67165   7.742   2.400  11.640 -1.5541 -1.2883  0.2466
  498MOL0     H67166   7.740   2.535  11.526  0.7170 -2.0831 -0.4451
  498MOL0     H67167   7.525   2.461  11.727  0.3262  1.5569  1.3646
  498MOL0     H67168   7.652   2.578  11.745  0.8464 -1.8350 -0.1966
  498MOL0     H67169   7.533   2.728  11.559  1.0071 -0.7139 -0.1757
  498MOL0     H67170   7.445   2.588  11.510 -0.0356  0.3128  0.2408
  498MOL0     H67171   7.331   2.565  11.714 -4.8024  1.0833 -0.3142
  498MOL0     H67172   7.406   2.705  11.787  1.1684  0.6980 -0.2498
  498MOL0     H67173   7.227   2.718  11.545  1.0151  0.8345 -1.1944
  498MOL0     H67174   7.167   2.755  11.701 -0.5256 -1.1361 -0.6437
  498MOL0     H67175   7.313   2.963  11.724 -0.9633  2.5627 -1.4898
  498MOL0     H67176   7.396   2.905  11.573 -0.1049  1.0602 -1.0362
  498MOL0     H67177   7.099   2.946  11.584 -1.3382  1.1012 -2.7499
  498MOL0     H67178   7.203   3.089  11.551  0.3555  0.5822 -0.3404
  498MOL0     H67179   7.117   2.879  11.373 -0.8706 -0.1668  1.8035
  498MOL0     H67180   7.290   2.866  11.392  1.8301  3.3632  0.0054
  498MOL0     H67181   7.005   3.095  11.299 -0.3223 -0.4365 -3.7917
  498MOL0     H67182   6.995   3.357  11.157 -0.7783  0.1334  0.7434
  498MOL0     H67183   7.147   3.380  11.098  0.2793 -1.2613  3.0708
  498MOL0     H67184   6.928   3.196  11.010  1.5620  0.1834  1.7421
  498MOL0     H67185   7.092   3.161  10.934 -0.8142 -0.4582 -1.6801
  498MOL0     H67186   6.969   3.282  10.777 -0.1179  0.0960  0.7651
  498MOL0     H67187   7.112   3.375  10.835  2.3232 -1.2150  1.3172
  498MOL0     H67188   6.935   3.495  10.989  1.5059 -0.6311  0.0840
  498MOL0     H67189   6.819   3.381  10.941  1.1082  0.3589  1.9246
  498MOL0     H67190   6.788   3.696  10.625 -0.3287  0.4194  0.2225
  498MOL0     H67191   6.610   3.957  10.616  0.5231 -0.4045 -1.7638
  498MOL0     H67192   6.613   3.827  10.487  0.3834  2.3345 -0.2056
  498MOL0     H67193   6.467   3.889  10.566  0.6532  0.6604  0.2258
  498MOL0     H67194   6.121   3.848  11.033 -3.1337  1.2866  1.7836
  498MOL0     H67195   5.916   3.988  11.048 -0.1631 -1.5628 -0.1978
  498MOL0     H67196   5.701   4.031  10.938  1.5635 -0.5661 -2.9034
  498MOL0     H67197   5.748   4.163  11.050  1.5781  0.9418 -0.2189
  498MOL0     H67198   5.594   4.211  10.803 -2.9227 -1.1823  0.6348
  498MOL0     H67199   5.533   4.222  10.965  1.2081  1.1113 -0.6204
  498MOL0     H67200   5.779   4.393  10.869  0.1546 -1.6581  0.6681
  498MOL0     H67201   5.704   4.408  11.019  0.5797 -2.5280 -0.1433
  498MOL0     H67202   5.572   4.458  10.755  2.7432  0.1973 -0.6524
  498MOL0     H67203   5.472   4.465  10.898 -0.5898 -1.5700 -2.7629
  498MOL0     H67204   5.714   4.652  10.854 -0.4101  1.4276  0.8710
  498MOL0     H67205   5.629   4.650  11.006  0.1581  3.3149 -0.5884
  498MOL0     H67206   5.567   4.838  10.843 -0.6716  0.1790 -1.6241
  498MOL0     H67207   5.514   4.724  10.727  0.9991 -1.7478 -0.2032
  498MOL0     H67208   5.342   4.640  10.891  1.4481 -1.1720 -4.0406
  498MOL0     H67209   5.322   4.796  10.805  1.2362  1.2264 -0.3634
  498MOL0     H67210   5.370   4.932  10.999 -0.2679  0.7102 -1.1930
  498MOL0     H67211   5.419   4.788  11.096 -1.2031  0.2950  0.8638
  498MOL0     H67212   6.035   4.174  10.678  1.5212  0.7932 -0.1904
  498MOL0     H67213   6.241   4.053  10.670 -1.7870 -2.1975 -0.8069
  498MOL0     H67214   6.420   3.601  10.952  1.5511 -1.2262  3.4477
  498MOL0     H67215   6.631   3.487  10.967 -0.8073 -0.1128 -0.0907
  498MOL0     H67216   7.666   2.185  11.606  1.7186 -3.8734  1.6126
  498MOL0     H67217   7.791   1.992  11.511 -2.6458 -0.4829  0.0755
  498MOL0     H67218   7.857   1.714  11.175 -0.3581  0.7660  0.1900
  498MOL0     H67219   7.966   1.555  10.995  4.1991 -0.9261 -1.7099
  498MOL0     H67220   8.170   1.427  10.749 -0.4202 -1.2437  1.0618
  498MOL0     H67221   8.068   1.400  10.888  0.0670  0.2526 -0.7221
  498MOL0     H67222   8.034   1.591  10.666  0.9702 -0.5310 -0.1214
  498MOL0     H67223   7.909   1.589  10.803  3.0267  1.0424  2.4854
  498MOL0     H67224   7.977   1.350  10.619  0.7496  0.0165  0.8775
  498MOL0     H67225   7.835   1.459  10.608 -0.9457 -1.6438  0.4111
  498MOL0     H67226   7.923   1.230  10.787  2.9972  0.0525 -2.2799
  498MOL0     H67227   7.769   1.275  10.712 -0.3297 -0.3993  0.8580
  498MOL0     H67228   7.677   1.407  11.085  0.7996  1.1677 -0.5432
  498MOL0     H67229   8.291   1.799  10.938  0.0675 -4.2151 -1.3177
  498MOL0     H67230   8.208   1.963  11.108 -0.5332  0.3880 -0.7005
  499MOL0     O67231   1.888   4.155   0.832  0.0402  0.5313  0.4858
  499MOL0     C67232   1.781   4.207   0.819  0.1078 -0.7417  0.0280
  499MOL0     O67233   1.664   4.150   0.777 -0.6076  0.3027  0.3914
  499MOL0     C67234   1.670   4.009   0.783 -0.2833  1.2744  0.2565
  499MOL0     C67235   1.615   3.951   0.895  0.0760  0.0953 -0.8550
  499MOL0     C67236   1.608   3.816   0.920  0.5589 -0.3143  0.3042
  499MOL0     C67237   1.640   3.726   0.814  0.5253  0.8831 -0.2437
  499MOL0     O67238   1.651   3.592   0.840  0.4534  0.3270 -0.0504
  499MOL0     C67239   1.582   3.504   0.740  0.8004 -0.2321 -0.7925
  499MOL0     C67240   1.524   3.381   0.813  0.7773  0.0214 -0.3006
  499MOL0     C67241   1.627   3.279   0.869  0.6939  0.8917  0.3045
  499MOL0     C67242   1.537   3.149   0.927  0.3177  0.3141  0.2179
  499MOL0     C67243   1.647   3.049   0.982  0.3660 -0.7117 -0.3524
  499MOL0     C67244   1.579   2.928   1.047 -0.1437 -0.4390  0.3156
  499MOL0     C67245   1.679   2.852   1.122  0.2678 -0.3814 -0.9011
  499MOL0     C67246   1.795   2.793   1.041 -0.4166 -0.4497  0.0303
  499MOL0     N67247   1.761   2.664   0.988  0.1551  0.0909  0.5610
  499MOL0     C67248   1.712   2.560   1.057  0.0076  0.1638  0.1989
  499MOL0     C67249   1.704   2.456   0.967 -0.2120  0.4363  0.0768
  499MOL0     C67250   1.667   2.318   0.996  0.2740  0.3999 -0.8558
  499MOL0     C67251   1.784   2.258   1.070  0.0004 -0.1955  0.1454
  499MOL0     C67252   1.734   2.119   1.099 -0.1259 -0.3035 -0.5881
  499MOL0     C67253   1.828   2.043   1.192  0.8055 -0.7664  0.3218
  499MOL0     O67254   1.829   2.089   1.334 -0.5805  0.0826 -0.3724
  499MOL0     C67255   1.747   2.039   1.435 -0.5193 -0.3887 -0.2697
  499MOL0     C67256   1.761   2.096   1.558  0.8219 -0.8419  0.2870
  499MOL0     C67257   1.689   2.047   1.674  0.4109 -0.6394  0.0435
  499MOL0     C67258   1.733   2.103   1.811  0.0388 -0.2933  0.0018
  499MOL0     C67259   1.603   1.942   1.656 -0.1780  0.2210 -0.2612
  499MOL0     C67260   1.523   1.895   1.769 -0.2921  0.2131 -0.3019
  499MOL0     O67261   1.395   1.861   1.734 -0.9776  0.1190 -0.2399
  499MOL0     C67262   1.310   1.852   1.843 -0.1030 -0.8189 -0.2670
  499MOL0     C67263   1.283   1.966   1.929  0.0752  0.3363 -0.3324
  499MOL0     C67264   1.229   1.940   2.057 -0.2477 -0.6526 -0.6259
  499MOL0     C67265   1.181   1.816   2.093  0.5170  0.6920  0.0164
  499MOL0     O67266   1.119   1.783   2.211  0.6503  0.5090 -0.1047
  499MOL0     C67267   1.188   1.818   2.329 -0.0540 -0.1911 -0.2305
  499MOL0     C67268   1.130   1.732   2.443  0.4154 -0.0159 -0.8776
  499MOL0     C67269   1.161   1.586   2.442 -0.2750 -0.1800  0.2718
  499MOL0     C67270   1.056   1.505   2.514  0.0455  0.5873 -0.4105
  499MOL0     C67271   1.107   1.373   2.579  0.2794  0.1036  0.3772
  499MOL0     C67272   1.018   1.325   2.705 -0.0910 -1.1546 -0.3903
  499MOL0     C67273   1.076   1.182   2.744 -0.2380  0.5209 -1.6678
  499MOL0     C67274   0.991   1.131   2.868 -0.7241  0.2189 -0.1226
  499MOL0    Cl67275   1.040   0.973   2.920  0.2430  0.0748 -0.5174
  499MOL0     C67276   1.183   1.716   1.998 -0.3895 -0.9562 -0.2274
  499MOL0     C67277   1.247   1.727   1.871  0.0855 -0.0961 -0.3805
  499MOL0     O67278   1.574   1.890   1.880 -0.1686  0.1654 -0.0337
  499MOL0     C67279   1.571   1.890   1.531 -0.4752  0.6114 -0.4308
  499MOL0     C67280   1.648   1.936   1.424 -0.3388 -0.4698 -0.4426
  499MOL0     N67281   1.751   2.496   0.846 -0.2928 -0.4093 -0.0015
  499MOL0     N67282   1.793   2.620   0.861  0.2294 -0.5266  0.3100
  499MOL0     C67283   1.695   3.774   0.699 -0.5658 -0.1807  0.2181
  499MOL0     C67284   1.701   3.919   0.685 -0.4539  0.3866  0.2615
  499MOL0     C67285   1.792   4.354   0.841 -0.3215 -0.4828  0.2995
  499MOL0     C67286   1.670   4.426   0.839 -0.3484 -0.5840  1.0268
  499MOL0     C67287   1.667   4.566   0.862  0.4980  0.6999 -0.4432
  499MOL0     C67288   1.792   4.637   0.898  0.4107  0.4716 -0.2706
  499MOL0     O67289   1.804   4.771   0.925 -0.5780 -0.4600  0.1250
  499MOL0     C67290   1.720   4.816   1.032 -0.1874  0.3791  0.5126
  499MOL0     C67291   1.764   4.956   1.070  0.7843  0.4030 -0.2697
  499MOL0     C67292   1.680   5.066   0.992  0.4187 -0.4163  0.6263
  499MOL0     C67293   1.687   5.036   0.840  0.4936 -0.3742 -0.3113
  499MOL0     C67294   1.591   5.131   0.786  0.3449 -0.2350  0.7586
  499MOL0     C67295   1.508   5.199   0.737  1.4680  0.3544  0.3880
  499MOL0     C67296   1.907   4.559   0.907 -0.2705  0.1406 -0.1940
  499MOL0     C67297   1.912   4.426   0.876  0.5641  0.6611  0.5618
  499MOL0     H67298   1.579   4.001   0.984 -0.7258 -0.9029 -0.5951
  499MOL0     H67299   1.586   3.785   1.022 -0.3034  0.0921  0.2556
  499MOL0     H67300   1.503   3.560   0.689 -1.0159 -1.4536  0.5545
  499MOL0     H67301   1.661   3.472   0.671  0.6716 -2.0565 -0.1528
  499MOL0     H67302   1.456   3.414   0.891  0.0293  1.2482 -1.4366
  499MOL0     H67303   1.451   3.329   0.750 -0.4800  1.5410 -0.1517
  499MOL0     H67304   1.700   3.244   0.796  1.6280  4.2709 -0.5588
  499MOL0     H67305   1.692   3.321   0.947  2.8905 -2.0176  0.2335
  499MOL0     H67306   1.469   3.174   1.010  0.1929  2.9124 -0.5862
  499MOL0     H67307   1.480   3.100   0.847 -1.2289  0.0475  1.4239
  499MOL0     H67308   1.712   3.016   0.900 -0.0301 -1.1714 -0.4857
  499MOL0     H67309   1.701   3.111   1.054  0.4474  0.1269 -1.1133
  499MOL0     H67310   1.491   2.958   1.105  0.3604  0.4037  0.6585
  499MOL0     H67311   1.537   2.875   0.961  0.0424  0.0002 -0.0464
  499MOL0     H67312   1.731   2.928   1.181 -0.4108  0.7217 -1.6914
  499MOL0     H67313   1.628   2.795   1.200 -0.0015  0.5601 -0.3741
  499MOL0     H67314   1.878   2.772   1.109 -1.2882  1.9239  1.9852
  499MOL0     H67315   1.831   2.866   0.967  0.8346 -0.2058  0.8578
  499MOL0     H67316   1.679   2.571   1.159  0.5783  3.0835  0.1560
  499MOL0     H67317   1.574   2.308   1.053 -0.0326 -2.7556 -1.7493
  499MOL0     H67318   1.657   2.262   0.903  4.0947  0.0161 -1.1978
  499MOL0     H67319   1.811   2.304   1.166  0.3588 -2.5941  1.2531
  499MOL0     H67320   1.872   2.254   1.005 -0.3417  0.5236 -0.3863
  499MOL0     H67321   1.724   2.069   1.002 -0.4184  2.2036 -1.9468
  499MOL0     H67322   1.635   2.132   1.143 -0.2342  1.0886 -1.1765
  499MOL0     H67323   1.924   2.063   1.142  1.7445  1.0157  2.6398
  499MOL0     H67324   1.823   1.935   1.178 -0.4915 -0.5599 -1.0006
  499MOL0     H67325   1.826   2.180   1.577  1.1721 -1.2350  0.8461
  499MOL0     H67326   1.786   2.198   1.794  1.1795 -0.9092  0.0263
  499MOL0     H67327   1.658   2.100   1.890 -2.0979 -0.7256 -1.9296
  499MOL0     H67328   1.805   2.037   1.860 -1.0146 -2.2896 -1.0494
  499MOL0     H67329   1.328   2.062   1.906 -1.1307  1.5859  2.1877
  499MOL0     H67330   1.227   2.011   2.140 -0.3842 -1.4270  0.0500
  499MOL0     H67331   1.294   1.791   2.326  0.3343  0.7403  2.3328
  499MOL0     H67332   1.168   1.923   2.355  0.0011 -0.1660 -0.2900
  499MOL0     H67333   1.159   1.771   2.542  2.3982 -0.0602 -1.4056
  499MOL0     H67334   1.022   1.745   2.430  0.2659 -0.5886 -0.2711
  499MOL0     H67335   1.259   1.580   2.492  0.4327  2.5382 -0.6502
  499MOL0     H67336   1.177   1.551   2.340 -0.4009 -0.0918  0.2224
  499MOL0     H67337   1.012   1.563   2.596 -2.6399 -0.9422 -0.6449
  499MOL0     H67338   0.980   1.485   2.438 -0.3562  2.7893 -0.6646
  499MOL0     H67339   1.211   1.386   2.611 -0.7552  1.7870  3.5287
  499MOL0     H67340   1.115   1.291   2.508  1.9374 -0.0616  0.7033
  499MOL0     H67341   1.038   1.379   2.799  2.9687 -0.7892 -1.1462
  499MOL0     H67342   0.912   1.327   2.680 -0.0189 -0.6755 -0.6713
  499MOL0     H67343   1.184   1.189   2.763 -0.7598 -1.1772  3.5186
  499MOL0     H67344   1.058   1.108   2.665 -4.1262 -1.2644  0.6036
  499MOL0     H67345   0.884   1.128   2.849 -0.9756 -1.5207  1.3163
  499MOL0     H67346   0.998   1.202   2.952 -1.4235  1.9051 -1.4423
  499MOL0     H67347   1.154   1.615   2.025  0.3968 -1.1686 -0.1460
  499MOL0     H67348   1.265   1.636   1.814  0.1883 -1.2112  1.3514
  499MOL0     H67349   1.492   1.816   1.525  0.7901 -0.8084 -0.2910
  499MOL0     H67350   1.628   1.883   1.332 -3.0561  1.4023 -1.0725
  499MOL0     H67351   1.727   3.706   0.621  1.3368  1.2234 -0.2761
  499MOL0     H67352   1.739   3.957   0.591 -0.0754  1.5070  0.8507
  499MOL0     H67353   1.586   4.368   0.801  3.3527 -4.8699 -1.5604
  499MOL0     H67354   1.573   4.620   0.854 -0.1974  0.0834  2.4326
  499MOL0     H67355   1.614   4.814   1.005 -0.4385 -0.0586  1.4867
  499MOL0     H67356   1.721   4.758   1.125 -2.1676  0.2444  0.4895
  499MOL0     H67357   1.866   4.966   1.031  0.6585  0.6377 -0.5467
  499MOL0     H67358   1.763   4.972   1.178  0.0496  2.3236 -0.5154
  499MOL0     H67359   1.716   5.167   1.013  0.1965 -0.1621 -0.1552
  499MOL0     H67360   1.575   5.062   1.024  0.4003  1.5043  0.9229
  499MOL0     H67361   1.663   4.934   0.808 -1.8821 -0.0275  0.2146
  499MOL0     H67362   1.786   5.061   0.800  0.5626  0.9154  0.5996
  499MOL0     H67363   1.433   5.254   0.685 -0.5811 -1.0699  1.6970
  499MOL0     H67364   2.004   4.605   0.920  0.2723 -0.6068 -1.4130
  499MOL0     H67365   2.004   4.378   0.906 -1.5629 -3.9622  0.6612
  500MOL0     O67366   7.451   7.537   3.638  0.3381 -0.1769  0.7797
  500MOL0     C67367   7.543   7.513   3.561  0.1451  0.0778  0.1579
  500MOL0     O67368   7.591   7.382   3.536  0.3577 -0.2759 -0.2868
  500MOL0     C67369   7.504   7.281   3.550  0.2339  0.4916  0.1700
  500MOL0     C67370   7.491   7.217   3.679 -0.9585 -0.2972 -0.3422
  500MOL0     C67371   7.412   7.097   3.690  0.1224 -0.7079 -0.4347
  500MOL0     C67372   7.345   7.053   3.577 -0.6265 -0.6648 -0.2046
  500MOL0     O67373   7.270   6.939   3.578 -0.7589  0.1046  0.8326
  500MOL0     C67374   7.337   6.814   3.550  0.6297  0.4517  0.7314
  500MOL0     C67375   7.413   6.762   3.674 -0.2748  0.2682 -0.4440
  500MOL0     C67376   7.451   6.604   3.684 -0.6565 -0.1494 -0.3223
  500MOL0     C67377   7.568   6.583   3.583  0.3891 -0.1690 -0.6426
  500MOL0     C67378   7.614   6.442   3.579 -0.0653 -0.2514  0.3236
  500MOL0     C67379   7.739   6.431   3.501 -0.5726  0.4834 -0.0140
  500MOL0     C67380   7.816   6.310   3.537  0.3762 -0.3406  0.2378
  500MOL0     C67381   7.915   6.267   3.434  0.6236  1.2539  0.1427
  500MOL0     N67382   7.967   6.138   3.483  0.6401  0.0384  0.4488
  500MOL0     C67383   8.002   6.030   3.404  0.2364  0.0425 -0.4488
  500MOL0     C67384   8.057   5.950   3.493 -1.0657  0.6598  1.1388
  500MOL0     C67385   8.092   5.805   3.453  0.2051  0.2044 -0.8572
  500MOL0     C67386   8.176   5.724   3.555 -0.7407  0.6169  0.5478
  500MOL0     C67387   8.311   5.778   3.590 -0.2491 -0.8187 -0.4165
  500MOL0     C67388   8.383   5.673   3.674 -0.4560  0.1258  0.0750
  500MOL0     O67389   8.517   5.738   3.722 -0.4026  0.4206  0.3198
  500MOL0     C67390   8.612   5.646   3.764  0.2686  0.8675  0.1072
  500MOL0     C67391   8.636   5.519   3.708 -0.8782 -0.0982 -0.0638
  500MOL0     C67392   8.713   5.417   3.769 -0.5669  0.0426 -0.7724
  500MOL0     C67393   8.730   5.283   3.703 -0.6040  0.1132 -0.5057
  500MOL0     C67394   8.785   5.444   3.894  0.4888  0.3393  0.0645
  500MOL0     C67395   8.862   5.339   3.977  0.4490  0.5203  0.5376
  500MOL0     O67396   8.857   5.389   4.102 -0.0590  0.5009 -0.3784
  500MOL0     C67397   8.922   5.316   4.207  0.7326  0.3048  0.3207
  500MOL0     C67398   8.869   5.194   4.260 -0.1997 -0.0647  0.4415
  500MOL0     C67399   8.947   5.131   4.363 -0.6578 -0.3091  0.0751
  500MOL0     C67400   9.076   5.172   4.400 -0.1818 -0.1296  0.2170
  500MOL0     O67401   9.145   5.114   4.499 -0.4675  0.5692  0.3175
  500MOL0     C67402   9.288   5.096   4.488 -0.0163  0.3312  0.5387
  500MOL0     C67403   9.334   4.964   4.551  0.3220 -0.0173  0.4367
  500MOL0     C67404   9.490   4.952   4.552  0.7901  0.8966 -0.2452
  500MOL0     C67405   9.553   4.975   4.414 -0.1365 -0.6900 -0.6540
  500MOL0     C67406   9.696   4.920   4.398 -1.0595  0.1653 -0.9486
  500MOL0     C67407   9.770   4.977   4.277 -0.4854 -0.8551 -0.5104
  500MOL0     C67408   9.918   4.939   4.283  0.0132 -0.4957 -0.5062
  500MOL0     C67409  10.003   4.980   4.166  0.2047 -1.3691  0.8934
  500MOL0    Cl67410  10.163   4.905   4.187 -0.5002 -0.1059  0.2797
  500MOL0     C67411   9.125   5.284   4.340 -0.2613  0.3953  0.3507
  500MOL0     C67412   9.049   5.358   4.245  0.2021  0.8026  0.0514
  500MOL0     O67413   8.939   5.262   3.926 -0.2538 -0.0783  0.4292
  500MOL0     C67414   8.781   5.577   3.936 -0.3624 -0.5200 -0.1225
  500MOL0     C67415   8.687   5.673   3.878 -0.0029  0.4649  0.8701
  500MOL0     N67416   8.073   6.010   3.611 -1.0218 -0.1768  1.5583
  500MOL0     N67417   8.014   6.124   3.607  0.6252 -0.0456 -0.1852
  500MOL0     C67418   7.363   7.122   3.460 -0.3479  0.5302 -0.2724
  500MOL0     C67419   7.438   7.237   3.443  0.1395 -0.2327  0.6222
  500MOL0     C67420   7.622   7.634   3.507  0.3483  0.5392 -0.3297
  500MOL0     C67421   7.709   7.609   3.401  1.1869  0.5342 -0.5719
  500MOL0     C67422   7.793   7.717   3.351  1.0701  0.5269  0.3210
  500MOL0     C67423   7.769   7.846   3.398  0.4644  0.3348 -0.2019
  500MOL0     O67424   7.851   7.941   3.335  0.1543  0.0682 -0.0035
  500MOL0     C67425   7.822   8.083   3.350 -0.0092 -0.0820  0.0271
  500MOL0     C67426   7.701   8.124   3.263 -0.1658  0.1611 -0.2848
  500MOL0     C67427   7.732   8.244   3.179  0.6103  0.1139 -1.0359
  500MOL0     C67428   7.757   8.361   3.257  0.1350 -0.3873 -1.2467
  500MOL0     C67429   7.807   8.462   3.163 -0.3583 -0.3806 -0.1693
  500MOL0     C67430   7.844   8.530   3.074  0.2802  0.3455 -0.2509
  500MOL0     C67431   7.674   7.875   3.491 -0.0057 -0.1422 -0.5447
  500MOL0     C67432   7.602   7.766   3.554  0.0356  1.0466 -0.1685
  500MOL0     H67433   7.551   7.259   3.760 -1.8624  4.6139 -1.8975
  500MOL0     H67434   7.411   7.054   3.789  2.2352  2.2435  1.0244
  500MOL0     H67435   7.268   6.738   3.511  1.8528 -0.7450  0.8057
  500MOL0     H67436   7.404   6.825   3.465 -0.8708  0.8480 -0.4462
  500MOL0     H67437   7.499   6.826   3.693 -1.1686  1.1587  0.7473
  500MOL0     H67438   7.340   6.777   3.755  0.0425 -3.4187  0.7232
  500MOL0     H67439   7.477   6.563   3.782 -3.2920  1.2208  1.0562
  500MOL0     H67440   7.365   6.546   3.651 -0.0218 -0.4718 -1.4547
  500MOL0     H67441   7.535   6.622   3.487 -0.9218 -0.1863 -0.2099
  500MOL0     H67442   7.656   6.638   3.617  0.4707 -0.2590 -0.7058
  500MOL0     H67443   7.632   6.415   3.684 -3.5700 -1.6879  0.7064
  500MOL0     H67444   7.532   6.376   3.548  1.5957 -1.9543 -0.5931
  500MOL0     H67445   7.730   6.435   3.392 -1.3505  1.2305  0.0609
  500MOL0     H67446   7.802   6.514   3.532  0.0535 -1.0536  3.1693
  500MOL0     H67447   7.877   6.333   3.625  0.7637  0.6640 -0.2816
  500MOL0     H67448   7.741   6.233   3.557  0.0149  0.1114  0.6675
  500MOL0     H67449   7.994   6.340   3.416 -0.3491  2.5834  1.0288
  500MOL0     H67450   7.869   6.253   3.336 -1.4395  2.1340  0.9156
  500MOL0     H67451   7.975   6.014   3.300 -2.4693  0.7977  0.0434
  500MOL0     H67452   8.001   5.749   3.430  0.0339 -0.7403  1.7737
  500MOL0     H67453   8.157   5.807   3.365  2.6181 -1.2180  0.7719
  500MOL0     H67454   8.198   5.623   3.520 -1.3627  0.3559  0.8948
  500MOL0     H67455   8.113   5.713   3.644  0.7161 -1.0580  1.4419
  500MOL0     H67456   8.299   5.872   3.645  0.8130 -0.8832 -0.0630
  500MOL0     H67457   8.372   5.803   3.503 -1.1732  1.2045 -0.5422
  500MOL0     H67458   8.377   5.578   3.621 -0.7362  0.5033 -0.5887
  500MOL0     H67459   8.331   5.649   3.767  1.1128  1.5570  1.3951
  500MOL0     H67460   8.591   5.496   3.612  2.5981 -0.3762 -1.7936
  500MOL0     H67461   8.834   5.249   3.704 -0.3847  0.3534  3.9389
  500MOL0     H67462   8.668   5.211   3.758  0.4078  1.1724  2.2257
  500MOL0     H67463   8.693   5.292   3.600 -1.8843  3.0561  0.1071
  500MOL0     H67464   8.777   5.143   4.237  0.3376 -1.7765  1.8288
  500MOL0     H67465   8.887   5.065   4.426  1.2171 -2.2770 -0.1197
  500MOL0     H67466   9.312   5.103   4.382 -0.0338  1.5884  0.5995
  500MOL0     H67467   9.330   5.187   4.531  1.2693  0.3018 -0.5940
  500MOL0     H67468   9.306   4.959   4.656 -0.2162 -0.5810  0.2738
  500MOL0     H67469   9.304   4.869   4.507 -0.3824 -0.5205  1.9712
  500MOL0     H67470   9.512   4.848   4.577  2.1099 -0.1759 -4.8495
  500MOL0     H67471   9.547   5.014   4.622  0.3322  1.0804 -0.0310
  500MOL0     H67472   9.483   4.945   4.336 -1.2421  0.1282 -0.0237
  500MOL0     H67473   9.553   5.084   4.405 -0.8683 -0.7175 -1.0874
  500MOL0     H67474   9.683   4.811   4.394  1.0666 -0.1049 -2.8823
  500MOL0     H67475   9.751   4.953   4.487 -1.1462  1.4208 -1.3460
  500MOL0     H67476   9.727   4.935   4.185 -0.5515  0.3335 -1.0368
  500MOL0     H67477   9.765   5.086   4.281  2.9301 -0.6046  2.5689
  500MOL0     H67478   9.921   4.829   4.283 -0.7948 -0.5325 -1.4436
  500MOL0     H67479   9.972   4.969   4.373  0.7403 -1.1808 -0.7020
  500MOL0     H67480  10.011   5.089   4.159 -0.2480 -1.3323  0.8727
  500MOL0     H67481   9.965   4.949   4.068 -0.5558  3.5420 -0.6615
  500MOL0     H67482   9.217   5.337   4.361 -0.9717  1.0986  1.8669
  500MOL0     H67483   9.101   5.444   4.205  1.9548 -0.5342 -0.6535
  500MOL0     H67484   8.846   5.607   4.017  0.3584 -1.2895 -0.4020
  500MOL0     H67485   8.676   5.772   3.920  0.3315  1.8544 -2.0702
  500MOL0     H67486   7.314   7.081   3.372  1.0985  2.5142 -2.1100
  500MOL0     H67487   7.426   7.286   3.346 -0.1212 -1.1392  0.1904
  500MOL0     H67488   7.734   7.504   3.387  1.1169  0.1491  1.7956
  500MOL0     H67489   7.867   7.705   3.273 -0.5070  2.1628 -1.5693
  500MOL0     H67490   7.816   8.105   3.457  0.1585 -3.1467  0.7461
  500MOL0     H67491   7.904   8.142   3.307 -1.6882  1.1630 -1.6724
  500MOL0     H67492   7.621   8.137   3.337 -1.3999 -3.8348 -0.6476
  500MOL0     H67493   7.673   8.040   3.199  1.9460 -0.9839  0.2086
  500MOL0     H67494   7.641   8.260   3.120 -2.3256 -2.8114  2.2350
  500MOL0     H67495   7.812   8.206   3.115  0.8985 -0.3461 -0.4096
  500MOL0     H67496   7.836   8.343   3.331 -2.0831 -0.6066  1.2155
  500MOL0     H67497   7.678   8.400   3.321 -1.6909 -1.7468 -2.5537
  500MOL0     H67498   7.863   8.614   3.010 -1.5046 -0.8671 -2.5144
  500MOL0     H67499   7.666   7.978   3.525 -2.4541 -0.5291  0.3043
  500MOL0     H67500   7.528   7.790   3.629  1.2919  2.8211  0.5545
  501MOL0     O67501   5.647  11.073   2.697 -0.0192  0.4906  0.2281
  501MOL0     C67502   5.548  11.073   2.764 -0.4314 -0.3707 -0.4357
  501MOL0     O67503   5.539  11.019   2.891 -0.3983  0.0457  0.2093
  501MOL0     C67504   5.643  10.937   2.920  0.2515 -0.1449  1.0230
  501MOL0     C67505   5.663  10.821   2.837  0.9243  0.7891 -0.6316
  501MOL0     C67506   5.771  10.734   2.870 -0.3142  0.1733 -0.3182
  501MOL0     C67507   5.856  10.741   2.977  1.0630 -0.7116 -0.8773
  501MOL0     O67508   5.962  10.661   3.002 -0.1720  0.6979 -0.6372
  501MOL0     C67509   5.988  10.611   3.141  0.2405 -0.7817  0.5737
  501MOL0     C67510   5.888  10.502   3.175  0.3131 -0.5114 -0.2755
  501MOL0     C67511   5.884  10.395   3.058  0.0196 -0.1209  0.2366
  501MOL0     C67512   5.781  10.273   3.092 -1.5674 -0.2160 -0.5233
  501MOL0     C67513   5.778  10.160   2.987 -0.6999 -0.0303  0.3184
  501MOL0     C67514   5.643  10.091   2.986  0.3759  0.2478  0.4824
  501MOL0     C67515   5.598  10.025   3.121 -0.6279  0.6824 -0.0456
  501MOL0     C67516   5.455   9.962   3.098  0.0384  0.5277 -0.5367
  501MOL0     N67517   5.345  10.052   3.054 -0.3171  0.3726  0.3001
  501MOL0     C67518   5.314  10.167   3.111  0.4644 -1.1700  0.1524
  501MOL0     C67519   5.220  10.217   3.026  0.0917  0.1018  0.3993
  501MOL0     C67520   5.155  10.353   3.048  0.0901  0.0668  0.8141
  501MOL0     C67521   5.002  10.349   3.056  0.3575  0.3963  0.6240
  501MOL0     C67522   4.935  10.338   2.914 -0.6949 -0.7386 -0.0620
  501MOL0     C67523   4.935  10.481   2.847  0.2882 -0.1251  0.4904
  501MOL0     O67524   4.898  10.453   2.713  0.0699  0.3984  0.2337
  501MOL0     C67525   4.836  10.555   2.646 -0.9680  0.3463  0.2154
  501MOL0     C67526   4.840  10.692   2.678 -0.2560  0.8044  0.7228
  501MOL0     C67527   4.763  10.787   2.609 -0.8056  0.1324  0.7482
  501MOL0     C67528   4.764  10.929   2.657  0.2110 -0.0722 -0.9062
  501MOL0     C67529   4.675  10.748   2.499 -0.0558  0.5911  0.2313
  501MOL0     C67530   4.570  10.836   2.430 -0.4975  0.0265 -0.5001
  501MOL0     O67531   4.606  10.972   2.419  0.0655  0.1123  0.0074
  501MOL0     C67532   4.563  11.034   2.311 -0.3281 -0.3072  0.0877
  501MOL0     C67533   4.640  11.019   2.198 -0.2675 -0.7277  0.2232
  501MOL0     C67534   4.603  11.087   2.077  0.1018  0.9584 -0.5299
  501MOL0     C67535   4.490  11.170   2.070  0.1440  0.4312 -0.0934
  501MOL0     O67536   4.454  11.221   1.949 -0.0624  0.9310 -0.1384
  501MOL0     C67537   4.376  11.339   1.943  0.6743  0.2624 -0.0403
  501MOL0     C67538   4.413  11.422   1.821 -1.0215 -0.2366 -0.2347
  501MOL0     C67539   4.336  11.562   1.807 -0.2220  0.9432  0.7759
  501MOL0     C67540   4.398  11.642   1.689  0.4026  0.5304 -0.0198
  501MOL0     C67541   4.332  11.773   1.666 -0.1910 -0.2931 -0.8090
  501MOL0     C67542   4.417  11.884   1.603  0.6903  0.4447  0.1929
  501MOL0     C67543   4.328  12.004   1.585  0.5590 -0.7560 -0.2438
  501MOL0     C67544   4.425  12.113   1.524  0.2898  0.9770  0.9144
  501MOL0    Cl67545   4.309  12.249   1.488 -0.0201  0.3325  0.2283
  501MOL0     C67546   4.419  11.183   2.190 -1.2214  0.2079 -0.0530
  501MOL0     C67547   4.457  11.118   2.306 -0.0869  0.1785  0.4753
  501MOL0     O67548   4.474  10.787   2.376 -0.3507  0.2724  0.3056
  501MOL0     C67549   4.682  10.608   2.460 -0.5653  0.1302 -0.1061
  501MOL0     C67550   4.757  10.516   2.536  0.2578 -0.5227 -0.4212
  501MOL0     N67551   5.194  10.130   2.924  0.0939 -0.0020  0.1244
  501MOL0     N67552   5.275  10.032   2.938 -0.8695  0.3083  0.4179
  501MOL0     C67553   5.828  10.853   3.060  0.4301  0.4726  0.1456
  501MOL0     C67554   5.727  10.949   3.035  0.1498 -0.2789  0.4856
  501MOL0     C67555   5.433  11.167   2.736 -0.6122 -0.2830  0.3104
  501MOL0     C67556   5.318  11.172   2.818  0.2967  0.1001  0.0369
  501MOL0     C67557   5.219  11.267   2.790 -0.1824  0.8810  0.5959
  501MOL0     C67558   5.225  11.360   2.690  0.0460  1.1454  0.6595
  501MOL0     O67559   5.145  11.464   2.658 -0.5592  0.2376 -0.5481
  501MOL0     C67560   5.044  11.498   2.756  0.5783  0.3234  0.1703
  501MOL0     C67561   4.913  11.485   2.669  0.4624 -0.2619 -0.4037
  501MOL0     C67562   4.881  11.354   2.588  0.0135  0.0492 -0.1968
  501MOL0     C67563   4.737  11.310   2.586 -0.4917 -0.2569  0.6565
  501MOL0     C67564   4.657  11.420   2.530 -0.3068  0.2317 -0.0156
  501MOL0     C67565   4.579  11.502   2.480  0.9025  0.8495 -0.2049
  501MOL0     C67566   5.338  11.355   2.616  0.7824 -0.0089  0.0470
  501MOL0     C67567   5.446  11.263   2.640  0.6704  0.3730  0.2687
  501MOL0     H67568   5.613  10.807   2.742 -2.4455  2.4096  0.7503
  501MOL0     H67569   5.774  10.645   2.806  4.8644 -0.7450  0.6947
  501MOL0     H67570   6.091  10.578   3.154  1.3838  2.2505  0.0398
  501MOL0     H67571   5.981  10.697   3.207 -2.5873 -1.1253  0.8845
  501MOL0     H67572   5.893  10.450   3.271 -3.3169 -0.7985 -0.1130
  501MOL0     H67573   5.797  10.562   3.182 -0.6708 -2.0306  0.3507
  501MOL0     H67574   5.848  10.438   2.964  0.2627  1.0571  0.6728
  501MOL0     H67575   5.981  10.347   3.040 -0.1996 -0.8890  1.0194
  501MOL0     H67576   5.807  10.235   3.192 -1.0801 -0.2121 -0.6462
  501MOL0     H67577   5.685  10.323   3.107 -1.8295 -0.7497 -0.3961
  501MOL0     H67578   5.789  10.195   2.884  0.1077 -0.4520  0.2508
  501MOL0     H67579   5.860  10.088   2.998 -0.8199 -0.0844  0.8455
  501MOL0     H67580   5.566  10.154   2.940 -0.3215 -0.6252  0.4047
  501MOL0     H67581   5.646  10.003   2.920 -1.1818 -1.8367  2.9918
  501MOL0     H67582   5.671   9.950   3.155  0.3754  3.0847  3.7547
  501MOL0     H67583   5.591  10.106   3.194 -2.9949  1.3843 -0.9760
  501MOL0     H67584   5.431   9.933   3.201 -2.6394 -0.9394 -1.4939
  501MOL0     H67585   5.468   9.879   3.029  0.4255 -0.2689  0.4620
  501MOL0     H67586   5.353  10.207   3.205 -3.9041  2.7360  0.6576
  501MOL0     H67587   5.199  10.388   3.142 -0.7178 -1.2185  1.7042
  501MOL0     H67588   5.186  10.425   2.972 -0.8455  0.2304  0.5679
  501MOL0     H67589   4.957  10.433   3.110 -2.4860 -1.9077  2.1068
  501MOL0     H67590   4.952  10.269   3.112  0.9334 -0.3886  0.0381
  501MOL0     H67591   4.833  10.300   2.922 -0.7338 -1.4032 -2.6822
  501MOL0     H67592   4.983  10.268   2.844 -0.1406  2.8751 -3.6517
  501MOL0     H67593   5.033  10.530   2.849 -1.8850  5.0637 -2.0961
  501MOL0     H67594   4.870  10.550   2.901  0.8628  2.5785 -2.0220
  501MOL0     H67595   4.902  10.729   2.759 -0.1736  2.2935  0.0162
  501MOL0     H67596   4.828  10.989   2.592  1.7279  1.8538  2.0965
  501MOL0     H67597   4.663  10.972   2.654  1.5686  3.5166 -0.6721
  501MOL0     H67598   4.815  10.930   2.754  2.6751  0.0203 -2.1174
  501MOL0     H67599   4.731  10.960   2.203 -1.7863 -3.1141  1.2823
  501MOL0     H67600   4.674  11.079   1.995  1.1503  2.3021  0.2046
  501MOL0     H67601   4.270  11.319   1.927  0.7449  0.4107 -0.7050
  501MOL0     H67602   4.390  11.399   2.034  1.5126 -1.9941  1.4015
  501MOL0     H67603   4.520  11.447   1.827 -0.3918 -2.5223 -0.9992
  501MOL0     H67604   4.399  11.363   1.731  1.8956 -2.4172  0.5878
  501MOL0     H67605   4.354  11.630   1.891  1.0189  1.0411  0.4573
  501MOL0     H67606   4.229  11.545   1.795 -0.0176 -1.5995  1.7455
  501MOL0     H67607   4.505  11.647   1.714  0.7921  1.0029 -1.6635
  501MOL0     H67608   4.382  11.586   1.597 -2.6067 -0.0055  0.7386
  501MOL0     H67609   4.303  11.809   1.765  0.9735 -1.5408  0.0138
  501MOL0     H67610   4.240  11.760   1.608 -0.4292  2.1306 -1.0777
  501MOL0     H67611   4.504  11.905   1.666 -0.2879 -0.8349  2.0873
  501MOL0     H67612   4.447  11.850   1.503 -1.1367  0.2048 -0.3086
  501MOL0     H67613   4.276  12.033   1.677 -0.2042 -1.9760 -0.2763
  501MOL0     H67614   4.239  11.988   1.524 -0.1684  0.0310  0.5799
  501MOL0     H67615   4.481  12.071   1.440 -0.5794 -2.6161  1.9360
  501MOL0     H67616   4.486  12.134   1.612 -1.2252 -0.3584  2.3593
  501MOL0     H67617   4.323  11.233   2.183 -0.1452  2.2866 -0.9701
  501MOL0     H67618   4.407  11.139   2.400  1.6227  2.7629  0.8961
  501MOL0     H67619   4.624  10.576   2.375  0.8706 -0.9833 -0.6993
  501MOL0     H67620   4.760  10.409   2.516  0.5798 -0.7548  0.8169
  501MOL0     H67621   5.884  10.885   3.147  2.3404  0.7443 -1.1264
  501MOL0     H67622   5.713  11.039   3.093  0.0725  0.1616 -0.2017
  501MOL0     H67623   5.303  11.123   2.914 -0.9740  0.9202  0.2792
  501MOL0     H67624   5.138  11.259   2.862 -0.0186  0.1249  0.7080
  501MOL0     H67625   5.034  11.438   2.847 -1.2457  0.5467  0.1483
  501MOL0     H67626   5.048  11.605   2.779 -1.3203  1.0260 -2.3018
  501MOL0     H67627   4.910  11.578   2.613  0.0562  1.0945  1.7612
  501MOL0     H67628   4.829  11.496   2.737  0.4010  0.8969 -0.6506
  501MOL0     H67629   4.945  11.286   2.646 -1.3839 -0.2081  1.0915
  501MOL0     H67630   4.922  11.358   2.486  1.9974 -1.6377  0.4587
  501MOL0     H67631   4.708  11.291   2.689  0.4427 -2.0972  0.6259
  501MOL0     H67632   4.704  11.221   2.531 -0.9641 -1.0484  2.1766
  501MOL0     H67633   4.512  11.570   2.432  0.1521 -0.4937 -1.1454
  501MOL0     H67634   5.346  11.437   2.545  1.1303  1.0564  1.2896
  501MOL0     H67635   5.537  11.282   2.584 -0.7327  0.4698 -2.1287
  502MOL0     O67636   0.317   0.880   2.307 -0.0093 -0.4307  0.0374
  502MOL0     C67637   0.299   0.999   2.301  0.3155 -0.7997  0.3034
  502MOL0     O67638   0.211   1.075   2.381  0.1158 -0.1642  0.3392
  502MOL0     C67639   0.119   1.017   2.462 -0.0739  0.2448 -1.2010
  502MOL0     C67640   0.163   0.947   2.572 -0.6824 -0.6008 -1.0955
  502MOL0     C67641   0.078   0.890   2.665  0.3676 -0.0846 -0.5604
  502MOL0     C67642  -0.063   0.908   2.663 -0.4847 -0.8779  0.6482
  502MOL0     O67643  -0.139   0.843   2.751 -0.0717  0.2533  0.2311
  502MOL0     C67644  -0.152   0.919   2.871  0.3013 -0.0270 -0.8991
  502MOL0     C67645  -0.307   0.955   2.903 -0.2167 -0.1879  0.3384
  502MOL0     C67646  -0.397   0.842   2.957  0.8823  0.6093  0.1582
  502MOL0     C67647  -0.516   0.908   3.022  0.2063 -0.3630  0.0477
  502MOL0     C67648  -0.635   0.813   3.079 -0.0090  0.0388 -0.2041
  502MOL0     C67649  -0.726   0.874   3.186 -0.0672  1.1092 -0.2938
  502MOL0     C67650  -0.802   0.999   3.135 -0.4929  0.7843 -0.0300
  502MOL0     C67651  -0.914   1.049   3.227  0.0052 -0.3228  0.8038
  502MOL0     N67652  -1.014   0.936   3.261 -0.4052  0.6679  0.2628
  502MOL0     C67653  -1.096   0.872   3.178  0.6511  1.1144 -0.3977
  502MOL0     C67654  -1.150   0.772   3.251 -0.1559  0.2488 -0.1102
  502MOL0     C67655  -1.243   0.673   3.201  0.5530 -0.3587 -0.3038
  502MOL0     C67656  -1.392   0.697   3.230 -0.4794  0.8243  0.3533
  502MOL0     C67657  -1.448   0.832   3.176  0.4739  0.4424  0.4619
  502MOL0     C67658  -1.602   0.835   3.184  0.7803  0.0628  0.1614
  502MOL0     O67659  -1.647   0.732   3.103  0.2836 -0.2877  0.6767
  502MOL0     C67660  -1.784   0.716   3.079 -0.4548 -0.5431  0.4334
  502MOL0     C67661  -1.877   0.795   3.134 -0.7013 -0.6387  0.9448
  502MOL0     C67662  -2.004   0.784   3.105 -0.0609 -0.3424 -0.6502
  502MOL0     C67663  -2.096   0.891   3.169  0.0732  0.1121 -0.4933
  502MOL0     C67664  -2.051   0.684   3.010 -0.3429 -0.0474  0.4971
  502MOL0     C67665  -2.189   0.669   2.957  0.3100 -0.2735  0.1455
  502MOL0     O67666  -2.232   0.540   2.920 -0.7851 -0.6284 -0.6019
  502MOL0     C67667  -2.348   0.515   2.864  0.8196  0.3763 -0.6517
  502MOL0     C67668  -2.352   0.421   2.757 -0.0651  0.2858 -0.1636
  502MOL0     C67669  -2.470   0.391   2.692 -0.6643  0.3521 -0.0525
  502MOL0     C67670  -2.585   0.465   2.715 -0.2382  0.6067 -0.3648
  502MOL0     O67671  -2.698   0.468   2.625 -0.4689 -0.1224 -0.0325
  502MOL0     C67672  -2.693   0.401   2.501 -0.6247 -0.5489  0.2759
  502MOL0     C67673  -2.800   0.448   2.402  0.5014  0.6433 -0.3210
  502MOL0     C67674  -2.759   0.434   2.247  0.1895 -0.2467 -0.4933
  502MOL0     C67675  -2.875   0.503   2.165 -0.0239  0.8792 -0.0686
  502MOL0     C67676  -2.840   0.491   2.025 -0.1827 -0.3787 -0.1573
  502MOL0     C67677  -2.968   0.545   1.955 -0.2004 -0.5078  0.6066
  502MOL0     C67678  -2.945   0.547   1.798 -0.1001 -0.0558 -0.3858
  502MOL0     C67679  -3.065   0.485   1.728  0.4241 -0.8944  0.4354
  502MOL0    Cl67680  -3.010   0.452   1.563  0.0614 -0.0588  0.0868
  502MOL0     C67681  -2.586   0.555   2.819  0.7293 -0.5712  0.1628
  502MOL0     C67682  -2.470   0.580   2.899  0.7258  0.6313  0.4196
  502MOL0     O67683  -2.253   0.767   2.932  0.4484 -0.7323 -0.8289
  502MOL0     C67684  -1.960   0.588   2.967 -0.0565 -0.7661  0.7190
  502MOL0     C67685  -1.825   0.607   3.000 -0.0981 -0.4542  0.2281
  502MOL0     N67686  -1.084   0.760   3.370 -0.2343 -0.0526 -0.6484
  502MOL0     N67687  -1.017   0.868   3.385 -0.5927 -0.5602  0.5413
  502MOL0     C67688  -0.113   0.978   2.543  0.4708  0.0085 -0.5151
  502MOL0     C67689  -0.020   1.027   2.448  0.3159 -0.7231 -0.3499
  502MOL0     C67690   0.364   1.072   2.187  0.3836 -0.5486 -0.6764
  502MOL0     C67691   0.465   1.012   2.108  0.0136  0.0807 -0.6230
  502MOL0     C67692   0.506   1.073   1.982  0.7181 -0.3106  0.9544
  502MOL0     C67693   0.463   1.198   1.950 -0.0327 -0.8408 -0.4363
  502MOL0     O67694   0.513   1.277   1.855  0.1564 -0.7497  0.1918
  502MOL0     C67695   0.585   1.218   1.745  0.6785  0.9928  0.0895
  502MOL0     C67696   0.508   1.116   1.664  0.5423  0.0956 -0.1793
  502MOL0     C67697   0.614   1.058   1.573  0.3422 -0.1224 -0.1223
  502MOL0     C67698   0.539   0.992   1.468 -0.3227 -0.3212 -0.4355
  502MOL0     C67699   0.639   0.926   1.383  0.3054  0.3139  0.2270
  502MOL0     C67700   0.726   0.889   1.301  0.7981  1.2180 -1.9777
  502MOL0     C67701   0.381   1.264   2.038 -0.3763 -0.3315 -0.3147
  502MOL0     C67702   0.328   1.208   2.149  0.0398 -0.3477  0.4236
  502MOL0     H67703   0.271   0.943   2.581 -0.4391  2.4236 -1.8249
  502MOL0     H67704   0.122   0.844   2.754 -0.4370  1.6811  0.8255
  502MOL0     H67705  -0.101   0.863   2.951 -0.2124 -0.7542 -1.0663
  502MOL0     H67706  -0.090   1.008   2.874  0.5746 -0.2143  1.2216
  502MOL0     H67707  -0.306   1.034   2.979  1.1490  1.1215 -0.9678
  502MOL0     H67708  -0.357   0.996   2.814 -0.1524 -1.4517 -0.3001
  502MOL0     H67709  -0.430   0.769   2.882 -2.2431  0.5025  1.4931
  502MOL0     H67710  -0.341   0.788   3.034 -4.2050  1.0933  4.7925
  502MOL0     H67711  -0.475   0.969   3.104 -0.7501 -0.4423  0.6061
  502MOL0     H67712  -0.559   0.981   2.952 -3.4110 -0.5954  1.7641
  502MOL0     H67713  -0.687   0.764   2.997  0.3953 -3.1496  1.2666
  502MOL0     H67714  -0.579   0.737   3.135 -1.3563 -1.1608 -0.4236
  502MOL0     H67715  -0.790   0.797   3.230 -0.2519  2.1443  1.3190
  502MOL0     H67716  -0.664   0.904   3.271  0.1136 -1.0539  0.3766
  502MOL0     H67717  -0.721   1.070   3.119  4.0164 -3.3760  1.8388
  502MOL0     H67718  -0.848   0.968   3.041  3.4346 -0.3606 -1.7353
  502MOL0     H67719  -0.968   1.131   3.179 -0.4161  0.1700  2.0875
  502MOL0     H67720  -0.872   1.076   3.325  3.5293 -1.8497 -0.1289
  502MOL0     H67721  -1.116   0.902   3.075  1.2329 -1.6215 -1.3895
  502MOL0     H67722  -1.226   0.667   3.093  0.4294 -1.6705 -0.2581
  502MOL0     H67723  -1.210   0.576   3.239  1.3917 -0.2228 -0.6546
  502MOL0     H67724  -1.417   0.688   3.337 -0.1806  2.7616  0.6077
  502MOL0     H67725  -1.443   0.614   3.181  0.1084  1.5062 -1.4717
  502MOL0     H67726  -1.413   0.846   3.073  2.0533 -0.8348  0.7765
  502MOL0     H67727  -1.407   0.912   3.238  1.6882  1.2683 -1.3016
  502MOL0     H67728  -1.632   0.937   3.160  1.8811  1.6806  4.7167
  502MOL0     H67729  -1.638   0.819   3.286 -1.5412 -2.0885 -0.9098
  502MOL0     H67730  -1.849   0.876   3.201  1.8319  1.8898 -2.7454
  502MOL0     H67731  -2.053   0.948   3.253 -0.3661  1.6370 -1.2772
  502MOL0     H67732  -2.132   0.963   3.095  1.3615  2.1160  0.6979
  502MOL0     H67733  -2.187   0.842   3.205  0.0055 -0.7931 -1.8479
  502MOL0     H67734  -2.261   0.364   2.744 -0.3475 -0.5780  1.4633
  502MOL0     H67735  -2.469   0.305   2.626 -1.0081 -0.4444  0.9664
  502MOL0     H67736  -2.595   0.424   2.458 -1.5774  4.4845  0.2371
  502MOL0     H67737  -2.699   0.292   2.511 -4.4733 -0.2648  3.0261
  502MOL0     H67738  -2.893   0.403   2.438 -0.3086  1.5303 -1.2602
  502MOL0     H67739  -2.816   0.555   2.418 -1.7743  0.1900  0.7567
  502MOL0     H67740  -2.744   0.329   2.221 -0.5965  0.2197 -3.0516
  502MOL0     H67741  -2.669   0.496   2.234 -0.5789  1.0557  0.1939
  502MOL0     H67742  -2.976   0.476   2.196 -0.1242 -1.1558 -1.9258
  502MOL0     H67743  -2.871   0.610   2.186  1.2073  1.0652 -1.1599
  502MOL0     H67744  -2.839   0.384   2.005 -2.3880 -0.6211  0.7276
  502MOL0     H67745  -2.751   0.548   1.998 -0.1897  0.4757  1.4885
  502MOL0     H67746  -3.058   0.492   1.987  0.1223 -0.3412  1.8307
  502MOL0     H67747  -2.980   0.649   1.987  1.3591  0.2746 -1.1612
  502MOL0     H67748  -2.854   0.491   1.776 -0.1114 -0.8164  1.3398
  502MOL0     H67749  -2.922   0.652   1.776 -0.6130  0.7209  2.3274
  502MOL0     H67750  -3.147   0.555   1.713  1.3452  0.3444  1.0072
  502MOL0     H67751  -3.090   0.397   1.788 -1.2765 -2.3230 -2.1724
  502MOL0     H67752  -2.679   0.608   2.838 -0.0774 -2.6971  2.8678
  502MOL0     H67753  -2.474   0.651   2.982 -2.5255  1.3266 -0.1967
  502MOL0     H67754  -1.982   0.512   2.893 -0.4795 -0.3265  0.3821
  502MOL0     H67755  -1.749   0.538   2.964  1.5027 -0.4546  3.3272
  502MOL0     H67756  -0.216   0.977   2.507 -0.0754 -0.2119  0.9810
  502MOL0     H67757  -0.060   1.070   2.357  0.5576  0.9004  0.2679
  502MOL0     H67758   0.489   0.908   2.128 -2.5253 -0.4147  0.1061
  502MOL0     H67759   0.566   1.013   1.914  0.0186 -1.3232  1.2136
  502MOL0     H67760   0.625   1.301   1.685  4.3923  2.6332  4.2262
  502MOL0     H67761   0.671   1.164   1.785  1.5256  0.9315 -1.7327
  502MOL0     H67762   0.429   1.159   1.601  1.1365 -0.3318 -1.2514
  502MOL0     H67763   0.449   1.053   1.731 -1.0102  1.4672 -0.2150
  502MOL0     H67764   0.670   0.984   1.632  0.5851 -0.0874 -0.3098
  502MOL0     H67765   0.678   1.135   1.531  3.6051 -3.0505 -1.0056
  502MOL0     H67766   0.482   1.067   1.414 -3.1401 -2.7504 -1.0591
  502MOL0     H67767   0.466   0.919   1.506  1.0196 -1.0602  0.8428
  502MOL0     H67768   0.788   0.841   1.229 -1.2905 -2.1779 -1.7301
  502MOL0     H67769   0.362   1.369   2.017 -1.4206 -0.2677  0.8677
  502MOL0     H67770   0.267   1.271   2.213  0.6139  2.3442 -1.4878
  503MOL0     O67771   6.223   4.574   1.455 -0.6260 -0.1607  0.3254
  503MOL0     C67772   6.278   4.507   1.371 -0.1163  1.0134 -0.6442
  503MOL0     O67773   6.269   4.529   1.239 -0.2323  0.2369  0.1675
  503MOL0     C67774   6.257   4.651   1.189 -0.0782 -0.0891  0.1821
  503MOL0     C67775   6.215   4.773   1.254 -0.2462 -0.4596 -0.5802
  503MOL0     C67776   6.220   4.898   1.187  0.3062 -0.1494  0.1773
  503MOL0     C67777   6.239   4.901   1.048 -0.6153  0.6022 -1.0026
  503MOL0     O67778   6.252   5.005   0.956 -0.6234  0.2562 -0.1312
  503MOL0     C67779   6.220   5.138   0.997 -0.1259 -0.5717  0.0557
  503MOL0     C67780   6.326   5.224   0.938 -0.1418 -0.1780 -0.4496
  503MOL0     C67781   6.470   5.166   0.962 -0.5378  0.4205 -0.3074
  503MOL0     C67782   6.512   5.124   1.101  0.3188  0.8993 -0.4256
  503MOL0     C67783   6.599   4.992   1.121 -0.2041  0.4467  0.4257
  503MOL0     C67784   6.717   4.989   1.019  0.1046  0.2064  0.3990
  503MOL0     C67785   6.791   4.849   1.033  0.8652  0.7788 -0.0646
  503MOL0     C67786   6.908   4.823   0.933  0.1243  0.4811 -0.4720
  503MOL0     N67787   7.039   4.868   0.977  0.1308 -0.6168  0.2116
  503MOL0     C67788   7.136   4.787   1.041 -0.0238  0.1581  0.4303
  503MOL0     C67789   7.253   4.843   1.012 -0.5873  0.6460  0.6431
  503MOL0     C67790   7.380   4.775   1.040 -0.6325  0.0522  0.2836
  503MOL0     C67791   7.478   4.881   1.090 -0.6670  0.3079 -0.6797
  503MOL0     C67792   7.620   4.835   1.118 -0.3127 -0.5707  0.4571
  503MOL0     C67793   7.681   4.755   0.997  0.1347  0.3410  0.8577
  503MOL0     O67794   7.647   4.613   1.013  0.9791 -0.0110  1.0896
  503MOL0     C67795   7.757   4.534   1.037 -0.3129 -0.6945 -0.8826
  503MOL0     C67796   7.862   4.522   0.941  0.2106 -0.7669  0.5304
  503MOL0     C67797   7.985   4.462   0.977  0.9941  0.3390  0.7773
  503MOL0     C67798   8.098   4.489   0.887  0.1524 -0.8209  0.2630
  503MOL0     C67799   7.999   4.400   1.107 -0.1242 -0.2763 -0.8409
  503MOL0     C67800   8.124   4.313   1.140 -0.1538 -0.1446  0.3582
  503MOL0     O67801   8.127   4.281   1.274 -0.5624  0.3226  0.1806
  503MOL0     C67802   8.203   4.172   1.319 -0.3761 -0.1351  0.0820
  503MOL0     C67803   8.144   4.085   1.413 -0.0803 -0.5519 -0.2582
  503MOL0     C67804   8.210   3.978   1.467  0.0915  0.6939  0.1966
  503MOL0     C67805   8.339   3.957   1.433 -1.0481  0.3051  0.5379
  503MOL0     O67806   8.386   3.840   1.500 -0.3791 -0.2149 -0.7409
  503MOL0     C67807   8.527   3.799   1.484 -0.3650  0.3651  0.4761
  503MOL0     C67808   8.543   3.648   1.481  0.3098  0.1633 -0.3831
  503MOL0     C67809   8.507   3.586   1.617  0.0917  0.5650 -0.4162
  503MOL0     C67810   8.613   3.599   1.727 -0.2965 -0.8159  0.8990
  503MOL0     C67811   8.590   3.512   1.852  0.1711  0.3556 -0.5773
  503MOL0     C67812   8.650   3.572   1.975 -0.1903  0.4765 -0.3051
  503MOL0     C67813   8.615   3.496   2.109  0.2623 -0.4517 -0.2003
  503MOL0     C67814   8.701   3.545   2.225  0.6439 -0.2132  0.0070
  503MOL0    Cl67815   8.870   3.479   2.211 -0.4180 -0.3782  0.3026
  503MOL0     C67816   8.407   4.035   1.340 -0.2147  0.1838  0.4578
  503MOL0     C67817   8.340   4.150   1.284 -0.9969  0.0629 -0.4121
  503MOL0     O67818   8.206   4.279   1.054 -0.1993  0.2148 -0.4727
  503MOL0     C67819   7.886   4.398   1.192  0.8201 -0.7803 -0.2273
  503MOL0     C67820   7.774   4.477   1.165 -0.0577 -0.3356  0.1011
  503MOL0     N67821   7.229   4.953   0.944  0.4544  0.2033 -0.7326
  503MOL0     N67822   7.104   4.980   0.933 -0.1683  1.3498 -0.1023
  503MOL0     C67823   6.266   4.776   0.980 -0.2462 -0.3220  0.4254
  503MOL0     C67824   6.284   4.656   1.054  0.1036 -0.0224  0.6508
  503MOL0     C67825   6.322   4.369   1.401 -0.3177  0.8007 -0.2640
  503MOL0     C67826   6.272   4.292   1.516 -0.3788 -0.7346 -0.3164
  503MOL0     C67827   6.307   4.165   1.548 -0.3037  0.0064 -0.7236
  503MOL0     C67828   6.400   4.101   1.470  0.7931  0.7533  1.1273
  503MOL0     O67829   6.427   3.965   1.477  0.3299 -0.7268 -0.2936
  503MOL0     C67830   6.570   3.943   1.484 -0.1686 -0.2016 -0.3276
  503MOL0     C67831   6.599   3.797   1.517 -0.0500  0.0520  0.0235
  503MOL0     C67832   6.752   3.761   1.523  0.2299 -0.4912  0.6333
  503MOL0     C67833   6.839   3.847   1.617 -0.1702 -0.4739 -0.0936
  503MOL0     C67834   6.826   3.801   1.756  0.2681 -1.1797  0.1924
  503MOL0     C67835   6.801   3.762   1.864 -0.0200  0.2971 -0.3421
  503MOL0     C67836   6.455   4.172   1.363 -0.3780 -0.1681 -0.0072
  503MOL0     C67837   6.423   4.303   1.336 -0.0395 -0.0331  0.1961
  503MOL0     H67838   6.192   4.782   1.360  0.1998  3.9128 -0.6630
  503MOL0     H67839   6.195   4.982   1.250  2.4808  1.5457 -1.0610
  503MOL0     H67840   6.121   5.167   0.959 -0.4936 -2.7285 -0.7596
  503MOL0     H67841   6.212   5.156   1.105 -1.8479  0.9218 -0.2625
  503MOL0     H67842   6.313   5.235   0.830  0.1144 -0.7114 -0.5384
  503MOL0     H67843   6.320   5.329   0.967  0.2133  0.4280 -2.3738
  503MOL0     H67844   6.478   5.081   0.894 -0.7604  1.0433 -1.1221
  503MOL0     H67845   6.541   5.247   0.940  0.8582  0.5734  3.7806
  503MOL0     H67846   6.564   5.208   1.147  0.1332 -0.5527  2.7324
  503MOL0     H67847   6.430   5.104   1.170  1.4543 -1.0490  0.4687
  503MOL0     H67848   6.631   4.980   1.225 -0.8510 -0.6007  0.5165
  503MOL0     H67849   6.540   4.904   1.096  1.8899 -0.9712  0.2953
  503MOL0     H67850   6.673   4.983   0.919  1.8475 -1.1261 -0.3257
  503MOL0     H67851   6.780   5.079   1.024  0.5998 -0.0790 -0.4008
  503MOL0     H67852   6.819   4.824   1.136  1.5714  1.1840 -0.1605
  503MOL0     H67853   6.718   4.774   0.999  2.0406 -0.3553 -0.1856
  503MOL0     H67854   6.892   4.880   0.841  1.0676 -0.1046 -1.0150
  503MOL0     H67855   6.910   4.722   0.892  0.4362  1.2876 -2.5621
  503MOL0     H67856   7.122   4.690   1.087  3.3621 -0.6568 -0.0436
  503MOL0     H67857   7.363   4.703   1.120 -1.6143  1.0600  1.0230
  503MOL0     H67858   7.408   4.733   0.943 -1.1357  2.1994 -0.8625
  503MOL0     H67859   7.436   4.920   1.183 -0.5444  1.7780 -1.2038
  503MOL0     H67860   7.492   4.961   1.016  2.8271 -0.0860 -0.6137
  503MOL0     H67861   7.625   4.776   1.209  0.8933 -1.5773 -0.2301
  503MOL0     H67862   7.678   4.928   1.123 -1.7702  0.5377 -1.5208
  503MOL0     H67863   7.789   4.770   1.003 -0.1967  2.5541  2.8854
  503MOL0     H67864   7.642   4.799   0.905 -1.4710  1.0055  1.8227
  503MOL0     H67865   7.855   4.564   0.841  2.1532 -2.2415 -0.2908
  503MOL0     H67866   8.129   4.403   0.828  0.6814 -0.4527 -0.0046
  503MOL0     H67867   8.066   4.577   0.829 -0.4529 -0.5108  1.0498
  503MOL0     H67868   8.176   4.530   0.952 -1.3678  0.5321  1.3055
  503MOL0     H67869   8.036   4.085   1.425  0.0537  0.0222  1.0065
  503MOL0     H67870   8.160   3.904   1.527  3.4097 -0.2312  2.0559
  503MOL0     H67871   8.580   3.831   1.394  0.6377 -2.7028 -0.1168
  503MOL0     H67872   8.594   3.841   1.559  1.0468 -1.4401  0.2913
  503MOL0     H67873   8.486   3.617   1.393 -0.3237  0.1348  0.0331
  503MOL0     H67874   8.650   3.630   1.469  0.0821 -0.6159 -1.3820
  503MOL0     H67875   8.492   3.480   1.591  0.1325  0.5694 -0.4576
  503MOL0     H67876   8.413   3.625   1.656 -0.2870 -0.3114 -0.4127
  503MOL0     H67877   8.711   3.567   1.690 -0.4239 -1.3518  1.0166
  503MOL0     H67878   8.624   3.700   1.767 -2.2213 -1.7593  4.1839
  503MOL0     H67879   8.617   3.407   1.841 -0.6136  0.1210 -0.3297
  503MOL0     H67880   8.482   3.518   1.868  0.3337 -0.6426  1.2569
  503MOL0     H67881   8.755   3.592   1.956 -0.7280  2.4970 -1.3693
  503MOL0     H67882   8.609   3.672   1.992 -0.5027  0.3572 -0.3441
  503MOL0     H67883   8.642   3.391   2.096 -0.1126 -0.6566  0.6105
  503MOL0     H67884   8.516   3.516   2.151  1.2248  1.6670  1.2703
  503MOL0     H67885   8.674   3.492   2.317  0.6539  0.0622  0.1716
  503MOL0     H67886   8.695   3.654   2.234  3.8182 -0.0791  2.1187
  503MOL0     H67887   8.512   4.022   1.317  0.1339  0.4327  1.8302
  503MOL0     H67888   8.392   4.220   1.219  0.3113  2.7664  3.1853
  503MOL0     H67889   7.879   4.346   1.287 -1.1245 -3.7600 -1.8748
  503MOL0     H67890   7.688   4.491   1.230 -1.8676 -1.9438 -1.7941
  503MOL0     H67891   6.285   4.763   0.874  1.5526  1.6315  0.4504
  503MOL0     H67892   6.323   4.574   0.994 -2.0964  1.0410 -2.4968
  503MOL0     H67893   6.191   4.344   1.567 -1.3914 -0.3858 -2.2050
  503MOL0     H67894   6.262   4.112   1.631 -1.2733 -1.3192 -2.0305
  503MOL0     H67895   6.625   3.980   1.397 -0.0199 -0.2618 -0.2587
  503MOL0     H67896   6.606   3.998   1.572  0.9549 -1.7351  0.2139
  503MOL0     H67897   6.555   3.730   1.442 -1.2430  0.0382  0.7011
  503MOL0     H67898   6.548   3.772   1.610  0.3192  0.5274  0.3577
  503MOL0     H67899   6.793   3.767   1.421 -2.9217  0.7521 -0.6847
  503MOL0     H67900   6.757   3.654   1.543  1.2145 -0.9632 -1.7533
  503MOL0     H67901   6.820   3.955   1.616  0.0140 -0.3955  1.6159
  503MOL0     H67902   6.942   3.834   1.582  0.1895 -1.3135  1.1982
  503MOL0     H67903   6.774   3.714   1.956 -1.3585 -0.0952 -0.9047
  503MOL0     H67904   6.519   4.124   1.290  0.1417 -0.6987  0.7836
  503MOL0     H67905   6.476   4.343   1.249 -0.8467 -1.8273 -1.1845
  504MOL0     O67906   1.533  10.740   9.540 -0.8586  0.1599 -0.1062
  504MOL0     C67907   1.630  10.667   9.516 -0.0400 -0.1758  0.2268
  504MOL0     O67908   1.629  10.524   9.504  0.4080  0.0320 -0.7452
  504MOL0     C67909   1.506  10.467   9.527  0.1362  0.2706 -1.2109
  504MOL0     C67910   1.445  10.405   9.420 -0.0499 -0.2892 -0.7770
  504MOL0     C67911   1.318  10.345   9.444 -0.1355  0.1738  0.0956
  504MOL0     C67912   1.247  10.351   9.563  0.8695 -0.5715 -0.6966
  504MOL0     O67913   1.138  10.268   9.575 -0.3853 -0.2369 -1.1314
  504MOL0     C67914   1.025  10.322   9.639 -0.1091 -0.8130 -0.7680
  504MOL0     C67915   0.916  10.227   9.614 -0.6915 -0.3336  0.0549
  504MOL0     C67916   0.890  10.187   9.468  1.2723  0.0489 -1.2758
  504MOL0     C67917   0.769  10.097   9.446  0.1386  0.5082  0.4556
  504MOL0     C67918   0.767  10.028   9.313  0.7009 -0.4970 -0.0872
  504MOL0     C67919   0.760  10.113   9.188 -0.9467 -0.1761 -0.5961
  504MOL0     C67920   0.625  10.193   9.183  0.3213 -0.2466  0.0343
  504MOL0     C67921   0.623  10.281   9.058 -0.8878  0.5609 -0.3824
  504MOL0     N67922   0.500  10.360   9.050 -0.4270 -0.0607 -0.5891
  504MOL0     C67923   0.392  10.338   8.970  0.3029  0.0405  0.4739
  504MOL0     C67924   0.335  10.465   8.958 -0.0684  1.0635  0.4302
  504MOL0     C67925   0.206  10.484   8.874  0.0913  0.3355  0.4829
  504MOL0     C67926   0.225  10.570   8.749  0.6765 -0.3542 -0.1562
  504MOL0     C67927   0.227  10.732   8.772  0.2798  0.8568 -0.1044
  504MOL0     C67928   0.237  10.816   8.648 -0.5101 -0.1197 -0.5339
  504MOL0     O67929   0.251  10.948   8.692 -0.0369  0.0717  0.2326
  504MOL0     C67930   0.142  11.024   8.679  0.6464 -0.6796  0.4613
  504MOL0     C67931   0.162  11.168   8.681  0.3905 -0.2128 -0.2897
  504MOL0     C67932   0.051  11.253   8.659 -0.0320 -0.4702 -0.5002
  504MOL0     C67933   0.089  11.403   8.663  0.5837 -0.3045 -0.3030
  504MOL0     C67934  -0.083  11.205   8.650  0.6158 -0.7709  0.3187
  504MOL0     C67935  -0.205  11.287   8.629  0.7018 -0.6900 -0.0980
  504MOL0     O67936  -0.322  11.211   8.624 -0.3136  0.1274 -0.8014
  504MOL0     C67937  -0.452  11.263   8.592 -0.1726 -0.6428 -0.2077
  504MOL0     C67938  -0.497  11.400   8.608  0.4224  0.5309 -0.1279
  504MOL0     C67939  -0.622  11.439   8.575 -0.0702 -0.4512  0.6132
  504MOL0     C67940  -0.718  11.357   8.523 -0.2806 -0.0968 -0.0814
  504MOL0     O67941  -0.836  11.410   8.489  0.2527 -0.0013  0.0855
  504MOL0     C67942  -0.963  11.344   8.459 -0.6729  0.0977 -0.5321
  504MOL0     C67943  -1.064  11.466   8.464 -0.5336  0.1976  0.2787
  504MOL0     C67944  -1.195  11.435   8.392 -0.5186 -0.0579 -0.4763
  504MOL0     C67945  -1.258  11.546   8.316 -0.3375  0.3694 -0.1609
  504MOL0     C67946  -1.311  11.659   8.403  0.1643 -0.7124  0.1661
  504MOL0     C67947  -1.437  11.618   8.478  0.2550 -0.0385  0.2114
  504MOL0     C67948  -1.497  11.720   8.577 -0.3683  0.3332  0.1684
  504MOL0     C67949  -1.397  11.763   8.684 -0.0737  0.5383 -0.4741
  504MOL0    Cl67950  -1.308  11.916   8.640 -0.1655  0.7454  0.4165
  504MOL0     C67951  -0.687  11.223   8.504 -1.3903  0.0862 -1.2000
  504MOL0     C67952  -0.555  11.178   8.538  0.2357  0.3489  0.6910
  504MOL0     O67953  -0.198  11.403   8.599 -0.2513  0.0630 -0.3620
  504MOL0     C67954  -0.099  11.070   8.669  0.2119  0.4416  0.7456
  504MOL0     C67955   0.010  10.981   8.678  0.2466 -0.1488 -0.3265
  504MOL0     N67956   0.402  10.554   9.034  0.4318 -0.6096 -0.6477
  504MOL0     N67957   0.501  10.499   9.089  0.0221 -0.3260  0.2943
  504MOL0     C67958   1.317  10.409   9.676 -0.1880  0.2971  0.2273
  504MOL0     C67959   1.437  10.471   9.657 -0.5235  0.5712 -0.0669
  504MOL0     C67960   1.761  10.738   9.507 -0.0877  0.1580 -0.1232
  504MOL0     C67961   1.776  10.875   9.522 -0.0959 -0.2199 -0.3796
  504MOL0     C67962   1.902  10.937   9.528  0.4109  0.2261  0.5030
  504MOL0     C67963   2.020  10.865   9.516 -0.0862 -0.2775 -0.0523
  504MOL0     O67964   2.149  10.917   9.528  0.4088  0.0480 -0.0875
  504MOL0     C67965   2.162  11.040   9.458  0.9575  0.1991  0.2285
  504MOL0     C67966   2.286  11.026   9.371 -0.0242 -0.4099 -1.2807
  504MOL0     C67967   2.420  11.028   9.454  0.7311 -0.5379 -0.7672
  504MOL0     C67968   2.545  11.041   9.355 -0.0554 -0.0936 -1.1832
  504MOL0     C67969   2.558  10.914   9.273 -0.3663  0.3315  0.2588
  504MOL0     C67970   2.564  10.809   9.202 -0.7412  0.5019 -0.5879
  504MOL0     C67971   2.009  10.727   9.508  0.7738  0.7442 -0.1010
  504MOL0     C67972   1.884  10.662   9.507  0.2188  0.3891  0.1294
  504MOL0     H67973   1.493  10.408   9.323  2.2430  3.1008  0.2860
  504MOL0     H67974   1.271  10.293   9.362 -1.5296 -0.5705  1.3299
  504MOL0     H67975   1.037  10.337   9.747  1.2324  1.2017 -1.1281
  504MOL0     H67976   0.994  10.421   9.603  0.7213 -1.7781 -4.5597
  504MOL0     H67977   0.937  10.142   9.680  1.1616 -1.6843 -2.1299
  504MOL0     H67978   0.824  10.270   9.654 -0.9087 -2.7045  2.4426
  504MOL0     H67979   0.873  10.281   9.417 -1.8024 -0.3902 -1.2247
  504MOL0     H67980   0.980  10.139   9.427  0.5727 -1.8150 -0.7333
  504MOL0     H67981   0.775  10.020   9.523  0.6439 -0.6987 -0.7288
  504MOL0     H67982   0.673  10.146   9.461  1.1242  2.7538 -0.1757
  504MOL0     H67983   0.847   9.955   9.297  0.5701 -0.1191 -3.0640
  504MOL0     H67984   0.673   9.974   9.309  1.2892 -1.7871  2.0005
  504MOL0     H67985   0.851  10.173   9.194 -1.4192  0.5150 -0.1569
  504MOL0     H67986   0.794  10.058   9.100 -1.3150 -3.5487  1.2123
  504MOL0     H67987   0.541  10.124   9.184 -0.1000  0.2440 -0.8299
  504MOL0     H67988   0.616  10.263   9.267  3.4041 -0.8563  0.9967
  504MOL0     H67989   0.628  10.207   8.977  0.7065  1.9921 -1.6696
  504MOL0     H67990   0.703  10.354   9.069 -1.7269  1.6169 -1.1226
  504MOL0     H67991   0.356  10.248   8.920 -1.7665  0.7603  0.5895
  504MOL0     H67992   0.156  10.392   8.843 -0.8419  1.1851 -0.5792
  504MOL0     H67993   0.144  10.535   8.948  1.6119  2.1429  0.5838
  504MOL0     H67994   0.146  10.557   8.675 -0.3882  0.8252  0.7420
  504MOL0     H67995   0.319  10.537   8.703 -0.3773 -1.4231 -1.6267
  504MOL0     H67996   0.309  10.758   8.840  0.0473 -0.3476  0.6784
  504MOL0     H67997   0.126  10.749   8.809 -0.0426 -0.7961 -0.1381
  504MOL0     H67998   0.149  10.785   8.592 -1.0978  1.8116 -0.7663
  504MOL0     H67999   0.335  10.794   8.606  1.4743  2.0058  2.4659
  504MOL0     H68000   0.262  11.210   8.690 -0.5665  2.5143 -1.3640
  504MOL0     H68001   0.115  11.429   8.560  0.9568 -5.5904 -1.8054
  504MOL0     H68002  -0.000  11.454   8.700  0.1375 -1.8147  0.7825
  504MOL0     H68003   0.173  11.400   8.733 -0.3212 -2.2366  0.7867
  504MOL0     H68004  -0.429  11.474   8.647 -1.3059  1.5888  1.0106
  504MOL0     H68005  -0.655  11.541   8.594 -0.2318 -0.0931 -1.3214
  504MOL0     H68006  -0.963  11.294   8.362 -0.5147 -2.2293  0.6188
  504MOL0     H68007  -0.984  11.277   8.542  0.0828 -1.5389 -1.6118
  504MOL0     H68008  -1.080  11.497   8.567 -2.7298 -1.5786  0.5524
  504MOL0     H68009  -1.012  11.544   8.408  0.4575 -1.3819 -1.0820
  504MOL0     H68010  -1.265  11.381   8.457  0.2587  0.2291  0.6381
  504MOL0     H68011  -1.161  11.366   8.314  1.8501  0.4251  0.0501
  504MOL0     H68012  -1.201  11.588   8.232 -2.4823 -0.9941 -2.4247
  504MOL0     H68013  -1.347  11.501   8.271  0.1440  0.0611 -0.8160
  504MOL0     H68014  -1.325  11.737   8.328  0.5863 -0.6360  0.1621
  504MOL0     H68015  -1.236  11.692   8.476  1.2358 -0.0099 -1.2114
  504MOL0     H68016  -1.509  11.597   8.398 -1.2888 -0.6697  1.7192
  504MOL0     H68017  -1.416  11.531   8.541  0.5676  0.3016  0.5779
  504MOL0     H68018  -1.581  11.671   8.628 -0.2759  4.2103  4.7520
  504MOL0     H68019  -1.536  11.806   8.522  1.5172  1.5376  0.6444
  504MOL0     H68020  -1.329  11.676   8.684 -0.9103 -0.1353  0.2333
  504MOL0     H68021  -1.462  11.768   8.771 -0.9953 -1.7795 -0.9283
  504MOL0     H68022  -0.757  11.147   8.470 -1.1598 -0.2272 -0.9810
  504MOL0     H68023  -0.528  11.073   8.527 -2.1926 -0.4649  1.7896
  504MOL0     H68024  -0.197  11.024   8.664  0.2319  0.5051 -0.6868
  504MOL0     H68025  -0.027  10.882   8.702 -1.5548  0.4114 -0.6232
  504MOL0     H68026   1.264  10.404   9.771  1.3582  0.3845  1.1219
  504MOL0     H68027   1.482  10.526   9.739 -0.1779  1.1811 -0.6557
  504MOL0     H68028   1.690  10.940   9.532  0.1888 -0.0867  1.8388
  504MOL0     H68029   1.914  11.044   9.542 -0.5135  0.2877  0.8887
  504MOL0     H68030   2.079  11.058   9.389  0.1054  1.1610  1.4600
  504MOL0     H68031   2.173  11.128   9.522  0.2958  0.6217 -0.2294
  504MOL0     H68032   2.282  11.104   9.294 -2.0382  1.0543  0.1753
  504MOL0     H68033   2.287  10.935   9.311  2.5073 -0.2010 -1.6576
  504MOL0     H68034   2.430  10.930   9.501 -0.5366 -0.8546 -1.1032
  504MOL0     H68035   2.418  11.098   9.537  0.7073 -0.1979 -1.0535
  504MOL0     H68036   2.636  11.048   9.414 -1.2363  0.4542  0.6703
  504MOL0     H68037   2.533  11.135   9.301 -0.1537  0.9518  0.5748
  504MOL0     H68038   2.579  10.722   9.141  1.2142  0.0160  0.5176
  504MOL0     H68039   2.104  10.675   9.503  0.3496 -0.4787  2.7776
  504MOL0     H68040   1.875  10.554   9.505 -3.3123  0.5220  1.2306
  505MOL0     O68041  10.495   6.101   7.396 -0.1613  0.1820 -0.0710
  505MOL0     C68042  10.508   6.036   7.298 -0.1434  0.0643  0.0673
  505MOL0     O68043  10.614   5.990   7.253  0.2271  0.1558 -0.2123
  505MOL0     C68044  10.735   6.013   7.308  0.5475  0.9528  0.7764
  505MOL0     C68045  10.769   5.988   7.437 -0.8892 -0.0394 -0.3678
  505MOL0     C68046  10.901   6.024   7.484 -0.8000  0.5656  0.2223
  505MOL0     C68047  10.996   6.072   7.395 -0.7974 -0.9051 -0.6627
  505MOL0     O68048  11.130   6.085   7.429  0.0163  0.0376 -0.6300
  505MOL0     C68049  11.218   5.982   7.380 -0.2541 -0.5998 -0.3321
  505MOL0     C68050  11.203   5.848   7.456 -0.6443  0.5429 -0.1917
  505MOL0     C68051  11.288   5.731   7.400 -1.3762  0.0424 -0.8697
  505MOL0     C68052  11.254   5.601   7.475  0.9103 -0.1022  0.6546
  505MOL0     C68053  11.346   5.487   7.425 -0.6445 -0.2609 -0.1469
  505MOL0     C68054  11.353   5.360   7.515  0.9731 -0.4210 -0.0409
  505MOL0     C68055  11.218   5.295   7.543 -0.1619  0.1417 -0.2390
  505MOL0     C68056  11.152   5.223   7.421  0.5693  0.1346 -0.8052
  505MOL0     N68057  11.030   5.157   7.464  0.6118 -0.7267  0.0747
  505MOL0     C68058  10.899   5.167   7.411 -0.8550 -1.0456  0.2271
  505MOL0     C68059  10.823   5.090   7.486  1.5817 -0.1663 -0.5265
  505MOL0     C68060  10.679   5.060   7.453 -0.7060 -0.8270 -0.9697
  505MOL0     C68061  10.672   4.935   7.374  0.9645 -0.3080  0.3571
  505MOL0     C68062  10.537   4.859   7.387  0.3019  0.2029  0.2162
  505MOL0     C68063  10.549   4.728   7.301 -0.0435  0.0046  0.0678
  505MOL0     O68064  10.425   4.653   7.294  0.3811  0.2325 -0.2713
  505MOL0     C68065  10.314   4.691   7.218 -1.1196 -0.0123  0.4621
  505MOL0     C68066  10.187   4.685   7.270  1.1191  0.3371 -0.1680
  505MOL0     C68067  10.068   4.716   7.194  0.1109 -0.6518 -0.1754
  505MOL0     C68068   9.936   4.718   7.264  0.6693  0.2207 -0.0761
  505MOL0     C68069  10.083   4.750   7.055  0.7373  0.5071 -0.6032
  505MOL0     C68070   9.969   4.756   6.950 -0.4037  0.4740 -0.6490
  505MOL0     O68071  10.005   4.805   6.823 -0.4174 -0.1850 -0.3768
  505MOL0     C68072   9.895   4.830   6.745 -1.1386 -0.7990 -0.1774
  505MOL0     C68073   9.836   4.727   6.669  0.6278  0.1365 -0.5425
  505MOL0     C68074   9.737   4.752   6.574  0.3726  0.0987 -0.1439
  505MOL0     C68075   9.702   4.888   6.544  0.5057 -0.7551 -0.2635
  505MOL0     O68076   9.600   4.902   6.459 -0.0342  0.5303  0.0726
  505MOL0     C68077   9.503   5.005   6.474  0.0881 -0.6628 -0.3624
  505MOL0     C68078   9.417   5.026   6.342  0.4256 -0.4003 -0.4429
  505MOL0     C68079   9.500   5.097   6.240  0.6050 -0.0697 -0.9043
  505MOL0     C68080   9.510   5.246   6.253  0.2651  0.4208 -0.5509
  505MOL0     C68081   9.620   5.303   6.171 -0.3928  0.4993  0.7734
  505MOL0     C68082   9.636   5.446   6.212 -0.0631  0.1046 -0.4458
  505MOL0     C68083   9.749   5.509   6.132  1.1564  0.1608 -0.3203
  505MOL0     C68084   9.766   5.658   6.160  0.0878 -0.2782  0.9068
  505MOL0    Cl68085   9.850   5.735   6.018  0.0984  0.1444  0.1157
  505MOL0     C68086   9.767   4.990   6.625  0.7279 -0.5398  0.5442
  505MOL0     C68087   9.855   4.963   6.729  0.9468  0.9782  0.3362
  505MOL0     O68088   9.854   4.725   6.984  0.1449 -0.0457 -0.2785
  505MOL0     C68089  10.207   4.774   7.011 -1.4951  0.1774 -0.2086
  505MOL0     C68090  10.327   4.741   7.090  0.1965  0.3408 -0.7880
  505MOL0     N68091  10.898   5.037   7.592 -0.1503  0.8119  0.5408
  505MOL0     N68092  11.021   5.072   7.572 -0.8492  0.1644 -0.4453
  505MOL0     C68093  10.963   6.104   7.272 -0.1539  0.2917  0.6405
  505MOL0     C68094  10.835   6.066   7.225  0.1958 -1.0767  0.9151
  505MOL0     C68095  10.382   6.032   7.208 -0.8464 -0.6860 -0.3574
  505MOL0     C68096  10.257   6.088   7.252  0.7954 -0.3756 -0.4317
  505MOL0     C68097  10.143   6.090   7.164  0.0948 -0.5651 -0.1629
  505MOL0     C68098  10.144   6.030   7.043  0.5981 -0.0343  1.2349
  505MOL0     O68099  10.042   6.021   6.945  0.3466 -0.6760 -0.4076
  505MOL0     C68100   9.922   6.088   6.981 -0.3832  0.0063 -0.1058
  505MOL0     C68101   9.941   6.232   6.921  0.6463 -0.2042  0.1809
  505MOL0     C68102   9.826   6.321   6.955 -0.1032 -0.4704 -1.1301
  505MOL0     C68103   9.699   6.283   6.867 -0.0022  0.8537 -0.4262
  505MOL0     C68104   9.625   6.168   6.924  0.0947  0.0527  0.3221
  505MOL0     C68105   9.550   6.077   6.954  0.8382 -0.6993 -0.3922
  505MOL0     C68106  10.265   5.977   6.997 -0.1379 -0.5303 -0.6680
  505MOL0     C68107  10.383   5.978   7.079  0.1281  1.0532  0.2388
  505MOL0     H68108  10.696   5.934   7.496 -0.5331  1.4305  1.5261
  505MOL0     H68109  10.933   6.003   7.585  1.7318  0.0221 -0.6149
  505MOL0     H68110  11.200   5.956   7.275  0.3053 -1.5799 -0.1985
  505MOL0     H68111  11.322   6.013   7.387 -0.5818  1.5205 -3.2754
  505MOL0     H68112  11.241   5.843   7.559  0.8103 -1.7610 -0.7642
  505MOL0     H68113  11.098   5.816   7.460  0.1237 -2.2055  4.0870
  505MOL0     H68114  11.275   5.728   7.291 -2.3463  2.3259 -0.8862
  505MOL0     H68115  11.395   5.751   7.414 -1.5313  1.2644 -1.2778
  505MOL0     H68116  11.263   5.618   7.583 -0.7239  2.2562  0.4954
  505MOL0     H68117  11.150   5.576   7.455  0.9014  0.5412 -0.1517
  505MOL0     H68118  11.310   5.451   7.329 -1.8949 -0.0642  0.2302
  505MOL0     H68119  11.448   5.527   7.415 -1.0154  0.9604  0.6409
  505MOL0     H68120  11.409   5.288   7.454  2.1355  1.7360 -1.7039
  505MOL0     H68121  11.402   5.376   7.611  0.2011  0.3825  0.2324
  505MOL0     H68122  11.232   5.232   7.631 -0.1832  0.2010 -0.1932
  505MOL0     H68123  11.152   5.376   7.577 -0.6848 -1.0945  1.8112
  505MOL0     H68124  11.227   5.153   7.383 -0.8529 -1.6815 -0.4110
  505MOL0     H68125  11.137   5.296   7.340 -1.2222 -0.8952 -1.4390
  505MOL0     H68126  10.879   5.229   7.324  0.7285 -1.9903 -0.8803
  505MOL0     H68127  10.624   5.040   7.546  0.6933  1.9507  0.5977
  505MOL0     H68128  10.638   5.149   7.404 -0.4603 -1.7249 -2.9013
  505MOL0     H68129  10.760   4.871   7.378  2.0948  1.2891  2.9015
  505MOL0     H68130  10.673   4.979   7.274 -3.1467 -2.0186 -0.6485
  505MOL0     H68131  10.454   4.916   7.344 -1.0734 -2.1858 -0.5137
  505MOL0     H68132  10.518   4.820   7.487 -0.5951  0.0201 -0.0191
  505MOL0     H68133  10.625   4.658   7.337 -0.7584 -1.7486 -1.6452
  505MOL0     H68134  10.582   4.762   7.203  0.0411 -0.3191 -0.0181
  505MOL0     H68135  10.181   4.640   7.369 -0.2753  1.5360  0.3308
  505MOL0     H68136   9.879   4.807   7.236 -4.6561 -2.4623  0.9182
  505MOL0     H68137   9.868   4.639   7.232 -2.9169  2.2459  1.9168
  505MOL0     H68138   9.944   4.717   7.373  0.1784  0.5257 -0.0356
  505MOL0     H68139   9.860   4.623   6.689  0.3802  0.3423  0.9360
  505MOL0     H68140   9.687   4.673   6.520  1.1827  0.9016 -2.1839
  505MOL0     H68141   9.425   4.981   6.546 -0.6336  0.3585 -0.7869
  505MOL0     H68142   9.551   5.098   6.506  0.1231 -0.9497  0.4467
  505MOL0     H68143   9.396   4.925   6.305 -0.9232 -0.3248  0.0678
  505MOL0     H68144   9.323   5.078   6.363 -0.1555  0.5075 -4.4512
  505MOL0     H68145   9.443   5.095   6.147 -1.2293 -0.0972  0.1880
  505MOL0     H68146   9.597   5.049   6.221  0.7856  0.4475 -1.3274
  505MOL0     H68147   9.409   5.284   6.238  0.3993  0.7954 -0.5239
  505MOL0     H68148   9.543   5.267   6.356 -0.8221 -0.9733  0.1252
  505MOL0     H68149   9.592   5.288   6.067 -2.6237 -1.4741  1.5585
  505MOL0     H68150   9.714   5.251   6.189  0.3870  1.4347 -0.4272
  505MOL0     H68151   9.537   5.492   6.212  0.2548  0.8839  1.7439
  505MOL0     H68152   9.662   5.437   6.317 -1.1611 -1.8862 -0.3027
  505MOL0     H68153   9.735   5.492   6.025  2.5742 -1.0723 -0.3393
  505MOL0     H68154   9.837   5.453   6.164  0.5304 -0.7289 -0.1209
  505MOL0     H68155   9.822   5.677   6.252 -1.0143 -2.0803  2.0082
  505MOL0     H68156   9.665   5.697   6.175 -0.9278 -2.3187 -0.2491
  505MOL0     H68157   9.753   5.096   6.602  0.1519 -0.2466  2.1161
  505MOL0     H68158   9.903   5.038   6.791  0.3578  0.2109  1.7857
  505MOL0     H68159  10.227   4.818   6.914  0.7884 -2.7519 -1.1986
  505MOL0     H68160  10.425   4.759   7.046  0.9799  1.4095  1.2748
  505MOL0     H68161  11.043   6.146   7.213  1.0183 -2.0234  0.4662
  505MOL0     H68162  10.810   6.082   7.121 -2.0276  0.4443  1.6128
  505MOL0     H68163  10.261   6.151   7.340  2.6215  2.4582 -2.3670
  505MOL0     H68164  10.062   6.150   7.203  0.5877 -0.3900  0.6282
  505MOL0     H68165   9.836   6.029   6.946 -1.6072  1.0587  1.0004
  505MOL0     H68166   9.907   6.097   7.089 -1.9868 -0.7573 -0.2262
  505MOL0     H68167   9.945   6.222   6.812  1.1048 -0.2015  0.1983
  505MOL0     H68168  10.036   6.274   6.956  2.0893 -3.5182  0.6291
  505MOL0     H68169   9.844   6.425   6.927 -2.1028  0.1905 -0.1776
  505MOL0     H68170   9.797   6.323   7.060  1.8808  0.0525 -0.5390
  505MOL0     H68171   9.730   6.246   6.769  1.7781  2.0743 -0.3808
  505MOL0     H68172   9.635   6.371   6.862 -2.9084 -0.8358  3.0440
  505MOL0     H68173   9.476   6.009   6.992 -2.8963  3.4333  0.4900
  505MOL0     H68174  10.276   5.932   6.899  1.6103  0.9621 -1.2245
  505MOL0     H68175  10.480   5.947   7.042  1.8560  4.9598  0.9615
  506MOL0     O68176   3.517   0.441   8.645  0.5129 -0.0761  0.5893
  506MOL0     C68177   3.405   0.397   8.679  0.7023 -0.0774  0.7487
  506MOL0     O68178   3.294   0.470   8.691  0.3006  0.1725  0.9163
  506MOL0     C68179   3.290   0.591   8.630  0.9209 -0.2809 -0.1867
  506MOL0     C68180   3.334   0.696   8.711  0.3457 -0.1400 -0.2940
  506MOL0     C68181   3.328   0.819   8.656  0.0974  0.0441  0.4647
  506MOL0     C68182   3.274   0.841   8.530 -0.6047  0.0008 -0.8757
  506MOL0     O68183   3.270   0.969   8.486 -0.1295 -0.5257 -0.3452
  506MOL0     C68184   3.383   1.012   8.404 -0.2701 -0.2258  0.4672
  506MOL0     C68185   3.342   1.151   8.343 -0.0159  1.1026  0.2546
  506MOL0     C68186   3.395   1.270   8.420 -0.8584  0.4552 -0.2745
  506MOL0     C68187   3.334   1.417   8.395  0.4099 -0.3842 -0.0169
  506MOL0     C68188   3.443   1.510   8.330  0.7645 -0.9138  0.0080
  506MOL0     C68189   3.471   1.488   8.168  0.0848  0.2528 -0.1878
  506MOL0     C68190   3.580   1.586   8.130  0.4531  0.0319  0.3973
  506MOL0     C68191   3.720   1.545   8.184 -0.0515 -0.1455 -0.1850
  506MOL0     N68192   3.809   1.656   8.170  0.1798 -0.1226  0.2269
  506MOL0     C68193   3.863   1.701   8.053 -0.4948 -0.1318 -0.1579
  506MOL0     C68194   3.928   1.816   8.089 -0.5174  0.0409  0.2517
  506MOL0     C68195   4.008   1.903   8.006 -0.2298  0.7632  0.9932
  506MOL0     C68196   4.044   1.834   7.878 -0.2523  0.1642 -0.0788
  506MOL0     C68197   4.164   1.910   7.799  0.2016 -0.0729 -0.5232
  506MOL0     C68198   4.184   1.845   7.662  1.0145  0.7607 -0.4415
  506MOL0     O68199   4.291   1.885   7.586 -0.2547  0.3225  0.3922
  506MOL0     C68200   4.426   1.852   7.627  0.7949  0.4023 -0.2890
  506MOL0     C68201   4.533   1.903   7.552  0.1557 -0.2968 -0.2810
  506MOL0     C68202   4.668   1.870   7.579  1.1686 -0.1463 -0.1810
  506MOL0     C68203   4.769   1.929   7.484 -0.3660 -0.3358  0.0228
  506MOL0     C68204   4.692   1.778   7.680 -0.0163  0.7729 -0.6390
  506MOL0     C68205   4.828   1.734   7.731 -0.5153  0.0442  0.0618
  506MOL0     O68206   4.934   1.816   7.711 -0.0468  0.5162  0.7447
  506MOL0     C68207   5.059   1.752   7.716  0.5071 -0.0010  0.2631
  506MOL0     C68208   5.143   1.775   7.816  0.5939 -1.1374 -0.2309
  506MOL0     C68209   5.251   1.702   7.833  0.5989  0.5745 -0.9344
  506MOL0     C68210   5.287   1.598   7.759 -0.1753  1.1277  0.0213
  506MOL0     O68211   5.395   1.510   7.779  0.3016  0.0645  0.2630
  506MOL0     C68212   5.464   1.493   7.900 -0.3091  0.4922 -0.3284
  506MOL0     C68213   5.565   1.379   7.896 -0.3811 -0.0872  0.0958
  506MOL0     C68214   5.692   1.404   7.982  0.0101  0.3520 -0.6491
  506MOL0     C68215   5.772   1.275   8.001  0.0051 -0.3973 -0.4901
  506MOL0     C68216   5.875   1.292   8.122  0.5023  0.1733 -0.1377
  506MOL0     C68217   5.975   1.178   8.118 -0.5669  0.0287  0.1707
  506MOL0     C68218   6.098   1.218   8.197  0.1413  0.5389 -0.0535
  506MOL0     C68219   6.193   1.104   8.217  0.3363 -0.7748  0.6163
  506MOL0    Cl68220   6.321   1.129   8.338 -0.0775  0.5305 -0.0661
  506MOL0     C68221   5.204   1.570   7.652  0.2116  0.0342  0.0914
  506MOL0     C68222   5.087   1.645   7.634 -0.1596 -0.9327 -0.4919
  506MOL0     O68223   4.839   1.628   7.791  0.4188  0.4578 -0.3647
  506MOL0     C68224   4.583   1.720   7.751  0.0679  0.1492 -0.0282
  506MOL0     C68225   4.453   1.756   7.730 -0.5379 -0.0953  0.4825
  506MOL0     N68226   3.912   1.834   8.224 -0.8243 -0.4369  0.1422
  506MOL0     N68227   3.826   1.742   8.271  0.1016 -0.4610  0.3429
  506MOL0     C68228   3.221   0.737   8.455  0.3360 -0.6391  1.3678
  506MOL0     C68229   3.237   0.607   8.504  0.7804 -0.5216  0.2565
  506MOL0     C68230   3.408   0.257   8.719 -0.7025  0.3507 -0.5386
  506MOL0     C68231   3.292   0.184   8.760  0.4658  0.0499  0.0044
  506MOL0     C68232   3.293   0.055   8.801 -0.1202 -0.5720 -0.4201
  506MOL0     C68233   3.409  -0.022   8.800 -0.5284  0.1168  0.5356
  506MOL0     O68234   3.410  -0.150   8.854  0.1615  0.3064  0.1036
  506MOL0     C68235   3.515  -0.251   8.835 -1.0582  0.2691 -0.7465
  506MOL0     C68236   3.638  -0.234   8.934  0.1765  1.0144  0.4937
  506MOL0     C68237   3.766  -0.252   8.856  1.1806  0.1544 -0.7038
  506MOL0     C68238   3.886  -0.281   8.945  0.2617  0.1384  0.4639
  506MOL0     C68239   3.895  -0.415   9.007  0.7095 -0.5472 -0.8250
  506MOL0     C68240   3.909  -0.524   9.061  0.4626  0.7591  0.8241
  506MOL0     C68241   3.523   0.048   8.764  0.7919  0.0396 -1.0143
  506MOL0     C68242   3.529   0.180   8.732  0.0702 -0.3778  0.0146
  506MOL0     H68243   3.367   0.686   8.814  4.1079  2.5384 -1.0082
  506MOL0     H68244   3.348   0.902   8.723 -2.4822 -2.2621  4.5266
  506MOL0     H68245   3.470   1.016   8.470  0.6847 -0.8838 -0.7120
  506MOL0     H68246   3.400   0.942   8.322 -0.4507  0.3893 -0.1094
  506MOL0     H68247   3.378   1.149   8.239 -0.4802 -1.6376  0.0745
  506MOL0     H68248   3.233   1.152   8.339 -0.0238  0.6337  0.3414
  506MOL0     H68249   3.377   1.248   8.526  0.9405  1.3366  0.2490
  506MOL0     H68250   3.503   1.284   8.412 -0.9374  1.1649 -0.1534
  506MOL0     H68251   3.240   1.409   8.339 -0.0847  1.4865  0.4614
  506MOL0     H68252   3.319   1.455   8.496  1.9215 -0.1554  0.1529
  506MOL0     H68253   3.392   1.606   8.341 -0.0089 -1.3990  0.7799
  506MOL0     H68254   3.528   1.511   8.399  0.8843  2.6531 -0.0313
  506MOL0     H68255   3.500   1.386   8.142 -3.2251 -0.2438 -2.6285
  506MOL0     H68256   3.377   1.501   8.113  1.1579 -1.5592 -2.6439
  506MOL0     H68257   3.575   1.609   8.023 -2.0058 -0.0145  0.4510
  506MOL0     H68258   3.564   1.687   8.169  0.5422  0.2228 -0.0540
  506MOL0     H68259   3.743   1.454   8.127 -1.2521  0.5588 -1.8898
  506MOL0     H68260   3.702   1.513   8.287  2.9369 -0.4785  0.3452
  506MOL0     H68261   3.865   1.665   7.951  2.6458  0.1770 -0.2946
  506MOL0     H68262   3.949   1.993   7.984 -3.2369 -0.6434  2.7036
  506MOL0     H68263   4.106   1.921   8.051  2.1658  0.8001 -3.6060
  506MOL0     H68264   3.961   1.814   7.809 -1.0818  0.8685  0.6800
  506MOL0     H68265   4.087   1.737   7.905 -0.1392  0.3533  0.4247
  506MOL0     H68266   4.255   1.898   7.859 -1.7712 -1.2015  2.5107
  506MOL0     H68267   4.152   2.017   7.783  0.4988  0.6129  3.0284
  506MOL0     H68268   4.099   1.867   7.597  0.6226 -0.2647 -0.2953
  506MOL0     H68269   4.185   1.736   7.674  0.7738  0.9337  1.4801
  506MOL0     H68270   4.511   1.972   7.471 -2.3512 -2.5678 -1.6723
  506MOL0     H68271   4.847   1.978   7.543 -0.6785  0.8755 -0.5325
  506MOL0     H68272   4.810   1.843   7.430  2.3045 -0.0406  1.4145
  506MOL0     H68273   4.729   1.999   7.410  1.4043 -0.2920 -0.9615
  506MOL0     H68274   5.128   1.866   7.873  1.0064  0.1111 -2.0263
  506MOL0     H68275   5.314   1.731   7.916 -0.8138  2.4648 -0.4420
  506MOL0     H68276   5.520   1.582   7.930  2.3731 -0.3039 -2.6232
  506MOL0     H68277   5.386   1.465   7.972 -0.4919  0.7271 -0.4351
  506MOL0     H68278   5.518   1.284   7.924  2.2683 -1.3670  0.4322
  506MOL0     H68279   5.595   1.361   7.792 -1.7811 -0.5780 -0.2544
  506MOL0     H68280   5.668   1.432   8.085  1.3246 -2.6461  0.5832
  506MOL0     H68281   5.752   1.483   7.935  1.3989 -0.1566  0.2154
  506MOL0     H68282   5.707   1.189   8.019 -2.0859  1.7735  3.9804
  506MOL0     H68283   5.823   1.244   7.909 -0.7210  1.3992 -1.5563
  506MOL0     H68284   5.813   1.281   8.211 -1.5483  1.7456 -1.2979
  506MOL0     H68285   5.920   1.392   8.113 -0.0234  0.2610 -2.3467
  506MOL0     H68286   5.935   1.088   8.166  0.7066 -1.1023 -0.8088
  506MOL0     H68287   6.004   1.153   8.016  3.7415 -3.3244  1.9002
  506MOL0     H68288   6.060   1.256   8.293 -0.4155 -0.2274  0.0387
  506MOL0     H68289   6.147   1.303   8.149  0.5592  2.1744  3.0196
  506MOL0     H68290   6.241   1.087   8.120 -0.2475  0.6477  0.0430
  506MOL0     H68291   6.148   1.007   8.239  1.2358 -2.5202 -3.9899
  506MOL0     H68292   5.228   1.481   7.595  3.2529 -0.9566  2.6637
  506MOL0     H68293   5.014   1.615   7.559  0.8301 -1.2964 -1.3319
  506MOL0     H68294   4.605   1.643   7.825  3.2099  1.3814  0.4909
  506MOL0     H68295   4.387   1.698   7.793 -2.2868 -2.4168 -3.1471
  506MOL0     H68296   3.176   0.754   8.357  0.4969 -1.0882  1.2127
  506MOL0     H68297   3.220   0.518   8.445  4.1549 -2.7970  2.3795
  506MOL0     H68298   3.196   0.235   8.756 -0.6814 -2.0282 -2.6998
  506MOL0     H68299   3.201   0.018   8.845  1.0120  0.2904  2.9837
  506MOL0     H68300   3.473  -0.352   8.843 -0.6777  0.1986  0.6099
  506MOL0     H68301   3.539  -0.241   8.728  0.6476 -0.4009 -0.4608
  506MOL0     H68302   3.626  -0.308   9.013 -0.9624  1.8950  1.1752
  506MOL0     H68303   3.632  -0.134   8.979  2.0134  1.8396 -0.9702
  506MOL0     H68304   3.789  -0.159   8.804  1.3666  0.4376 -0.1245
  506MOL0     H68305   3.761  -0.338   8.789  2.6974 -0.4453 -0.0964
  506MOL0     H68306   3.893  -0.203   9.022  0.2532  0.9943 -0.3854
  506MOL0     H68307   3.976  -0.268   8.883  1.6046  1.4659  2.5683
  506MOL0     H68308   3.933  -0.620   9.102  2.9202  0.8220 -0.2889
  506MOL0     H68309   3.615  -0.007   8.778  0.5267  0.0512  1.1136
  506MOL0     H68310   3.624   0.231   8.718  0.2808 -1.0260 -1.0515
  507MOL0     O68311  10.419   1.265   7.207  0.0740 -0.5992  0.5642
  507MOL0     C68312  10.354   1.371   7.187 -0.1677 -0.9798  0.5055
  507MOL0     O68313  10.372   1.486   7.266 -0.0534  0.4349  0.2091
  507MOL0     C68314  10.450   1.486   7.390 -0.7461  0.6815  0.2124
  507MOL0     C68315  10.456   1.608   7.449  0.0539  0.3961  0.9663
  507MOL0     C68316  10.515   1.632   7.564 -0.2175 -0.4138 -1.0791
  507MOL0     C68317  10.574   1.527   7.628  0.0036  0.1097 -0.5379
  507MOL0     O68318  10.639   1.538   7.743  0.0343  0.4977 -0.0598
  507MOL0     C68319  10.562   1.578   7.859 -0.3155 -0.6125 -0.4125
  507MOL0     C68320  10.643   1.545   7.983  0.6610  0.3343  0.1093
  507MOL0     C68321  10.647   1.398   8.017 -0.1904  0.6377 -1.0311
  507MOL0     C68322  10.776   1.356   8.087 -0.2278 -0.0900 -0.0847
  507MOL0     C68323  10.896   1.328   7.996  1.0512 -0.2303  0.4868
  507MOL0     C68324  10.863   1.240   7.870 -0.1341 -0.0139 -0.5010
  507MOL0     C68325  10.982   1.193   7.787  0.1171  0.5638  0.3917
  507MOL0     C68326  11.039   1.055   7.832 -0.5427 -0.7430  0.8099
  507MOL0     N68327  10.970   0.936   7.772 -0.3196 -0.5243  0.7137
  507MOL0     C68328  10.891   0.946   7.661 -0.5671  0.1203  0.6176
  507MOL0     C68329  10.833   0.819   7.643  0.1887  0.0331  0.7774
  507MOL0     C68330  10.748   0.772   7.525 -0.5892  0.6178  0.2007
  507MOL0     C68331  10.595   0.768   7.547 -1.1118 -0.3101 -0.5976
  507MOL0     C68332  10.540   0.918   7.550 -0.5583  0.7111 -0.4124
  507MOL0     C68333  10.550   0.979   7.411 -0.0763 -0.3413  0.9493
  507MOL0     O68334  10.643   1.086   7.416 -0.8123 -0.3609 -0.6946
  507MOL0     C68335  10.744   1.110   7.312  0.4258  0.1793 -0.2802
  507MOL0     C68336  10.858   1.175   7.355 -0.3415 -0.2872  1.5301
  507MOL0     C68337  10.960   1.203   7.267 -0.5960  0.1128 -0.6809
  507MOL0     C68338  11.067   1.280   7.323  0.4822  0.1330 -0.2936
  507MOL0     C68339  10.954   1.159   7.131 -1.4344  0.5767 -0.0543
  507MOL0     C68340  11.062   1.173   7.030  0.7590 -0.0404 -0.3659
  507MOL0     O68341  11.113   1.303   7.039  0.2397 -0.2325  0.7168
  507MOL0     C68342  11.221   1.325   6.960 -0.8843 -0.6214  0.0038
  507MOL0     C68343  11.202   1.395   6.840 -0.3352  0.3646  0.6249
  507MOL0     C68344  11.321   1.437   6.774 -0.9113 -0.5958 -1.0214
  507MOL0     C68345  11.451   1.388   6.807  0.3582  0.2453 -0.9492
  507MOL0     O68346  11.554   1.414   6.724  0.1233 -0.1987  0.5505
  507MOL0     C68347  11.659   1.479   6.788 -0.3847 -0.6514 -0.0120
  507MOL0     C68348  11.764   1.542   6.693  0.3993 -0.1037  0.2475
  507MOL0     C68349  11.700   1.662   6.619 -0.3933 -0.2376 -1.0636
  507MOL0     C68350  11.758   1.803   6.655  0.2800 -0.3204 -0.4071
  507MOL0     C68351  11.901   1.819   6.583 -0.3477 -0.8959 -0.6068
  507MOL0     C68352  11.871   1.841   6.432 -0.2207  0.3032 -0.1168
  507MOL0     C68353  12.004   1.844   6.353  0.8330  0.5822  0.4440
  507MOL0     C68354  11.979   1.902   6.210 -0.1526 -0.0087  0.1188
  507MOL0    Cl68355  11.920   1.770   6.092  0.1417 -0.1379  0.1968
  507MOL0     C68356  11.466   1.302   6.916  0.2314 -0.1706 -0.2034
  507MOL0     C68357  11.351   1.275   6.997  0.2731  0.7329  0.1079
  507MOL0     O68358  11.072   1.093   6.938  0.9741  0.4739 -0.5812
  507MOL0     C68359  10.835   1.087   7.092  0.1702  0.2484  0.0642
  507MOL0     C68360  10.727   1.061   7.180  0.1295  0.4033 -0.3600
  507MOL0     N68361  10.864   0.755   7.759  0.1880  1.4037  0.2243
  507MOL0     N68362  10.947   0.815   7.834 -0.8995  0.1368 -0.0145
  507MOL0     C68363  10.576   1.399   7.577 -0.0477  0.4546 -0.3720
  507MOL0     C68364  10.506   1.372   7.458 -0.2257 -0.0165  0.0447
  507MOL0     C68365  10.259   1.376   7.070 -0.3635  0.7015 -0.2050
  507MOL0     C68366  10.207   1.502   7.023 -1.0809  0.0539 -0.5054
  507MOL0     C68367  10.113   1.509   6.924  0.1647  0.9660 -0.1131
  507MOL0     C68368  10.073   1.392   6.861  0.4218  0.2536  0.4260
  507MOL0     O68369   9.986   1.413   6.757 -0.4152  1.1329 -0.2433
  507MOL0     C68370   9.924   1.306   6.693  0.3465 -0.4743  0.2760
  507MOL0     C68371   9.779   1.303   6.754 -0.5082  0.2801 -0.2703
  507MOL0     C68372   9.697   1.433   6.741 -0.1617  0.5394 -0.2700
  507MOL0     C68373   9.562   1.424   6.804  0.3895 -0.1914  0.7242
  507MOL0     C68374   9.550   1.450   6.947  0.5813 -1.3301 -0.0595
  507MOL0     C68375   9.535   1.457   7.071  0.7137  0.5448 -0.2294
  507MOL0     C68376  10.135   1.272   6.898 -0.3064  1.0188 -0.0511
  507MOL0     C68377  10.223   1.262   6.998 -0.0870 -0.2727  0.3386
  507MOL0     H68378  10.417   1.697   7.399  0.8378  0.5279  0.5747
  507MOL0     H68379  10.531   1.732   7.605  1.7694 -1.0040 -0.2867
  507MOL0     H68380  10.555   1.687   7.864  1.2556 -0.4401 -1.2580
  507MOL0     H68381  10.468   1.521   7.858 -1.3416  0.9851  0.2834
  507MOL0     H68382  10.746   1.576   7.965  1.1519 -1.2919  0.0239
  507MOL0     H68383  10.599   1.609   8.061 -1.8732 -1.8487  0.6252
  507MOL0     H68384  10.568   1.373   8.089  0.5365 -2.7719 -1.2681
  507MOL0     H68385  10.625   1.332   7.933  1.9021 -0.9926 -0.3879
  507MOL0     H68386  10.808   1.436   8.154  2.0196  0.9205 -2.1761
  507MOL0     H68387  10.755   1.266   8.145 -0.4028 -0.3102 -0.4867
  507MOL0     H68388  10.920   1.431   7.967 -4.9670  0.9648 -1.8073
  507MOL0     H68389  10.968   1.277   8.060 -0.0621 -1.9352  0.4469
  507MOL0     H68390  10.804   1.151   7.891  0.2750 -0.0084  0.7872
  507MOL0     H68391  10.795   1.300   7.809  0.3394  1.2361  0.1429
  507MOL0     H68392  10.973   1.203   7.678  1.6059  0.9695  0.2718
  507MOL0     H68393  11.060   1.267   7.808  0.4773  0.4037 -0.3334
  507MOL0     H68394  11.030   1.042   7.940 -2.0158  1.9276  1.0969
  507MOL0     H68395  11.147   1.044   7.819 -0.6129  0.2634 -0.9248
  507MOL0     H68396  10.893   1.026   7.588  0.2677  1.0136  1.5847
  507MOL0     H68397  10.771   0.839   7.441 -2.9231  1.1037 -0.1369
  507MOL0     H68398  10.776   0.672   7.493 -0.3840  0.3987  1.0570
  507MOL0     H68399  10.574   0.710   7.638  1.5029 -0.5436 -0.0636
  507MOL0     H68400  10.548   0.712   7.466 -2.3308 -0.1596 -0.0118
  507MOL0     H68401  10.597   0.965   7.630 -2.6638  1.5324  0.6868
  507MOL0     H68402  10.436   0.925   7.583 -0.2744 -1.3196  1.1261
  507MOL0     H68403  10.460   1.031   7.376  2.4304  4.3058  0.6304
  507MOL0     H68404  10.579   0.903   7.338  1.4530  1.7964 -0.8345
  507MOL0     H68405  10.854   1.228   7.450 -0.4495 -0.4482  1.6162
  507MOL0     H68406  11.157   1.221   7.300  1.1476  0.9101  0.2718
  507MOL0     H68407  11.059   1.377   7.273 -3.3349  0.0240 -0.1292
  507MOL0     H68408  11.071   1.296   7.431  2.0062  1.0816 -0.4607
  507MOL0     H68409  11.106   1.428   6.804 -0.2803 -1.4656 -1.4743
  507MOL0     H68410  11.324   1.510   6.693 -0.7162 -0.9576 -1.3449
  507MOL0     H68411  11.627   1.559   6.856  0.7439 -0.9904  0.9671
  507MOL0     H68412  11.707   1.405   6.853  0.5458 -1.2896 -1.3746
  507MOL0     H68413  11.858   1.573   6.738  0.3886 -0.9311  0.8699
  507MOL0     H68414  11.794   1.471   6.615  0.6435  3.6788 -3.4505
  507MOL0     H68415  11.594   1.658   6.645  0.1096 -0.8938  1.1951
  507MOL0     H68416  11.713   1.640   6.513  1.5255  0.0948 -0.9349
  507MOL0     H68417  11.688   1.881   6.625 -0.9704 -1.1910  0.1663
  507MOL0     H68418  11.761   1.820   6.763 -0.2288  0.8809 -0.5657
  507MOL0     H68419  11.953   1.723   6.595 -1.8442 -2.0861 -2.8133
  507MOL0     H68420  11.954   1.903   6.629 -1.1198 -0.9554  0.4292
  507MOL0     H68421  11.800   1.771   6.388 -0.9518  0.7917  0.2692
  507MOL0     H68422  11.823   1.938   6.412  1.0294  0.7698 -0.9982
  507MOL0     H68423  12.043   1.742   6.345 -0.8787  0.0361 -2.2041
  507MOL0     H68424  12.083   1.897   6.407  2.8913 -1.2645 -0.5734
  507MOL0     H68425  12.070   1.953   6.178  0.3536  1.9804  4.0613
  507MOL0     H68426  11.901   1.978   6.220  0.8467  1.0459  0.1276
  507MOL0     H68427  11.559   1.249   6.938 -1.0879 -1.6410  2.2671
  507MOL0     H68428  11.349   1.224   7.093  0.1843  2.0331  0.8195
  507MOL0     H68429  10.814   1.055   6.990 -1.1577  1.8665 -0.2008
  507MOL0     H68430  10.650   0.996   7.141  0.6571 -2.3616  2.7679
  507MOL0     H68431  10.623   1.326   7.641 -0.5548 -0.5537 -1.1233
  507MOL0     H68432  10.496   1.272   7.418  1.0909 -0.7096  1.3250
  507MOL0     H68433  10.240   1.592   7.075  1.6066 -1.9995  1.6525
  507MOL0     H68434  10.062   1.602   6.899  1.6186  2.3504  1.8257
  507MOL0     H68435   9.908   1.323   6.586 -1.1150 -0.7918  0.4196
  507MOL0     H68436   9.967   1.208   6.711  1.0101 -0.7661 -2.5035
  507MOL0     H68437   9.791   1.276   6.859  0.5012  0.2288 -0.3801
  507MOL0     H68438   9.727   1.223   6.701  1.2043 -1.5269  0.6367
  507MOL0     H68439   9.683   1.454   6.634  2.8273  0.8666 -0.6977
  507MOL0     H68440   9.750   1.521   6.778  0.9530 -1.0996  2.3037
  507MOL0     H68441   9.511   1.330   6.782 -0.2324  0.1520  0.6472
  507MOL0     H68442   9.491   1.487   6.749  0.7408 -2.2842 -2.3653
  507MOL0     H68443   9.528   1.459   7.178 -1.9865 -2.9103 -0.1755
  507MOL0     H68444  10.119   1.173   6.857  1.8560  1.1174 -1.3001
  507MOL0     H68445  10.281   1.177   7.034  2.0128  2.1984  3.3451
  508MOL0     O68446   5.292   0.448   4.144  0.6049 -0.4339 -0.2831
  508MOL0     C68447   5.290   0.340   4.198 -0.3818 -0.2094 -0.3811
  508MOL0     O68448   5.360   0.304   4.307 -0.0897  0.0029 -0.1280
  508MOL0     C68449   5.440   0.385   4.387 -0.3578  0.4489  0.0139
  508MOL0     C68450   5.457   0.522   4.370  0.3327 -0.6902  0.3097
  508MOL0     C68451   5.539   0.580   4.461 -0.3947 -1.2365  0.3262
  508MOL0     C68452   5.632   0.510   4.533  0.1961 -0.6891 -0.4380
  508MOL0     O68453   5.731   0.579   4.608  0.0253  0.1975  0.2600
  508MOL0     C68454   5.860   0.524   4.601 -0.1188 -0.5867 -0.7799
  508MOL0     C68455   5.965   0.603   4.682  0.0338 -0.5715  0.4612
  508MOL0     C68456   6.115   0.559   4.679  0.3507 -0.1848 -0.5980
  508MOL0     C68457   6.198   0.655   4.765 -0.7273 -0.3883  0.2080
  508MOL0     C68458   6.349   0.631   4.784  0.2066 -0.0517  0.4832
  508MOL0     C68459   6.432   0.726   4.877 -0.5937  0.9141 -0.5094
  508MOL0     C68460   6.385   0.866   4.871  1.1365  0.1807  0.3584
  508MOL0     C68461   6.457   0.946   4.972  0.3723 -0.0064 -0.1620
  508MOL0     N68462   6.418   1.094   4.991 -0.3141  0.4089 -0.1655
  508MOL0     C68463   6.457   1.192   4.904  0.1304 -0.7202 -1.1343
  508MOL0     C68464   6.417   1.309   4.958 -0.4004  1.0170  0.2437
  508MOL0     C68465   6.447   1.442   4.901 -0.2357 -0.3891  0.8581
  508MOL0     C68466   6.449   1.565   4.986 -0.0444 -0.2563  0.5128
  508MOL0     C68467   6.526   1.680   4.921 -0.8514 -0.0015  0.6687
  508MOL0     C68468   6.558   1.784   5.032 -0.0260 -0.9178  0.3152
  508MOL0     O68469   6.681   1.751   5.098 -0.5329 -0.3017  0.2183
  508MOL0     C68470   6.720   1.820   5.207 -0.3748 -0.6999 -0.4575
  508MOL0     C68471   6.806   1.759   5.298 -0.5560  0.1246  0.0550
  508MOL0     C68472   6.854   1.825   5.410 -0.4360  0.5233 -0.7936
  508MOL0     C68473   6.941   1.748   5.509  0.4127 -0.6637  0.2814
  508MOL0     C68474   6.807   1.944   5.438 -0.0418 -0.1523 -0.3632
  508MOL0     C68475   6.837   2.008   5.564 -0.4174  0.0299 -0.1356
  508MOL0     O68476   6.964   2.050   5.583 -0.5452 -0.2715 -0.4870
  508MOL0     C68477   6.995   2.086   5.708  0.0000  0.2056 -0.7239
  508MOL0     C68478   6.952   2.210   5.763 -0.0882  0.4204 -0.7210
  508MOL0     C68479   6.983   2.265   5.879 -0.1830  0.6160 -0.5838
  508MOL0     C68480   7.065   2.185   5.966  0.2671  0.0380 -0.3788
  508MOL0     O68481   7.108   2.227   6.092  0.0246  0.0504  0.4884
  508MOL0     C68482   7.008   2.308   6.156 -0.3712 -0.4619 -0.8421
  508MOL0     C68483   7.008   2.315   6.314 -1.4474  0.0673  0.0766
  508MOL0     C68484   7.131   2.393   6.371 -0.0229 -0.3303 -0.2432
  508MOL0     C68485   7.116   2.402   6.521  0.0079  0.1759 -0.0660
  508MOL0     C68486   7.220   2.497   6.587  0.3443 -0.3264  0.3011
  508MOL0     C68487   7.190   2.519   6.730  0.1480  0.5516 -0.6160
  508MOL0     C68488   7.287   2.610   6.805  0.2343  0.3778 -0.0757
  508MOL0     C68489   7.398   2.534   6.877 -0.8360  0.6461  0.2584
  508MOL0    Cl68490   7.343   2.448   7.016  0.0611 -0.1536 -0.4720
  508MOL0     C68491   7.113   2.058   5.916 -0.0372 -0.2266  0.2566
  508MOL0     C68492   7.075   2.006   5.788  0.5823  0.3972  0.2779
  508MOL0     O68493   6.745   1.995   5.647  0.0537 -1.0150 -0.7531
  508MOL0     C68494   6.719   2.005   5.355  0.2461 -0.4148 -0.1887
  508MOL0     C68495   6.672   1.944   5.238 -0.3457  0.7446 -1.6745
  508MOL0     N68496   6.352   1.287   5.083 -0.8975 -0.0239 -0.3138
  508MOL0     N68497   6.357   1.161   5.103 -0.0666 -0.0399  0.1055
  508MOL0     C68498   5.614   0.372   4.554  0.6944  0.1142  0.2791
  508MOL0     C68499   5.517   0.314   4.475  0.2220 -0.7785  0.2782
  508MOL0     C68500   5.197   0.242   4.133  0.4598  0.0694 -0.3919
  508MOL0     C68501   5.201   0.110   4.174 -0.0617  0.5106  0.6658
  508MOL0     C68502   5.134   0.013   4.107 -0.3451  0.3111  0.8685
  508MOL0     C68503   5.049   0.037   3.998  0.3002  0.0909 -0.2475
  508MOL0     O68504   4.965  -0.065   3.949 -1.3474  0.0153  0.4426
  508MOL0     C68505   4.908  -0.046   3.816 -0.1983 -0.4035 -0.0100
  508MOL0     C68506   4.768   0.011   3.827 -0.4726  0.6191  0.3954
  508MOL0     C68507   4.677  -0.094   3.888 -0.0351 -0.6385  0.2258
  508MOL0     C68508   4.578  -0.139   3.791 -0.0745  0.3853  0.6193
  508MOL0     C68509   4.466  -0.052   3.762 -0.4621  0.1415  1.9655
  508MOL0     C68510   4.385   0.030   3.731  0.8910  0.4742 -0.2162
  508MOL0     C68511   5.034   0.174   3.967 -0.1663  1.0441  0.8583
  508MOL0     C68512   5.113   0.275   4.028  0.4773 -0.1137 -0.1800
  508MOL0     H68513   5.392   0.578   4.304 -0.9411 -1.2499  1.0677
  508MOL0     H68514   5.552   0.687   4.461  0.2154 -1.3069  0.6506
  508MOL0     H68515   5.847   0.427   4.651 -0.7231  0.7407  1.7588
  508MOL0     H68516   5.895   0.518   4.497  0.1110  4.4508 -1.2195
  508MOL0     H68517   5.966   0.707   4.649  0.5811  0.0519  2.3189
  508MOL0     H68518   5.939   0.615   4.788  0.8805 -0.5632  0.6785
  508MOL0     H68519   6.128   0.456   4.714  0.9300  0.4820  1.2400
  508MOL0     H68520   6.160   0.565   4.579 -1.5393 -0.7841 -1.5513
  508MOL0     H68521   6.193   0.752   4.715  0.0288 -0.1380  0.6023
  508MOL0     H68522   6.147   0.678   4.859 -1.3601 -1.5698  0.1800
  508MOL0     H68523   6.363   0.537   4.836 -0.0920 -0.8548 -0.8284
  508MOL0     H68524   6.381   0.612   4.681 -1.4058  1.5074 -0.3790
  508MOL0     H68525   6.418   0.692   4.980  1.7558  1.5401  0.0850
  508MOL0     H68526   6.532   0.701   4.841  0.5630  2.1817  1.6522
  508MOL0     H68527   6.389   0.904   4.769 -3.0563 -0.6561 -0.3112
  508MOL0     H68528   6.278   0.866   4.895  1.1337  0.8393  0.3533
  508MOL0     H68529   6.565   0.945   4.957  0.3470 -1.4661 -0.3667
  508MOL0     H68530   6.445   0.897   5.069  0.4756  1.3362  0.5609
  508MOL0     H68531   6.514   1.185   4.812  2.7145  2.7061  0.0173
  508MOL0     H68532   6.551   1.426   4.872 -0.8361 -1.0619 -1.1167
  508MOL0     H68533   6.384   1.459   4.813 -1.0013 -1.2102  1.2247
  508MOL0     H68534   6.509   1.543   5.075  0.2587 -1.9292 -0.0601
  508MOL0     H68535   6.342   1.580   5.003 -0.4188 -3.1002  1.2677
  508MOL0     H68536   6.480   1.700   4.824 -1.3273 -2.2399  0.3784
  508MOL0     H68537   6.624   1.644   4.891 -0.5353 -0.0925  1.7843
  508MOL0     H68538   6.475   1.790   5.104  2.3560  0.9353  3.1463
  508MOL0     H68539   6.574   1.876   4.974  2.7268  0.5016  3.0304
  508MOL0     H68540   6.838   1.657   5.279 -3.9388 -0.8404 -1.0843
  508MOL0     H68541   6.886   1.717   5.599 -0.0237  0.3808  0.3821
  508MOL0     H68542   6.967   1.648   5.473  1.6258 -0.9276  1.7611
  508MOL0     H68543   7.036   1.796   5.536  0.8884 -0.5422 -1.5099
  508MOL0     H68544   6.882   2.271   5.708 -1.1998  1.5480  1.7705
  508MOL0     H68545   6.943   2.356   5.922  0.0092  1.6381 -2.4633
  508MOL0     H68546   7.005   2.416   6.138 -1.6419  0.0961  2.0797
  508MOL0     H68547   6.907   2.269   6.138 -0.5055 -0.1001 -0.8688
  508MOL0     H68548   6.917   2.359   6.356 -1.3140  0.9063 -0.4735
  508MOL0     H68549   7.017   2.211   6.346 -1.2924  0.3364  0.9448
  508MOL0     H68550   7.128   2.493   6.328 -2.1604 -0.5326 -0.6859
  508MOL0     H68551   7.226   2.345   6.346  0.2269 -0.8136  1.4846
  508MOL0     H68552   7.012   2.431   6.538 -0.0867  2.0585 -3.2233
  508MOL0     H68553   7.121   2.297   6.555 -0.5175  0.3044  0.4377
  508MOL0     H68554   7.221   2.596   6.542 -0.3488  0.4946  1.9979
  508MOL0     H68555   7.316   2.445   6.576 -0.7226 -2.1795 -0.7744
  508MOL0     H68556   7.094   2.571   6.739 -0.0426  0.1068 -0.0413
  508MOL0     H68557   7.183   2.420   6.774 -2.6232  0.8532 -0.1666
  508MOL0     H68558   7.223   2.665   6.874 -4.0375 -1.4081 -2.2453
  508MOL0     H68559   7.330   2.691   6.744 -1.9492  2.2543  0.7560
  508MOL0     H68560   7.463   2.615   6.910 -0.2390  1.0948 -1.8410
  508MOL0     H68561   7.479   2.485   6.822  2.9876  2.3718  3.8340
  508MOL0     H68562   7.181   2.001   5.980  0.5343  0.3032  0.1294
  508MOL0     H68563   7.112   1.912   5.748  1.1953  0.3910  0.8614
  508MOL0     H68564   6.683   2.100   5.393  2.9633  0.7926 -0.3758
  508MOL0     H68565   6.586   1.991   5.191 -0.5056 -0.0106 -2.1574
  508MOL0     H68566   5.678   0.305   4.612  1.2781 -2.0742 -2.6533
  508MOL0     H68567   5.499   0.207   4.477 -2.0100 -0.4968 -1.3155
  508MOL0     H68568   5.259   0.073   4.258 -1.5271 -1.1948  0.9996
  508MOL0     H68569   5.139  -0.093   4.131 -1.1418  0.0314 -0.1079
  508MOL0     H68570   4.970   0.025   3.762  0.4706 -1.7662 -1.1104
  508MOL0     H68571   4.909  -0.137   3.755  3.1993 -0.5149  0.0481
  508MOL0     H68572   4.745   0.036   3.723  3.2308 -0.3818 -0.7892
  508MOL0     H68573   4.763   0.108   3.878 -2.2944  0.6762  0.1695
  508MOL0     H68574   4.629  -0.046   3.974  1.8609  3.9137 -0.9718
  508MOL0     H68575   4.725  -0.189   3.912  1.1431 -0.5415 -1.5919
  508MOL0     H68576   4.531  -0.226   3.838  0.7967  1.6950  4.2156
  508MOL0     H68577   4.623  -0.182   3.701  1.5264 -1.1946  2.0756
  508MOL0     H68578   4.312   0.098   3.691  2.0722 -0.3600 -4.3538
  508MOL0     H68579   4.955   0.200   3.897  1.2353 -1.2935 -1.7942
  508MOL0     H68580   5.095   0.380   4.004  0.8175 -0.3498 -1.5780
  509MOL0     O68581   8.582   1.791   3.163 -0.2018 -0.2201  0.1760
  509MOL0     C68582   8.649   1.710   3.099  1.4440 -0.1537  0.9439
  509MOL0     O68583   8.615   1.663   2.974 -0.2085  0.3258  0.3911
  509MOL0     C68584   8.484   1.700   2.931  0.3985 -0.3332 -0.2696
  509MOL0     C68585   8.477   1.810   2.846  0.8183  0.0294 -0.0945
  509MOL0     C68586   8.346   1.863   2.817 -0.3476  0.1780  0.1776
  509MOL0     C68587   8.226   1.794   2.857 -0.1802  0.1970 -0.2197
  509MOL0     O68588   8.107   1.846   2.811  0.2946  0.5038  0.4619
  509MOL0     C68589   7.999   1.760   2.810 -0.3092  0.2813 -0.3721
  509MOL0     C68590   7.877   1.813   2.733 -0.6624  0.0556 -0.1443
  509MOL0     C68591   7.916   1.883   2.602 -0.2858  0.8744 -0.4502
  509MOL0     C68592   7.818   1.998   2.566 -0.7190  0.4730 -0.1520
  509MOL0     C68593   7.884   2.138   2.542 -0.3538 -0.6109  0.1079
  509MOL0     C68594   7.779   2.237   2.478  0.2761 -0.0911 -0.1824
  509MOL0     C68595   7.819   2.383   2.499  0.0014  0.0993 -0.7872
  509MOL0     C68596   7.953   2.439   2.444  1.2379 -0.7763  0.5643
  509MOL0     N68597   7.941   2.472   2.301  0.7975 -0.9062  0.3367
  509MOL0     C68598   8.050   2.476   2.218 -0.1159  0.5373 -0.1842
  509MOL0     C68599   8.003   2.534   2.100  0.0361  0.2469  0.0664
  509MOL0     C68600   8.069   2.556   1.972 -0.2017 -0.3018  0.4826
  509MOL0     C68601   8.075   2.698   1.923  0.6825  0.1532 -0.2701
  509MOL0     C68602   8.128   2.718   1.776  0.0270 -0.5223 -0.6976
  509MOL0     C68603   8.276   2.687   1.733  0.1564  0.7322  0.8493
  509MOL0     O68604   8.293   2.546   1.741 -0.0344 -0.0411  0.2792
  509MOL0     C68605   8.428   2.502   1.744  0.6092 -0.4709 -1.0169
  509MOL0     C68606   8.443   2.374   1.794 -0.0776  0.1594  0.0338
  509MOL0     C68607   8.566   2.299   1.777 -0.3417  0.7646 -0.6765
  509MOL0     C68608   8.582   2.151   1.814 -0.5002  0.8698  0.0006
  509MOL0     C68609   8.674   2.366   1.711  0.4358  0.7507 -0.7926
  509MOL0     C68610   8.813   2.323   1.686  0.4076  0.4308  0.7800
  509MOL0     O68611   8.899   2.353   1.790 -0.1335  0.5087 -0.0233
  509MOL0     C68612   9.016   2.283   1.786  0.1924  0.4407 -0.7162
  509MOL0     C68613   9.023   2.144   1.795 -0.3623 -0.0140  0.1773
  509MOL0     C68614   9.152   2.085   1.771  0.3978  0.4819  0.5801
  509MOL0     C68615   9.268   2.160   1.753 -0.3744  0.7855  0.4508
  509MOL0     O68616   9.389   2.096   1.775 -1.0391 -0.1932  0.7713
  509MOL0     C68617   9.512   2.163   1.725  0.2738  0.3412  0.0756
  509MOL0     C68618   9.615   2.057   1.742  0.2530  1.0985  0.7085
  509MOL0     C68619   9.747   2.102   1.681 -0.1496 -0.3131 -0.2667
  509MOL0     C68620   9.850   1.992   1.711  0.0730 -0.6161  0.5173
  509MOL0     C68621   9.982   2.022   1.645 -0.1113 -0.8507  0.1229
  509MOL0     C68622  10.097   1.914   1.675  0.3522 -0.5268 -0.8650
  509MOL0     C68623  10.237   1.959   1.619  0.5493  0.6828 -0.0350
  509MOL0     C68624  10.330   1.837   1.624 -0.0379 -0.6308 -0.0177
  509MOL0    Cl68625  10.284   1.709   1.509 -0.0115  0.1078  0.5125
  509MOL0     C68626   9.256   2.301   1.745  0.4357 -0.8637  0.7637
  509MOL0     C68627   9.133   2.362   1.767  0.4327 -0.6344 -0.8430
  509MOL0     O68628   8.831   2.245   1.592  0.3230 -1.0087  0.7229
  509MOL0     C68629   8.657   2.507   1.685  0.3837 -0.0043  0.1960
  509MOL0     C68630   8.539   2.578   1.705  0.2566 -0.1473 -0.1559
  509MOL0     N68631   7.872   2.567   2.123  0.2282  0.2067  0.1421
  509MOL0     N68632   7.834   2.523   2.235  1.2654  0.3729 -1.4100
  509MOL0     C68633   8.239   1.683   2.930 -0.0124 -0.1447 -0.2824
  509MOL0     C68634   8.367   1.650   2.973 -1.0357  1.1072 -0.6054
  509MOL0     C68635   8.753   1.640   3.171 -0.7341 -0.1272  0.0424
  509MOL0     C68636   8.749   1.632   3.315  0.3100  0.7628  0.4171
  509MOL0     C68637   8.853   1.581   3.388 -0.0352  0.5022  0.6874
  509MOL0     C68638   8.976   1.535   3.322  0.6149 -0.0905  0.3954
  509MOL0     O68639   9.081   1.497   3.402  0.5646 -0.3042  0.4021
  509MOL0     C68640   9.203   1.486   3.345  0.6438  0.5608  0.2787
  509MOL0     C68641   9.312   1.467   3.453  1.3024 -0.1312 -0.2522
  509MOL0     C68642   9.456   1.472   3.395  0.3821  0.1220 -1.0330
  509MOL0     C68643   9.567   1.424   3.495  0.2136  0.3300  0.1388
  509MOL0     C68644   9.696   1.453   3.438 -0.1263 -0.7027 -0.5965
  509MOL0     C68645   9.804   1.505   3.410  0.7224 -0.3419  0.3853
  509MOL0     C68646   8.974   1.529   3.183 -0.4687  0.4867 -0.5025
  509MOL0     C68647   8.866   1.576   3.109  0.6080  0.9069  1.0641
  509MOL0     H68648   8.568   1.867   2.827  0.5420  0.5590  0.1765
  509MOL0     H68649   8.341   1.956   2.761  0.6418 -0.6553 -1.3822
  509MOL0     H68650   8.025   1.672   2.752  0.5928  1.2922 -1.5574
  509MOL0     H68651   7.975   1.734   2.913  2.6853 -0.1187  0.3361
  509MOL0     H68652   7.807   1.730   2.724 -0.9875  0.5085 -2.5027
  509MOL0     H68653   7.832   1.891   2.795  1.1504  1.1776 -0.1639
  509MOL0     H68654   8.019   1.919   2.597  0.9891 -2.5285 -1.8109
  509MOL0     H68655   7.902   1.805   2.526  1.5511  1.3418 -1.3255
  509MOL0     H68656   7.772   1.973   2.470  1.1382  0.2620 -1.0286
  509MOL0     H68657   7.744   2.012   2.645 -2.5512  1.3794 -1.9389
  509MOL0     H68658   7.923   2.185   2.633  0.9290  0.9662 -1.1936
  509MOL0     H68659   7.974   2.123   2.482  0.3834  0.2291  0.9845
  509MOL0     H68660   7.762   2.211   2.373  1.4268 -2.2222  0.0992
  509MOL0     H68661   7.683   2.213   2.524 -0.5723  1.2741 -1.1619
  509MOL0     H68662   7.743   2.459   2.482 -0.1812  0.3675  0.9898
  509MOL0     H68663   7.820   2.402   2.607  1.3541  0.0086 -0.7686
  509MOL0     H68664   8.033   2.367   2.462  2.0855  0.7128  3.4825
  509MOL0     H68665   7.968   2.531   2.502 -2.0689  0.7910 -0.8309
  509MOL0     H68666   8.152   2.440   2.228  0.6754  2.6892 -0.1901
  509MOL0     H68667   8.176   2.537   1.977  0.1031  1.0133 -0.5613
  509MOL0     H68668   8.042   2.481   1.897 -0.5044  2.7563 -2.7601
  509MOL0     H68669   8.138   2.760   1.987  0.2888  1.3656 -1.0073
  509MOL0     H68670   7.974   2.740   1.915  1.5118  1.9920 -1.9859
  509MOL0     H68671   8.122   2.826   1.762 -1.0105 -0.6127 -1.0845
  509MOL0     H68672   8.057   2.674   1.705  1.1961  0.3376 -2.4798
  509MOL0     H68673   8.346   2.743   1.795  2.3814  2.5761 -2.9352
  509MOL0     H68674   8.289   2.711   1.627 -2.6195 -0.8321  0.0452
  509MOL0     H68675   8.365   2.325   1.851 -0.1716 -0.3645 -0.5344
  509MOL0     H68676   8.675   2.128   1.867  0.4150  3.6175 -0.2301
  509MOL0     H68677   8.499   2.118   1.876 -1.4606 -1.2763 -2.2546
  509MOL0     H68678   8.574   2.108   1.714 -0.7504 -1.9806  1.1484
  509MOL0     H68679   8.934   2.084   1.813 -2.2073  3.0265  2.0736
  509MOL0     H68680   9.154   1.976   1.779 -0.3927  0.3665 -0.6282
  509MOL0     H68681   9.507   2.205   1.624 -2.2221  0.2465  0.0955
  509MOL0     H68682   9.531   2.252   1.787  0.0758  0.4540 -0.0225
  509MOL0     H68683   9.633   2.044   1.849  2.7782  2.9476  0.5961
  509MOL0     H68684   9.591   1.966   1.687 -1.9365  1.7211  0.5439
  509MOL0     H68685   9.783   2.190   1.735 -2.7682 -0.1424  1.4317
  509MOL0     H68686   9.729   2.124   1.576 -2.2099 -2.3783 -0.4343
  509MOL0     H68687   9.864   1.982   1.818  0.4547  1.6394  0.7233
  509MOL0     H68688   9.821   1.892   1.676  2.1603 -1.2192  0.4078
  509MOL0     H68689  10.013   2.120   1.682  0.1163 -1.6595  2.2038
  509MOL0     H68690   9.981   2.036   1.536  0.4744 -1.7482 -0.0122
  509MOL0     H68691  10.113   1.891   1.781  0.8943 -3.9361 -1.5720
  509MOL0     H68692  10.054   1.820   1.639 -1.4431 -0.2545  0.4019
  509MOL0     H68693  10.287   2.036   1.678  1.3250  2.2137 -2.5543
  509MOL0     H68694  10.222   1.986   1.515  0.8599  3.5579  0.5875
  509MOL0     H68695  10.320   1.791   1.723  1.8992  2.2195  1.6532
  509MOL0     H68696  10.437   1.852   1.609 -0.2414 -0.9222 -1.9040
  509MOL0     H68697   9.331   2.372   1.713  0.1359 -1.4789 -1.4465
  509MOL0     H68698   9.116   2.468   1.757  0.9769 -0.4616 -0.0210
  509MOL0     H68699   8.736   2.573   1.651  0.1802 -0.1325 -0.5616
  509MOL0     H68700   8.522   2.683   1.683  1.4805 -0.0222 -0.6056
  509MOL0     H68701   8.160   1.621   2.970 -1.1203  0.6779 -1.1493
  509MOL0     H68702   8.376   1.565   3.041 -3.2133  0.9474 -0.4471
  509MOL0     H68703   8.657   1.664   3.364 -0.7676  0.1583 -1.1482
  509MOL0     H68704   8.847   1.585   3.496 -1.0015 -1.2837  0.7344
  509MOL0     H68705   9.200   1.393   3.287  1.9490  0.0017  1.0736
  509MOL0     H68706   9.234   1.568   3.279  1.8447  1.1880  1.5784
  509MOL0     H68707   9.296   1.374   3.507  0.3297 -0.3532 -0.9024
  509MOL0     H68708   9.304   1.542   3.533 -0.0533  1.2511 -1.6219
  509MOL0     H68709   9.469   1.580   3.384 -1.9000  0.7801  1.5360
  509MOL0     H68710   9.466   1.421   3.299  1.9675 -0.6380 -0.4886
  509MOL0     H68711   9.557   1.315   3.501 -2.3376  0.4581 -0.3359
  509MOL0     H68712   9.557   1.469   3.594  1.7693  1.8897 -0.3656
  509MOL0     H68713   9.888   1.554   3.366 -0.4393  1.7492  0.3868
  509MOL0     H68714   9.064   1.492   3.135 -0.9013 -0.5691 -0.5197
  509MOL0     H68715   8.862   1.579   3.000  1.8024  3.1349  1.0211
  510MOL0     O68716  10.044   7.025   8.722 -0.3221  0.3286 -1.1394
  510MOL0     C68717  10.085   7.094   8.813 -0.3030 -0.1801  0.4472
  510MOL0     O68718  10.150   7.046   8.923 -0.6307 -0.1747 -0.5056
  510MOL0     C68719  10.192   6.917   8.913 -0.3214  0.0819 -0.9624
  510MOL0     C68720  10.333   6.887   8.931  1.1149 -0.5698  0.3047
  510MOL0     C68721  10.368   6.754   8.924 -0.6355 -1.6249  0.4887
  510MOL0     C68722  10.272   6.651   8.898 -0.3438  0.0476 -0.6249
  510MOL0     O68723  10.325   6.525   8.875 -0.6169  0.0569 -0.2006
  510MOL0     C68724  10.394   6.464   8.986  0.1993 -0.2494  0.0684
  510MOL0     C68725  10.309   6.371   9.075 -0.6396 -0.0099  0.0833
  510MOL0     C68726  10.242   6.277   8.978  0.0445 -0.4471  0.5651
  510MOL0     C68727  10.149   6.177   9.046 -1.0136  0.0381 -0.0674
  510MOL0     C68728  10.052   6.100   8.962 -0.2660 -1.6374  0.2747
  510MOL0     C68729  10.098   6.029   8.828  0.3473 -0.3814 -0.7157
  510MOL0     C68730  10.130   5.887   8.843 -0.4303 -0.2081 -0.7215
  510MOL0     C68731  10.255   5.863   8.927 -0.4434  0.3411 -0.2225
  510MOL0     N68732  10.309   5.724   8.911  0.4496  0.1895 -0.9928
  510MOL0     C68733  10.417   5.686   8.824  0.7388 -1.0433  0.6209
  510MOL0     C68734  10.407   5.549   8.818  0.5079 -0.7666 -0.3788
  510MOL0     C68735  10.491   5.459   8.747 -0.6273 -0.2887  0.7735
  510MOL0     C68736  10.420   5.405   8.618  0.3905  0.0712 -0.6332
  510MOL0     C68737  10.488   5.273   8.585 -0.2984 -0.3548 -0.2286
  510MOL0     C68738  10.635   5.283   8.545  0.1334  0.3306 -1.7988
  510MOL0     O68739  10.688   5.147   8.537  0.1570 -0.1119 -0.3142
  510MOL0     C68740  10.824   5.133   8.501  0.5646 -0.6991 -0.7117
  510MOL0     C68741  10.914   5.237   8.469  0.1572 -0.4592 -0.4869
  510MOL0     C68742  11.042   5.206   8.426  0.1238  0.2115 -0.1355
  510MOL0     C68743  11.124   5.330   8.394  0.6148 -0.6571 -0.1247
  510MOL0     C68744  11.088   5.074   8.422 -0.9024 -0.1552  0.6398
  510MOL0     C68745  11.230   5.039   8.383  0.3866  0.1161  0.5483
  510MOL0     O68746  11.251   4.896   8.372 -0.0004 -0.1223 -0.1842
  510MOL0     C68747  11.379   4.866   8.333 -0.1157 -0.4959  0.6479
  510MOL0     C68748  11.410   4.862   8.193  0.1275  0.3217 -0.3690
  510MOL0     C68749  11.555   4.836   8.155  0.7055 -0.2451  0.6163
  510MOL0     C68750  11.648   4.819   8.255  0.0805  0.0511 -0.1436
  510MOL0     O68751  11.776   4.797   8.215  0.0369  0.4105  0.2067
  510MOL0     C68752  11.823   4.665   8.244  0.4875 -0.8521 -0.5963
  510MOL0     C68753  11.753   4.553   8.176 -0.3555 -0.1636  0.1194
  510MOL0     C68754  11.760   4.586   8.027 -1.0839 -0.8098 -0.6203
  510MOL0     C68755  11.696   4.477   7.937  0.4248 -0.7774  0.5734
  510MOL0     C68756  11.658   4.526   7.802 -0.1489  0.8134 -0.7868
  510MOL0     C68757  11.591   4.422   7.720  0.1387 -1.2082 -0.4951
  510MOL0     C68758  11.547   4.492   7.591  0.5964 -0.5548  0.2543
  510MOL0     C68759  11.645   4.562   7.503  0.2245  0.6116  0.0578
  510MOL0    Cl68760  11.585   4.552   7.340 -0.3113 -0.0776 -0.1104
  510MOL0     C68761  11.610   4.821   8.389  0.1027 -0.3134 -0.3771
  510MOL0     C68762  11.482   4.842   8.424  0.7479 -0.8348 -0.2981
  510MOL0     O68763  11.311   5.132   8.350  1.5605  0.5702 -0.3775
  510MOL0     C68764  11.002   4.978   8.456 -0.5983  0.1106 -0.1859
  510MOL0     C68765  10.871   5.006   8.497  0.5268  0.0718 -0.3243
  510MOL0     N68766  10.309   5.513   8.905  0.2730 -0.2946 -0.4227
  510MOL0     N68767  10.252   5.609   8.962  1.0813 -0.7107  0.4939
  510MOL0     C68768  10.137   6.681   8.878  0.1182 -0.4064  0.6411
  510MOL0     C68769  10.100   6.816   8.896  0.1174 -0.0623 -0.4304
  510MOL0     C68770  10.054   7.236   8.804  0.4492 -0.0583  0.2234
  510MOL0     C68771  10.090   7.336   8.902  1.3305 -0.1492  0.0273
  510MOL0     C68772  10.035   7.458   8.896  0.0397  0.1713  0.0344
  510MOL0     C68773   9.968   7.494   8.781 -0.9321 -0.4622 -0.3506
  510MOL0     O68774   9.958   7.623   8.751 -0.3948 -0.2048  0.2287
  510MOL0     C68775   9.850   7.678   8.681  0.6373  0.0700  0.0292
  510MOL0     C68776   9.721   7.694   8.769  0.4905 -0.7059 -0.6990
  510MOL0     C68777   9.739   7.770   8.901 -0.1217  0.7009 -0.6465
  510MOL0     C68778   9.599   7.768   8.979 -0.1800  0.3999  0.3422
  510MOL0     C68779   9.586   7.674   9.091  0.1922 -0.4769  0.9594
  510MOL0     C68780   9.575   7.607   9.190  0.1642  0.2021  0.4589
  510MOL0     C68781   9.927   7.402   8.685 -0.1592 -0.1620  0.6170
  510MOL0     C68782   9.975   7.269   8.692  0.5367 -0.4273  0.1980
  510MOL0     H68783  10.399   6.968   8.962  0.6427 -0.2417  0.4573
  510MOL0     H68784  10.476   6.740   8.932 -0.4722 -1.0027 -0.4709
  510MOL0     H68785  10.479   6.413   8.941  0.7737  2.2367 -1.9079
  510MOL0     H68786  10.448   6.531   9.054  1.2442  1.5096 -2.3326
  510MOL0     H68787  10.370   6.301   9.133  1.7271 -2.3132 -4.5696
  510MOL0     H68788  10.241   6.425   9.141  0.1242 -0.4297  1.2379
  510MOL0     H68789  10.173   6.329   8.911  0.5302 -1.5702 -0.8437
  510MOL0     H68790  10.318   6.229   8.916 -0.7515 -1.7075  0.5319
  510MOL0     H68791  10.216   6.109   9.100 -0.9047 -0.1699 -0.4596
  510MOL0     H68792  10.090   6.230   9.121 -3.0783 -2.7582  0.4543
  510MOL0     H68793   9.995   6.026   9.019 -1.0889 -2.5431 -1.6332
  510MOL0     H68794   9.976   6.172   8.934 -0.7365 -2.0501  0.4761
  510MOL0     H68795  10.014   6.022   8.758 -0.3538 -0.2964  0.0949
  510MOL0     H68796  10.177   6.094   8.788 -1.4914  2.2898 -0.3518
  510MOL0     H68797  10.049   5.826   8.883 -0.4321  0.4595  0.3361
  510MOL0     H68798  10.152   5.849   8.743  0.8114 -1.9851  0.1810
  510MOL0     H68799  10.214   5.886   9.026 -3.7073  3.3827 -2.0563
  510MOL0     H68800  10.340   5.930   8.909 -1.0202  0.5816 -2.2722
  510MOL0     H68801  10.482   5.759   8.777 -1.9787  2.0119  1.2711
  510MOL0     H68802  10.581   5.512   8.714 -1.2266  0.6073  0.5208
  510MOL0     H68803  10.523   5.379   8.814  2.3182  0.1407 -0.0040
  510MOL0     H68804  10.419   5.482   8.540  2.2342 -0.2331 -0.9936
  510MOL0     H68805  10.316   5.381   8.645  1.3092 -1.1110  2.2237
  510MOL0     H68806  10.441   5.231   8.496  0.2022 -0.1693 -0.5860
  510MOL0     H68807  10.486   5.205   8.671 -2.2224  1.0831  0.9504
  510MOL0     H68808  10.686   5.337   8.626  2.3003 -2.7715 -0.8877
  510MOL0     H68809  10.643   5.337   8.451 -1.3421  2.5723 -0.7079
  510MOL0     H68810  10.871   5.336   8.470  0.6658 -0.2247  0.6033
  510MOL0     H68811  11.072   5.420   8.428 -1.0814 -0.8717 -1.9547
  510MOL0     H68812  11.216   5.332   8.453  0.4326  2.7410  0.2550
  510MOL0     H68813  11.141   5.338   8.286 -2.6790  1.1006 -0.6289
  510MOL0     H68814  11.343   4.900   8.117 -3.2293  0.0675  2.2125
  510MOL0     H68815  11.573   4.822   8.048 -2.5426 -4.8010  0.4001
  510MOL0     H68816  11.928   4.669   8.214  0.5065  1.7818 -0.3408
  510MOL0     H68817  11.825   4.635   8.350 -0.9338 -0.2806 -0.3901
  510MOL0     H68818  11.811   4.461   8.192 -1.1120 -0.4425  1.3556
  510MOL0     H68819  11.649   4.537   8.204 -1.4012 -0.6914 -3.4819
  510MOL0     H68820  11.863   4.605   7.995 -1.1406  0.8862  0.0807
  510MOL0     H68821  11.709   4.680   8.004  3.3246  1.7985 -0.8538
  510MOL0     H68822  11.753   4.384   7.936 -1.4131 -1.9497  0.7520
  510MOL0     H68823  11.607   4.443   7.991 -2.7847  0.1329 -3.6221
  510MOL0     H68824  11.742   4.564   7.744  2.5200 -3.1921  0.0949
  510MOL0     H68825  11.594   4.615   7.811  2.1898  2.6250 -1.1980
  510MOL0     H68826  11.655   4.336   7.696  1.8291  0.3127 -1.7260
  510MOL0     H68827  11.495   4.394   7.765  0.2034  1.0846  1.2318
  510MOL0     H68828  11.467   4.564   7.612  0.6226 -1.2020  2.9002
  510MOL0     H68829  11.505   4.408   7.536  2.9332 -0.9421 -1.0460
  510MOL0     H68830  11.736   4.503   7.492 -1.4764 -2.0557 -0.7367
  510MOL0     H68831  11.678   4.666   7.516  0.5400  0.7958 -1.9486
  510MOL0     H68832  11.683   4.810   8.469 -0.2012  0.4680  0.0203
  510MOL0     H68833  11.451   4.841   8.528 -0.4996  1.8262 -0.5784
  510MOL0     H68834  11.035   4.875   8.462 -1.0021 -0.1002 -1.2363
  510MOL0     H68835  10.814   4.926   8.545 -1.0707  1.1883 -0.2756
  510MOL0     H68836  10.083   6.599   8.832  3.0553 -2.7288  1.0115
  510MOL0     H68837   9.994   6.839   8.886  0.1496  0.3133  0.0494
  510MOL0     H68838  10.167   7.296   8.967 -0.2791 -0.4896  1.8035
  510MOL0     H68839  10.078   7.529   8.967 -0.1216 -0.3578  0.6679
  510MOL0     H68840   9.866   7.778   8.641 -1.3927  1.7590  3.0884
  510MOL0     H68841   9.819   7.610   8.601  0.8431 -0.4999  0.4262
  510MOL0     H68842   9.669   7.600   8.790 -0.4546 -0.1630 -0.5521
  510MOL0     H68843   9.654   7.754   8.708 -1.8345 -1.6540  0.8037
  510MOL0     H68844   9.780   7.869   8.882  2.2854  0.1894  1.2587
  510MOL0     H68845   9.809   7.709   8.959 -1.3305 -4.5321 -4.0071
  510MOL0     H68846   9.518   7.755   8.906  0.1845  0.2564 -0.0431
  510MOL0     H68847   9.597   7.868   9.023  1.8206  0.8071 -0.3696
  510MOL0     H68848   9.577   7.549   9.280  4.2414  1.5879  1.4453
  510MOL0     H68849   9.872   7.426   8.595 -2.1066 -0.2941  1.7177
  510MOL0     H68850   9.938   7.196   8.620 -0.8892 -1.0963  1.5496
  511MOL0     O68851   4.568  10.702   1.843 -0.3561  0.0143  0.2144
  511MOL0     C68852   4.606  10.676   1.961 -0.1373 -0.5763  0.3436
  511MOL0     O68853   4.531  10.676   2.071 -0.3919  0.2311 -1.1244
  511MOL0     C68854   4.395  10.692   2.058 -0.2903 -0.3730 -0.0327
  511MOL0     C68855   4.300  10.604   2.009  0.2385  1.1757 -0.2361
  511MOL0     C68856   4.170  10.649   1.981 -0.4341  0.5356  0.4486
  511MOL0     C68857   4.137  10.781   2.000  0.1259  0.7386 -1.0418
  511MOL0     O68858   4.008  10.819   1.963 -0.6001  0.4515 -0.0557
  511MOL0     C68859   3.969  10.962   1.984 -0.2080  0.0770  0.0933
  511MOL0     C68860   3.842  10.989   1.913  0.0815  0.1123 -0.1518
  511MOL0     C68861   3.722  10.922   1.989  0.1450  0.1382  0.8163
  511MOL0     C68862   3.601  10.998   1.954  0.8729 -0.0982  0.1121
  511MOL0     C68863   3.473  10.919   1.989 -0.1680 -0.5587 -0.0729
  511MOL0     C68864   3.394  10.893   1.863 -0.0415  0.8099  0.8234
  511MOL0     C68865   3.296  11.002   1.820 -0.4744 -0.6571  0.1550
  511MOL0     C68866   3.224  10.975   1.682 -0.8394  0.7302 -0.3307
  511MOL0     N68867   3.124  10.864   1.697 -0.8769  0.3924 -0.3252
  511MOL0     C68868   3.051  10.818   1.809  0.0601  0.4102 -0.1260
  511MOL0     C68869   2.958  10.727   1.760 -0.6939  0.7101  0.1439
  511MOL0     C68870   2.858  10.660   1.843  0.1587  0.3671 -0.2508
  511MOL0     C68871   2.737  10.747   1.885 -0.1196 -0.1770 -0.2196
  511MOL0     C68872   2.617  10.664   1.939  0.3838 -0.4231  0.2119
  511MOL0     C68873   2.626  10.591   2.074 -1.2349  1.0537 -0.4665
  511MOL0     O68874   2.605  10.684   2.177 -0.3188 -0.2307  0.0865
  511MOL0     C68875   2.585  10.634   2.299  0.8146  0.6124 -0.0504
  511MOL0     C68876   2.544  10.714   2.408  0.6154  0.5020  0.3922
  511MOL0     C68877   2.522  10.671   2.540  1.1862 -1.0586 -0.0772
  511MOL0     C68878   2.458  10.777   2.633  0.1570 -0.7383  0.5548
  511MOL0     C68879   2.553  10.532   2.567  0.0951 -0.1245  0.0733
  511MOL0     C68880   2.545  10.477   2.699  0.4257 -0.0174 -0.1309
  511MOL0     O68881   2.515  10.555   2.814 -0.0171 -0.2146  0.0240
  511MOL0     C68882   2.540  10.503   2.935  0.0166  0.3072  0.3794
  511MOL0     C68883   2.667  10.484   2.974  0.2687  0.3739 -0.5057
  511MOL0     C68884   2.698  10.447   3.106 -0.6772  0.0755  0.5946
  511MOL0     C68885   2.605  10.429   3.199 -0.3603 -0.0271  0.0807
  511MOL0     O68886   2.646  10.405   3.324 -0.2812 -0.1804 -0.6218
  511MOL0     C68887   2.549  10.392   3.433 -0.4263 -0.4707  0.4663
  511MOL0     C68888   2.624  10.380   3.560  0.3741 -0.1019  0.1044
  511MOL0     C68889   2.685  10.241   3.581  0.2994  0.2048  0.4995
  511MOL0     C68890   2.786  10.254   3.694 -0.1333  0.1404 -0.0502
  511MOL0     C68891   2.874  10.127   3.725  0.4788 -0.4405  0.1871
  511MOL0     C68892   2.797  10.006   3.781 -0.3586  0.2015  0.1322
  511MOL0     C68893   2.884   9.907   3.869  0.6421 -0.3973  0.3893
  511MOL0     C68894   3.003   9.835   3.798 -1.0238 -0.4884  0.4969
  511MOL0    Cl68895   3.070   9.731   3.922 -0.4317 -0.0166 -0.1996
  511MOL0     C68896   2.467  10.444   3.164 -0.0278  0.3752 -0.5577
  511MOL0     C68897   2.437  10.492   3.030 -0.1929  0.6724 -0.4861
  511MOL0     O68898   2.568  10.362   2.715  0.0781  0.1643  0.8441
  511MOL0     C68899   2.588  10.449   2.461 -1.0400 -0.1450 -0.0002
  511MOL0     C68900   2.598  10.498   2.335 -0.8574  0.1477  0.1509
  511MOL0     N68901   2.978  10.715   1.617 -0.3537 -0.0373 -0.3024
  511MOL0     N68902   3.067  10.804   1.585  0.3728 -0.8571 -0.6862
  511MOL0     C68903   4.226  10.858   2.072 -0.0233 -0.5371  0.1739
  511MOL0     C68904   4.358  10.812   2.089  0.5792  0.1707  0.9068
  511MOL0     C68905   4.754  10.652   1.968  0.3794 -0.4432 -0.7652
  511MOL0     C68906   4.824  10.646   2.092 -0.0714 -1.1027 -1.0742
  511MOL0     C68907   4.958  10.638   2.112 -0.3707  1.2432 -0.5118
  511MOL0     C68908   5.038  10.610   2.005 -0.9408  0.2664 -0.5645
  511MOL0     O68909   5.167  10.582   2.027  0.7261  1.0252  0.0313
  511MOL0     C68910   5.235  10.499   1.929  0.2585 -0.1532  0.7343
  511MOL0     C68911   5.180  10.357   1.913 -0.3439 -0.3355 -0.1381
  511MOL0     C68912   5.270  10.272   1.826 -0.4964  0.9699 -0.6657
  511MOL0     C68913   5.203  10.143   1.772  0.0383 -0.0709 -0.1126
  511MOL0     C68914   5.276  10.093   1.658 -0.2862  0.7692 -0.1352
  511MOL0     C68915   5.353  10.076   1.566  0.7812  0.5620  0.9121
  511MOL0     C68916   4.979  10.594   1.872  0.6005 -0.6387 -0.0573
  511MOL0     C68917   4.841  10.621   1.860  0.1121  0.4432  0.7213
  511MOL0     H68918   4.336  10.503   1.990 -0.9899  0.7461 -0.4025
  511MOL0     H68919   4.092  10.581   1.947  1.8314 -2.0699  0.0962
  511MOL0     H68920   3.967  10.976   2.092  0.2759 -2.3093  0.4815
  511MOL0     H68921   4.047  11.027   1.943 -0.0127 -1.0930 -1.5423
  511MOL0     H68922   3.840  11.098   1.917  1.6968  0.1622 -0.1121
  511MOL0     H68923   3.849  10.957   1.809  2.0918  0.4857 -0.1649
  511MOL0     H68924   3.706  10.819   1.956  0.4435 -1.0515  4.0362
  511MOL0     H68925   3.738  10.918   2.097 -0.4986 -1.2267  0.8826
  511MOL0     H68926   3.596  11.096   2.002  2.7638 -0.4827  1.2153
  511MOL0     H68927   3.600  11.032   1.850 -0.1253  4.3923  1.3867
  511MOL0     H68928   3.501  10.823   2.034 -1.9962 -0.9307  0.3451
  511MOL0     H68929   3.404  10.968   2.058  0.2870 -1.5426  1.1240
  511MOL0     H68930   3.458  10.864   1.779 -1.0860  3.0423 -0.8604
  511MOL0     H68931   3.337  10.802   1.886  2.4931 -1.2636 -0.4897
  511MOL0     H68932   3.219  11.025   1.894  0.4942  1.7454  0.5450
  511MOL0     H68933   3.344  11.101   1.810 -1.0952 -0.5264 -1.9855
  511MOL0     H68934   3.307  10.955   1.614  2.3249  1.3389  3.0680
  511MOL0     H68935   3.177  11.062   1.634 -1.3160  1.9807  2.2091
  511MOL0     H68936   3.051  10.855   1.911 -1.2460  3.3339 -1.0710
  511MOL0     H68937   2.822  10.580   1.778 -1.2609  1.1973 -0.5205
  511MOL0     H68938   2.912  10.619   1.929  2.0967 -1.3146 -2.1214
  511MOL0     H68939   2.699  10.802   1.799 -1.3311  3.6754  2.5568
  511MOL0     H68940   2.769  10.816   1.963  1.4838 -0.2233 -0.7827
  511MOL0     H68941   2.592  10.601   1.854  1.8253  0.2503 -0.7569
  511MOL0     H68942   2.533  10.733   1.955  1.0158  0.0698  1.5323
  511MOL0     H68943   2.730  10.558   2.076 -1.3834  0.5959 -0.3282
  511MOL0     H68944   2.554  10.509   2.086 -0.2545  0.5068  2.2337
  511MOL0     H68945   2.516  10.815   2.378 -2.3615 -0.0904  0.8812
  511MOL0     H68946   2.528  10.807   2.712  1.1237 -1.7183  0.1024
  511MOL0     H68947   2.448  10.869   2.575  0.5760  0.0078  1.6330
  511MOL0     H68948   2.365  10.745   2.683  0.3824 -0.6517  1.0415
  511MOL0     H68949   2.763  10.493   2.923 -0.7309 -0.6778 -2.7322
  511MOL0     H68950   2.801  10.430   3.139 -0.5639  0.1918  0.3009
  511MOL0     H68951   2.489  10.483   3.442 -0.1514 -0.4788  3.6911
  511MOL0     H68952   2.491  10.303   3.409 -1.6278  0.1246  1.0692
  511MOL0     H68953   2.711  10.446   3.560  2.3604 -2.6020 -0.3408
  511MOL0     H68954   2.554  10.399   3.643  3.0307  0.2094  2.4501
  511MOL0     H68955   2.741  10.225   3.488  0.8634 -0.6092  0.9647
  511MOL0     H68956   2.608  10.164   3.585 -0.5946  1.0210 -0.5690
  511MOL0     H68957   2.860  10.326   3.657 -1.2709  0.7386 -1.2596
  511MOL0     H68958   2.740  10.294   3.785  0.9161 -0.2285  0.6623
  511MOL0     H68959   2.945  10.166   3.798 -1.8958  1.2534  1.7321
  511MOL0     H68960   2.924  10.093   3.634  1.2795 -0.0985  0.4947
  511MOL0     H68961   2.709  10.048   3.831 -1.7940  0.5395 -2.4905
  511MOL0     H68962   2.757   9.950   3.695 -0.3296 -0.0265  0.2656
  511MOL0     H68963   2.813   9.837   3.914  0.7042 -1.8476 -1.6205
  511MOL0     H68964   2.940   9.957   3.948  2.4910 -1.9627  0.1237
  511MOL0     H68965   3.081   9.900   3.756  0.7885 -2.2099  1.0396
  511MOL0     H68966   2.977   9.763   3.719  0.2690  0.6995 -1.0794
  511MOL0     H68967   2.405  10.418   3.249  1.2800  1.7167  0.8829
  511MOL0     H68968   2.337  10.503   2.992 -0.2432  0.7811 -0.3228
  511MOL0     H68969   2.613  10.344   2.473 -0.3801  0.0227  0.1301
  511MOL0     H68970   2.634  10.426   2.263  2.6462  3.6764 -2.0501
  511MOL0     H68971   4.219  10.955   2.121  2.0904  1.4769 -3.0607
  511MOL0     H68972   4.430  10.878   2.137  3.3372 -1.4876 -0.6989
  511MOL0     H68973   4.758  10.670   2.175 -0.5359  1.3434 -2.0605
  511MOL0     H68974   5.000  10.657   2.211 -0.8101  0.8082 -0.2364
  511MOL0     H68975   5.232  10.536   1.826 -1.4174 -0.3371  0.6910
  511MOL0     H68976   5.341  10.503   1.956 -0.0229  1.2566  1.7484
  511MOL0     H68977   5.075  10.351   1.882 -1.1426  1.8642  1.8286
  511MOL0     H68978   5.182  10.309   2.011  1.0396  1.1861  0.6299
  511MOL0     H68979   5.357  10.241   1.884 -1.0943 -0.6542 -0.5769
  511MOL0     H68980   5.306  10.335   1.743 -0.6802 -0.4269 -1.8527
  511MOL0     H68981   5.099  10.152   1.742 -0.2451 -3.5369 -0.6088
  511MOL0     H68982   5.202  10.085   1.865 -4.6459  0.0269  0.1000
  511MOL0     H68983   5.430  10.058   1.494  0.9834  0.5287  1.1348
  511MOL0     H68984   5.034  10.559   1.785  0.2475  0.5873 -0.8109
  511MOL0     H68985   4.790  10.618   1.764  0.6261 -1.8312  0.4712
  512MOL0     O68986   4.258   8.006   7.191 -1.0470  0.6368 -0.8314
  512MOL0     C68987   4.335   7.939   7.115 -0.4646 -0.3076  0.2823
  512MOL0     O68988   4.463   7.973   7.082 -0.0481 -0.1175  0.4554
  512MOL0     C68989   4.519   8.088   7.137  0.4180  0.8615  0.9153
  512MOL0     C68990   4.558   8.196   7.063 -0.3982 -0.1453  0.6705
  512MOL0     C68991   4.606   8.315   7.124 -0.8170 -0.4320 -0.1977
  512MOL0     C68992   4.623   8.318   7.255  0.0628  0.7523 -0.0447
  512MOL0     O68993   4.663   8.442   7.298  0.4056 -0.2011  0.4163
  512MOL0     C68994   4.651   8.460   7.442 -0.7826  0.2604 -0.0103
  512MOL0     C68995   4.683   8.606   7.494 -0.1755  0.6185  0.7938
  512MOL0     C68996   4.632   8.622   7.628 -0.1469  0.6374 -0.1571
  512MOL0     C68997   4.634   8.762   7.665 -0.0730 -0.7827  0.6315
  512MOL0     C68998   4.561   8.793   7.797  0.1165 -0.2765  0.8894
  512MOL0     C68999   4.630   8.732   7.923  0.2452  0.0748 -0.2930
  512MOL0     C69000   4.771   8.782   7.948  1.0171 -0.2988  0.6115
  512MOL0     C69001   4.811   8.744   8.087 -0.1626 -0.0020  0.3683
  512MOL0     N69002   4.847   8.598   8.106  0.7044 -0.8521 -0.3028
  512MOL0     C69003   4.904   8.505   8.021 -0.1726 -0.3585 -0.4559
  512MOL0     C69004   4.915   8.395   8.101  1.0270  0.0254 -0.4583
  512MOL0     C69005   4.975   8.272   8.059  0.7672  0.2851 -0.5414
  512MOL0     C69006   4.930   8.220   7.921 -0.8731  0.3403  0.5428
  512MOL0     C69007   5.000   8.091   7.891 -0.5974 -0.5812 -0.2653
  512MOL0     C69008   4.954   7.958   7.965  0.9596 -0.8740  0.1959
  512MOL0     O69009   5.022   7.852   7.919 -1.1770  0.2242  0.4028
  512MOL0     C69010   5.002   7.813   7.785 -0.1093  0.5199  0.4087
  512MOL0     C69011   5.105   7.776   7.701 -0.8313 -0.6631  0.3862
  512MOL0     C69012   5.079   7.725   7.571 -0.0350 -0.1886  0.6237
  512MOL0     C69013   5.209   7.695   7.489  0.1913 -0.2024 -0.0545
  512MOL0     C69014   4.943   7.721   7.524 -0.3857  0.5218  0.5700
  512MOL0     C69015   4.902   7.657   7.392  0.2938 -0.8276  0.1480
  512MOL0     O69016   4.772   7.687   7.350  0.9494  0.5829  0.1900
  512MOL0     C69017   4.732   7.642   7.226 -0.8334 -0.0891 -0.9782
  512MOL0     C69018   4.675   7.520   7.212 -0.1625  0.5030  0.9127
  512MOL0     C69019   4.648   7.478   7.084 -0.6543 -0.0851  1.1022
  512MOL0     C69020   4.680   7.553   6.972 -0.3117 -0.7951  0.6738
  512MOL0     O69021   4.665   7.517   6.837  0.0587  0.2433 -0.5750
  512MOL0     C69022   4.595   7.394   6.813 -0.8858 -0.5146  0.7023
  512MOL0     C69023   4.569   7.402   6.670  0.2093  0.7139  0.9196
  512MOL0     C69024   4.509   7.271   6.620 -0.6638 -0.1801 -0.2618
  512MOL0     C69025   4.435   7.303   6.484 -0.3459 -0.0696 -0.2797
  512MOL0     C69026   4.347   7.184   6.439  0.8328 -0.0899  0.4223
  512MOL0     C69027   4.426   7.056   6.416 -0.0138 -0.2762 -0.0943
  512MOL0     C69028   4.329   6.943   6.396 -0.2932 -0.5756  1.0660
  512MOL0     C69029   4.405   6.812   6.393  0.0102  0.8088  1.0441
  512MOL0    Cl69030   4.465   6.772   6.219 -0.0610  0.2353 -0.2740
  512MOL0     C69031   4.735   7.677   6.993  0.3657  0.0993 -0.4168
  512MOL0     C69032   4.761   7.730   7.121  0.2848 -0.1795  0.0223
  512MOL0     O69033   4.978   7.583   7.329 -0.6271 -0.4601 -0.3502
  512MOL0     C69034   4.839   7.758   7.608 -1.5181 -0.6524  1.4519
  512MOL0     C69035   4.871   7.803   7.734  0.1210 -0.3957 -0.2641
  512MOL0     N69036   4.851   8.415   8.221  0.4303 -0.3838  0.4092
  512MOL0     N69037   4.822   8.537   8.227 -0.0289 -0.6695 -0.0022
  512MOL0     C69038   4.594   8.208   7.335  0.1690  0.1599  0.0277
  512MOL0     C69039   4.538   8.092   7.276 -0.1133  0.1388 -0.7028
  512MOL0     C69040   4.286   7.820   7.039  0.4784  0.7001 -0.8370
  512MOL0     C69041   4.152   7.776   7.055 -0.1787  0.1580  1.1583
  512MOL0     C69042   4.097   7.670   6.987  0.1621  0.7355  0.2913
  512MOL0     C69043   4.181   7.602   6.895  0.6415 -0.7114 -0.0705
  512MOL0     O69044   4.116   7.513   6.827 -0.6673  0.5483 -0.1787
  512MOL0     C69045   4.165   7.458   6.697 -0.0206  0.1420  0.2779
  512MOL0     C69046   4.036   7.396   6.633 -0.9846 -0.6257 -0.0990
  512MOL0     C69047   3.971   7.276   6.707 -0.0120  0.0084  0.0724
  512MOL0     C69048   3.875   7.320   6.821  0.8760  0.3195 -0.1104
  512MOL0     C69049   3.815   7.201   6.887  0.1281 -0.4791  0.0909
  512MOL0     C69050   3.777   7.096   6.934  0.2622  0.0794 -1.5421
  512MOL0     C69051   4.316   7.637   6.879  0.0045  0.1352  0.3170
  512MOL0     C69052   4.365   7.745   6.958 -0.3375  0.7619  0.1683
  512MOL0     H69053   4.553   8.189   6.955 -1.5025  0.6470  0.6482
  512MOL0     H69054   4.640   8.389   7.052  0.3930 -0.7728  0.0063
  512MOL0     H69055   4.551   8.434   7.477 -1.1284  2.7068  1.0025
  512MOL0     H69056   4.729   8.398   7.487  0.2020  1.0937 -0.5114
  512MOL0     H69057   4.791   8.620   7.508 -0.2997  0.3212  2.1596
  512MOL0     H69058   4.648   8.679   7.420  3.1174  2.2235  0.6306
  512MOL0     H69059   4.527   8.592   7.633 -0.6341  1.4566 -3.5467
  512MOL0     H69060   4.681   8.549   7.693 -1.9032  0.5772  1.1841
  512MOL0     H69061   4.739   8.791   7.677  0.3850 -1.8257 -0.5073
  512MOL0     H69062   4.581   8.811   7.583 -0.6140  1.6800  2.3487
  512MOL0     H69063   4.544   8.901   7.805 -0.2765 -0.1895 -0.7218
  512MOL0     H69064   4.461   8.749   7.798 -0.0866  0.1843  1.7646
  512MOL0     H69065   4.573   8.768   8.009  1.4150  1.1493  0.0716
  512MOL0     H69066   4.637   8.623   7.922 -0.3804  0.0208  0.4610
  512MOL0     H69067   4.833   8.742   7.868 -0.4346 -0.6382 -0.3786
  512MOL0     H69068   4.777   8.891   7.945  4.0280 -0.3611  1.1512
  512MOL0     H69069   4.734   8.781   8.155  0.9776  2.4510  0.4423
  512MOL0     H69070   4.900   8.802   8.112  0.4208 -0.1772 -1.1894
  512MOL0     H69071   4.936   8.522   7.919 -1.4092  0.8377 -0.6660
  512MOL0     H69072   5.083   8.293   8.057  1.0400 -0.9944 -0.2762
  512MOL0     H69073   4.966   8.202   8.141  0.5640  1.0561  0.1060
  512MOL0     H69074   4.966   8.286   7.841  0.4852  0.5268  1.2671
  512MOL0     H69075   4.823   8.205   7.907 -0.9768  1.7252 -0.3254
  512MOL0     H69076   5.105   8.117   7.908 -0.5602 -0.5082 -0.5887
  512MOL0     H69077   4.978   8.080   7.784 -1.4717  2.7750 -0.5621
  512MOL0     H69078   4.846   7.945   7.963  0.4951  2.2067  0.4259
  512MOL0     H69079   4.975   7.962   8.073  0.0573  0.4496  0.3491
  512MOL0     H69080   5.210   7.786   7.728 -0.8123  0.0247  0.0660
  512MOL0     H69081   5.214   7.743   7.391  1.1897 -1.8021 -0.8431
  512MOL0     H69082   5.296   7.733   7.543 -0.7083 -1.7451  2.6769
  512MOL0     H69083   5.222   7.588   7.469 -0.2666 -0.2589 -0.0606
  512MOL0     H69084   4.676   7.450   7.295 -0.1904  1.4553  1.7347
  512MOL0     H69085   4.618   7.374   7.072 -2.8138  0.7029 -1.3991
  512MOL0     H69086   4.655   7.306   6.837  2.7477  0.3160 -3.8424
  512MOL0     H69087   4.500   7.390   6.867 -1.5821  1.4418 -0.2947
  512MOL0     H69088   4.504   7.486   6.647  0.3423  0.4397 -0.5997
  512MOL0     H69089   4.663   7.424   6.619 -2.5130  3.8515 -3.4811
  512MOL0     H69090   4.434   7.225   6.686  0.0067 -2.9468 -1.2654
  512MOL0     H69091   4.592   7.200   6.619  1.1117  1.8324 -0.8133
  512MOL0     H69092   4.383   7.398   6.501  1.3326  0.5827  1.7917
  512MOL0     H69093   4.514   7.297   6.409 -2.1932 -1.7010 -2.2165
  512MOL0     H69094   4.296   7.210   6.346  1.6245 -1.8046 -0.5416
  512MOL0     H69095   4.264   7.169   6.508  1.0567  1.0276  0.9581
  512MOL0     H69096   4.478   7.078   6.323 -1.8976  1.6754 -0.7534
  512MOL0     H69097   4.489   7.034   6.503 -0.5339 -1.0364  0.0999
  512MOL0     H69098   4.280   6.960   6.299  2.6458  0.8178 -0.3247
  512MOL0     H69099   4.255   6.944   6.476  0.1121  2.3554  1.5128
  512MOL0     H69100   4.346   6.733   6.439  1.1728 -0.7954 -0.1150
  512MOL0     H69101   4.501   6.820   6.444 -0.4938  1.0511  1.9694
  512MOL0     H69102   4.765   7.732   6.905  3.8898 -2.9677 -1.4122
  512MOL0     H69103   4.808   7.828   7.126 -0.9273  0.3637  2.6717
  512MOL0     H69104   4.733   7.752   7.583 -1.1112  0.3970 -0.7358
  512MOL0     H69105   4.794   7.822   7.808  1.0490 -0.2955  0.6928
  512MOL0     H69106   4.613   8.209   7.442 -2.3464 -0.3985  0.5466
  512MOL0     H69107   4.491   8.011   7.331 -1.8209  0.6894 -1.2735
  512MOL0     H69108   4.096   7.839   7.123  2.7831  1.3764  2.6356
  512MOL0     H69109   3.992   7.639   6.985  0.1166  0.9114 -1.2009
  512MOL0     H69110   4.206   7.533   6.629 -1.5686  1.5119  0.7710
  512MOL0     H69111   4.237   7.377   6.713 -0.9285 -0.5954  0.7286
  512MOL0     H69112   4.052   7.368   6.529 -1.7124 -0.4152 -0.2768
  512MOL0     H69113   3.956   7.471   6.625 -1.5528 -1.2907 -0.7851
  512MOL0     H69114   4.048   7.226   6.766  0.6211  0.5289 -0.2993
  512MOL0     H69115   3.921   7.214   6.631  1.8108 -0.0552 -1.1213
  512MOL0     H69116   3.805   7.401   6.797  0.0881  0.4259  2.3226
  512MOL0     H69117   3.940   7.362   6.898 -0.1134  3.6480 -0.9300
  512MOL0     H69118   3.734   7.007   6.977  2.1439 -0.5291 -0.8352
  512MOL0     H69119   4.390   7.587   6.817 -1.3400 -1.1633 -0.3247
  512MOL0     H69120   4.471   7.767   6.948 -0.3669  0.5136 -0.8442
  513MOL0     O69121   4.442   7.147   9.945 -0.2492  0.7493  0.0538
  513MOL0     C69122   4.363   7.055   9.911  0.3052 -0.4530  0.3971
  513MOL0     O69123   4.351   6.939   9.979  0.8084  0.7501  0.0840
  513MOL0     C69124   4.424   6.919  10.085 -0.0453 -1.4645  0.2946
  513MOL0     C69125   4.369   6.940  10.214 -0.1815 -0.7130  0.2797
  513MOL0     C69126   4.464   6.937  10.320 -0.0385 -0.8627 -1.1856
  513MOL0     C69127   4.595   6.889  10.306  0.7141  1.1003 -0.4252
  513MOL0     O69128   4.679   6.849  10.410 -0.0452  0.0855  0.4856
  513MOL0     C69129   4.624   6.864  10.546  0.2876 -0.2050 -0.5024
  513MOL0     C69130   4.722   6.800  10.646 -0.5385 -0.6370 -0.5472
  513MOL0     C69131   4.707   6.648  10.635  0.0066  0.1748 -0.3237
  513MOL0     C69132   4.818   6.582  10.711 -0.3492 -0.0335 -0.7645
  513MOL0     C69133   4.792   6.429  10.720 -0.3249 -0.0765 -0.1826
  513MOL0     C69134   4.884   6.361  10.820  0.0165  0.0252 -0.8237
  513MOL0     C69135   4.835   6.219  10.850 -0.2274 -0.0752  0.3308
  513MOL0     C69136   4.906   6.155  10.960  0.5739  0.4002 -0.2939
  513MOL0     N69137   5.054   6.166  10.949  1.1334 -0.5213  0.3172
  513MOL0     C69138   5.127   6.108  10.853  0.6351  0.6846  0.3697
  513MOL0     C69139   5.256   6.134  10.893 -0.1067  0.8900  0.9073
  513MOL0     C69140   5.382   6.070  10.850 -0.9907  0.3062 -0.1115
  513MOL0     C69141   5.425   6.086  10.704 -0.6223 -0.0837  0.9332
  513MOL0     C69142   5.475   6.229  10.672  0.0089  0.5532  0.0775
  513MOL0     C69143   5.536   6.231  10.525  0.6706 -0.3187  0.4797
  513MOL0     O69144   5.445   6.162  10.429  0.5949 -0.3625  0.0551
  513MOL0     C69145   5.359   6.249  10.360 -0.4740  0.5529 -0.3951
  513MOL0     C69146   5.217   6.243  10.393 -0.4790  1.0140 -0.1145
  513MOL0     C69147   5.112   6.307  10.318 -0.0692 -0.6483  0.8005
  513MOL0     C69148   4.967   6.295  10.359 -0.5359  0.2779 -0.0383
  513MOL0     C69149   5.146   6.378  10.197 -0.5386 -0.1180  0.5017
  513MOL0     C69150   5.062   6.447  10.106  0.6679 -0.7105 -0.1441
  513MOL0     O69151   4.922   6.433  10.114  0.1188 -0.3902  0.3906
  513MOL0     C69152   4.837   6.472  10.016 -0.0482 -0.1987  0.0393
  513MOL0     C69153   4.861   6.460   9.871 -0.0403  0.2786 -0.6399
  513MOL0     C69154   4.763   6.466   9.775 -0.2733 -0.2702 -0.7975
  513MOL0     C69155   4.639   6.518   9.814  0.1558  0.3309 -0.6257
  513MOL0     O69156   4.546   6.557   9.726  0.1580  0.2270  0.0026
  513MOL0     C69157   4.513   6.695   9.719 -0.2192 -0.7167  0.2738
  513MOL0     C69158   4.446   6.723   9.585  0.1584  0.2326 -0.0980
  513MOL0     C69159   4.509   6.653   9.459  0.2844  0.4098 -0.0635
  513MOL0     C69160   4.437   6.695   9.326  0.0602 -0.6688  0.5497
  513MOL0     C69161   4.464   6.603   9.205  0.2073  0.5665 -0.0582
  513MOL0     C69162   4.397   6.635   9.074  0.2622 -0.7356 -0.0841
  513MOL0     C69163   4.348   6.779   9.053  0.5642 -0.6226 -0.6385
  513MOL0     C69164   4.323   6.804   8.903 -0.1918  0.5214 -0.0941
  513MOL0    Cl69165   4.224   6.953   8.858  0.0865 -0.7126 -0.0422
  513MOL0     C69166   4.615   6.544   9.952 -0.5838  0.2867 -0.8566
  513MOL0     C69167   4.712   6.519  10.052  0.8664  0.5558 -0.4069
  513MOL0     O69168   5.124   6.536  10.038 -0.0416  0.2280 -0.3878
  513MOL0     C69169   5.291   6.390  10.170  0.5106 -0.5074  0.0163
  513MOL0     C69170   5.391   6.327  10.249 -0.0051  0.0751  1.3285
  513MOL0     N69171   5.245   6.200  11.013 -0.4907 -0.2513  1.2015
  513MOL0     N69172   5.125   6.222  11.047  0.4605  0.4920  0.1719
  513MOL0     C69173   4.641   6.859  10.183  0.2552  0.2049  0.1537
  513MOL0     C69174   4.563   6.878  10.067 -0.0783  0.0798  0.6841
  513MOL0     C69175   4.282   7.072   9.788 -0.2566 -0.3231  0.5113
  513MOL0     C69176   4.210   6.963   9.732  0.0327 -0.5210 -0.2015
  513MOL0     C69177   4.145   6.982   9.613  0.0192 -1.2505 -0.1278
  513MOL0     C69178   4.157   7.105   9.543  0.4220 -0.1928 -0.1468
  513MOL0     O69179   4.087   7.124   9.422  0.3095 -0.0455 -0.6593
  513MOL0     C69180   4.142   7.046   9.318  0.6433  0.3258  1.1338
  513MOL0     C69181   4.087   7.085   9.176  0.0338 -0.0730 -0.2636
  513MOL0     C69182   4.060   7.242   9.150 -0.4109  0.5167 -0.3612
  513MOL0     C69183   4.186   7.292   9.114 -0.0644 -0.0117 -0.6053
  513MOL0     C69184   4.261   7.354   9.224  1.2786  0.5290  0.6125
  513MOL0     C69185   4.334   7.415   9.295  0.3958 -0.0080 -0.7035
  513MOL0     C69186   4.240   7.207   9.602  0.6571 -0.0490  0.0171
  513MOL0     C69187   4.302   7.196   9.725  0.6230  0.5053 -0.3094
  513MOL0     H69188   4.272   6.984  10.236  0.2323  0.3323  0.1008
  513MOL0     H69189   4.425   6.980  10.412  1.1643 -1.0370 -0.5692
  513MOL0     H69190   4.613   6.967  10.579 -0.1663 -0.1517 -0.8063
  513MOL0     H69191   4.532   6.805  10.557  0.1896  0.1359  0.5966
  513MOL0     H69192   4.824   6.838  10.633 -0.3239 -0.3654  1.5505
  513MOL0     H69193   4.695   6.830  10.748 -0.2193 -2.3493  0.0783
  513MOL0     H69194   4.605   6.635  10.673  0.6019 -0.9828  0.9826
  513MOL0     H69195   4.702   6.609  10.533 -1.5865  0.2404 -0.3087
  513MOL0     H69196   4.908   6.603  10.654  0.0463  1.5160  0.3678
  513MOL0     H69197   4.834   6.620  10.812 -1.0771 -2.0169  0.1440
  513MOL0     H69198   4.693   6.402  10.758  0.6166 -0.0470  2.4676
  513MOL0     H69199   4.806   6.378  10.624 -0.2043 -2.3456  0.9584
  513MOL0     H69200   4.988   6.364  10.786  0.4349 -2.5921  0.0480
  513MOL0     H69201   4.875   6.415  10.915 -0.3739  1.1027 -1.4453
  513MOL0     H69202   4.726   6.220  10.861 -0.2491 -0.6781  0.1976
  513MOL0     H69203   4.874   6.172  10.759 -0.0326 -0.3911  0.5717
  513MOL0     H69204   4.880   6.049  10.967  1.6181  0.1218 -0.4372
  513MOL0     H69205   4.871   6.202  11.053 -1.5919 -3.0010  0.7705
  513MOL0     H69206   5.093   6.047  10.770 -0.4721 -2.1991  2.7535
  513MOL0     H69207   5.469   6.087  10.914 -1.7339  2.5301  0.3898
  513MOL0     H69208   5.353   5.964  10.851  0.3597 -0.0891 -0.3535
  513MOL0     H69209   5.344   6.060  10.635 -1.9674  3.0319  1.1515
  513MOL0     H69210   5.513   6.023  10.688  1.4963  2.7626  0.5296
  513MOL0     H69211   5.540   6.264  10.753 -0.3263  0.2081  0.4957
  513MOL0     H69212   5.390   6.297  10.662  1.9079  2.7702 -3.4425
  513MOL0     H69213   5.626   6.169  10.528  0.5608 -0.6862 -2.0380
  513MOL0     H69214   5.564   6.328  10.483  0.8215 -0.5114  0.1307
  513MOL0     H69215   5.185   6.182  10.477  2.4253  1.2967  1.3479
  513MOL0     H69216   4.903   6.242  10.288 -2.0693  0.4073  1.2086
  513MOL0     H69217   4.962   6.249  10.457  2.0968 -1.5426 -0.6623
  513MOL0     H69218   4.922   6.395  10.366  0.3949  0.7949 -1.0355
  513MOL0     H69219   4.953   6.412   9.839 -1.0744 -1.6101 -0.9081
  513MOL0     H69220   4.796   6.464   9.672  1.6248  1.2965 -0.2857
  513MOL0     H69221   4.448   6.721   9.802 -0.0720 -3.1827  1.2275
  513MOL0     H69222   4.607   6.750   9.729 -1.3409  0.9552  2.3654
  513MOL0     H69223   4.342   6.702   9.610  0.4254 -0.2469  0.6409
  513MOL0     H69224   4.440   6.832   9.573  0.7753  0.3093  0.2715
  513MOL0     H69225   4.492   6.545   9.467 -0.9449  0.7366  2.8585
  513MOL0     H69226   4.617   6.669   9.464  0.7021 -1.9360 -0.1982
  513MOL0     H69227   4.329   6.689   9.344  0.2491  0.4207  2.3413
  513MOL0     H69228   4.479   6.795   9.308  4.3514 -1.9035  2.4709
  513MOL0     H69229   4.451   6.499   9.238  1.2725  0.2146 -0.7064
  513MOL0     H69230   4.568   6.604   9.173 -0.3398 -2.5574 -2.4231
  513MOL0     H69231   4.472   6.612   8.998  3.3114 -0.6246  2.6785
  513MOL0     H69232   4.308   6.571   9.070 -0.4077  0.0827  1.1405
  513MOL0     H69233   4.409   6.848   9.114 -1.9900 -1.8535  3.7681
  513MOL0     H69234   4.250   6.789   9.100  1.1452  0.2217  0.4615
  513MOL0     H69235   4.258   6.722   8.869  1.4266 -0.4701 -0.9050
  513MOL0     H69236   4.415   6.795   8.844 -1.0471  0.5443 -1.4773
  513MOL0     H69237   4.515   6.574   9.981 -0.8365  0.1359 -1.5647
  513MOL0     H69238   4.682   6.522  10.156 -0.4553 -1.5552 -0.6746
  513MOL0     H69239   5.324   6.443  10.082  1.8576 -2.7302 -0.9222
  513MOL0     H69240   5.491   6.333  10.206 -0.5510  0.9445  0.1264
  513MOL0     H69241   4.742   6.821  10.173 -0.2852 -0.8330 -1.8725
  513MOL0     H69242   4.605   6.860   9.968 -0.6880 -1.3922  0.6657
  513MOL0     H69243   4.206   6.864   9.778  0.8744 -0.2500  0.4777
  513MOL0     H69244   4.087   6.902   9.569 -1.0043  1.0248 -3.3248
  513MOL0     H69245   4.251   7.061   9.314  0.9164 -1.5967  0.2411
  513MOL0     H69246   4.123   6.938   9.318 -2.0050  0.6676 -1.2881
  513MOL0     H69247   3.990   7.039   9.158  0.4996 -1.6580  0.9481
  513MOL0     H69248   4.158   7.040   9.106  2.2041  0.1471  1.6703
  513MOL0     H69249   4.024   7.286   9.243  1.7240 -0.8802  1.1987
  513MOL0     H69250   3.990   7.248   9.066 -1.0326 -3.3205 -0.2891
  513MOL0     H69251   4.166   7.367   9.036 -0.2879 -1.5313 -2.0550
  513MOL0     H69252   4.253   7.216   9.073 -0.2301 -0.9816  0.8487
  513MOL0     H69253   4.404   7.472   9.352  0.8074 -0.4290 -0.7821
  513MOL0     H69254   4.253   7.304   9.555  2.1578 -1.3814 -2.5713
  513MOL0     H69255   4.371   7.276   9.749  1.5884 -0.5305  0.4601
  514MOL0     O69256   1.599   0.479   8.688  0.9212  0.8438  0.6200
  514MOL0     C69257   1.575   0.359   8.655  0.0522  0.4530 -0.4275
  514MOL0     O69258   1.462   0.315   8.590  0.7228 -0.1798 -0.5249
  514MOL0     C69259   1.369   0.411   8.554 -0.7322 -0.7649 -0.4333
  514MOL0     C69260   1.380   0.495   8.450 -0.7911  0.0893 -0.8113
  514MOL0     C69261   1.276   0.585   8.420 -0.0439  0.6294 -0.8209
  514MOL0     C69262   1.155   0.582   8.489 -1.0274  0.7484 -0.6092
  514MOL0     O69263   1.055   0.665   8.458  0.2039  0.0181  0.6753
  514MOL0     C69264   0.924   0.660   8.518  0.1339  0.8501  0.0347
  514MOL0     C69265   0.851   0.791   8.483 -0.2735  0.3825 -1.2749
  514MOL0     C69266   0.789   0.796   8.343  0.4607 -0.0813  0.3846
  514MOL0     C69267   0.764   0.943   8.302  0.0168 -0.1933  0.9005
  514MOL0     C69268   0.715   0.950   8.163  0.1025  0.7473  0.4877
  514MOL0     C69269   0.660   1.084   8.109 -0.5726  0.6355  0.0939
  514MOL0     C69270   0.768   1.190   8.136  0.6015 -1.0386 -0.7979
  514MOL0     C69271   0.731   1.323   8.071  0.1563  0.2049  0.0085
  514MOL0     N69272   0.846   1.411   8.071 -0.1883  0.3220 -0.7834
  514MOL0     C69273   0.881   1.499   8.170  0.1778 -0.1014  0.8011
  514MOL0     C69274   0.984   1.569   8.132  0.3056  0.3800 -0.0974
  514MOL0     C69275   1.060   1.665   8.218  0.3223  0.2360 -0.5541
  514MOL0     C69276   1.012   1.805   8.226  0.5162 -0.0633 -0.2005
  514MOL0     C69277   1.064   1.884   8.350 -0.1044  1.0103 -0.7167
  514MOL0     C69278   1.208   1.945   8.323  0.5136  0.0461 -0.3688
  514MOL0     O69279   1.197   2.035   8.209 -0.2392  0.8604 -0.1115
  514MOL0     C69280   1.308   2.106   8.174  0.0969 -0.5028  0.2927
  514MOL0     C69281   1.431   2.102   8.245 -0.3053 -0.1866 -0.2321
  514MOL0     C69282   1.549   2.165   8.197  0.8242 -0.2265  1.0002
  514MOL0     C69283   1.668   2.145   8.284 -0.1236 -0.1033 -0.1878
  514MOL0     C69284   1.535   2.237   8.065 -0.1294  0.5117  0.2038
  514MOL0     C69285   1.650   2.300   7.995 -0.0538  0.5274  0.0348
  514MOL0     O69286   1.621   2.391   7.897  0.5911 -0.6325  0.0912
  514MOL0     C69287   1.708   2.473   7.829 -0.5066  0.9627  0.3932
  514MOL0     C69288   1.850   2.457   7.826 -0.4188  0.3372 -0.2458
  514MOL0     C69289   1.931   2.531   7.741  0.0247  0.0826 -0.1678
  514MOL0     C69290   1.875   2.636   7.668  0.7424  0.1811 -0.7404
  514MOL0     O69291   1.951   2.732   7.601 -0.1898  0.5423 -0.0371
  514MOL0     C69292   2.072   2.776   7.652 -0.5905 -0.1688 -0.4301
  514MOL0     C69293   2.099   2.924   7.614  0.7597 -0.0408  0.0237
  514MOL0     C69294   2.237   2.982   7.636 -0.2804 -0.2527  0.2962
  514MOL0     C69295   2.250   3.111   7.700 -0.6008  0.2059  0.2233
  514MOL0     C69296   2.393   3.171   7.691 -0.9495 -0.0552 -0.6242
  514MOL0     C69297   2.390   3.317   7.705  0.3214 -0.4041  0.4777
  514MOL0     C69298   2.388   3.372   7.850  0.0898  0.5972 -0.5455
  514MOL0     C69299   2.504   3.334   7.932  1.1370 -1.2528 -0.2604
  514MOL0    Cl69300   2.480   3.392   8.103  0.0892  0.3888 -0.0792
  514MOL0     C69301   1.729   2.650   7.665  0.2408 -0.0934 -0.1708
  514MOL0     C69302   1.654   2.573   7.749  0.1748 -0.6825 -0.0071
  514MOL0     O69303   1.763   2.273   8.028 -0.4814  0.2627 -0.8274
  514MOL0     C69304   1.411   2.231   7.997 -0.4922  0.2347  0.3632
  514MOL0     C69305   1.300   2.157   8.045 -0.2526 -0.8791 -0.2278
  514MOL0     N69306   1.025   1.523   8.011  0.2856 -1.1611 -0.3124
  514MOL0     N69307   0.941   1.431   7.975 -0.0579  0.6244  0.5821
  514MOL0     C69308   1.151   0.497   8.598 -1.3353 -0.0694 -0.0309
  514MOL0     C69309   1.263   0.424   8.637  0.0900  0.7977  0.7168
  514MOL0     C69310   1.675   0.254   8.678 -0.2554  0.3615 -0.0328
  514MOL0     C69311   1.673   0.128   8.626  0.2940  0.4413  0.1331
  514MOL0     C69312   1.781   0.036   8.652 -0.1666  0.2905  0.1912
  514MOL0     C69313   1.887   0.072   8.724  0.0850 -0.3667 -0.4724
  514MOL0     O69314   1.986  -0.015   8.754  0.9730  0.0357 -0.2702
  514MOL0     C69315   1.940  -0.101   8.870  0.6154 -0.0391  0.6074
  514MOL0     C69316   2.045  -0.201   8.904 -0.1090 -0.6838 -0.2755
  514MOL0     C69317   2.168  -0.131   8.961 -0.6516 -0.4319 -0.0574
  514MOL0     C69318   2.241  -0.217   9.067 -0.2955  0.8301 -0.1460
  514MOL0     C69319   2.286  -0.345   9.009  0.3004 -0.1325 -0.8670
  514MOL0     C69320   2.316  -0.448   8.967 -0.8792  0.1310  0.3843
  514MOL0     C69321   1.895   0.201   8.773  0.3933  0.4405 -0.5832
  514MOL0     C69322   1.791   0.293   8.749 -0.4440 -0.9295  0.6222
  514MOL0     H69323   1.474   0.494   8.395 -0.2222 -1.8784  0.1001
  514MOL0     H69324   1.275   0.653   8.336 -0.4630  1.7248  0.0345
  514MOL0     H69325   0.861   0.573   8.500  0.4421  0.2681  1.6500
  514MOL0     H69326   0.935   0.657   8.627 -0.4931 -0.3681  0.0757
  514MOL0     H69327   0.766   0.800   8.552  0.5331  0.7993 -0.3186
  514MOL0     H69328   0.923   0.872   8.494  1.6360 -1.3770 -0.0677
  514MOL0     H69329   0.855   0.756   8.265  1.0452 -3.1316  2.2628
  514MOL0     H69330   0.690   0.748   8.348  1.2173 -1.6800  0.8504
  514MOL0     H69331   0.696   0.995   8.370 -3.9061 -3.1981 -0.3987
  514MOL0     H69332   0.862   0.993   8.305  0.4002 -0.9393  1.1075
  514MOL0     H69333   0.778   0.886   8.101 -0.2088  0.5284  0.3928
  514MOL0     H69334   0.630   0.882   8.152  0.4522  0.5812 -1.6928
  514MOL0     H69335   0.633   1.076   8.003 -1.0357  0.5964  0.2110
  514MOL0     H69336   0.565   1.103   8.160 -0.1183  0.4826  1.0255
  514MOL0     H69337   0.794   1.197   8.242  1.9039 -1.1541 -1.0940
  514MOL0     H69338   0.864   1.152   8.100 -0.4210 -6.4271  1.2316
  514MOL0     H69339   0.649   1.374   8.122  0.3162 -1.6811  2.3581
  514MOL0     H69340   0.688   1.305   7.972 -1.0569  0.8762  0.3971
  514MOL0     H69341   0.838   1.511   8.269 -0.0182 -0.9135  0.8226
  514MOL0     H69342   1.060   1.625   8.320 -0.5072  1.7792  0.0978
  514MOL0     H69343   1.166   1.671   8.192  0.3927 -0.5920 -0.4635
  514MOL0     H69344   0.903   1.800   8.241  0.5780  0.0601  0.2797
  514MOL0     H69345   1.043   1.860   8.137  5.4337  0.1961  1.3781
  514MOL0     H69346   1.072   1.811   8.431 -1.0269  1.9415  0.2571
  514MOL0     H69347   0.985   1.952   8.385 -0.1136  1.3000 -1.2894
  514MOL0     H69348   1.291   1.874   8.319  0.1560 -0.9090  4.0237
  514MOL0     H69349   1.224   2.014   8.407  0.8959 -0.9127  0.3558
  514MOL0     H69350   1.419   2.045   8.336 -0.2069  0.8088  0.4171
  514MOL0     H69351   1.655   2.173   8.389  1.8786  1.6133 -0.3233
  514MOL0     H69352   1.710   2.044   8.271  0.4336  0.1475 -0.3712
  514MOL0     H69353   1.748   2.215   8.258 -0.8949 -0.0595 -2.6519
  514MOL0     H69354   1.893   2.375   7.883 -1.1647 -0.9192 -1.4297
  514MOL0     H69355   2.037   2.512   7.739  1.1563  5.0886 -0.0955
  514MOL0     H69356   2.081   2.772   7.761 -0.0416 -2.4268 -0.4993
  514MOL0     H69357   2.151   2.716   7.605  1.2929 -0.8954  3.2680
  514MOL0     H69358   2.062   2.931   7.511  2.5117  1.7024 -0.5532
  514MOL0     H69359   2.033   2.992   7.668  2.6292  2.7319 -0.9372
  514MOL0     H69360   2.275   3.009   7.538  1.9402 -1.6921  0.6851
  514MOL0     H69361   2.312   2.918   7.684  0.7377  1.6305  1.3341
  514MOL0     H69362   2.175   3.178   7.657 -3.5452 -1.9405  1.6401
  514MOL0     H69363   2.216   3.102   7.804 -0.8795  3.7450  0.5501
  514MOL0     H69364   2.443   3.154   7.595 -0.1538  1.0362 -0.4165
  514MOL0     H69365   2.461   3.134   7.768 -3.2965 -0.2901  1.4839
  514MOL0     H69366   2.467   3.364   7.644 -0.2131  1.5676  1.2101
  514MOL0     H69367   2.304   3.366   7.658  3.0447  0.7460 -3.8050
  514MOL0     H69368   2.299   3.325   7.893 -0.6740 -0.3357 -2.9870
  514MOL0     H69369   2.382   3.481   7.851  5.3097  1.2023 -2.6951
  514MOL0     H69370   2.595   3.375   7.886  0.5632 -2.0219 -2.1807
  514MOL0     H69371   2.505   3.226   7.945 -0.1900 -1.1419  1.1002
  514MOL0     H69372   1.687   2.700   7.578 -1.2154 -1.9919 -0.6175
  514MOL0     H69373   1.547   2.587   7.749  0.0911 -1.1140  1.3174
  514MOL0     H69374   1.406   2.270   7.896 -2.9585 -0.6197  0.1039
  514MOL0     H69375   1.223   2.137   7.972 -0.5890 -0.3148 -0.0360
  514MOL0     H69376   1.059   0.489   8.655 -1.1412 -0.1167  0.2778
  514MOL0     H69377   1.257   0.376   8.735  0.5523  3.2916  2.0360
  514MOL0     H69378   1.585   0.097   8.572  0.6768  0.5917 -0.5853
  514MOL0     H69379   1.770  -0.061   8.606 -2.2239  0.9497 -0.8283
  514MOL0     H69380   1.900  -0.045   8.955 -0.0355 -0.1155  0.3610
  514MOL0     H69381   1.855  -0.159   8.833  0.9411 -0.3946  0.4067
  514MOL0     H69382   2.080  -0.245   8.810  3.2761  0.3459  0.3671
  514MOL0     H69383   2.000  -0.275   8.972 -2.0959  0.3418 -0.4280
  514MOL0     H69384   2.130  -0.043   9.012  1.2996  0.0135  0.7058
  514MOL0     H69385   2.227  -0.109   8.871  0.4181 -0.6984  0.5671
  514MOL0     H69386   2.174  -0.234   9.152 -0.7319 -0.4532 -0.7104
  514MOL0     H69387   2.331  -0.169   9.106 -0.6823 -0.9688  3.3564
  514MOL0     H69388   2.342  -0.548   8.938  0.9238 -0.4191  3.4612
  514MOL0     H69389   1.983   0.234   8.827 -0.7328  1.1800  0.8804
  514MOL0     H69390   1.802   0.387   8.803 -1.6066 -1.4315  1.7729
  515MOL0     O69391  11.277  11.430   0.287  0.0138  0.4608  0.2942
  515MOL0     C69392  11.280  11.524   0.369  0.5237  0.6836 -0.2372
  515MOL0     O69393  11.232  11.651   0.336 -0.3944  0.1860 -0.0514
  515MOL0     C69394  11.163  11.665   0.216  0.0784  0.3588  0.7432
  515MOL0     C69395  11.232  11.656   0.094  0.3392 -0.7742 -0.3032
  515MOL0     C69396  11.165  11.673  -0.030  1.6452 -0.2807 -0.6713
  515MOL0     C69397  11.022  11.675  -0.024 -0.4229  0.4489  0.3693
  515MOL0     O69398  10.938  11.685  -0.143  0.1400  0.1688  0.0339
  515MOL0     C69399  10.992  11.690  -0.278  0.1587  0.6954 -0.0814
  515MOL0     C69400  11.015  11.549  -0.324 -0.2611  0.2358 -0.9245
  515MOL0     C69401  11.082  11.534  -0.463 -0.4301  0.2557 -0.0811
  515MOL0     C69402  11.222  11.599  -0.468 -0.8214 -0.8384 -0.7478
  515MOL0     C69403  11.279  11.592  -0.612 -0.0630  0.1056  0.5963
  515MOL0     C69404  11.218  11.686  -0.704  0.7768 -0.3147  0.5507
  515MOL0     C69405  11.217  11.651  -0.857 -0.4349  0.7267  0.2170
  515MOL0     C69406  11.355  11.674  -0.930  1.0701  0.1574 -0.2799
  515MOL0     N69407  11.365  11.817  -0.966  0.1343  0.4327 -0.5750
  515MOL0     C69408  11.355  11.850  -1.095  0.2959 -0.6122 -0.2766
  515MOL0     C69409  11.400  11.980  -1.105 -0.4505 -0.5586  0.0454
  515MOL0     C69410  11.399  12.036  -1.243  0.2444 -0.3906  0.2215
  515MOL0     C69411  11.509  11.969  -1.329 -0.5456 -0.8417 -0.7828
  515MOL0     C69412  11.465  11.981  -1.480 -0.8113 -0.3032  0.3709
  515MOL0     C69413  11.441  12.124  -1.534 -1.0725  0.5358 -0.1689
  515MOL0     O69414  11.534  12.220  -1.485  0.3025 -0.2657  1.1606
  515MOL0     C69415  11.538  12.342  -1.542 -0.0797 -1.0364 -0.2927
  515MOL0     C69416  11.454  12.399  -1.633 -0.4428  0.8583 -0.7638
  515MOL0     C69417  11.466  12.532  -1.696 -0.2711  0.4478 -0.4608
  515MOL0     C69418  11.371  12.575  -1.808  0.0141  0.3528  0.6905
  515MOL0     C69419  11.574  12.606  -1.643  0.2394 -0.1349 -0.3664
  515MOL0     C69420  11.621  12.737  -1.696  0.1853 -0.5098  0.0236
  515MOL0     O69421  11.755  12.763  -1.688 -0.3775 -0.5290  0.4615
  515MOL0     C69422  11.791  12.891  -1.731  0.2499  0.5543  0.7650
  515MOL0     C69423  11.740  13.002  -1.674 -0.3606 -0.2413  1.4177
  515MOL0     C69424  11.752  13.121  -1.741  0.2601 -0.1083 -0.7705
  515MOL0     C69425  11.831  13.134  -1.850  1.0722 -0.3771 -0.1907
  515MOL0     O69426  11.869  13.264  -1.894 -0.5289  0.2682 -0.6980
  515MOL0     C69427  11.976  13.276  -1.989 -0.5001 -0.1025 -0.1766
  515MOL0     C69428  11.994  13.420  -1.997  0.1999 -1.5350 -0.2284
  515MOL0     C69429  12.102  13.460  -2.097 -0.2406 -0.0120 -0.5423
  515MOL0     C69430  12.111  13.617  -2.112  0.1924 -0.8537  0.2386
  515MOL0     C69431  12.224  13.674  -2.197  0.0546 -0.7059 -0.2675
  515MOL0     C69432  12.366  13.617  -2.180  0.5965 -0.4924 -0.5112
  515MOL0     C69433  12.445  13.674  -2.294 -0.1267  0.2709  0.3650
  515MOL0     C69434  12.587  13.623  -2.301 -0.0272  0.7436  0.3680
  515MOL0    Cl69435  12.581  13.455  -2.343  0.2063  0.2598  0.2778
  515MOL0     C69436  11.884  13.017  -1.908  1.1704 -0.4561 -0.0571
  515MOL0     C69437  11.853  12.895  -1.853  0.5953  0.7700 -0.0322
  515MOL0     O69438  11.537  12.804  -1.749 -1.3859 -0.3353 -0.1911
  515MOL0     C69439  11.665  12.550  -1.551  0.5640 -0.6939 -0.3804
  515MOL0     C69440  11.642  12.424  -1.502  0.8915  0.4125 -0.7021
  515MOL0     N69441  11.436  12.021  -0.979 -0.5653 -0.3063  0.2372
  515MOL0     N69442  11.414  11.923  -0.897 -0.1963  0.2926  0.0925
  515MOL0     C69443  10.960  11.701   0.096  0.3670  0.4573 -0.9178
  515MOL0     C69444  11.029  11.702   0.215 -0.2356 -0.6079  0.2425
  515MOL0     C69445  11.329  11.496   0.499 -0.1602 -0.5850 -1.4488
  515MOL0     C69446  11.400  11.375   0.540  1.2200  0.3374  0.6352
  515MOL0     C69447  11.433  11.351   0.673  0.5400 -0.9071 -0.2625
  515MOL0     C69448  11.409  11.444   0.777 -1.2921  0.2852 -0.4462
  515MOL0     O69449  11.447  11.425   0.910 -0.6200 -0.5336  0.0384
  515MOL0     C69450  11.521  11.311   0.940  0.0512  0.0257  0.1164
  515MOL0     C69451  11.576  11.328   1.085  0.9592  0.1684 -0.0490
  515MOL0     C69452  11.481  11.399   1.188 -0.4412  0.3515  0.7528
  515MOL0     C69453  11.559  11.366   1.322 -0.7715  0.8116  0.2698
  515MOL0     C69454  11.467  11.365   1.426 -1.9239  0.3354  0.6918
  515MOL0     C69455  11.386  11.356   1.513  0.4101 -0.2439 -0.0352
  515MOL0     C69456  11.364  11.575   0.732  0.2169  0.0741 -0.5916
  515MOL0     C69457  11.316  11.594   0.605  0.1862 -0.3761  0.2740
  515MOL0     H69458  11.340  11.645   0.093  0.4914  0.6396 -0.3203
  515MOL0     H69459  11.219  11.661  -0.124  1.7836 -2.1790 -0.3862
  515MOL0     H69460  10.929  11.747  -0.347 -3.0180 -0.6070  1.5685
  515MOL0     H69461  11.093  11.733  -0.276  1.2048 -1.6435  0.7519
  515MOL0     H69462  11.076  11.483  -0.262 -2.0796  1.2770  2.2643
  515MOL0     H69463  10.918  11.498  -0.324 -0.4831  0.4996  1.6431
  515MOL0     H69464  11.098  11.430  -0.491 -3.3338  0.0543 -1.3892
  515MOL0     H69465  11.006  11.571  -0.533 -2.0329 -1.7025  0.5405
  515MOL0     H69466  11.211  11.702  -0.432 -1.7808 -0.5737 -1.7425
  515MOL0     H69467  11.282  11.539  -0.398 -3.3830 -2.0233  0.5738
  515MOL0     H69468  11.385  11.619  -0.607  0.4329 -1.7233  0.7896
  515MOL0     H69469  11.270  11.488  -0.644  0.6800  0.4604 -0.8855
  515MOL0     H69470  11.111  11.696  -0.683  0.4064 -0.7990 -0.9715
  515MOL0     H69471  11.273  11.779  -0.686  1.4196 -0.0787 -2.2036
  515MOL0     H69472  11.199  11.544  -0.866  2.5421  0.3473 -3.5109
  515MOL0     H69473  11.128  11.702  -0.896  1.1609  4.0510  0.5078
  515MOL0     H69474  11.350  11.630  -1.030  1.0680 -0.1227 -0.1566
  515MOL0     H69475  11.441  11.648  -0.868 -0.1166  1.1586  1.9177
  515MOL0     H69476  11.315  11.786  -1.173  0.5090  1.3984 -2.1320
  515MOL0     H69477  11.297  12.014  -1.275 -0.2485  1.0033  0.7359
  515MOL0     H69478  11.422  12.143  -1.246 -4.8577  0.9832  0.3979
  515MOL0     H69479  11.517  11.862  -1.309  3.4053 -0.9702 -2.2682
  515MOL0     H69480  11.601  12.014  -1.292 -2.5415 -0.5651  4.7712
  515MOL0     H69481  11.371  11.926  -1.493 -1.3366  1.0780 -2.2511
  515MOL0     H69482  11.541  11.940  -1.547 -0.1403  1.3769  0.0544
  515MOL0     H69483  11.346  12.161  -1.493  0.2285  2.7917  1.0333
  515MOL0     H69484  11.453  12.105  -1.641  0.6109 -1.4549  0.3117
  515MOL0     H69485  11.370  12.336  -1.662 -2.2371  2.8983 -0.2454
  515MOL0     H69486  11.308  12.650  -1.761  1.1938  1.0496  1.2221
  515MOL0     H69487  11.419  12.621  -1.895 -2.0109  1.2774  0.0217
  515MOL0     H69488  11.325  12.484  -1.848  0.5689 -0.1717  1.2042
  515MOL0     H69489  11.697  12.999  -1.574 -4.9986  0.3924 -0.3126
  515MOL0     H69490  11.724  13.219  -1.704 -2.0644  0.2356 -3.0983
  515MOL0     H69491  12.069  13.231  -1.954 -0.5634  0.6683  1.0414
  515MOL0     H69492  11.937  13.233  -2.082 -2.2492  2.2028 -0.5814
  515MOL0     H69493  11.899  13.465  -2.024  0.6901 -0.5076 -0.2857
  515MOL0     H69494  12.012  13.455  -1.895 -1.2312 -0.1845 -0.4140
  515MOL0     H69495  12.093  13.422  -2.199  2.7006  1.8972 -1.6589
  515MOL0     H69496  12.193  13.409  -2.061 -0.1353 -0.1926 -1.0610
  515MOL0     H69497  12.012  13.657  -2.135  1.5454  1.9399 -1.1470
  515MOL0     H69498  12.124  13.650  -2.008  0.0201  1.3330 -0.3814
  515MOL0     H69499  12.227  13.783  -2.191 -1.2434 -0.7480  2.2113
  515MOL0     H69500  12.199  13.655  -2.302  0.3621  1.3868 -0.7596
  515MOL0     H69501  12.413  13.648  -2.086 -3.4329 -0.9699  1.9354
  515MOL0     H69502  12.368  13.508  -2.175 -1.7936 -0.5460  1.9098
  515MOL0     H69503  12.449  13.784  -2.295 -1.8170  0.3711  0.9785
  515MOL0     H69504  12.401  13.650  -2.392  1.9077 -1.1393 -0.2569
  515MOL0     H69505  12.615  13.617  -2.196  0.6536 -2.4081  0.0938
  515MOL0     H69506  12.659  13.685  -2.356 -1.9575  4.7622  1.9811
  515MOL0     H69507  11.941  13.019  -2.001  0.8412 -0.9071 -0.2778
  515MOL0     H69508  11.873  12.802  -1.904 -2.1455 -1.9641  3.3414
  515MOL0     H69509  11.758  12.597  -1.521  0.8230  0.5432 -2.8723
  515MOL0     H69510  11.711  12.380  -1.432  0.1136  0.1245 -0.0976
  515MOL0     H69511  10.854  11.724   0.103 -0.4992 -3.0887 -0.1295
  515MOL0     H69512  10.983  11.724   0.311 -2.0343  0.1778 -0.7551
  515MOL0     H69513  11.405  11.309   0.454 -2.5798  0.6305 -0.0243
  515MOL0     H69514  11.480  11.257   0.702  0.0346 -0.1571  3.4821
  515MOL0     H69515  11.457  11.222   0.930  1.6261 -1.1280 -0.0428
  515MOL0     H69516  11.608  11.293   0.876  0.6601 -2.6204  1.5043
  515MOL0     H69517  11.665  11.391   1.074 -1.2206  3.2541 -1.4351
  515MOL0     H69518  11.604  11.228   1.117  0.6404 -1.3158 -3.8337
  515MOL0     H69519  11.381  11.355   1.186 -1.0781  1.4646  3.4915
  515MOL0     H69520  11.491  11.508   1.181  3.9417  0.0796 -1.3169
  515MOL0     H69521  11.634  11.445   1.334 -3.0107  3.0407  0.5680
  515MOL0     H69522  11.603  11.266   1.322 -1.1654  0.5278 -3.0596
  515MOL0     H69523  11.309  11.349   1.588  1.7339 -1.4883  1.2974
  515MOL0     H69524  11.365  11.642   0.818  2.2899  0.2700 -0.7116
  515MOL0     H69525  11.274  11.691   0.581  2.8833  1.0093  0.6659
  516MOL0     O69526   6.766   3.486   5.455  0.1337  0.3772 -0.4735
  516MOL0     C69527   6.741   3.439   5.351  0.2719  0.1207 -0.0882
  516MOL0     O69528   6.801   3.332   5.298  0.0236  0.1496 -0.1387
  516MOL0     C69529   6.893   3.264   5.367 -0.2366 -0.1098 -0.8974
  516MOL0     C69530   6.855   3.147   5.435  0.9247 -0.0829  0.3727
  516MOL0     C69531   6.935   3.072   5.519 -0.3790  0.9389  1.1638
  516MOL0     C69532   7.071   3.101   5.522  0.0619  0.1428  0.8909
  516MOL0     O69533   7.148   3.019   5.597  0.1033 -0.4252 -0.0229
  516MOL0     C69534   7.286   3.025   5.588 -0.5162  0.2208 -0.2841
  516MOL0     C69535   7.344   2.886   5.630  0.6412 -0.0136 -0.3075
  516MOL0     C69536   7.487   2.877   5.611  0.6584  0.3530 -0.1495
  516MOL0     C69537   7.562   2.897   5.743  0.3891  0.2806 -0.3403
  516MOL0     C69538   7.717   2.889   5.717 -0.1070  0.5151 -0.2804
  516MOL0     C69539   7.807   2.871   5.837 -0.3577  0.8794 -0.4908
  516MOL0     C69540   7.815   3.015   5.897 -0.8471  1.0146 -0.5381
  516MOL0     C69541   7.833   3.015   6.047 -1.2705 -0.2478 -0.4755
  516MOL0     N69542   7.973   2.994   6.084 -0.8464 -0.5040  0.0140
  516MOL0     C69543   8.081   3.076   6.067 -0.2384 -0.1103 -0.4489
  516MOL0     C69544   8.189   3.011   6.109  0.5400  0.6433 -0.3444
  516MOL0     C69545   8.334   3.047   6.077  0.1074 -0.6477  0.5777
  516MOL0     C69546   8.355   3.189   6.129  0.0271 -1.1616  1.2142
  516MOL0     C69547   8.379   3.189   6.278 -0.1205  0.0873  0.5416
  516MOL0     C69548   8.521   3.163   6.317 -0.8543 -0.1839  0.5955
  516MOL0     O69549   8.516   3.174   6.459 -0.7188 -0.0936  0.5669
  516MOL0     C69550   8.635   3.199   6.529  0.3938  0.3140  0.2877
  516MOL0     C69551   8.628   3.216   6.669  0.1150  0.0880 -0.1361
  516MOL0     C69552   8.742   3.243   6.739  0.3270  0.3309 -0.3641
  516MOL0     C69553   8.726   3.264   6.887 -0.5704 -0.0933 -0.6567
  516MOL0     C69554   8.870   3.249   6.676  0.4233 -0.2818  0.2564
  516MOL0     C69555   8.999   3.265   6.758  0.1906  0.1200 -0.1728
  516MOL0     O69556   9.102   3.189   6.716  0.1857 -0.0184 -0.0074
  516MOL0     C69557   9.228   3.235   6.739 -1.2036 -1.3973 -0.0472
  516MOL0     C69558   9.273   3.368   6.727 -0.2631  0.6864  0.0943
  516MOL0     C69559   9.408   3.407   6.763  0.5838 -0.1930 -0.2701
  516MOL0     C69560   9.501   3.307   6.816 -0.2457  0.6778  0.4776
  516MOL0     O69561   9.623   3.322   6.865  0.1315  0.0251  0.1590
  516MOL0     C69562   9.674   3.454   6.860 -0.0537 -0.7766 -0.0612
  516MOL0     C69563   9.789   3.457   6.948 -0.2323  0.2808 -0.6771
  516MOL0     C69564   9.902   3.366   6.895  0.1338 -0.1815  0.1697
  516MOL0     C69565  10.009   3.370   7.010 -0.1906  0.6809  0.0592
  516MOL0     C69566  10.136   3.289   6.980  1.2614  0.5451  0.4157
  516MOL0     C69567  10.235   3.285   7.095  0.0194 -0.2923  0.1651
  516MOL0     C69568  10.284   3.421   7.137 -0.5288 -0.3240 -0.1952
  516MOL0     C69569  10.416   3.409   7.220  0.9859 -0.1951  0.0017
  516MOL0    Cl69570  10.551   3.393   7.103  0.0176 -0.2957  0.2716
  516MOL0     C69571   9.458   3.175   6.822 -0.7807  0.5186  0.1377
  516MOL0     C69572   9.327   3.146   6.781 -0.4697  0.3287 -0.2495
  516MOL0     O69573   8.999   3.349   6.848  0.3327  1.0482  0.1145
  516MOL0     C69574   8.881   3.236   6.537  0.3061  0.7021 -0.2949
  516MOL0     C69575   8.763   3.213   6.466  0.3571  0.4332  0.5841
  516MOL0     N69576   8.145   2.892   6.163 -1.0161 -0.1493  0.2708
  516MOL0     N69577   8.019   2.885   6.150  0.3634  0.3801 -0.1366
  516MOL0     C69578   7.116   3.220   5.451 -0.3946 -0.5108  1.0670
  516MOL0     C69579   7.024   3.296   5.376 -0.7150 -0.1563 -0.3705
  516MOL0     C69580   6.637   3.512   5.270  0.4905  0.6775 -0.4208
  516MOL0     C69581   6.623   3.484   5.134  0.1850 -0.2157 -0.9129
  516MOL0     C69582   6.514   3.537   5.058  0.2226  0.2876 -0.0491
  516MOL0     C69583   6.416   3.613   5.120  0.6166  0.4388 -0.5203
  516MOL0     O69584   6.311   3.639   5.037 -0.4190  0.4649 -0.5051
  516MOL0     C69585   6.193   3.708   5.086  0.3694  0.6329 -0.5411
  516MOL0     C69586   6.203   3.856   5.064 -0.2572  0.3144 -0.0055
  516MOL0     C69587   6.118   3.941   5.166 -0.5107  1.0264  0.0663
  516MOL0     C69588   6.150   4.083   5.157  0.3271 -0.2770  0.4290
  516MOL0     C69589   6.289   4.114   5.201  0.7837 -0.9475 -0.1823
  516MOL0     C69590   6.396   4.161   5.255  0.1495  0.3207  0.0137
  516MOL0     C69591   6.438   3.658   5.252 -0.3901  0.4096  0.6378
  516MOL0     C69592   6.541   3.602   5.332 -0.2821  0.5208 -0.0044
  516MOL0     H69593   6.754   3.111   5.414  0.8840 -0.2947  0.9181
  516MOL0     H69594   6.908   2.975   5.561  0.2435  0.2987  0.1206
  516MOL0     H69595   7.302   3.043   5.481 -0.8142 -0.1659 -0.3964
  516MOL0     H69596   7.316   3.106   5.655  1.2984 -0.1749 -0.5493
  516MOL0     H69597   7.307   2.850   5.726  2.2567 -4.0294 -1.0095
  516MOL0     H69598   7.296   2.809   5.571 -0.9265 -0.5881  1.6084
  516MOL0     H69599   7.511   2.777   5.572 -3.6586 -0.5897 -0.9424
  516MOL0     H69600   7.523   2.953   5.541 -1.0430  1.4891  0.1580
  516MOL0     H69601   7.538   3.000   5.772  1.7176  0.3657  0.5569
  516MOL0     H69602   7.530   2.816   5.809 -2.9126  0.2599 -1.7575
  516MOL0     H69603   7.733   2.800   5.655 -2.9312 -0.6379  0.4900
  516MOL0     H69604   7.754   2.977   5.665  0.6745  1.4240  1.6921
  516MOL0     H69605   7.766   2.794   5.904  0.4385  1.9717  1.3294
  516MOL0     H69606   7.911   2.842   5.820  0.0848  0.6288  2.1060
  516MOL0     H69607   7.899   3.066   5.850  2.3927 -1.8385  1.6555
  516MOL0     H69608   7.721   3.070   5.882 -2.1511 -0.9488 -0.0012
  516MOL0     H69609   7.762   2.948   6.097  0.6998  0.2237  3.3189
  516MOL0     H69610   7.805   3.115   6.080 -2.0303 -0.2612 -1.0477
  516MOL0     H69611   8.072   3.177   6.027 -0.7731 -1.0641 -2.9081
  516MOL0     H69612   8.396   2.970   6.123  2.2685  0.7517  0.1252
  516MOL0     H69613   8.363   3.035   5.973 -1.2748 -2.5112  0.3617
  516MOL0     H69614   8.263   3.242   6.105  0.3835 -1.0472  0.0281
  516MOL0     H69615   8.433   3.241   6.072 -0.0726 -2.0301  0.2498
  516MOL0     H69616   8.301   3.125   6.320 -1.2147  0.4352 -0.9075
  516MOL0     H69617   8.355   3.289   6.313 -1.4801 -0.3548  0.9487
  516MOL0     H69618   8.583   3.232   6.259  0.6011 -0.5712  1.6124
  516MOL0     H69619   8.535   3.059   6.284 -1.8868 -0.2030  0.1920
  516MOL0     H69620   8.535   3.193   6.720 -1.4224  0.4420 -2.6054
  516MOL0     H69621   8.738   3.369   6.915 -0.1245 -0.1916 -0.4730
  516MOL0     H69622   8.627   3.227   6.918 -0.5792  1.6574  1.7945
  516MOL0     H69623   8.809   3.211   6.935  0.5320  1.7046 -0.4784
  516MOL0     H69624   9.210   3.441   6.676 -1.6619 -1.7133 -1.8590
  516MOL0     H69625   9.454   3.504   6.743  4.7493 -1.2209  2.8778
  516MOL0     H69626   9.699   3.483   6.758 -0.7966  4.2275  0.9481
  516MOL0     H69627   9.598   3.522   6.899 -0.7381 -0.5972 -1.6233
  516MOL0     H69628   9.821   3.561   6.951  0.7744 -0.0227  2.1597
  516MOL0     H69629   9.760   3.433   7.051  2.6060 -4.9179 -0.7383
  516MOL0     H69630   9.939   3.398   6.797  1.7042  1.4601  1.2309
  516MOL0     H69631   9.858   3.267   6.878 -0.5826  0.2667 -0.6468
  516MOL0     H69632  10.035   3.476   7.014 -0.4251  0.7793 -0.8314
  516MOL0     H69633   9.960   3.346   7.105 -3.8305 -0.2004 -1.8432
  516MOL0     H69634  10.183   3.317   6.885 -0.3950 -1.5382 -1.1102
  516MOL0     H69635  10.105   3.186   6.964  1.3649  0.5780 -0.0028
  516MOL0     H69636  10.198   3.233   7.184 -0.6907  0.5826  0.4054
  516MOL0     H69637  10.321   3.230   7.057 -0.0938  1.1473 -2.3916
  516MOL0     H69638  10.211   3.470   7.202  0.1852 -2.3024  2.2612
  516MOL0     H69639  10.302   3.484   7.049  0.9947 -1.8722 -1.0438
  516MOL0     H69640  10.404   3.316   7.276  2.9241  0.2392  1.2275
  516MOL0     H69641  10.427   3.501   7.278 -2.6113  1.4661 -1.6051
  516MOL0     H69642   9.524   3.093   6.847  1.1170  0.9596 -2.9179
  516MOL0     H69643   9.303   3.042   6.798  0.7325  0.1501  0.4657
  516MOL0     H69644   8.973   3.254   6.483  1.5003 -0.4374  1.2678
  516MOL0     H69645   8.770   3.199   6.359 -0.1409  1.7888  0.3594
  516MOL0     H69646   7.217   3.258   5.466 -1.2841  1.4832  2.4223
  516MOL0     H69647   7.067   3.383   5.327 -1.5456 -0.5902 -1.9181
  516MOL0     H69648   6.689   3.413   5.087 -1.0560 -1.7963 -0.3668
  516MOL0     H69649   6.499   3.502   4.956  1.7064 -2.8431  0.6905
  516MOL0     H69650   6.102   3.678   5.033  0.8925 -1.8131 -0.1844
  516MOL0     H69651   6.178   3.678   5.191 -1.9699 -1.1666 -1.3185
  516MOL0     H69652   6.160   3.875   4.965 -0.8204 -0.8249 -0.0003
  516MOL0     H69653   6.308   3.885   5.061 -0.0115 -0.4423  0.8775
  516MOL0     H69654   6.133   3.899   5.266  0.4330 -0.8483 -0.7938
  516MOL0     H69655   6.012   3.935   5.141 -0.3602 -0.2211 -0.3761
  516MOL0     H69656   6.079   4.144   5.213 -0.0072  0.3917 -0.6756
  516MOL0     H69657   6.146   4.100   5.049 -2.5997 -2.5707  0.0450
  516MOL0     H69658   6.458   4.229   5.310  2.3870 -0.0531 -1.8988
  516MOL0     H69659   6.383   3.747   5.284  0.7792  1.5547 -0.4688
  516MOL0     H69660   6.547   3.638   5.434 -3.2057 -0.2039  0.5210
  517MOL0     O69661   1.575   8.074   9.652 -0.1366 -0.9704 -0.3001
  517MOL0     C69662   1.587   8.029   9.539 -0.6502 -0.0131  0.8174
  517MOL0     O69663   1.485   8.007   9.451  0.4765  0.1754 -0.1177
  517MOL0     C69664   1.357   7.980   9.496 -0.0896  0.3826  0.1698
  517MOL0     C69665   1.248   7.995   9.416  0.2057 -0.5328  0.5904
  517MOL0     C69666   1.125   7.949   9.441  0.9330  0.5177  1.3479
  517MOL0     C69667   1.102   7.861   9.550 -0.2050 -0.1415  0.5075
  517MOL0     O69668   0.980   7.804   9.570 -0.3189 -0.5273 -0.5057
  517MOL0     C69669   0.966   7.696   9.478  0.3769 -0.0007  0.4856
  517MOL0     C69670   0.821   7.670   9.445 -0.1951 -0.5782  0.4401
  517MOL0     C69671   0.742   7.645   9.580 -1.6654 -0.1053  0.7434
  517MOL0     C69672   0.601   7.601   9.555 -0.5240  0.6138 -0.1885
  517MOL0     C69673   0.531   7.560   9.682 -0.3128 -0.7698  0.1893
  517MOL0     C69674   0.383   7.525   9.646 -0.4504 -0.4068  0.1790
  517MOL0     C69675   0.300   7.509   9.775  0.2245  0.0035 -0.4744
  517MOL0     C69676   0.264   7.631   9.859  0.5009  0.1311  1.1249
  517MOL0     N69677   0.179   7.734   9.792 -0.0588 -0.3094 -0.2492
  517MOL0     C69678   0.046   7.740   9.762 -0.4551  0.6584  0.2180
  517MOL0     C69679   0.031   7.860   9.692 -0.4451  0.3041  0.6392
  517MOL0     C69680  -0.098   7.892   9.622  0.6570 -0.1552  0.9256
  517MOL0     C69681  -0.183   7.987   9.699  0.0323  0.5431 -0.1730
  517MOL0     C69682  -0.310   8.003   9.619  0.3413  1.1515 -0.9472
  517MOL0     C69683  -0.390   8.125   9.668 -0.8071  0.2088  0.4758
  517MOL0     O69684  -0.387   8.132   9.805 -0.3833 -0.1268 -0.4290
  517MOL0     C69685  -0.479   8.067   9.882  1.1325 -0.0390 -0.6260
  517MOL0     C69686  -0.620   8.061   9.870  0.1759  0.4220  0.7102
  517MOL0     C69687  -0.703   8.004   9.958  0.0475  0.7026  0.1685
  517MOL0     C69688  -0.846   8.032   9.938  1.0411  1.0964 -0.4423
  517MOL0     C69689  -0.642   7.927  10.063 -0.0664  0.4800  0.3286
  517MOL0     C69690  -0.709   7.849  10.175  0.9284  0.1559 -0.7071
  517MOL0     O69691  -0.645   7.816  10.294 -0.1958 -0.1150  0.7438
  517MOL0     C69692  -0.716   7.738  10.379  0.1766 -0.3733  0.3032
  517MOL0     C69693  -0.792   7.801  10.478 -0.5041 -1.1424 -0.2651
  517MOL0     C69694  -0.886   7.732  10.551 -0.0409 -0.7666  0.4921
  517MOL0     C69695  -0.887   7.587  10.545 -0.1077 -0.8583  0.2185
  517MOL0     O69696  -0.973   7.511  10.616 -0.6396 -0.9608 -0.3034
  517MOL0     C69697  -1.050   7.561  10.723  0.3511 -0.0075 -0.5209
  517MOL0     C69698  -1.186   7.615  10.673 -0.8169 -1.1807 -0.0401
  517MOL0     C69699  -1.258   7.724  10.763  0.5950 -0.3278 -0.1656
  517MOL0     C69700  -1.377   7.654  10.846  0.0338 -1.0631  0.7432
  517MOL0     C69701  -1.464   7.768  10.923  0.2685  0.2373 -0.2961
  517MOL0     C69702  -1.590   7.714  10.990 -0.4310  0.1947 -0.0656
  517MOL0     C69703  -1.659   7.810  11.079  0.3896  0.3109 -0.5246
  517MOL0     C69704  -1.776   7.746  11.167 -0.1377  0.3587  0.3369
  517MOL0    Cl69705  -1.730   7.590  11.257 -0.0890 -0.3536  0.3491
  517MOL0     C69706  -0.809   7.533  10.448  0.0737  0.6253  0.1148
  517MOL0     C69707  -0.712   7.600  10.371 -0.4906  0.4188 -0.2943
  517MOL0     O69708  -0.829   7.831  10.149  0.1646 -1.3146  0.3847
  517MOL0     C69709  -0.499   7.935  10.076 -0.5658  0.1137  0.8399
  517MOL0     C69710  -0.419   7.999   9.983  0.1404  0.1684  0.0714
  517MOL0     N69711   0.149   7.929   9.698  0.4205 -0.5862  0.1326
  517MOL0     N69712   0.235   7.852   9.759 -0.8189 -0.8780 -0.0818
  517MOL0     C69713   1.206   7.845   9.642 -0.2158  0.3872 -0.4080
  517MOL0     C69714   1.327   7.912   9.618  0.1330 -0.0213 -0.0404
  517MOL0     C69715   1.724   8.033   9.478 -0.8715  0.1309  0.5474
  517MOL0     C69716   1.825   8.119   9.533  0.7010 -0.5620 -0.9098
  517MOL0     C69717   1.956   8.109   9.490 -0.0926  0.2298 -0.5204
  517MOL0     C69718   1.990   8.031   9.383 -0.1172 -1.0885 -0.4986
  517MOL0     O69719   2.113   8.034   9.322 -0.3317 -0.4107  0.7077
  517MOL0     C69720   2.201   7.933   9.359 -0.2413  0.0113  0.5052
  517MOL0     C69721   2.344   7.993   9.359 -0.3791 -0.1736  0.2870
  517MOL0     C69722   2.384   8.087   9.234  0.3468  0.4958  0.1074
  517MOL0     C69723   2.523   8.147   9.248  0.7697  0.4799 -0.5879
  517MOL0     C69724   2.627   8.052   9.285 -0.6126 -0.0178 -0.3331
  517MOL0     C69725   2.704   7.977   9.340 -0.0850 -0.2043 -0.2418
  517MOL0     C69726   1.887   7.961   9.320 -0.6245  0.3841 -0.1020
  517MOL0     C69727   1.755   7.960   9.361 -0.0571 -0.0948 -0.6692
  517MOL0     H69728   1.267   8.056   9.328  3.4341  0.4310  1.8393
  517MOL0     H69729   1.038   7.962   9.378  1.0323  0.4828  1.2030
  517MOL0     H69730   1.013   7.720   9.382 -3.5652  0.9310 -1.4368
  517MOL0     H69731   1.008   7.606   9.523 -1.0321 -0.6489  0.5471
  517MOL0     H69732   0.772   7.757   9.401  0.0690 -2.2309 -3.5770
  517MOL0     H69733   0.814   7.586   9.374 -0.2113 -0.6841  0.5673
  517MOL0     H69734   0.796   7.565   9.631  2.1782  1.9514  0.2923
  517MOL0     H69735   0.725   7.726   9.651 -2.3245  0.8884 -0.4965
  517MOL0     H69736   0.547   7.684   9.509  1.6423  2.4859  0.5111
  517MOL0     H69737   0.614   7.516   9.487  1.5302  1.2739 -0.7041
  517MOL0     H69738   0.577   7.471   9.727 -1.9227 -1.1356  1.2095
  517MOL0     H69739   0.540   7.634   9.762 -0.3753 -0.1283 -0.3870
  517MOL0     H69740   0.346   7.606   9.583 -1.1080 -1.1598 -0.4272
  517MOL0     H69741   0.368   7.438   9.581 -2.6773  1.4447 -2.0033
  517MOL0     H69742   0.210   7.452   9.747  0.5243  0.2756 -2.1183
  517MOL0     H69743   0.363   7.447   9.838  0.6227  2.5772  1.8275
  517MOL0     H69744   0.353   7.674   9.905  2.3294 -2.0494 -0.1922
  517MOL0     H69745   0.210   7.591   9.946  0.4596 -1.1424  0.5258
  517MOL0     H69746  -0.018   7.653   9.773 -0.7874  1.0783  1.9541
  517MOL0     H69747  -0.083   7.949   9.530 -0.6378 -1.1198  0.0898
  517MOL0     H69748  -0.155   7.804   9.591  1.2238 -0.1493 -0.1843
  517MOL0     H69749  -0.130   8.083   9.702  1.0616 -0.0256  0.4174
  517MOL0     H69750  -0.197   7.965   9.805  0.3463  0.5555 -0.1266
  517MOL0     H69751  -0.362   7.906   9.619 -2.4981  2.5830 -0.9431
  517MOL0     H69752  -0.292   8.025   9.513  0.6140  0.8318 -0.9685
  517MOL0     H69753  -0.490   8.119   9.625 -0.5932  1.7374 -0.2794
  517MOL0     H69754  -0.351   8.219   9.628 -1.8253  0.3242 -0.2767
  517MOL0     H69755  -0.663   8.117   9.788 -1.1138  0.2431  1.2334
  517MOL0     H69756  -0.906   7.941   9.938  1.5703  0.6785  1.7533
  517MOL0     H69757  -0.881   8.105  10.012  2.3022  3.4629 -2.0543
  517MOL0     H69758  -0.868   8.085   9.845 -0.2956 -0.1238 -0.8499
  517MOL0     H69759  -0.802   7.909  10.478  0.1646 -1.0091 -2.8561
  517MOL0     H69760  -0.958   7.796  10.602  3.0369  2.7879  0.8302
  517MOL0     H69761  -1.069   7.477  10.791  5.0145 -1.1686 -0.3057
  517MOL0     H69762  -1.003   7.635  10.789 -1.9710  2.3419 -1.3603
  517MOL0     H69763  -1.172   7.661  10.575 -3.7136 -0.2952 -0.1264
  517MOL0     H69764  -1.252   7.530  10.650 -1.9466 -0.2576 -0.2820
  517MOL0     H69765  -1.294   7.807  10.702  2.4446  2.0536  1.7943
  517MOL0     H69766  -1.180   7.766  10.827  2.1316 -1.8213 -0.9742
  517MOL0     H69767  -1.450   7.603  10.783 -1.7946  0.9615  1.0690
  517MOL0     H69768  -1.335   7.590  10.924  3.1896  0.1377  0.1518
  517MOL0     H69769  -1.492   7.852  10.859 -1.2148  2.0900  2.5534
  517MOL0     H69770  -1.409   7.820  11.002 -1.5676 -1.0642  1.9612
  517MOL0     H69771  -1.650   7.678  10.905  0.6674  1.7707 -1.5746
  517MOL0     H69772  -1.564   7.629  11.055 -1.7756  0.3869  0.7489
  517MOL0     H69773  -1.696   7.900  11.029  0.2810  1.5850  1.7263
  517MOL0     H69774  -1.582   7.838  11.151  0.0846 -1.9990  0.8187
  517MOL0     H69775  -1.864   7.727  11.104  0.9686  2.8678 -2.1920
  517MOL0     H69776  -1.805   7.816  11.246 -0.7034  2.1671 -1.3735
  517MOL0     H69777  -0.812   7.425  10.435  1.3671  0.7075 -1.1084
  517MOL0     H69778  -0.654   7.548  10.296 -1.4673 -1.4748  0.2064
  517MOL0     H69779  -0.465   7.878  10.162 -2.0579  0.0131  1.4021
  517MOL0     H69780  -0.311   7.985   9.989  0.1947  0.9530  1.1718
  517MOL0     H69781   1.184   7.801   9.738  0.0909  3.0242  0.9656
  517MOL0     H69782   1.399   7.882   9.693 -1.1131  2.3283  2.2584
  517MOL0     H69783   1.797   8.184   9.616  0.5284 -1.2428 -0.4262
  517MOL0     H69784   2.030   8.168   9.543 -2.9224  2.7078  0.9841
  517MOL0     H69785   2.187   7.873   9.450  0.4509 -0.6983  0.1525
  517MOL0     H69786   2.192   7.864   9.274  0.3195  0.4284  0.1067
  517MOL0     H69787   2.402   7.902   9.340 -0.4941  0.1136 -1.6897
  517MOL0     H69788   2.348   8.044   9.455 -2.1093  0.7679 -0.0984
  517MOL0     H69789   2.312   8.169   9.219  0.3768  0.4172 -0.5017
  517MOL0     H69790   2.388   8.023   9.145  1.6992  0.5659  0.0943
  517MOL0     H69791   2.507   8.223   9.325  1.2526 -1.5114  1.6044
  517MOL0     H69792   2.546   8.202   9.157 -1.0891 -0.7548 -1.8935
  517MOL0     H69793   2.770   7.912   9.393 -0.3719 -2.1446 -2.1074
  517MOL0     H69794   1.926   7.903   9.237  1.4479  1.6536 -0.0997
  517MOL0     H69795   1.679   7.910   9.302 -2.3076  1.4351  0.7997
  518MOL0     O69796   3.037   9.333  10.755  0.0844 -0.0529  0.2526
  518MOL0     C69797   2.943   9.383  10.826 -0.8694 -0.3600 -0.1615
  518MOL0     O69798   2.939   9.506  10.891 -0.5872  0.5389 -0.2326
  518MOL0     C69799   3.048   9.589  10.887  0.1288 -1.0834  0.4958
  518MOL0     C69800   3.179   9.542  10.904  0.1477  0.1516 -1.0962
  518MOL0     C69801   3.279   9.625  10.895  0.0005  1.0224  0.3440
  518MOL0     C69802   3.265   9.761  10.850  0.3648 -0.4404  0.6068
  518MOL0     O69803   3.378   9.838  10.835  0.0735  0.4719  0.1756
  518MOL0     C69804   3.510   9.778  10.836 -0.4494 -0.1648 -0.1118
  518MOL0     C69805   3.612   9.860  10.761  0.7742  0.3375  0.3195
  518MOL0     C69806   3.746   9.789  10.762 -0.4080  0.3965 -0.5536
  518MOL0     C69807   3.848   9.890  10.700 -0.1417  0.9327 -0.6041
  518MOL0     C69808   3.959   9.818  10.606  0.3204 -0.9090 -0.9218
  518MOL0     C69809   4.041   9.934  10.549  0.3888  0.3017  0.9302
  518MOL0     C69810   4.158   9.891  10.468 -0.3793 -0.9941 -0.0776
  518MOL0     C69811   4.107   9.845  10.333 -0.5747  0.3941  0.7600
  518MOL0     N69812   4.033   9.953  10.259 -0.3047  0.2968  0.4293
  518MOL0     C69813   4.104  10.055  10.185  0.2011  1.0273 -0.1503
  518MOL0     C69814   4.003  10.137  10.149  0.6751 -0.6981  0.5099
  518MOL0     C69815   4.019  10.263  10.072 -0.0320  0.3904  0.2994
  518MOL0     C69816   4.073  10.241   9.935  0.3963 -0.5038 -0.2648
  518MOL0     C69817   4.223  10.216   9.929 -1.2090 -0.3672  0.2396
  518MOL0     C69818   4.295  10.318   9.842 -0.2249 -0.5232 -0.3382
  518MOL0     O69819   4.435  10.284   9.850  0.0926  0.3047 -0.1189
  518MOL0     C69820   4.509  10.301   9.732 -0.2040  0.6290 -0.0010
  518MOL0     C69821   4.486  10.394   9.635 -1.1357  0.5353  0.3559
  518MOL0     C69822   4.569  10.392   9.518 -0.8853  0.5041 -1.3751
  518MOL0     C69823   4.544  10.495   9.431  0.6461  0.0689  0.2683
  518MOL0     C69824   4.681  10.300   9.508  0.8433 -0.0846 -0.1326
  518MOL0     C69825   4.771  10.284   9.398  0.5445  0.1065  0.4527
  518MOL0     O69826   4.895  10.244   9.433  0.3493 -0.5561  0.0629
  518MOL0     C69827   4.979  10.204   9.329 -0.0491  1.1264 -0.1256
  518MOL0     C69828   5.037  10.301   9.249 -0.0821 -0.4629  1.2855
  518MOL0     C69829   5.127  10.266   9.152 -0.2627  0.2466 -0.1125
  518MOL0     C69830   5.175  10.132   9.145 -0.5479 -0.4754 -0.2988
  518MOL0     O69831   5.274  10.081   9.053  0.8654 -1.3033  0.2236
  518MOL0     C69832   5.381  10.165   9.005  0.4532 -0.1645 -0.4348
  518MOL0     C69833   5.321  10.243   8.892  0.1116  1.4859  0.5444
  518MOL0     C69834   5.411  10.374   8.860  0.3358  0.2288  0.1960
  518MOL0     C69835   5.373  10.446   8.731 -0.1656  0.1843  0.4849
  518MOL0     C69836   5.452  10.574   8.686  0.2804 -0.1544  0.2527
  518MOL0     C69837   5.368  10.647   8.584  0.1482  0.2870 -0.1737
  518MOL0     C69838   5.271  10.736   8.666 -0.8709 -1.2333  0.5365
  518MOL0     C69839   5.213  10.842   8.567 -0.2164  0.3801  1.0973
  518MOL0    Cl69840   5.156  10.749   8.426  0.1679 -0.5363 -0.0629
  518MOL0     C69841   5.115  10.034   9.230  0.1255  0.7391  0.0678
  518MOL0     C69842   5.019  10.071   9.332 -0.9921  0.1311 -0.5791
  518MOL0     O69843   4.729  10.296   9.276  0.0774  0.9581 -0.3288
  518MOL0     C69844   4.707  10.217   9.613 -0.5281 -0.2873  0.4668
  518MOL0     C69845   4.613  10.210   9.721  0.1877  0.0270 -0.7571
  518MOL0     N69846   3.884  10.086  10.205  0.0860  0.1782  0.3427
  518MOL0     N69847   3.902   9.966  10.251  0.0748 -0.1707 -0.4396
  518MOL0     C69848   3.127   9.807  10.838 -0.0047  0.4360 -0.2485
  518MOL0     C69849   3.015   9.720  10.860 -0.2803 -0.0065  0.3101
  518MOL0     C69850   2.831   9.300  10.868  0.1857 -0.1806 -0.3068
  518MOL0     C69851   2.834   9.162  10.836 -0.7751 -0.2372 -0.1043
  518MOL0     C69852   2.722   9.080  10.857 -0.2660  0.6344  0.3294
  518MOL0     C69853   2.611   9.139  10.912  0.3710 -0.1721 -1.0877
  518MOL0     O69854   2.495   9.078  10.951 -0.3091  0.4021  0.1754
  518MOL0     C69855   2.465   8.950  10.886 -0.6878 -0.7133  0.0399
  518MOL0     C69856   2.320   8.898  10.926 -0.6329  0.6410 -0.7422
  518MOL0     C69857   2.338   8.814  11.061 -0.1700 -0.1567 -0.1206
  518MOL0     C69858   2.284   8.674  11.062 -1.3128 -0.3208 -0.2221
  518MOL0     C69859   2.359   8.588  10.978  0.7266 -0.0560 -0.4854
  518MOL0     C69860   2.440   8.535  10.907 -0.2221  0.0629  1.0382
  518MOL0     C69861   2.605   9.280  10.947  1.1294  0.1985  0.0686
  518MOL0     C69862   2.720   9.352  10.932 -1.4365 -0.0084 -0.0390
  518MOL0     H69863   3.187   9.436  10.925  1.3602  0.0552 -1.9404
  518MOL0     H69864   3.375   9.576  10.909 -1.0233 -0.3959  3.0288
  518MOL0     H69865   3.554   9.767  10.936  1.1426  0.6940 -0.6737
  518MOL0     H69866   3.510   9.680  10.788  1.1865 -0.3202  0.1392
  518MOL0     H69867   3.588   9.859  10.654 -0.0628  0.5559  0.5007
  518MOL0     H69868   3.612   9.961  10.804 -1.1199  0.6752 -0.3597
  518MOL0     H69869   3.776   9.761  10.863 -0.4264 -1.5305 -1.0558
  518MOL0     H69870   3.746   9.695  10.707 -1.3715  1.5569 -2.6554
  518MOL0     H69871   3.811   9.977  10.646 -1.3078  0.8492  0.0325
  518MOL0     H69872   3.903   9.935  10.784 -2.6470  1.5399  0.8215
  518MOL0     H69873   4.028   9.757  10.665  0.2675  0.7629  1.0070
  518MOL0     H69874   3.900   9.761  10.535 -1.1202  1.0520 -1.3965
  518MOL0     H69875   3.976   9.995  10.486  2.6279  1.0194 -0.7920
  518MOL0     H69876   4.080  10.001  10.626  1.5162 -2.3322  2.8202
  518MOL0     H69877   4.224   9.979  10.460 -1.1392 -0.4785 -0.9039
  518MOL0     H69878   4.217   9.809  10.511 -0.5746 -2.3154 -2.1774
  518MOL0     H69879   4.029   9.770  10.347 -1.3722  1.0810  0.0964
  518MOL0     H69880   4.182   9.808  10.263 -1.7990 -1.3928  0.3553
  518MOL0     H69881   4.208  10.054  10.154 -0.6465 -3.1294 -3.8922
  518MOL0     H69882   3.922  10.312  10.060 -0.4047 -0.8527 -2.3891
  518MOL0     H69883   4.079  10.330  10.135 -2.0911 -0.8889  3.8619
  518MOL0     H69884   4.044  10.326   9.873 -0.8032 -1.1869 -0.6783
  518MOL0     H69885   4.034  10.149   9.891  1.6468 -1.2355  0.0808
  518MOL0     H69886   4.249  10.117   9.891  1.5688  0.6161 -0.6829
  518MOL0     H69887   4.259  10.234  10.031  3.7141 -0.0201 -1.2629
  518MOL0     H69888   4.272  10.417   9.883  1.7040  0.6742 -2.0271
  518MOL0     H69889   4.257  10.320   9.740 -0.5004 -2.4947 -0.3226
  518MOL0     H69890   4.407  10.468   9.644 -0.0369  2.0027 -1.3737
  518MOL0     H69891   4.562  10.459   9.329  0.5877  0.2564  0.1899
  518MOL0     H69892   4.440  10.523   9.450  0.0717 -2.0663  0.4467
  518MOL0     H69893   4.612  10.578   9.453 -1.1313  1.3178  1.3851
  518MOL0     H69894   5.005  10.405   9.257 -2.3916 -1.0989  0.9672
  518MOL0     H69895   5.166  10.354   9.102 -3.0750  1.1932 -0.7787
  518MOL0     H69896   5.412  10.237   9.081 -2.7008  1.3194 -0.4402
  518MOL0     H69897   5.457  10.093   8.972  1.3482  0.5301  0.0515
  518MOL0     H69898   5.340  10.185   8.800  1.6790 -1.1802  2.3965
  518MOL0     H69899   5.214  10.258   8.909 -0.7659 -2.7865 -0.0467
  518MOL0     H69900   5.510  10.332   8.840  0.9670  2.2801 -1.3282
  518MOL0     H69901   5.421  10.442   8.944  0.2250 -1.1972  1.3975
  518MOL0     H69902   5.368  10.371   8.652 -0.9998  0.4010  0.3249
  518MOL0     H69903   5.269  10.480   8.733 -0.4441 -0.6475  0.7717
  518MOL0     H69904   5.553  10.551   8.649  1.0723  0.4198  1.9509
  518MOL0     H69905   5.463  10.639   8.773  0.2299 -1.4285  1.2462
  518MOL0     H69906   5.433  10.713   8.526  0.0016  1.8096  1.3212
  518MOL0     H69907   5.325  10.587   8.504 -0.3485  0.8450 -0.3363
  518MOL0     H69908   5.330  10.790   8.740  0.2458 -0.4608 -0.8671
  518MOL0     H69909   5.185  10.686   8.711 -2.4230  1.4208  0.7510
  518MOL0     H69910   5.293  10.909   8.533  1.8634 -1.7048  1.6508
  518MOL0     H69911   5.135  10.907   8.606 -0.6240  2.0024 -2.0491
  518MOL0     H69912   5.151   9.931   9.231 -1.3012  0.1663 -1.1382
  518MOL0     H69913   4.970   9.996   9.393  0.2411 -0.1566  0.0892
  518MOL0     H69914   4.785  10.141   9.606  1.1222  1.4480 -1.2481
  518MOL0     H69915   4.636  10.133   9.794 -0.2676 -0.5252 -1.1961
  518MOL0     H69916   3.112   9.910  10.805 -1.0658  0.5733  0.5710
  518MOL0     H69917   2.920   9.746  10.813  0.8622  1.7487 -1.1826
  518MOL0     H69918   2.922   9.124  10.785 -1.1004 -0.6789 -0.3479
  518MOL0     H69919   2.735   8.973  10.842  2.4489  0.5995  2.1649
  518MOL0     H69920   2.465   8.984  10.782  0.3518 -1.9506 -0.3879
  518MOL0     H69921   2.540   8.871  10.895  1.2168  1.2175  2.5652
  518MOL0     H69922   2.293   8.832  10.844  2.2702  1.5795 -2.6184
  518MOL0     H69923   2.247   8.979  10.936 -0.6686  0.4338  1.0099
  518MOL0     H69924   2.278   8.869  11.134  0.0267 -0.0101 -0.0689
  518MOL0     H69925   2.437   8.812  11.106 -0.4181 -2.8325  0.4340
  518MOL0     H69926   2.183   8.672  11.019 -0.7191 -0.0940 -1.7125
  518MOL0     H69927   2.282   8.638  11.165 -0.3209  0.0234 -0.0716
  518MOL0     H69928   2.511   8.488  10.842 -0.8157 -1.6391  1.5608
  518MOL0     H69929   2.515   9.332  10.977  0.1466 -2.5081  2.1916
  518MOL0     H69930   2.710   9.457  10.958 -0.1962  0.8063 -2.5483
  519MOL0     O69931   2.780   5.555   4.257  0.0483  0.3338 -0.4416
  519MOL0     C69932   2.797   5.570   4.138 -1.2982  0.0443  0.1251
  519MOL0     O69933   2.867   5.682   4.075  0.1117  0.5577 -0.5456
  519MOL0     C69934   2.875   5.796   4.155 -0.6207 -0.1457 -0.3882
  519MOL0     C69935   2.985   5.814   4.235 -0.1455 -0.0060 -0.3509
  519MOL0     C69936   3.008   5.930   4.306  0.2037  0.5718  0.1704
  519MOL0     C69937   2.914   6.033   4.281 -0.1603 -0.2801 -0.6350
  519MOL0     O69938   2.925   6.157   4.354 -0.0591  0.2250 -0.0378
  519MOL0     C69939   3.014   6.254   4.292 -0.0990 -0.9435  0.3328
  519MOL0     C69940   3.118   6.307   4.396 -0.2759  0.9762 -0.4837
  519MOL0     C69941   3.260   6.336   4.326 -0.6551  0.0586  0.0440
  519MOL0     C69942   3.240   6.441   4.219  0.6113 -0.9029 -0.3288
  519MOL0     C69943   3.366   6.534   4.181  0.0648  0.2206 -0.4910
  519MOL0     C69944   3.320   6.655   4.108 -0.3588  0.3154 -0.0099
  519MOL0     C69945   3.440   6.755   4.089 -1.0546  0.5729 -0.4660
  519MOL0     C69946   3.401   6.897   4.043  0.7743 -0.9482  0.2798
  519MOL0     N69947   3.306   6.900   3.934  0.5104  1.0026  0.1581
  519MOL0     C69948   3.308   6.840   3.804  0.3119 -0.4809 -0.3564
  519MOL0     C69949   3.181   6.833   3.766  0.0821 -0.0880  0.5133
  519MOL0     C69950   3.104   6.765   3.657 -0.3102  0.0910  0.1467
  519MOL0     C69951   3.152   6.802   3.510 -0.0513  0.4040  0.2427
  519MOL0     C69952   3.067   6.737   3.401 -0.5009 -0.2573  0.0976
  519MOL0     C69953   3.147   6.756   3.270  0.0082 -0.2491  1.4261
  519MOL0     O69954   3.150   6.892   3.228  0.1443 -0.4637  0.1999
  519MOL0     C69955   3.253   6.924   3.144 -0.0978  0.0898 -0.6156
  519MOL0     C69956   3.385   6.917   3.184  0.1443  0.0698  0.3724
  519MOL0     C69957   3.483   6.992   3.111 -0.0927  0.2904 -0.2506
  519MOL0     C69958   3.625   6.993   3.175 -0.2546  1.0276 -0.0186
  519MOL0     C69959   3.444   7.050   2.992 -0.2331 -0.2866 -0.0234
  519MOL0     C69960   3.550   7.118   2.905  0.4464 -1.1394 -0.1376
  519MOL0     O69961   3.494   7.181   2.806 -0.2990 -0.0044 -0.0745
  519MOL0     C69962   3.568   7.239   2.708 -0.3222  0.3358 -0.5268
  519MOL0     C69963   3.586   7.159   2.596 -0.2295 -0.0411 -0.1763
  519MOL0     C69964   3.678   7.191   2.497  0.5355  0.1316  0.2830
  519MOL0     C69965   3.761   7.304   2.508 -0.3199 -0.2746 -0.1368
  519MOL0     O69966   3.859   7.345   2.423  0.0000 -0.4695  0.0681
  519MOL0     C69967   3.813   7.360   2.284  0.3966 -0.1205 -0.4346
  519MOL0     C69968   3.924   7.331   2.181 -0.0566 -0.9206  0.4180
  519MOL0     C69969   3.961   7.183   2.187 -0.8800 -0.8822  0.2282
  519MOL0     C69970   3.860   7.103   2.094  0.0878 -0.3633 -0.3959
  519MOL0     C69971   3.905   6.954   2.087  0.5983 -0.7149 -0.1636
  519MOL0     C69972   3.914   6.920   1.943 -0.5462  0.0508  0.4732
  519MOL0     C69973   3.908   6.775   1.920 -0.2174  0.2239  0.3756
  519MOL0     C69974   3.846   6.752   1.785  0.0584 -0.4399  0.4674
  519MOL0    Cl69975   3.671   6.768   1.805  0.3421  0.1029  0.1215
  519MOL0     C69976   3.757   7.375   2.626 -0.2861  1.0451  0.3769
  519MOL0     C69977   3.651   7.347   2.722  0.8330 -0.6339 -0.0064
  519MOL0     O69978   3.670   7.112   2.923 -0.6982 -0.1640 -0.8336
  519MOL0     C69979   3.309   7.045   2.946 -0.2324  0.3559 -0.1772
  519MOL0     C69980   3.209   6.976   3.024 -0.4979  0.9332  0.3115
  519MOL0     N69981   3.110   6.911   3.846 -0.3704  0.1736  0.0214
  519MOL0     N69982   3.175   6.930   3.952 -0.3586 -0.7023 -0.5485
  519MOL0     C69983   2.798   6.023   4.204  0.1124  0.8099  0.7363
  519MOL0     C69984   2.781   5.895   4.141  0.1904  0.1306  0.0842
  519MOL0     C69985   2.761   5.459   4.054  0.6616  0.1722  0.2778
  519MOL0     C69986   2.836   5.438   3.939  0.9917  0.3156  0.3238
  519MOL0     C69987   2.795   5.332   3.855 -0.2946 -0.0690 -0.6633
  519MOL0     C69988   2.706   5.231   3.890 -0.3647 -1.2154 -0.3788
  519MOL0     O69989   2.681   5.143   3.793 -0.3364 -0.0488  0.1621
  519MOL0     C69990   2.622   5.019   3.816  0.2455 -1.0529 -0.2953
  519MOL0     C69991   2.669   4.921   3.710 -0.4440 -0.5747  0.6818
  519MOL0     C69992   2.822   4.897   3.717 -0.4110  0.0870 -0.9167
  519MOL0     C69993   2.867   4.815   3.846 -0.3000  0.0303  0.4413
  519MOL0     C69994   2.896   4.918   3.944 -0.0466  0.1953 -0.1520
  519MOL0     C69995   2.898   4.992   4.041 -0.0960 -0.2687  0.1255
  519MOL0     C69996   2.630   5.260   4.004  0.1308  0.0792  0.1863
  519MOL0     C69997   2.653   5.366   4.091  0.6732 -0.0596  0.6807
  519MOL0     H69998   3.062   5.739   4.254  0.4496  0.9283  1.1128
  519MOL0     H69999   3.084   5.931   4.383  1.0311  0.0023 -0.6196
  519MOL0     H70000   3.081   6.198   4.227 -1.3568 -3.1016  0.8185
  519MOL0     H70001   2.967   6.344   4.251  2.0146  1.2832  2.3851
  519MOL0     H70002   3.088   6.390   4.460  4.1383 -0.1543  3.5934
  519MOL0     H70003   3.144   6.223   4.461  0.6087  0.9031 -0.9176
  519MOL0     H70004   3.319   6.388   4.402  1.2711  0.3857 -1.6013
  519MOL0     H70005   3.306   6.242   4.295 -1.3276 -0.6138  1.0066
  519MOL0     H70006   3.212   6.393   4.125  1.4313 -0.0220 -1.0469
  519MOL0     H70007   3.166   6.510   4.259 -0.3121 -0.6859 -2.2714
  519MOL0     H70008   3.420   6.562   4.272 -2.2044  0.3211  0.9091
  519MOL0     H70009   3.426   6.467   4.119 -0.1766 -0.1600 -0.3180
  519MOL0     H70010   3.265   6.630   4.016 -1.6471 -2.1084  1.3287
  519MOL0     H70011   3.245   6.704   4.171 -1.7243 -0.3371 -1.0762
  519MOL0     H70012   3.480   6.766   4.190 -0.7434  3.1430 -0.7993
  519MOL0     H70013   3.524   6.705   4.039  0.4921 -1.8901  3.9855
  519MOL0     H70014   3.491   6.955   4.024 -0.3985  1.7864  2.3226
  519MOL0     H70015   3.361   6.959   4.124  0.5000 -0.3059 -0.3391
  519MOL0     H70016   3.397   6.798   3.757  0.5699 -2.0892  1.4322
  519MOL0     H70017   3.121   6.659   3.678 -0.0453  0.3676  1.4310
  519MOL0     H70018   2.999   6.790   3.669 -0.0683  0.4100  1.8189
  519MOL0     H70019   3.258   6.778   3.509 -0.1279 -0.1414  2.1904
  519MOL0     H70020   3.146   6.911   3.507  0.3135  0.5808  3.0439
  519MOL0     H70021   2.963   6.768   3.390 -0.5053 -0.5369 -0.7111
  519MOL0     H70022   3.060   6.632   3.430  1.2555 -0.1890  0.9398
  519MOL0     H70023   3.093   6.700   3.193  1.4277  0.8956 -0.4921
  519MOL0     H70024   3.244   6.705   3.263 -0.5356 -1.0385 -3.5944
  519MOL0     H70025   3.407   6.864   3.276 -0.8657 -0.9101  0.0713
  519MOL0     H70026   3.682   7.086   3.191 -0.1252  1.5879 -3.0679
  519MOL0     H70027   3.596   6.969   3.277  0.7643  1.8917  0.5030
  519MOL0     H70028   3.686   6.912   3.135 -0.1731  0.4739  1.1933
  519MOL0     H70029   3.529   7.068   2.581  0.0019 -0.1902 -0.1495
  519MOL0     H70030   3.701   7.126   2.413  0.3599  1.2638 -0.6648
  519MOL0     H70031   3.720   7.309   2.259  0.7907 -0.6369 -0.8877
  519MOL0     H70032   3.773   7.461   2.271 -2.1580 -0.8472  1.1476
  519MOL0     H70033   3.903   7.368   2.081  0.6638 -0.7605  0.3186
  519MOL0     H70034   4.015   7.382   2.215  1.0508 -1.2371 -1.9288
  519MOL0     H70035   3.977   7.145   2.288 -3.6356  1.7269  1.8173
  519MOL0     H70036   4.048   7.155   2.127 -2.2876  3.2543 -4.4527
  519MOL0     H70037   3.759   7.113   2.136  1.3638  1.3517  2.6270
  519MOL0     H70038   3.858   7.149   1.995  0.9836 -0.7643 -0.6110
  519MOL0     H70039   3.829   6.896   2.140  1.1523 -1.9298 -0.6464
  519MOL0     H70040   4.002   6.948   2.138  0.6723  1.9630  0.1265
  519MOL0     H70041   3.830   6.963   1.887 -1.6023 -1.8663  0.5012
  519MOL0     H70042   3.999   6.962   1.889 -1.0084  1.4967  0.8172
  519MOL0     H70043   3.853   6.716   1.994  1.8551 -1.1936  0.8586
  519MOL0     H70044   4.011   6.737   1.915 -0.5917 -0.8746  0.6834
  519MOL0     H70045   3.880   6.651   1.760  2.9874  0.0948  1.9089
  519MOL0     H70046   3.881   6.828   1.715 -0.4644  2.9761  3.6264
  519MOL0     H70047   3.833   7.452   2.635 -0.8984  1.8784 -1.1875
  519MOL0     H70048   3.633   7.396   2.817 -1.5932 -0.5983 -0.4221
  519MOL0     H70049   3.281   7.098   2.855 -0.1492  3.3212  1.4120
  519MOL0     H70050   3.108   6.966   2.985 -0.4178 -0.9432  0.4987
  519MOL0     H70051   2.721   6.098   4.193 -1.2914 -0.9542 -2.8167
  519MOL0     H70052   2.690   5.887   4.082 -1.3073  3.8894  1.5684
  519MOL0     H70053   2.919   5.502   3.912  0.0236  3.2598  3.6271
  519MOL0     H70054   2.839   5.314   3.758 -0.8315 -1.0779 -0.7403
  519MOL0     H70055   2.630   4.995   3.923  0.4880  2.0924  0.5047
  519MOL0     H70056   2.515   5.034   3.801  0.3720 -0.7153 -0.9010
  519MOL0     H70057   2.663   4.964   3.610  1.3766  2.8608  1.8890
  519MOL0     H70058   2.608   4.831   3.700  0.3949 -1.1278  0.3391
  519MOL0     H70059   2.874   4.993   3.707 -0.5258  0.8979  3.8376
  519MOL0     H70060   2.851   4.846   3.625 -3.6444  0.0104 -2.0017
  519MOL0     H70061   2.959   4.759   3.824 -0.2735 -0.0439  0.7466
  519MOL0     H70062   2.797   4.737   3.876  1.4538 -2.2613 -1.0261
  519MOL0     H70063   2.905   5.072   4.112 -0.6042 -2.0914  2.3498
  519MOL0     H70064   2.545   5.199   4.033 -0.0378  0.8272  1.2923
  519MOL0     H70065   2.594   5.401   4.175  3.7358  1.8561  2.1940
  520MOL0     O70066   9.241  11.292   3.905 -0.4582 -0.3389  0.4691
  520MOL0     C70067   9.284  11.375   3.981 -0.9062  0.0104 -0.4051
  520MOL0     O70068   9.219  11.435   4.080  0.6577  0.2222 -0.1750
  520MOL0     C70069   9.081  11.429   4.098 -1.6944 -0.2977 -0.0906
  520MOL0     C70070   9.034  11.490   4.219 -0.1828 -0.8681  1.3488
  520MOL0     C70071   8.895  11.495   4.251 -1.1304  0.1286 -1.1191
  520MOL0     C70072   8.804  11.432   4.168  0.3174 -0.1464 -0.2448
  520MOL0     O70073   8.665  11.456   4.176 -0.3153 -0.5434  0.4252
  520MOL0     C70074   8.608  11.494   4.298  0.6297  0.1791 -0.0734
  520MOL0     C70075   8.569  11.362   4.365 -0.4413  0.4552 -0.1003
  520MOL0     C70076   8.499  11.371   4.506 -0.5956 -0.1469  0.5414
  520MOL0     C70077   8.450  11.233   4.550  0.1589  0.1532 -0.2766
  520MOL0     C70078   8.366  11.248   4.686  1.2637 -0.0406  0.0176
  520MOL0     C70079   8.455  11.279   4.804 -0.0862 -0.6097 -0.0751
  520MOL0     C70080   8.368  11.332   4.930  0.1254  0.5330 -0.2778
  520MOL0     C70081   8.305  11.210   5.002 -0.8628  0.1775  0.5163
  520MOL0     N70082   8.170  11.161   4.963  0.0594  0.3453  0.2547
  520MOL0     C70083   8.047  11.213   5.002  0.7433  0.3505 -0.3304
  520MOL0     C70084   7.955  11.122   4.958  0.0550 -0.3815  0.4084
  520MOL0     C70085   7.808  11.143   4.982  0.4126  0.3509  1.2436
  520MOL0     C70086   7.701  11.096   4.877  0.0188  0.9896  0.6206
  520MOL0     C70087   7.551  11.113   4.920  0.3362 -0.1248 -0.3761
  520MOL0     C70088   7.465  11.065   4.806  0.5901  0.6773  0.2127
  520MOL0     O70089   7.353  11.001   4.864 -0.3569 -0.3217 -0.1550
  520MOL0     C70090   7.244  11.075   4.897 -0.0528 -0.0698  0.2850
  520MOL0     C70091   7.235  11.217   4.918  0.1623  0.3196 -0.1767
  520MOL0     C70092   7.119  11.280   4.964 -0.2269  1.0726  0.6779
  520MOL0     C70093   7.119  11.428   4.962  0.3811  0.0939  0.6337
  520MOL0     C70094   7.002  11.203   4.983  0.9114  1.3560  0.6321
  520MOL0     C70095   6.866  11.249   5.020  0.2599  0.4766  0.0525
  520MOL0     O70096   6.790  11.162   5.103  0.1722 -0.0817 -0.1312
  520MOL0     C70097   6.685  11.214   5.160  0.2445  0.1200 -1.1697
  520MOL0     C70098   6.574  11.248   5.084  0.1573  0.2708  0.8149
  520MOL0     C70099   6.456  11.314   5.132 -0.8196  1.3590  0.0756
  520MOL0     C70100   6.448  11.341   5.266 -0.6188  0.0205  0.3181
  520MOL0     O70101   6.355  11.417   5.325 -0.0817  0.4486 -0.1243
  520MOL0     C70102   6.240  11.464   5.254 -0.3002 -0.2277  0.3271
  520MOL0     C70103   6.146  11.518   5.354 -0.3434  0.2357  0.4432
  520MOL0     C70104   6.019  11.584   5.288  0.0581 -0.5406  0.2255
  520MOL0     C70105   5.919  11.461   5.251 -0.2282 -0.3019 -0.8837
  520MOL0     C70106   5.778  11.520   5.233  0.2840  0.3688 -0.0020
  520MOL0     C70107   5.685  11.421   5.159  0.5015 -0.4468 -0.4513
  520MOL0     C70108   5.667  11.285   5.230 -0.1840  0.2659  0.0706
  520MOL0     C70109   5.526  11.226   5.215  0.4299  0.9314 -0.2758
  520MOL0    Cl70110   5.415  11.301   5.340  0.1256  0.5118  0.2494
  520MOL0     C70111   6.565  11.320   5.350  0.0991  0.3934 -0.0719
  520MOL0     C70112   6.676  11.246   5.295  0.4505 -0.1506 -0.4535
  520MOL0     O70113   6.820  11.347   4.960  0.6363  0.0944 -0.0534
  520MOL0     C70114   7.010  11.060   4.963 -0.0419 -0.4706 -0.3436
  520MOL0     C70115   7.132  11.000   4.934 -0.3972  1.2547  0.3438
  520MOL0     N70116   8.016  11.026   4.889  0.3766  0.5754 -0.1127
  520MOL0     N70117   8.146  11.043   4.894  0.7507  0.0171  0.7445
  520MOL0     C70118   8.846  11.375   4.052 -0.4797 -0.3544  0.7407
  520MOL0     C70119   8.984  11.373   4.016  0.2630 -0.3179 -0.0099
  520MOL0     C70120   9.431  11.416   3.962 -0.0504 -0.0627  0.0566
  520MOL0     C70121   9.473  11.528   4.041  0.3102 -0.1014 -0.1655
  520MOL0     C70122   9.607  11.569   4.029  0.6951  1.1905  0.6339
  520MOL0     C70123   9.699  11.503   3.941  0.7338  0.4607 -0.0669
  520MOL0     O70124   9.817  11.570   3.925  0.8440 -0.6879 -0.5143
  520MOL0     C70125   9.929  11.483   3.916 -0.5558  1.1443 -0.9410
  520MOL0     C70126  10.067  11.558   3.906  0.5105  0.5560  0.5092
  520MOL0     C70127  10.044  11.676   3.806  0.2499  0.3250 -0.1672
  520MOL0     C70128  10.176  11.728   3.743  0.9524  0.3429  0.3055
  520MOL0     C70129  10.268  11.753   3.850  0.4862  1.2535  0.8137
  520MOL0     C70130  10.353  11.778   3.926 -0.3127  0.5028 -1.1917
  520MOL0     C70131   9.658  11.385   3.868  0.7839  0.5847 -0.4649
  520MOL0     C70132   9.526  11.349   3.873  1.3433  0.4668  0.2224
  520MOL0     H70133   9.094  11.529   4.300 -0.5830 -1.4991  1.9676
  520MOL0     H70134   8.879  11.537   4.350 -0.9746  1.6990 -1.7499
  520MOL0     H70135   8.671  11.561   4.356  0.4053 -1.4176  2.1552
  520MOL0     H70136   8.514  11.547   4.277  0.0095 -0.9969 -0.4064
  520MOL0     H70137   8.506  11.308   4.293  0.8773  1.9628 -2.5006
  520MOL0     H70138   8.655  11.299   4.390 -1.1772 -0.1390  1.0213
  520MOL0     H70139   8.571  11.416   4.574  0.7474 -2.4924  0.7906
  520MOL0     H70140   8.415  11.441   4.502  0.8886  1.7601  1.4833
  520MOL0     H70141   8.385  11.186   4.476 -1.0346 -0.7847  1.3155
  520MOL0     H70142   8.529  11.159   4.562 -1.2042 -1.4796 -0.9119
  520MOL0     H70143   8.292  11.327   4.668  3.1590  1.8069  0.0345
  520MOL0     H70144   8.319  11.149   4.694  2.0853 -0.4304  0.1262
  520MOL0     H70145   8.515  11.190   4.827  0.8868 -0.2299 -1.0523
  520MOL0     H70146   8.530  11.358   4.792  0.3890 -1.1674 -0.8673
  520MOL0     H70147   8.432  11.381   5.004  1.2882 -0.5060 -0.5601
  520MOL0     H70148   8.290  11.406   4.909  0.1020  0.9313  1.0918
  520MOL0     H70149   8.300  11.244   5.106 -2.5834 -0.4635  0.6821
  520MOL0     H70150   8.369  11.122   5.014 -2.3571 -0.9581  0.5064
  520MOL0     H70151   8.037  11.299   5.066 -1.6030 -0.7409  0.8913
  520MOL0     H70152   7.782  11.094   5.076 -1.8605 -1.1324 -0.0544
  520MOL0     H70153   7.788  11.251   4.983 -1.1214  0.3035 -2.7254
  520MOL0     H70154   7.721  10.989   4.876 -0.4358  0.8205  3.2941
  520MOL0     H70155   7.717  11.139   4.777  3.4902  0.3128  0.7463
  520MOL0     H70156   7.531  11.211   4.964  0.0260 -0.2490 -0.2340
  520MOL0     H70157   7.538  11.035   4.995  0.0175  0.9577  0.7173
  520MOL0     H70158   7.519  10.983   4.757  0.3276 -0.2847  1.4877
  520MOL0     H70159   7.437  11.145   4.737 -0.9670 -1.5463 -1.9353
  520MOL0     H70160   7.327  11.275   4.914 -0.2910  0.9979 -2.0598
  520MOL0     H70161   7.217  11.473   4.944 -1.4083  3.2334 -2.6140
  520MOL0     H70162   7.049  11.454   4.881 -2.1152 -4.1475  1.0980
  520MOL0     H70163   7.084  11.479   5.052 -2.6020  2.2627 -1.5670
  520MOL0     H70164   6.583  11.229   4.978  0.3054  0.1867  0.8430
  520MOL0     H70165   6.387  11.341   5.053 -1.2824 -0.0652 -0.0234
  520MOL0     H70166   6.279  11.546   5.193  0.9055 -1.5860 -0.7790
  520MOL0     H70167   6.188  11.389   5.194 -0.2120 -0.0713  0.0509
  520MOL0     H70168   6.117  11.428   5.410 -0.4401  1.9670  3.3910
  520MOL0     H70169   6.205  11.584   5.419  0.2038 -0.8478  1.0815
  520MOL0     H70170   6.026  11.639   5.193 -1.9394  0.5114  0.6162
  520MOL0     H70171   5.958  11.648   5.353  1.6596 -0.1760  1.4329
  520MOL0     H70172   5.954  11.410   5.160  0.6066 -1.3659  0.0041
  520MOL0     H70173   5.919  11.385   5.330 -0.1435  0.5706 -0.0280
  520MOL0     H70174   5.794  11.613   5.176  2.0960  0.4517  0.5764
  520MOL0     H70175   5.733  11.539   5.330 -0.0936  0.4446 -0.1919
  520MOL0     H70176   5.587  11.467   5.143  0.5235 -0.9153 -2.1877
  520MOL0     H70177   5.708  11.409   5.053  0.5736 -1.2462 -0.3512
  520MOL0     H70178   5.691  11.285   5.337  1.5119 -1.3275 -0.2826
  520MOL0     H70179   5.721  11.206   5.178 -1.7171 -0.7046 -0.1060
  520MOL0     H70180   5.508  11.119   5.228  1.7655  0.5995 -1.0113
  520MOL0     H70181   5.492  11.258   5.116 -0.5120 -2.2209 -1.1090
  520MOL0     H70182   6.583  11.359   5.449 -0.6682  0.8425 -0.0999
  520MOL0     H70183   6.770  11.235   5.349 -2.0860  0.6280  4.7118
  520MOL0     H70184   6.922  10.998   4.974 -0.5070  0.1035 -0.7464
  520MOL0     H70185   7.134  10.891   4.943 -2.4283  1.1350 -0.2342
  520MOL0     H70186   8.787  11.326   3.974  1.5329 -0.8830 -0.5193
  520MOL0     H70187   9.011  11.326   3.921  3.3425 -0.1675  0.6616
  520MOL0     H70188   9.410  11.593   4.101 -0.7610  0.1222 -1.4928
  520MOL0     H70189   9.628  11.664   4.077 -0.0220  1.3993  0.5494
  520MOL0     H70190   9.930  11.409   3.997 -1.9515  1.0640 -0.9718
  520MOL0     H70191   9.911  11.421   3.828 -1.5971 -1.6463  1.0736
  520MOL0     H70192  10.142  11.489   3.866  0.1846 -1.2587  2.7728
  520MOL0     H70193  10.093  11.613   3.997 -0.3757  2.0120 -0.0959
  520MOL0     H70194  10.002  11.752   3.873 -0.1943 -1.0879  1.2090
  520MOL0     H70195   9.970  11.646   3.731 -1.8665  5.4439 -0.5626
  520MOL0     H70196  10.161  11.818   3.683 -2.1636  1.2412  2.2173
  520MOL0     H70197  10.224  11.651   3.681  0.1177  0.1173 -0.0752
  520MOL0     H70198  10.418  11.820   3.999 -0.9574  1.6727 -1.2560
  520MOL0     H70199   9.730  11.335   3.805  1.3465 -1.2184  1.4812
  520MOL0     H70200   9.493  11.258   3.824  1.4823 -1.2531  3.0856
  521MOL0     O70201   9.431   7.140   4.789 -0.4292  0.7136 -0.5872
  521MOL0     C70202   9.343   7.121   4.865 -0.0976 -0.7922  0.5118
  521MOL0     O70203   9.262   7.217   4.916  0.2498  0.0282  0.0759
  521MOL0     C70204   9.283   7.348   4.878  0.4338  0.4574  0.0444
  521MOL0     C70205   9.243   7.392   4.750 -0.7996  0.8880 -0.7087
  521MOL0     C70206   9.250   7.527   4.723  0.7496  0.0719  0.7578
  521MOL0     C70207   9.267   7.627   4.820  0.4870 -0.2752  0.8915
  521MOL0     O70208   9.280   7.763   4.804 -0.5527  0.1316  0.2828
  521MOL0     C70209   9.246   7.816   4.674 -0.5436 -0.5707 -1.0104
  521MOL0     C70210   9.212   7.961   4.693 -0.3793 -1.1939  0.4860
  521MOL0     C70211   9.164   8.008   4.559  0.5519  0.8612  0.2817
  521MOL0     C70212   9.017   7.984   4.528 -0.2241  0.0301 -0.0232
  521MOL0     C70213   8.965   8.047   4.395  0.1154 -0.9362 -1.0039
  521MOL0     C70214   9.029   7.998   4.270 -1.8232 -1.0963  0.2136
  521MOL0     C70215   9.005   8.085   4.154 -0.4051  0.2989  0.1168
  521MOL0     C70216   9.104   8.198   4.156  0.3487  0.4787  0.0939
  521MOL0     N70217   9.026   8.312   4.116  0.4302 -0.3870 -0.6747
  521MOL0     C70218   8.915   8.373   4.177  0.1265 -0.4673  0.0698
  521MOL0     C70219   8.858   8.436   4.077  0.6766 -0.4064  0.7872
  521MOL0     C70220   8.731   8.512   4.103  0.0328  0.0104 -0.5749
  521MOL0     C70221   8.743   8.657   4.084  0.0657 -0.2978  0.0843
  521MOL0     C70222   8.649   8.736   4.182 -1.0159  0.5958 -0.5365
  521MOL0     C70223   8.500   8.700   4.176  0.7082 -0.2948 -0.0323
  521MOL0     O70224   8.434   8.790   4.077 -0.0224 -0.2939  0.5839
  521MOL0     C70225   8.359   8.897   4.114 -0.4678  0.4433 -0.1689
  521MOL0     C70226   8.262   8.947   4.025  0.6386 -1.0502  0.0674
  521MOL0     C70227   8.195   9.064   4.056 -0.6155  0.6764 -0.6834
  521MOL0     C70228   8.106   9.125   3.940  0.7216  0.1291 -0.1134
  521MOL0     C70229   8.209   9.127   4.175  0.1700 -0.6766 -1.1465
  521MOL0     C70230   8.120   9.241   4.215 -0.4329  0.1082 -0.1506
  521MOL0     O70231   7.992   9.257   4.183  0.0251 -0.2344  0.1150
  521MOL0     C70232   7.934   9.381   4.192  0.2643 -0.5386 -0.1296
  521MOL0     C70233   7.845   9.407   4.304  0.4310  0.3414  0.1160
  521MOL0     C70234   7.763   9.520   4.300 -0.1615 -0.4712  1.5785
  521MOL0     C70235   7.769   9.615   4.189 -0.5805 -0.1454  0.1398
  521MOL0     O70236   7.681   9.731   4.193 -0.4249  0.3451 -0.1965
  521MOL0     C70237   7.652   9.791   4.065  0.0575 -0.6297 -0.1583
  521MOL0     C70238   7.530   9.883   4.092 -0.6106 -0.7632 -0.0861
  521MOL0     C70239   7.545   9.976   4.202  0.7511 -0.2461 -0.2975
  521MOL0     C70240   7.598  10.112   4.157  0.7329  0.5404  0.5523
  521MOL0     C70241   7.616  10.221   4.263 -0.1819 -0.4194  0.2058
  521MOL0     C70242   7.736  10.188   4.357 -0.0104  0.0998 -0.6202
  521MOL0     C70243   7.739  10.287   4.472  0.0664 -0.0223 -0.1337
  521MOL0     C70244   7.780  10.423   4.429 -0.0297 -0.3751 -0.0845
  521MOL0    Cl70245   7.746  10.523   4.573 -0.2091  0.1190  0.1124
  521MOL0     C70246   7.841   9.573   4.077  0.1425  0.2695  0.2006
  521MOL0     C70247   7.924   9.461   4.076 -0.4190  0.1981 -0.6420
  521MOL0     O70248   8.187   9.328   4.268  0.0441 -0.6660  0.4305
  521MOL0     C70249   8.289   9.062   4.274 -0.6664  0.9704  0.2745
  521MOL0     C70250   8.362   8.954   4.245 -0.7175  0.7796  0.6776
  521MOL0     N70251   8.929   8.422   3.961  0.1827  0.0482 -0.0290
  521MOL0     N70252   9.025   8.338   3.982  0.3168 -0.7443 -0.6706
  521MOL0     C70253   9.291   7.584   4.949  0.3260 -0.6284  0.1909
  521MOL0     C70254   9.305   7.450   4.977  0.3048  0.9172  0.4099
  521MOL0     C70255   9.307   6.983   4.897 -1.4254  0.8277  0.3458
  521MOL0     C70256   9.403   6.881   4.887  0.0250  0.2148 -0.3317
  521MOL0     C70257   9.373   6.747   4.899  1.0826 -0.4896 -0.0401
  521MOL0     C70258   9.244   6.694   4.907  0.3783 -0.3956  0.6115
  521MOL0     O70259   9.227   6.559   4.899 -0.6457  0.5473  0.3993
  521MOL0     C70260   9.093   6.514   4.890  0.2802  0.0754 -0.1598
  521MOL0     C70261   9.103   6.369   4.863  0.1449  0.3306  0.3310
  521MOL0     C70262   8.974   6.292   4.879 -0.5998 -0.7342 -0.5889
  521MOL0     C70263   8.902   6.302   5.014  0.2549 -0.0556  0.1582
  521MOL0     C70264   8.772   6.237   4.987  0.1192 -0.3250 -0.6987
  521MOL0     C70265   8.659   6.192   4.973  0.6305  0.9997  0.6472
  521MOL0     C70266   9.146   6.793   4.901  0.1412 -0.5612  1.0064
  521MOL0     C70267   9.179   6.931   4.905 -0.3002  0.5424 -0.3174
  521MOL0     H70268   9.227   7.320   4.670 -0.6075  0.1549 -0.1047
  521MOL0     H70269   9.225   7.544   4.619 -1.9510 -1.2230  1.0986
  521MOL0     H70270   9.320   7.800   4.596 -0.6623  1.7816 -1.6845
  521MOL0     H70271   9.164   7.759   4.630 -0.9473 -2.6096  2.0843
  521MOL0     H70272   9.131   7.979   4.764  0.3400  0.6171  0.8817
  521MOL0     H70273   9.299   8.023   4.715 -1.2377  0.6541 -1.0295
  521MOL0     H70274   9.196   8.113   4.550  1.5388  0.4299 -1.8650
  521MOL0     H70275   9.224   7.950   4.487  1.5420 -0.9935  2.4793
  521MOL0     H70276   9.004   7.876   4.516 -0.3800 -0.4215  3.3444
  521MOL0     H70277   8.956   8.015   4.613 -0.0472  2.0627 -0.5640
  521MOL0     H70278   8.861   8.014   4.387 -0.7283  0.5160  2.3605
  521MOL0     H70279   8.980   8.155   4.407  0.4975 -1.1946  1.2647
  521MOL0     H70280   9.136   8.008   4.289 -2.2426  0.7965  1.9536
  521MOL0     H70281   8.990   7.900   4.243  1.2657 -2.5379  0.6284
  521MOL0     H70282   9.032   8.033   4.062 -1.1740  1.9006 -1.0468
  521MOL0     H70283   8.900   8.116   4.144  0.3314  3.0218 -0.0343
  521MOL0     H70284   9.181   8.184   4.080  1.5620  0.8998  1.2189
  521MOL0     H70285   9.149   8.209   4.254  0.3059  1.4988  0.0092
  521MOL0     H70286   8.874   8.348   4.274  1.2024 -0.2615  0.5832
  521MOL0     H70287   8.650   8.470   4.042  0.5123 -3.7780  1.1012
  521MOL0     H70288   8.706   8.498   4.209  0.5976 -2.1049 -0.6700
  521MOL0     H70289   8.721   8.686   3.981 -1.3854 -0.4962  0.3223
  521MOL0     H70290   8.839   8.705   4.103 -0.0400 -0.5933  1.4494
  521MOL0     H70291   8.672   8.843   4.178  2.0851  0.1587  2.1984
  521MOL0     H70292   8.693   8.710   4.278 -0.8138  1.0282 -0.5095
  521MOL0     H70293   8.467   8.704   4.280  2.6266 -3.2872  0.8095
  521MOL0     H70294   8.492   8.596   4.142 -1.2049 -0.1632 -0.1093
  521MOL0     H70295   8.261   8.923   3.919  1.4846  3.2286 -1.1064
  521MOL0     H70296   8.080   9.230   3.958  1.3144 -0.0167  1.8962
  521MOL0     H70297   8.149   9.117   3.840  1.8036  0.8793  0.2711
  521MOL0     H70298   8.013   9.069   3.927  0.5568  0.9848 -3.8505
  521MOL0     H70299   7.840   9.347   4.393  1.2202  2.3960  1.6317
  521MOL0     H70300   7.690   9.541   4.378  0.7929 -4.4241  3.8283
  521MOL0     H70301   7.733   9.857   4.032 -1.0334  0.9377  0.1851
  521MOL0     H70302   7.626   9.726   3.981  2.2789 -2.5763  0.5725
  521MOL0     H70303   7.503   9.941   4.004  0.4981 -3.1542 -2.1356
  521MOL0     H70304   7.444   9.817   4.102 -1.7859  0.3906 -2.0113
  521MOL0     H70305   7.605   9.936   4.284  3.0080  2.3363 -0.5411
  521MOL0     H70306   7.446  10.002   4.243 -0.2608  3.2101 -4.2471
  521MOL0     H70307   7.681  10.093   4.088  0.2002 -0.9283  0.2598
  521MOL0     H70308   7.518  10.138   4.087  1.4672  0.2617 -0.4236
  521MOL0     H70309   7.521  10.223   4.318  0.4195  1.1001  1.2595
  521MOL0     H70310   7.621  10.320   4.218 -0.3379 -0.5489 -0.0973
  521MOL0     H70311   7.740  10.089   4.403 -3.3784 -0.1538 -0.6420
  521MOL0     H70312   7.828  10.194   4.297  0.6058  1.5423  0.4210
  521MOL0     H70313   7.793  10.256   4.562  0.8501  3.0426  0.5669
  521MOL0     H70314   7.642  10.296   4.521 -0.9026 -0.1717 -1.9273
  521MOL0     H70315   7.734  10.454   4.335 -1.0961  0.6085  0.7147
  521MOL0     H70316   7.888  10.429   4.413 -0.2886 -0.4808 -2.1077
  521MOL0     H70317   7.853   9.642   3.994  0.9867  1.9937  1.6945
  521MOL0     H70318   7.975   9.425   3.987  1.8038  0.5371  0.4167
  521MOL0     H70319   8.286   9.101   4.375  1.5526 -0.1067  0.8108
  521MOL0     H70320   8.437   8.930   4.319 -1.2914  0.1045  1.0555
  521MOL0     H70321   9.291   7.666   5.021 -4.5635 -1.0831  1.0486
  521MOL0     H70322   9.322   7.409   5.076  2.4605 -1.9426 -1.0105
  521MOL0     H70323   9.508   6.906   4.881 -0.2431  1.6858  0.5665
  521MOL0     H70324   9.454   6.674   4.898  3.0421  1.5552  1.1190
  521MOL0     H70325   9.048   6.533   4.988 -0.6106 -2.2692 -0.0497
  521MOL0     H70326   9.033   6.569   4.817  1.6779  0.4806 -1.0448
  521MOL0     H70327   9.168   6.321   4.938 -1.7031 -1.8101  0.6752
  521MOL0     H70328   9.148   6.358   4.764  1.5709 -0.5728  1.0423
  521MOL0     H70329   8.991   6.186   4.858 -1.6315 -0.7264 -1.5478
  521MOL0     H70330   8.905   6.327   4.802 -2.3962 -2.4901  0.1376
  521MOL0     H70331   8.879   6.407   5.034 -0.1009 -0.1496  0.2420
  521MOL0     H70332   8.948   6.245   5.095 -1.2581 -1.1901  0.2611
  521MOL0     H70333   8.568   6.142   5.000  2.9176 -1.7577  4.2395
  521MOL0     H70334   9.042   6.760   4.904  0.0033 -0.2646 -0.0365
  521MOL0     H70335   9.103   7.007   4.904 -0.1314  0.8198  1.8532
  522MOL0     O70336   0.649   5.917   7.528 -0.5806 -0.1251 -0.0091
  522MOL0     C70337   0.626   5.818   7.462 -0.2131  0.7491  0.6193
  522MOL0     O70338   0.605   5.690   7.504  0.4302  0.5446 -0.2730
  522MOL0     C70339   0.624   5.652   7.631  0.0449  0.8703 -0.2016
  522MOL0     C70340   0.635   5.725   7.748 -0.5255 -0.6873  0.7858
  522MOL0     C70341   0.673   5.671   7.871  0.3169  0.3488  1.2362
  522MOL0     C70342   0.694   5.540   7.883 -0.5331  1.1604  0.3808
  522MOL0     O70343   0.718   5.489   8.007  0.0301  0.0172 -0.0859
  522MOL0     C70344   0.743   5.351   8.023  0.2741 -0.2562  0.6088
  522MOL0     C70345   0.819   5.312   8.151 -0.4336 -1.2865  0.0609
  522MOL0     C70346   0.736   5.322   8.278 -0.7020  0.8889 -0.9116
  522MOL0     C70347   0.719   5.469   8.326  0.7959  0.5183  0.5521
  522MOL0     C70348   0.624   5.481   8.446 -0.7958 -1.0702 -0.0551
  522MOL0     C70349   0.637   5.620   8.520  0.4791 -0.5693  0.3178
  522MOL0     C70350   0.560   5.634   8.657  0.2584  0.2128 -1.0894
  522MOL0     C70351   0.554   5.774   8.721 -0.6130 -0.3699 -0.3056
  522MOL0     N70352   0.480   5.873   8.646 -0.1534  0.2647 -0.1855
  522MOL0     C70353   0.342   5.862   8.621  0.0727 -0.4079  0.5428
  522MOL0     C70354   0.306   5.990   8.566  0.5615 -0.2302  0.6202
  522MOL0     C70355   0.172   6.037   8.512  0.4188  0.7081  0.1815
  522MOL0     C70356   0.129   5.964   8.386 -0.1656 -0.0112 -0.3987
  522MOL0     C70357   0.004   6.022   8.322  0.1406  0.0592  0.7143
  522MOL0     C70358  -0.032   5.953   8.183 -0.2349  0.3478 -0.9754
  522MOL0     O70359  -0.155   6.010   8.152  0.5356 -0.2566  0.0460
  522MOL0     C70360  -0.264   5.950   8.208  0.2951 -0.2187  0.3309
  522MOL0     C70361  -0.285   5.806   8.211 -0.3162 -0.4548 -1.1434
  522MOL0     C70362  -0.410   5.752   8.234  0.3633  0.0996  0.0758
  522MOL0     C70363  -0.429   5.609   8.219  0.4675 -0.1954  0.1088
  522MOL0     C70364  -0.519   5.828   8.276 -0.0822 -0.5508 -0.2277
  522MOL0     C70365  -0.665   5.799   8.307  0.0476  0.4473 -0.4031
  522MOL0     O70366  -0.759   5.897   8.314  0.2389  0.7507 -1.2628
  522MOL0     C70367  -0.890   5.864   8.364 -0.3766  0.0524  0.0970
  522MOL0     C70368  -0.954   5.947   8.455 -0.0356  0.3594  0.3097
  522MOL0     C70369  -1.082   5.927   8.487  0.3589  0.6327  0.3571
  522MOL0     C70370  -1.159   5.821   8.442 -0.9035  0.6387  0.6701
  522MOL0     O70371  -1.287   5.790   8.475  0.5428  0.5155 -0.1585
  522MOL0     C70372  -1.375   5.905   8.463 -0.1555  0.0750  0.2983
  522MOL0     C70373  -1.514   5.852   8.496  0.2690  0.3304 -0.4655
  522MOL0     C70374  -1.559   5.743   8.405 -0.0251 -0.4339 -0.2649
  522MOL0     C70375  -1.712   5.759   8.370 -0.0235  0.3724 -0.1303
  522MOL0     C70376  -1.787   5.662   8.276  0.3573 -1.1056 -0.5508
  522MOL0     C70377  -1.939   5.680   8.289 -0.1714  0.2837 -0.5884
  522MOL0     C70378  -2.015   5.559   8.228  0.4060  1.5006 -1.2837
  522MOL0     C70379  -2.077   5.585   8.092 -0.4282  0.2698  0.0905
  522MOL0    Cl70380  -2.195   5.715   8.085 -0.2740  0.2901  0.3533
  522MOL0     C70381  -1.091   5.734   8.354  0.2197  0.5161  0.4408
  522MOL0     C70382  -0.956   5.756   8.314  0.7582  0.3436  0.3386
  522MOL0     O70383  -0.689   5.681   8.314  0.2460 -0.1696  0.1538
  522MOL0     C70384  -0.496   5.969   8.271 -0.3068  0.0184 -0.7161
  522MOL0     C70385  -0.374   6.032   8.234 -0.3477 -1.1003 -0.3550
  522MOL0     N70386   0.420   6.071   8.555  0.9641 -0.5431 -0.5962
  522MOL0     N70387   0.518   5.999   8.607  0.5632 -0.2521  0.1397
  522MOL0     C70388   0.681   5.455   7.765  0.3322 -0.4029  1.2593
  522MOL0     C70389   0.645   5.511   7.643  1.2545  0.1333  0.2971
  522MOL0     C70390   0.638   5.833   7.310 -0.2676  0.1299  1.0512
  522MOL0     C70391   0.601   5.728   7.222  0.0075  0.3946 -0.4227
  522MOL0     C70392   0.622   5.737   7.084  0.6468 -0.0489 -0.5701
  522MOL0     C70393   0.691   5.847   7.025 -0.2541 -0.0302 -0.7938
  522MOL0     O70394   0.718   5.873   6.899 -0.0978  0.5368 -1.2153
  522MOL0     C70395   0.680   5.777   6.799  0.3748 -0.5860  0.7041
  522MOL0     C70396   0.718   5.833   6.661 -0.4462 -0.2674 -0.3515
  522MOL0     C70397   0.704   5.756   6.541  0.3510 -0.2179 -1.2506
  522MOL0     C70398   0.723   5.844   6.409 -0.1341 -0.0337 -0.3289
  522MOL0     C70399   0.863   5.882   6.390  0.0395 -0.1400 -0.1650
  522MOL0     C70400   0.971   5.932   6.386 -0.2893 -0.5292 -0.0492
  522MOL0     C70401   0.727   5.954   7.110  0.6058  0.4546 -0.0444
  522MOL0     C70402   0.696   5.948   7.254 -0.2264 -0.5329  0.8708
  522MOL0     H70403   0.629   5.834   7.750 -2.3815 -0.7160 -0.2486
  522MOL0     H70404   0.690   5.730   7.960  1.4848  0.8435  0.7092
  522MOL0     H70405   0.646   5.299   8.017 -0.1176  0.4692  0.6021
  522MOL0     H70406   0.814   5.328   7.944 -0.7408  3.1444 -1.4862
  522MOL0     H70407   0.862   5.214   8.129  2.5271 -0.6414  2.2950
  522MOL0     H70408   0.897   5.388   8.161 -1.3840 -0.5642  3.0630
  522MOL0     H70409   0.637   5.277   8.263 -0.6577  0.1882  0.7103
  522MOL0     H70410   0.787   5.269   8.358  0.4861  0.1524 -2.1216
  522MOL0     H70411   0.817   5.512   8.343  1.6108  0.2771 -2.7897
  522MOL0     H70412   0.673   5.539   8.255  0.3911  0.2448  0.5347
  522MOL0     H70413   0.520   5.459   8.421 -2.3872  3.5196  1.4615
  522MOL0     H70414   0.658   5.403   8.515  1.5040 -0.1460 -0.0414
  522MOL0     H70415   0.745   5.632   8.534  1.1488 -3.5434 -1.5375
  522MOL0     H70416   0.595   5.698   8.456  1.0240 -0.7330 -0.2463
  522MOL0     H70417   0.455   5.605   8.651 -0.8359  1.5380  4.9998
  522MOL0     H70418   0.606   5.564   8.728 -3.2890 -0.0189  1.2755
  522MOL0     H70419   0.659   5.804   8.725 -0.2644 -1.6944  1.1837
  522MOL0     H70420   0.525   5.767   8.826 -0.5314 -1.9357 -0.3720
  522MOL0     H70421   0.275   5.778   8.637 -1.4725  1.1992  3.5777
  522MOL0     H70422   0.099   6.031   8.593  2.3072 -0.1361  1.9335
  522MOL0     H70423   0.187   6.143   8.493  1.3197  0.3811 -1.1178
  522MOL0     H70424   0.119   5.855   8.396 -1.3255  0.1235  0.0744
  522MOL0     H70425   0.212   5.981   8.317  1.2978  1.2731  1.5502
  522MOL0     H70426   0.018   6.130   8.308  1.8113 -0.2955 -0.7814
  522MOL0     H70427  -0.079   6.010   8.392 -1.0168  2.6222 -0.0919
  522MOL0     H70428  -0.037   5.847   8.207  0.5272 -0.0117 -2.3133
  522MOL0     H70429   0.044   5.985   8.111  3.4667  1.3749  2.9263
  522MOL0     H70430  -0.209   5.735   8.179 -0.1072 -1.3852  1.2540
  522MOL0     H70431  -0.471   5.583   8.122 -0.1810 -1.0092  0.5985
  522MOL0     H70432  -0.333   5.555   8.224  1.5811  1.5385 -1.3204
  522MOL0     H70433  -0.504   5.571   8.289 -1.3154  0.5162 -1.3566
  522MOL0     H70434  -0.923   6.029   8.518 -1.5126 -0.0841  1.6758
  522MOL0     H70435  -1.128   6.003   8.549  0.8178  1.1488  0.0757
  522MOL0     H70436  -1.343   5.984   8.532  1.6652 -1.4912  1.3253
  522MOL0     H70437  -1.390   5.937   8.359  2.7905 -2.5156 -1.0784
  522MOL0     H70438  -1.518   5.819   8.600 -1.9567  1.5529 -0.1188
  522MOL0     H70439  -1.586   5.934   8.493  1.0255  0.9973 -0.9098
  522MOL0     H70440  -1.547   5.648   8.458  2.6246 -0.8315 -1.4369
  522MOL0     H70441  -1.500   5.740   8.313 -0.2176 -1.9400 -0.3649
  522MOL0     H70442  -1.764   5.757   8.466  0.4611 -1.7681  0.1522
  522MOL0     H70443  -1.726   5.863   8.339  1.7781  0.7365  0.1793
  522MOL0     H70444  -1.752   5.559   8.292 -1.6195 -1.4371  2.7851
  522MOL0     H70445  -1.769   5.695   8.174  0.4689 -0.2688 -0.2731
  522MOL0     H70446  -1.959   5.678   8.397  2.4315 -0.8733 -0.0382
  522MOL0     H70447  -1.966   5.775   8.243  0.4186  1.8314  2.0504
  522MOL0     H70448  -2.106   5.527   8.281  1.3313 -2.2529 -1.6549
  522MOL0     H70449  -1.954   5.468   8.223  0.5777  1.4378  1.0528
  522MOL0     H70450  -2.124   5.494   8.055 -0.4257  0.0630  0.5883
  522MOL0     H70451  -1.992   5.612   8.029  0.0455 -0.6632  0.3223
  522MOL0     H70452  -1.153   5.654   8.313  0.4479  0.9295 -0.7211
  522MOL0     H70453  -0.909   5.691   8.241  2.8368  1.8876  0.1888
  522MOL0     H70454  -0.570   6.042   8.300  0.4790  1.7336 -2.7258
  522MOL0     H70455  -0.349   6.137   8.221  1.5600 -1.1781  2.0756
  522MOL0     H70456   0.677   5.351   7.794 -0.8730 -0.0425  2.5121
  522MOL0     H70457   0.638   5.453   7.551  2.2583 -0.3727  0.5254
  522MOL0     H70458   0.544   5.646   7.265  0.0799 -0.9730 -2.7905
  522MOL0     H70459   0.585   5.663   7.014 -1.6783  0.4575  0.0217
  522MOL0     H70460   0.737   5.684   6.809 -0.6553 -1.2622  0.4294
  522MOL0     H70461   0.579   5.741   6.819  0.5697 -0.3975  2.1260
  522MOL0     H70462   0.819   5.875   6.659 -0.6922  0.3386 -2.4376
  522MOL0     H70463   0.651   5.919   6.649  0.9089  1.0121  0.8924
  522MOL0     H70464   0.606   5.707   6.541 -0.9911  2.1160  1.9344
  522MOL0     H70465   0.785   5.683   6.532 -0.4977 -1.0899 -2.0647
  522MOL0     H70466   0.661   5.933   6.397 -0.8185 -0.6577 -1.6711
  522MOL0     H70467   0.695   5.779   6.326 -2.8883 -0.0344  0.4890
  522MOL0     H70468   1.075   5.958   6.390  0.1112 -1.0556 -3.5981
  522MOL0     H70469   0.768   6.044   7.065 -1.0737  0.8247 -0.9001
  522MOL0     H70470   0.722   6.035   7.313  0.0709 -0.2096  0.2629
  523MOL0     O70471   5.243   0.833   5.969 -0.0128  0.3701 -0.0063
  523MOL0     C70472   5.270   0.757   5.876 -0.4732 -1.0542  0.9475
  523MOL0     O70473   5.389   0.685   5.857  0.4234 -0.4698 -0.2694
  523MOL0     C70474   5.493   0.703   5.939 -0.9707 -0.2944  0.2351
  523MOL0     C70475   5.482   0.722   6.079  0.0858 -0.2195 -1.0536
  523MOL0     C70476   5.595   0.744   6.164 -0.6084 -0.9744 -0.5188
  523MOL0     C70477   5.727   0.740   6.110  0.1510 -0.4899 -0.4128
  523MOL0     O70478   5.844   0.769   6.180  0.1348  0.0408 -0.6904
  523MOL0     C70479   5.855   0.864   6.285  0.0585  0.0289 -0.3642
  523MOL0     C70480   5.977   0.955   6.271  0.9804 -0.0712  0.2714
  523MOL0     C70481   6.116   0.893   6.290  0.0492 -0.4803 -0.3999
  523MOL0     C70482   6.227   0.975   6.226 -0.5173 -0.3920  0.8769
  523MOL0     C70483   6.357   0.901   6.258 -0.7351 -1.0939  0.0496
  523MOL0     C70484   6.467   0.944   6.170 -0.6775  0.0337  0.8466
  523MOL0     C70485   6.598   0.867   6.185  0.1943  0.6364  0.4317
  523MOL0     C70486   6.702   0.899   6.071 -0.1445 -0.0648  0.1928
  523MOL0     N70487   6.828   0.820   6.079  0.2314 -0.7356  0.4402
  523MOL0     C70488   6.887   0.778   6.202  0.0168 -0.0011  0.8721
  523MOL0     C70489   7.006   0.721   6.160  0.0700 -0.3602  0.6544
  523MOL0     C70490   7.116   0.689   6.256  0.5804 -0.5282 -0.3537
  523MOL0     C70491   7.235   0.606   6.207 -0.6643  0.5381  0.3617
  523MOL0     C70492   7.202   0.465   6.164 -0.0128  0.4749  0.0940
  523MOL0     C70493   7.325   0.377   6.156  0.3116 -0.3382 -0.4281
  523MOL0     O70494   7.361   0.325   6.284  0.1060 -0.5480 -0.2835
  523MOL0     C70495   7.453   0.227   6.311  0.4223 -0.4157  0.5499
  523MOL0     C70496   7.464   0.187   6.442  0.2726 -0.0349  1.0625
  523MOL0     C70497   7.550   0.080   6.482  0.7355 -0.5374  0.3219
  523MOL0     C70498   7.564   0.047   6.625 -0.3706  0.6586  0.2975
  523MOL0     C70499   7.623   0.009   6.382  0.9204  0.3179 -0.0345
  523MOL0     C70500   7.724  -0.101   6.414  0.6488 -0.8598 -0.9253
  523MOL0     O70501   7.758  -0.179   6.308 -0.1141 -0.2473  0.0882
  523MOL0     C70502   7.877  -0.246   6.303  0.7720  0.7400  0.7992
  523MOL0     C70503   7.991  -0.193   6.238  0.5372 -0.6442  0.8739
  523MOL0     C70504   8.116  -0.257   6.225  0.0027  0.2963  0.3046
  523MOL0     C70505   8.120  -0.389   6.267 -1.0274 -0.4944 -0.0359
  523MOL0     O70506   8.232  -0.462   6.232 -0.1791 -0.7565  0.2813
  523MOL0     C70507   8.237  -0.597   6.276 -0.6781 -0.2216 -0.5397
  523MOL0     C70508   8.371  -0.663   6.235  0.5496 -0.4342 -0.2683
  523MOL0     C70509   8.378  -0.801   6.307 -0.2220  0.6843  0.6118
  523MOL0     C70510   8.262  -0.896   6.273 -1.2282  1.1453  0.9902
  523MOL0     C70511   8.307  -1.029   6.347  0.2691 -0.0176  0.9532
  523MOL0     C70512   8.259  -1.017   6.496  0.9047  0.3342  0.8767
  523MOL0     C70513   8.219  -1.158   6.554  0.9770  0.1927  0.4814
  523MOL0     C70514   8.093  -1.220   6.489 -0.2112 -0.8075 -0.6196
  523MOL0    Cl70515   8.145  -1.338   6.371 -0.7192  0.3295 -0.0532
  523MOL0     C70516   8.006  -0.451   6.328 -0.8200 -0.0349 -0.3090
  523MOL0     C70517   7.898  -0.380   6.346  0.4498 -0.0177 -0.4189
  523MOL0     O70518   7.774  -0.115   6.523  0.4089  0.1434  0.2211
  523MOL0     C70519   7.603   0.046   6.243 -0.4719  0.4321 -0.0363
  523MOL0     C70520   7.517   0.150   6.206  0.0345 -0.4526 -0.3012
  523MOL0     N70521   7.013   0.740   6.019 -0.7273 -0.0652  0.6337
  523MOL0     N70522   6.904   0.787   5.975 -0.8445  0.2019  0.1380
  523MOL0     C70523   5.741   0.708   5.972  0.3244  0.5018  0.2644
  523MOL0     C70524   5.624   0.695   5.883 -0.3086  0.3414  0.0601
  523MOL0     C70525   5.158   0.728   5.781  0.0483  1.0594 -0.1224
  523MOL0     C70526   5.033   0.782   5.791  0.5346 -0.8115  0.1939
  523MOL0     C70527   4.935   0.753   5.699  0.0955  0.0648 -0.5214
  523MOL0     C70528   4.954   0.658   5.600  0.3201  0.3037 -0.6104
  523MOL0     O70529   4.856   0.622   5.507 -0.1238  0.6196  0.6981
  523MOL0     C70530   4.722   0.595   5.559 -0.5183  0.0073 -0.5777
  523MOL0     C70531   4.626   0.525   5.462  0.2208  0.5371  0.1006
  523MOL0     C70532   4.690   0.413   5.379 -0.3664  0.4874  0.3816
  523MOL0     C70533   4.739   0.474   5.251 -0.4644  0.0736 -0.5137
  523MOL0     C70534   4.746   0.373   5.143  0.1019 -0.9984 -0.9921
  523MOL0     C70535   4.768   0.303   5.053  0.3057 -0.0391  0.1181
  523MOL0     C70536   5.077   0.596   5.591  0.7739  1.0872 -1.1583
  523MOL0     C70537   5.170   0.627   5.681 -0.8972 -1.1200  0.1282
  523MOL0     H70538   5.382   0.733   6.121  0.1367  2.7298 -1.5112
  523MOL0     H70539   5.575   0.760   6.269 -1.0349 -0.0191 -0.7324
  523MOL0     H70540   5.768   0.930   6.279 -1.1799 -1.5547 -0.4565
  523MOL0     H70541   5.841   0.820   6.383 -1.5451  0.2637 -0.4645
  523MOL0     H70542   5.970   0.987   6.166  1.0340  0.8270  0.5351
  523MOL0     H70543   5.971   1.044   6.335  1.6175  0.8921 -0.9626
  523MOL0     H70544   6.137   0.881   6.396 -3.3094 -0.5502  0.3546
  523MOL0     H70545   6.115   0.797   6.238  0.8436 -2.5507  3.1143
  523MOL0     H70546   6.228   0.978   6.117  2.0589  1.4550  0.8760
  523MOL0     H70547   6.232   1.076   6.269 -1.6404  1.5000 -2.9587
  523MOL0     H70548   6.371   0.910   6.366  0.2774 -2.6900  0.0720
  523MOL0     H70549   6.346   0.794   6.238  0.6214 -1.2221 -0.0481
  523MOL0     H70550   6.436   0.925   6.067  1.5607  0.3072  0.0808
  523MOL0     H70551   6.488   1.050   6.186  0.9289 -0.6376  3.8265
  523MOL0     H70552   6.638   0.875   6.287  0.0531 -2.3551  0.8080
  523MOL0     H70553   6.585   0.759   6.174 -1.9822  0.9489 -0.5388
  523MOL0     H70554   6.726   1.006   6.071  0.0314 -0.0135 -2.8100
  523MOL0     H70555   6.657   0.887   5.972  2.9444  1.4603 -1.5494
  523MOL0     H70556   6.845   0.786   6.302  1.2440 -0.1099  1.4140
  523MOL0     H70557   7.149   0.782   6.302 -1.9386 -0.5017  1.6024
  523MOL0     H70558   7.064   0.636   6.336 -0.4130  1.7743  0.6060
  523MOL0     H70559   7.318   0.603   6.279  1.4638  1.6864 -1.9177
  523MOL0     H70560   7.269   0.645   6.111 -1.0630 -2.7695 -1.2376
  523MOL0     H70561   7.157   0.473   6.065  2.6399 -0.2083 -1.2570
  523MOL0     H70562   7.129   0.420   6.233 -1.6603  3.2767  0.3388
  523MOL0     H70563   7.412   0.430   6.116 -0.1917  1.2232  0.4697
  523MOL0     H70564   7.289   0.297   6.091 -0.6861  0.7409 -1.2407
  523MOL0     H70565   7.406   0.246   6.512  0.3925  4.0249 -1.9249
  523MOL0     H70566   7.665   0.057   6.665 -0.8907 -0.3076  1.9463
  523MOL0     H70567   7.503   0.112   6.688 -2.7713 -2.3467  1.3143
  523MOL0     H70568   7.529  -0.053   6.649 -2.8262  1.7267  1.5341
  523MOL0     H70569   7.968  -0.092   6.206 -1.1859 -0.5630  2.2492
  523MOL0     H70570   8.197  -0.209   6.171  1.8869 -1.7067  1.1593
  523MOL0     H70571   8.238  -0.600   6.385 -2.9107 -1.4437 -0.4871
  523MOL0     H70572   8.155  -0.650   6.226 -1.6069  1.4280 -0.8283
  523MOL0     H70573   8.366  -0.663   6.125 -0.1136 -1.5556 -0.2521
  523MOL0     H70574   8.458  -0.605   6.267  0.2159 -1.3091  2.5029
  523MOL0     H70575   8.381  -0.791   6.415 -0.3680 -0.6211  0.7428
  523MOL0     H70576   8.474  -0.843   6.276 -0.6675  0.9237 -1.2727
  523MOL0     H70577   8.169  -0.853   6.314 -2.2047 -0.0008  0.0363
  523MOL0     H70578   8.266  -0.914   6.165  2.4091  0.7479  1.0786
  523MOL0     H70579   8.415  -1.050   6.350  0.8744  2.3685 -0.7816
  523MOL0     H70580   8.248  -1.104   6.295  0.2007  0.7991 -0.1883
  523MOL0     H70581   8.344  -0.983   6.556  2.1299 -2.2381  0.7285
  523MOL0     H70582   8.173  -0.950   6.500  0.4625 -0.2218  0.7792
  523MOL0     H70583   8.194  -1.147   6.660 -0.5288  1.9133 -0.0065
  523MOL0     H70584   8.301  -1.229   6.539  1.0229  0.8910 -3.5676
  523MOL0     H70585   8.023  -1.153   6.439  0.2342 -0.0455 -0.2369
  523MOL0     H70586   8.048  -1.274   6.573  0.6806 -2.5646 -1.2059
  523MOL0     H70587   8.000  -0.551   6.370 -0.1468 -0.4666 -1.2011
  523MOL0     H70588   7.816  -0.425   6.400  1.2275 -0.1886  0.6392
  523MOL0     H70589   7.646  -0.022   6.170  0.2357  1.2761 -0.4260
  523MOL0     H70590   7.501   0.179   6.103 -0.9911  1.5913  0.3717
  523MOL0     H70591   5.846   0.705   5.947  0.2809 -1.3628  0.2064
  523MOL0     H70592   5.640   0.687   5.775  1.8839  0.9739  0.2897
  523MOL0     H70593   5.015   0.864   5.860  0.2333 -0.6620 -0.0607
  523MOL0     H70594   4.838   0.801   5.711  0.3335  0.7239 -1.1825
  523MOL0     H70595   4.737   0.535   5.649  0.8854  1.1011 -0.0464
  523MOL0     H70596   4.678   0.690   5.591  2.5597  0.6120  2.4622
  523MOL0     H70597   4.579   0.605   5.404 -2.5174  0.4511  2.0295
  523MOL0     H70598   4.547   0.486   5.526  0.7900  0.4730  0.7839
  523MOL0     H70599   4.625   0.331   5.346  3.1090 -1.5838 -1.9100
  523MOL0     H70600   4.772   0.366   5.434  0.9570  1.1425 -1.0006
  523MOL0     H70601   4.840   0.516   5.257  0.0971 -1.2037 -0.7423
  523MOL0     H70602   4.674   0.554   5.214 -1.2280 -0.8147 -1.1337
  523MOL0     H70603   4.775   0.260   4.955 -0.7565  1.4249 -0.6619
  523MOL0     H70604   5.072   0.525   5.509 -4.7265  0.1351 -0.3853
  523MOL0     H70605   5.267   0.587   5.654 -0.2148  0.4643  0.0741
  524MOL0     O70606  10.665   2.553   2.067  0.6307 -0.3723 -0.0271
  524MOL0     C70607  10.724   2.533   2.176 -0.4876 -0.4781  0.5943
  524MOL0     O70608  10.668   2.548   2.295  0.8039 -0.0335 -0.7432
  524MOL0     C70609  10.543   2.608   2.312  1.0207  0.2845 -0.7086
  524MOL0     C70610  10.477   2.577   2.429 -0.5303 -0.4419  0.2218
  524MOL0     C70611  10.353   2.632   2.466  0.6592  0.1866 -0.2006
  524MOL0     C70612  10.287   2.722   2.385 -0.4427 -0.5693  0.3076
  524MOL0     O70613  10.162   2.780   2.403  0.3123 -0.0025 -0.3766
  524MOL0     C70614  10.048   2.707   2.345 -0.7276 -0.5546 -0.5563
  524MOL0     C70615   9.954   2.688   2.460 -1.0444 -0.3649 -0.0163
  524MOL0     C70616   9.812   2.654   2.421 -0.6559  0.3024  1.4718
  524MOL0     C70617   9.734   2.631   2.547  0.2527 -0.5867 -0.0889
  524MOL0     C70618   9.584   2.593   2.510  0.4966  0.6873  0.0469
  524MOL0     C70619   9.509   2.700   2.416 -0.8160  0.2292 -0.1698
  524MOL0     C70620   9.364   2.675   2.377 -0.4598 -0.0696  0.4760
  524MOL0     C70621   9.273   2.663   2.505  0.0445 -0.7032  0.4559
  524MOL0     N70622   9.132   2.686   2.460  0.2456  0.6023  0.3556
  524MOL0     C70623   9.064   2.799   2.425  0.4881  0.6132  0.3067
  524MOL0     C70624   8.937   2.745   2.400 -0.1199 -1.0278 -0.0561
  524MOL0     C70625   8.829   2.831   2.344 -0.5454 -0.6561 -0.8516
  524MOL0     C70626   8.712   2.854   2.445 -0.3493  0.1517  0.3125
  524MOL0     C70627   8.758   2.923   2.575  0.1367  0.8602  0.1880
  524MOL0     C70628   8.654   2.951   2.676 -0.1300  0.1839 -0.9883
  524MOL0     O70629   8.579   3.070   2.641  0.5164  0.7143 -0.5336
  524MOL0     C70630   8.449   3.082   2.682  0.4828  0.3901 -0.7668
  524MOL0     C70631   8.374   3.157   2.584  0.4746 -0.1821 -0.1489
  524MOL0     C70632   8.237   3.181   2.607 -0.4390  0.1334 -0.9509
  524MOL0     C70633   8.178   3.271   2.508 -0.0036 -0.3635  0.4439
  524MOL0     C70634   8.167   3.115   2.709 -0.8017 -0.2122 -0.0396
  524MOL0     C70635   8.016   3.129   2.731  0.2057 -0.2836  0.1434
  524MOL0     O70636   7.934   3.196   2.642  0.3659  0.5474 -0.1942
  524MOL0     C70637   7.806   3.231   2.673  0.9896  0.9549 -0.7219
  524MOL0     C70638   7.766   3.359   2.704  0.2482  0.0180 -0.2147
  524MOL0     C70639   7.640   3.394   2.737 -0.1527 -0.0635  0.0233
  524MOL0     C70640   7.546   3.288   2.748  0.0929 -0.2627 -0.0046
  524MOL0     O70641   7.412   3.303   2.787 -0.8691 -0.1286  0.2963
  524MOL0     C70642   7.358   3.432   2.772  0.7039  0.0643  0.9101
  524MOL0     C70643   7.207   3.422   2.779  0.1661 -0.1547 -0.4650
  524MOL0     C70644   7.150   3.563   2.801  0.5707  0.2745 -0.3803
  524MOL0     C70645   7.178   3.652   2.690  0.4873  0.5459 -0.2549
  524MOL0     C70646   7.100   3.785   2.699 -0.3193  0.0662 -0.1970
  524MOL0     C70647   7.105   3.873   2.569 -0.5081  0.3691  0.0203
  524MOL0     C70648   7.235   3.918   2.505  0.3828 -0.3169 -1.5177
  524MOL0     C70649   7.219   3.960   2.363  0.7889 -0.3031 -0.0480
  524MOL0    Cl70650   7.128   4.116   2.373  0.2412 -0.2412  0.3081
  524MOL0     C70651   7.579   3.156   2.717 -0.8092 -0.9021 -0.5733
  524MOL0     C70652   7.708   3.122   2.669 -0.1592 -0.4242 -0.2851
  524MOL0     O70653   7.973   3.076   2.833  0.3200  0.1597  0.5941
  524MOL0     C70654   8.251   3.028   2.802  1.1195  0.1710  0.4113
  524MOL0     C70655   8.390   3.020   2.789  0.3031 -0.4468  0.0738
  524MOL0     N70656   8.937   2.609   2.434 -0.0839  0.4210 -0.4280
  524MOL0     N70657   9.050   2.584   2.481 -0.0645 -0.0214  0.1398
  524MOL0     C70658  10.357   2.763   2.270 -0.1675  0.2511  0.1453
  524MOL0     C70659  10.487   2.716   2.237 -0.3348 -0.3045  0.2014
  524MOL0     C70660  10.871   2.511   2.182  0.8157  0.5378  0.0162
  524MOL0     C70661  10.945   2.537   2.066 -0.1444  0.1004  1.0957
  524MOL0     C70662  11.086   2.513   2.073 -0.0978 -0.9085  0.6707
  524MOL0     C70663  11.159   2.482   2.196 -0.2591  0.4562 -0.1693
  524MOL0     O70664  11.290   2.451   2.186  0.1955 -0.5379  0.5560
  524MOL0     C70665  11.370   2.455   2.300  0.6863  0.3216 -0.6952
  524MOL0     C70666  11.519   2.416   2.282  1.2486  0.1693  0.2353
  524MOL0     C70667  11.616   2.491   2.381 -0.4191 -0.3625 -0.0395
  524MOL0     C70668  11.763   2.455   2.369  0.3906  0.6048  0.0930
  524MOL0     C70669  11.784   2.324   2.434  0.6614  0.5158 -0.0726
  524MOL0     C70670  11.820   2.225   2.492  0.4966 -0.5372 -0.2864
  524MOL0     C70671  11.083   2.469   2.318 -0.5236  0.7806  0.7129
  524MOL0     C70672  10.945   2.479   2.301  0.8807 -0.9929  0.1187
  524MOL0     H70673  10.530   2.506   2.491  0.7945  0.9974  0.8310
  524MOL0     H70674  10.304   2.614   2.561 -3.3009  1.4526 -1.8161
  524MOL0     H70675  10.012   2.781   2.273  0.3384  1.2787  0.6950
  524MOL0     H70676  10.069   2.612   2.296 -0.0611  0.5764 -2.6007
  524MOL0     H70677   9.981   2.609   2.531  0.3225 -0.1130 -0.2317
  524MOL0     H70678   9.955   2.784   2.514  0.3142  0.6603 -1.7771
  524MOL0     H70679   9.776   2.738   2.360  3.2568  0.5823 -0.7640
  524MOL0     H70680   9.819   2.571   2.350  0.1463  1.5746  0.0071
  524MOL0     H70681   9.770   2.559   2.621  1.4403  0.2286  0.1659
  524MOL0     H70682   9.721   2.732   2.587 -1.7650 -0.1487 -1.6653
  524MOL0     H70683   9.577   2.492   2.469  0.8682  0.5228  0.3756
  524MOL0     H70684   9.535   2.596   2.608  0.6393  1.2025  0.1098
  524MOL0     H70685   9.524   2.800   2.459  0.5755 -0.0705  0.1199
  524MOL0     H70686   9.570   2.708   2.325 -0.6301  0.0173 -0.0666
  524MOL0     H70687   9.338   2.760   2.314 -2.0025 -0.4945  0.5013
  524MOL0     H70688   9.370   2.584   2.316  1.3989 -0.5608  1.3117
  524MOL0     H70689   9.304   2.740   2.575  0.5510  1.1734 -1.7239
  524MOL0     H70690   9.273   2.563   2.549 -4.1076 -1.8144 -1.4769
  524MOL0     H70691   9.098   2.902   2.415  2.2681  0.0776  0.6036
  524MOL0     H70692   8.870   2.922   2.298  0.6809 -0.3594  0.7302
  524MOL0     H70693   8.783   2.776   2.261  1.5968  0.5769 -2.9973
  524MOL0     H70694   8.670   2.755   2.464  1.9166 -2.2243 -5.0052
  524MOL0     H70695   8.637   2.918   2.399  0.2214  1.6679  1.3994
  524MOL0     H70696   8.823   3.007   2.551  2.5085 -0.4652  1.5876
  524MOL0     H70697   8.820   2.844   2.619 -0.1503 -0.6735 -2.0085
  524MOL0     H70698   8.689   2.959   2.779 -1.6762 -1.4418 -0.2792
  524MOL0     H70699   8.588   2.863   2.670  1.1489 -0.7372 -2.5988
  524MOL0     H70700   8.428   3.209   2.505  0.5960  1.9866  1.2634
  524MOL0     H70701   8.088   3.228   2.462  1.4536 -0.9076 -2.0765
  524MOL0     H70702   8.181   3.375   2.540  0.2858  0.2513 -1.4789
  524MOL0     H70703   8.251   3.269   2.427  0.6456 -0.0665  1.0197
  524MOL0     H70704   7.842   3.436   2.714  2.1108 -1.9268  1.6602
  524MOL0     H70705   7.625   3.497   2.767  3.9760  0.0560  2.5037
  524MOL0     H70706   7.395   3.499   2.850  1.8915 -0.7493  1.0698
  524MOL0     H70707   7.384   3.463   2.670 -1.6744 -1.2207 -0.1675
  524MOL0     H70708   7.162   3.377   2.690  1.1120  0.1701 -1.1349
  524MOL0     H70709   7.180   3.354   2.860  1.2076 -0.4307 -0.3294
  524MOL0     H70710   7.193   3.605   2.893  1.1488  0.9372 -0.9437
  524MOL0     H70711   7.042   3.568   2.790  0.8661  1.6947 -7.0425
  524MOL0     H70712   7.283   3.678   2.676  0.1607  0.2720 -4.1422
  524MOL0     H70713   7.162   3.590   2.602  0.7922 -1.2630  0.9014
  524MOL0     H70714   7.138   3.850   2.778 -2.1107  1.4694 -0.4108
  524MOL0     H70715   6.995   3.780   2.730 -0.8841  1.8156 -1.6255
  524MOL0     H70716   7.056   3.810   2.495  0.0473 -1.3220  1.0499
  524MOL0     H70717   7.046   3.964   2.586 -2.3864 -0.9227  0.6561
  524MOL0     H70718   7.297   3.828   2.506  0.2422 -0.4210 -0.3914
  524MOL0     H70719   7.282   3.998   2.562 -0.1137 -1.8735  1.2506
  524MOL0     H70720   7.167   3.880   2.310  1.3436 -2.0904  1.9500
  524MOL0     H70721   7.308   3.979   2.304  1.7157 -1.7836  0.8124
  524MOL0     H70722   7.498   3.084   2.710 -0.1483 -1.6640 -0.4301
  524MOL0     H70723   7.736   3.023   2.634 -0.2082 -0.5396  0.0025
  524MOL0     H70724   8.200   2.979   2.885 -0.0999  1.4300  0.4535
  524MOL0     H70725   8.454   2.970   2.862 -2.3201 -4.2300  0.0617
  524MOL0     H70726  10.311   2.851   2.226  0.7642  1.5212  1.5905
  524MOL0     H70727  10.536   2.752   2.147 -0.0549  1.6044  1.0816
  524MOL0     H70728  10.911   2.578   1.971  1.2496 -2.8230 -0.8229
  524MOL0     H70729  11.134   2.513   1.976 -1.1416 -1.1910  0.1306
  524MOL0     H70730  11.355   2.549   2.353  1.5128 -0.4793  1.0295
  524MOL0     H70731  11.342   2.380   2.375  1.7311  0.8189  0.2092
  524MOL0     H70732  11.565   2.428   2.184  2.0757  0.9379  0.7015
  524MOL0     H70733  11.529   2.308   2.298  2.0423  0.1882 -0.0683
  524MOL0     H70734  11.582   2.478   2.484 -1.1926  0.5741 -0.1552
  524MOL0     H70735  11.608   2.598   2.361  2.0975 -0.4323 -1.8459
  524MOL0     H70736  11.834   2.535   2.395  1.8467 -1.2794  2.4377
  524MOL0     H70737  11.784   2.440   2.263 -2.7368  0.4457 -0.5978
  524MOL0     H70738  11.846   2.147   2.560  1.2343 -0.4861 -0.5037
  524MOL0     H70739  11.130   2.442   2.412  0.9717 -2.6205 -0.8125
  524MOL0     H70740  10.881   2.465   2.387 -2.5644 -2.1822 -2.4218
  525MOL0     O70741   0.146   1.014   4.406 -0.7448 -0.7621  0.4105
  525MOL0     C70742   0.220   0.993   4.506 -0.5659  0.1093 -0.4582
  525MOL0     O70743   0.315   1.074   4.558  0.2356  0.1248  0.7917
  525MOL0     C70744   0.335   1.190   4.494 -0.6031 -0.5186  0.0369
  525MOL0     C70745   0.277   1.313   4.548 -0.8137  0.4315 -0.3595
  525MOL0     C70746   0.306   1.436   4.486 -0.6015 -0.1907 -0.6974
  525MOL0     C70747   0.384   1.445   4.371 -0.0900 -0.4828 -0.7649
  525MOL0     O70748   0.408   1.573   4.316  0.0540  0.4393 -0.5666
  525MOL0     C70749   0.547   1.606   4.281  0.1222  0.5313 -0.1569
  525MOL0     C70750   0.591   1.731   4.362 -0.3263  0.0449  0.2471
  525MOL0     C70751   0.562   1.853   4.292  0.4793 -0.4742  0.2190
  525MOL0     C70752   0.406   1.880   4.288 -1.1062 -0.2146 -0.0153
  525MOL0     C70753   0.378   2.015   4.220 -0.7431  1.1919 -0.0651
  525MOL0     C70754   0.225   2.058   4.231  0.3439 -0.2227  0.1565
  525MOL0     C70755   0.204   2.209   4.185  0.3413  0.2166  0.0782
  525MOL0     C70756   0.182   2.311   4.303 -0.2017  0.1921  0.2935
  525MOL0     N70757   0.034   2.328   4.321 -0.4893  0.3778 -0.1406
  525MOL0     C70758  -0.038   2.434   4.276 -0.0977  0.2326  0.2571
  525MOL0     C70759  -0.163   2.400   4.303 -0.5960  0.5572 -0.1618
  525MOL0     C70760  -0.278   2.487   4.261 -0.2173 -0.1200  0.1611
  525MOL0     C70761  -0.319   2.586   4.372 -0.2465  0.8060  0.2147
  525MOL0     C70762  -0.418   2.684   4.309  0.1722 -0.3562 -0.0189
  525MOL0     C70763  -0.563   2.620   4.285  0.0655 -0.1925 -0.7595
  525MOL0     O70764  -0.620   2.592   4.411  0.6495 -0.4753  0.5182
  525MOL0     C70765  -0.753   2.540   4.407 -0.6541  0.0634  0.6784
  525MOL0     C70766  -0.800   2.449   4.307  0.1108 -0.0612  0.1607
  525MOL0     C70767  -0.936   2.410   4.287  0.6389 -0.9422  1.0597
  525MOL0     C70768  -0.968   2.333   4.162  0.2324 -0.4389  1.0964
  525MOL0     C70769  -1.024   2.456   4.390  0.0671 -0.4660  0.1460
  525MOL0     C70770  -1.168   2.419   4.403 -0.2391  0.2576  0.6779
  525MOL0     O70771  -1.245   2.489   4.489  0.0305 -0.5029  0.5138
  525MOL0     C70772  -1.354   2.430   4.549 -0.1442  0.0674  0.6582
  525MOL0     C70773  -1.345   2.296   4.590 -0.5923  0.1710 -1.0271
  525MOL0     C70774  -1.459   2.236   4.658 -0.5090 -0.2682  0.1820
  525MOL0     C70775  -1.577   2.303   4.682 -0.0123 -0.6661 -0.7136
  525MOL0     O70776  -1.680   2.247   4.745 -0.2483  0.4202  0.5869
  525MOL0     C70777  -1.785   2.206   4.656 -0.9455 -0.7323 -0.6223
  525MOL0     C70778  -1.837   2.069   4.693 -0.4791  0.5636 -0.6140
  525MOL0     C70779  -1.896   2.072   4.832  1.4539 -0.1363  0.0249
  525MOL0     C70780  -1.965   1.937   4.858 -0.3116  0.0434  0.8953
  525MOL0     C70781  -2.034   1.939   4.990  0.7653 -0.4039  0.0352
  525MOL0     C70782  -2.124   1.810   4.997 -1.0463 -1.1489  0.0778
  525MOL0     C70783  -2.044   1.680   4.974 -0.2639 -0.0142 -0.5685
  525MOL0     C70784  -2.131   1.570   5.021  0.6516  1.0346  0.4110
  525MOL0    Cl70785  -2.035   1.421   4.995  0.2026 -0.3498  0.2255
  525MOL0     C70786  -1.581   2.438   4.630  0.2500 -0.5319 -0.2687
  525MOL0     C70787  -1.470   2.501   4.585 -0.4631 -0.4506  0.4141
  525MOL0     O70788  -1.213   2.332   4.327  0.5103  0.2677 -0.4046
  525MOL0     C70789  -0.975   2.542   4.492 -0.3249 -0.6954 -0.3133
  525MOL0     C70790  -0.845   2.579   4.502 -0.1308  0.4400 -0.6644
  525MOL0     N70791  -0.164   2.282   4.368  0.1859 -0.2954 -0.5509
  525MOL0     N70792  -0.044   2.240   4.380 -0.4281 -0.1547 -0.4274
  525MOL0     C70793   0.431   1.326   4.318  0.1542 -0.4023  0.2201
  525MOL0     C70794   0.420   1.203   4.385 -0.3161  0.4743 -0.4861
  525MOL0     C70795   0.206   0.870   4.585 -0.2927  0.5089 -0.1943
  525MOL0     C70796   0.086   0.796   4.563 -0.4882  0.5755 -0.2884
  525MOL0     C70797   0.078   0.670   4.629  0.0255  0.6742  0.0035
  525MOL0     C70798   0.182   0.614   4.695 -0.3793  0.1247 -0.9355
  525MOL0     O70799   0.161   0.492   4.751  0.0722 -0.6342  0.0776
  525MOL0     C70800   0.275   0.414   4.810 -0.0638  1.0368 -0.2816
  525MOL0     C70801   0.369   0.357   4.704 -0.5899  0.4303  0.4814
  525MOL0     C70802   0.306   0.305   4.582  1.2918 -0.7496 -0.4084
  525MOL0     C70803   0.402   0.228   4.490  0.4947 -0.8653  0.1693
  525MOL0     C70804   0.324   0.179   4.384  1.4673 -0.1271  1.0503
  525MOL0     C70805   0.282   0.128   4.275  0.5779  0.3650 -0.5073
  525MOL0     C70806   0.302   0.682   4.709  0.1424 -0.1435 -0.3669
  525MOL0     C70807   0.307   0.809   4.649  1.0882  0.1626 -0.7405
  525MOL0     H70808   0.232   1.301   4.646 -3.0961 -0.0239 -1.4047
  525MOL0     H70809   0.278   1.527   4.538 -0.0454 -2.0445  3.2127
  525MOL0     H70810   0.612   1.523   4.310 -0.2518  0.3315  0.1202
  525MOL0     H70811   0.571   1.625   4.176  4.6508  3.6740  1.1284
  525MOL0     H70812   0.564   1.731   4.468  1.1051  1.8805  0.6661
  525MOL0     H70813   0.700   1.720   4.364 -0.2242  1.1290  1.6729
  525MOL0     H70814   0.611   1.938   4.339 -0.4781 -0.6972  1.6886
  525MOL0     H70815   0.596   1.852   4.188 -1.7847  0.1080 -0.5967
  525MOL0     H70816   0.348   1.808   4.230 -1.0642 -0.5735  0.3816
  525MOL0     H70817   0.363   1.892   4.388  0.0781  0.5847  0.4153
  525MOL0     H70818   0.436   2.094   4.269 -1.9606  2.1066 -0.0368
  525MOL0     H70819   0.401   2.004   4.113 -2.3590 -0.2886 -0.2973
  525MOL0     H70820   0.164   2.000   4.161  1.0493  0.0066 -0.6655
  525MOL0     H70821   0.195   2.044   4.336 -0.5704 -1.2990 -0.2313
  525MOL0     H70822   0.285   2.235   4.117  1.7640  0.2957  1.7387
  525MOL0     H70823   0.119   2.208   4.116  1.5231 -2.8871 -1.5185
  525MOL0     H70824   0.227   2.410   4.288  1.3388 -0.8349 -2.9546
  525MOL0     H70825   0.218   2.271   4.398 -1.3752  2.1322  1.6288
  525MOL0     H70826   0.000   2.524   4.228 -2.5277  0.5874 -1.1818
  525MOL0     H70827  -0.244   2.534   4.168  0.6369  0.4857  0.7597
  525MOL0     H70828  -0.366   2.428   4.234 -2.1653  2.9094 -0.6161
  525MOL0     H70829  -0.231   2.639   4.409 -2.1679  2.8997  2.1547
  525MOL0     H70830  -0.364   2.522   4.448 -2.9210  0.4378 -1.5194
  525MOL0     H70831  -0.380   2.734   4.219 -2.1692  0.1747 -0.7700
  525MOL0     H70832  -0.422   2.768   4.379  2.9986 -0.7796  0.7736
  525MOL0     H70833  -0.543   2.527   4.231 -1.7171 -0.8862 -0.3102
  525MOL0     H70834  -0.629   2.679   4.221  1.5878 -1.7474 -3.9837
  525MOL0     H70835  -0.730   2.428   4.226  0.4597  1.0451  0.1487
  525MOL0     H70836  -0.885   2.266   4.142  1.2268  1.4849 -1.9241
  525MOL0     H70837  -1.062   2.276   4.162 -1.2272  1.7987  0.9823
  525MOL0     H70838  -0.970   2.404   4.079  1.7877  0.1120  1.4957
  525MOL0     H70839  -1.251   2.242   4.587 -0.3889  0.5425 -1.7545
  525MOL0     H70840  -1.444   2.135   4.695  0.9583 -0.5874 -1.1705
  525MOL0     H70841  -1.869   2.277   4.655 -1.0895 -0.8403  0.8823
  525MOL0     H70842  -1.742   2.190   4.557  1.4478 -0.8366  0.3565
  525MOL0     H70843  -1.912   2.035   4.621  0.2209 -2.4763 -0.0196
  525MOL0     H70844  -1.759   1.993   4.692 -2.6153 -1.9362  2.8480
  525MOL0     H70845  -1.972   2.148   4.853 -2.0203 -3.6614  1.4309
  525MOL0     H70846  -1.821   2.074   4.912  1.1161 -1.4886  0.4047
  525MOL0     H70847  -2.043   1.915   4.785  1.6544  1.6529 -1.9227
  525MOL0     H70848  -1.891   1.857   4.856  1.6779  1.7799  0.5165
  525MOL0     H70849  -2.105   2.022   5.001  0.2961 -0.9544  1.5001
  525MOL0     H70850  -1.961   1.920   5.069 -0.4189 -1.8791  0.8360
  525MOL0     H70851  -2.162   1.805   5.099  1.6318  1.5141  1.3552
  525MOL0     H70852  -2.203   1.816   4.921 -0.2469  3.2264 -0.7013
  525MOL0     H70853  -1.945   1.688   5.018 -0.6125  2.6590 -0.1127
  525MOL0     H70854  -2.016   1.655   4.871 -0.6859  0.5396 -0.8255
  525MOL0     H70855  -2.224   1.572   4.964  0.3494 -2.8853  0.5201
  525MOL0     H70856  -2.166   1.569   5.124 -0.3345  0.8969  0.0809
  525MOL0     H70857  -1.669   2.501   4.643  1.7142  1.3422  1.2022
  525MOL0     H70858  -1.468   2.603   4.548  2.8050 -1.1874 -1.9060
  525MOL0     H70859  -1.033   2.590   4.570 -0.5236  1.4829 -1.6883
  525MOL0     H70860  -0.819   2.652   4.579 -1.3086 -0.2883  0.4693
  525MOL0     H70861   0.494   1.339   4.230  1.2804  2.3280  1.2939
  525MOL0     H70862   0.459   1.112   4.341 -1.9484  0.0618 -1.1781
  525MOL0     H70863  -0.002   0.828   4.507 -0.5431  1.3980  0.2539
  525MOL0     H70864  -0.010   0.606   4.624 -0.1703  1.0275 -1.5580
  525MOL0     H70865   0.336   0.478   4.874  1.6853 -0.4339 -0.4094
  525MOL0     H70866   0.230   0.339   4.876 -0.4686  1.2311 -0.3303
  525MOL0     H70867   0.419   0.273   4.754  2.4939  1.2390 -1.0207
  525MOL0     H70868   0.444   0.433   4.679 -2.4632  1.5907 -2.0677
  525MOL0     H70869   0.277   0.398   4.531  2.2558  1.2601  2.4780
  525MOL0     H70870   0.223   0.239   4.613  1.3170 -0.8036 -0.4570
  525MOL0     H70871   0.442   0.141   4.543  0.8765 -0.4644  0.5474
  525MOL0     H70872   0.478   0.296   4.452  0.7942 -0.3783  1.5936
  525MOL0     H70873   0.265   0.061   4.193 -2.2547 -2.2631  1.9632
  525MOL0     H70874   0.392   0.651   4.762  1.2995  1.6633 -1.1695
  525MOL0     H70875   0.403   0.859   4.656  0.9535  0.7022 -2.3485
  526MOL0     O70876   6.235   6.407   1.678  0.2277  0.7642 -0.3278
  526MOL0     C70877   6.186   6.470   1.771 -0.8175 -0.5108 -0.4307
  526MOL0     O70878   6.193   6.434   1.902 -0.0311 -0.6805  0.2964
  526MOL0     C70879   6.277   6.323   1.924 -0.4724  0.3388 -0.2839
  526MOL0     C70880   6.228   6.221   2.014 -0.2301 -0.6015  1.1467
  526MOL0     C70881   6.299   6.102   2.025 -0.8434  0.1604 -0.6503
  526MOL0     C70882   6.429   6.089   1.972 -0.1169  0.0301  0.4769
  526MOL0     O70883   6.493   5.978   1.992 -1.1480  0.1367 -0.5226
  526MOL0     C70884   6.530   5.904   1.871  0.5651 -0.2426 -0.1718
  526MOL0     C70885   6.616   5.789   1.907 -0.7049 -0.0941 -0.3336
  526MOL0     C70886   6.576   5.671   1.819  0.6025  0.0086 -0.0392
  526MOL0     C70887   6.558   5.690   1.673 -0.8665  0.4003  0.2993
  526MOL0     C70888   6.530   5.559   1.589  0.1658 -0.4294  0.3389
  526MOL0     C70889   6.509   5.603   1.442  0.4810  0.3194  0.0555
  526MOL0     C70890   6.463   5.482   1.369  0.1399 -0.0891 -0.6314
  526MOL0     C70891   6.434   5.515   1.230  0.2534  0.2226 -0.0278
  526MOL0     N70892   6.553   5.572   1.163  0.8768  0.3606  0.3724
  526MOL0     C70893   6.589   5.700   1.138 -0.1938 -0.2705  0.1933
  526MOL0     C70894   6.700   5.711   1.063  0.1112 -1.1188 -0.0620
  526MOL0     C70895   6.767   5.841   1.022  0.1031  0.7828 -0.3923
  526MOL0     C70896   6.914   5.808   0.990 -0.5895 -0.8298 -0.6953
  526MOL0     C70897   6.995   5.944   0.973  0.6720  0.2095 -0.4688
  526MOL0     C70898   7.118   5.929   0.892  0.4635 -0.0064 -0.9984
  526MOL0     O70899   7.094   5.883   0.758  0.1620  0.4536 -0.3012
  526MOL0     C70900   7.197   5.885   0.661  1.0436  0.5843 -0.0848
  526MOL0     C70901   7.157   5.841   0.531 -0.6166 -0.7912 -0.5410
  526MOL0     C70902   7.251   5.849   0.424  0.3385  0.2395 -0.3573
  526MOL0     C70903   7.226   5.784   0.285  0.2838 -0.4780  0.1664
  526MOL0     C70904   7.378   5.901   0.453 -0.1657 -0.8094 -0.2784
  526MOL0     C70905   7.474   5.935   0.357 -0.2939  0.1412 -0.1481
  526MOL0     O70906   7.580   5.836   0.341  0.2504  0.4203  0.3280
  526MOL0     C70907   7.671   5.860   0.248 -0.6491 -0.2689 -0.1411
  526MOL0     C70908   7.721   5.754   0.167  0.1447  0.4695 -0.3623
  526MOL0     C70909   7.823   5.771   0.076 -0.8621  0.2612  0.3266
  526MOL0     C70910   7.879   5.899   0.057  0.7461 -0.6164  0.0353
  526MOL0     O70911   7.974   5.932  -0.039  0.2332  0.0315  0.2840
  526MOL0     C70912   8.025   5.833  -0.124  1.0440 -0.2764 -0.1355
  526MOL0     C70913   8.107   5.894  -0.228  1.1476 -0.1627  0.2086
  526MOL0     C70914   8.248   5.924  -0.173 -0.1204  0.1811  0.7984
  526MOL0     C70915   8.335   5.968  -0.302 -0.7095  0.3937 -0.8979
  526MOL0     C70916   8.486   5.981  -0.272  0.3900  0.0498  0.1344
  526MOL0     C70917   8.582   5.989  -0.393  0.5096 -0.3365  0.3071
  526MOL0     C70918   8.585   5.855  -0.463  0.9549 -0.4621 -0.5211
  526MOL0     C70919   8.703   5.843  -0.558  0.5891  0.0757  0.5428
  526MOL0    Cl70920   8.682   5.937  -0.717 -0.4474  0.2611  0.1925
  526MOL0     C70921   7.830   6.004   0.137  0.5552 -0.5274 -0.6569
  526MOL0     C70922   7.745   5.983   0.246 -0.7096 -0.1104 -0.3068
  526MOL0     O70923   7.453   6.033   0.285 -0.0590  0.1491 -0.2865
  526MOL0     C70924   7.412   5.946   0.582  0.4319  0.6473 -0.2767
  526MOL0     C70925   7.324   5.924   0.688 -0.1343 -0.2047 -0.5653
  526MOL0     N70926   6.742   5.573   1.049  0.7733 -0.2045  0.9527
  526MOL0     N70927   6.655   5.491   1.106  0.6500  0.2870  0.2593
  526MOL0     C70928   6.482   6.197   1.894 -1.1677  0.0692 -0.2593
  526MOL0     C70929   6.411   6.314   1.871 -0.2928  0.8278  0.2674
  526MOL0     C70930   6.102   6.594   1.752 -1.2241 -0.9311  0.2174
  526MOL0     C70931   6.050   6.611   1.624 -0.1118 -0.7716  0.9639
  526MOL0     C70932   5.960   6.724   1.602 -1.3360 -0.4052 -0.1197
  526MOL0     C70933   5.928   6.813   1.707 -0.0804  0.4552  0.7122
  526MOL0     O70934   5.844   6.920   1.686 -0.3666 -0.1674  0.4874
  526MOL0     C70935   5.914   7.049   1.706 -0.1814 -0.2479  0.1704
  526MOL0     C70936   6.012   7.079   1.595 -0.1770 -0.1923  1.1244
  526MOL0     C70937   6.068   7.223   1.586  0.4401 -0.0329 -0.3907
  526MOL0     C70938   6.168   7.246   1.474 -0.0132 -0.8518 -0.4776
  526MOL0     C70939   6.252   7.359   1.508 -0.0839  0.9590 -0.8233
  526MOL0     C70940   6.286   7.473   1.529  0.3754 -0.5049 -0.0323
  526MOL0     C70941   5.988   6.800   1.833  0.1045 -1.0428  0.7662
  526MOL0     C70942   6.080   6.700   1.848 -0.4310  0.2580  0.2851
  526MOL0     H70943   6.134   6.253   2.059 -0.8655  4.0634 -2.6745
  526MOL0     H70944   6.259   6.030   2.096 -2.6542  0.8591 -0.9135
  526MOL0     H70945   6.436   5.862   1.832 -0.0194  1.3445 -0.5590
  526MOL0     H70946   6.576   5.959   1.789 -1.4336  0.1358 -1.1185
  526MOL0     H70947   6.723   5.815   1.906 -1.5998  4.5658  0.0503
  526MOL0     H70948   6.606   5.757   2.011  0.0652 -1.7053 -0.7267
  526MOL0     H70949   6.640   5.585   1.841 -1.8817 -2.0750 -0.5923
  526MOL0     H70950   6.477   5.641   1.854  0.0395  0.4300 -1.2342
  526MOL0     H70951   6.484   5.768   1.657 -1.0370 -0.2373 -2.4208
  526MOL0     H70952   6.657   5.728   1.648  0.7297 -3.8993 -0.9148
  526MOL0     H70953   6.618   5.494   1.596  0.5737  0.2393  1.7105
  526MOL0     H70954   6.436   5.516   1.623 -1.8713  0.0978 -3.9691
  526MOL0     H70955   6.433   5.682   1.440 -2.3448 -2.2359  0.0509
  526MOL0     H70956   6.603   5.643   1.402  2.6858 -2.5041  1.9742
  526MOL0     H70957   6.543   5.407   1.361 -2.2057 -2.8911  0.4315
  526MOL0     H70958   6.364   5.453   1.404 -2.6389  1.2278 -6.2291
  526MOL0     H70959   6.355   5.591   1.230  2.1193  2.2788  0.8243
  526MOL0     H70960   6.402   5.422   1.182  1.3519 -0.2366  0.1122
  526MOL0     H70961   6.532   5.787   1.168  0.9108  1.3970 -2.2007
  526MOL0     H70962   6.713   5.884   0.937 -0.7320  0.7994  0.1390
  526MOL0     H70963   6.766   5.917   1.101 -0.7301  1.0289 -0.6339
  526MOL0     H70964   6.919   5.740   0.905 -0.8308  3.4978 -4.5683
  526MOL0     H70965   6.968   5.762   1.074  2.4752  2.9565 -0.3155
  526MOL0     H70966   7.024   5.991   1.067 -1.8211 -0.4384  0.6769
  526MOL0     H70967   6.930   6.019   0.929 -0.4290 -0.1134  0.5616
  526MOL0     H70968   7.180   5.855   0.945 -2.0360  0.6808  3.4006
  526MOL0     H70969   7.175   6.021   0.907  0.6891  0.2542 -3.1255
  526MOL0     H70970   7.058   5.801   0.511 -1.3584  0.1313  1.1376
  526MOL0     H70971   7.292   5.699   0.268 -0.2839 -1.3451  2.0725
  526MOL0     H70972   7.123   5.753   0.263 -0.6624  1.8755  0.8422
  526MOL0     H70973   7.258   5.853   0.206  3.9017 -1.5042  0.5964
  526MOL0     H70974   7.682   5.653   0.174 -1.0300  0.7351 -2.4144
  526MOL0     H70975   7.856   5.692   0.010 -2.6328 -0.2414 -0.0262
  526MOL0     H70976   8.067   5.757  -0.058 -2.5270 -1.0094  1.5501
  526MOL0     H70977   7.945   5.779  -0.175 -1.0432 -0.2944  2.8633
  526MOL0     H70978   8.121   5.821  -0.308 -0.9352  1.6759 -1.9760
  526MOL0     H70979   8.053   5.981  -0.265 -1.0710 -1.6355 -0.2338
  526MOL0     H70980   8.268   5.828  -0.125  0.6649 -1.9031 -3.2312
  526MOL0     H70981   8.236   6.008  -0.104 -0.8268 -0.1859  1.1318
  526MOL0     H70982   8.327   5.883  -0.371  1.2189 -1.1447  0.6684
  526MOL0     H70983   8.287   6.052  -0.352 -0.9728 -0.2270 -1.7163
  526MOL0     H70984   8.517   5.895  -0.212 -1.3004 -0.3994  0.4026
  526MOL0     H70985   8.512   6.069  -0.213 -0.3067  0.7600 -0.5936
  526MOL0     H70986   8.551   6.069  -0.462  1.6025  0.9522  1.2546
  526MOL0     H70987   8.679   6.002  -0.345 -0.0942 -2.4731  2.2824
  526MOL0     H70988   8.489   5.843  -0.514  1.5281 -3.0660 -1.1724
  526MOL0     H70989   8.590   5.767  -0.398  0.5728 -1.3807 -1.6909
  526MOL0     H70990   8.720   5.741  -0.593 -1.8532 -0.2421  0.0537
  526MOL0     H70991   8.796   5.872  -0.508  2.4052 -0.0957 -2.5126
  526MOL0     H70992   7.862   6.107   0.132  2.3626 -1.1015 -2.1265
  526MOL0     H70993   7.727   6.072   0.306 -1.5576 -0.7076  0.3415
  526MOL0     H70994   7.501   5.992   0.626  0.7078 -0.8313  0.8127
  526MOL0     H70995   7.353   5.948   0.790 -2.4265  2.1489 -0.3840
  526MOL0     H70996   6.585   6.192   1.861 -0.0366  2.1489  2.5587
  526MOL0     H70997   6.459   6.393   1.815  3.7588  1.4304  4.0139
  526MOL0     H70998   6.068   6.540   1.544 -0.3572 -2.6522  2.4993
  526MOL0     H70999   5.922   6.727   1.500 -0.7097 -1.3373 -0.3850
  526MOL0     H71000   5.842   7.129   1.687  0.4382  0.0036 -1.2123
  526MOL0     H71001   5.955   7.063   1.807  0.4972 -1.9557  0.1602
  526MOL0     H71002   5.955   7.063   1.503  0.8379 -1.2478  0.6566
  526MOL0     H71003   6.095   7.008   1.593  1.0969  1.1860  2.0219
  526MOL0     H71004   6.117   7.236   1.683  1.4365  3.6253 -1.2201
  526MOL0     H71005   5.997   7.305   1.572  2.2562  0.9957 -5.2732
  526MOL0     H71006   6.115   7.260   1.379 -0.4138  0.6762 -0.0410
  526MOL0     H71007   6.232   7.157   1.471 -1.6111 -2.0966  0.6855
  526MOL0     H71008   6.315   7.573   1.555  1.2924 -0.8097  0.1457
  526MOL0     H71009   5.978   6.876   1.910 -1.5884 -0.9551  0.4885
  526MOL0     H71010   6.120   6.697   1.949  1.9346  0.9236 -0.5675
  527MOL0     O71011   2.532   2.540   6.070  0.8514 -0.2493 -0.2302
  527MOL0     C71012   2.573   2.505   6.181  1.4847  0.8146  0.1930
  527MOL0     O71013   2.520   2.400   6.258  0.2265 -0.0356  0.6027
  527MOL0     C71014   2.393   2.378   6.232  0.1714 -0.2440  0.7100
  527MOL0     C71015   2.297   2.468   6.267  1.0340 -0.5245  0.0638
  527MOL0     C71016   2.163   2.439   6.237  0.6508  0.7897  0.7436
  527MOL0     C71017   2.129   2.317   6.172  0.3122 -0.5878  1.0594
  527MOL0     O71018   2.001   2.288   6.147 -0.2997  0.1870  0.5094
  527MOL0     C71019   1.928   2.354   6.043 -0.2834  0.2163 -0.7744
  527MOL0     C71020   1.861   2.257   5.952  0.1983  0.2118 -0.4639
  527MOL0     C71021   1.959   2.149   5.908 -0.7490 -0.3451  0.4499
  527MOL0     C71022   1.918   2.066   5.783 -0.0004  0.1798 -0.5308
  527MOL0     C71023   1.949   1.917   5.793 -0.9194 -0.4518 -0.0217
  527MOL0     C71024   1.870   1.852   5.900 -0.9297  0.1012  0.4828
  527MOL0     C71025   1.920   1.705   5.906  0.1135  0.6083 -0.3283
  527MOL0     C71026   1.858   1.634   6.028 -0.2036 -0.0080 -0.1829
  527MOL0     N71027   1.710   1.627   5.997 -0.3644  0.1703  0.2738
  527MOL0     C71028   1.649   1.515   5.942 -0.1063  0.1818  0.2877
  527MOL0     C71029   1.517   1.513   5.975  0.5166  0.6243  0.2875
  527MOL0     C71030   1.424   1.393   5.967 -0.4148 -0.0304  0.3936
  527MOL0     C71031   1.371   1.349   6.108 -0.2076 -0.5196  1.0222
  527MOL0     C71032   1.266   1.237   6.092 -0.1169 -0.0477  0.1657
  527MOL0     C71033   1.125   1.289   6.050  0.6271 -0.4880  0.3945
  527MOL0     O71034   1.021   1.184   6.040 -0.0224  0.9242 -0.1107
  527MOL0     C71035   0.925   1.168   6.139 -1.5810  0.1338 -0.2283
  527MOL0     C71036   0.951   1.187   6.279 -0.3820  0.4585 -0.8238
  527MOL0     C71037   0.849   1.178   6.381 -0.0363 -0.8746  0.4438
  527MOL0     C71038   0.884   1.207   6.525 -0.9408 -0.1372  1.1768
  527MOL0     C71039   0.712   1.145   6.339 -0.4148  0.0549 -0.8540
  527MOL0     C71040   0.593   1.129   6.430 -0.6155  0.5972 -0.0871
  527MOL0     O71041   0.488   1.079   6.373  0.7124  0.3028 -0.0882
  527MOL0     C71042   0.382   1.039   6.454 -0.3037  0.4388  0.6836
  527MOL0     C71043   0.356   0.898   6.482 -0.0113  0.3536  0.3357
  527MOL0     C71044   0.246   0.857   6.550  0.0857  0.1640 -0.9060
  527MOL0     C71045   0.149   0.942   6.598  0.7195 -0.1321 -0.5740
  527MOL0     O71046   0.048   0.879   6.677 -0.6361  0.1782  0.2243
  527MOL0     C71047  -0.034   0.958   6.751  0.3786 -0.4517 -0.2219
  527MOL0     C71048  -0.121   0.868   6.840  1.2274 -0.0338 -0.1035
  527MOL0     C71049  -0.032   0.761   6.914 -0.2791  0.9344  0.3915
  527MOL0     C71050  -0.065   0.711   7.055  0.7243 -0.5280  0.4147
  527MOL0     C71051  -0.043   0.814   7.164  0.2185  0.2623 -0.1934
  527MOL0     C71052  -0.116   0.791   7.300 -0.1659  0.0712  0.5756
  527MOL0     C71053  -0.180   0.924   7.339 -0.1753  0.6374  0.3632
  527MOL0     C71054  -0.261   0.910   7.459  0.2651 -0.6833 -0.2217
  527MOL0    Cl71055  -0.418   0.834   7.401 -0.1723 -0.0956 -0.0500
  527MOL0     C71056   0.169   1.079   6.578 -0.8008 -0.1767  0.4625
  527MOL0     C71057   0.292   1.127   6.511  0.2927 -0.5787 -0.3756
  527MOL0     O71058   0.607   1.144   6.556 -0.0342  0.6730  0.2326
  527MOL0     C71059   0.699   1.110   6.197  0.5728 -0.2247  0.0232
  527MOL0     C71060   0.801   1.129   6.101  0.8912 -0.7884 -0.1852
  527MOL0     N71061   1.497   1.633   6.039 -0.2160  1.2423 -0.3121
  527MOL0     N71062   1.607   1.700   6.040 -0.3569 -0.1372 -0.3282
  527MOL0     C71063   2.228   2.230   6.134 -0.0772 -0.3635  0.1894
  527MOL0     C71064   2.358   2.262   6.167  0.6805  0.4616 -0.2034
  527MOL0     C71065   2.705   2.561   6.220 -0.2739  0.1020  0.7025
  527MOL0     C71066   2.756   2.672   6.150  0.3348 -0.6228 -0.2381
  527MOL0     C71067   2.890   2.713   6.185  0.4547 -0.8267  0.0846
  527MOL0     C71068   2.966   2.653   6.290  0.4552 -0.1174  0.2332
  527MOL0     O71069   3.089   2.713   6.321  0.3272 -1.3004 -0.2784
  527MOL0     C71070   3.189   2.670   6.232  0.7276 -1.0754  1.0853
  527MOL0     C71071   3.316   2.599   6.294 -0.5579 -0.0641 -0.3461
  527MOL0     C71072   3.258   2.462   6.347 -0.0635  0.4115  0.4017
  527MOL0     C71073   3.328   2.382   6.462 -0.8168  0.9139  0.0791
  527MOL0     C71074   3.467   2.329   6.429 -0.7220 -0.0398 -0.1877
  527MOL0     C71075   3.584   2.293   6.426  1.3751 -0.4992  0.8831
  527MOL0     C71076   2.902   2.551   6.359 -0.3194  1.0904  0.1169
  527MOL0     C71077   2.773   2.503   6.328  0.4240  0.3597 -0.7555
  527MOL0     H71078   2.320   2.566   6.308  2.5082 -0.5249 -0.7008
  527MOL0     H71079   2.079   2.502   6.266  0.2683 -1.1687  4.4448
  527MOL0     H71080   1.842   2.403   6.090  0.5003  2.8261 -1.8991
  527MOL0     H71081   1.991   2.426   5.990  0.1781  1.8845  1.8601
  527MOL0     H71082   1.773   2.205   5.991  0.0002  2.1805  1.8943
  527MOL0     H71083   1.821   2.320   5.873  1.0290  3.7722  1.7515
  527MOL0     H71084   2.051   2.199   5.874 -0.9510  0.0321  0.4593
  527MOL0     H71085   1.982   2.084   5.993  0.9411  3.1832  2.9420
  527MOL0     H71086   1.811   2.074   5.760 -0.0594 -0.5045 -0.5136
  527MOL0     H71087   1.962   2.120   5.698 -0.5822  2.1642  0.3614
  527MOL0     H71088   1.926   1.857   5.705 -0.0453 -0.7389 -0.0653
  527MOL0     H71089   2.056   1.900   5.810 -1.1042 -0.5268  1.2181
  527MOL0     H71090   1.878   1.897   5.999  0.0173  0.1213  0.4041
  527MOL0     H71091   1.761   1.849   5.886 -0.6725 -1.6003 -1.8086
  527MOL0     H71092   1.904   1.650   5.813 -0.7178 -0.9259  0.6805
  527MOL0     H71093   2.028   1.705   5.916  0.3673  0.6134 -2.5293
  527MOL0     H71094   1.884   1.695   6.116  0.7191 -0.4384 -0.1427
  527MOL0     H71095   1.889   1.529   6.039 -0.4356  0.1818  3.5995
  527MOL0     H71096   1.708   1.431   5.907 -1.3118 -0.1738 -0.9778
  527MOL0     H71097   1.340   1.442   5.917  1.0073 -1.7815 -4.2330
  527MOL0     H71098   1.481   1.317   5.912  1.1406  2.7636 -2.1130
  527MOL0     H71099   1.318   1.423   6.169  0.9557  2.5813 -1.4536
  527MOL0     H71100   1.461   1.316   6.162  0.2186  0.5758  1.0011
  527MOL0     H71101   1.262   1.188   6.190  2.1527 -0.7855 -0.0601
  527MOL0     H71102   1.303   1.163   6.020  1.8977  0.0175  1.0522
  527MOL0     H71103   1.128   1.341   5.954 -0.6664 -0.7999  0.1619
  527MOL0     H71104   1.095   1.371   6.115  0.0179 -0.4327  0.0525
  527MOL0     H71105   1.053   1.208   6.309 -0.6439 -0.6172  0.9637
  527MOL0     H71106   0.991   1.228   6.533 -0.7492  0.8197 -2.3734
  527MOL0     H71107   0.833   1.298   6.558  2.2848  2.0500  0.5514
  527MOL0     H71108   0.872   1.114   6.583  1.8595 -0.1232  1.9345
  527MOL0     H71109   0.424   0.818   6.456  1.2002  0.3777  3.0735
  527MOL0     H71110   0.226   0.750   6.558 -0.3620  0.1936 -1.5218
  527MOL0     H71111   0.030   1.024   6.811  0.9360  0.1998 -1.4922
  527MOL0     H71112  -0.109   1.012   6.693  0.6791  0.1973 -0.0170
  527MOL0     H71113  -0.161   0.938   6.914  1.4594  1.0227 -0.9543
  527MOL0     H71114  -0.206   0.825   6.786  0.8983  0.4927 -0.0117
  527MOL0     H71115   0.070   0.796   6.927  0.5124 -1.1656  0.1966
  527MOL0     H71116  -0.025   0.666   6.859 -0.2109  1.4740 -0.5547
  527MOL0     H71117  -0.173   0.696   7.045  0.1394  1.6405  2.4700
  527MOL0     H71118  -0.009   0.620   7.081  1.3716 -0.4006 -0.4708
  527MOL0     H71119  -0.074   0.911   7.123 -0.1561  1.4431  2.6304
  527MOL0     H71120   0.066   0.824   7.176  0.3864  0.0927 -1.3940
  527MOL0     H71121  -0.194   0.714   7.293 -0.2108  0.2284 -1.1732
  527MOL0     H71122  -0.043   0.752   7.372 -1.4397 -0.7872  1.4413
  527MOL0     H71123  -0.243   0.963   7.259 -0.8581 -0.2563  0.4546
  527MOL0     H71124  -0.104   0.997   7.370 -0.2275  1.2718 -0.9130
  527MOL0     H71125  -0.285   1.005   7.507 -3.7502 -2.0936  0.9538
  527MOL0     H71126  -0.206   0.850   7.532  0.6319 -1.6196 -1.2145
  527MOL0     H71127   0.101   1.154   6.617 -0.2103 -0.0396  1.2535
  527MOL0     H71128   0.309   1.233   6.498 -1.6399 -0.2020 -0.1247
  527MOL0     H71129   0.606   1.082   6.149  0.1001 -0.3843  1.0116
  527MOL0     H71130   0.797   1.096   5.997  1.0566 -1.2252 -0.0568
  527MOL0     H71131   2.207   2.134   6.087  0.8983 -1.1648  1.3357
  527MOL0     H71132   2.433   2.186   6.145 -1.0776 -1.4028 -0.0922
  527MOL0     H71133   2.696   2.715   6.071  0.6548  2.2166  0.9366
  527MOL0     H71134   2.938   2.794   6.132 -0.3329  0.9064  1.8872
  527MOL0     H71135   3.143   2.599   6.163  1.3491 -1.1106  0.7073
  527MOL0     H71136   3.214   2.753   6.165 -2.5512 -0.2156  0.7368
  527MOL0     H71137   3.358   2.661   6.374 -5.4349  0.5432  2.1488
  527MOL0     H71138   3.389   2.574   6.216  0.2296 -0.4157  0.4813
  527MOL0     H71139   3.252   2.398   6.260  0.6460 -1.0861  1.4113
  527MOL0     H71140   3.156   2.482   6.383 -1.6757  1.3918 -4.1110
  527MOL0     H71141   3.280   2.284   6.475  1.2628 -0.5061 -2.1198
  527MOL0     H71142   3.327   2.434   6.558 -1.2073  0.6540  0.2220
  527MOL0     H71143   3.685   2.262   6.441  0.3900 -4.0537  0.9639
  527MOL0     H71144   2.951   2.510   6.446 -1.8739 -1.8406 -0.2675
  527MOL0     H71145   2.730   2.421   6.384 -0.6607 -1.3411 -3.8674
  528MOL0     O71146  10.422   9.793   1.015 -0.1937 -0.3644 -0.1503
  528MOL0     C71147  10.357   9.814   1.117  0.6289  0.1303 -0.1853
  528MOL0     O71148  10.224   9.852   1.121 -0.2814  0.3747  0.1040
  528MOL0     C71149  10.143   9.900   1.022 -0.3669  0.3250  0.1387
  528MOL0     C71150  10.069  10.015   1.040  0.2056 -0.0408  0.1902
  528MOL0     C71151   9.962  10.051   0.954  0.0885 -0.5402 -1.2183
  528MOL0     C71152   9.949   9.969   0.848  0.7398  0.5834 -0.1196
  528MOL0     O71153   9.838   9.979   0.770  0.5846  0.6339  0.0927
  528MOL0     C71154   9.728  10.077   0.773 -0.8128  0.7566  1.3352
  528MOL0     C71155   9.645  10.063   0.893 -0.4600  1.1595 -0.1195
  528MOL0     C71156   9.516   9.980   0.877  0.2329  1.0924  0.5580
  528MOL0     C71157   9.406  10.029   0.977  0.2523 -0.1774  0.2425
  528MOL0     C71158   9.431   9.968   1.115  0.1856  0.2525  0.2109
  528MOL0     C71159   9.301   9.970   1.203  0.0658  0.5414 -0.3105
  528MOL0     C71160   9.316   9.917   1.350 -0.3597 -0.5320 -0.4966
  528MOL0     C71161   9.376   9.778   1.369  0.4165 -0.4292  1.2662
  528MOL0     N71162   9.315   9.675   1.291  0.0970 -0.6413 -0.0665
  528MOL0     C71163   9.362   9.623   1.172 -0.3969 -0.1822  0.6524
  528MOL0     C71164   9.251   9.553   1.122 -0.0918 -0.5402  0.2653
  528MOL0     C71165   9.254   9.488   0.979  0.1160 -0.1218 -0.8115
  528MOL0     C71166   9.267   9.594   0.861 -0.0599  0.2935  0.0519
  528MOL0     C71167   9.152   9.690   0.863  0.2790 -0.2422  0.5834
  528MOL0     C71168   9.149   9.763   0.727 -0.0547 -0.5012  0.2473
  528MOL0     O71169   9.042   9.864   0.716 -0.5527 -0.1316 -0.4968
  528MOL0     C71170   8.984   9.882   0.600 -0.0482 -0.4114  0.0889
  528MOL0     C71171   8.872   9.959   0.583 -0.0908 -0.3352  0.6096
  528MOL0     C71172   8.790   9.969   0.472 -0.6588 -0.5396 -0.0338
  528MOL0     C71173   8.682  10.067   0.481 -0.4011 -0.3344  0.4904
  528MOL0     C71174   8.839   9.910   0.353  0.5932  0.5052  0.5020
  528MOL0     C71175   8.764   9.910   0.229  0.0413 -0.0799 -0.4607
  528MOL0     O71176   8.845   9.891   0.112 -0.0020  0.4179 -0.4117
  528MOL0     C71177   8.781   9.880  -0.008 -0.7000  0.4449  0.3400
  528MOL0     C71178   8.736   9.753  -0.056 -0.2202 -0.1161  0.0624
  528MOL0     C71179   8.690   9.748  -0.189 -0.4726  0.5473  0.3438
  528MOL0     C71180   8.674   9.866  -0.269 -0.4922 -1.2121  0.0126
  528MOL0     O71181   8.640   9.857  -0.396 -0.1210 -0.0667 -0.0232
  528MOL0     C71182   8.713   9.934  -0.483 -0.0128 -0.5186  0.3059
  528MOL0     C71183   8.845   9.873  -0.522  0.0997  0.4515  0.6109
  528MOL0     C71184   8.907   9.924  -0.652 -0.3432 -0.0334 -0.4403
  528MOL0     C71185   9.043   9.847  -0.692  0.2422  0.0067 -0.5492
  528MOL0     C71186   9.126   9.906  -0.804 -0.4054 -0.5388  0.4720
  528MOL0     C71187   9.070   9.882  -0.940 -0.2494 -1.0176  0.9686
  528MOL0     C71188   9.137   9.971  -1.049  0.0878 -0.4279  0.6717
  528MOL0     C71189   9.035  10.013  -1.160 -0.0928  0.7248  0.2075
  528MOL0    Cl71190   8.918  10.129  -1.110  0.7017  0.0943  0.0271
  528MOL0     C71191   8.706   9.995  -0.215  0.7497  0.0658  0.2256
  528MOL0     C71192   8.767   9.990  -0.086  0.3026  0.2555 -0.2743
  528MOL0     O71193   8.634   9.916   0.230  0.1872  0.9174 -0.5584
  528MOL0     C71194   8.965   9.845   0.358 -0.4501  0.0775 -0.4757
  528MOL0     C71195   9.035   9.828   0.480 -0.2038 -0.0400 -0.1864
  528MOL0     N71196   9.159   9.535   1.222 -0.3855  0.4909  0.0966
  528MOL0     N71197   9.197   9.613   1.314 -0.2498 -1.0084 -0.5880
  528MOL0     C71198  10.043   9.870   0.814  0.7619 -0.7836  0.1647
  528MOL0     C71199  10.134   9.838   0.897 -0.5125  0.6877 -0.7375
  528MOL0     C71200  10.427   9.775   1.246  0.4192  0.4536 -0.1247
  528MOL0     C71201  10.356   9.773   1.362  0.5099  0.3823 -0.1144
  528MOL0     C71202  10.419   9.738   1.480 -0.9416  1.0294 -0.0568
  528MOL0     C71203  10.557   9.709   1.489 -0.7565 -0.3743 -0.7570
  528MOL0     O71204  10.623   9.685   1.603 -0.1161 -0.3012 -0.1799
  528MOL0     C71205  10.612   9.781   1.702 -0.0890  0.3354 -1.2096
  528MOL0     C71206  10.659   9.920   1.648  0.3412  0.4413 -0.1260
  528MOL0     C71207  10.683  10.012   1.755 -0.4950 -0.6634 -1.3474
  528MOL0     C71208  10.707  10.166   1.730  0.3134  0.1548  0.3224
  528MOL0     C71209  10.696  10.249   1.851 -1.2026  0.6826  0.2754
  528MOL0     C71210  10.692  10.324   1.950 -0.1491 -0.4945 -0.3624
  528MOL0     C71211  10.631   9.723   1.373  0.1255 -0.1485  0.6877
  528MOL0     C71212  10.568   9.749   1.247  0.9990 -0.1530 -0.2069
  528MOL0     H71213  10.088  10.076   1.128 -1.2825 -0.7106  1.0095
  528MOL0     H71214   9.896  10.138   0.961 -0.3397 -0.7665 -2.1640
  528MOL0     H71215   9.757  10.182   0.761 -4.3664  1.8586  1.1300
  528MOL0     H71216   9.667  10.056   0.685  2.4638  2.0080 -1.4325
  528MOL0     H71217   9.705  10.013   0.969  1.3257 -0.0284 -2.1892
  528MOL0     H71218   9.625  10.168   0.917 -0.5018  2.0087 -3.4274
  528MOL0     H71219   9.487   9.995   0.773  1.2856  1.6074  0.3340
  528MOL0     H71220   9.525   9.872   0.894 -2.0725  1.1198  2.4964
  528MOL0     H71221   9.425  10.135   0.992 -1.0051  0.1642 -0.3719
  528MOL0     H71222   9.310  10.027   0.923  1.0836  1.6654 -1.4523
  528MOL0     H71223   9.466   9.865   1.110 -1.9040 -0.5317  0.8165
  528MOL0     H71224   9.502  10.033   1.166 -1.2960  0.3913  2.1895
  528MOL0     H71225   9.279  10.075   1.224  2.1183  0.5441  2.4228
  528MOL0     H71226   9.224   9.920   1.145  0.1080  1.6375 -1.3653
  528MOL0     H71227   9.391   9.983   1.394 -0.5074 -1.0050  0.4766
  528MOL0     H71228   9.214   9.933   1.385 -0.3967 -0.5543 -0.5933
  528MOL0     H71229   9.380   9.753   1.475  2.5660  0.3237  1.4134
  528MOL0     H71230   9.480   9.787   1.334  0.3051  1.5966  1.3304
  528MOL0     H71231   9.455   9.646   1.121 -0.4387  0.9851  1.0683
  528MOL0     H71232   9.329   9.409   0.982  0.4620  0.1976 -0.9481
  528MOL0     H71233   9.155   9.445   0.958  0.3156 -1.3332  0.5948
  528MOL0     H71234   9.276   9.526   0.776 -1.2658 -0.1138  0.2414
  528MOL0     H71235   9.363   9.648   0.860  0.4235 -0.5372  0.2598
  528MOL0     H71236   9.165   9.759   0.947  1.2965  0.5523 -0.1956
  528MOL0     H71237   9.061   9.633   0.883 -0.1147 -0.4390 -1.5767
  528MOL0     H71238   9.137   9.681   0.656  0.0717  1.2020 -1.8311
  528MOL0     H71239   9.245   9.810   0.707  0.3897 -1.2311  0.6280
  528MOL0     H71240   8.851  10.019   0.671  0.8031  2.4828 -0.9722
  528MOL0     H71241   8.691  10.117   0.577  0.2959  0.8269 -0.1606
  528MOL0     H71242   8.699  10.135   0.396  2.3446 -0.2914  0.9951
  528MOL0     H71243   8.582  10.023   0.470  0.2434 -2.1190  1.3449
  528MOL0     H71244   8.742   9.671   0.015 -2.9840  0.4216  1.0367
  528MOL0     H71245   8.674   9.652  -0.238  1.8273  0.2750  0.0126
  528MOL0     H71246   8.657   9.932  -0.577  0.3211 -2.8038  0.0993
  528MOL0     H71247   8.727  10.041  -0.466 -1.8684  0.2077 -2.0640
  528MOL0     H71248   8.907   9.873  -0.432  0.9013 -1.8395  0.1339
  528MOL0     H71249   8.837   9.766  -0.544  0.7944  0.2007  1.5286
  528MOL0     H71250   8.908  10.033  -0.643 -0.4165  0.1450 -2.2153
  528MOL0     H71251   8.859   9.905  -0.748  0.0849 -2.1404 -0.2911
  528MOL0     H71252   9.105   9.845  -0.602  0.4474  1.7316 -0.6326
  528MOL0     H71253   9.021   9.746  -0.729 -0.7761 -0.1425  0.4103
  528MOL0     H71254   9.218   9.848  -0.799 -0.4911 -0.6564  0.7141
  528MOL0     H71255   9.140  10.012  -0.780  0.1981 -0.8890  1.7477
  528MOL0     H71256   9.073   9.776  -0.966 -1.2224 -0.5768 -1.1906
  528MOL0     H71257   8.965   9.909  -0.935  0.1533  0.6569  0.9936
  528MOL0     H71258   9.219   9.914  -1.092 -1.4839 -0.9622 -1.8298
  528MOL0     H71259   9.174  10.054  -0.988 -1.4117  0.1535  0.8358
  528MOL0     H71260   8.981   9.926  -1.197 -2.1069  2.4167 -1.0695
  528MOL0     H71261   9.098  10.048  -1.242 -0.7100  0.3753 -0.4219
  528MOL0     H71262   8.684  10.090  -0.263 -1.9932 -0.7523 -0.3090
  528MOL0     H71263   8.801  10.079  -0.034  0.4206 -0.0220  0.1305
  528MOL0     H71264   9.006   9.796   0.270  3.1129 -0.0626  1.1027
  528MOL0     H71265   9.131   9.777   0.486  0.4665  1.2576  0.5042
  528MOL0     H71266  10.027   9.811   0.724 -1.7006 -1.7031  1.1262
  528MOL0     H71267  10.198   9.752   0.881 -1.4588 -0.2395  0.3680
  528MOL0     H71268  10.249   9.794   1.353  0.3407 -0.3795  0.0743
  528MOL0     H71269  10.375   9.722   1.578 -1.2523  1.6774 -0.0780
  528MOL0     H71270  10.509   9.800   1.736 -0.9211 -1.2725 -2.6826
  528MOL0     H71271  10.663   9.746   1.792 -1.7182  2.0048  0.4526
  528MOL0     H71272  10.585   9.963   1.579 -1.5876 -1.0015  0.9479
  528MOL0     H71273  10.749   9.908   1.587  0.1116 -0.5889 -0.2787
  528MOL0     H71274  10.776   9.976   1.801  0.6979  2.7810 -0.7442
  528MOL0     H71275  10.601  10.006   1.827 -0.6106 -0.0635 -1.4278
  528MOL0     H71276  10.631  10.201   1.660 -0.3744 -3.2685 -0.7858
  528MOL0     H71277  10.803  10.165   1.676 -1.1625 -2.3988 -2.5838
  528MOL0     H71278  10.691  10.388   2.036 -0.1407  1.7729 -1.9330
  528MOL0     H71279  10.739   9.712   1.376 -0.0915 -3.2736  0.3165
  528MOL0     H71280  10.628   9.766   1.158  1.1687 -0.0482 -0.0733
  529MOL0     O71281   9.873   5.732   3.376 -0.4674 -0.3816 -0.4959
  529MOL0     C71282   9.892   5.665   3.273  0.5846  0.6387  0.0457
  529MOL0     O71283   9.952   5.711   3.156 -0.3014  0.1268 -0.4725
  529MOL0     C71284  10.005   5.833   3.132 -0.1562 -0.0126  0.0439
  529MOL0     C71285   9.968   5.953   3.196  0.1093  0.6186 -0.3038
  529MOL0     C71286  10.053   6.063   3.182  0.7160 -0.9552 -0.0891
  529MOL0     C71287  10.161   6.061   3.097  0.4351 -0.1180  0.7275
  529MOL0     O71288  10.251   6.162   3.072  0.2385 -0.5028  0.8087
  529MOL0     C71289  10.268   6.264   3.173  0.0127 -0.5211 -0.8381
  529MOL0     C71290  10.228   6.384   3.099 -0.2317 -0.0702 -0.0246
  529MOL0     C71291  10.347   6.482   3.082 -0.6378 -0.0836  0.5630
  529MOL0     C71292  10.302   6.613   3.019  0.4372  0.6878 -0.1096
  529MOL0     C71293  10.432   6.688   2.975  0.4139 -0.9304  0.0474
  529MOL0     C71294  10.395   6.818   2.909 -0.7579  0.2136  0.3847
  529MOL0     C71295  10.521   6.902   2.858 -0.1573 -0.0132  0.5552
  529MOL0     C71296  10.559   6.881   2.716 -0.2951 -0.0232  0.3189
  529MOL0     N71297  10.701   6.906   2.679 -0.2235 -0.3456 -0.6036
  529MOL0     C71298  10.759   7.030   2.673  0.1556 -0.4504 -0.1435
  529MOL0     C71299  10.891   7.011   2.652 -0.1964 -0.1159  0.2665
  529MOL0     C71300  10.998   7.107   2.621 -0.5556 -0.1171 -0.9376
  529MOL0     C71301  11.135   7.050   2.597  0.6112 -0.3253 -0.4292
  529MOL0     C71302  11.240   7.153   2.557 -0.8958 -0.5856 -0.3897
  529MOL0     C71303  11.377   7.085   2.592 -0.8398 -0.1926 -0.4866
  529MOL0     O71304  11.495   7.148   2.550 -0.6794 -0.6700 -0.3686
  529MOL0     C71305  11.528   7.270   2.587  0.0466  0.4731  0.7095
  529MOL0     C71306  11.625   7.341   2.518  0.8339 -1.2059  0.1755
  529MOL0     C71307  11.660   7.481   2.534 -0.2890  0.0090  0.7041
  529MOL0     C71308  11.759   7.526   2.426 -0.7948 -0.5773 -0.5292
  529MOL0     C71309  11.585   7.550   2.641  0.1183 -0.9481  0.2039
  529MOL0     C71310  11.605   7.691   2.667  0.2049  0.4168 -0.4610
  529MOL0     O71311  11.508   7.761   2.739  0.1198 -0.5406 -0.4790
  529MOL0     C71312  11.535   7.885   2.785  0.6049 -0.5536  0.7338
  529MOL0     C71313  11.445   7.975   2.728 -0.2500 -0.3732 -0.2779
  529MOL0     C71314  11.458   8.112   2.753 -0.2730  0.6696 -0.6077
  529MOL0     C71315  11.571   8.162   2.818  0.0374 -0.2270 -0.4050
  529MOL0     O71316  11.566   8.295   2.856 -0.7473 -0.3530  0.0511
  529MOL0     C71317  11.673   8.342   2.941 -0.4240 -0.9436 -0.3202
  529MOL0     C71318  11.625   8.475   2.996  0.3425  0.4017  0.2488
  529MOL0     C71319  11.504   8.464   3.083  0.4189  0.5550 -1.1476
  529MOL0     C71320  11.401   8.576   3.060  0.2108  0.3099 -0.6533
  529MOL0     C71321  11.264   8.536   3.127 -0.3108 -0.2261  0.1279
  529MOL0     C71322  11.260   8.497   3.279  0.8188  0.4130 -0.0906
  529MOL0     C71323  11.264   8.614   3.372 -0.9370 -0.5740  0.8775
  529MOL0     C71324  11.285   8.587   3.531 -0.8692  0.5898  0.2419
  529MOL0    Cl71325  11.391   8.450   3.580 -0.2353  0.2254 -0.3339
  529MOL0     C71326  11.664   8.072   2.866  0.1914  0.6098  0.0606
  529MOL0     C71327  11.643   7.935   2.852 -0.2230 -0.3932  0.0458
  529MOL0     O71328  11.711   7.736   2.638  0.3532  0.3819  0.7509
  529MOL0     C71329  11.497   7.472   2.722  1.0068  0.1582  0.5765
  529MOL0     C71330  11.476   7.339   2.694 -0.1862  0.4917 -0.0441
  529MOL0     N71331  10.913   6.877   2.639 -0.7426 -0.0107  0.2039
  529MOL0     N71332  10.805   6.815   2.669 -0.0309 -0.5661 -0.5567
  529MOL0     C71333  10.193   5.946   3.027  0.5525  0.7209 -0.6733
  529MOL0     C71334  10.118   5.828   3.045 -0.3716  0.4008 -0.0094
  529MOL0     C71335   9.864   5.527   3.293 -0.2676  0.4089  0.6477
  529MOL0     C71336   9.942   5.420   3.235  0.2202 -0.2405  0.1852
  529MOL0     C71337   9.929   5.285   3.267  0.8782  0.4585  0.1298
  529MOL0     C71338   9.832   5.256   3.364 -1.1456  0.3456 -0.0212
  529MOL0     O71339   9.836   5.125   3.409  0.3507 -0.1670  0.3354
  529MOL0     C71340   9.776   5.086   3.536  0.1004  0.0983 -0.7894
  529MOL0     C71341   9.876   5.121   3.655 -0.3637 -1.2245  0.0690
  529MOL0     C71342   9.800   5.101   3.788  0.0865  0.4729 -0.6745
  529MOL0     C71343   9.716   5.219   3.837 -0.3347 -0.0132 -0.2679
  529MOL0     C71344   9.633   5.187   3.959  0.1761  0.9312  0.7509
  529MOL0     C71345   9.584   5.162   4.071 -0.1650 -0.8275  0.3484
  529MOL0     C71346   9.751   5.349   3.418  0.5129  0.4655  0.2118
  529MOL0     C71347   9.774   5.480   3.383  0.7615  0.4434  0.1416
  529MOL0     H71348   9.870   5.962   3.240 -0.5806  0.1948 -1.7048
  529MOL0     H71349  10.025   6.160   3.222 -0.4788 -1.8746  1.3989
  529MOL0     H71350  10.220   6.256   3.271  0.7890  0.8287 -0.3246
  529MOL0     H71351  10.372   6.274   3.204 -0.7995  1.7827  1.4649
  529MOL0     H71352  10.203   6.370   2.994  0.3640 -2.1750  0.0613
  529MOL0     H71353  10.145   6.429   3.156 -1.2022 -0.8715 -0.7689
  529MOL0     H71354  10.399   6.506   3.176 -1.7776  2.9212  0.5366
  529MOL0     H71355  10.419   6.430   3.019  1.6760 -0.7347  3.4667
  529MOL0     H71356  10.245   6.593   2.927  0.2497  4.1429 -0.8643
  529MOL0     H71357  10.226   6.666   3.077 -2.9226  0.2617 -3.7287
  529MOL0     H71358  10.490   6.705   3.066  0.4836 -1.9613  0.1986
  529MOL0     H71359  10.491   6.626   2.907 -2.3369 -1.9108 -1.6257
  529MOL0     H71360  10.335   6.792   2.822  0.7234 -2.4315  0.0553
  529MOL0     H71361  10.340   6.883   2.979 -3.1581 -1.3297  0.0503
  529MOL0     H71362  10.515   7.009   2.881  2.5218  0.3024  0.1476
  529MOL0     H71363  10.599   6.862   2.923  1.0022  0.6667 -0.3822
  529MOL0     H71364  10.506   6.948   2.647  2.6920 -0.1329 -2.2781
  529MOL0     H71365  10.537   6.777   2.692 -3.8136  0.9904 -1.4996
  529MOL0     H71366  10.714   7.128   2.686 -2.9223 -1.3245 -2.7786
  529MOL0     H71367  10.968   7.152   2.527  3.0069  0.6249 -1.8600
  529MOL0     H71368  11.001   7.183   2.700  0.7155 -0.8266 -0.2598
  529MOL0     H71369  11.128   6.972   2.520 -0.9576  1.1627 -1.8670
  529MOL0     H71370  11.150   7.006   2.696  0.3272 -0.7123 -0.5547
  529MOL0     H71371  11.226   7.246   2.612 -1.5910 -0.2684 -1.0824
  529MOL0     H71372  11.237   7.180   2.451  2.4564 -3.3083 -1.3866
  529MOL0     H71373  11.381   6.987   2.545  1.1985 -1.7886  2.6648
  529MOL0     H71374  11.388   7.065   2.699  0.7009 -2.6237 -1.0201
  529MOL0     H71375  11.686   7.286   2.448  3.6441  0.4779  1.1266
  529MOL0     H71376  11.750   7.631   2.396 -0.9597 -0.0741  1.1819
  529MOL0     H71377  11.858   7.523   2.472  0.2927 -0.5246 -2.7308
  529MOL0     H71378  11.755   7.466   2.335  3.0221 -1.1742 -0.4491
  529MOL0     H71379  11.358   7.939   2.674 -0.6000  0.4310 -0.2596
  529MOL0     H71380  11.390   8.183   2.707  1.4011  1.1691 -2.4760
  529MOL0     H71381  11.703   8.273   3.021 -1.5589  1.5380  2.4707
  529MOL0     H71382  11.763   8.359   2.882  0.9218  2.1808  2.2854
  529MOL0     H71383  11.711   8.524   3.045  1.6419  1.5930 -2.9553
  529MOL0     H71384  11.611   8.537   2.907 -1.7959 -0.9714 -0.4277
  529MOL0     H71385  11.537   8.469   3.187  1.5654 -0.9692 -1.4029
  529MOL0     H71386  11.461   8.364   3.070  0.6599  0.4324 -1.0004
  529MOL0     H71387  11.443   8.661   3.115 -0.4974 -0.4391  1.1395
  529MOL0     H71388  11.387   8.609   2.957  1.9383 -0.3969 -1.1602
  529MOL0     H71389  11.237   8.448   3.067 -0.0809  0.4742 -1.0428
  529MOL0     H71390  11.189   8.615   3.121 -0.7050 -0.6785 -1.2739
  529MOL0     H71391  11.167   8.443   3.296  0.1679  1.6743  0.4847
  529MOL0     H71392  11.334   8.418   3.300  0.5219 -0.8330 -3.1941
  529MOL0     H71393  11.173   8.674   3.358 -2.5578 -3.0978 -0.2008
  529MOL0     H71394  11.351   8.673   3.343 -1.7473 -0.3451 -1.2380
  529MOL0     H71395  11.195   8.564   3.588  0.3655 -3.2475  0.9260
  529MOL0     H71396  11.328   8.681   3.567 -0.0645 -0.8913  3.4789
  529MOL0     H71397  11.747   8.099   2.931 -0.1255 -0.9966  1.1717
  529MOL0     H71398  11.711   7.855   2.881 -2.5409 -2.3188  0.5190
  529MOL0     H71399  11.434   7.511   2.801  1.4553 -1.7807  1.9699
  529MOL0     H71400  11.404   7.290   2.759 -1.2027  0.5623 -1.0896
  529MOL0     H71401  10.281   5.962   2.965  1.3133  1.5883  0.5942
  529MOL0     H71402  10.145   5.732   3.002 -1.4725 -0.1560  0.5129
  529MOL0     H71403  10.016   5.455   3.164  0.4672  0.5292  0.8068
  529MOL0     H71404   9.994   5.205   3.233 -1.7933 -0.6352 -2.8755
  529MOL0     H71405   9.679   5.125   3.568  0.7118  0.4729  0.6878
  529MOL0     H71406   9.764   4.978   3.548  0.4427 -0.0647 -1.8021
  529MOL0     H71407   9.908   5.225   3.647  1.1815 -1.6476  0.2716
  529MOL0     H71408   9.967   5.060   3.656 -0.2347 -1.1727 -2.4746
  529MOL0     H71409   9.871   5.059   3.860 -0.9371  1.1052  0.7743
  529MOL0     H71410   9.732   5.015   3.790  1.0708 -0.4501 -3.0277
  529MOL0     H71411   9.646   5.248   3.757  0.9838  0.7647 -1.1956
  529MOL0     H71412   9.778   5.307   3.857 -2.1463  2.5281 -4.3272
  529MOL0     H71413   9.531   5.151   4.163 -1.7177 -4.8548 -0.8606
  529MOL0     H71414   9.672   5.331   3.491  0.1140 -0.0504 -0.3420
  529MOL0     H71415   9.707   5.545   3.438  0.8180 -1.3781  2.5182
  530MOL0     O71416   1.442   9.891   2.538 -0.1271 -0.9556  0.1268
  530MOL0     C71417   1.438   9.979   2.622 -0.2206 -1.0939 -0.1795
  530MOL0     O71418   1.545  10.044   2.677  0.2101 -0.0423 -0.1540
  530MOL0     C71419   1.676  10.021   2.641  0.3547 -1.0384  0.1338
  530MOL0     C71420   1.750   9.912   2.688 -0.0079  0.1996 -0.1011
  530MOL0     C71421   1.887   9.895   2.657  0.5670  0.1306  1.1044
  530MOL0     C71422   1.949   9.988   2.568  0.3605 -0.1262  0.4122
  530MOL0     O71423   2.067   9.956   2.507 -0.1196 -0.3188 -0.3042
  530MOL0     C71424   2.183   9.960   2.601  0.5815 -0.8209  0.4652
  530MOL0     C71425   2.325   9.954   2.542 -0.7158 -0.6729  0.7451
  530MOL0     C71426   2.419   9.952   2.662 -0.7895 -0.2713 -0.1470
  530MOL0     C71427   2.564   9.962   2.627  0.1231 -0.4683 -0.8664
  530MOL0     C71428   2.653  10.009   2.745 -0.7269 -0.6865 -0.2832
  530MOL0     C71429   2.803   9.998   2.707  0.0296  0.4426 -0.3476
  530MOL0     C71430   2.898  10.042   2.816 -0.0164 -0.2627  0.4214
  530MOL0     C71431   2.894  10.190   2.835  0.0401 -0.0062  0.9687
  530MOL0     N71432   2.995  10.232   2.923  0.7077 -0.4242  0.5003
  530MOL0     C71433   2.995  10.188   3.057  0.9496 -0.2881 -0.4725
  530MOL0     C71434   3.112  10.226   3.103  0.0718  0.1433 -0.3692
  530MOL0     C71435   3.154  10.220   3.253 -0.1696  0.4202  0.4835
  530MOL0     C71436   3.074  10.314   3.347  0.3075 -0.3006  0.7865
  530MOL0     C71437   3.080  10.468   3.306 -0.5072 -0.0809 -0.8030
  530MOL0     C71438   2.981  10.557   3.377 -0.2636  0.8975 -0.1334
  530MOL0     O71439   2.954  10.674   3.303 -0.1044 -0.4530  0.1123
  530MOL0     C71440   2.835  10.722   3.261 -0.1722  0.1675  0.8291
  530MOL0     C71441   2.836  10.806   3.149 -0.1322 -0.5148  0.3747
  530MOL0     C71442   2.712  10.844   3.086  0.2073  0.3690  0.0623
  530MOL0     C71443   2.725  10.914   2.956 -0.1184  0.2306  0.0073
  530MOL0     C71444   2.594  10.821   3.148  0.0943 -0.9403  0.3979
  530MOL0     C71445   2.463  10.876   3.090 -0.2041 -0.2091 -1.1563
  530MOL0     O71446   2.413  10.819   2.976  0.3802 -0.7487 -0.7434
  530MOL0     C71447   2.286  10.869   2.938 -0.5797  0.4471 -0.0071
  530MOL0     C71448   2.271  10.981   2.857 -0.2796 -0.2673  0.0172
  530MOL0     C71449   2.145  11.024   2.812 -0.3102  0.0877 -0.3965
  530MOL0     C71450   2.036  10.953   2.860  0.4688 -0.2172 -0.7074
  530MOL0     O71451   1.910  10.992   2.846 -0.0822  0.3390 -0.9764
  530MOL0     C71452   1.891  11.097   2.747 -0.1867  0.2467 -0.0181
  530MOL0     C71453   1.732  11.114   2.734 -0.0315 -0.1943 -0.1927
  530MOL0     C71454   1.711  11.255   2.678  0.7317 -1.0772 -0.2043
  530MOL0     C71455   1.560  11.291   2.689 -0.7531  0.6471  0.7443
  530MOL0     C71456   1.520  11.431   2.629  0.2707  0.9331 -0.3116
  530MOL0     C71457   1.524  11.404   2.475  0.0470 -0.5281 -0.0133
  530MOL0     C71458   1.508  11.539   2.405 -0.1287 -0.4899 -0.4989
  530MOL0     C71459   1.390  11.549   2.309  0.5008 -0.5904  1.3118
  530MOL0    Cl71460   1.240  11.564   2.409 -0.0620 -0.0163  0.1177
  530MOL0     C71461   2.048  10.840   2.937  0.2643  0.2513 -0.2280
  530MOL0     C71462   2.175  10.804   2.985  0.3963 -0.7791  0.1327
  530MOL0     O71463   2.423  10.982   3.138  0.1294  0.3884  0.0084
  530MOL0     C71464   2.591  10.743   3.266  0.0640 -0.4361  0.2347
  530MOL0     C71465   2.708  10.692   3.324 -0.0304 -0.6460  1.0150
  530MOL0     N71466   3.196  10.269   3.001  0.5790  0.6409  0.5116
  530MOL0     N71467   3.122  10.273   2.893  0.2002 -0.6496  0.7191
  530MOL0     C71468   1.873  10.095   2.519 -1.0369 -0.3959 -0.3033
  530MOL0     C71469   1.740  10.112   2.547  0.0614  0.1328  0.1067
  530MOL0     C71470   1.308  10.041   2.667  1.0430  0.4753 -0.3337
  530MOL0     C71471   1.299  10.149   2.762 -0.0962  0.8789  0.9399
  530MOL0     C71472   1.184  10.181   2.824  0.1093  0.1762  0.3136
  530MOL0     C71473   1.064  10.135   2.767 -0.0065 -0.6139 -0.3944
  530MOL0     O71474   0.938  10.165   2.804  0.1042  0.3922  0.3710
  530MOL0     C71475   0.908  10.219   2.929 -0.0208  0.1249 -0.2486
  530MOL0     C71476   0.761  10.279   2.933 -0.2850  0.0284 -0.5696
  530MOL0     C71477   0.670  10.177   2.867 -1.1598  0.2518 -0.7336
  530MOL0     C71478   0.524  10.210   2.884  0.9093  0.0416  0.5169
  530MOL0     C71479   0.483  10.334   2.811 -0.6664 -0.0807  0.2660
  530MOL0     C71480   0.456  10.437   2.764  0.0584 -0.9026 -0.7353
  530MOL0     C71481   1.063  10.051   2.658 -0.3017 -0.3092  0.0344
  530MOL0     C71482   1.187  10.005   2.605  0.3040  0.3249 -0.0596
  530MOL0     H71483   1.702   9.845   2.758  0.7109 -0.7072 -0.4618
  530MOL0     H71484   1.932   9.804   2.695  0.7753  0.6085  2.0169
  530MOL0     H71485   2.180  10.059   2.648  1.8225 -1.6856  2.5380
  530MOL0     H71486   2.179   9.884   2.680 -0.3345 -0.4231  0.8134
  530MOL0     H71487   2.334   9.857   2.492  1.1877  0.3014 -0.9897
  530MOL0     H71488   2.343  10.038   2.474  0.2635 -1.9706 -0.6775
  530MOL0     H71489   2.394  10.040   2.722 -0.2293 -1.2988  1.6765
  530MOL0     H71490   2.407   9.859   2.719  1.9717 -2.2595 -2.5043
  530MOL0     H71491   2.598   9.863   2.597 -1.2011 -2.1305  2.5695
  530MOL0     H71492   2.573  10.028   2.540 -0.6728 -0.1592 -0.7261
  530MOL0     H71493   2.644  10.116   2.766  0.9880 -0.2288 -1.6050
  530MOL0     H71494   2.639   9.949   2.836  2.9574  1.4145  1.9324
  530MOL0     H71495   2.835   9.899   2.672  3.4642  2.2153 -2.8666
  530MOL0     H71496   2.826  10.048   2.612  1.1294 -0.5453 -0.6241
  530MOL0     H71497   2.851   9.997   2.904 -1.6921  0.7337  0.0829
  530MOL0     H71498   2.996  10.007   2.785 -1.7584 -4.5109 -1.0277
  530MOL0     H71499   2.790  10.214   2.861 -1.7659 -2.6465 -2.9229
  530MOL0     H71500   2.909  10.245   2.742 -2.2479 -1.2406 -0.2189
  530MOL0     H71501   2.911  10.148   3.115  1.3766 -1.1934 -0.4526
  530MOL0     H71502   3.119  10.122   3.287 -0.8370 -0.4343 -2.4220
  530MOL0     H71503   3.264  10.227   3.252 -0.1593  0.8098 -2.0935
  530MOL0     H71504   3.095  10.309   3.454  0.2279 -1.9200  0.7468
  530MOL0     H71505   2.973  10.275   3.330 -0.4851  1.5003  1.1312
  530MOL0     H71506   3.060  10.463   3.199  0.8890 -0.5993 -1.0735
  530MOL0     H71507   3.175  10.515   3.335 -1.1602  0.3277  0.7789
  530MOL0     H71508   3.001  10.577   3.483  1.3899 -0.2467 -0.1890
  530MOL0     H71509   2.891  10.497   3.388  0.2523  0.1612  0.1657
  530MOL0     H71510   2.926  10.821   3.090 -0.2693 -2.1456 -0.3089
  530MOL0     H71511   2.684  11.015   2.946  0.4454  0.5004  0.3630
  530MOL0     H71512   2.830  10.919   2.924  0.3933 -2.3012  1.0652
  530MOL0     H71513   2.666  10.864   2.879 -0.8354  1.3605 -0.2005
  530MOL0     H71514   2.365  11.030   2.834  0.1293  0.9693  3.6992
  530MOL0     H71515   2.135  11.101   2.735  0.0445 -1.8204 -2.4539
  530MOL0     H71516   1.946  11.185   2.783  2.1971 -0.7468 -1.0271
  530MOL0     H71517   1.934  11.053   2.657  2.3994  0.2498  1.1204
  530MOL0     H71518   1.692  11.039   2.665 -1.1100 -1.0204  1.2739
  530MOL0     H71519   1.681  11.102   2.830 -0.4534 -0.6313 -0.4661
  530MOL0     H71520   1.745  11.270   2.575 -0.4955  2.7480 -0.2005
  530MOL0     H71521   1.757  11.332   2.742  0.9366  0.5812 -2.2394
  530MOL0     H71522   1.508  11.216   2.628 -0.1900  1.7488 -1.1612
  530MOL0     H71523   1.534  11.283   2.795  0.6381  1.8662  1.1965
  530MOL0     H71524   1.588  11.514   2.652  0.5706  0.0267  2.5522
  530MOL0     H71525   1.424  11.477   2.654  1.5736  4.9290 -1.8401
  530MOL0     H71526   1.621  11.376   2.432 -0.0709 -0.9669  0.0048
  530MOL0     H71527   1.447  11.334   2.440 -1.1243 -0.5072  2.3693
  530MOL0     H71528   1.597  11.558   2.345 -0.6397 -2.7832 -2.1382
  530MOL0     H71529   1.522  11.619   2.478  1.0914 -1.5514  0.4706
  530MOL0     H71530   1.391  11.462   2.243  1.4450  0.4289 -0.0935
  530MOL0     H71531   1.397  11.636   2.242  0.7376 -1.9017 -0.4301
  530MOL0     H71532   1.968  10.773   2.966  0.9903  0.5991  3.0126
  530MOL0     H71533   2.184  10.712   3.042  2.3716 -1.4852 -1.2005
  530MOL0     H71534   2.491  10.739   3.308 -1.6489 -0.4735 -3.4684
  530MOL0     H71535   2.694  10.623   3.406 -2.5203 -2.7900 -1.0014
  530MOL0     H71536   1.903  10.164   2.441 -2.0665 -0.7163 -1.0007
  530MOL0     H71537   1.694  10.198   2.500 -1.7343 -1.1344 -0.5691
  530MOL0     H71538   1.394  10.190   2.795  1.0773 -2.3253  1.9005
  530MOL0     H71539   1.195  10.240   2.915 -1.4746  1.9117 -0.5502
  530MOL0     H71540   0.932  10.145   3.006  0.6229  0.5652 -0.0243
  530MOL0     H71541   0.975  10.302   2.950 -0.4508  0.0286  1.7054
  530MOL0     H71542   0.754  10.375   2.880 -2.4047 -0.7486 -1.8195
  530MOL0     H71543   0.719  10.283   3.034 -1.8837 -1.9404 -1.1038
  530MOL0     H71544   0.678  10.082   2.920 -3.3964 -0.2092 -1.1176
  530MOL0     H71545   0.700  10.166   2.763  0.7005 -1.1528 -0.1101
  530MOL0     H71546   0.498  10.231   2.988  0.5949  1.1264  0.2347
  530MOL0     H71547   0.455  10.129   2.857  0.5449  0.8521 -1.1061
  530MOL0     H71548   0.436  10.535   2.726 -0.8663 -0.4793  0.7347
  530MOL0     H71549   0.974  10.012   2.611  0.7425 -4.7561  1.2727
  530MOL0     H71550   1.180   9.937   2.521 -1.1046  1.3733 -0.8329
  531MOL0     O71551   5.133   8.474   8.362  0.5108 -0.4338 -0.8302
  531MOL0     C71552   5.119   8.593   8.397 -0.0761  0.5113 -0.2006
  531MOL0     O71553   5.154   8.703   8.316  0.8577  0.1280 -0.9966
  531MOL0     C71554   5.188   8.704   8.185 -0.5966  0.7291  0.0209
  531MOL0     C71555   5.222   8.597   8.097  0.1534  0.3499 -0.0619
  531MOL0     C71556   5.254   8.618   7.963 -0.1256 -1.2779 -0.2021
  531MOL0     C71557   5.259   8.754   7.913 -0.5665  1.1969  0.1822
  531MOL0     O71558   5.300   8.784   7.793 -0.5409 -0.2106 -0.0118
  531MOL0     C71559   5.257   8.691   7.685 -0.1888  0.1358 -0.1322
  531MOL0     C71560   5.275   8.765   7.554 -0.7847  0.5756  0.4939
  531MOL0     C71561   5.211   8.666   7.449  0.0135 -0.3972 -0.1190
  531MOL0     C71562   5.233   8.703   7.312  0.5588  0.0655 -0.5119
  531MOL0     C71563   5.149   8.823   7.264 -0.2350  0.3881  0.9191
  531MOL0     C71564   5.174   8.854   7.117 -0.4785  0.1665 -0.5456
  531MOL0     C71565   5.073   8.960   7.064  0.2067  1.1800  0.2585
  531MOL0     C71566   5.139   9.101   7.066 -0.3577  0.3704  0.4971
  531MOL0     N71567   5.038   9.207   7.054 -0.3956 -0.0147  0.2730
  531MOL0     C71568   4.964   9.243   6.944  0.4246 -0.6048  0.1038
  531MOL0     C71569   4.900   9.361   6.974 -0.0560  0.4503 -0.5351
  531MOL0     C71570   4.815   9.443   6.884 -0.4202  0.2136  0.4006
  531MOL0     C71571   4.891   9.561   6.813  0.1214 -0.5726 -0.1456
  531MOL0     C71572   4.964   9.517   6.681 -0.0855 -0.6373  0.5762
  531MOL0     C71573   5.036   9.633   6.619 -0.4136 -0.2576  1.5547
  531MOL0     O71574   5.081   9.594   6.490  0.2524  0.3690 -0.2127
  531MOL0     C71575   5.169   9.679   6.420  1.1211 -0.8744 -0.3165
  531MOL0     C71576   5.225   9.621   6.308  0.8735 -0.1251 -0.9400
  531MOL0     C71577   5.311   9.694   6.231 -1.2877  0.9038 -0.3310
  531MOL0     C71578   5.359   9.634   6.106 -0.1322 -0.0091 -0.3608
  531MOL0     C71579   5.366   9.820   6.278  0.2652 -1.1885 -0.6528
  531MOL0     C71580   5.492   9.893   6.235  0.8864 -0.0578  0.0548
  531MOL0     O71581   5.516  10.010   6.291  0.5952 -0.3873 -0.8651
  531MOL0     C71582   5.609  10.090   6.241  0.1560  0.9105  0.2421
  531MOL0     C71583   5.577  10.220   6.210 -0.7598  0.4369  0.0108
  531MOL0     C71584   5.659  10.293   6.134  0.2898 -0.8606  0.4893
  531MOL0     C71585   5.781  10.259   6.093 -1.0624  0.0432 -0.0397
  531MOL0     O71586   5.847  10.350   6.009  0.2567 -0.3295  0.8321
  531MOL0     C71587   5.981  10.314   5.968 -0.2621 -0.7993  0.5697
  531MOL0     C71588   6.030  10.430   5.883 -0.4944  0.6617  0.8148
  531MOL0     C71589   5.935  10.485   5.770 -0.3592 -0.1422  0.1773
  531MOL0     C71590   5.986  10.619   5.702 -0.5850  0.3782 -0.1565
  531MOL0     C71591   6.103  10.595   5.599  0.1725  0.0755 -0.1532
  531MOL0     C71592   6.072  10.506   5.473 -0.7365  0.1726  0.0672
  531MOL0     C71593   6.194  10.483   5.384  0.0097 -0.5473  0.1371
  531MOL0     C71594   6.310  10.385   5.443 -0.1632 -0.3635  0.1185
  531MOL0    Cl71595   6.438  10.340   5.319 -0.2647  0.5813  0.2888
  531MOL0     C71596   5.826  10.125   6.131 -0.1507 -0.2063  0.3082
  531MOL0     C71597   5.742  10.044   6.202  0.4517 -0.0092 -0.8257
  531MOL0     O71598   5.555   9.843   6.148  0.2386 -0.0794  0.6135
  531MOL0     C71599   5.292   9.874   6.393 -0.9625 -0.6745  0.1166
  531MOL0     C71600   5.195   9.810   6.453  0.5743  0.1731 -0.5057
  531MOL0     N71601   4.935   9.382   7.110 -0.0919 -0.0861  1.2202
  531MOL0     N71602   5.015   9.294   7.158  0.0856  0.6692  0.2993
  531MOL0     C71603   5.220   8.859   7.995 -0.7612 -0.4469 -0.6855
  531MOL0     C71604   5.189   8.832   8.126 -0.4382  0.1986  0.0376
  531MOL0     C71605   5.048   8.620   8.524  0.0603  0.0378 -0.6175
  531MOL0     C71606   5.092   8.723   8.604 -0.1041 -0.7450 -0.0828
  531MOL0     C71607   5.027   8.761   8.728  0.4174 -0.2314  0.4362
  531MOL0     C71608   4.931   8.671   8.778 -0.0320 -0.4927 -0.7731
  531MOL0     O71609   4.866   8.705   8.901 -0.0803  0.7267  0.4737
  531MOL0     C71610   4.725   8.661   8.921 -0.5589  0.2396 -0.1446
  531MOL0     C71611   4.653   8.783   8.995 -0.7570  0.0282 -0.6859
  531MOL0     C71612   4.509   8.760   8.982 -0.1865 -0.2897  0.6169
  531MOL0     C71613   4.431   8.876   9.036  0.4425 -0.3624  0.0337
  531MOL0     C71614   4.286   8.873   8.989 -0.6161  0.5297  0.7571
  531MOL0     C71615   4.174   8.885   8.948  0.9731  0.4041 -0.3215
  531MOL0     C71616   4.895   8.551   8.709 -0.6445 -0.4401  0.3475
  531MOL0     C71617   4.950   8.534   8.581 -0.4622  0.2293 -0.1296
  531MOL0     H71618   5.203   8.501   8.146 -2.1762  1.1974  0.8382
  531MOL0     H71619   5.277   8.532   7.901  2.1481  0.1971 -1.5482
  531MOL0     H71620   5.316   8.599   7.691 -1.4765 -0.6666  4.1096
  531MOL0     H71621   5.153   8.655   7.693 -1.2563  2.7971 -0.8948
  531MOL0     H71622   5.220   8.859   7.553 -0.8157  0.5595  0.6400
  531MOL0     H71623   5.379   8.793   7.534 -1.6412  2.3032 -2.1334
  531MOL0     H71624   5.250   8.566   7.466 -0.9566 -0.5641  1.3300
  531MOL0     H71625   5.102   8.665   7.462 -0.3013  1.2734 -2.0483
  531MOL0     H71626   5.341   8.720   7.301  0.2534  0.0299 -5.4184
  531MOL0     H71627   5.200   8.621   7.248  0.0982  1.4919 -2.1484
  531MOL0     H71628   5.043   8.797   7.276 -0.0055 -1.1919 -0.1548
  531MOL0     H71629   5.177   8.907   7.328  0.2776  1.4015 -0.5915
  531MOL0     H71630   5.275   8.888   7.093 -0.9602  1.3451 -0.9623
  531MOL0     H71631   5.151   8.759   7.067 -3.0364  0.4619 -0.1023
  531MOL0     H71632   5.038   8.925   6.966  2.5956 -2.4113  0.4988
  531MOL0     H71633   4.990   8.953   7.133  1.0541 -2.2849  1.1073
  531MOL0     H71634   5.212   9.105   6.985 -1.9961 -2.3736 -1.2529
  531MOL0     H71635   5.177   9.115   7.168 -4.0806  0.2124  2.0641
  531MOL0     H71636   4.975   9.215   6.840 -1.2053 -0.5863 -0.0979
  531MOL0     H71637   4.783   9.371   6.808  3.3441 -2.7575  1.2914
  531MOL0     H71638   4.725   9.468   6.941 -0.6194  2.2239 -0.7166
  531MOL0     H71639   4.963   9.615   6.875  0.1960  0.6428 -1.2380
  531MOL0     H71640   4.814   9.632   6.782  0.3549 -0.7475 -1.1692
  531MOL0     H71641   4.896   9.477   6.605 -0.2995  4.1100 -2.0879
  531MOL0     H71642   5.030   9.431   6.700 -0.2819 -1.2584 -1.3789
  531MOL0     H71643   5.124   9.680   6.665  0.2766  0.3607 -0.2931
  531MOL0     H71644   4.962   9.709   6.593  0.8511  0.8103  0.9545
  531MOL0     H71645   5.196   9.519   6.285 -0.0747 -0.1470  0.3144
  531MOL0     H71646   5.390   9.708   6.032  0.1928  0.6716  0.4448
  531MOL0     H71647   5.449   9.575   6.124  0.1882 -0.2455 -2.4878
  531MOL0     H71648   5.282   9.572   6.058 -1.7262  2.7359 -1.5931
  531MOL0     H71649   5.486  10.262   6.250 -0.6335  0.4932  0.2429
  531MOL0     H71650   5.637  10.399   6.129 -0.3776 -0.9897  0.5552
  531MOL0     H71651   6.037  10.317   6.061 -1.6365 -0.8221  1.4327
  531MOL0     H71652   5.988  10.220   5.911 -2.2077  0.2221 -1.5519
  531MOL0     H71653   6.035  10.510   5.957 -0.3211  1.1429  0.2991
  531MOL0     H71654   6.134  10.415   5.852 -1.1599 -0.5769 -1.0285
  531MOL0     H71655   5.838  10.510   5.813 -1.1134  0.1039 -1.5720
  531MOL0     H71656   5.901  10.411   5.697  0.9189  1.7849 -2.5646
  531MOL0     H71657   5.901  10.660   5.647  0.8602  0.9486 -2.0762
  531MOL0     H71658   6.015  10.692   5.778 -0.3854  1.2502 -1.0505
  531MOL0     H71659   6.185  10.536   5.642 -0.2642 -1.7228 -1.6321
  531MOL0     H71660   6.157  10.686   5.574  2.0963 -0.6693  1.0710
  531MOL0     H71661   6.040  10.404   5.499 -0.4360 -0.3057 -1.3570
  531MOL0     H71662   5.995  10.551   5.409 -1.2572  1.7462  1.7144
  531MOL0     H71663   6.219  10.587   5.359  0.4838 -1.2114 -2.4946
  531MOL0     H71664   6.159  10.452   5.285  0.8953  0.6056 -0.5757
  531MOL0     H71665   6.265  10.294   5.485 -1.0268 -0.3163 -0.6634
  531MOL0     H71666   6.359  10.421   5.533 -3.5521 -0.6493  2.2384
  531MOL0     H71667   5.924  10.087   6.107 -0.9162 -0.7823 -2.1669
  531MOL0     H71668   5.772   9.941   6.221  0.4157  0.2506  0.8238
  531MOL0     H71669   5.317   9.973   6.431  0.0837 -1.0895  0.5322
  531MOL0     H71670   5.133   9.852   6.531 -1.3609 -2.1669 -0.6668
  531MOL0     H71671   5.222   8.959   7.953  1.9076 -0.5998 -1.0947
  531MOL0     H71672   5.151   8.922   8.173 -0.1338  0.6430 -0.5498
  531MOL0     H71673   5.169   8.795   8.579 -0.2348  0.2250  2.0708
  531MOL0     H71674   5.046   8.846   8.793  0.6892 -1.6271  2.2656
  531MOL0     H71675   4.665   8.631   8.835 -0.1904  0.8640 -0.6278
  531MOL0     H71676   4.727   8.568   8.979 -0.5890  0.7531  0.6923
  531MOL0     H71677   4.697   8.880   8.970  1.4192 -1.3378 -2.6449
  531MOL0     H71678   4.682   8.770   9.100 -0.2452 -0.4686 -0.8822
  531MOL0     H71679   4.472   8.665   9.022 -3.2165  0.7319  0.4765
  531MOL0     H71680   4.476   8.759   8.878  2.6606 -0.6376 -0.3615
  531MOL0     H71681   4.474   8.967   8.992 -0.5038  1.0873  1.9311
  531MOL0     H71682   4.425   8.878   9.145 -1.8764 -2.2250  0.0241
  531MOL0     H71683   4.072   8.885   8.917  0.0643  2.6844  2.2626
  531MOL0     H71684   4.818   8.484   8.748 -1.2634 -0.5623 -1.0406
  531MOL0     H71685   4.917   8.447   8.525 -1.8300  0.4261  0.3297
  532MOL0     O71686   0.785   1.397   3.968 -0.9132  0.1591  0.3978
  532MOL0     C71687   0.760   1.462   3.867  0.1811 -0.0193  0.1136
  532MOL0     O71688   0.640   1.511   3.823 -0.4652  0.3894  0.5193
  532MOL0     C71689   0.529   1.469   3.886 -0.0906 -0.4977 -0.9820
  532MOL0     C71690   0.487   1.340   3.913  0.3393  1.0690 -1.5455
  532MOL0     C71691   0.364   1.304   3.977 -0.2900  0.6825 -0.0350
  532MOL0     C71692   0.267   1.401   4.012  0.1596 -0.3742  0.2014
  532MOL0     O71693   0.144   1.373   4.057  0.2620 -0.4920  0.0727
  532MOL0     C71694   0.135   1.286   4.174  0.3159  0.2467 -0.0011
  532MOL0     C71695  -0.015   1.258   4.195  0.2396 -0.0206 -0.8052
  532MOL0     C71696  -0.048   1.112   4.172 -0.1006  0.0358 -0.7447
  532MOL0     C71697  -0.185   1.099   4.114  0.3618 -0.2733 -0.2122
  532MOL0     C71698  -0.241   0.955   4.134  0.3073 -0.8608  1.3055
  532MOL0     C71699  -0.388   0.945   4.086 -0.1004  0.3318  0.2744
  532MOL0     C71700  -0.441   0.813   4.127  0.1578 -0.1973  0.4623
  532MOL0     C71701  -0.592   0.800   4.149  0.2737 -0.8666  0.4151
  532MOL0     N71702  -0.643   0.668   4.160  0.2975 -0.0628  0.1429
  532MOL0     C71703  -0.568   0.548   4.168 -0.9489  0.3572  0.0261
  532MOL0     C71704  -0.663   0.456   4.151 -1.4391 -0.4892  1.0739
  532MOL0     C71705  -0.644   0.307   4.151  0.2036  1.0000 -0.4866
  532MOL0     C71706  -0.611   0.271   4.008 -0.6194 -0.0624 -0.6118
  532MOL0     C71707  -0.587   0.119   3.998 -0.2033  0.0198 -0.0995
  532MOL0     C71708  -0.529   0.076   3.865 -0.4368 -0.9140  0.0585
  532MOL0     O71709  -0.623   0.128   3.762 -0.3756  0.2377  0.2183
  532MOL0     C71710  -0.732   0.051   3.741 -0.5179 -0.3197  0.3004
  532MOL0     C71711  -0.720  -0.086   3.698 -0.3009  0.1927  0.0128
  532MOL0     C71712  -0.836  -0.169   3.674  0.5095  0.4519 -0.4973
  532MOL0     C71713  -0.812  -0.312   3.635 -0.0111 -0.8801 -0.4786
  532MOL0     C71714  -0.969  -0.107   3.683  0.4527 -0.9330 -1.0353
  532MOL0     C71715  -1.101  -0.176   3.654 -0.1374 -0.6734 -0.1166
  532MOL0     O71716  -1.207  -0.090   3.656 -0.0115  0.7382  0.2935
  532MOL0     C71717  -1.336  -0.133   3.630  0.5948 -0.0567  0.0909
  532MOL0     C71718  -1.386  -0.257   3.679 -0.3433  0.8144  0.1508
  532MOL0     C71719  -1.518  -0.300   3.660 -0.5272  0.8862 -0.3542
  532MOL0     C71720  -1.602  -0.215   3.583 -0.2137 -0.3204 -1.4248
  532MOL0     O71721  -1.732  -0.230   3.553  0.1160 -0.6342 -0.3671
  532MOL0     C71722  -1.800  -0.347   3.614 -0.3594  0.2265  0.0403
  532MOL0     C71723  -1.801  -0.469   3.522  0.0867 -0.5516 -0.2339
  532MOL0     C71724  -1.865  -0.444   3.385  0.4456  0.2123  1.5041
  532MOL0     C71725  -1.995  -0.360   3.383 -0.1384  0.3673  0.0931
  532MOL0     C71726  -2.072  -0.389   3.255  0.4075 -0.3078  0.4126
  532MOL0     C71727  -2.218  -0.350   3.256 -0.4742  0.3449 -1.0972
  532MOL0     C71728  -2.283  -0.377   3.118 -0.0228 -0.4110  0.0100
  532MOL0     C71729  -2.425  -0.368   3.116 -0.5190 -0.1392  0.7076
  532MOL0    Cl71730  -2.506  -0.374   2.967  0.4889  0.1227  0.3794
  532MOL0     C71731  -1.554  -0.082   3.553  0.2079  0.0552 -0.3708
  532MOL0     C71732  -1.428  -0.051   3.564 -0.5987 -0.2576  0.3056
  532MOL0     O71733  -1.101  -0.301   3.635  0.1186  0.0281  0.1368
  532MOL0     C71734  -0.981   0.032   3.737 -0.1822  0.8287  0.1805
  532MOL0     C71735  -0.862   0.101   3.762 -0.3087 -0.3030  0.0548
  532MOL0     N71736  -0.790   0.511   4.130 -0.6410 -0.8255  0.2480
  532MOL0     N71737  -0.768   0.640   4.113 -0.4542 -0.1340 -0.3641
  532MOL0     C71738   0.305   1.534   3.993 -1.2391 -0.5539 -0.2135
  532MOL0     C71739   0.432   1.570   3.921  0.5436 -0.7451  0.0290
  532MOL0     C71740   0.878   1.505   3.786  0.0461 -0.7861  0.0880
  532MOL0     C71741   0.864   1.553   3.660 -0.8097  0.1090  0.1790
  532MOL0     C71742   0.982   1.583   3.582  0.2662  0.3979 -1.0344
  532MOL0     C71743   1.113   1.597   3.641  0.1968  0.0350  0.3150
  532MOL0     O71744   1.223   1.630   3.568  0.2293 -0.1909  0.0750
  532MOL0     C71745   1.215   1.668   3.433  0.6487  0.5450 -0.3251
  532MOL0     C71746   1.344   1.702   3.382 -0.3351  0.0095  0.0946
  532MOL0     C71747   1.416   1.572   3.334  0.3527 -0.6479 -0.8847
  532MOL0     C71748   1.528   1.602   3.225  0.2347  0.9422  0.0213
  532MOL0     C71749   1.632   1.698   3.260  0.7863 -0.7096  0.0409
  532MOL0     C71750   1.708   1.795   3.280 -0.1624  0.6547 -0.7328
  532MOL0     C71751   1.122   1.559   3.775  0.8374 -0.9637  0.7775
  532MOL0     C71752   1.011   1.507   3.840  0.0909  0.0986  0.2424
  532MOL0     H71753   0.554   1.255   3.903 -0.5643  0.1794 -0.3864
  532MOL0     H71754   0.341   1.199   3.991 -0.0985 -0.2693 -4.9633
  532MOL0     H71755   0.187   1.191   4.170  3.3588  1.6740  1.8385
  532MOL0     H71756   0.171   1.335   4.266  1.3986  0.5682 -0.5846
  532MOL0     H71757  -0.044   1.277   4.299  2.0904 -1.0628 -0.0527
  532MOL0     H71758  -0.072   1.328   4.133  0.4982  2.0505  1.1777
  532MOL0     H71759   0.034   1.066   4.116  1.9958  0.8451  1.4728
  532MOL0     H71760  -0.063   1.057   4.265 -1.0297  1.1708 -0.1916
  532MOL0     H71761  -0.253   1.162   4.172  1.7860 -0.0264  1.2703
  532MOL0     H71762  -0.192   1.130   4.010 -1.1784  1.3479  0.3207
  532MOL0     H71763  -0.182   0.878   4.084 -0.2826 -0.3862 -0.1813
  532MOL0     H71764  -0.240   0.934   4.242  0.8405 -0.1101  1.4493
  532MOL0     H71765  -0.443   1.024   4.139 -3.7244 -2.5389  1.2576
  532MOL0     H71766  -0.417   0.948   3.980 -1.3375 -0.0853  0.5800
  532MOL0     H71767  -0.409   0.743   4.049 -1.3603  0.2057 -0.5687
  532MOL0     H71768  -0.396   0.788   4.223  0.9125 -0.4131  0.0595
  532MOL0     H71769  -0.651   0.866   4.084  0.5940  0.0093  0.9947
  532MOL0     H71770  -0.611   0.852   4.244 -3.6044 -1.1064 -0.0727
  532MOL0     H71771  -0.463   0.532   4.191 -1.5384 -4.1037  0.5012
  532MOL0     H71772  -0.573   0.270   4.225  1.0699  0.8368 -1.3738
  532MOL0     H71773  -0.736   0.252   4.172  0.9502 -1.0111 -2.1238
  532MOL0     H71774  -0.522   0.330   3.981  1.2522 -2.7264 -0.6636
  532MOL0     H71775  -0.700   0.285   3.946 -0.6388 -2.0917 -1.1113
  532MOL0     H71776  -0.675   0.058   4.018 -0.0837  0.0251  0.4530
  532MOL0     H71777  -0.505   0.095   4.066 -0.1991  0.3860  0.0205
  532MOL0     H71778  -0.509  -0.031   3.857  0.4042 -0.7828  0.3103
  532MOL0     H71779  -0.428   0.119   3.855 -0.5361 -0.9780 -1.4216
  532MOL0     H71780  -0.619  -0.127   3.706 -0.8717 -1.0178  1.4798
  532MOL0     H71781  -0.706  -0.333   3.619  1.9935  1.3207  6.3477
  532MOL0     H71782  -0.851  -0.376   3.715 -0.6483  2.5189  2.1836
  532MOL0     H71783  -0.867  -0.328   3.542 -0.2150 -4.5661  0.1167
  532MOL0     H71784  -1.318  -0.320   3.735  2.6421  3.1726 -0.5297
  532MOL0     H71785  -1.555  -0.393   3.701 -2.3970  1.8420  0.2217
  532MOL0     H71786  -1.754  -0.364   3.712  3.1653 -0.9056 -1.6284
  532MOL0     H71787  -1.900  -0.311   3.640  0.4153  0.1967  3.5834
  532MOL0     H71788  -1.697  -0.497   3.503  0.7317  1.1366  0.5840
  532MOL0     H71789  -1.847  -0.553   3.575 -0.6125 -0.1624 -0.2017
  532MOL0     H71790  -1.883  -0.545   3.347 -4.9721  2.0210 -1.7838
  532MOL0     H71791  -1.784  -0.393   3.333  0.3145 -0.1581  0.9304
  532MOL0     H71792  -2.058  -0.368   3.473  0.7765  2.3577  0.9682
  532MOL0     H71793  -1.964  -0.256   3.390 -0.1067  0.3169  0.8961
  532MOL0     H71794  -2.070  -0.494   3.224  1.7916  0.6043 -2.9961
  532MOL0     H71795  -2.027  -0.340   3.168  0.7504  0.0261  0.7751
  532MOL0     H71796  -2.275  -0.407   3.329  0.4167  0.8155 -0.0119
  532MOL0     H71797  -2.222  -0.241   3.271  1.1676  0.1496  1.2109
  532MOL0     H71798  -2.259  -0.478   3.085  1.9969 -1.3017  3.6303
  532MOL0     H71799  -2.241  -0.304   3.048 -2.3771 -0.0648 -1.1541
  532MOL0     H71800  -2.445  -0.276   3.172  1.6621  1.5246 -1.0681
  532MOL0     H71801  -2.449  -0.459   3.172 -2.3774  0.0559  0.2958
  532MOL0     H71802  -1.615  -0.010   3.500  2.7684  0.8128 -2.5330
  532MOL0     H71803  -1.382   0.036   3.520  0.6283 -0.3964  1.2441
  532MOL0     H71804  -1.064   0.088   3.778  0.4308  1.7712  0.1719
  532MOL0     H71805  -0.868   0.206   3.790  1.0980 -0.3781  0.7272
  532MOL0     H71806   0.238   1.619   3.997 -1.6264 -0.8046 -1.2488
  532MOL0     H71807   0.441   1.677   3.905 -1.3170 -0.3626  1.2559
  532MOL0     H71808   0.771   1.556   3.604 -1.3166  0.6092  1.0358
  532MOL0     H71809   0.954   1.614   3.482 -0.2475  0.5541 -0.8464
  532MOL0     H71810   1.171   1.579   3.384  3.9755 -1.9745  0.9048
  532MOL0     H71811   1.154   1.758   3.423 -0.8812 -0.3842  0.1688
  532MOL0     H71812   1.400   1.742   3.467 -0.4467  0.1817  0.0885
  532MOL0     H71813   1.342   1.778   3.302 -0.6125  1.2933  1.2794
  532MOL0     H71814   1.342   1.503   3.293  2.7410 -2.5363 -2.3065
  532MOL0     H71815   1.469   1.528   3.419  2.4062 -0.2726 -1.9225
  532MOL0     H71816   1.480   1.636   3.133  0.0440  1.1008  0.1814
  532MOL0     H71817   1.578   1.508   3.196 -0.8155  1.7653 -5.5694
  532MOL0     H71818   1.782   1.872   3.291  0.8196  0.2112 -3.4702
  532MOL0     H71819   1.220   1.563   3.823  1.3770  0.6633 -0.3513
  532MOL0     H71820   1.014   1.467   3.941 -0.0099 -0.6480 -0.0431
  533MOL0     O71821   1.033   2.013   4.830  0.8234  0.0696 -0.3316
  533MOL0     C71822   1.149   2.041   4.862  0.1594 -0.5977 -0.4259
  533MOL0     O71823   1.249   1.965   4.914 -0.0783 -0.0788 -0.4509
  533MOL0     C71824   1.210   1.843   4.964 -0.7078 -0.1652  0.4601
  533MOL0     C71825   1.148   1.751   4.879  0.1633 -0.5877  0.1892
  533MOL0     C71826   1.112   1.626   4.930  0.0851  0.0816  0.3620
  533MOL0     C71827   1.163   1.589   5.058 -0.1133 -0.4900  0.0070
  533MOL0     O71828   1.141   1.461   5.108 -0.1592  0.5245 -1.0075
  533MOL0     C71829   1.156   1.347   5.015  0.3234  0.0201 -0.3322
  533MOL0     C71830   1.231   1.230   5.075  0.4060 -0.7477 -0.3188
  533MOL0     C71831   1.374   1.263   5.114  0.2099  0.0071 -0.5200
  533MOL0     C71832   1.425   1.155   5.210  0.4369  0.4223 -0.1853
  533MOL0     C71833   1.568   1.127   5.191 -0.0638  0.9792  0.1514
  533MOL0     C71834   1.608   1.022   5.297 -0.2797  1.2112 -0.0564
  533MOL0     C71835   1.674   1.104   5.411  0.1996 -0.1115  0.8488
  533MOL0     C71836   1.719   1.008   5.519 -0.0469  1.2834 -0.9577
  533MOL0     N71837   1.617   1.001   5.627 -0.9610  0.4330 -0.6826
  533MOL0     C71838   1.507   0.921   5.635  0.7650  0.7746 -0.3373
  533MOL0     C71839   1.458   0.936   5.764 -0.7277 -0.7151 -0.3626
  533MOL0     C71840   1.338   0.868   5.824  0.4879  0.1509  0.9132
  533MOL0     C71841   1.346   0.716   5.806  0.0754  0.1910 -0.5540
  533MOL0     C71842   1.429   0.648   5.923  0.2287 -0.4401  0.7359
  533MOL0     C71843   1.432   0.493   5.902 -0.8438 -0.8428 -0.3921
  533MOL0     O71844   1.314   0.425   5.856  1.0623 -0.2584  0.3321
  533MOL0     C71845   1.233   0.359   5.949  0.8831 -0.2115  0.0455
  533MOL0     C71846   1.270   0.314   6.075 -0.0306 -0.9305  0.6915
  533MOL0     C71847   1.179   0.249   6.158 -0.2467 -0.0411  0.1268
  533MOL0     C71848   1.238   0.215   6.297  0.5283 -0.2641 -0.4892
  533MOL0     C71849   1.047   0.237   6.122  0.0542  0.1746  0.0051
  533MOL0     C71850   0.948   0.170   6.206 -0.3442  0.7947 -0.3071
  533MOL0     O71851   0.815   0.183   6.172  0.3186 -0.0189  0.3410
  533MOL0     C71852   0.716   0.145   6.252 -0.0276  0.7041 -0.2916
  533MOL0     C71853   0.716   0.159   6.390  0.6217 -0.1808 -0.1533
  533MOL0     C71854   0.604   0.123   6.467 -0.3175 -0.3946 -0.5132
  533MOL0     C71855   0.488   0.082   6.409  0.2688  0.5151  0.4841
  533MOL0     O71856   0.377   0.052   6.488  0.0160  0.5852  0.4908
  533MOL0     C71857   0.264   0.129   6.451  0.3604 -0.0068  0.5049
  533MOL0     C71858   0.292   0.276   6.478  0.6340  0.2241 -0.4319
  533MOL0     C71859   0.166   0.356   6.485  0.0052 -0.0884 -1.0054
  533MOL0     C71860   0.078   0.324   6.615 -0.7385  0.6295  0.3786
  533MOL0     C71861   0.008   0.444   6.662 -0.0938 -0.5006 -0.5570
  533MOL0     C71862  -0.081   0.515   6.554 -0.2047  0.8123  0.2443
  533MOL0     C71863  -0.198   0.434   6.488  0.2626  0.0697  0.7524
  533MOL0     C71864  -0.269   0.519   6.388 -0.8811  0.7462  0.6101
  533MOL0    Cl71865  -0.447   0.493   6.390 -0.5255 -0.0459 -0.1135
  533MOL0     C71866   0.489   0.057   6.275 -0.2398 -0.0441  0.3744
  533MOL0     C71867   0.600   0.096   6.186 -0.7785 -0.4465 -0.6642
  533MOL0     O71868   0.984   0.094   6.295 -0.1497 -0.6392 -0.3482
  533MOL0     C71869   1.002   0.282   5.999 -0.1538  0.0876  0.5530
  533MOL0     C71870   1.094   0.344   5.907 -0.6644 -0.8233  0.5186
  533MOL0     N71871   1.546   1.035   5.830 -0.4667  0.7707 -0.1433
  533MOL0     N71872   1.636   1.072   5.744 -0.6916  0.9921  0.2645
  533MOL0     C71873   1.225   1.684   5.144 -0.2216  0.4208  1.0191
  533MOL0     C71874   1.251   1.808   5.099 -0.0550  1.1034  0.6542
  533MOL0     C71875   1.190   2.184   4.838  0.4184 -0.3606  0.3744
  533MOL0     C71876   1.320   2.230   4.864  0.2330  0.8317  0.7873
  533MOL0     C71877   1.357   2.366   4.858  0.6720 -0.2817 -0.1112
  533MOL0     C71878   1.272   2.468   4.830  1.3088  1.0705 -0.5176
  533MOL0     O71879   1.301   2.600   4.832  0.6061  0.2695  0.1977
  533MOL0     C71880   1.268   2.685   4.728  0.1798 -0.2153 -0.1969
  533MOL0     C71881   1.316   2.831   4.737 -0.6408 -0.0193 -0.3540
  533MOL0     C71882   1.331   2.888   4.597 -0.8525  0.0507  0.3962
  533MOL0     C71883   1.199   2.894   4.520  0.0216 -0.5609  0.5892
  533MOL0     C71884   1.135   3.016   4.563  0.3578 -0.7592  0.0141
  533MOL0     C71885   1.067   3.122   4.579 -0.7911  0.6473 -0.5408
  533MOL0     C71886   1.142   2.422   4.795  0.3325 -0.1263  1.0320
  533MOL0     C71887   1.103   2.286   4.788  0.2781  0.0286  0.9252
  533MOL0     H71888   1.130   1.767   4.774  3.5753  2.3212 -0.1492
  533MOL0     H71889   1.054   1.557   4.870 -1.4340  2.0643 -0.5545
  533MOL0     H71890   1.062   1.298   4.986  2.1029 -2.0987 -2.8915
  533MOL0     H71891   1.213   1.367   4.925  0.3789 -2.0768 -0.8244
  533MOL0     H71892   1.163   1.196   5.154 -0.3829 -0.0353 -0.6738
  533MOL0     H71893   1.233   1.156   4.994  1.8135  2.0407 -3.0099
  533MOL0     H71894   1.415   1.257   5.013 -1.4538  1.0094 -1.3122
  533MOL0     H71895   1.383   1.365   5.150 -1.8920 -0.3978  1.4293
  533MOL0     H71896   1.413   1.179   5.316 -1.7865 -1.3000  0.0141
  533MOL0     H71897   1.371   1.060   5.198 -2.2555  1.7154  0.7793
  533MOL0     H71898   1.579   1.095   5.087  0.7652  0.2007  0.4717
  533MOL0     H71899   1.626   1.216   5.216 -2.2978  2.0544  1.9798
  533MOL0     H71900   1.527   0.963   5.340 -0.9653  2.0513 -0.1621
  533MOL0     H71901   1.683   0.953   5.256 -0.9892  2.0851 -3.0592
  533MOL0     H71902   1.766   1.157   5.387  0.1693  0.6212  2.2203
  533MOL0     H71903   1.600   1.174   5.452  0.3971  0.8890 -0.4574
  533MOL0     H71904   1.813   1.045   5.561 -0.7314  1.2860  0.6614
  533MOL0     H71905   1.736   0.908   5.478 -2.9965 -0.8279  2.4024
  533MOL0     H71906   1.465   0.852   5.563 -1.4125  0.9936  0.6569
  533MOL0     H71907   1.318   0.902   5.926 -1.9278  4.1569 -0.6482
  533MOL0     H71908   1.251   0.904   5.768 -0.7881 -1.4269  1.7871
  533MOL0     H71909   1.383   0.697   5.705 -0.9467  0.2573 -0.9546
  533MOL0     H71910   1.243   0.680   5.817  0.9646 -1.8198  2.1117
  533MOL0     H71911   1.393   0.680   6.021  1.7725  1.0817  0.8598
  533MOL0     H71912   1.535   0.675   5.918  0.4677 -0.5242  3.8234
  533MOL0     H71913   1.466   0.461   6.001 -1.2124 -2.0356 -0.6379
  533MOL0     H71914   1.514   0.471   5.832 -0.0558 -0.6177  0.4365
  533MOL0     H71915   1.374   0.324   6.105  0.3705 -0.4304 -0.8129
  533MOL0     H71916   1.321   0.283   6.317  0.9780 -1.4584  2.0224
  533MOL0     H71917   1.167   0.233   6.378  0.4251  0.0802 -0.6536
  533MOL0     H71918   1.276   0.112   6.295  1.3680  0.0317 -2.2464
  533MOL0     H71919   0.792   0.205   6.452  0.4414 -1.8905  1.4040
  533MOL0     H71920   0.602   0.130   6.576 -1.6812 -2.6987 -0.3076
  533MOL0     H71921   0.232   0.112   6.348 -0.3800  3.0014  0.1297
  533MOL0     H71922   0.188   0.106   6.526 -0.5946  1.3600 -0.0076
  533MOL0     H71923   0.352   0.279   6.570  0.7193  0.3528 -0.4912
  533MOL0     H71924   0.365   0.317   6.408  1.8468 -0.1837  0.5543
  533MOL0     H71925   0.100   0.321   6.405 -1.2063  2.8744 -1.4549
  533MOL0     H71926   0.190   0.462   6.469  0.6512  0.2133  1.5120
  533MOL0     H71927   0.006   0.251   6.577  0.8520 -0.9381  0.2056
  533MOL0     H71928   0.133   0.264   6.688 -1.5862 -2.4228 -1.3020
  533MOL0     H71929   0.075   0.521   6.700 -0.0370 -1.0514  0.5165
  533MOL0     H71930  -0.057   0.420   6.747 -1.6989  1.2611 -1.2016
  533MOL0     H71931  -0.116   0.598   6.616  1.0160  0.1178  1.9444
  533MOL0     H71932  -0.013   0.556   6.479 -1.7118  3.1084  0.0545
  533MOL0     H71933  -0.264   0.407   6.571 -0.0926  0.0983  0.4790
  533MOL0     H71934  -0.161   0.334   6.462  1.3204  0.4882  0.5863
  533MOL0     H71935  -0.234   0.523   6.284 -1.0113 -0.0040  0.5317
  533MOL0     H71936  -0.255   0.621   6.423  1.2878 -0.1896  2.7982
  533MOL0     H71937   0.394   0.040   6.226 -0.0304  2.4282 -1.0391
  533MOL0     H71938   0.592   0.111   6.079  1.9878 -1.7520 -1.1300
  533MOL0     H71939   0.898   0.283   5.970 -0.4021 -2.8076  1.0461
  533MOL0     H71940   1.068   0.373   5.806  3.4453 -0.7008 -0.6771
  533MOL0     H71941   1.257   1.645   5.240  2.3747 -2.4888 -0.8355
  533MOL0     H71942   1.308   1.877   5.160 -0.3379  0.9582  1.0863
  533MOL0     H71943   1.400   2.162   4.893 -1.4570 -0.2939  3.1745
  533MOL0     H71944   1.459   2.397   4.879  1.7128 -1.7485 -2.6430
  533MOL0     H71945   1.322   2.644   4.642  1.4265  0.0106  0.4564
  533MOL0     H71946   1.163   2.684   4.697  0.1102 -2.3831 -0.0411
  533MOL0     H71947   1.400   2.851   4.804 -2.8628  1.4806  2.1878
  533MOL0     H71948   1.230   2.887   4.776  0.5165  0.8829  0.9996
  533MOL0     H71949   1.402   2.828   4.538  1.4774  1.9409  1.1360
  533MOL0     H71950   1.373   2.987   4.616  0.0405 -0.1140 -0.5881
  533MOL0     H71951   1.130   2.810   4.533 -0.2960 -0.8005 -2.1015
  533MOL0     H71952   1.221   2.911   4.414  0.3906  0.1353  0.7707
  533MOL0     H71953   1.006   3.209   4.586 -1.6555 -0.0079  0.4943
  533MOL0     H71954   1.069   2.496   4.764  0.9463  0.1761  0.2763
  533MOL0     H71955   1.007   2.258   4.745  1.5734 -1.4839 -1.1716
  534MOL0     O71956   7.059   4.918   6.451  0.0398  0.0261  0.2985
  534MOL0     C71957   7.150   4.865   6.395 -0.1755  0.9047 -0.7181
  534MOL0     O71958   7.280   4.888   6.423  0.1008 -0.0076  0.0678
  534MOL0     C71959   7.313   4.990   6.506  0.0917 -0.9318  0.2706
  534MOL0     C71960   7.319   4.976   6.646  0.5027  0.4061  0.8348
  534MOL0     C71961   7.348   5.088   6.733  0.3058 -0.3454  1.1161
  534MOL0     C71962   7.359   5.217   6.681  0.9574 -0.9143  0.7027
  534MOL0     O71963   7.388   5.334   6.752 -0.6632  0.5338 -0.5348
  534MOL0     C71964   7.483   5.310   6.855 -0.7712  0.0523  0.3587
  534MOL0     C71965   7.534   5.444   6.904  0.5004  0.5871  1.0427
  534MOL0     C71966   7.659   5.432   6.990 -0.3101  0.4782 -0.6852
  534MOL0     C71967   7.665   5.556   7.088  0.4515  0.8830  0.3488
  534MOL0     C71968   7.807   5.558   7.158  0.0391 -0.0069  1.0452
  534MOL0     C71969   7.824   5.693   7.239 -0.7195 -0.4970 -0.1553
  534MOL0     C71970   7.752   5.692   7.380 -0.1835 -0.4000 -0.1627
  534MOL0     C71971   7.759   5.815   7.468 -0.2627 -1.2870  0.3296
  534MOL0     N71972   7.723   5.937   7.401  0.1346  0.3711  0.3023
  534MOL0     C71973   7.599   5.992   7.390 -0.0962 -0.1576 -0.6496
  534MOL0     C71974   7.620   6.095   7.317  0.0891 -0.9194  0.0835
  534MOL0     C71975   7.507   6.191   7.264  0.6421  0.3392  0.9021
  534MOL0     C71976   7.447   6.294   7.369 -0.2979  0.7318 -0.1990
  534MOL0     C71977   7.549   6.410   7.391  0.9466  0.2808  0.4774
  534MOL0     C71978   7.518   6.494   7.517 -0.0663 -0.4952 -0.0105
  534MOL0     O71979   7.378   6.492   7.557 -0.1307 -0.2665  0.2224
  534MOL0     C71980   7.293   6.583   7.502 -0.2367  0.6125 -1.2357
  534MOL0     C71981   7.219   6.654   7.595 -0.3244 -0.2114 -0.7072
  534MOL0     C71982   7.120   6.754   7.564 -0.6080 -0.5340  0.3865
  534MOL0     C71983   7.055   6.818   7.685 -0.1398 -0.6258  0.6210
  534MOL0     C71984   7.107   6.781   7.425  0.1994  0.1673  0.2023
  534MOL0     C71985   7.003   6.882   7.371  0.0337  0.1456 -0.6729
  534MOL0     O71986   6.969   6.876   7.243 -0.0760 -0.2316  0.4036
  534MOL0     C71987   6.878   6.972   7.200  0.5179 -0.1198  0.4409
  534MOL0     C71988   6.909   7.087   7.121  0.1108  0.2294 -0.0645
  534MOL0     C71989   6.812   7.186   7.094 -0.6238 -0.0201 -0.9124
  534MOL0     C71990   6.683   7.176   7.143  0.9040  0.5196 -0.1533
  534MOL0     O71991   6.585   7.266   7.127  0.1933  0.9403 -0.3956
  534MOL0     C71992   6.636   7.400   7.095  0.3633  1.1056 -0.1430
  534MOL0     C71993   6.540   7.513   7.103  0.7890 -0.9827  0.5626
  534MOL0     C71994   6.474   7.525   7.247 -0.1718  0.4893 -0.2983
  534MOL0     C71995   6.391   7.655   7.259 -0.7310  1.1891  1.0651
  534MOL0     C71996   6.262   7.664   7.179 -0.4301  0.0517  0.0703
  534MOL0     C71997   6.162   7.772   7.216 -0.2428  0.4296  0.3354
  534MOL0     C71998   6.223   7.906   7.178 -0.3285  1.2770  0.2300
  534MOL0     C71999   6.136   8.024   7.199  0.2296 -0.7089 -0.1307
  534MOL0    Cl72000   6.204   8.167   7.124  0.4963 -0.0930  0.4755
  534MOL0     C72001   6.645   7.060   7.203 -0.4601  0.7152  0.3184
  534MOL0     C72002   6.743   6.955   7.233  0.6921 -0.1328 -0.2283
  534MOL0     O72003   6.940   6.940   7.466 -0.6148  0.8496  0.4897
  534MOL0     C72004   7.190   6.713   7.337 -0.7735  0.7730  0.1086
  534MOL0     C72005   7.269   6.604   7.373  0.4098  0.0118  0.3227
  534MOL0     N72006   7.754   6.124   7.304 -0.3271 -0.1736 -0.2015
  534MOL0     N72007   7.815   6.023   7.353 -0.1729  0.4286 -0.5630
  534MOL0     C72008   7.356   5.233   6.538 -0.0154 -0.1514  0.5289
  534MOL0     C72009   7.336   5.117   6.458  0.3480 -0.1414 -0.0383
  534MOL0     C72010   7.120   4.780   6.278  0.0505 -0.3322 -1.1980
  534MOL0     C72011   6.989   4.769   6.241  0.5159 -0.3027 -0.2212
  534MOL0     C72012   6.957   4.681   6.143 -0.1110 -0.0237  0.2664
  534MOL0     C72013   7.051   4.603   6.076 -0.1464  0.0095  0.2254
  534MOL0     O72014   7.009   4.521   5.970 -0.0053  0.7033  0.0016
  534MOL0     C72015   7.107   4.469   5.878 -0.3147 -0.4148  0.1286
  534MOL0     C72016   7.037   4.421   5.749  0.4006  0.1678  0.0102
  534MOL0     C72017   6.993   4.542   5.667 -0.3121 -0.0639 -0.3587
  534MOL0     C72018   7.004   4.524   5.516 -0.2937 -0.1012 -0.0278
  534MOL0     C72019   6.899   4.458   5.440 -0.0647  0.1970  0.3225
  534MOL0     C72020   6.800   4.414   5.381 -1.0640  0.3271 -0.7992
  534MOL0     C72021   7.181   4.606   6.125 -0.7019 -0.6735 -0.1349
  534MOL0     C72022   7.216   4.699   6.221 -0.7316  0.2250  0.5427
  534MOL0     H72023   7.319   4.872   6.678 -0.6718  0.1446  0.0751
  534MOL0     H72024   7.362   5.065   6.838  2.5186 -1.8809  0.5400
  534MOL0     H72025   7.424   5.260   6.932 -0.2457 -2.2371 -0.6518
  534MOL0     H72026   7.564   5.247   6.816 -1.1211  0.8062 -1.7261
  534MOL0     H72027   7.557   5.502   6.815  0.7660 -2.3408 -0.9576
  534MOL0     H72028   7.447   5.483   6.956  0.1119 -1.4013  1.9870
  534MOL0     H72029   7.662   5.342   7.053 -0.3644 -0.2569 -1.7149
  534MOL0     H72030   7.751   5.415   6.933 -0.6367 -2.0061 -0.6012
  534MOL0     H72031   7.655   5.654   7.040 -0.8801  0.6180  0.0550
  534MOL0     H72032   7.589   5.546   7.167 -1.7525  0.2124 -1.7181
  534MOL0     H72033   7.816   5.467   7.219 -4.5536  0.3665  2.6265
  534MOL0     H72034   7.885   5.553   7.082 -1.8719  1.4677 -1.1153
  534MOL0     H72035   7.929   5.708   7.266 -1.2664  0.3679  1.6602
  534MOL0     H72036   7.780   5.776   7.184 -2.1369 -2.2187 -1.7612
  534MOL0     H72037   7.645   5.679   7.363 -1.2296  0.8558  4.2061
  534MOL0     H72038   7.793   5.609   7.439  1.0851 -0.4232 -1.0287
  534MOL0     H72039   7.865   5.815   7.497 -0.5129 -2.6040  1.3251
  534MOL0     H72040   7.705   5.794   7.560  0.1212 -0.0920  0.8572
  534MOL0     H72041   7.510   5.948   7.434 -0.3324  1.5977  0.7173
  534MOL0     H72042   7.546   6.249   7.180  2.5888  1.8626  2.7423
  534MOL0     H72043   7.423   6.129   7.231 -0.0923  0.5207  2.3149
  534MOL0     H72044   7.417   6.239   7.458  2.3770  1.0538  1.0060
  534MOL0     H72045   7.357   6.338   7.325 -0.8967  0.2186  0.4914
  534MOL0     H72046   7.537   6.463   7.296  0.5802 -1.2030 -0.3226
  534MOL0     H72047   7.651   6.371   7.393  0.5830 -0.7420 -0.3286
  534MOL0     H72048   7.550   6.598   7.510 -1.5300  0.0300  0.5731
  534MOL0     H72049   7.564   6.438   7.599  1.0695  0.6769  0.1873
  534MOL0     H72050   7.242   6.614   7.694  1.4192  1.9439 -0.1551
  534MOL0     H72051   7.121   6.778   7.761  1.1717  1.0190  0.4156
  534MOL0     H72052   7.064   6.927   7.685 -3.8164 -0.1879  0.7162
  534MOL0     H72053   6.949   6.796   7.704  0.3402 -2.8590  0.9438
  534MOL0     H72054   7.013   7.093   7.091 -0.2112 -1.1527 -1.6450
  534MOL0     H72055   6.850   7.273   7.042 -1.1428 -1.1251 -3.2588
  534MOL0     H72056   6.720   7.419   7.162 -0.6308  0.4200  1.3732
  534MOL0     H72057   6.660   7.395   6.989  1.3012 -2.3679  0.1387
  534MOL0     H72058   6.589   7.604   7.067  0.7428 -0.6578  1.3136
  534MOL0     H72059   6.461   7.501   7.028  1.0821  2.5538 -0.4882
  534MOL0     H72060   6.544   7.521   7.330 -1.0664 -2.7260  0.4105
  534MOL0     H72061   6.416   7.433   7.254  1.0124 -0.3717 -1.2548
  534MOL0     H72062   6.369   7.670   7.365  0.1372  0.2643  1.3933
  534MOL0     H72063   6.455   7.734   7.218  0.6349 -0.9808 -1.2880
  534MOL0     H72064   6.204   7.572   7.190 -1.7459  0.9939  1.4597
  534MOL0     H72065   6.284   7.670   7.072  1.0009 -0.8528  0.2859
  534MOL0     H72066   6.072   7.754   7.157  0.5065 -1.3525 -0.3329
  534MOL0     H72067   6.137   7.758   7.321 -2.4492 -1.4670 -0.3669
  534MOL0     H72068   6.260   7.893   7.076 -1.2876  1.0279 -0.0940
  534MOL0     H72069   6.308   7.936   7.239  0.3049  1.6048 -0.7918
  534MOL0     H72070   6.115   8.038   7.305  1.3235 -1.1268  0.1558
  534MOL0     H72071   6.041   7.998   7.151  0.4701 -1.5231 -0.1745
  534MOL0     H72072   6.541   7.044   7.226 -0.8905  1.4906 -0.9993
  534MOL0     H72073   6.727   6.877   7.306  2.4806  0.2398  0.6316
  534MOL0     H72074   7.183   6.733   7.231  0.9996  3.2924  0.3998
  534MOL0     H72075   7.314   6.542   7.296 -2.3708 -0.2816 -1.2037
  534MOL0     H72076   7.346   5.337   6.509 -0.4140  0.5350  2.8778
  534MOL0     H72077   7.322   5.147   6.355  0.5078  0.2950  0.0666
  534MOL0     H72078   6.903   4.816   6.288  0.7624 -0.3649  0.3030
  534MOL0     H72079   6.855   4.663   6.109  1.0441 -0.2875 -3.4862
  534MOL0     H72080   7.181   4.547   5.855 -1.3063 -0.3890 -3.5833
  534MOL0     H72081   7.152   4.383   5.927 -0.5121  0.0045  1.0853
  534MOL0     H72082   6.949   4.364   5.780 -1.4947  2.0254 -1.7230
  534MOL0     H72083   7.107   4.355   5.697 -0.5704 -1.2280  0.3953
  534MOL0     H72084   7.057   4.629   5.681 -0.4653  0.7223 -3.7757
  534MOL0     H72085   6.894   4.568   5.705 -0.5089 -1.7750  0.4056
  534MOL0     H72086   7.105   4.488   5.491 -1.2558 -0.8586 -3.3190
  534MOL0     H72087   6.991   4.625   5.476 -0.0372  0.2107  0.6628
  534MOL0     H72088   6.719   4.376   5.322  0.7073 -2.0921 -1.8557
  534MOL0     H72089   7.258   4.538   6.088  0.1295 -0.7793  1.6869
  534MOL0     H72090   7.318   4.694   6.259 -0.9658 -1.3549  1.0543
  535MOL0     O72091   8.306  10.050   9.332  0.4739 -0.1954  0.4093
  535MOL0     C72092   8.231   9.956   9.315 -0.1074  0.5967  0.3286
  535MOL0     O72093   8.266   9.830   9.325  0.1441  0.1424 -0.0174
  535MOL0     C72094   8.394   9.787   9.350  0.2622 -0.4615 -0.1290
  535MOL0     C72095   8.422   9.659   9.306  0.3968  0.4720 -0.7789
  535MOL0     C72096   8.549   9.607   9.308  0.0187  1.0914  0.2215
  535MOL0     C72097   8.660   9.671   9.362  0.1667 -0.4292  0.1502
  535MOL0     O72098   8.784   9.632   9.355  0.6212  0.0381 -0.7133
  535MOL0     C72099   8.808   9.508   9.416  0.0211  0.8446  0.3256
  535MOL0     C72100   8.920   9.504   9.514 -0.1250  0.1777  0.5492
  535MOL0     C72101   9.055   9.502   9.452 -0.5903 -0.7519  0.0572
  535MOL0     C72102   9.130   9.625   9.499  1.0780  0.8186 -0.2298
  535MOL0     C72103   9.281   9.596   9.471  0.0781  0.2212 -0.1256
  535MOL0     C72104   9.364   9.730   9.468  0.0437  0.5322 -0.2375
  535MOL0     C72105   9.326   9.825   9.583 -0.1208  0.5563  0.7639
  535MOL0     C72106   9.417   9.947   9.600 -0.0557  0.6460  0.5383
  535MOL0     N72107   9.562   9.908   9.605 -0.1262  0.4430  0.1509
  535MOL0     C72108   9.657   9.896   9.497  0.1950 -0.2577 -0.2796
  535MOL0     C72109   9.776   9.856   9.551 -0.1687  0.4940 -0.1190
  535MOL0     C72110   9.901   9.813   9.475 -0.9137 -0.8832 -0.0957
  535MOL0     C72111   9.936   9.671   9.477 -0.3251  0.2127 -0.4359
  535MOL0     C72112  10.023   9.637   9.603  0.4093 -0.5972  0.2671
  535MOL0     C72113  10.079   9.493   9.616 -0.0325 -0.4260  0.0012
  535MOL0     O72114  10.170   9.464   9.510  0.5678  1.0893  0.6228
  535MOL0     C72115  10.198   9.337   9.470  0.6642  0.6641  0.1486
  535MOL0     C72116  10.319   9.309   9.415 -0.4946 -0.0884  1.0396
  535MOL0     C72117  10.353   9.178   9.365  0.2267 -0.4760  0.9534
  535MOL0     C72118  10.489   9.164   9.313  0.6140 -0.1813 -0.6312
  535MOL0     C72119  10.251   9.072   9.377 -0.0322 -0.1662  0.8500
  535MOL0     C72120  10.275   8.935   9.334 -0.5270 -0.6538 -0.6746
  535MOL0     O72121  10.170   8.853   9.339  0.2943 -0.1618 -0.1332
  535MOL0     C72122  10.185   8.715   9.307  0.2240 -0.3962  0.0402
  535MOL0     C72123  10.263   8.622   9.377 -0.6361  1.1859  0.3162
  535MOL0     C72124  10.264   8.486   9.334  1.1455 -0.1141 -0.6386
  535MOL0     C72125  10.190   8.439   9.232 -0.0599 -0.6414  0.4283
  535MOL0     O72126  10.197   8.307   9.207  0.3552  0.3896  0.2174
  535MOL0     C72127  10.326   8.244   9.165  0.2108  0.4523 -1.0747
  535MOL0     C72128  10.304   8.107   9.099 -0.2908  0.1508  0.2144
  535MOL0     C72129  10.438   8.049   9.049 -1.5948  0.0961 -0.0734
  535MOL0     C72130  10.416   7.928   8.959  0.7680  0.4227 -0.0234
  535MOL0     C72131  10.543   7.864   8.895 -0.5759 -0.4762 -1.1496
  535MOL0     C72132  10.522   7.758   8.782 -0.6985 -0.4076  0.9562
  535MOL0     C72133  10.460   7.631   8.836 -0.0407 -0.0283 -0.9022
  535MOL0     C72134  10.449   7.525   8.727  0.6887 -0.0048  0.1770
  535MOL0    Cl72135  10.324   7.565   8.602 -0.4055 -0.0121  0.1658
  535MOL0     C72136  10.108   8.538   9.165  0.7209 -0.4765 -0.0244
  535MOL0     C72137  10.111   8.667   9.197  0.6353  0.7431  0.2887
  535MOL0     O72138  10.391   8.906   9.307  0.3139  0.2616 -0.3843
  535MOL0     C72139  10.131   9.102   9.443 -0.2187 -0.2935  0.2250
  535MOL0     C72140  10.110   9.233   9.490 -0.1552  1.4009  0.3661
  535MOL0     N72141   9.756   9.841   9.685 -0.1428 -0.5223  0.1799
  535MOL0     N72142   9.629   9.861   9.715 -0.5165  0.8760  0.6215
  535MOL0     C72143   8.637   9.800   9.418  0.0658 -0.0953  0.5890
  535MOL0     C72144   8.504   9.855   9.414 -0.6895  0.4879 -0.8779
  535MOL0     C72145   8.095   9.989   9.263 -0.4414  0.2030  0.5888
  535MOL0     C72146   8.074  10.114   9.212  1.1201  0.2156  0.4659
  535MOL0     C72147   7.959  10.135   9.141  0.6346 -0.9543 -0.3376
  535MOL0     C72148   7.857  10.036   9.127  0.6283  0.6813  0.2373
  535MOL0     O72149   7.747  10.072   9.050  0.0665  0.1080  0.1058
  535MOL0     C72150   7.636   9.984   9.026 -0.4979 -1.0388 -0.3596
  535MOL0     C72151   7.576  10.032   8.889  0.5878 -0.4747  1.5066
  535MOL0     C72152   7.511  10.174   8.889 -0.4772  0.9514 -0.7472
  535MOL0     C72153   7.612  10.291   8.875  1.0101 -0.4641 -0.0408
  535MOL0     C72154   7.631  10.375   8.994  0.2771 -0.1055  0.4575
  535MOL0     C72155   7.640  10.427   9.104  0.1617 -0.5116 -0.5460
  535MOL0     C72156   7.876   9.912   9.194  0.8136 -1.0059 -1.0809
  535MOL0     C72157   7.994   9.901   9.266  0.1543  0.0649  0.5862
  535MOL0     H72158   8.346   9.589   9.273 -0.8733  0.2242  2.3232
  535MOL0     H72159   8.568   9.502   9.286 -1.1299  0.3361  2.5143
  535MOL0     H72160   8.720   9.476   9.473  0.8836 -0.8734  0.7783
  535MOL0     H72161   8.811   9.427   9.343 -3.0716 -0.7247  1.7474
  535MOL0     H72162   8.911   9.592   9.578  2.0051 -0.5376  1.9588
  535MOL0     H72163   8.897   9.424   9.585  0.3850 -1.3225 -0.8935
  535MOL0     H72164   9.093   9.403   9.479 -2.4141 -2.7757 -3.9519
  535MOL0     H72165   9.044   9.501   9.343  1.0711  2.8286 -0.2824
  535MOL0     H72166   9.100   9.714   9.443 -1.0022  0.1008 -0.3165
  535MOL0     H72167   9.111   9.642   9.605  0.0894 -0.7679 -0.1315
  535MOL0     H72168   9.333   9.523   9.533  0.5090 -0.4175 -1.1994
  535MOL0     H72169   9.293   9.541   9.377  0.4602 -2.8905  1.6272
  535MOL0     H72170   9.470   9.701   9.469 -0.8218 -3.9893 -4.2363
  535MOL0     H72171   9.354   9.777   9.370 -2.6852 -1.1645 -0.8854
  535MOL0     H72172   9.222   9.858   9.572 -0.6123 -1.7041 -3.5238
  535MOL0     H72173   9.330   9.770   9.677  3.8653  0.0858  0.4889
  535MOL0     H72174   9.377  10.009   9.681 -3.3712  1.2865 -1.4121
  535MOL0     H72175   9.419  10.014   9.514  0.7287 -0.1292 -0.0579
  535MOL0     H72176   9.631   9.896   9.392 -0.6020  1.0744 -0.1048
  535MOL0     H72177   9.892   9.849   9.372 -0.2179 -0.9845 -0.1977
  535MOL0     H72178   9.991   9.872   9.499  0.4803 -2.4901 -1.1358
  535MOL0     H72179   9.994   9.648   9.388 -2.6700 -0.8405 -1.7734
  535MOL0     H72180   9.851   9.603   9.479  1.1007 -1.6651 -0.1587
  535MOL0     H72181   9.960   9.663   9.688 -2.3590  0.5926 -2.0020
  535MOL0     H72182  10.110   9.703   9.594  0.9147 -1.1182  1.1505
  535MOL0     H72183   9.991   9.427   9.615 -1.3547  1.1891  1.7523
  535MOL0     H72184  10.133   9.475   9.709  1.4964  2.7159 -0.1632
  535MOL0     H72185  10.386   9.395   9.411  0.7341 -0.9889 -3.8833
  535MOL0     H72186  10.544   9.093   9.376 -0.0226 -0.0886  0.0315
  535MOL0     H72187  10.495   9.142   9.205  2.7497  1.2372 -0.8635
  535MOL0     H72188  10.547   9.256   9.321  1.2780 -0.7160  1.1385
  535MOL0     H72189  10.323   8.654   9.462  0.9723 -4.6273  1.7794
  535MOL0     H72190  10.341   8.428   9.385  4.3387  3.5527 -0.8970
  535MOL0     H72191  10.387   8.306   9.099  1.1671  0.1822 -0.4610
  535MOL0     H72192  10.385   8.233   9.256 -2.1751  3.0826  0.9764
  535MOL0     H72193  10.266   8.028   9.165 -0.2903 -1.3975 -1.5534
  535MOL0     H72194  10.231   8.121   9.018  0.2677  0.6811 -0.2013
  535MOL0     H72195  10.488   8.008   9.137 -0.2871  1.0975 -0.3227
  535MOL0     H72196  10.507   8.116   8.997 -1.0876 -2.0720 -2.4093
  535MOL0     H72197  10.368   7.853   9.021  0.6803  1.9284  1.8160
  535MOL0     H72198  10.353   7.954   8.874  1.3331  3.5846  0.3946
  535MOL0     H72199  10.601   7.818   8.975  0.1989  1.1562 -0.7177
  535MOL0     H72200  10.601   7.944   8.847 -3.2969  0.4208 -3.2138
  535MOL0     H72201  10.457   7.785   8.698 -0.4632  1.5895  1.3557
  535MOL0     H72202  10.619   7.733   8.736  0.9935  0.7211  3.6708
  535MOL0     H72203  10.365   7.669   8.876  1.4429  0.1798  2.8529
  535MOL0     H72204  10.525   7.593   8.915 -0.6936  1.3344  0.3444
  535MOL0     H72205  10.434   7.429   8.778 -1.8754 -1.1324 -2.4476
  535MOL0     H72206  10.543   7.502   8.676  2.5285 -0.8017  3.5996
  535MOL0     H72207  10.048   8.516   9.078  1.0131  2.2875 -1.0358
  535MOL0     H72208  10.049   8.728   9.132  1.7552  1.8378  0.2006
  535MOL0     H72209  10.058   9.023   9.455 -1.5994  1.1980  2.4076
  535MOL0     H72210  10.010   9.237   9.533 -0.6702 -1.4018 -0.3921
  535MOL0     H72211   8.717   9.856   9.466 -0.6531  1.5102 -0.0002
  535MOL0     H72212   8.498   9.959   9.442  2.4956  0.4499  0.3215
  535MOL0     H72213   8.155  10.185   9.228  0.7012  0.5436  1.1595
  535MOL0     H72214   7.943  10.231   9.092  0.7471 -0.2213  1.0278
  535MOL0     H72215   7.683   9.886   9.028 -1.1370 -1.4906  4.2510
  535MOL0     H72216   7.564   9.983   9.109  0.2599  0.5249  0.3623
  535MOL0     H72217   7.500   9.957   8.864  1.9491 -1.4374  0.0702
  535MOL0     H72218   7.650  10.026   8.808  1.4299 -0.1507  2.2359
  535MOL0     H72219   7.448  10.181   8.977 -0.6734 -0.9619 -0.7055
  535MOL0     H72220   7.458  10.176   8.793 -0.8167 -0.7918 -0.6295
  535MOL0     H72221   7.593  10.353   8.787 -0.0260  0.6868  0.9736
  535MOL0     H72222   7.703  10.244   8.837  0.2439 -1.4992 -0.6555
  535MOL0     H72223   7.642  10.478   9.198 -0.2104  1.9478 -1.7896
  535MOL0     H72224   7.801   9.834   9.194  1.0885 -1.2902  0.0323
  535MOL0     H72225   8.016   9.808   9.316 -1.1732  0.6032  2.2961
  536MOL0     O72226   3.270   6.122   1.651 -0.3756 -0.2063  0.1910
  536MOL0     C72227   3.157   6.145   1.693  0.0185  0.5701 -0.0474
  536MOL0     O72228   3.062   6.223   1.636 -0.4021  0.7068  0.1621
  536MOL0     C72229   3.088   6.266   1.509  0.1103 -0.3332  0.7652
  536MOL0     C72230   3.199   6.347   1.470 -0.0102 -0.2745 -0.0505
  536MOL0     C72231   3.217   6.378   1.338  0.4826 -0.4389  0.1702
  536MOL0     C72232   3.123   6.351   1.235  0.5572 -0.1745 -0.0582
  536MOL0     O72233   3.125   6.404   1.108 -0.3123 -0.6676  0.5122
  536MOL0     C72234   3.028   6.499   1.066  0.4007 -0.3726  0.0036
  536MOL0     C72235   3.067   6.600   0.962 -0.6142 -0.1862 -0.5073
  536MOL0     C72236   3.184   6.692   1.014 -0.4271  0.4022 -0.5288
  536MOL0     C72237   3.214   6.817   0.920 -0.1335 -1.1195 -0.5899
  536MOL0     C72238   3.324   6.909   0.981 -0.0961 -0.9658 -0.1750
  536MOL0     C72239   3.398   6.971   0.864 -0.5714  1.0203  0.0591
  536MOL0     C72240   3.500   6.877   0.796  0.4607  0.2778  0.4313
  536MOL0     C72241   3.593   6.952   0.702  0.4710 -0.3973 -0.1707
  536MOL0     N72242   3.685   6.859   0.643 -0.0518 -0.3608 -0.2157
  536MOL0     C72243   3.753   6.759   0.718  0.7027 -0.2960 -0.1936
  536MOL0     C72244   3.807   6.672   0.630  0.0297  0.2375 -0.6933
  536MOL0     C72245   3.885   6.547   0.641  0.5366 -0.2915  0.9627
  536MOL0     C72246   4.041   6.563   0.641 -0.1679  0.9157 -0.1655
  536MOL0     C72247   4.096   6.595   0.496 -0.3154 -0.5448 -1.5280
  536MOL0     C72248   4.106   6.469   0.414 -0.3338 -0.7548 -0.2347
  536MOL0     O72249   4.186   6.482   0.295 -0.3354 -0.4884 -0.4162
  536MOL0     C72250   4.135   6.538   0.172  0.0710 -0.4233  0.0220
  536MOL0     C72251   4.211   6.541   0.056 -0.4726  0.4920 -0.2396
  536MOL0     C72252   4.161   6.594  -0.063 -1.1981  0.8590 -0.6374
  536MOL0     C72253   4.264   6.597  -0.177  1.1337 -0.6054 -0.0448
  536MOL0     C72254   4.032   6.636  -0.065  0.7016  0.4063  0.3059
  536MOL0     C72255   3.969   6.669  -0.197 -0.5343 -0.6861 -0.1061
  536MOL0     O72256   3.832   6.665  -0.194  0.0608  0.5402  0.1012
  536MOL0     C72257   3.773   6.715  -0.306  0.2348 -0.6622  0.9646
  536MOL0     C72258   3.655   6.656  -0.342 -0.1279 -0.3424 -0.1295
  536MOL0     C72259   3.567   6.714  -0.443  0.6089  0.9897  0.0036
  536MOL0     C72260   3.593   6.836  -0.496  0.0511  1.2724  1.2897
  536MOL0     O72261   3.516   6.910  -0.590  0.2834 -0.6014 -0.0199
  536MOL0     C72262   3.431   6.838  -0.679  0.8474  0.3957  0.7213
  536MOL0     C72263   3.432   6.931  -0.799  0.4815  0.4324 -0.5761
  536MOL0     C72264   3.361   7.061  -0.758 -0.0568  0.6227  0.3906
  536MOL0     C72265   3.303   7.130  -0.878 -0.3077  0.4984 -0.1780
  536MOL0     C72266   3.246   7.271  -0.871 -0.2309 -0.3041 -0.1400
  536MOL0     C72267   3.266   7.337  -1.008  0.9608 -0.5996 -0.5504
  536MOL0     C72268   3.177   7.275  -1.104  0.4060  0.3852 -0.0546
  536MOL0     C72269   3.156   7.370  -1.217  0.1007 -0.0516  0.2135
  536MOL0    Cl72270   3.083   7.287  -1.349  0.1863 -0.2998 -0.0090
  536MOL0     C72271   3.718   6.888  -0.468 -0.5244  0.2287  0.3834
  536MOL0     C72272   3.814   6.824  -0.382  0.5556 -0.4096 -1.0664
  536MOL0     O72273   4.043   6.684  -0.301  0.3891  0.2502 -0.0050
  536MOL0     C72274   3.952   6.633   0.051 -0.4920 -0.1575 -0.0592
  536MOL0     C72275   4.009   6.588   0.165 -0.0540 -0.0505  0.3318
  536MOL0     N72276   3.785   6.735   0.511  0.8295  0.3838  0.3748
  536MOL0     N72277   3.713   6.842   0.516  0.6056 -0.5299  0.6584
  536MOL0     C72278   3.008   6.274   1.276 -0.2085  0.7764 -0.5082
  536MOL0     C72279   2.997   6.235   1.410  0.1096  0.4723 -0.1263
  536MOL0     C72280   3.119   6.065   1.814  0.3411 -0.0789 -0.3485
  536MOL0     C72281   2.995   5.998   1.825 -0.2438  0.0233 -0.2897
  536MOL0     C72282   2.966   5.914   1.928  0.4710 -0.1690 -0.4627
  536MOL0     C72283   3.064   5.905   2.033 -1.2663  0.7474 -0.6132
  536MOL0     O72284   3.049   5.841   2.152  0.1621  0.0880 -0.1185
  536MOL0     C72285   2.928   5.859   2.233 -0.2103 -0.7308  0.8766
  536MOL0     C72286   2.943   5.820   2.378 -0.6350  0.0984 -0.0554
  536MOL0     C72287   2.974   5.674   2.408 -0.5292 -0.2459  0.0119
  536MOL0     C72288   2.956   5.657   2.564  0.5226  0.0851  0.2504
  536MOL0     C72289   3.017   5.531   2.603  0.8536  1.1538  1.0641
  536MOL0     C72290   3.072   5.420   2.628 -0.5989  0.2164  0.4807
  536MOL0     C72291   3.182   5.967   2.019 -0.1727 -1.4206 -0.7974
  536MOL0     C72292   3.213   6.048   1.916  0.7155 -0.3101 -0.3315
  536MOL0     H72293   3.279   6.370   1.541  0.9533  0.1857 -1.2468
  536MOL0     H72294   3.306   6.428   1.300  0.6706 -1.5628 -0.8995
  536MOL0     H72295   2.948   6.450   1.011  1.9709 -3.7022  0.4260
  536MOL0     H72296   2.979   6.547   1.152  1.9645  1.6945 -0.1750
  536MOL0     H72297   3.086   6.538   0.874  0.9349  1.2209 -1.2179
  536MOL0     H72298   2.984   6.670   0.945  0.4720  1.6589  1.2864
  536MOL0     H72299   3.162   6.734   1.112 -0.1273  1.8191 -1.0512
  536MOL0     H72300   3.276   6.633   1.010  0.3023  1.3302  1.4607
  536MOL0     H72301   3.242   6.786   0.818  0.8563 -0.1754 -0.6213
  536MOL0     H72302   3.124   6.871   0.887  0.1703  0.2446  0.7164
  536MOL0     H72303   3.276   6.987   1.040 -0.6906 -2.0451  0.8026
  536MOL0     H72304   3.391   6.848   1.042  0.8278 -0.1927 -0.3976
  536MOL0     H72305   3.323   7.003   0.791 -1.1127  1.4770  0.8039
  536MOL0     H72306   3.454   7.057   0.903 -0.0441  0.3497  0.8201
  536MOL0     H72307   3.549   6.806   0.864  2.7355 -1.3861 -2.6778
  536MOL0     H72308   3.441   6.804   0.740 -0.5463 -1.0344  3.0434
  536MOL0     H72309   3.652   7.033   0.744 -1.7591  1.1550  0.1426
  536MOL0     H72310   3.535   6.984   0.615  3.1210  1.8706 -1.2556
  536MOL0     H72311   3.750   6.751   0.826 -4.1717  0.8851 -0.0146
  536MOL0     H72312   3.864   6.509   0.741 -2.2920  1.3314  1.1012
  536MOL0     H72313   3.848   6.468   0.576  3.6164 -2.2777  1.4220
  536MOL0     H72314   4.083   6.463   0.658  0.8419  1.5124  0.9781
  536MOL0     H72315   4.084   6.636   0.710  5.3072  0.2027 -2.3011
  536MOL0     H72316   4.198   6.625   0.523 -1.1402 -1.7126  4.1918
  536MOL0     H72317   4.037   6.679   0.457  2.5910  1.5284 -1.7644
  536MOL0     H72318   4.004   6.435   0.392  0.0909 -0.1392 -3.6082
  536MOL0     H72319   4.160   6.401   0.481  0.5374 -1.5576 -1.7173
  536MOL0     H72320   4.315   6.510   0.063 -0.3580 -0.1450 -3.5094
  536MOL0     H72321   4.287   6.703  -0.195  1.4504 -0.9732 -2.1065
  536MOL0     H72322   4.358   6.546  -0.153  0.6653 -2.6819 -2.2615
  536MOL0     H72323   4.224   6.543  -0.263  0.1065  0.5991 -0.3553
  536MOL0     H72324   3.618   6.583  -0.271  1.6754 -1.1255  0.0542
  536MOL0     H72325   3.468   6.672  -0.457  0.7475  1.4762 -3.0713
  536MOL0     H72326   3.470   6.739  -0.702 -3.0743 -1.3411  0.6819
  536MOL0     H72327   3.334   6.829  -0.630  0.3144  2.1378  0.0942
  536MOL0     H72328   3.539   6.935  -0.821 -0.0383 -3.3113 -5.4562
  536MOL0     H72329   3.395   6.891  -0.894 -2.4611  2.1014 -0.2536
  536MOL0     H72330   3.430   7.118  -0.695  2.0170 -0.7069 -0.5701
  536MOL0     H72331   3.274   7.035  -0.697 -0.5824  1.5465  0.0460
  536MOL0     H72332   3.374   7.122  -0.960  0.0595 -2.1763  0.3059
  536MOL0     H72333   3.214   7.072  -0.903 -2.6380  2.7970  2.1396
  536MOL0     H72334   3.305   7.334  -0.804 -1.3564  0.6150  0.0001
  536MOL0     H72335   3.145   7.280  -0.830  0.0265 -1.3887  0.7953
  536MOL0     H72336   3.234   7.438  -0.981 -3.0346 -2.1028  1.2856
  536MOL0     H72337   3.371   7.332  -1.037  0.4400  0.1655 -2.7799
  536MOL0     H72338   3.080   7.245  -1.063 -0.4671 -0.0089 -2.2310
  536MOL0     H72339   3.223   7.182  -1.139  1.4570  0.9125 -0.1054
  536MOL0     H72340   3.251   7.421  -1.234 -0.3613  1.6024  2.2593
  536MOL0     H72341   3.079   7.441  -1.185 -0.9249 -0.0651 -2.0434
  536MOL0     H72342   3.738   6.985  -0.514 -1.3167  0.2339  0.0327
  536MOL0     H72343   3.910   6.865  -0.353 -0.0649 -0.6183  1.6122
  536MOL0     H72344   3.857   6.685   0.052  1.5408  3.9755  1.3255
  536MOL0     H72345   3.945   6.604   0.252 -2.0897  4.5717 -1.6460
  536MOL0     H72346   2.923   6.250   1.213 -1.3972  0.7809  1.0434
  536MOL0     H72347   2.918   6.167   1.438  0.5201 -0.5834 -1.4004
  536MOL0     H72348   2.917   6.025   1.754 -1.5152 -1.1215  0.6203
  536MOL0     H72349   2.873   5.860   1.941  0.2403  0.4292  0.4719
  536MOL0     H72350   2.900   5.965   2.239  1.3530  0.2009 -3.9956
  536MOL0     H72351   2.845   5.813   2.178  0.4144  1.4372 -2.1262
  536MOL0     H72352   2.849   5.838   2.430  0.6079  0.9566  2.0056
  536MOL0     H72353   3.010   5.895   2.420 -0.8372  1.9080 -2.6958
  536MOL0     H72354   3.080   5.654   2.391 -0.1436 -1.3736  3.0448
  536MOL0     H72355   2.917   5.602   2.349  1.5353 -0.3990 -1.9255
  536MOL0     H72356   2.851   5.667   2.592  0.1689 -3.3284  0.6453
  536MOL0     H72357   3.024   5.722   2.620  0.9243 -0.7645  0.7730
  536MOL0     H72358   3.127   5.334   2.659 -0.9504 -0.7194 -1.4094
  536MOL0     H72359   3.257   5.954   2.096 -0.4504  1.8580  0.2158
  536MOL0     H72360   3.312   6.093   1.917  1.0474 -1.0135  1.2834
  537MOL0     O72361   2.674   5.958   1.537 -0.3501  0.0491 -0.5920
  537MOL0     C72362   2.730   5.869   1.609  1.0094  0.8423  0.1531
  537MOL0     O72363   2.859   5.810   1.591 -0.0771 -0.2285 -0.2810
  537MOL0     C72364   2.931   5.842   1.477 -0.1902 -1.4417 -0.7140
  537MOL0     C72365   3.069   5.847   1.498 -0.1232  0.8464  0.2213
  537MOL0     C72366   3.154   5.863   1.386  0.1266 -0.0650 -0.8542
  537MOL0     C72367   3.108   5.862   1.260 -0.4928  0.1751  0.4753
  537MOL0     O72368   3.176   5.880   1.145 -0.0956 -0.4906  0.7480
  537MOL0     C72369   3.289   5.968   1.137  0.5989 -0.5415  0.0724
  537MOL0     C72370   3.345   5.987   1.000 -0.0440  0.2462  0.1852
  537MOL0     C72371   3.240   6.042   0.906  0.1221  0.1116  0.4360
  537MOL0     C72372   3.296   6.067   0.766 -0.7239  0.5457 -0.1984
  537MOL0     C72373   3.176   6.091   0.665 -0.7642  0.1791 -0.7958
  537MOL0     C72374   3.091   6.209   0.706 -0.8074 -0.6795  0.4808
  537MOL0     C72375   3.011   6.274   0.598 -0.2609  0.6490  0.2824
  537MOL0     C72376   2.912   6.383   0.646  1.1381  0.5287  0.0320
  537MOL0     N72377   2.856   6.464   0.534 -0.4115  0.4708  0.3099
  537MOL0     C72378   2.768   6.416   0.439 -1.3577  0.6934 -0.2767
  537MOL0     C72379   2.711   6.519   0.372 -0.4169  0.2561 -0.5091
  537MOL0     C72380   2.598   6.517   0.272  0.0832  1.2354  1.1055
  537MOL0     C72381   2.531   6.645   0.256 -1.2009  0.1435 -0.3605
  537MOL0     C72382   2.492   6.673   0.111 -0.4535 -0.2280  0.2164
  537MOL0     C72383   2.473   6.822   0.085 -0.5845 -1.0417 -1.0532
  537MOL0     O72384   2.419   6.848  -0.052  0.1883  0.6652  0.8311
  537MOL0     C72385   2.451   6.970  -0.097 -0.8034 -0.2703  0.1081
  537MOL0     C72386   2.537   6.985  -0.199 -0.5401  0.2631 -0.6890
  537MOL0     C72387   2.591   7.106  -0.236 -0.0722 -0.1865 -0.0851
  537MOL0     C72388   2.689   7.101  -0.352  0.5455 -0.0050 -0.4564
  537MOL0     C72389   2.565   7.218  -0.159  0.1098 -0.3956  0.5510
  537MOL0     C72390   2.614   7.357  -0.189 -0.5462  0.0276  0.4716
  537MOL0     O72391   2.688   7.386  -0.303 -0.0498  1.5585  0.3028
  537MOL0     C72392   2.772   7.495  -0.308 -0.6306  0.1893  0.1892
  537MOL0     C72393   2.803   7.539  -0.435  0.5921 -0.4310 -1.1917
  537MOL0     C72394   2.900   7.632  -0.460 -0.5098 -0.1605 -0.2516
  537MOL0     C72395   2.984   7.673  -0.348  0.0176  0.5936  0.6158
  537MOL0     O72396   3.096   7.751  -0.365  0.1033 -0.3704  0.6346
  537MOL0     C72397   3.200   7.745  -0.264 -0.8919 -0.4309  0.3278
  537MOL0     C72398   3.309   7.835  -0.327  0.4737 -0.1934 -0.0070
  537MOL0     C72399   3.292   7.975  -0.286 -0.4665  0.0939  0.0014
  537MOL0     C72400   3.383   8.077  -0.362 -0.1023  0.3662 -0.5112
  537MOL0     C72401   3.365   8.077  -0.512 -0.0783 -1.7038  0.0510
  537MOL0     C72402   3.483   8.156  -0.576  0.4504  0.1084  0.8659
  537MOL0     C72403   3.455   8.216  -0.716 -1.3475  0.5583  0.2294
  537MOL0     C72404   3.419   8.096  -0.809 -0.8560 -1.3651  0.4344
  537MOL0    Cl72405   3.389   8.170  -0.963  0.4404  0.2021  0.3751
  537MOL0     C72406   2.943   7.642  -0.216 -0.2685 -1.0646 -0.3711
  537MOL0     C72407   2.837   7.553  -0.199 -0.1816  0.0998  0.0660
  537MOL0     O72408   2.570   7.450  -0.115  0.2411  0.2809  0.5378
  537MOL0     C72409   2.477   7.204  -0.051  0.5892  0.5869 -0.2733
  537MOL0     C72410   2.420   7.078  -0.014 -0.5864 -0.1963 -0.3242
  537MOL0     N72411   2.785   6.624   0.420 -0.5472  0.0181 -0.0465
  537MOL0     N72412   2.873   6.597   0.513  0.5695 -0.1635  0.2821
  537MOL0     C72413   2.974   5.854   1.243  0.9547  0.0992 -0.5912
  537MOL0     C72414   2.880   5.855   1.353 -0.3857 -0.2040  0.2397
  537MOL0     C72415   2.671   5.834   1.740  0.4010 -0.5096 -1.0790
  537MOL0     C72416   2.569   5.911   1.807 -0.5024  0.6780 -0.6570
  537MOL0     C72417   2.515   5.858   1.930 -0.3300 -0.2326 -0.7773
  537MOL0     C72418   2.568   5.744   1.993 -0.0182 -0.0304 -0.7054
  537MOL0     O72419   2.522   5.705   2.117  0.5558 -0.2342 -0.1624
  537MOL0     C72420   2.605   5.614   2.195 -0.4447  0.4849 -0.4905
  537MOL0     C72421   2.554   5.642   2.341  0.2595  0.0490 -0.4259
  537MOL0     C72422   2.622   5.550   2.452  1.2324 -1.0638  0.0101
  537MOL0     C72423   2.554   5.417   2.435  0.1523 -0.0901  0.2956
  537MOL0     C72424   2.645   5.311   2.485 -1.1195 -0.3971 -0.0582
  537MOL0     C72425   2.718   5.227   2.536 -0.6576 -0.4329 -0.1411
  537MOL0     C72426   2.667   5.667   1.932  0.1443 -0.3528  0.2383
  537MOL0     C72427   2.719   5.715   1.808  0.3161  0.2503  0.0566
  537MOL0     H72428   3.110   5.848   1.598 -0.4435  1.3047  0.3517
  537MOL0     H72429   3.259   5.855   1.410 -0.0481  0.7609  0.2800
  537MOL0     H72430   3.255   6.070   1.157 -1.5807 -0.6753 -2.4291
  537MOL0     H72431   3.373   5.951   1.205  2.0536  2.5824 -0.7519
  537MOL0     H72432   3.440   6.039   0.987  0.5507 -1.1443 -1.2414
  537MOL0     H72433   3.373   5.892   0.954  1.3673  0.3443  0.7992
  537MOL0     H72434   3.158   5.971   0.892  1.0466 -0.5575 -2.1149
  537MOL0     H72435   3.197   6.128   0.958 -0.0249 -0.5907  1.5169
  537MOL0     H72436   3.358   6.157   0.772  0.4621 -0.1801 -1.1373
  537MOL0     H72437   3.353   5.981   0.731  0.2284 -0.6021  3.7135
  537MOL0     H72438   3.215   6.099   0.563 -0.4414  2.3702 -0.5408
  537MOL0     H72439   3.105   6.007   0.660  1.5124 -2.0257  1.2031
  537MOL0     H72440   3.030   6.167   0.787  3.1980 -3.9743  2.2009
  537MOL0     H72441   3.159   6.274   0.761  0.4635 -2.3817  1.0224
  537MOL0     H72442   3.083   6.314   0.526 -1.0442  3.1051  0.7656
  537MOL0     H72443   2.951   6.199   0.545  1.8757 -0.7273 -0.3018
  537MOL0     H72444   2.968   6.457   0.704 -1.6762  1.8954  1.1651
  537MOL0     H72445   2.837   6.330   0.705  0.8131 -1.3313 -1.9232
  537MOL0     H72446   2.736   6.316   0.412 -3.8112  2.0315 -2.9570
  537MOL0     H72447   2.652   6.492   0.180  2.7017  1.0328  2.6240
  537MOL0     H72448   2.517   6.445   0.290 -1.4336  2.3629 -0.7030
  537MOL0     H72449   2.601   6.719   0.295 -2.6109 -0.8410  4.8939
  537MOL0     H72450   2.436   6.645   0.310 -1.3821 -0.1203 -0.6750
  537MOL0     H72451   2.396   6.628   0.083  0.5037 -1.4505 -1.2613
  537MOL0     H72452   2.575   6.646   0.045  0.0759  3.0484 -0.6730
  537MOL0     H72453   2.559   6.881   0.118 -0.5885 -1.6406  0.0761
  537MOL0     H72454   2.402   6.869   0.154  2.7799  2.2515  0.5244
  537MOL0     H72455   2.552   6.900  -0.264  0.9712  1.0717 -1.4573
  537MOL0     H72456   2.634   7.116  -0.445  0.7915 -5.0228 -1.7193
  537MOL0     H72457   2.780   7.160  -0.339  0.2086  0.3615  0.2797
  537MOL0     H72458   2.722   6.997  -0.363  0.8709  0.0311  0.1066
  537MOL0     H72459   2.748   7.489  -0.514  1.3211 -1.3180 -1.1561
  537MOL0     H72460   2.939   7.660  -0.558  1.1008 -3.5344 -0.7163
  537MOL0     H72461   3.171   7.789  -0.168 -2.1221 -0.8434  0.1672
  537MOL0     H72462   3.247   7.647  -0.249 -0.4416 -0.6077 -1.8517
  537MOL0     H72463   3.408   7.795  -0.304 -0.0807 -0.7755  1.5293
  537MOL0     H72464   3.293   7.839  -0.435  0.6827 -1.9290 -0.1286
  537MOL0     H72465   3.321   7.980  -0.181 -0.8918 -0.4472  0.1469
  537MOL0     H72466   3.185   7.999  -0.295 -0.4976 -0.3544 -0.9107
  537MOL0     H72467   3.361   8.179  -0.327  1.8514  0.5809  0.2303
  537MOL0     H72468   3.485   8.049  -0.337 -0.6013 -1.2566 -0.2089
  537MOL0     H72469   3.269   8.122  -0.541  0.2489 -2.2046 -1.9233
  537MOL0     H72470   3.359   7.980  -0.562 -1.1760 -1.0385 -1.1609
  537MOL0     H72471   3.504   8.238  -0.507 -1.5429  1.4071  0.0218
  537MOL0     H72472   3.567   8.086  -0.588 -0.5713 -0.8849 -0.9922
  537MOL0     H72473   3.533   8.274  -0.768 -0.6744 -3.6996 -4.1655
  537MOL0     H72474   3.370   8.283  -0.702 -1.6538  0.4046 -0.8541
  537MOL0     H72475   3.330   8.047  -0.769 -0.5850 -0.8546  1.7144
  537MOL0     H72476   3.495   8.019  -0.826  1.0610  0.3728  0.7865
  537MOL0     H72477   2.996   7.678  -0.129  2.3745 -1.3249 -1.7675
  537MOL0     H72478   2.814   7.523  -0.097 -0.6212 -0.3013 -0.1465
  537MOL0     H72479   2.449   7.286   0.015 -1.1176 -1.5049  1.7989
  537MOL0     H72480   2.346   7.083   0.065 -0.7788 -2.0516 -0.3330
  537MOL0     H72481   2.934   5.854   1.142  1.2876  2.5375 -0.7910
  537MOL0     H72482   2.774   5.873   1.342 -0.2645  2.0694  2.0514
  537MOL0     H72483   2.530   6.000   1.758  0.1662 -0.0136 -2.5633
  537MOL0     H72484   2.446   5.918   1.988  3.3817  2.0106  1.8466
  537MOL0     H72485   2.595   5.508   2.169 -1.4859 -0.5834  3.4776
  537MOL0     H72486   2.712   5.638   2.187 -0.0497 -1.2122 -0.6132
  537MOL0     H72487   2.445   5.626   2.341  0.1710  0.6064 -0.1066
  537MOL0     H72488   2.566   5.744   2.377  1.1904  0.0941 -0.8308
  537MOL0     H72489   2.602   5.592   2.551 -1.1833 -2.3530  0.1352
  537MOL0     H72490   2.729   5.542   2.431  0.8228 -1.9696 -2.0139
  537MOL0     H72491   2.523   5.389   2.334 -0.2909  0.1161  0.3728
  537MOL0     H72492   2.463   5.423   2.495 -1.2653  1.9689 -1.8406
  537MOL0     H72493   2.777   5.150   2.582  0.3799 -1.4413 -2.9126
  537MOL0     H72494   2.702   5.571   1.968 -1.5199 -1.6397 -1.3535
  537MOL0     H72495   2.808   5.676   1.759  0.6120  2.2817 -1.1327
  538MOL0     O72496   0.391   6.022   0.757 -0.1310  0.5219 -0.0139
  538MOL0     C72497   0.302   5.974   0.685  0.2500  0.4454 -0.4012
  538MOL0     O72498   0.216   6.043   0.601 -0.3939  0.2518  0.3220
  538MOL0     C72499   0.206   6.184   0.591 -0.3828 -0.7678 -0.4472
  538MOL0     C72500   0.283   6.280   0.654  0.1412  0.6166 -0.0449
  538MOL0     C72501   0.263   6.421   0.635  0.0852  0.0497  0.0815
  538MOL0     C72502   0.161   6.459   0.549 -0.7573 -0.1897  0.6044
  538MOL0     O72503   0.139   6.583   0.494 -0.3101  0.2850  0.4843
  538MOL0     C72504   0.192   6.696   0.561 -0.6740  0.3472 -0.2182
  538MOL0     C72505   0.092   6.802   0.544  0.1568 -0.2103 -0.4005
  538MOL0     C72506  -0.035   6.783   0.639 -0.1943 -0.2699 -1.0359
  538MOL0     C72507  -0.151   6.702   0.584 -0.7577 -0.1494  0.2203
  538MOL0     C72508  -0.240   6.648   0.696  0.7203 -0.9474  0.0818
  538MOL0     C72509  -0.332   6.542   0.631  0.4650 -0.1579 -0.8845
  538MOL0     C72510  -0.438   6.499   0.735 -0.5216 -0.0250  0.3896
  538MOL0     C72511  -0.534   6.399   0.676 -0.4750 -0.9968  0.1500
  538MOL0     N72512  -0.617   6.348   0.786  0.4019  0.4922  0.8692
  538MOL0     C72513  -0.575   6.262   0.882  0.9682  0.4509 -0.5466
  538MOL0     C72514  -0.686   6.231   0.953  0.5983  0.0886  0.4535
  538MOL0     C72515  -0.690   6.158   1.077 -0.4802 -0.3836 -0.0636
  538MOL0     C72516  -0.744   6.021   1.072  0.5723 -0.2218  0.8811
  538MOL0     C72517  -0.711   5.954   1.201 -0.0029 -0.0268  0.2305
  538MOL0     C72518  -0.776   6.009   1.331 -0.0789 -0.6401  0.0125
  538MOL0     O72519  -0.767   5.906   1.428  0.1607 -0.6802  0.8443
  538MOL0     C72520  -0.875   5.819   1.445 -0.0158 -0.1153 -0.9648
  538MOL0     C72521  -0.860   5.734   1.549  0.7601 -0.3351 -0.2138
  538MOL0     C72522  -0.959   5.629   1.564 -0.2390  0.0490 -0.7662
  538MOL0     C72523  -0.937   5.563   1.704 -0.5907  0.2902 -0.2378
  538MOL0     C72524  -1.069   5.615   1.482 -0.2123  0.3799  0.2203
  538MOL0     C72525  -1.182   5.515   1.507 -0.4565 -0.3404 -0.1449
  538MOL0     O72526  -1.303   5.548   1.449  0.0843 -0.2624 -0.0641
  538MOL0     C72527  -1.405   5.460   1.425 -0.6271 -0.8414  0.0193
  538MOL0     C72528  -1.527   5.477   1.497 -0.2369  0.4671  0.9547
  538MOL0     C72529  -1.643   5.408   1.468  0.4636 -0.0643 -0.4192
  538MOL0     C72530  -1.640   5.318   1.365 -0.8594 -0.0473  0.0579
  538MOL0     O72531  -1.755   5.241   1.350  0.6460 -0.8015  0.7981
  538MOL0     C72532  -1.817   5.241   1.212  0.5251 -0.8165 -0.5473
  538MOL0     C72533  -1.850   5.372   1.145 -0.3747  0.1687 -0.0192
  538MOL0     C72534  -1.942   5.465   1.224 -0.7130 -0.5072  0.4352
  538MOL0     C72535  -1.899   5.617   1.194  0.2854 -0.3094 -0.4581
  538MOL0     C72536  -1.988   5.717   1.285  0.5821 -0.2134 -1.3602
  538MOL0     C72537  -2.139   5.711   1.262 -0.9048  0.9430  0.2225
  538MOL0     C72538  -2.213   5.788   1.379 -0.2602 -0.3463  0.3379
  538MOL0     C72539  -2.359   5.767   1.372  0.9949 -0.1047  0.6297
  538MOL0    Cl72540  -2.440   5.840   1.512 -0.2154 -0.0481 -0.7029
  538MOL0     C72541  -1.518   5.284   1.298 -0.0763  0.3624 -1.0136
  538MOL0     C72542  -1.406   5.359   1.329 -0.2647 -0.7791 -1.0595
  538MOL0     O72543  -1.159   5.409   1.564  0.1668 -0.1575  0.1733
  538MOL0     C72544  -1.085   5.713   1.378 -0.6717 -0.4804  0.8581
  538MOL0     C72545  -0.984   5.813   1.361  0.4993 -0.1848 -0.0885
  538MOL0     N72546  -0.795   6.299   0.894  0.5422 -0.3335  0.0816
  538MOL0     N72547  -0.751   6.367   0.793  0.1768 -0.9338 -0.2021
  538MOL0     C72548   0.068   6.362   0.498  0.1308 -0.1182  0.7142
  538MOL0     C72549   0.096   6.229   0.517  0.2788  0.3375  0.1656
  538MOL0     C72550   0.281   5.826   0.698 -0.0024 -0.3301 -0.3038
  538MOL0     C72551   0.356   5.742   0.783  0.6035 -0.0180 -0.1614
  538MOL0     C72552   0.324   5.604   0.806 -0.1252  0.0750  0.0694
  538MOL0     C72553   0.218   5.547   0.734  0.5907  0.1525 -0.2576
  538MOL0     O72554   0.183   5.414   0.737  0.0083 -0.3216 -0.3322
  538MOL0     C72555   0.255   5.334   0.830 -0.2823 -0.1128  0.9518
  538MOL0     C72556   0.183   5.193   0.838 -0.3387  0.3747 -0.5562
  538MOL0     C72557   0.176   5.109   0.706  0.4631  0.7507  0.6291
  538MOL0     C72558   0.038   5.120   0.649  0.2525 -0.2840 -0.2347
  538MOL0     C72559   0.021   5.044   0.529  0.0660 -0.2910  0.5072
  538MOL0     C72560  -0.001   4.969   0.437 -0.7910 -0.2549  1.1684
  538MOL0     C72561   0.156   5.624   0.638  1.2930 -0.4630 -0.6153
  538MOL0     C72562   0.180   5.764   0.628 -0.6163 -0.3020  0.7030
  538MOL0     H72563   0.359   6.247   0.724 -1.9988 -0.8180  1.7909
  538MOL0     H72564   0.331   6.498   0.671  0.4946 -0.1327 -0.2935
  538MOL0     H72565   0.214   6.686   0.668 -1.9861  0.3439  0.0674
  538MOL0     H72566   0.282   6.731   0.509 -1.8462  2.0115 -1.2009
  538MOL0     H72567   0.151   6.886   0.581  0.4312 -1.0263  1.0661
  538MOL0     H72568   0.047   6.829   0.448  0.8393  2.2880 -0.1013
  538MOL0     H72569   0.003   6.726   0.724  1.7618 -1.1723 -2.4366
  538MOL0     H72570  -0.060   6.886   0.669 -0.2144 -0.1996 -1.2906
  538MOL0     H72571  -0.219   6.752   0.515 -2.5122 -4.4644 -1.4546
  538MOL0     H72572  -0.107   6.621   0.526  4.6905  1.3925  1.5717
  538MOL0     H72573  -0.193   6.596   0.779 -0.4990 -1.8740  0.2131
  538MOL0     H72574  -0.298   6.731   0.739 -1.0179 -1.3687 -1.3173
  538MOL0     H72575  -0.381   6.574   0.538 -0.3785  3.0735  0.5060
  538MOL0     H72576  -0.267   6.457   0.613  2.5216  0.9610  0.8385
  538MOL0     H72577  -0.390   6.447   0.817  0.5580 -1.2518 -0.9627
  538MOL0     H72578  -0.490   6.590   0.769 -0.5214 -0.2081  0.8820
  538MOL0     H72579  -0.481   6.314   0.631  0.4643 -0.7949  0.8291
  538MOL0     H72580  -0.587   6.455   0.600  1.7257  0.8364 -0.1528
  538MOL0     H72581  -0.478   6.219   0.902  0.3712 -1.0669 -0.7521
  538MOL0     H72582  -0.586   6.146   1.109  0.3480  1.1813 -2.0291
  538MOL0     H72583  -0.737   6.210   1.161 -0.6672  1.7889 -1.4630
  538MOL0     H72584  -0.705   5.966   0.986 -2.4803 -0.6601 -0.3555
  538MOL0     H72585  -0.853   6.030   1.062  0.6978 -0.8269 -1.5066
  538MOL0     H72586  -0.604   5.971   1.215 -0.4540  2.2665  1.3942
  538MOL0     H72587  -0.731   5.847   1.197  0.8660 -0.2224  0.7720
  538MOL0     H72588  -0.877   6.048   1.318  1.6578  4.2373 -1.1952
  538MOL0     H72589  -0.713   6.092   1.366 -0.3657 -1.7115  3.4067
  538MOL0     H72590  -0.790   5.758   1.628 -1.3824  5.0651  0.5240
  538MOL0     H72591  -0.889   5.465   1.694 -1.6078 -0.1185 -1.2965
  538MOL0     H72592  -0.866   5.630   1.753  2.0263 -0.6246 -2.4896
  538MOL0     H72593  -1.022   5.545   1.770 -0.2602  1.3735  0.5080
  538MOL0     H72594  -1.534   5.564   1.561  1.5124  3.6580 -2.7593
  538MOL0     H72595  -1.736   5.418   1.523 -0.8534  0.3095 -2.5923
  538MOL0     H72596  -1.765   5.177   1.141  0.8453 -0.0741 -0.9965
  538MOL0     H72597  -1.915   5.200   1.236 -0.5024  1.4389 -0.6369
  538MOL0     H72598  -1.754   5.408   1.108  1.6128 -2.0673  2.5266
  538MOL0     H72599  -1.898   5.340   1.052  2.2538  1.7067 -2.0581
  538MOL0     H72600  -1.952   5.446   1.331 -0.4568  1.8503  0.9356
  538MOL0     H72601  -2.039   5.444   1.179 -0.0894  0.6783 -1.6415
  538MOL0     H72602  -1.796   5.623   1.228 -0.9859  0.1650  3.8910
  538MOL0     H72603  -1.918   5.639   1.088  2.5287  0.2545 -0.7797
  538MOL0     H72604  -1.949   5.818   1.271 -1.4020  1.4420  3.1757
  538MOL0     H72605  -1.976   5.686   1.389 -1.3547  1.6269 -0.5003
  538MOL0     H72606  -2.168   5.763   1.170 -0.2978 -0.1486 -0.6160
  538MOL0     H72607  -2.165   5.605   1.256  4.1976 -0.5514  0.0420
  538MOL0     H72608  -2.179   5.892   1.379  2.7730 -1.2166  1.0951
  538MOL0     H72609  -2.180   5.759   1.479 -1.0054 -0.5413  0.5281
  538MOL0     H72610  -2.388   5.662   1.366 -0.3053  0.2919 -0.8240
  538MOL0     H72611  -2.399   5.821   1.286  1.9643  0.5112  0.5530
  538MOL0     H72612  -1.499   5.203   1.230  2.2574 -0.4410  0.4950
  538MOL0     H72613  -1.312   5.347   1.276  0.0726  2.0469 -1.2651
  538MOL0     H72614  -1.168   5.713   1.308 -2.8891  1.9185  3.2179
  538MOL0     H72615  -1.012   5.890   1.290  0.5083 -1.1153 -1.1281
  538MOL0     H72616  -0.004   6.394   0.423  1.4863  2.2421  0.2923
  538MOL0     H72617   0.022   6.165   0.471  2.7408 -2.7944  0.2521
  538MOL0     H72618   0.445   5.781   0.831  0.5770 -1.2150  0.9258
  538MOL0     H72619   0.387   5.542   0.868 -1.3352 -1.3316 -0.0392
  538MOL0     H72620   0.351   5.307   0.785 -0.4767 -0.0044  0.4569
  538MOL0     H72621   0.262   5.374   0.931 -1.8014 -0.2987  1.1496
  538MOL0     H72622   0.080   5.206   0.871 -1.5413 -3.3429 -2.2497
  538MOL0     H72623   0.240   5.137   0.914 -1.4682 -0.4336 -0.2782
  538MOL0     H72624   0.195   5.002   0.712  1.5445  0.9224  0.3969
  538MOL0     H72625   0.249   5.141   0.631 -0.2126 -0.2942 -0.5113
  538MOL0     H72626   0.024   5.227   0.631  0.8670 -0.2550 -0.5795
  538MOL0     H72627  -0.031   5.093   0.730 -1.9706  1.3271 -1.5010
  538MOL0     H72628  -0.036   4.908   0.356 -1.2464  2.2718 -0.6397
  538MOL0     H72629   0.068   5.600   0.579  1.2299 -2.6035  0.2776
  538MOL0     H72630   0.128   5.812   0.547 -1.2051  0.2810  1.4091
  539MOL0     O72631   8.281   0.117   7.528 -0.2325  1.3290  0.1569
  539MOL0     C72632   8.183   0.035   7.519 -1.3920 -0.4977 -0.2655
  539MOL0     O72633   8.196  -0.089   7.463 -0.7291 -0.3554  0.3481
  539MOL0     C72634   8.312  -0.123   7.402 -0.1828 -0.6798  0.5931
  539MOL0     C72635   8.401  -0.211   7.455  1.3629  0.6490 -0.0187
  539MOL0     C72636   8.513  -0.269   7.393 -0.1791  0.1295 -0.3502
  539MOL0     C72637   8.550  -0.215   7.270 -0.1870 -0.2323  0.0402
  539MOL0     O72638   8.660  -0.266   7.208  0.5714 -0.3341 -0.1135
  539MOL0     C72639   8.717  -0.190   7.104 -0.6269  0.1572  0.6844
  539MOL0     C72640   8.805  -0.085   7.164 -1.0530 -0.8218 -0.2335
  539MOL0     C72641   8.914  -0.010   7.076  0.0650 -0.7164  0.4894
  539MOL0     C72642   9.015   0.072   7.162 -0.1327 -0.1397  0.2630
  539MOL0     C72643   8.946   0.185   7.237 -0.6990 -0.0802 -1.2363
  539MOL0     C72644   9.049   0.287   7.300  0.0408  0.5244 -0.0785
  539MOL0     C72645   8.996   0.404   7.372 -0.5008  0.3810 -0.0731
  539MOL0     C72646   9.102   0.481   7.454 -1.1973  1.1995  0.2021
  539MOL0     N72647   9.040   0.605   7.511  0.2752  0.5287 -0.1636
  539MOL0     C72648   8.976   0.710   7.440 -0.3045 -0.2391 -0.4083
  539MOL0     C72649   8.909   0.780   7.539  0.8057 -0.0796 -0.5017
  539MOL0     C72650   8.829   0.908   7.516 -0.3630  0.4923  0.2137
  539MOL0     C72651   8.685   0.886   7.491 -0.4649  0.4511  0.2274
  539MOL0     C72652   8.622   1.020   7.443 -0.0246  0.3532  0.5803
  539MOL0     C72653   8.483   1.010   7.383 -0.3194 -0.1726  0.6599
  539MOL0     O72654   8.402   0.971   7.490  0.0170  0.3785 -0.1005
  539MOL0     C72655   8.292   0.892   7.447 -1.3650 -0.5068 -0.0903
  539MOL0     C72656   8.189   0.952   7.376  0.8428  0.1278 -0.8595
  539MOL0     C72657   8.075   0.874   7.338  0.5329 -0.8328 -0.2964
  539MOL0     C72658   7.972   0.952   7.263  0.4573  0.3531 -0.5585
  539MOL0     C72659   8.064   0.738   7.378  1.0514  0.7344 -0.2993
  539MOL0     C72660   7.940   0.653   7.359  0.8393 -0.0346  0.5306
  539MOL0     O72661   7.944   0.519   7.380 -0.1616 -0.0879  0.4500
  539MOL0     C72662   7.822   0.460   7.387  0.8246 -0.5533  0.5049
  539MOL0     C72663   7.811   0.321   7.351 -0.5297 -0.5919 -0.6331
  539MOL0     C72664   7.690   0.251   7.374 -0.1010  0.7227 -0.0217
  539MOL0     C72665   7.579   0.305   7.435  0.8137 -0.0968 -0.4668
  539MOL0     O72666   7.455   0.250   7.453 -0.0631  0.4796  0.5219
  539MOL0     C72667   7.436   0.105   7.428  0.4940 -0.3487  0.8895
  539MOL0     C72668   7.305   0.056   7.493 -1.0884 -0.3477  0.5918
  539MOL0     C72669   7.185   0.126   7.442 -1.2278  0.5916  0.2852
  539MOL0     C72670   7.067   0.135   7.542  0.3154 -0.2513  0.4264
  539MOL0     C72671   6.943   0.145   7.450 -0.4382  0.3642 -0.2911
  539MOL0     C72672   6.803   0.158   7.514 -0.3282  0.7312  0.2865
  539MOL0     C72673   6.691   0.097   7.426 -0.9868 -1.4735  0.7333
  539MOL0     C72674   6.704   0.157   7.286 -0.0905  0.0576 -0.8785
  539MOL0    Cl72675   6.553   0.117   7.190 -0.1755  0.1474  0.2518
  539MOL0     C72676   7.593   0.429   7.490  0.3762 -0.3511 -0.0951
  539MOL0     C72677   7.713   0.506   7.465 -0.7819  0.6433 -0.3971
  539MOL0     O72678   7.837   0.714   7.314 -0.3402  0.2111  0.1950
  539MOL0     C72679   8.176   0.683   7.455  0.5282 -0.4938  0.0642
  539MOL0     C72680   8.286   0.758   7.480 -0.2150  0.1814 -0.4326
  539MOL0     N72681   8.920   0.713   7.660  0.2852  0.5032  0.6325
  539MOL0     N72682   9.001   0.617   7.643 -0.0645  0.3103 -0.1548
  539MOL0     C72683   8.452  -0.133   7.202 -0.0787 -0.1920 -0.5681
  539MOL0     C72684   8.332  -0.093   7.260 -0.1950 -1.3587  0.0320
  539MOL0     C72685   8.059   0.076   7.583 -0.2948 -0.1302 -0.9305
  539MOL0     C72686   8.042   0.191   7.668 -0.7008  0.2340 -0.0694
  539MOL0     C72687   7.919   0.230   7.713 -0.1246 -0.8067 -0.4298
  539MOL0     C72688   7.805   0.150   7.674 -0.4697  0.2386 -0.2123
  539MOL0     O72689   7.680   0.181   7.710  0.9128 -0.2733 -0.9535
  539MOL0     C72690   7.646   0.303   7.793 -0.1024 -0.1250 -0.1140
  539MOL0     C72691   7.491   0.296   7.813 -0.2595  0.3911  0.6179
  539MOL0     C72692   7.445   0.169   7.895  0.0256  0.6457  0.5453
  539MOL0     C72693   7.304   0.177   7.949 -0.3934  0.2632  0.9830
  539MOL0     C72694   7.251   0.053   8.006 -0.4869  0.3620  2.0070
  539MOL0     C72695   7.221  -0.063   8.032  0.0134 -0.4453 -0.9432
  539MOL0     C72696   7.831   0.023   7.622 -0.4535  0.0210  0.6703
  539MOL0     C72697   7.953  -0.014   7.566 -0.4332  0.1808 -0.6606
  539MOL0     H72698   8.390  -0.247   7.557  2.7496 -0.4246 -0.2161
  539MOL0     H72699   8.574  -0.342   7.446 -1.8993 -1.2092 -0.0961
  539MOL0     H72700   8.769  -0.262   7.041 -0.6757  1.4168 -0.8420
  539MOL0     H72701   8.645  -0.157   7.029  3.0312 -0.8272 -3.7112
  539MOL0     H72702   8.734  -0.015   7.209  0.8031  0.4604  0.8331
  539MOL0     H72703   8.855  -0.128   7.251  1.7680  1.2363 -0.6957
  539MOL0     H72704   8.966  -0.090   7.023 -0.9255 -2.2952  1.8264
  539MOL0     H72705   8.857   0.052   7.005 -2.6325  0.2655  3.2735
  539MOL0     H72706   9.073   0.016   7.235 -0.4974 -0.4127  0.3434
  539MOL0     H72707   9.086   0.120   7.093 -1.5160  0.1766 -0.9962
  539MOL0     H72708   8.889   0.251   7.171  1.9441  4.4772  0.6117
  539MOL0     H72709   8.866   0.151   7.303 -1.8872 -1.4190 -3.2577
  539MOL0     H72710   9.112   0.226   7.367 -2.7479 -1.2274  1.1337
  539MOL0     H72711   9.112   0.332   7.223 -0.9504 -0.0010 -1.2209
  539MOL0     H72712   8.954   0.473   7.298  0.7428  0.5293 -0.6685
  539MOL0     H72713   8.915   0.367   7.435 -0.4683  0.8020  0.2199
  539MOL0     H72714   9.189   0.502   7.391 -0.2284  2.3021  1.8255
  539MOL0     H72715   9.131   0.418   7.538 -1.1743  0.1032 -0.6105
  539MOL0     H72716   8.994   0.742   7.338 -0.1563  2.7141  0.4643
  539MOL0     H72717   8.843   0.986   7.592  1.4355  2.2335 -1.7764
  539MOL0     H72718   8.871   0.951   7.425 -2.1263 -1.2496 -1.5163
  539MOL0     H72719   8.635   0.849   7.581  0.2876 -2.8289 -0.5547
  539MOL0     H72720   8.671   0.800   7.424  2.2003  1.7624 -2.2388
  539MOL0     H72721   8.677   1.070   7.362  0.7067 -0.4663  0.5693
  539MOL0     H72722   8.629   1.091   7.526  0.3785  1.4698 -0.3730
  539MOL0     H72723   8.479   0.936   7.302 -2.0693  0.2618  0.3081
  539MOL0     H72724   8.461   1.110   7.346  2.8196  0.3903  0.0417
  539MOL0     H72725   8.192   1.056   7.344 -3.5211  1.3133  1.7637
  539MOL0     H72726   7.871   0.931   7.299  1.5020 -3.1622  0.6345
  539MOL0     H72727   7.991   1.060   7.260 -1.2771  0.6820 -0.5172
  539MOL0     H72728   7.968   0.910   7.162  2.3293 -0.5089 -0.3249
  539MOL0     H72729   7.895   0.276   7.299 -0.7105  0.2580 -1.7032
  539MOL0     H72730   7.685   0.152   7.330  1.8240  0.6637 -0.2237
  539MOL0     H72731   7.422   0.085   7.321 -0.8046 -0.6192  1.0954
  539MOL0     H72732   7.521   0.049   7.467 -1.1478 -4.6245 -0.9764
  539MOL0     H72733   7.302  -0.052   7.471  1.5515 -0.1926 -0.9759
  539MOL0     H72734   7.297   0.070   7.601  0.7106 -1.7361  0.9516
  539MOL0     H72735   7.151   0.063   7.359 -0.2972  1.5646 -0.8689
  539MOL0     H72736   7.216   0.220   7.396  1.5206 -0.8014 -0.9527
  539MOL0     H72737   7.057   0.045   7.604 -1.9682  0.2759  0.9062
  539MOL0     H72738   7.080   0.229   7.596  0.6379  0.8596 -1.5028
  539MOL0     H72739   6.942   0.060   7.380  0.0693  0.0700  0.0535
  539MOL0     H72740   6.955   0.234   7.388  0.2410  1.0054  0.7463
  539MOL0     H72741   6.801   0.105   7.609 -1.5847 -2.5800 -1.4400
  539MOL0     H72742   6.786   0.264   7.539 -0.2033  0.8859 -0.2663
  539MOL0     H72743   6.592   0.123   7.465 -2.4507 -0.7177 -3.0286
  539MOL0     H72744   6.693  -0.012   7.430 -1.9922 -1.5412  0.0300
  539MOL0     H72745   6.790   0.111   7.235  2.0952  2.9034 -0.0329
  539MOL0     H72746   6.723   0.265   7.293  0.7459 -0.1584  0.5767
  539MOL0     H72747   7.509   0.478   7.538  1.3310  0.9566  0.2665
  539MOL0     H72748   7.725   0.596   7.525  0.9532  1.4367 -1.8628
  539MOL0     H72749   8.159   0.578   7.477 -1.2688 -0.1884  0.2808
  539MOL0     H72750   8.371   0.723   7.539 -0.7973  0.6215  0.7026
  539MOL0     H72751   8.459  -0.100   7.099  0.4636 -2.7540 -1.4201
  539MOL0     H72752   8.249  -0.036   7.220  0.0810 -1.3869 -0.5864
  539MOL0     H72753   8.117   0.270   7.667 -1.2301  0.7440 -0.9198
  539MOL0     H72754   7.892   0.328   7.751 -0.7052 -0.9853 -0.3664
  539MOL0     H72755   7.702   0.297   7.887 -0.8401  0.1589  0.3529
  539MOL0     H72756   7.673   0.395   7.741 -0.2632 -1.7569 -3.3389
  539MOL0     H72757   7.444   0.279   7.715 -0.4789 -0.3057  0.8375
  539MOL0     H72758   7.456   0.386   7.865 -3.6282  1.4368 -2.9205
  539MOL0     H72759   7.506   0.161   7.985  0.4167 -0.8271  0.1774
  539MOL0     H72760   7.458   0.073   7.843 -3.4909  0.3390 -0.0856
  539MOL0     H72761   7.252   0.213   7.860 -0.3754 -1.3187  0.3110
  539MOL0     H72762   7.305   0.260   8.021  0.0926  2.7726 -1.7119
  539MOL0     H72763   7.184  -0.163   8.042  0.1767 -0.4541 -0.3653
  539MOL0     H72764   7.740  -0.034   7.605 -1.4579  1.3822  1.2924
  539MOL0     H72765   7.956  -0.114   7.524 -1.6671  0.9590 -2.7753
  540MOL0     O72766  10.881   3.635   3.736  0.0225  0.2660 -0.5765
  540MOL0     C72767  10.929   3.678   3.841 -1.4641  0.0175  0.5558
  540MOL0     O72768  10.862   3.677   3.961 -0.7576  0.5143 -0.0235
  540MOL0     C72769  10.725   3.659   3.959 -0.1610  0.7214  0.6389
  540MOL0     C72770  10.625   3.716   3.871 -0.7453 -0.8302  0.9837
  540MOL0     C72771  10.489   3.703   3.899  0.3049  0.1300  0.8026
  540MOL0     C72772  10.449   3.631   4.015  0.6905  0.4900 -0.1580
  540MOL0     O72773  10.313   3.653   4.036  0.1907 -0.5575 -1.5214
  540MOL0     C72774  10.252   3.569   4.129 -0.6794 -0.4459 -0.2773
  540MOL0     C72775  10.112   3.606   4.143  0.7622  0.0934  0.3516
  540MOL0     C72776  10.045   3.583   4.009  0.1882 -0.1250  0.3155
  540MOL0     C72777   9.899   3.590   4.009  0.7678  0.1225 -0.5596
  540MOL0     C72778   9.847   3.731   4.048  0.6534  0.2322  0.3060
  540MOL0     C72779   9.694   3.760   4.043  0.6682 -0.0531  0.2371
  540MOL0     C72780   9.614   3.716   3.911 -0.5583  0.3541  0.2350
  540MOL0     C72781   9.553   3.578   3.920  0.5175 -0.3670 -0.2543
  540MOL0     N72782   9.461   3.560   4.031  0.6750  0.9619  0.2524
  540MOL0     C72783   9.346   3.637   4.040 -1.5507 -0.7018  0.3468
  540MOL0     C72784   9.293   3.613   4.159 -0.1014  0.1800  0.7546
  540MOL0     C72785   9.173   3.689   4.211 -0.4413  0.5019  0.5919
  540MOL0     C72786   9.046   3.599   4.197 -1.5958  0.3276  0.0847
  540MOL0     C72787   8.925   3.671   4.257 -0.0695  0.2199  0.3180
  540MOL0     C72788   8.801   3.586   4.228 -0.3722  0.0604 -0.9829
  540MOL0     O72789   8.688   3.664   4.244  0.2814 -0.6639  0.0703
  540MOL0     C72790   8.571   3.595   4.226 -0.9029  0.4075 -0.4830
  540MOL0     C72791   8.546   3.483   4.142  0.0255 -0.0307 -0.1412
  540MOL0     C72792   8.415   3.423   4.141  0.5888 -0.0132  0.0164
  540MOL0     C72793   8.392   3.316   4.036  1.7202 -0.8354  0.7771
  540MOL0     C72794   8.310   3.478   4.214 -0.2060 -0.1567 -0.5669
  540MOL0     C72795   8.167   3.409   4.224 -0.4923 -0.7789 -0.2138
  540MOL0     O72796   8.071   3.500   4.239 -0.4518  0.0759 -0.4813
  540MOL0     C72797   7.950   3.446   4.261 -0.4124  0.4633  0.0501
  540MOL0     C72798   7.886   3.383   4.144  0.0119  0.1953 -0.2319
  540MOL0     C72799   7.761   3.326   4.150 -0.3196 -0.7547  0.5416
  540MOL0     C72800   7.693   3.342   4.274  0.3468 -0.0706  0.4880
  540MOL0     O72801   7.578   3.272   4.310 -0.3602  0.3405  0.5133
  540MOL0     C72802   7.526   3.186   4.210  0.0593 -0.4705 -0.7735
  540MOL0     C72803   7.393   3.126   4.269 -0.1072 -0.3326  1.0829
  540MOL0     C72804   7.304   3.068   4.162 -1.3360  0.2953 -0.0689
  540MOL0     C72805   7.196   3.169   4.109  0.2556  0.8051 -0.2367
  540MOL0     C72806   7.117   3.111   3.996 -0.6234 -0.1578  0.0717
  540MOL0     C72807   7.005   3.209   3.945  0.3038 -0.5647 -1.3255
  540MOL0     C72808   6.984   3.200   3.795  0.8724  0.2823 -0.3973
  540MOL0     C72809   6.854   3.267   3.742 -0.1015  0.0776  0.4304
  540MOL0    Cl72810   6.826   3.429   3.792  0.0869  0.3442  0.1892
  540MOL0     C72811   7.758   3.399   4.382 -0.2686  0.2936  0.2002
  540MOL0     C72812   7.888   3.449   4.383 -0.7995  0.0719 -0.2884
  540MOL0     O72813   8.158   3.293   4.220 -0.1818  0.0911  0.1325
  540MOL0     C72814   8.334   3.583   4.296 -0.7761 -0.4850 -0.2620
  540MOL0     C72815   8.460   3.639   4.305  0.5913  0.1613 -0.1866
  540MOL0     N72816   9.373   3.519   4.220  0.3778 -0.9708 -0.7421
  540MOL0     N72817   9.471   3.492   4.150 -1.1079  0.1370 -0.5354
  540MOL0     C72818  10.542   3.577   4.109  0.8808 -1.0101  0.9131
  540MOL0     C72819  10.675   3.596   4.075  0.4002  0.4024 -0.3560
  540MOL0     C72820  11.063   3.741   3.836 -0.1766  0.8753 -0.8781
  540MOL0     C72821  11.164   3.703   3.925 -0.4993  0.5152  0.0165
  540MOL0     C72822  11.296   3.759   3.927 -0.4556 -0.6223  0.8970
  540MOL0     C72823  11.329   3.860   3.830 -0.5532 -0.4669 -0.3733
  540MOL0     O72824  11.458   3.905   3.822  0.5477  0.4734  0.0540
  540MOL0     C72825  11.505   3.934   3.696 -0.1343 -0.3011  0.2299
  540MOL0     C72826  11.662   3.962   3.702 -1.2398  0.0812 -0.7720
  540MOL0     C72827  11.727   4.070   3.798 -0.3875 -0.5693 -0.4423
  540MOL0     C72828  11.809   4.179   3.738 -0.2097  0.6651 -0.5785
  540MOL0     C72829  11.860   4.277   3.834  0.2113  0.1356  0.6030
  540MOL0     C72830  11.882   4.356   3.923  0.1495 -0.3770 -0.1175
  540MOL0     C72831  11.229   3.897   3.740 -0.4553 -0.3465  0.7623
  540MOL0     C72832  11.102   3.836   3.738 -0.9368  0.5942 -0.2252
  540MOL0     H72833  10.647   3.778   3.784 -2.6829 -1.5875 -0.1260
  540MOL0     H72834  10.412   3.751   3.839  2.4154  0.7530 -1.5579
  540MOL0     H72835  10.259   3.467   4.090  3.5140 -0.6334  0.4954
  540MOL0     H72836  10.291   3.585   4.230 -0.9482  0.4753 -0.3103
  540MOL0     H72837  10.064   3.537   4.214  0.8569 -0.1940  0.1362
  540MOL0     H72838  10.106   3.709   4.180  0.8380 -0.3867  1.7719
  540MOL0     H72839  10.083   3.652   3.933  2.7921 -0.8447  0.8660
  540MOL0     H72840  10.063   3.483   3.967  4.2277  1.3804 -2.1916
  540MOL0     H72841   9.857   3.552   3.916 -1.4375 -2.7228  1.4179
  540MOL0     H72842   9.866   3.506   4.071  1.4786 -1.0189 -1.6747
  540MOL0     H72843   9.881   3.744   4.152  3.0651 -5.3339  0.5363
  540MOL0     H72844   9.900   3.805   3.987  1.1251 -2.7613 -3.2410
  540MOL0     H72845   9.650   3.700   4.123  0.9667 -0.5995 -0.0036
  540MOL0     H72846   9.670   3.862   4.074 -2.8532 -1.1498  1.6013
  540MOL0     H72847   9.527   3.776   3.883 -0.3227 -0.9123 -3.7383
  540MOL0     H72848   9.683   3.717   3.826 -1.5222  3.8736 -0.6954
  540MOL0     H72849   9.632   3.502   3.921  1.3579  0.4667 -0.8357
  540MOL0     H72850   9.490   3.563   3.832 -0.5967  0.5984  0.3516
  540MOL0     H72851   9.304   3.716   3.978 -0.1447 -0.5580 -0.4924
  540MOL0     H72852   9.208   3.715   4.312  1.1820 -1.6568  0.6539
  540MOL0     H72853   9.164   3.785   4.158  1.2885  0.3379 -0.0536
  540MOL0     H72854   9.062   3.501   4.243  0.1126 -0.4356 -1.9711
  540MOL0     H72855   9.032   3.606   4.089  1.4484 -1.9508 -0.6100
  540MOL0     H72856   8.913   3.769   4.210 -0.0585  2.5710  4.6989
  540MOL0     H72857   8.939   3.696   4.363 -0.3155  0.8858  0.2027
  540MOL0     H72858   8.805   3.497   4.292 -2.5665 -0.2005 -1.1111
  540MOL0     H72859   8.811   3.544   4.128  0.7618  0.4147 -1.0282
  540MOL0     H72860   8.624   3.451   4.073  1.0012  2.5953 -0.3650
  540MOL0     H72861   8.408   3.216   4.077  3.0540 -3.2921 -4.8177
  540MOL0     H72862   8.294   3.331   3.988  1.6649  0.8677  1.3448
  540MOL0     H72863   8.466   3.331   3.957 -1.7872  3.2434 -2.2364
  540MOL0     H72864   7.940   3.377   4.050 -0.1406  0.6790 -0.3557
  540MOL0     H72865   7.704   3.290   4.065 -1.5664  0.4069  0.8558
  540MOL0     H72866   7.504   3.254   4.128  3.1186  0.7665 -0.6990
  540MOL0     H72867   7.597   3.107   4.182  0.7978  0.1099 -0.5775
  540MOL0     H72868   7.421   3.067   4.356  3.6108  0.1573  0.3955
  540MOL0     H72869   7.346   3.219   4.302  0.2689 -0.0338  0.7933
  540MOL0     H72870   7.257   2.980   4.208 -2.3501  1.0238  0.3113
  540MOL0     H72871   7.363   3.035   4.076 -0.5939  1.5729 -0.0700
  540MOL0     H72872   7.126   3.186   4.192  0.9937 -1.4361  0.9113
  540MOL0     H72873   7.245   3.260   4.074  0.0875  2.4997  3.4078
  540MOL0     H72874   7.081   3.012   4.026  0.1849 -0.3074  0.5769
  540MOL0     H72875   7.193   3.096   3.920  0.6027 -0.3968  1.3087
  540MOL0     H72876   6.908   3.185   3.990 -1.1559 -1.8054 -4.8383
  540MOL0     H72877   7.033   3.312   3.971  2.8054 -0.9129 -2.3687
  540MOL0     H72878   6.976   3.094   3.770 -0.9267 -0.4148  2.5931
  540MOL0     H72879   7.072   3.228   3.736  1.1496 -4.4061 -2.6705
  540MOL0     H72880   6.768   3.207   3.770 -0.2659  1.8140  4.4560
  540MOL0     H72881   6.873   3.276   3.635  0.2563  3.6874  0.6682
  540MOL0     H72882   7.695   3.408   4.470  0.1574 -1.2724  0.6857
  540MOL0     H72883   7.943   3.499   4.462  0.4534  1.3339 -1.8697
  540MOL0     H72884   8.259   3.615   4.368  0.2537 -0.9990  1.0748
  540MOL0     H72885   8.459   3.724   4.372 -3.2652  1.3414 -1.4962
  540MOL0     H72886  10.512   3.522   4.198 -3.4201  1.0171  0.9634
  540MOL0     H72887  10.758   3.572   4.140 -0.3552  0.1713  0.5438
  540MOL0     H72888  11.135   3.636   4.006  0.7801 -2.5560 -1.8969
  540MOL0     H72889  11.361   3.734   4.010 -1.0635  0.3298  1.6894
  540MOL0     H72890  11.493   3.847   3.631  0.0871  1.0240 -1.6759
  540MOL0     H72891  11.464   4.027   3.656  2.0128  1.9803  2.9593
  540MOL0     H72892  11.706   3.980   3.603  3.0822  2.6508  1.2890
  540MOL0     H72893  11.700   3.875   3.757 -0.5888  1.9072  1.8611
  540MOL0     H72894  11.791   4.019   3.871 -0.1174  2.2856  1.4687
  540MOL0     H72895  11.645   4.120   3.851 -1.7413 -3.7496  0.7603
  540MOL0     H72896  11.750   4.231   3.662 -0.8902 -1.2344 -1.4159
  540MOL0     H72897  11.895   4.137   3.685 -1.4223 -2.0790 -0.5227
  540MOL0     H72898  11.915   4.421   4.001  1.9176 -1.2959 -0.0528
  540MOL0     H72899  11.238   3.961   3.653  1.9361  0.7011  1.6951
  540MOL0     H72900  11.019   3.871   3.677 -1.7591 -1.9533 -0.6570
  541MOL0     O72901   5.086   6.189   5.675  0.1387 -0.6112 -0.1592
  541MOL0     C72902   5.058   6.179   5.796  0.4159 -0.7515 -0.2069
  541MOL0     O72903   5.147   6.129   5.887 -0.2505  0.2408  0.0258
  541MOL0     C72904   5.259   6.056   5.849  0.9800 -0.0150 -0.1521
  541MOL0     C72905   5.251   5.946   5.765  0.4900  0.3346 -0.9959
  541MOL0     C72906   5.359   5.875   5.722 -0.3154 -0.6404 -0.4569
  541MOL0     C72907   5.485   5.913   5.763  0.8241  0.4206 -0.1425
  541MOL0     O72908   5.580   5.829   5.715  0.0662  0.0129  0.2919
  541MOL0     C72909   5.700   5.907   5.692 -0.1951  1.1471 -0.4246
  541MOL0     C72910   5.785   5.829   5.592  0.0708  0.5793  0.0283
  541MOL0     C72911   5.898   5.905   5.526 -0.8368  0.5834  0.2657
  541MOL0     C72912   5.997   5.957   5.635 -0.1198 -0.4911 -0.0429
  541MOL0     C72913   6.105   6.044   5.582  0.1917 -0.1249  0.3327
  541MOL0     C72914   6.190   5.977   5.468 -0.0914  0.5695 -0.2453
  541MOL0     C72915   6.296   6.070   5.421  0.4454 -0.1134 -0.3329
  541MOL0     C72916   6.404   6.023   5.327  0.5723 -0.3611  0.5419
  541MOL0     N72917   6.355   5.934   5.217 -0.2895  0.5191 -0.0322
  541MOL0     C72918   6.285   5.980   5.104 -0.1244  0.2317 -0.0145
  541MOL0     C72919   6.259   5.872   5.032  0.0932 -0.1343 -0.4555
  541MOL0     C72920   6.191   5.857   4.900 -0.1826 -0.3615 -0.6699
  541MOL0     C72921   6.099   5.737   4.896  0.4291  0.0236  0.3925
  541MOL0     C72922   5.999   5.734   4.793  0.4642  0.8315 -0.4935
  541MOL0     C72923   5.906   5.617   4.820  0.4478  0.3895 -0.0799
  541MOL0     O72924   5.818   5.590   4.714  0.5761  0.5925 -0.6967
  541MOL0     C72925   5.690   5.626   4.717 -0.7457  0.0347  0.7172
  541MOL0     C72926   5.645   5.754   4.765 -0.5426 -0.1320 -0.1200
  541MOL0     C72927   5.505   5.779   4.789 -0.7883 -1.4734 -0.1870
  541MOL0     C72928   5.468   5.924   4.833  0.1843 -0.6916 -0.3027
  541MOL0     C72929   5.413   5.677   4.786  0.9505 -0.3511  0.1747
  541MOL0     C72930   5.271   5.679   4.829  0.3704  0.1235  0.2335
  541MOL0     O72931   5.209   5.561   4.816  0.4136 -0.1047  0.6216
  541MOL0     C72932   5.074   5.551   4.858 -0.4165 -0.4464 -0.8244
  541MOL0     C72933   4.981   5.514   4.766  0.8151  0.8051  0.3057
  541MOL0     C72934   4.853   5.478   4.810 -0.3797 -0.8549 -0.2025
  541MOL0     C72935   4.815   5.477   4.944  0.5291  0.6158 -0.1511
  541MOL0     O72936   4.687   5.433   4.984 -0.2246  0.1925 -0.4104
  541MOL0     C72937   4.702   5.312   5.066  0.7146 -0.3762  0.0430
  541MOL0     C72938   4.563   5.248   5.063 -0.4901 -0.2617  0.2288
  541MOL0     C72939   4.539   5.108   5.122  0.0241  1.0849  1.5028
  541MOL0     C72940   4.577   5.097   5.267 -0.0379 -0.2222 -0.5457
  541MOL0     C72941   4.518   4.966   5.327 -0.2151 -0.7496  1.1241
  541MOL0     C72942   4.553   4.950   5.467 -0.5812  0.2653  0.6173
  541MOL0     C72943   4.488   4.825   5.517 -0.1166 -0.6538 -0.1470
  541MOL0     C72944   4.558   4.764   5.631  0.1700 -0.2375  0.0501
  541MOL0    Cl72945   4.715   4.702   5.572 -0.2025 -0.2415  0.0926
  541MOL0     C72946   4.914   5.511   5.034  0.5713 -0.1176 -0.1349
  541MOL0     C72947   5.038   5.556   4.992  0.2938  0.5153  0.5369
  541MOL0     O72948   5.221   5.784   4.864 -0.1781 -0.3727 -0.2311
  541MOL0     C72949   5.454   5.551   4.734  1.0312 -0.0520  0.5211
  541MOL0     C72950   5.590   5.528   4.698 -0.8691 -0.6915 -0.6959
  541MOL0     N72951   6.333   5.765   5.095  0.6000  0.3189 -0.2295
  541MOL0     N72952   6.391   5.803   5.200  0.1876 -0.3447 -0.2345
  541MOL0     C72953   5.498   6.022   5.852  0.7783 -0.2227 -0.0129
  541MOL0     C72954   5.384   6.087   5.901 -0.1118 -0.3255 -1.4985
  541MOL0     C72955   4.927   6.225   5.848  0.3421 -0.8776  0.2795
  541MOL0     C72956   4.903   6.235   5.984 -0.3783  0.0702 -0.2014
  541MOL0     C72957   4.777   6.282   6.034 -0.4341  0.2607  0.8291
  541MOL0     C72958   4.670   6.313   5.949  0.8089 -0.2380 -0.8700
  541MOL0     O72959   4.544   6.347   5.996 -0.0387  0.1207  0.4839
  541MOL0     C72960   4.508   6.292   6.124  0.0238  0.1129  0.2048
  541MOL0     C72961   4.361   6.278   6.133 -0.4978 -0.5127 -0.4831
  541MOL0     C72962   4.259   6.385   6.119 -0.0415  1.2288  0.6397
  541MOL0     C72963   4.273   6.490   6.225 -0.2851  0.4992 -0.3271
  541MOL0     C72964   4.262   6.446   6.366  0.5720  0.2084  0.1247
  541MOL0     C72965   4.263   6.385   6.473  0.3439 -0.5436  1.2145
  541MOL0     C72966   4.698   6.312   5.812  0.4028 -0.0182 -0.5696
  541MOL0     C72967   4.821   6.273   5.763 -0.7135  0.5768  0.0048
  541MOL0     H72968   5.161   5.901   5.725  0.6716 -1.3808  0.3981
  541MOL0     H72969   5.366   5.791   5.654 -1.1991 -0.7511 -0.4193
  541MOL0     H72970   5.683   6.002   5.640  1.9350  0.4877 -2.5313
  541MOL0     H72971   5.750   5.917   5.788 -1.1658  0.0968  0.2144
  541MOL0     H72972   5.844   5.753   5.645  0.4421  1.7676  1.3853
  541MOL0     H72973   5.732   5.784   5.508 -1.7664 -0.2431  1.5516
  541MOL0     H72974   5.940   5.842   5.447  0.7157 -0.5992  1.9584
  541MOL0     H72975   5.846   5.984   5.472 -1.6887  0.9273  1.5617
  541MOL0     H72976   5.950   6.010   5.718 -1.2448 -1.6365  0.0701
  541MOL0     H72977   6.051   5.876   5.686  0.9772  0.4546  0.3414
  541MOL0     H72978   6.069   6.145   5.558 -0.8323 -0.1822  1.4913
  541MOL0     H72979   6.182   6.056   5.659  1.2993 -0.6055 -0.6754
  541MOL0     H72980   6.221   5.885   5.518 -1.7152  0.5204  0.7380
  541MOL0     H72981   6.121   5.953   5.387 -1.6019 -1.4342  1.5331
  541MOL0     H72982   6.260   6.158   5.368 -0.6968 -1.2135 -1.4590
  541MOL0     H72983   6.339   6.104   5.515  0.1153  0.4874 -0.3981
  541MOL0     H72984   6.478   5.971   5.389 -2.0497 -2.8648  1.8533
  541MOL0     H72985   6.449   6.107   5.274 -0.2554  0.3518  0.9436
  541MOL0     H72986   6.245   6.080   5.096 -1.5835 -0.2188  1.1316
  541MOL0     H72987   6.142   5.952   4.877  0.7690 -0.1111 -1.8118
  541MOL0     H72988   6.263   5.835   4.820  1.7217  1.6856  0.3560
  541MOL0     H72989   6.045   5.724   4.990 -1.1429 -3.0484 -0.8085
  541MOL0     H72990   6.167   5.651   4.885  1.0897  0.4272  1.1932
  541MOL0     H72991   6.057   5.722   4.701  3.6442 -0.9405  1.5575
  541MOL0     H72992   5.938   5.825   4.787  0.1824  0.5731 -3.6506
  541MOL0     H72993   5.843   5.619   4.909 -1.8802 -1.2677 -1.5585
  541MOL0     H72994   5.971   5.529   4.826  1.7827  1.4570  1.9977
  541MOL0     H72995   5.723   5.828   4.774  0.9741 -1.5471 -1.2049
  541MOL0     H72996   5.370   5.944   4.789 -0.6947  0.5257  2.0504
  541MOL0     H72997   5.466   5.937   4.942  1.3221  2.2263 -0.5595
  541MOL0     H72998   5.539   5.991   4.784  1.4675 -1.9001 -0.1571
  541MOL0     H72999   5.001   5.503   4.660  1.1983  0.2938  0.4273
  541MOL0     H73000   4.784   5.458   4.729  2.3689  1.0173 -3.2904
  541MOL0     H73001   4.762   5.232   5.020 -1.0985 -2.0482  0.4867
  541MOL0     H73002   4.721   5.324   5.173 -1.6223 -4.1628  1.0840
  541MOL0     H73003   4.494   5.315   5.116  0.2335  0.5280  0.1796
  541MOL0     H73004   4.542   5.245   4.956  0.4062 -0.4120  0.0535
  541MOL0     H73005   4.602   5.035   5.069 -3.0100  0.2385 -1.3266
  541MOL0     H73006   4.437   5.074   5.100  1.2370 -1.1345 -1.3067
  541MOL0     H73007   4.684   5.091   5.287 -0.0349  2.4901  0.6185
  541MOL0     H73008   4.533   5.188   5.308 -2.6229  0.2023 -3.7934
  541MOL0     H73009   4.563   4.883   5.271  1.5935  1.0971 -0.3337
  541MOL0     H73010   4.409   4.965   5.324 -0.3942  1.1359  3.5826
  541MOL0     H73011   4.662   4.938   5.473 -0.2610  2.3590 -0.0344
  541MOL0     H73012   4.531   5.043   5.520 -0.4296  2.3601 -2.7150
  541MOL0     H73013   4.496   4.744   5.444  1.5615 -1.1094  0.4773
  541MOL0     H73014   4.383   4.840   5.541  0.0255  1.6771 -0.7630
  541MOL0     H73015   4.504   4.681   5.677  3.3055 -2.3066  0.2935
  541MOL0     H73016   4.567   4.835   5.715 -2.4865 -2.6712  2.6556
  541MOL0     H73017   4.889   5.508   5.139 -0.9359 -0.8753 -0.4827
  541MOL0     H73018   5.102   5.604   5.064 -1.1047  0.6628  1.7213
  541MOL0     H73019   5.387   5.469   4.712 -1.0795  1.7586 -0.2022
  541MOL0     H73020   5.625   5.433   4.658  3.6079 -0.5452  2.2415
  541MOL0     H73021   5.594   6.046   5.897  1.3121 -1.2075 -0.6131
  541MOL0     H73022   5.402   6.162   5.977 -0.9281  0.0442 -1.6567
  541MOL0     H73023   4.978   6.209   6.058  0.3116 -0.8287 -1.1886
  541MOL0     H73024   4.769   6.283   6.142 -0.8849  3.9488  0.9024
  541MOL0     H73025   4.558   6.198   6.149  0.9530  0.4607 -0.2838
  541MOL0     H73026   4.552   6.349   6.207  1.6637 -1.5432  0.5588
  541MOL0     H73027   4.347   6.229   6.230  0.3064 -0.1743 -0.1906
  541MOL0     H73028   4.337   6.201   6.059  2.8646 -2.5133  0.3176
  541MOL0     H73029   4.162   6.336   6.109  1.2356 -0.9306 -3.0117
  541MOL0     H73030   4.265   6.435   6.022  4.6727  1.5006  0.8541
  541MOL0     H73031   4.186   6.553   6.204 -0.5921 -0.1520 -1.0346
  541MOL0     H73032   4.370   6.542   6.227 -0.6729  1.2824  2.1880
  541MOL0     H73033   4.287   6.317   6.552  3.1760 -1.3239 -0.2080
  541MOL0     H73034   4.620   6.356   5.752  0.5703 -1.8527 -2.2124
  541MOL0     H73035   4.851   6.269   5.658  0.3803 -1.0970  0.3337
  542MOL0     O73036   5.477   0.554   3.169 -0.6602  0.7157 -0.6684
  542MOL0     C73037   5.569   0.491   3.113 -0.0545 -0.0632  0.7023
  542MOL0     O73038   5.576   0.450   2.982  0.6382  0.2323 -0.9418
  542MOL0     C73039   5.459   0.448   2.905  1.2492  0.4173 -0.1207
  542MOL0     C73040   5.369   0.553   2.895  0.4106 -0.5367 -0.2127
  542MOL0     C73041   5.261   0.550   2.803  0.6893 -0.7237  0.3534
  542MOL0     C73042   5.241   0.445   2.717 -0.5719 -0.8523  0.5185
  542MOL0     O73043   5.140   0.470   2.629 -0.4085 -0.6221 -0.2158
  542MOL0     C73044   5.133   0.390   2.518 -0.4722 -0.6131 -0.6725
  542MOL0     C73045   4.997   0.437   2.454 -0.1472 -0.3152 -0.1878
  542MOL0     C73046   4.991   0.389   2.310 -0.0837 -0.2306  0.0483
  542MOL0     C73047   4.960   0.232   2.315  0.1520  0.0154 -0.3606
  542MOL0     C73048   4.945   0.172   2.180 -0.6524  0.3484  0.3358
  542MOL0     C73049   4.930   0.018   2.187  0.3724  0.1548  0.6817
  542MOL0     C73050   4.884  -0.050   2.057 -0.4356 -0.2079  0.3581
  542MOL0     C73051   4.735  -0.051   2.045 -0.0102  0.3991  0.7338
  542MOL0     N73052   4.660   0.079   2.071 -0.0693 -0.3709  0.3941
  542MOL0     C73053   4.668   0.190   1.996 -1.0560  0.2314  0.1462
  542MOL0     C73054   4.591   0.285   2.062  0.2735 -0.1429 -0.5277
  542MOL0     C73055   4.561   0.428   2.018  0.3441 -0.1533 -0.5235
  542MOL0     C73056   4.416   0.486   2.055  0.5140 -0.2390  0.4338
  542MOL0     C73057   4.429   0.636   2.079 -0.0012 -0.7834  1.1604
  542MOL0     C73058   4.300   0.711   2.111 -0.4907 -0.6086 -1.1371
  542MOL0     O73059   4.218   0.727   1.993  0.4800  0.7911  0.0518
  542MOL0     C73060   4.147   0.848   1.990 -1.6998  0.4062  0.0122
  542MOL0     C73061   4.139   0.897   1.859  0.0450 -0.9671 -0.0175
  542MOL0     C73062   4.077   1.022   1.828 -0.4259 -0.7580  0.6294
  542MOL0     C73063   4.102   1.071   1.685 -0.0962  0.1978  0.1584
  542MOL0     C73064   4.011   1.096   1.934  0.8345 -0.0733  0.2856
  542MOL0     C73065   3.965   1.238   1.924 -0.9078 -0.3543  0.6207
  542MOL0     O73066   3.886   1.286   2.029  0.4418 -0.2975 -0.3162
  542MOL0     C73067   3.836   1.412   2.025  0.5934 -0.5710  0.3518
  542MOL0     C73068   3.880   1.503   2.127 -0.1932 -0.3272  0.2358
  542MOL0     C73069   3.839   1.632   2.135 -0.1725 -0.0864  0.3044
  542MOL0     C73070   3.754   1.690   2.040 -0.3230 -0.2500  0.5570
  542MOL0     O73071   3.714   1.820   2.031 -0.5631 -0.6149 -0.0065
  542MOL0     C73072   3.670   1.883   2.157 -0.6874 -0.2685  0.4861
  542MOL0     C73073   3.747   2.008   2.195  0.6678 -0.0263  0.1419
  542MOL0     C73074   3.734   2.112   2.088 -0.3267  0.4488  0.5966
  542MOL0     C73075   3.838   2.223   2.099 -1.0184 -0.0614  0.8498
  542MOL0     C73076   3.797   2.354   2.017 -0.7947 -0.3324 -0.3247
  542MOL0     C73077   3.686   2.428   2.091 -0.0575  0.3385  0.6158
  542MOL0     C73078   3.648   2.554   2.018  0.4579  0.4269  0.0983
  542MOL0     C73079   3.579   2.645   2.122  1.2686 -0.4409  0.0593
  542MOL0    Cl73080   3.532   2.786   2.025 -0.6954 -0.0409 -0.4568
  542MOL0     C73081   3.711   1.607   1.928 -0.1999  1.5205 -0.1682
  542MOL0     C73082   3.758   1.470   1.923  0.1210 -0.6978  0.1863
  542MOL0     O73083   3.985   1.291   1.819  0.1777 -0.2885  0.6741
  542MOL0     C73084   3.998   1.025   2.060  0.3329 -0.3461  0.0598
  542MOL0     C73085   4.062   0.902   2.088  0.2033 -0.6703  1.0746
  542MOL0     N73086   4.542   0.220   2.174  0.5373 -0.4055 -0.9312
  542MOL0     N73087   4.574   0.097   2.171 -0.5332 -0.0285  0.0747
  542MOL0     C73088   5.327   0.340   2.725  0.6280  0.2410  0.2384
  542MOL0     C73089   5.433   0.342   2.818  0.4331 -0.5366  0.1099
  542MOL0     C73090   5.691   0.481   3.189 -0.2290  0.5284 -0.0117
  542MOL0     C73091   5.692   0.496   3.326  0.4259 -0.2516 -0.2640
  542MOL0     C73092   5.807   0.472   3.396 -0.8205  0.9185 -0.3188
  542MOL0     C73093   5.929   0.440   3.339 -0.0068  0.0068  0.0558
  542MOL0     O73094   6.037   0.441   3.412  0.3518  0.4728 -0.4674
  542MOL0     C73095   6.063   0.312   3.480  0.1189 -0.1401 -0.3342
  542MOL0     C73096   5.978   0.274   3.605  0.3384  1.0656  0.9689
  542MOL0     C73097   6.021   0.140   3.683 -0.1225  0.1200  0.4533
  542MOL0     C73098   5.971   0.016   3.604 -0.2873 -0.8045 -0.2067
  542MOL0     C73099   6.015  -0.006   3.465  0.4778  0.1213  0.1765
  542MOL0     C73100   6.039  -0.039   3.346 -0.1314 -0.3293  0.3436
  542MOL0     C73101   5.936   0.440   3.197  0.7799  0.6228  0.6809
  542MOL0     C73102   5.816   0.447   3.126  0.1226  0.1955  0.3104
  542MOL0     H73103   5.361   0.642   2.957  2.0755  1.4115 -2.6072
  542MOL0     H73104   5.193   0.634   2.795 -0.1397 -1.4384 -0.3094
  542MOL0     H73105   5.208   0.426   2.447  0.0214  1.4939  0.8111
  542MOL0     H73106   5.136   0.284   2.541  1.9333 -0.8967 -2.0366
  542MOL0     H73107   4.910   0.399   2.507 -0.0081  2.7045  2.4857
  542MOL0     H73108   4.985   0.545   2.455  1.5395 -0.1014  0.7300
  542MOL0     H73109   4.922   0.449   2.250 -0.8350 -2.1574 -1.1108
  542MOL0     H73110   5.092   0.397   2.269 -0.0867 -2.8585 -0.6692
  542MOL0     H73111   5.029   0.179   2.380 -0.5171 -0.9461 -0.4241
  542MOL0     H73112   4.866   0.229   2.371  0.0220  1.8754 -0.4141
  542MOL0     H73113   4.858   0.217   2.130 -1.3879  0.7139  1.8783
  542MOL0     H73114   5.038   0.195   2.127 -0.5237  0.9707  0.8160
  542MOL0     H73115   5.025  -0.033   2.207  1.3091  1.5162 -0.0951
  542MOL0     H73116   4.856  -0.011   2.262  0.4438  0.3750  0.8370
  542MOL0     H73117   4.936  -0.007   1.970 -0.3295 -2.1806 -0.6202
  542MOL0     H73118   4.904  -0.157   2.058 -1.3618 -0.6617 -4.5643
  542MOL0     H73119   4.699  -0.130   2.111 -2.7382 -0.1009 -1.1598
  542MOL0     H73120   4.703  -0.090   1.948  1.0605  1.5160 -0.0932
  542MOL0     H73121   4.713   0.208   1.898  4.1599 -1.1408  1.9698
  542MOL0     H73122   4.644   0.487   2.058  0.9787 -0.7765 -0.8895
  542MOL0     H73123   4.575   0.428   1.909  0.3855 -0.2590 -0.5181
  542MOL0     H73124   4.375   0.434   2.141 -2.8983 -1.2865 -1.6365
  542MOL0     H73125   4.355   0.487   1.964  1.8051  1.7765 -0.4845
  542MOL0     H73126   4.475   0.690   1.995  0.5052  0.1432  2.0183
  542MOL0     H73127   4.500   0.639   2.162  1.9049  1.3223 -0.3914
  542MOL0     H73128   4.324   0.802   2.167  0.1136 -2.4373  1.7676
  542MOL0     H73129   4.242   0.648   2.180 -0.7931  0.2180 -0.6150
  542MOL0     H73130   4.183   0.839   1.778 -2.6908 -3.3411  0.0459
  542MOL0     H73131   4.006   1.113   1.652 -0.2452  0.7679  1.2612
  542MOL0     H73132   4.172   1.155   1.682 -1.0127  0.9835  0.2483
  542MOL0     H73133   4.140   0.992   1.620 -0.9442 -0.7217  0.7507
  542MOL0     H73134   3.953   1.468   2.200 -0.4738 -1.7453 -0.1198
  542MOL0     H73135   3.870   1.697   2.216  1.0059 -0.3850  0.1104
  542MOL0     H73136   3.564   1.910   2.166 -0.4919  1.1061 -0.8530
  542MOL0     H73137   3.680   1.810   2.238 -1.5631 -1.9991 -0.8925
  542MOL0     H73138   3.724   2.052   2.292  0.8394  0.0016  0.1706
  542MOL0     H73139   3.849   1.969   2.204  1.1906  1.1106 -0.6079
  542MOL0     H73140   3.635   2.156   2.102 -0.9360 -1.3988  2.4700
  542MOL0     H73141   3.729   2.062   1.990 -2.2363  1.7320 -0.0177
  542MOL0     H73142   3.861   2.260   2.200 -2.4570  0.6713  0.9349
  542MOL0     H73143   3.933   2.191   2.056 -1.3303  0.4629 -0.2750
  542MOL0     H73144   3.764   2.317   1.919  2.6573 -2.7551 -0.7501
  542MOL0     H73145   3.885   2.411   1.986 -0.6003 -0.1334  0.5718
  542MOL0     H73146   3.600   2.360   2.093 -1.3288  1.5706 -3.2366
  542MOL0     H73147   3.726   2.445   2.192  1.6147 -0.4480  0.1171
  542MOL0     H73148   3.577   2.538   1.936 -2.3712  2.3201  1.9907
  542MOL0     H73149   3.740   2.602   1.984  0.6745  0.1040  0.2160
  542MOL0     H73150   3.644   2.679   2.204  1.9939 -0.9722 -0.2860
  542MOL0     H73151   3.487   2.601   2.161  1.9354 -1.1995  0.8335
  542MOL0     H73152   3.650   1.645   1.847 -0.3394  0.3075 -0.6527
  542MOL0     H73153   3.738   1.409   1.836  0.8842  0.4926 -0.8556
  542MOL0     H73154   3.937   1.073   2.137 -1.7847 -3.8301  0.7731
  542MOL0     H73155   4.044   0.864   2.188  1.1752 -1.5634  0.9348
  542MOL0     H73156   5.298   0.250   2.671  1.8140 -0.9425  1.4877
  542MOL0     H73157   5.500   0.257   2.828 -0.3459 -1.2457 -0.5362
  542MOL0     H73158   5.594   0.510   3.372 -0.2643  2.2838 -2.2528
  542MOL0     H73159   5.796   0.478   3.504 -1.2686  3.4627 -0.4401
  542MOL0     H73160   6.080   0.233   3.408 -0.1353  0.3786 -0.9768
  542MOL0     H73161   6.160   0.327   3.528 -0.4802  0.8690  0.6129
  542MOL0     H73162   5.872   0.266   3.583  0.2637 -0.6773  1.8096
  542MOL0     H73163   5.981   0.352   3.682 -1.2172  1.2114  0.8983
  542MOL0     H73164   5.968   0.145   3.779 -0.9887 -0.1509  0.0048
  542MOL0     H73165   6.129   0.129   3.692 -0.1996  0.0318  1.3877
  542MOL0     H73166   5.863   0.031   3.607 -0.4570 -1.4698 -1.8600
  542MOL0     H73167   5.996  -0.075   3.659  1.2599 -1.4223 -1.8524
  542MOL0     H73168   6.049  -0.067   3.243  3.3815  0.3874  0.3722
  542MOL0     H73169   6.025   0.401   3.150  0.4696 -1.4033  1.6733
  542MOL0     H73170   5.823   0.430   3.019 -2.4879  5.8734 -1.1588
  543MOL0     O73171   3.423   8.055   9.373 -0.0489  0.0643 -0.0409
  543MOL0     C73172   3.351   7.956   9.346  0.0315 -0.2172  0.4336
  543MOL0     O73173   3.225   7.958   9.290 -0.2332  0.3328  0.1423
  543MOL0     C73174   3.178   8.083   9.244  0.1686 -0.9169 -0.6774
  543MOL0     C73175   3.063   8.142   9.299  0.1229 -0.3232 -0.3369
  543MOL0     C73176   3.013   8.264   9.251 -0.3282 -0.9695  0.3399
  543MOL0     C73177   3.073   8.334   9.145 -0.9435  1.3691 -0.2887
  543MOL0     O73178   3.021   8.449   9.102 -0.0625  0.0320  0.2691
  543MOL0     C73179   3.103   8.560   9.050 -0.2672  0.3654  0.4047
  543MOL0     C73180   3.005   8.680   9.042 -0.6536 -0.2255 -0.7472
  543MOL0     C73181   3.093   8.805   9.010 -0.4161 -0.3544  1.2546
  543MOL0     C73182   3.005   8.926   8.964 -0.2685  0.1600 -0.2478
  543MOL0     C73183   3.085   9.061   8.925 -0.9279 -0.0348  0.8331
  543MOL0     C73184   2.987   9.173   8.928  0.0278  0.2159 -0.1570
  543MOL0     C73185   3.049   9.296   8.858  1.0787 -0.4667 -0.6661
  543MOL0     C73186   2.981   9.424   8.889  1.0584  0.0532  0.0707
  543MOL0     N73187   2.844   9.445   8.838  0.2261 -0.0902 -0.8737
  543MOL0     C73188   2.826   9.452   8.706 -1.3599  0.0783 -0.0064
  543MOL0     C73189   2.695   9.479   8.689  0.0555 -0.9557 -0.3041
  543MOL0     C73190   2.642   9.520   8.557 -0.2267  1.3395 -0.9918
  543MOL0     C73191   2.615   9.402   8.468  1.0734 -0.7970 -0.2329
  543MOL0     C73192   2.585   9.455   8.326 -0.4242  0.7721 -0.2512
  543MOL0     C73193   2.547   9.344   8.230  0.8014  0.0233  0.3935
  543MOL0     O73194   2.549   9.397   8.101 -0.2091  0.5953  0.1559
  543MOL0     C73195   2.510   9.325   7.998 -0.2609  1.1190  0.0412
  543MOL0     C73196   2.442   9.394   7.894 -1.2489  0.4247  0.1266
  543MOL0     C73197   2.383   9.329   7.791 -0.2364  0.0558  0.5898
  543MOL0     C73198   2.298   9.406   7.695 -0.4379 -0.3660  0.5693
  543MOL0     C73199   2.419   9.194   7.770  0.9872  0.6632 -0.1680
  543MOL0     C73200   2.358   9.103   7.659  0.0295 -0.3804 -0.8634
  543MOL0     O73201   2.439   9.010   7.598 -0.3293 -0.0358 -0.1871
  543MOL0     C73202   2.389   8.913   7.520 -0.3380  0.0568 -0.0359
  543MOL0     C73203   2.283   8.836   7.576  0.2000 -0.5714  0.7022
  543MOL0     C73204   2.236   8.728   7.503  0.1001  0.1430 -0.6766
  543MOL0     C73205   2.284   8.692   7.380  0.6059 -0.8634 -0.0275
  543MOL0     O73206   2.237   8.584   7.315  0.7897  0.6843 -0.0275
  543MOL0     C73207   2.162   8.473   7.373 -0.2968  0.4002 -0.0894
  543MOL0     C73208   2.157   8.360   7.275  0.1517  0.9362  0.4071
  543MOL0     C73209   2.295   8.299   7.253 -0.1100 -0.5586  0.0157
  543MOL0     C73210   2.262   8.183   7.154  0.4899 -0.5753 -0.5130
  543MOL0     C73211   2.379   8.087   7.168  0.2700 -1.4633 -0.3053
  543MOL0     C73212   2.399   7.997   7.294  0.1837  0.0184  0.2268
  543MOL0     C73213   2.531   7.916   7.289 -0.1221 -1.0065  0.4333
  543MOL0     C73214   2.516   7.795   7.372  0.3183 -0.3581  0.5872
  543MOL0    Cl73215   2.421   7.682   7.259 -0.3936 -0.6397 -0.3062
  543MOL0     C73216   2.383   8.769   7.321  0.0787  0.1229 -0.6509
  543MOL0     C73217   2.430   8.886   7.389 -0.0339  0.7992 -0.0807
  543MOL0     O73218   2.247   9.142   7.615 -0.7411  0.3598 -0.3623
  543MOL0     C73219   2.510   9.136   7.860 -0.4881  0.3135  0.4061
  543MOL0     C73220   2.556   9.194   7.977 -0.1367 -0.1082 -0.2300
  543MOL0     N73221   2.633   9.488   8.817 -0.1502  0.4720  0.5955
  543MOL0     N73222   2.733   9.470   8.905  0.4028 -0.3011 -0.5837
  543MOL0     C73223   3.193   8.267   9.087 -1.0685  0.1937 -0.5701
  543MOL0     C73224   3.242   8.149   9.139 -1.1792 -0.5893  0.1191
  543MOL0     C73225   3.402   7.815   9.361  0.3508 -0.1688 -1.0676
  543MOL0     C73226   3.352   7.713   9.282 -0.7034 -0.3258 -0.0157
  543MOL0     C73227   3.397   7.577   9.303  0.2504  0.1351  0.3522
  543MOL0     C73228   3.498   7.557   9.398  0.7929  0.9360 -0.6823
  543MOL0     O73229   3.531   7.428   9.426  0.6722  0.4569 -0.3040
  543MOL0     C73230   3.654   7.380   9.366  0.1654  0.4078  0.1865
  543MOL0     C73231   3.618   7.267   9.271 -0.0062  0.2564 -0.2279
  543MOL0     C73232   3.738   7.181   9.227  0.7589  0.2704 -0.1259
  543MOL0     C73233   3.693   7.042   9.167 -0.3606  0.4719 -0.2313
  543MOL0     C73234   3.758   7.008   9.039  0.0105 -0.1199 -0.8155
  543MOL0     C73235   3.827   6.975   8.944 -0.6114 -0.2118 -1.0187
  543MOL0     C73236   3.548   7.662   9.475 -0.3317  0.3761 -0.0209
  543MOL0     C73237   3.508   7.791   9.454 -0.8333  0.1138 -0.5632
  543MOL0     H73238   3.028   8.086   9.385 -0.1778 -0.1512 -0.3465
  543MOL0     H73239   2.924   8.307   9.295 -0.4300  0.7573 -1.4728
  543MOL0     H73240   3.177   8.576   9.129 -0.6739  1.7809  0.5229
  543MOL0     H73241   3.158   8.541   8.957  2.0425  3.2917  1.0408
  543MOL0     H73242   2.932   8.684   8.961 -2.5201  0.8545  0.8716
  543MOL0     H73243   2.959   8.692   9.141  1.7077  1.0489  0.2952
  543MOL0     H73244   3.143   8.849   9.097 -0.3877  1.2678  0.4482
  543MOL0     H73245   3.169   8.784   8.934 -0.8158 -0.5124  0.8991
  543MOL0     H73246   2.931   8.897   8.889 -1.8400 -0.0141  1.3209
  543MOL0     H73247   2.959   8.959   9.057  2.3395  0.8369  0.8956
  543MOL0     H73248   3.167   9.084   8.994 -0.1349  2.2879 -0.7833
  543MOL0     H73249   3.114   9.038   8.822 -1.1492  1.1528  0.4898
  543MOL0     H73250   2.896   9.146   8.875 -1.2932 -0.3457  2.2744
  543MOL0     H73251   2.958   9.199   9.030  0.6705  3.8123 -0.7508
  543MOL0     H73252   3.153   9.309   8.889  0.5202  1.3184  0.5919
  543MOL0     H73253   3.047   9.275   8.751  0.3633 -0.4147 -0.6671
  543MOL0     H73254   3.046   9.499   8.844 -1.9874  1.5508 -2.1786
  543MOL0     H73255   2.985   9.439   8.998 -0.6266  3.2431 -0.1916
  543MOL0     H73256   2.909   9.436   8.638 -1.1948 -0.4721  0.3216
  543MOL0     H73257   2.546   9.571   8.567 -0.6961  0.8583 -2.7306
  543MOL0     H73258   2.716   9.585   8.509 -1.1003  2.0781 -1.3533
  543MOL0     H73259   2.526   9.346   8.498 -0.4231  2.0383  1.0628
  543MOL0     H73260   2.695   9.329   8.457 -0.0086 -2.2288  0.9975
  543MOL0     H73261   2.674   9.505   8.286 -0.2849  1.5167  0.9628
  543MOL0     H73262   2.509   9.533   8.318  0.5116  1.5455 -2.4895
  543MOL0     H73263   2.451   9.295   8.250  0.6942  0.1794  0.2680
  543MOL0     H73264   2.629   9.272   8.235  1.0140 -0.2010 -3.4856
  543MOL0     H73265   2.430   9.501   7.907 -1.9017  0.3199  0.4211
  543MOL0     H73266   2.313   9.382   7.589 -2.7674  2.6050 -0.5670
  543MOL0     H73267   2.193   9.398   7.725 -1.2898  4.0174 -0.6116
  543MOL0     H73268   2.322   9.512   7.707 -3.2353  0.5732 -1.2030
  543MOL0     H73269   2.246   8.859   7.675  0.6740 -3.0933  1.5189
  543MOL0     H73270   2.149   8.676   7.543 -0.6121  1.5024 -0.3873
  543MOL0     H73271   2.217   8.440   7.462  1.4386  3.1237 -0.0404
  543MOL0     H73272   2.062   8.508   7.399 -0.2726 -1.2329  2.7236
  543MOL0     H73273   2.081   8.291   7.313 -0.2195  2.8145  3.4605
  543MOL0     H73274   2.120   8.413   7.186 -2.5092 -0.6062  0.4698
  543MOL0     H73275   2.346   8.284   7.349  1.0322 -1.4073 -0.7016
  543MOL0     H73276   2.357   8.369   7.196  0.0980  0.1726  1.1027
  543MOL0     H73277   2.170   8.126   7.174 -0.0277 -0.1515 -1.5947
  543MOL0     H73278   2.258   8.229   7.055 -1.2329  1.4301  0.4224
  543MOL0     H73279   2.474   8.140   7.174 -1.1633  1.0636  4.4583
  543MOL0     H73280   2.381   8.021   7.080  5.1926 -0.7495 -1.0059
  543MOL0     H73281   2.387   8.048   7.390 -0.4721 -1.9102  1.2148
  543MOL0     H73282   2.309   7.936   7.290  0.2519 -0.0287 -2.6119
  543MOL0     H73283   2.608   7.979   7.334 -1.6431 -1.2004  3.5233
  543MOL0     H73284   2.577   7.902   7.191  0.9153 -0.4980  0.8250
  543MOL0     H73285   2.466   7.812   7.467 -0.5733  0.1759  0.0339
  543MOL0     H73286   2.610   7.740   7.385  0.3502 -1.3220 -2.7628
  543MOL0     H73287   2.423   8.733   7.227  0.8688 -2.4599  0.5843
  543MOL0     H73288   2.504   8.952   7.344  0.6457 -0.9084 -1.5701
  543MOL0     H73289   2.535   9.035   7.832  0.1291  0.8102 -0.9222
  543MOL0     H73290   2.599   9.144   8.064  2.1941 -0.9245 -1.7465
  543MOL0     H73291   3.245   8.313   9.003 -1.0578  0.4577 -0.4168
  543MOL0     H73292   3.332   8.097   9.108 -0.1708  0.1441  1.6605
  543MOL0     H73293   3.266   7.725   9.216  1.9425  1.8330 -3.3665
  543MOL0     H73294   3.348   7.497   9.249 -1.0638  1.1510 -0.0094
  543MOL0     H73295   3.698   7.462   9.309 -1.2868 -0.6249 -2.5647
  543MOL0     H73296   3.719   7.343   9.446  0.4625 -1.5875 -0.9296
  543MOL0     H73297   3.572   7.316   9.185  0.3315  0.1008 -0.5034
  543MOL0     H73298   3.536   7.206   9.311  0.4802  0.7367  1.6106
  543MOL0     H73299   3.801   7.152   9.312  0.4472 -0.7171 -0.2241
  543MOL0     H73300   3.792   7.242   9.155 -2.8144  0.8787 -2.5328
  543MOL0     H73301   3.584   7.048   9.157 -0.6218  1.1596  2.2668
  543MOL0     H73302   3.713   6.958   9.235 -1.5071 -1.0074 -1.6511
  543MOL0     H73303   3.901   6.956   8.868  1.6014 -0.2789  1.0266
  543MOL0     H73304   3.611   7.641   9.561 -0.9023  0.0055  0.3113
  543MOL0     H73305   3.553   7.871   9.510 -3.3768  2.5902 -1.7952
  544MOL0     O73306   4.150   7.639   8.683  0.8205 -0.1023  0.1635
  544MOL0     C73307   4.112   7.529   8.711  0.7215  0.8495 -0.7044
  544MOL0     O73308   4.196   7.424   8.751  0.4040 -0.0905  0.2164
  544MOL0     C73309   4.320   7.438   8.802  0.6588  0.4709  0.0472
  544MOL0     C73310   4.362   7.537   8.890 -0.4640 -0.7095 -0.9483
  544MOL0     C73311   4.494   7.526   8.943  0.7159 -0.2570  0.0087
  544MOL0     C73312   4.581   7.415   8.919  0.8725  0.7717  0.0975
  544MOL0     O73313   4.695   7.400   9.002 -0.1863  0.5991 -0.1609
  544MOL0     C73314   4.800   7.309   8.966  0.3982 -0.1544 -0.3746
  544MOL0     C73315   4.873   7.379   8.853 -1.0704 -1.2196  0.7603
  544MOL0     C73316   4.961   7.502   8.902 -0.0930  0.0660 -0.3482
  544MOL0     C73317   5.103   7.465   8.949  0.4384  0.3468  0.1897
  544MOL0     C73318   5.187   7.590   8.978 -0.1029 -0.8679 -0.1875
  544MOL0     C73319   5.249   7.650   8.870  0.6323 -0.1901  0.6089
  544MOL0     C73320   5.337   7.770   8.930 -0.3799  0.5393  0.2493
  544MOL0     C73321   5.397   7.850   8.817  0.7590  0.0220  0.5453
  544MOL0     N73322   5.487   7.772   8.737 -0.9858  0.3646 -0.4807
  544MOL0     C73323   5.486   7.776   8.599 -0.1389  0.3832 -0.5963
  544MOL0     C73324   5.612   7.763   8.562 -0.1379  0.1829 -0.9093
  544MOL0     C73325   5.678   7.756   8.426  0.0861  0.2211 -0.2309
  544MOL0     C73326   5.580   7.697   8.323 -0.9184  0.6043  0.5633
  544MOL0     C73327   5.653   7.656   8.188 -0.5754  0.0486 -0.5949
  544MOL0     C73328   5.571   7.545   8.120 -0.5689  0.2228  0.2348
  544MOL0     O73329   5.452   7.610   8.068  0.1947  0.0581  0.2638
  544MOL0     C73330   5.382   7.531   7.983 -0.0573  1.0039  0.9300
  544MOL0     C73331   5.426   7.457   7.872 -0.3125  1.1270  0.1752
  544MOL0     C73332   5.331   7.402   7.791 -0.4737 -1.0382  0.5366
  544MOL0     C73333   5.384   7.326   7.675 -0.0440  0.4330  0.0387
  544MOL0     C73334   5.194   7.417   7.808  0.5024 -0.4819  0.1982
  544MOL0     C73335   5.087   7.356   7.723  0.3161 -0.2738 -0.2013
  544MOL0     O73336   4.958   7.372   7.763  0.2249  0.3771 -0.2892
  544MOL0     C73337   4.847   7.331   7.687 -0.6141 -0.2936 -0.1484
  544MOL0     C73338   4.846   7.208   7.610 -0.4774 -0.7448 -0.3019
  544MOL0     C73339   4.735   7.179   7.535  0.3397  0.8802  0.0028
  544MOL0     C73340   4.632   7.270   7.504  0.7039 -0.3104 -0.0063
  544MOL0     O73341   4.527   7.264   7.422  1.1439  0.1533  0.0260
  544MOL0     C73342   4.520   7.148   7.334 -0.6048  0.9350  0.2824
  544MOL0     C73343   4.442   7.027   7.397 -0.2522 -0.8796  0.1728
  544MOL0     C73344   4.443   6.900   7.319 -0.2407  0.9936 -0.5197
  544MOL0     C73345   4.359   6.796   7.395  0.7619  0.2442 -0.5535
  544MOL0     C73346   4.197   6.819   7.388 -0.2847  0.1807  0.1695
  544MOL0     C73347   4.108   6.695   7.385 -0.8619 -0.6280 -0.1252
  544MOL0     C73348   4.151   6.591   7.482  0.4567  0.4616  0.6837
  544MOL0     C73349   4.073   6.467   7.462  0.9835  0.3002  0.2069
  544MOL0    Cl73350   4.127   6.355   7.327 -0.3740  0.4557  0.1029
  544MOL0     C73351   4.640   7.386   7.587  0.5430 -0.6282 -0.1171
  544MOL0     C73352   4.738   7.412   7.687  0.6547  0.0581 -0.8063
  544MOL0     O73353   5.122   7.303   7.623  0.1478 -0.3415 -0.5475
  544MOL0     C73354   5.143   7.487   7.917 -0.4534  0.2143 -0.8713
  544MOL0     C73355   5.241   7.529   8.010  0.4667 -1.1471 -0.0143
  544MOL0     N73356   5.694   7.775   8.674 -0.1751  0.4064  0.5114
  544MOL0     N73357   5.620   7.767   8.780 -0.2305  0.3385  0.7980
  544MOL0     C73358   4.527   7.316   8.834  0.1181 -0.2508 -0.7376
  544MOL0     C73359   4.403   7.328   8.773 -0.9819  0.3231 -0.0538
  544MOL0     C73360   3.973   7.480   8.676  0.3040 -0.1551 -0.7341
  544MOL0     C73361   3.865   7.563   8.658  1.0023  0.1014  0.8389
  544MOL0     C73362   3.737   7.513   8.618  0.6781  0.1225 -1.1421
  544MOL0     C73363   3.719   7.371   8.594 -0.5253 -0.5909  0.4308
  544MOL0     O73364   3.597   7.327   8.540  0.0925  0.8828 -0.0475
  544MOL0     C73365   3.496   7.426   8.513  1.6060 -0.6855  0.3268
  544MOL0     C73366   3.357   7.367   8.462 -0.2733  0.2567 -0.0839
  544MOL0     C73367   3.373   7.276   8.346  0.5161  0.6037  0.4126
  544MOL0     C73368   3.392   7.370   8.224 -0.4298 -0.0802  0.4407
  544MOL0     C73369   3.263   7.391   8.159  0.5619  0.8077 -0.2918
  544MOL0     C73370   3.156   7.401   8.106  0.6854 -0.3163 -0.5465
  544MOL0     C73371   3.818   7.285   8.632  0.2896  0.4764  0.3348
  544MOL0     C73372   3.946   7.340   8.668 -0.2956 -0.5250 -0.5263
  544MOL0     H73373   4.295   7.620   8.910  2.2476  1.0640  1.7101
  544MOL0     H73374   4.528   7.605   9.008 -1.5756  0.5637  0.3159
  544MOL0     H73375   4.868   7.282   9.047 -0.7680 -0.3506  0.5634
  544MOL0     H73376   4.765   7.211   8.934  4.8426 -2.1772  0.1826
  544MOL0     H73377   4.925   7.314   8.782 -1.0625  0.3181 -0.7122
  544MOL0     H73378   4.807   7.425   8.779 -0.6606  1.8524  2.1610
  544MOL0     H73379   4.963   7.574   8.820 -1.2365 -0.4100 -0.8013
  544MOL0     H73380   4.901   7.551   8.980  0.9474 -0.2641  0.6953
  544MOL0     H73381   5.107   7.405   9.041  1.4026  1.9261  1.2316
  544MOL0     H73382   5.147   7.404   8.870 -2.1917 -1.5072  0.0506
  544MOL0     H73383   5.125   7.664   9.029  2.4440  1.1245  0.2684
  544MOL0     H73384   5.272   7.569   9.044  0.3865  3.1994  0.7676
  544MOL0     H73385   5.318   7.579   8.824  0.5061  0.8479 -1.2962
  544MOL0     H73386   5.179   7.678   8.791  0.1444  0.2603  1.1871
  544MOL0     H73387   5.274   7.849   8.973 -2.9635  0.4381 -2.9298
  544MOL0     H73388   5.407   7.730   9.004 -0.5835  0.8887  0.6357
  544MOL0     H73389   5.447   7.940   8.853 -2.2081  1.2244  2.0012
  544MOL0     H73390   5.319   7.884   8.747  2.1565  0.1357 -1.0304
  544MOL0     H73391   5.402   7.787   8.531  1.8279 -0.1346 -3.2900
  544MOL0     H73392   5.704   7.862   8.410 -0.0862  0.1109 -1.3202
  544MOL0     H73393   5.769   7.697   8.442 -1.7037 -2.7859 -0.5531
  544MOL0     H73394   5.498   7.769   8.313 -0.8724  0.7715  1.3638
  544MOL0     H73395   5.549   7.599   8.360  3.5490 -1.5581 -0.7317
  544MOL0     H73396   5.759   7.632   8.202 -0.3553  0.7438 -0.9839
  544MOL0     H73397   5.665   7.748   8.130  1.8011  0.1785  0.0285
  544MOL0     H73398   5.560   7.465   8.194  0.3719 -1.3163 -1.2425
  544MOL0     H73399   5.639   7.508   8.044  0.1693 -0.3241  1.1434
  544MOL0     H73400   5.534   7.455   7.860 -0.4853  0.7171 -1.5095
  544MOL0     H73401   5.356   7.222   7.694  0.8658  0.5286  2.2071
  544MOL0     H73402   5.350   7.366   7.579 -0.7626 -3.3555 -1.4268
  544MOL0     H73403   5.494   7.327   7.676  0.0970 -2.8791 -1.4084
  544MOL0     H73404   4.933   7.146   7.627 -1.2008 -2.0522 -1.2052
  544MOL0     H73405   4.741   7.076   7.501  4.3258  0.4601  1.5060
  544MOL0     H73406   4.457   7.169   7.247  0.1187  0.5220 -0.3569
  544MOL0     H73407   4.614   7.123   7.283 -1.5705 -0.7992 -0.7615
  544MOL0     H73408   4.491   7.019   7.495  1.8585 -0.6021 -0.7870
  544MOL0     H73409   4.344   7.074   7.388  0.7961  1.0035 -3.6623
  544MOL0     H73410   4.541   6.859   7.292 -1.0537 -0.1905 -1.8239
  544MOL0     H73411   4.408   6.927   7.218  1.9478  2.9987 -0.8179
  544MOL0     H73412   4.379   6.701   7.345  0.9754 -0.1864  0.3290
  544MOL0     H73413   4.395   6.789   7.498  1.2177  0.9649 -0.6500
  544MOL0     H73414   4.180   6.874   7.295  0.7690  1.0655  0.4747
  544MOL0     H73415   4.176   6.876   7.480  2.3415  1.3351  0.1453
  544MOL0     H73416   4.001   6.719   7.384 -1.1114 -1.6932  0.2850
  544MOL0     H73417   4.131   6.653   7.287 -0.0130 -2.3047  0.7523
  544MOL0     H73418   4.147   6.631   7.584 -0.5227  5.2958 -0.9593
  544MOL0     H73419   4.253   6.559   7.462  0.3175  1.3226 -1.6556
  544MOL0     H73420   3.967   6.492   7.453  0.8293 -0.8491 -1.7235
  544MOL0     H73421   4.089   6.428   7.563  1.1158  1.4386  0.6401
  544MOL0     H73422   4.560   7.458   7.575 -1.0108 -2.3760 -0.8675
  544MOL0     H73423   4.731   7.499   7.751 -0.8064 -1.0402  0.6155
  544MOL0     H73424   5.038   7.502   7.937 -1.3754 -2.1805 -3.2729
  544MOL0     H73425   5.201   7.569   8.103  3.3247  2.2393 -0.0150
  544MOL0     H73426   4.579   7.222   8.818  1.3768  0.1201  0.8909
  544MOL0     H73427   4.365   7.249   8.709 -0.0227 -0.8219  0.7660
  544MOL0     H73428   3.881   7.669   8.676 -0.3426  0.4448  0.1546
  544MOL0     H73429   3.661   7.590   8.604  0.6111 -0.0437 -1.7207
  544MOL0     H73430   3.483   7.485   8.604 -1.2994 -1.7838  0.7246
  544MOL0     H73431   3.527   7.489   8.429  0.2691 -1.8514 -1.0962
  544MOL0     H73432   3.291   7.450   8.440 -2.7032 -1.4423  0.3781
  544MOL0     H73433   3.321   7.314   8.551 -0.1990  0.2206 -0.0751
  544MOL0     H73434   3.290   7.207   8.329  0.2079  1.0173  0.1960
  544MOL0     H73435   3.453   7.204   8.363  1.4356  0.4516 -3.5775
  544MOL0     H73436   3.452   7.319   8.148 -3.9530  0.1316 -2.7909
  544MOL0     H73437   3.446   7.458   8.258  3.1713 -2.5864  1.8422
  544MOL0     H73438   3.059   7.405   8.060 -0.2413 -1.7265  1.1416
  544MOL0     H73439   3.796   7.178   8.631 -0.2344  0.5831 -0.0299
  544MOL0     H73440   4.019   7.260   8.670 -0.1929 -0.4150  0.4825
  545MOL0     O73441   0.870   9.484   8.024 -0.2906 -0.2834 -0.2216
  545MOL0     C73442   0.813   9.552   8.113 -0.4692 -0.6653  0.4711
  545MOL0     O73443   0.700   9.516   8.185  0.4184  0.3713 -0.1492
  545MOL0     C73444   0.633   9.406   8.158  0.3875  0.1074  0.3133
  545MOL0     C73445   0.614   9.304   8.252 -0.5287  0.5637  0.1584
  545MOL0     C73446   0.523   9.199   8.232 -0.2436  0.2667 -0.0870
  545MOL0     C73447   0.449   9.184   8.118 -0.4939  0.2491 -0.2606
  545MOL0     O73448   0.353   9.088   8.097 -0.2570 -0.3677 -0.4291
  545MOL0     C73449   0.292   9.025   8.213  0.5213  1.0764 -0.8391
  545MOL0     C73450   0.140   9.027   8.191  0.0150 -0.5824 -0.3925
  545MOL0     C73451   0.067   8.971   8.311 -0.6946 -0.2018 -0.5479
  545MOL0     C73452  -0.083   8.974   8.293 -0.1628 -0.3026  0.2914
  545MOL0     C73453  -0.168   8.973   8.416  1.0817 -0.5289  0.5451
  545MOL0     C73454  -0.317   9.004   8.373 -0.0083  0.1416  0.7381
  545MOL0     C73455  -0.385   8.887   8.320  0.2335  0.4663  0.0841
  545MOL0     C73456  -0.529   8.924   8.286 -0.9615 -0.6815  0.1446
  545MOL0     N73457  -0.616   8.973   8.386 -0.3858 -0.2217 -0.2943
  545MOL0     C73458  -0.672   8.907   8.489 -0.8529 -0.1257 -0.1604
  545MOL0     C73459  -0.738   9.007   8.554 -0.8084 -1.0153  0.4272
  545MOL0     C73460  -0.809   8.997   8.684  0.1935  0.2937 -0.2663
  545MOL0     C73461  -0.957   8.994   8.660 -0.1909  0.1333 -0.7007
  545MOL0     C73462  -1.025   8.988   8.795 -0.2457 -0.2524  0.6769
  545MOL0     C73463  -1.170   8.931   8.784 -0.0933 -0.7218  0.0389
  545MOL0     O73464  -1.258   9.044   8.790  0.4105  0.5675 -0.3606
  545MOL0     C73465  -1.372   9.022   8.864  0.1693  0.7368  0.1617
  545MOL0     C73466  -1.394   9.130   8.947  0.2268  0.0914  0.8604
  545MOL0     C73467  -1.504   9.127   9.035  0.6129 -0.5975  0.5406
  545MOL0     C73468  -1.530   9.254   9.121 -0.9820 -0.1215  0.5221
  545MOL0     C73469  -1.589   9.009   9.034 -0.5289  0.4466 -0.5890
  545MOL0     C73470  -1.693   8.974   9.138 -0.0816 -0.6719  0.4523
  545MOL0     O73471  -1.706   8.847   9.162 -0.7187 -0.3761 -0.3524
  545MOL0     C73472  -1.821   8.793   9.199 -0.7438  0.2139 -0.1386
  545MOL0     C73473  -1.812   8.659   9.219  0.0858 -0.1002  2.1541
  545MOL0     C73474  -1.919   8.586   9.264 -0.6858 -0.4477  1.1027
  545MOL0     C73475  -2.041   8.648   9.271  0.7677  1.1376 -0.2734
  545MOL0     O73476  -2.150   8.564   9.301 -0.0541  0.3927 -0.2507
  545MOL0     C73477  -2.223   8.512   9.186  0.7800 -0.0231  0.3414
  545MOL0     C73478  -2.290   8.373   9.217  0.7031 -1.2996  0.0141
  545MOL0     C73479  -2.370   8.318   9.101  0.7359 -0.3756 -0.4893
  545MOL0     C73480  -2.293   8.231   8.995 -0.2950  0.4282  0.7898
  545MOL0     C73481  -2.380   8.197   8.877 -0.4214 -0.3382  0.0315
  545MOL0     C73482  -2.306   8.116   8.772 -0.0435 -0.9210  0.4317
  545MOL0     C73483  -2.274   7.969   8.816 -0.1005  0.7019 -0.2915
  545MOL0     C73484  -2.203   7.895   8.702 -0.4665  0.6127 -0.2367
  545MOL0    Cl73485  -2.053   7.985   8.663 -0.1601  0.2565  0.0601
  545MOL0     C73486  -2.066   8.777   9.232  0.6291 -0.5360  0.6051
  545MOL0     C73487  -1.951   8.847   9.209  0.1822 -0.9528  0.0022
  545MOL0     O73488  -1.749   9.065   9.203 -0.3193  0.5717 -0.1127
  545MOL0     C73489  -1.559   8.904   8.951  0.3872 -0.2273  0.3346
  545MOL0     C73490  -1.452   8.910   8.861  0.2003 -0.2283 -0.4706
  545MOL0     N73491  -0.730   9.122   8.488 -0.6814 -0.1886  0.3787
  545MOL0     N73492  -0.658   9.101   8.382  0.0036 -0.0051 -0.2980
  545MOL0     C73493   0.482   9.269   8.014 -0.3359 -0.9188  0.5628
  545MOL0     C73494   0.573   9.379   8.033  0.3879 -0.6321  0.1900
  545MOL0     C73495   0.875   9.682   8.149  0.0724  0.3819  0.1282
  545MOL0     C73496   1.008   9.704   8.114  0.1784 -0.5014 -0.6811
  545MOL0     C73497   1.085   9.795   8.177  0.0981  0.2665  0.8172
  545MOL0     C73498   1.013   9.889   8.261  0.2216 -0.0203  0.4662
  545MOL0     O73499   1.097   9.994   8.317  0.9198 -0.2309 -0.2848
  545MOL0     C73500   1.036  10.096   8.393 -0.0314  0.1350  0.1218
  545MOL0     C73501   1.147  10.181   8.456  0.0754 -0.0990 -0.0922
  545MOL0     C73502   1.219  10.277   8.357  0.4758  0.3549  0.2630
  545MOL0     C73503   1.146  10.410   8.345 -0.0186  0.4948  0.5084
  545MOL0     C73504   1.203  10.509   8.253  0.6762  0.0821 -0.0431
  545MOL0     C73505   1.235  10.610   8.188  0.6505  0.0586 -0.4693
  545MOL0     C73506   0.877   9.882   8.285  0.6459 -0.1717 -0.2400
  545MOL0     C73507   0.810   9.770   8.233 -1.3749  0.1810 -0.3920
  545MOL0     H73508   0.666   9.312   8.347 -0.0125  2.2035 -0.2416
  545MOL0     H73509   0.503   9.129   8.312 -0.6810  0.5951  0.0967
  545MOL0     H73510   0.329   8.923   8.223 -0.3894  0.7710 -0.4449
  545MOL0     H73511   0.305   9.067   8.313 -1.3428  1.0699 -0.5526
  545MOL0     H73512   0.093   9.124   8.177 -0.6635 -0.9263 -0.5175
  545MOL0     H73513   0.104   8.970   8.105 -1.7301  1.3876 -1.0438
  545MOL0     H73514   0.107   8.873   8.338 -2.5158 -0.4825  1.4027
  545MOL0     H73515   0.090   9.049   8.385 -0.5657 -0.9268  0.1921
  545MOL0     H73516  -0.098   9.071   8.244 -0.7418 -1.9368 -3.0532
  545MOL0     H73517  -0.110   8.901   8.216 -3.0495  2.7509 -1.9137
  545MOL0     H73518  -0.175   8.876   8.466 -2.6360 -0.6362  0.1246
  545MOL0     H73519  -0.128   9.053   8.479  1.6224 -0.4524  0.1110
  545MOL0     H73520  -0.374   9.037   8.461 -1.0516  1.5464 -0.4084
  545MOL0     H73521  -0.318   9.079   8.293  2.8255  0.3076  0.7875
  545MOL0     H73522  -0.339   8.861   8.224  1.5111  2.0698  0.2317
  545MOL0     H73523  -0.403   8.806   8.391 -1.2038  0.8108  0.1485
  545MOL0     H73524  -0.583   8.831   8.262 -1.8800  0.3504 -2.1705
  545MOL0     H73525  -0.530   8.994   8.202 -0.5582  0.7027  1.2528
  545MOL0     H73526  -0.655   8.806   8.524 -2.7844 -0.9179 -1.3264
  545MOL0     H73527  -0.775   8.906   8.734 -1.4733 -0.9599 -1.3288
  545MOL0     H73528  -0.779   9.079   8.750 -1.4740  2.9403 -2.5746
  545MOL0     H73529  -0.994   8.912   8.597 -1.1375  0.5312 -0.6677
  545MOL0     H73530  -0.988   9.086   8.610 -1.5398 -1.0838 -2.2014
  545MOL0     H73531  -1.021   9.084   8.848  1.0640 -1.8021  3.6163
  545MOL0     H73532  -0.964   8.917   8.851  1.2625 -0.4073 -1.0469
  545MOL0     H73533  -1.172   8.856   8.864 -0.2030 -2.3468 -1.4308
  545MOL0     H73534  -1.194   8.877   8.692 -0.3566 -0.4942 -0.0267
  545MOL0     H73535  -1.326   9.215   8.942 -0.1721  0.3382 -1.8778
  545MOL0     H73536  -1.453   9.331   9.120 -2.2169  1.1580 -0.0528
  545MOL0     H73537  -1.616   9.305   9.076 -1.6786 -0.1354  1.7909
  545MOL0     H73538  -1.543   9.215   9.223 -1.2257 -0.0585  0.5163
  545MOL0     H73539  -1.722   8.601   9.203 -1.8035 -2.9073  0.7242
  545MOL0     H73540  -1.901   8.481   9.283  0.2616 -0.9410 -2.0926
  545MOL0     H73541  -2.292   8.589   9.148 -1.5105 -1.2285  1.8429
  545MOL0     H73542  -2.141   8.495   9.116 -0.2742  0.3791 -1.0546
  545MOL0     H73543  -2.224   8.290   9.243 -1.9334 -2.9490  1.8858
  545MOL0     H73544  -2.355   8.393   9.303 -0.5599 -4.7011 -0.0332
  545MOL0     H73545  -2.426   8.398   9.052 -0.6733 -0.4013  0.9846
  545MOL0     H73546  -2.435   8.251   9.158  1.3813  2.0549  3.5521
  545MOL0     H73547  -2.208   8.289   8.958 -1.7583  3.1054  1.4244
  545MOL0     H73548  -2.257   8.142   9.048  1.6200  1.4215  1.2520
  545MOL0     H73549  -2.415   8.290   8.832 -1.3550 -2.0513 -3.0606
  545MOL0     H73550  -2.464   8.139   8.917 -0.6960 -0.8730 -1.2804
  545MOL0     H73551  -2.361   8.108   8.678  0.3715  0.8231  0.0134
  545MOL0     H73552  -2.214   8.160   8.734  0.7438 -2.0473  0.9653
  545MOL0     H73553  -2.364   7.910   8.836  0.8755 -0.6676  0.2520
  545MOL0     H73554  -2.206   7.970   8.901 -0.4650 -2.4571  0.1786
  545MOL0     H73555  -2.256   7.895   8.606  0.8227  0.5856 -0.9648
  545MOL0     H73556  -2.169   7.795   8.731  2.5124  1.4972 -0.4219
  545MOL0     H73557  -2.160   8.832   9.230 -0.1676 -1.8666  0.6131
  545MOL0     H73558  -1.973   8.951   9.188 -1.7642 -1.4356 -0.5111
  545MOL0     H73559  -1.614   8.810   8.957 -0.5187  0.2141 -0.6894
  545MOL0     H73560  -1.427   8.835   8.786  0.8822 -1.0169  0.5228
  545MOL0     H73561   0.430   9.245   7.922 -2.8534  0.5903  1.4967
  545MOL0     H73562   0.581   9.459   7.960  1.1195 -2.0668 -1.3714
  545MOL0     H73563   1.065   9.641   8.047 -1.9105  0.7961 -3.8951
  545MOL0     H73564   1.192   9.805   8.171 -0.0673  1.5991 -0.2372
  545MOL0     H73565   0.971  10.161   8.334 -2.5361 -0.9589  1.4994
  545MOL0     H73566   0.968  10.052   8.467 -0.9435 -0.4817 -1.0438
  545MOL0     H73567   1.223  10.118   8.502  0.9889  0.5819 -0.6426
  545MOL0     H73568   1.107  10.251   8.530 -0.1749  1.6958 -1.8403
  545MOL0     H73569   1.236  10.235   8.257  1.3428  3.2741 -0.9241
  545MOL0     H73570   1.321  10.293   8.394  0.3454  0.6991  0.4844
  545MOL0     H73571   1.141  10.458   8.443  1.8789  1.1439  0.3250
  545MOL0     H73572   1.045  10.401   8.304 -0.7165  3.8005  1.1578
  545MOL0     H73573   1.266  10.706   8.154  0.5404 -0.1938 -1.3179
  545MOL0     H73574   0.822   9.954   8.345  1.3096 -0.4395  0.7266
  545MOL0     H73575   0.706   9.747   8.255 -0.6501 -1.5341  1.4485
  546MOL0     O73576  10.735   8.001   5.767  0.6657  0.0343  0.9827
  546MOL0     C73577  10.780   8.081   5.686 -0.8660  0.5579 -0.0615
  546MOL0     O73578  10.854   8.195   5.714  0.2193  0.0740  1.3831
  546MOL0     C73579  10.888   8.225   5.839 -0.7682  0.3267 -0.7141
  546MOL0     C73580  10.820   8.193   5.957  0.5505 -0.0352  0.2320
  546MOL0     C73581  10.873   8.217   6.079  0.9080  0.2557  0.1711
  546MOL0     C73582  11.005   8.253   6.093 -0.3908  0.4661 -0.0815
  546MOL0     O73583  11.045   8.269   6.225 -0.0584 -0.9674 -0.4033
  546MOL0     C73584  11.181   8.267   6.262  0.6699 -0.6993 -0.6826
  546MOL0     C73585  11.197   8.345   6.393 -0.1311  0.7029  0.2861
  546MOL0     C73586  11.342   8.402   6.407  0.1220 -0.5651 -0.2525
  546MOL0     C73587  11.314   8.549   6.427 -0.0550 -0.3903 -0.3545
  546MOL0     C73588  11.453   8.622   6.425 -0.6272  0.6129  0.3687
  546MOL0     C73589  11.456   8.775   6.471 -0.7395  0.2811 -0.0530
  546MOL0     C73590  11.601   8.822   6.488 -0.8840 -0.4033  0.8780
  546MOL0     C73591  11.682   8.807   6.354  0.5923 -0.7258  0.6507
  546MOL0     N73592  11.619   8.873   6.229  0.7525  0.8630 -0.1221
  546MOL0     C73593  11.519   8.818   6.156  0.1988  0.1400  0.0750
  546MOL0     C73594  11.472   8.922   6.071  0.2572 -0.1670 -0.3913
  546MOL0     C73595  11.377   8.908   5.956  0.5270  0.3983 -0.0545
  546MOL0     C73596  11.286   8.784   5.960  0.6776 -0.5141  0.8968
  546MOL0     C73597  11.181   8.799   6.077 -0.4671 -0.6717  0.8339
  546MOL0     C73598  11.120   8.669   6.107  0.0580  1.0128  0.3093
  546MOL0     O73599  11.050   8.619   5.996 -0.0498  0.4406 -0.7748
  546MOL0     C73600  10.917   8.640   6.009 -0.7174 -0.5668  0.5997
  546MOL0     C73601  10.838   8.557   6.079 -0.1710 -0.9561 -0.5870
  546MOL0     C73602  10.700   8.572   6.110 -0.6405  0.2237 -0.5926
  546MOL0     C73603  10.631   8.448   6.169  0.6935 -0.5104 -0.2619
  546MOL0     C73604  10.647   8.688   6.046  0.7791 -0.2180  0.1728
  546MOL0     C73605  10.490   8.703   6.038 -0.1119  0.5247 -0.5093
  546MOL0     O73606  10.418   8.587   6.040 -0.7132  0.5100 -0.7982
  546MOL0     C73607  10.288   8.598   6.008  0.2789 -0.8409  0.2430
  546MOL0     C73608  10.242   8.634   5.873  0.0817  0.0789 -0.5698
  546MOL0     C73609  10.103   8.628   5.841  0.0746  0.8266 -0.4936
  546MOL0     C73610  10.007   8.590   5.937  0.0197  0.4886  0.1441
  546MOL0     O73611   9.876   8.604   5.903 -0.3978 -0.2072 -0.4536
  546MOL0     C73612   9.808   8.726   5.945 -0.2382  0.3310  0.1065
  546MOL0     C73613   9.670   8.732   5.892  0.1098  1.0349 -0.0224
  546MOL0     C73614   9.574   8.611   5.918  0.4336 -0.0624 -0.6892
  546MOL0     C73615   9.545   8.585   6.069  0.1386  0.7956  0.3297
  546MOL0     C73616   9.456   8.480   6.110  0.4553 -0.9563  0.8250
  546MOL0     C73617   9.330   8.458   6.027 -0.6531  1.1060 -0.3259
  546MOL0     C73618   9.245   8.594   6.028  0.0821  0.4536 -0.5589
  546MOL0     C73619   9.124   8.571   5.933 -0.6177  0.0016  0.5171
  546MOL0    Cl73620   8.980   8.522   6.017  0.0248 -0.1749 -0.2413
  546MOL0     C73621  10.053   8.563   6.069 -0.6764 -0.4421 -0.2177
  546MOL0     C73622  10.193   8.557   6.101  0.1187 -0.8996 -0.5359
  546MOL0     O73623  10.436   8.815   6.027 -0.2333 -0.2421 -0.5455
  546MOL0     C73624  10.726   8.779   5.978 -0.7086  0.0848  0.4099
  546MOL0     C73625  10.864   8.750   5.960 -0.6471 -0.5963 -0.1820
  546MOL0     N73626  11.539   9.034   6.123 -0.5378 -0.1293 -0.2133
  546MOL0     N73627  11.619   9.005   6.216 -0.0997  0.8599 -0.8284
  546MOL0     C73628  11.073   8.293   5.974 -0.8236 -0.2778 -0.5471
  546MOL0     C73629  11.011   8.283   5.846  0.8202  0.0808 -0.1954
  546MOL0     C73630  10.751   8.056   5.540  0.3453  0.1019  0.3271
  546MOL0     C73631  10.773   8.156   5.438 -0.4251  0.2801  0.2852
  546MOL0     C73632  10.741   8.139   5.306  0.7150 -0.8933 -0.0996
  546MOL0     C73633  10.677   8.016   5.265 -0.5472  0.1113 -0.6788
  546MOL0     O73634  10.655   7.991   5.136  0.6695 -0.3164 -0.6868
  546MOL0     C73635  10.581   7.879   5.090 -0.5956  1.1357  0.0529
  546MOL0     C73636  10.436   7.883   5.128  0.3651 -0.1390  0.4620
  546MOL0     C73637  10.357   7.991   5.056  0.1125  0.2931 -0.1354
  546MOL0     C73638  10.262   8.063   5.156  0.6114 -0.5087  0.2315
  546MOL0     C73639  10.253   8.217   5.134  0.1146  0.6097  0.1551
  546MOL0     C73640  10.238   8.337   5.109  0.3696  0.1454  0.8630
  546MOL0     C73641  10.660   7.916   5.358  0.6353 -0.5648 -0.1691
  546MOL0     C73642  10.697   7.934   5.486 -0.2545  0.0269 -0.5363
  546MOL0     H73643  10.714   8.169   5.953  0.4077  0.5911  0.1522
  546MOL0     H73644  10.807   8.198   6.163 -1.1551  1.8379 -1.0025
  546MOL0     H73645  11.223   8.166   6.265  0.0830 -0.9661 -1.2636
  546MOL0     H73646  11.244   8.318   6.189 -0.9019 -0.7479 -2.1400
  546MOL0     H73647  11.117   8.420   6.395 -2.6092 -1.7687 -0.2573
  546MOL0     H73648  11.178   8.282   6.480 -0.4595  0.8655  0.3309
  546MOL0     H73649  11.404   8.355   6.483  0.9424 -0.1054 -0.6265
  546MOL0     H73650  11.390   8.388   6.310 -0.2228  1.5001 -0.7788
  546MOL0     H73651  11.236   8.589   6.362  0.1255  0.5259 -0.0239
  546MOL0     H73652  11.273   8.565   6.528  0.1865 -0.1091 -0.2981
  546MOL0     H73653  11.530   8.564   6.478  1.1632  1.0310 -1.6200
  546MOL0     H73654  11.477   8.634   6.319 -4.0459  2.5317 -0.3428
  546MOL0     H73655  11.398   8.839   6.404  0.2340  3.1909  1.6828
  546MOL0     H73656  11.418   8.780   6.574  1.8932  0.1633  1.0036
  546MOL0     H73657  11.611   8.922   6.530  1.1894 -0.7279  1.2918
  546MOL0     H73658  11.653   8.757   6.560  2.0218  1.5073  0.6561
  546MOL0     H73659  11.707   8.704   6.329  0.3036 -0.6262 -0.0585
  546MOL0     H73660  11.780   8.853   6.370  0.1608  0.3648  0.2258
  546MOL0     H73661  11.515   8.710   6.151  1.0640  0.0914  0.1892
  546MOL0     H73662  11.311   8.995   5.966 -2.0244 -1.5459  1.1301
  546MOL0     H73663  11.441   8.905   5.867  0.5337  1.5789 -0.1033
  546MOL0     H73664  11.344   8.692   5.973  0.5367 -0.9563 -1.1975
  546MOL0     H73665  11.225   8.783   5.869 -0.3476  1.0811  1.5315
  546MOL0     H73666  11.111   8.880   6.055  0.7032  0.1230 -0.1356
  546MOL0     H73667  11.235   8.822   6.169 -0.0200 -1.0442  0.6671
  546MOL0     H73668  11.050   8.681   6.190 -0.9049  0.4369 -0.3927
  546MOL0     H73669  11.198   8.597   6.134 -0.2934  1.2252  2.0358
  546MOL0     H73670  10.895   8.476   6.122  0.0487 -0.5233 -0.0524
  546MOL0     H73671  10.594   8.379   6.092  0.9972 -3.5937  2.1507
  546MOL0     H73672  10.706   8.397   6.229  0.0434 -0.3995  0.6682
  546MOL0     H73673  10.555   8.472   6.244  3.2056 -2.0786  3.0349
  546MOL0     H73674  10.325   8.661   5.810  1.5846  0.4424  1.4663
  546MOL0     H73675  10.063   8.658   5.744  2.5296  0.9786 -1.5264
  546MOL0     H73676   9.805   8.733   6.054 -0.3917  2.7231  0.0071
  546MOL0     H73677   9.857   8.817   5.910 -4.1110  3.3539  1.7222
  546MOL0     H73678   9.623   8.823   5.929 -1.1348  0.3692  0.1021
  546MOL0     H73679   9.660   8.742   5.784 -1.3710 -0.2042 -0.0421
  546MOL0     H73680   9.615   8.519   5.876 -2.5341 -3.2740  2.7332
  546MOL0     H73681   9.478   8.624   5.868  1.3167 -1.8776 -3.0060
  546MOL0     H73682   9.635   8.575   6.131 -0.7533 -1.6595  1.3289
  546MOL0     H73683   9.498   8.677   6.105 -1.2667 -0.3935  1.6453
  546MOL0     H73684   9.419   8.514   6.208  2.5316  3.2605  0.3612
  546MOL0     H73685   9.512   8.386   6.113 -0.1644 -1.3575  0.2000
  546MOL0     H73686   9.341   8.410   5.930  0.1146 -1.1573  0.7988
  546MOL0     H73687   9.269   8.377   6.068  1.0260 -2.3759 -4.0341
  546MOL0     H73688   9.293   8.685   5.992  1.9645 -0.0203  0.6545
  546MOL0     H73689   9.197   8.623   6.122 -1.0410  2.4163 -1.6648
  546MOL0     H73690   9.149   8.493   5.860 -1.4942  0.7191 -0.5943
  546MOL0     H73691   9.093   8.661   5.879  0.0221 -0.3070 -0.3876
  546MOL0     H73692   9.980   8.546   6.147 -1.5299  3.6730  0.1014
  546MOL0     H73693  10.222   8.519   6.198  1.1059  0.2818 -0.3363
  546MOL0     H73694  10.697   8.872   5.930 -0.2187  0.2058  0.3449
  546MOL0     H73695  10.926   8.821   5.906 -0.2938  0.2048  1.2388
  546MOL0     H73696  11.175   8.329   5.971 -0.2534 -1.8616 -1.2121
  546MOL0     H73697  11.058   8.313   5.753 -1.0967  3.3465 -0.2718
  546MOL0     H73698  10.824   8.248   5.466  3.0300 -1.4818  0.3704
  546MOL0     H73699  10.752   8.224   5.238  0.9909 -0.7854  0.0769
  546MOL0     H73700  10.596   7.882   4.982 -2.0840  1.8454 -0.1547
  546MOL0     H73701  10.617   7.785   5.132 -2.5376 -0.1490 -1.0342
  546MOL0     H73702  10.427   7.894   5.237  1.5552  1.8314  0.4035
  546MOL0     H73703  10.390   7.795   5.081  0.1866  1.3879 -2.4239
  546MOL0     H73704  10.299   7.958   4.969  1.6225 -0.1173 -1.0356
  546MOL0     H73705  10.429   8.061   5.011  0.0232  0.2296 -0.3786
  546MOL0     H73706  10.288   8.045   5.261  0.6214  3.3584  1.0272
  546MOL0     H73707  10.167   8.010   5.140 -0.0086  0.6483 -0.0373
  546MOL0     H73708  10.204   8.436   5.084 -0.4216  0.8300  4.1543
  546MOL0     H73709  10.601   7.826   5.343  0.3212 -0.7343  1.7350
  546MOL0     H73710  10.677   7.850   5.552  2.2229 -1.6953 -1.8036
  547MOL0     O73711   3.478   1.275   9.924  0.3420  0.6534  0.0550
  547MOL0     C73712   3.365   1.231   9.886 -0.9349 -0.2590 -0.2091
  547MOL0     O73713   3.331   1.205   9.759  0.7090  0.0078 -0.1463
  547MOL0     C73714   3.404   1.244   9.652  0.1251 -0.2926  0.7161
  547MOL0     C73715   3.396   1.167   9.537  0.4650  0.0102  1.1618
  547MOL0     C73716   3.448   1.203   9.415 -0.1381  0.7151 -0.5539
  547MOL0     C73717   3.521   1.315   9.394 -0.4452  0.2533 -0.0047
  547MOL0     O73718   3.576   1.341   9.273 -0.2174 -0.7140 -0.1956
  547MOL0     C73719   3.704   1.269   9.236  0.3888  1.1762  0.1598
  547MOL0     C73720   3.751   1.309   9.102  0.5451  0.1455  0.0866
  547MOL0     C73721   3.646   1.265   9.006  0.4046 -0.0136 -0.2288
  547MOL0     C73722   3.661   1.302   8.861  0.8942  0.0077  0.1661
  547MOL0     C73723   3.550   1.247   8.767 -0.5610 -1.0322 -0.3735
  547MOL0     C73724   3.544   1.090   8.761  0.6082 -0.8094  0.2441
  547MOL0     C73725   3.673   1.044   8.689  0.4932  0.9833  0.1529
  547MOL0     C73726   3.727   0.900   8.723  1.0291 -0.9162  0.7843
  547MOL0     N73727   3.746   0.884   8.865 -0.0336 -0.6300 -0.4106
  547MOL0     C73728   3.840   0.947   8.950  0.5438  0.2855  0.6805
  547MOL0     C73729   3.837   0.884   9.071 -0.2649  0.3950  0.6035
  547MOL0     C73730   3.905   0.897   9.206 -0.4864  0.4721 -0.0831
  547MOL0     C73731   3.994   1.021   9.209  0.2068 -0.5737 -0.0060
  547MOL0     C73732   4.074   1.026   9.341 -0.2271  0.5981 -0.9444
  547MOL0     C73733   4.165   1.145   9.360  0.2141 -0.0459  0.1875
  547MOL0     O73734   4.098   1.272   9.338  0.2351  0.1472 -0.1219
  547MOL0     C73735   4.024   1.324   9.448  0.1056  0.1317 -0.1092
  547MOL0     C73736   3.959   1.435   9.411 -0.1103  0.5047  0.9623
  547MOL0     C73737   3.884   1.513   9.498 -1.2276  0.5873 -0.7627
  547MOL0     C73738   3.827   1.634   9.442  0.6357  0.1280 -0.1803
  547MOL0     C73739   3.867   1.459   9.630  0.1496 -0.0957 -0.5490
  547MOL0     C73740   3.780   1.530   9.736 -2.0352  0.9823  0.6756
  547MOL0     O73741   3.830   1.518   9.860 -0.1283 -0.5740 -0.3454
  547MOL0     C73742   3.776   1.598   9.956  0.1287 -0.6598 -0.3854
  547MOL0     C73743   3.669   1.545  10.035 -0.0956 -0.3712 -0.8933
  547MOL0     C73744   3.600   1.636  10.119  0.1365  0.2531 -0.1765
  547MOL0     C73745   3.633   1.768  10.130  0.0134 -0.1099  0.9507
  547MOL0     O73746   3.561   1.853  10.201  0.2966  0.0826 -0.1344
  547MOL0     C73747   3.423   1.807  10.227  1.5746 -0.6881  0.6388
  547MOL0     C73748   3.334   1.917  10.265  0.6201 -0.4055 -0.8146
  547MOL0     C73749   3.310   2.001  10.139  0.6614 -0.8002  0.5270
  547MOL0     C73750   3.213   2.111  10.153  0.4860 -0.5233  0.1365
  547MOL0     C73751   3.157   2.155  10.023 -0.6866 -0.1882  0.7854
  547MOL0     C73752   3.026   2.234  10.031 -0.5258 -0.9633 -0.0263
  547MOL0     C73753   2.992   2.316   9.902  0.0339  0.2195  0.1802
  547MOL0     C73754   2.845   2.342   9.891  0.9600  0.1508 -0.5537
  547MOL0    Cl73755   2.793   2.439  10.037  0.2589  0.4546  0.0505
  547MOL0     C73756   3.745   1.808  10.068  0.5059  0.1850 -0.0381
  547MOL0     C73757   3.821   1.722   9.988 -0.0654  0.6211  0.8166
  547MOL0     O73758   3.681   1.594   9.703  0.5276  0.3744 -0.6386
  547MOL0     C73759   3.940   1.349   9.673 -0.7158  0.2779 -0.1686
  547MOL0     C73760   4.012   1.274   9.575 -0.5046  0.1471  0.8277
  547MOL0     N73761   3.757   0.773   9.050 -0.6085  0.3488  0.3603
  547MOL0     N73762   3.698   0.779   8.933 -0.2572  0.1495 -0.4258
  547MOL0     C73763   3.540   1.391   9.505 -0.4780 -0.4790  0.2008
  547MOL0     C73764   3.481   1.364   9.637 -0.0569 -0.7397  0.4208
  547MOL0     C73765   3.277   1.187   9.991  0.7876  0.5008  0.3810
  547MOL0     C73766   3.164   1.105   9.949  0.2562  0.0405  0.1033
  547MOL0     C73767   3.072   1.052  10.027 -0.3590 -0.4368 -0.2159
  547MOL0     C73768   3.080   1.082  10.159  0.1568  0.0521 -1.1258
  547MOL0     O73769   2.990   1.059  10.258  0.3865 -0.5693 -0.0646
  547MOL0     C73770   2.851   1.023  10.214 -0.7222 -0.1312  0.2221
  547MOL0     C73771   2.759   1.047  10.344 -0.4609 -0.0058  0.4869
  547MOL0     C73772   2.619   0.977  10.324  0.6280  0.4106 -0.0136
  547MOL0     C73773   2.623   0.831  10.362 -0.2939  0.2335  0.9513
  547MOL0     C73774   2.490   0.778  10.326  1.5947 -0.1197 -0.5956
  547MOL0     C73775   2.382   0.721  10.293 -0.4391 -0.1127  0.0691
  547MOL0     C73776   3.188   1.147  10.212 -0.1687  0.0305  0.0830
  547MOL0     C73777   3.293   1.197  10.129  0.3223  1.4451 -0.5356
  547MOL0     H73778   3.341   1.074   9.545 -0.8033  0.6368  0.0153
  547MOL0     H73779   3.451   1.129   9.336 -2.3236  0.4329 -0.4273
  547MOL0     H73780   3.785   1.276   9.309  2.8506 -4.8077 -1.4479
  547MOL0     H73781   3.681   1.162   9.236  2.0975  0.7864 -0.2040
  547MOL0     H73782   3.751   1.418   9.097  2.2190  0.2162  0.9614
  547MOL0     H73783   3.847   1.262   9.080  1.1123  1.6883 -0.8699
  547MOL0     H73784   3.642   1.155   9.005  0.1378 -0.0202  0.5847
  547MOL0     H73785   3.545   1.288   9.042  1.2294 -1.8295  3.7402
  547MOL0     H73786   3.661   1.411   8.853 -1.4971 -0.0643 -1.7606
  547MOL0     H73787   3.760   1.270   8.825  0.2420 -0.2330 -1.5313
  547MOL0     H73788   3.453   1.293   8.791 -0.1288  0.3885 -1.2339
  547MOL0     H73789   3.583   1.279   8.668  2.8623 -1.9063  0.3507
  547MOL0     H73790   3.530   1.041   8.857 -1.0757 -1.0427 -0.1042
  547MOL0     H73791   3.453   1.071   8.704 -0.3066  1.4365  0.8180
  547MOL0     H73792   3.664   1.057   8.581  0.6891 -0.4126 -0.0538
  547MOL0     H73793   3.750   1.114   8.723 -1.3088  1.5573  3.4789
  547MOL0     H73794   3.816   0.869   8.668  1.2712 -2.8165  2.1147
  547MOL0     H73795   3.645   0.837   8.685  0.4840  1.0508 -1.5552
  547MOL0     H73796   3.902   1.027   8.912  0.9940  0.2749  1.3796
  547MOL0     H73797   3.838   0.906   9.292 -0.5387 -0.7534  0.0224
  547MOL0     H73798   3.957   0.802   9.222  2.1039  1.5802 -1.2158
  547MOL0     H73799   3.927   1.108   9.207 -0.0103 -0.7523 -1.1397
  547MOL0     H73800   4.060   1.024   9.122  0.8021 -0.1873  0.4501
  547MOL0     H73801   4.134   0.934   9.347 -2.2198 -0.6600  0.8911
  547MOL0     H73802   4.013   1.018   9.432  2.1058 -0.3575  0.6294
  547MOL0     H73803   4.232   1.130   9.274 -2.2620  0.4985 -1.9651
  547MOL0     H73804   4.222   1.130   9.452  0.5473 -0.9659 -0.1490
  547MOL0     H73805   3.976   1.492   9.321 -2.8872  0.1284  0.1256
  547MOL0     H73806   3.765   1.603   9.358  1.5631 -1.4525 -0.3256
  547MOL0     H73807   3.772   1.701   9.509 -0.8567  0.3261 -1.5370
  547MOL0     H73808   3.900   1.702   9.398 -3.5919  3.5756 -2.5469
  547MOL0     H73809   3.633   1.443  10.024  0.6717 -0.5048 -2.5883
  547MOL0     H73810   3.507   1.592  10.153 -0.6348 -0.4638 -2.9510
  547MOL0     H73811   3.385   1.756  10.138  2.2114 -0.6195  0.3218
  547MOL0     H73812   3.409   1.734  10.307 -2.2713  1.4305  2.2151
  547MOL0     H73813   3.239   1.883  10.309  0.0162  2.5500  0.3772
  547MOL0     H73814   3.378   1.976  10.346 -0.2266  0.1649 -0.7544
  547MOL0     H73815   3.269   1.934  10.063 -0.0407 -0.2152  0.3845
  547MOL0     H73816   3.401   2.048  10.101 -0.7955  0.4710 -1.6006
  547MOL0     H73817   3.128   2.082  10.216 -0.2487  4.9714  2.2476
  547MOL0     H73818   3.254   2.202  10.199 -1.1123  0.3185 -0.0383
  547MOL0     H73819   3.127   2.064   9.971  0.1816  0.7371 -1.4447
  547MOL0     H73820   3.233   2.208   9.965 -0.5997 -1.9436 -0.7765
  547MOL0     H73821   2.943   2.165  10.050 -0.4986 -0.6275  1.4466
  547MOL0     H73822   3.029   2.307  10.113 -4.3379 -0.5895 -0.0563
  547MOL0     H73823   3.028   2.257   9.817  0.5120 -0.3593  0.7688
  547MOL0     H73824   3.042   2.413   9.897 -2.9986  1.9521  0.6510
  547MOL0     H73825   2.788   2.249   9.884 -1.9953  1.8214  0.0335
  547MOL0     H73826   2.819   2.403   9.804 -1.2375 -0.4563 -0.3730
  547MOL0     H73827   3.777   1.910  10.088 -2.6786  0.7927  2.8808
  547MOL0     H73828   3.903   1.764   9.932  0.1043 -1.5145 -0.6569
  547MOL0     H73829   3.915   1.311   9.771 -1.7852 -0.4131 -0.6930
  547MOL0     H73830   4.073   1.187   9.600 -0.1979  0.6672  1.9552
  547MOL0     H73831   3.592   1.485   9.493 -0.8701 -0.2806  0.0305
  547MOL0     H73832   3.494   1.437   9.716  1.3101 -0.9376  0.4109
  547MOL0     H73833   3.136   1.085   9.846  0.9911 -0.2718 -0.0411
  547MOL0     H73834   2.989   0.993   9.988  0.8911 -1.7748 -0.9554
  547MOL0     H73835   2.805   1.080  10.132 -1.6419 -1.5350 -0.2845
  547MOL0     H73836   2.835   0.915  10.200 -1.5910 -0.2700  1.9377
  547MOL0     H73837   2.739   1.154  10.358 -1.9676 -0.1990 -0.0040
  547MOL0     H73838   2.813   1.004  10.428 -0.9797  0.3602  1.0117
  547MOL0     H73839   2.590   1.003  10.222  0.2569  0.0098 -0.0118
  547MOL0     H73840   2.552   1.028  10.394 -0.8710 -0.7980 -0.5386
  547MOL0     H73841   2.642   0.813  10.469 -1.9599  0.1319  1.2522
  547MOL0     H73842   2.695   0.769  10.307 -3.1536 -2.4304 -0.1061
  547MOL0     H73843   2.299   0.675  10.244  0.5797 -0.9579 -0.9126
  547MOL0     H73844   3.200   1.162  10.319  3.1798  0.8596 -0.2876
  547MOL0     H73845   3.386   1.227  10.176  1.2672 -2.4989  0.4404
  548MOL0     O73846   8.856   1.648   9.349 -0.2731 -1.9665 -0.2023
  548MOL0     C73847   8.776   1.552   9.365 -0.3188  0.0682 -0.3852
  548MOL0     O73848   8.801   1.417   9.347 -0.2752 -0.7436  0.2507
  548MOL0     C73849   8.923   1.367   9.293 -1.2405 -1.3819 -0.4339
  548MOL0     C73850   9.051   1.434   9.310  0.7281 -0.1845 -0.0171
  548MOL0     C73851   9.171   1.375   9.258  0.1976  0.0038  0.0962
  548MOL0     C73852   9.161   1.273   9.166  0.5012 -0.7306  0.2633
  548MOL0     O73853   9.279   1.240   9.100  0.3724 -0.0362 -0.8663
  548MOL0     C73854   9.332   1.125   9.166  0.0474 -0.0537  0.1828
  548MOL0     C73855   9.480   1.125   9.149 -0.5480 -0.4347  0.2129
  548MOL0     C73856   9.555   1.045   9.258 -0.1677  0.2788  0.1202
  548MOL0     C73857   9.558   0.902   9.209 -0.2592  0.0147 -0.1569
  548MOL0     C73858   9.578   0.807   9.325 -0.0366  1.3912 -0.2870
  548MOL0     C73859   9.591   0.660   9.284 -0.1713 -0.4984  0.1415
  548MOL0     C73860   9.734   0.626   9.226  0.2622 -0.4834 -0.0647
  548MOL0     C73861   9.748   0.478   9.205 -0.0645  0.5378 -0.2449
  548MOL0     N73862   9.887   0.447   9.160  0.2659 -1.0411  0.5673
  548MOL0     C73863   9.999   0.486   9.225  0.4973  0.4392  0.2235
  548MOL0     C73864  10.103   0.409   9.176 -0.0144 -0.5471  0.2852
  548MOL0     C73865  10.236   0.389   9.240  0.4374 -0.1619  0.2445
  548MOL0     C73866  10.349   0.431   9.157  0.2316  0.0759  0.6036
  548MOL0     C73867  10.485   0.411   9.207  0.1954  0.6102  0.0594
  548MOL0     C73868  10.535   0.471   9.337 -0.6722  0.0750 -0.1073
  548MOL0     O73869  10.465   0.392   9.430 -0.1625 -0.1446  0.7683
  548MOL0     C73870  10.535   0.286   9.476  0.5264 -0.2783  0.2988
  548MOL0     C73871  10.666   0.292   9.518  0.1426  0.3947 -0.2862
  548MOL0     C73872  10.736   0.191   9.569 -0.5676  0.8975 -0.8902
  548MOL0     C73873  10.885   0.207   9.616 -0.3743  0.0845  0.8544
  548MOL0     C73874  10.661   0.065   9.583 -0.7615  0.8595  0.6687
  548MOL0     C73875  10.697  -0.060   9.667 -0.1497  0.8438  0.3445
  548MOL0     O73876  10.822  -0.081   9.712 -0.1750  0.2367  0.0259
  548MOL0     C73877  10.844  -0.187   9.799  0.5889 -0.7100 -0.1589
  548MOL0     C73878  10.857  -0.164   9.936 -0.2605 -0.5670 -0.7130
  548MOL0     C73879  10.902  -0.260  10.031  0.7628 -0.2321  0.0674
  548MOL0     C73880  10.925  -0.394   9.980 -0.3059  0.7140 -0.1399
  548MOL0     O73881  10.999  -0.478  10.056  0.4519  0.5509  0.7160
  548MOL0     C73882  11.038  -0.602   9.998  0.4976 -0.0433  0.9647
  548MOL0     C73883  11.109  -0.679  10.110 -0.2986 -0.2389 -0.1288
  548MOL0     C73884  11.256  -0.644  10.144  0.2709 -0.6593 -0.4327
  548MOL0     C73885  11.302  -0.741  10.253 -0.1760 -0.1363  0.2245
  548MOL0     C73886  11.443  -0.698  10.295  0.0627 -0.9698 -0.4256
  548MOL0     C73887  11.499  -0.799  10.402 -0.0429 -0.1768  0.2864
  548MOL0     C73888  11.653  -0.779  10.425  1.2994  0.4246 -0.4774
  548MOL0     C73889  11.698  -0.640  10.451  0.4355  0.0352  0.0384
  548MOL0    Cl73890  11.871  -0.654  10.499  0.0644 -0.3467  0.0795
  548MOL0     C73891  10.882  -0.421   9.848 -1.0002 -0.0405  0.7785
  548MOL0     C73892  10.841  -0.317   9.756  0.0881  0.3780  0.2155
  548MOL0     O73893  10.603  -0.124   9.701 -0.1516 -0.7314 -0.4468
  548MOL0     C73894  10.543   0.044   9.511  0.9830 -0.1254  0.0888
  548MOL0     C73895  10.479   0.160   9.471 -0.0078 -0.2442  0.0673
  548MOL0     N73896  10.049   0.330   9.072  1.3505 -0.0186 -0.5235
  548MOL0     N73897   9.920   0.344   9.073  0.4884  0.8737  0.6829
  548MOL0     C73898   9.038   1.216   9.139 -0.2636 -0.8239  0.6175
  548MOL0     C73899   8.925   1.253   9.213  0.4430 -0.2752  0.6447
  548MOL0     C73900   8.635   1.581   9.421  0.4298 -0.5071 -0.5552
  548MOL0     C73901   8.540   1.476   9.433 -0.0788 -0.3060 -0.1155
  548MOL0     C73902   8.408   1.502   9.483 -0.0905  0.7058 -0.6674
  548MOL0     C73903   8.363   1.626   9.515 -0.4412  0.4708  0.4474
  548MOL0     O73904   8.228   1.657   9.535  0.7474  0.5696 -0.1162
  548MOL0     C73905   8.188   1.734   9.637 -0.2630 -0.1389 -0.0942
  548MOL0     C73906   8.102   1.849   9.582  0.6596 -0.8943  0.1408
  548MOL0     C73907   8.189   1.943   9.484  0.7229 -0.5095 -0.2439
  548MOL0     C73908   8.101   2.049   9.406  0.2733  0.1272  0.0889
  548MOL0     C73909   8.164   2.108   9.293  0.4697 -0.7576  0.6426
  548MOL0     C73910   8.228   2.170   9.213 -0.6383  0.0628 -0.0114
  548MOL0     C73911   8.460   1.726   9.501 -0.5339  0.2563  0.8624
  548MOL0     C73912   8.596   1.703   9.468 -0.3151 -0.0238  0.1293
  548MOL0     H73913   9.053   1.528   9.365 -0.1400  0.9092 -1.7378
  548MOL0     H73914   9.261   1.434   9.267 -0.1437  0.5123  0.2275
  548MOL0     H73915   9.305   1.134   9.272  0.4239  3.0861  0.1267
  548MOL0     H73916   9.289   1.040   9.113 -0.3596 -0.3662  1.0023
  548MOL0     H73917   9.522   1.075   9.061  0.9668  0.5960  0.3252
  548MOL0     H73918   9.518   1.227   9.139  2.5725 -1.5421 -0.2973
  548MOL0     H73919   9.659   1.074   9.268  0.6956 -2.1645 -0.9961
  548MOL0     H73920   9.510   1.052   9.358  1.5518 -0.2610  0.9726
  548MOL0     H73921   9.473   0.875   9.146 -0.1072 -0.9355  0.0326
  548MOL0     H73922   9.636   0.887   9.134  0.9560  1.9523  0.6355
  548MOL0     H73923   9.657   0.837   9.394  1.0929  1.8989 -1.7631
  548MOL0     H73924   9.482   0.812   9.379 -1.3522 -1.2815 -2.1374
  548MOL0     H73925   9.583   0.605   9.379 -1.9715  0.9105  0.8674
  548MOL0     H73926   9.512   0.620   9.220  2.3120 -4.7797 -0.6559
  548MOL0     H73927   9.758   0.673   9.131  3.5469  2.1164  1.8363
  548MOL0     H73928   9.812   0.664   9.292  2.2914 -2.2353 -1.3175
  548MOL0     H73929   9.688   0.456   9.115  0.8002 -0.5603 -0.5765
  548MOL0     H73930   9.712   0.408   9.281  0.8109 -1.3722 -1.5002
  548MOL0     H73931  10.006   0.543   9.317 -2.7390  3.4093 -1.1470
  548MOL0     H73932  10.250   0.449   9.331 -0.7168 -0.5891  0.7128
  548MOL0     H73933  10.245   0.284   9.267 -3.4851 -0.5577  0.5544
  548MOL0     H73934  10.343   0.535   9.124  1.8308  0.4590  1.4314
  548MOL0     H73935  10.345   0.377   9.062 -2.7595  0.2502  0.5156
  548MOL0     H73936  10.552   0.444   9.127  1.6033 -1.0578  0.4948
  548MOL0     H73937  10.495   0.303   9.218 -0.5277  0.6502  1.2368
  548MOL0     H73938  10.502   0.574   9.353 -1.7442 -0.1561 -0.7065
  548MOL0     H73939  10.644   0.474   9.341 -0.3980 -4.1948  1.4787
  548MOL0     H73940  10.723   0.384   9.510 -1.0628  1.1472 -0.5820
  548MOL0     H73941  10.915   0.298   9.562  2.2578 -1.0479  0.2398
  548MOL0     H73942  10.870   0.239   9.720 -3.4039 -0.2794  0.6126
  548MOL0     H73943  10.947   0.120   9.593  2.3930  2.5100 -1.5896
  548MOL0     H73944  10.838  -0.059   9.953 -2.2695 -0.9694 -0.1920
  548MOL0     H73945  10.923  -0.227  10.132 -0.9509 -1.7225  0.9644
  548MOL0     H73946  10.942  -0.653   9.987  0.9212 -0.9288  1.2828
  548MOL0     H73947  11.087  -0.584   9.902 -0.4636  1.2769  0.6959
  548MOL0     H73948  11.047  -0.684  10.200  1.1023 -2.6982  0.7846
  548MOL0     H73949  11.114  -0.783  10.075 -0.7193 -0.3296  0.0729
  548MOL0     H73950  11.267  -0.535  10.157 -0.7764 -0.6118  0.2018
  548MOL0     H73951  11.319  -0.675  10.060 -2.1552 -0.8731 -2.2709
  548MOL0     H73952  11.231  -0.732  10.336 -1.0381 -1.2918 -0.3512
  548MOL0     H73953  11.303  -0.846  10.223 -2.7013 -0.7810  1.9995
  548MOL0     H73954  11.431  -0.595  10.330 -1.2007 -1.2945  0.1303
  548MOL0     H73955  11.512  -0.700  10.210  2.1295  0.3113  1.1267
  548MOL0     H73956  11.447  -0.797  10.498  0.9504  1.9795  0.8330
  548MOL0     H73957  11.495  -0.900  10.359 -2.8230  0.5133 -1.3316
  548MOL0     H73958  11.696  -0.824  10.335 -0.0300  1.1994 -1.5492
  548MOL0     H73959  11.670  -0.835  10.518 -2.1430 -0.4610 -0.2470
  548MOL0     H73960  11.637  -0.592  10.528 -1.6406 -0.6186 -1.1039
  548MOL0     H73961  11.689  -0.573  10.365  1.6709  1.7550  1.1843
  548MOL0     H73962  10.899  -0.523   9.817  1.4460  0.9231 -1.4048
  548MOL0     H73963  10.813  -0.338   9.653  3.5671 -1.2486 -0.5408
  548MOL0     H73964  10.486  -0.048   9.502  1.2384 -0.1073 -2.1978
  548MOL0     H73965  10.376   0.154   9.436  0.2526 -0.4547 -0.6751
  548MOL0     H73966   9.031   1.138   9.064  2.5321 -0.7669  0.1955
  548MOL0     H73967   8.833   1.196   9.210 -0.0981  0.4350  2.4031
  548MOL0     H73968   8.557   1.377   9.391  1.7944  1.2960 -3.5170
  548MOL0     H73969   8.345   1.415   9.495  0.6331  0.3202  0.5216
  548MOL0     H73970   8.137   1.672   9.711 -3.3659 -1.4664 -3.0523
  548MOL0     H73971   8.275   1.784   9.680  0.6427 -1.5880 -0.1576
  548MOL0     H73972   8.061   1.918   9.657  1.0858  1.2598 -1.5309
  548MOL0     H73973   8.024   1.802   9.522  1.2727 -0.8397 -0.7061
  548MOL0     H73974   8.210   1.866   9.409 -0.4139 -1.4503  0.3774
  548MOL0     H73975   8.275   1.989   9.534 -1.4850  2.3573  1.1893
  548MOL0     H73976   8.068   2.140   9.458  2.0477  1.9538 -1.8062
  548MOL0     H73977   8.016   1.988   9.375  1.3519  0.5526 -4.4243
  548MOL0     H73978   8.295   2.224   9.149 -0.2448 -2.5012 -1.8937
  548MOL0     H73979   8.434   1.831   9.508 -1.9965 -0.1691  2.3968
  548MOL0     H73980   8.677   1.775   9.459 -0.7638  0.3046 -1.5366
  549MOL0     O73981   2.554   5.283   6.178 -0.1723 -0.1504 -0.2159
  549MOL0     C73982   2.442   5.265   6.223  0.3397 -0.0826  0.0214
  549MOL0     O73983   2.409   5.285   6.353  0.0717  0.3043 -0.2010
  549MOL0     C73984   2.509   5.312   6.443 -0.5197 -0.2008  0.4399
  549MOL0     C73985   2.503   5.426   6.522 -0.0392 -0.8446 -0.4384
  549MOL0     C73986   2.605   5.455   6.614 -0.2375  0.4815 -0.6677
  549MOL0     C73987   2.716   5.367   6.633  0.1655 -1.0197 -0.4149
  549MOL0     O73988   2.806   5.407   6.734 -0.3254  0.2534 -0.0979
  549MOL0     C73989   2.924   5.328   6.731 -0.2393  0.2115 -0.0997
  549MOL0     C73990   3.023   5.419   6.798 -0.3859  0.6726 -1.1421
  549MOL0     C73991   3.159   5.350   6.813 -0.4149 -0.1094 -0.1718
  549MOL0     C73992   3.277   5.457   6.825  0.6908 -0.3101  0.2835
  549MOL0     C73993   3.388   5.406   6.920  0.3976  0.1639  0.1179
  549MOL0     C73994   3.490   5.510   6.931 -0.2378 -0.2982  0.2547
  549MOL0     C73995   3.619   5.469   7.012 -0.4439 -0.6642 -0.8026
  549MOL0     C73996   3.598   5.476   7.162 -0.3951 -0.5567 -0.0513
  549MOL0     N73997   3.728   5.506   7.241  0.7488 -0.3964  0.0717
  549MOL0     C73998   3.761   5.634   7.291  0.8037  0.1270 -0.4601
  549MOL0     C73999   3.882   5.618   7.343 -0.3174  0.3709  0.0230
  549MOL0     C74000   3.979   5.709   7.417  0.2631  0.0016  0.6539
  549MOL0     C74001   4.118   5.706   7.350  0.4721  0.5172 -1.1806
  549MOL0     C74002   4.210   5.601   7.412  0.6318  0.8348 -0.4816
  549MOL0     C74003   4.265   5.639   7.549 -0.3691 -0.3818 -0.9670
  549MOL0     O74004   4.347   5.533   7.597  0.2654  0.1767  0.3380
  549MOL0     C74005   4.454   5.576   7.676  0.1384  0.0919  0.0033
  549MOL0     C74006   4.448   5.671   7.772  0.1363  0.4763  0.3153
  549MOL0     C74007   4.549   5.711   7.862  0.1285 -0.8923  0.0061
  549MOL0     C74008   4.515   5.814   7.966 -1.2734 -0.6126  0.5670
  549MOL0     C74009   4.670   5.637   7.854  0.6079  0.0889 -0.7923
  549MOL0     C74010   4.786   5.655   7.945 -0.2948 -0.2122 -0.2681
  549MOL0     O74011   4.869   5.544   7.945 -0.0835  0.3080  0.0443
  549MOL0     C74012   4.972   5.534   8.037 -0.6121 -0.2332 -0.1602
  549MOL0     C74013   5.055   5.420   8.023  0.0922  0.0846 -0.3241
  549MOL0     C74014   5.168   5.391   8.103  0.7448  0.1889 -0.6718
  549MOL0     C74015   5.183   5.465   8.218  0.0507 -0.3964  0.3319
  549MOL0     O74016   5.271   5.426   8.315  0.4324 -0.4178 -0.5248
  549MOL0     C74017   5.414   5.404   8.288 -0.1603  0.4211  0.2340
  549MOL0     C74018   5.475   5.358   8.421  0.1511  0.8498  0.1300
  549MOL0     C74019   5.626   5.365   8.428  0.0696  0.0663  0.7696
  549MOL0     C74020   5.670   5.509   8.428  0.4344 -1.0805  0.5422
  549MOL0     C74021   5.818   5.515   8.467 -0.2009 -0.0553  0.3504
  549MOL0     C74022   5.891   5.490   8.335 -1.0563 -0.9482  0.1058
  549MOL0     C74023   6.052   5.488   8.342  0.4286 -0.3331  0.0002
  549MOL0     C74024   6.114   5.371   8.412  0.2412 -0.4831  0.3592
  549MOL0    Cl74025   6.038   5.220   8.375  0.3112 -0.2903  0.2578
  549MOL0     C74026   5.094   5.567   8.248 -0.2323  0.0334  0.1523
  549MOL0     C74027   4.994   5.604   8.158  0.6729  0.0101  0.2717
  549MOL0     O74028   4.808   5.768   7.996 -0.2499  0.0244  0.0401
  549MOL0     C74029   4.676   5.538   7.754 -0.2989  0.4944 -0.3140
  549MOL0     C74030   4.570   5.497   7.677  0.5213 -0.6802  1.2648
  549MOL0     N74031   3.917   5.487   7.333  0.6358 -0.1351 -0.2995
  549MOL0     N74032   3.834   5.423   7.267 -0.2091  0.1329 -0.4930
  549MOL0     C74033   2.718   5.249   6.558  0.1125  0.2100  0.6160
  549MOL0     C74034   2.623   5.229   6.464 -0.3169 -0.1765  1.1457
  549MOL0     C74035   2.342   5.214   6.127 -0.0762  0.5486 -0.6849
  549MOL0     C74036   2.218   5.158   6.170  0.6588  1.1862 -0.8533
  549MOL0     C74037   2.117   5.123   6.076  0.1761  0.5678  0.0095
  549MOL0     C74038   2.130   5.153   5.942 -0.0507  1.3974 -0.2515
  549MOL0     O74039   2.030   5.122   5.860  0.3269  0.1200 -0.0505
  549MOL0     C74040   2.041   5.161   5.722  0.6265 -0.6859  0.9905
  549MOL0     C74041   2.126   5.066   5.649 -0.5041  0.1798  0.3312
  549MOL0     C74042   2.096   5.078   5.501  0.7316  0.5242  0.3406
  549MOL0     C74043   1.993   4.971   5.462  0.1433  0.2562  0.4090
  549MOL0     C74044   1.939   4.994   5.328  0.0820  0.0519  0.8662
  549MOL0     C74045   1.877   5.015   5.226  0.6447  0.3970 -0.1385
  549MOL0     C74046   2.256   5.206   5.899  0.5128  0.2503  0.2452
  549MOL0     C74047   2.359   5.232   5.987  0.3904  0.9080  0.3710
  549MOL0     H74048   2.410   5.481   6.505 -0.8142 -1.2431  2.0997
  549MOL0     H74049   2.597   5.538   6.684 -2.4989  0.1763 -0.4841
  549MOL0     H74050   2.916   5.241   6.797 -1.4653  1.3617  1.3243
  549MOL0     H74051   2.960   5.296   6.633  2.2296  1.7772  0.2271
  549MOL0     H74052   3.032   5.513   6.744  1.3737 -0.3829 -2.8264
  549MOL0     H74053   2.994   5.431   6.903 -0.9744  1.4657 -1.3885
  549MOL0     H74054   3.155   5.288   6.903  3.6343 -0.2559  0.0895
  549MOL0     H74055   3.172   5.276   6.734 -0.7584 -0.4342  0.0731
  549MOL0     H74056   3.318   5.489   6.729  2.5428 -0.2719  1.0495
  549MOL0     H74057   3.244   5.546   6.880 -1.3470 -1.7424  1.5237
  549MOL0     H74058   3.355   5.376   7.020 -2.0604  0.3340 -0.5725
  549MOL0     H74059   3.439   5.323   6.871  0.4075 -0.5895  1.3584
  549MOL0     H74060   3.531   5.537   6.833 -0.4736  1.0934  0.5117
  549MOL0     H74061   3.455   5.602   6.979  0.0553 -0.0232 -0.0500
  549MOL0     H74062   3.637   5.363   6.993 -0.9414 -1.7684  3.6024
  549MOL0     H74063   3.697   5.534   6.973  0.5206 -1.7099 -0.6814
  549MOL0     H74064   3.563   5.376   7.189  0.4584 -0.7124  0.5244
  549MOL0     H74065   3.530   5.559   7.182 -3.1978 -1.9408 -3.0803
  549MOL0     H74066   3.697   5.721   7.296  2.6861  1.5573  0.0649
  549MOL0     H74067   3.944   5.813   7.413  1.9825  0.7506  2.7632
  549MOL0     H74068   3.988   5.696   7.525  0.4870  2.0214  0.9198
  549MOL0     H74069   4.169   5.802   7.362  1.5080 -0.2832  1.5003
  549MOL0     H74070   4.101   5.678   7.245 -3.9834  1.0643 -0.8201
  549MOL0     H74071   4.289   5.589   7.337  2.2064  1.1558  1.0593
  549MOL0     H74072   4.160   5.504   7.413  1.7291  0.2122 -1.8438
  549MOL0     H74073   4.187   5.657   7.624 -0.9780  0.3422 -1.7541
  549MOL0     H74074   4.315   5.737   7.540  2.1721 -0.9870  3.3138
  549MOL0     H74075   4.356   5.729   7.781 -0.5203  0.7305 -5.0483
  549MOL0     H74076   4.547   5.790   8.068 -3.2409 -3.1907  0.6726
  549MOL0     H74077   4.554   5.910   7.931 -1.1002 -1.0035 -0.3422
  549MOL0     H74078   4.407   5.824   7.979 -1.3806 -1.3131  0.2300
  549MOL0     H74079   5.027   5.355   7.940  1.2983  0.5067 -1.0963
  549MOL0     H74080   5.226   5.300   8.087  3.0536  1.0742  1.8261
  549MOL0     H74081   5.418   5.336   8.202  0.2708 -0.9744  1.3255
  549MOL0     H74082   5.463   5.494   8.250  0.3492 -0.1335 -0.4684
  549MOL0     H74083   5.431   5.410   8.506  2.0560  4.7568 -1.0188
  549MOL0     H74084   5.441   5.256   8.441  2.9079  0.5625  5.2252
  549MOL0     H74085   5.663   5.316   8.337  1.0067  2.4617 -0.2021
  549MOL0     H74086   5.665   5.315   8.517 -0.5724 -0.8417  0.5609
  549MOL0     H74087   5.649   5.554   8.331  1.2791  1.0334  1.2632
  549MOL0     H74088   5.609   5.560   8.504 -1.1053  0.6031 -1.6992
  549MOL0     H74089   5.853   5.436   8.534  4.5967 -1.5615 -3.3986
  549MOL0     H74090   5.843   5.619   8.489  0.2955  0.1204 -0.9690
  549MOL0     H74091   5.856   5.395   8.293 -0.0304 -1.0298 -0.6161
  549MOL0     H74092   5.867   5.574   8.269 -0.6442 -1.5758 -0.8697
  549MOL0     H74093   6.092   5.585   8.374 -2.3632  1.3210 -1.1642
  549MOL0     H74094   6.086   5.476   8.239  0.3555  0.4294 -0.1173
  549MOL0     H74095   6.120   5.402   8.517 -0.4520  0.0729  0.2464
  549MOL0     H74096   6.217   5.351   8.382 -0.3091 -2.5332 -0.3240
  549MOL0     H74097   5.111   5.611   8.346  0.4978  0.7125 -0.2674
  549MOL0     H74098   4.929   5.686   8.188 -1.4307 -1.5898  0.2931
  549MOL0     H74099   4.766   5.482   7.732  2.1285  2.8546  2.7418
  549MOL0     H74100   4.577   5.414   7.607  0.1287 -0.3374  0.8108
  549MOL0     H74101   2.800   5.181   6.578  1.3530  1.4859  0.0598
  549MOL0     H74102   2.619   5.140   6.401 -0.1131  1.3234 -1.0887
  549MOL0     H74103   2.198   5.139   6.275  0.5095  2.5288 -0.6192
  549MOL0     H74104   2.025   5.077   6.110  1.1521  0.0727  2.2151
  549MOL0     H74105   1.943   5.162   5.673  2.3951 -0.8888 -2.9098
  549MOL0     H74106   2.082   5.262   5.716 -3.3004  1.0170 -0.5175
  549MOL0     H74107   2.105   4.967   5.689 -0.3212  1.1365  2.9866
  549MOL0     H74108   2.231   5.091   5.662 -0.8609  2.2870 -0.4277
  549MOL0     H74109   2.182   5.056   5.436 -0.3611 -3.0812 -0.1068
  549MOL0     H74110   2.052   5.177   5.487 -0.4627  0.2969  2.1588
  549MOL0     H74111   1.906   4.960   5.527 -0.4838  0.2180 -0.4099
  549MOL0     H74112   2.047   4.878   5.482 -0.1233 -0.0879 -0.4210
  549MOL0     H74113   1.817   5.026   5.138  0.5355  0.5831 -0.0425
  549MOL0     H74114   2.275   5.246   5.800  0.7989  0.6142  0.4451
  549MOL0     H74115   2.440   5.293   5.947 -0.4631  2.6176  1.1378
  550MOL0     O74116   7.530   6.042   5.179  0.6535 -0.9651  0.3183
  550MOL0     C74117   7.623   6.028   5.097  0.2041 -0.0732 -0.4998
  550MOL0     O74118   7.602   6.026   4.959 -0.3605  1.0697 -0.3045
  550MOL0     C74119   7.475   6.050   4.914  0.1550  0.1856  0.0738
  550MOL0     C74120   7.416   5.945   4.850  0.5596 -0.0452 -0.9965
  550MOL0     C74121   7.291   5.956   4.792 -0.9079 -0.5376  0.0101
  550MOL0     C74122   7.233   6.081   4.785  0.0852 -0.5490  0.3696
  550MOL0     O74123   7.112   6.111   4.711 -0.1905  2.0643 -0.4633
  550MOL0     C74124   7.051   6.017   4.630 -0.0495  0.6423 -0.0186
  550MOL0     C74125   6.957   6.110   4.544 -0.4006 -0.3034 -1.0058
  550MOL0     C74126   6.873   6.026   4.453 -0.0829 -0.1782 -0.2825
  550MOL0     C74127   6.778   6.103   4.357 -0.6502  0.2221 -0.3021
  550MOL0     C74128   6.868   6.192   4.265  0.1952 -0.1557  0.5594
  550MOL0     C74129   6.776   6.293   4.199  0.1310  0.1098 -0.8006
  550MOL0     C74130   6.860   6.343   4.071  0.0598 -0.5097 -0.2382
  550MOL0     C74131   6.998   6.406   4.093 -0.3191  1.4933  0.9758
  550MOL0     N74132   7.008   6.496   4.204  0.3288  0.4734  0.3911
  550MOL0     C74133   7.085   6.486   4.319 -0.2337 -0.9012  0.0880
  550MOL0     C74134   7.053   6.596   4.391  0.7878 -0.4414 -0.0801
  550MOL0     C74135   7.100   6.640   4.523  0.6005  0.1926 -0.5182
  550MOL0     C74136   7.077   6.540   4.628 -1.1695  0.1896  0.1755
  550MOL0     C74137   6.951   6.461   4.623  1.1425 -0.3587  0.4122
  550MOL0     C74138   6.911   6.407   4.760 -0.2806 -0.7067  0.3488
  550MOL0     O74139   6.864   6.509   4.854 -0.4563  0.8691 -0.7801
  550MOL0     C74140   6.850   6.452   4.974 -1.0388  0.4240  0.2744
  550MOL0     C74141   6.726   6.399   4.995  0.2622 -0.2808  1.0804
  550MOL0     C74142   6.688   6.330   5.105  0.0983 -0.2766 -0.1101
  550MOL0     C74143   6.550   6.279   5.108  0.1387  0.8955 -0.3785
  550MOL0     C74144   6.785   6.324   5.214  0.4197 -0.0285  0.0830
  550MOL0     C74145   6.752   6.271   5.350  0.0903 -0.7005  0.0250
  550MOL0     O74146   6.802   6.340   5.464  0.2001 -0.4571  0.1855
  550MOL0     C74147   6.777   6.296   5.593 -0.5981  0.6503  0.7400
  550MOL0     C74148   6.868   6.310   5.694 -1.8041  0.2634 -0.4187
  550MOL0     C74149   6.858   6.253   5.823  0.1114 -1.0575 -0.8411
  550MOL0     C74150   6.737   6.192   5.857 -0.2682  0.1160  0.3097
  550MOL0     O74151   6.711   6.116   5.972 -0.3153 -0.0181  0.5261
  550MOL0     C74152   6.748   6.173   6.105  0.2115 -0.5837  0.7323
  550MOL0     C74153   6.682   6.306   6.145 -0.2205  0.4202 -0.3049
  550MOL0     C74154   6.539   6.277   6.184 -0.3658  0.9050  0.3457
  550MOL0     C74155   6.466   6.389   6.251 -0.4805 -1.0697  0.1509
  550MOL0     C74156   6.514   6.407   6.394  0.0716  1.4186 -0.5554
  550MOL0     C74157   6.466   6.553   6.442 -0.4203  1.4540 -0.5283
  550MOL0     C74158   6.318   6.554   6.493 -0.2300 -0.2186  0.9486
  550MOL0     C74159   6.274   6.691   6.542 -0.4102 -0.5180  0.7657
  550MOL0    Cl74160   6.413   6.791   6.607  0.1929  0.0329 -0.2027
  550MOL0     C74161   6.633   6.193   5.764 -0.2722  0.2855  0.0765
  550MOL0     C74162   6.653   6.230   5.637  0.6087 -0.2763  0.9497
  550MOL0     O74163   6.692   6.168   5.356  0.6703 -0.3717  0.1996
  550MOL0     C74164   6.900   6.411   5.199 -0.7884  1.3558 -0.7415
  550MOL0     C74165   6.934   6.469   5.080  0.2682  0.5999 -0.0776
  550MOL0     N74166   6.955   6.658   4.317 -0.2012  1.1779  1.0295
  550MOL0     N74167   6.930   6.609   4.199  0.2782 -0.9421 -0.4849
  550MOL0     C74168   7.287   6.191   4.849  0.2291  0.1630  0.7364
  550MOL0     C74169   7.416   6.170   4.915 -0.2051  0.5101 -0.3801
  550MOL0     C74170   7.760   6.025   5.127 -0.3810  0.5335  0.1079
  550MOL0     C74171   7.801   6.043   5.265  1.0896  1.0908  0.2913
  550MOL0     C74172   7.927   6.018   5.313  0.3288  0.3848 -0.7593
  550MOL0     C74173   8.024   5.988   5.217 -0.1276 -0.0075  0.3874
  550MOL0     O74174   8.158   5.995   5.253 -0.1983  0.3358  0.4713
  550MOL0     C74175   8.200   6.129   5.225  0.3130 -0.3102  0.2481
  550MOL0     C74176   8.329   6.152   5.290 -0.0460  0.0774 -0.2900
  550MOL0     C74177   8.389   6.288   5.283 -0.1364  0.0704  1.0386
  550MOL0     C74178   8.337   6.403   5.382 -0.6726 -0.2854  1.0631
  550MOL0     C74179   8.294   6.360   5.519  0.6706  0.2813  0.9461
  550MOL0     C74180   8.252   6.341   5.635 -0.0053 -0.8775 -0.2515
  550MOL0     C74181   7.992   5.965   5.081 -1.3884 -0.5138  0.6818
  550MOL0     C74182   7.862   5.990   5.035 -1.0167  0.8370 -0.8460
  550MOL0     H74183   7.476   5.855   4.849  1.3156  0.4385 -2.5119
  550MOL0     H74184   7.250   5.868   4.743 -0.9373 -1.5056  1.7013
  550MOL0     H74185   7.113   5.960   4.561  1.7689 -0.0148  2.0539
  550MOL0     H74186   6.998   5.942   4.690  1.9409 -1.5921 -0.9332
  550MOL0     H74187   6.900   6.177   4.609 -1.2195 -0.3737 -1.6507
  550MOL0     H74188   7.028   6.173   4.489 -1.6994  3.4742  1.2633
  550MOL0     H74189   6.943   5.961   4.399 -1.6156 -1.4907 -0.7681
  550MOL0     H74190   6.808   5.956   4.506 -3.5186  2.0401 -1.3071
  550MOL0     H74191   6.713   6.033   4.305  0.5157 -2.1665  1.2342
  550MOL0     H74192   6.715   6.165   4.422 -0.0176 -1.3307  1.9113
  550MOL0     H74193   6.946   6.244   4.320  1.8632  0.5562 -2.2845
  550MOL0     H74194   6.931   6.130   4.200  1.5208 -0.3647  1.9995
  550MOL0     H74195   6.683   6.252   4.159 -1.1808 -0.8836  2.8929
  550MOL0     H74196   6.759   6.375   4.269  2.3797 -0.6578  0.7647
  550MOL0     H74197   6.867   6.268   3.992 -1.7425  0.8160 -1.7422
  550MOL0     H74198   6.805   6.431   4.036  1.9745  1.4193  1.2337
  550MOL0     H74199   7.031   6.456   4.001  4.3361 -0.4584  1.3095
  550MOL0     H74200   7.068   6.327   4.119 -0.7160  0.9536  0.4359
  550MOL0     H74201   7.160   6.413   4.350 -1.7019 -2.9084 -0.8516
  550MOL0     H74202   7.205   6.668   4.516  0.3868  1.6395  1.2553
  550MOL0     H74203   7.044   6.730   4.551  0.6792 -0.0138  0.3226
  550MOL0     H74204   7.099   6.582   4.727  0.2203 -0.2489  0.0715
  550MOL0     H74205   7.161   6.471   4.619 -0.6629  0.8354 -0.0835
  550MOL0     H74206   6.956   6.372   4.559 -3.8016 -1.7149  1.4322
  550MOL0     H74207   6.863   6.519   4.593  2.3483  1.6808  0.6539
  550MOL0     H74208   7.001   6.356   4.795 -0.3696 -1.1616 -0.0645
  550MOL0     H74209   6.840   6.325   4.741 -0.6860 -0.1553 -0.5984
  550MOL0     H74210   6.657   6.417   4.914  0.7120 -0.3933  0.6689
  550MOL0     H74211   6.481   6.324   5.036  1.2818  0.8830 -1.5323
  550MOL0     H74212   6.540   6.177   5.072  1.1801  1.9747 -4.2709
  550MOL0     H74213   6.512   6.287   5.210  5.6612  0.9849  2.0797
  550MOL0     H74214   6.961   6.361   5.673 -1.5275 -1.2188 -3.4401
  550MOL0     H74215   6.944   6.250   5.889  0.1087 -1.1454 -0.8409
  550MOL0     H74216   6.706   6.102   6.178 -2.7229  0.6363  0.3898
  550MOL0     H74217   6.855   6.182   6.123 -0.0121  0.4284  1.6673
  550MOL0     H74218   6.721   6.378   6.217 -0.9687 -0.7961  1.3903
  550MOL0     H74219   6.676   6.370   6.056 -0.9405  1.3003  0.3518
  550MOL0     H74220   6.527   6.195   6.255  0.2218  1.8923  1.6381
  550MOL0     H74221   6.482   6.262   6.092 -0.8036 -2.6135  1.0791
  550MOL0     H74222   6.481   6.475   6.186  0.6135 -3.4706 -2.9973
  550MOL0     H74223   6.360   6.364   6.259 -0.4655 -1.6047 -1.1071
  550MOL0     H74224   6.623   6.396   6.391  0.1206  1.6243  0.2965
  550MOL0     H74225   6.476   6.329   6.461  1.6761  0.0811 -1.1272
  550MOL0     H74226   6.535   6.581   6.522  0.6400  0.6883 -1.1530
  550MOL0     H74227   6.483   6.635   6.371  0.6789  2.6151  1.0233
  550MOL0     H74228   6.304   6.482   6.575  0.5321 -0.2363  1.0681
  550MOL0     H74229   6.258   6.526   6.406  2.0808  1.8258 -1.4353
  550MOL0     H74230   6.194   6.682   6.616 -2.2227  1.7992 -0.7587
  550MOL0     H74231   6.233   6.743   6.455 -1.2317 -0.9447  0.8944
  550MOL0     H74232   6.546   6.142   5.805  1.3628 -2.4688  0.3284
  550MOL0     H74233   6.568   6.206   5.574  1.6802  0.0099 -0.6632
  550MOL0     H74234   6.968   6.422   5.284  0.3629  2.8422 -1.8008
  550MOL0     H74235   7.027   6.517   5.053  2.6224 -2.0742  2.5884
  550MOL0     H74236   7.238   6.287   4.845 -2.4119 -1.1166  0.3138
  550MOL0     H74237   7.463   6.251   4.969 -0.4948  0.1670  0.4022
  550MOL0     H74238   7.714   6.070   5.324 -0.2671  3.3682 -2.4760
  550MOL0     H74239   7.954   6.015   5.418 -0.7078  1.8502 -0.4085
  550MOL0     H74240   8.218   6.143   5.118 -0.4365  0.8225  0.2549
  550MOL0     H74241   8.121   6.196   5.258 -1.3461 -0.4983 -2.9212
  550MOL0     H74242   8.405   6.082   5.253 -2.4319 -2.7560 -0.2035
  550MOL0     H74243   8.315   6.140   5.398 -0.3154  2.7402  0.0410
  550MOL0     H74244   8.383   6.316   5.177 -0.0444 -1.2259  0.6817
  550MOL0     H74245   8.489   6.268   5.323 -0.4805 -0.1500  1.8135
  550MOL0     H74246   8.259   6.458   5.329 -0.5010  0.6360  1.7357
  550MOL0     H74247   8.419   6.475   5.391 -1.5586  1.3843 -2.4595
  550MOL0     H74248   8.201   6.327   5.728 -2.1447  1.5797 -0.9320
  550MOL0     H74249   8.075   5.933   5.020 -2.4598 -0.5969 -0.7918
  550MOL0     H74250   7.841   5.968   4.931  1.4805 -1.0245 -1.0356
  551MOL0     O74251   2.722   2.422   4.447 -0.3101 -0.1430  0.0709
  551MOL0     C74252   2.831   2.376   4.451 -0.2305 -0.3794 -1.1268
  551MOL0     O74253   2.869   2.273   4.525  0.1754  0.3693 -0.1543
  551MOL0     C74254   2.780   2.177   4.571  0.7598  0.3996 -0.0395
  551MOL0     C74255   2.816   2.044   4.555  0.2440 -0.3685  0.1827
  551MOL0     C74256   2.728   1.947   4.580 -0.3587  0.2778 -0.0891
  551MOL0     C74257   2.602   1.971   4.643  0.1396  0.2486  0.1125
  551MOL0     O74258   2.522   1.869   4.683 -0.0459  0.0080  0.7253
  551MOL0     C74259   2.455   1.895   4.811 -0.6261  0.2471 -0.1401
  551MOL0     C74260   2.448   1.757   4.875  0.3772 -0.0455 -0.2314
  551MOL0     C74261   2.592   1.696   4.909  1.0439  0.2881  0.4377
  551MOL0     C74262   2.592   1.544   4.951  0.2994  0.0637 -0.3410
  551MOL0     C74263   2.733   1.484   4.935  0.7443  0.3557  0.4607
  551MOL0     C74264   2.731   1.334   4.969  0.7895 -0.4065 -0.8113
  551MOL0     C74265   2.865   1.270   4.934  0.7880 -0.2080 -0.4486
  551MOL0     C74266   2.859   1.121   4.971 -0.3337 -0.2851 -0.1270
  551MOL0     N74267   2.887   1.112   5.116 -0.1231  0.3084 -0.7771
  551MOL0     C74268   2.790   1.097   5.217 -0.2130  0.4932  0.4549
  551MOL0     C74269   2.857   1.098   5.336 -0.7403  0.2134 -0.3636
  551MOL0     C74270   2.811   1.108   5.482  0.1143 -0.1395  0.6008
  551MOL0     C74271   2.888   1.027   5.591 -0.2411 -0.4293  0.0103
  551MOL0     C74272   2.901   0.874   5.572  0.1549  0.8127  0.3586
  551MOL0     C74273   3.007   0.817   5.662  0.6914 -0.3694  0.3168
  551MOL0     O74274   3.005   0.673   5.657  0.5919 -0.5339 -0.0899
  551MOL0     C74275   3.040   0.614   5.543  0.0543  0.0153 -0.0428
  551MOL0     C74276   2.943   0.525   5.495 -0.1360 -0.3292  0.0052
  551MOL0     C74277   2.958   0.450   5.374  0.4142 -0.4359  0.6812
  551MOL0     C74278   2.845   0.345   5.356  0.4410  0.9192  0.7352
  551MOL0     C74279   3.083   0.459   5.307  0.7380 -0.0464  0.5031
  551MOL0     C74280   3.106   0.373   5.183  0.0065 -0.0457 -0.9894
  551MOL0     O74281   3.227   0.327   5.152 -0.0231  0.2256  0.3476
  551MOL0     C74282   3.246   0.265   5.028 -0.0553  0.0239  0.5730
  551MOL0     C74283   3.335   0.323   4.936 -0.0323  0.0708 -0.0325
  551MOL0     C74284   3.364   0.259   4.813  0.4251 -0.4872 -0.8544
  551MOL0     C74285   3.307   0.141   4.775 -0.0569  0.4388  0.5369
  551MOL0     O74286   3.337   0.081   4.657  0.0939 -0.3127 -0.0889
  551MOL0     C74287   3.250  -0.009   4.595  0.1073  0.5033  1.0354
  551MOL0     C74288   3.304  -0.017   4.446  0.8610  0.4474 -0.1142
  551MOL0     C74289   3.211  -0.123   4.379  0.4862  0.0332 -0.2074
  551MOL0     C74290   3.074  -0.073   4.345  0.6255  0.0060 -0.3841
  551MOL0     C74291   2.982  -0.197   4.312 -0.6564 -0.2593 -0.2972
  551MOL0     C74292   2.905  -0.243   4.437 -0.6614 -0.3208  0.5507
  551MOL0     C74293   2.789  -0.156   4.472 -0.3687  0.5183  0.0797
  551MOL0     C74294   2.737  -0.213   4.596  1.2217  0.2465  0.4314
  551MOL0    Cl74295   2.610  -0.108   4.680 -0.3150  0.4899 -0.4905
  551MOL0     C74296   3.208   0.092   4.857 -0.6159  0.4573 -0.1819
  551MOL0     C74297   3.182   0.146   4.981 -0.9401  0.2681  0.6683
  551MOL0     O74298   3.008   0.362   5.110 -0.2612  0.0647  0.5903
  551MOL0     C74299   3.185   0.553   5.361  0.8094  0.1149 -0.1834
  551MOL0     C74300   3.169   0.626   5.484 -0.9189 -0.1518  0.5914
  551MOL0     N74301   2.988   1.127   5.293  0.0030 -0.3822 -0.9952
  551MOL0     N74302   3.004   1.127   5.170  0.5772  0.4369 -0.5580
  551MOL0     C74303   2.578   2.101   4.665  0.5434  0.3247 -0.3073
  551MOL0     C74304   2.669   2.205   4.641  0.3197 -0.1699 -0.0950
  551MOL0     C74305   2.928   2.439   4.377 -0.5446 -0.2430  0.9080
  551MOL0     C74306   3.057   2.381   4.371 -0.2507 -0.1008  0.3123
  551MOL0     C74307   3.162   2.440   4.292  0.0759  0.6797 -1.5877
  551MOL0     C74308   3.125   2.542   4.209 -0.4564  0.0203  0.1629
  551MOL0     O74309   3.229   2.594   4.134 -0.1333  0.4467  0.0164
  551MOL0     C74310   3.215   2.714   4.050 -0.6894 -0.6453 -0.4082
  551MOL0     C74311   3.348   2.752   3.986 -0.7298  0.1571  0.3115
  551MOL0     C74312   3.398   2.645   3.887 -0.0828 -0.1829 -0.2722
  551MOL0     C74313   3.538   2.598   3.913  0.0453 -0.6749 -0.2407
  551MOL0     C74314   3.583   2.520   3.791  0.5947 -0.2922 -0.6463
  551MOL0     C74315   3.628   2.476   3.696  0.3813 -0.1963 -0.7745
  551MOL0     C74316   2.991   2.583   4.197 -0.0324  0.6202 -0.2877
  551MOL0     C74317   2.902   2.541   4.287  0.7697  0.8203  0.3638
  551MOL0     H74318   2.913   2.017   4.514 -0.5394 -2.2851 -0.5432
  551MOL0     H74319   2.756   1.843   4.571 -1.3307  0.1101 -1.7504
  551MOL0     H74320   2.517   1.943   4.888 -0.3196 -0.2042 -0.0989
  551MOL0     H74321   2.363   1.953   4.800 -1.2935 -0.0960  2.7278
  551MOL0     H74322   2.377   1.768   4.957  0.7618 -1.4853  0.3296
  551MOL0     H74323   2.387   1.689   4.814 -2.8186  1.0691  1.5089
  551MOL0     H74324   2.658   1.698   4.822  1.2560 -2.7040  0.4152
  551MOL0     H74325   2.630   1.748   4.998 -1.1122 -0.5363  1.9485
  551MOL0     H74326   2.564   1.536   5.057  0.6354 -1.4143 -0.3395
  551MOL0     H74327   2.518   1.493   4.889 -1.4270 -2.2895  3.3172
  551MOL0     H74328   2.755   1.509   4.831 -2.5926  0.2331 -0.3593
  551MOL0     H74329   2.793   1.539   5.008 -0.6613  3.3869 -0.5087
  551MOL0     H74330   2.708   1.316   5.075 -0.4720  0.1838 -0.9655
  551MOL0     H74331   2.648   1.290   4.912 -0.2901  1.1107 -0.4826
  551MOL0     H74332   2.875   1.282   4.826 -1.3175 -0.2903 -0.6953
  551MOL0     H74333   2.948   1.321   4.983 -0.5300  1.5260  0.1114
  551MOL0     H74334   2.947   1.087   4.917  1.0774  0.2282  1.7419
  551MOL0     H74335   2.765   1.071   4.947  0.4763 -2.1365  0.4050
  551MOL0     H74336   2.686   1.092   5.188 -0.0178  0.7329 -0.3274
  551MOL0     H74337   2.830   1.215   5.491  0.7380 -0.1454 -0.4141
  551MOL0     H74338   2.703   1.093   5.490 -0.5774  0.9947 -3.8609
  551MOL0     H74339   2.854   1.050   5.692  0.8310 -0.4237  0.3899
  551MOL0     H74340   2.991   1.060   5.573 -0.7412  0.2187 -1.9858
  551MOL0     H74341   2.927   0.848   5.469  0.7293  1.2602  0.3892
  551MOL0     H74342   2.806   0.824   5.592 -0.6138  2.2449  0.4181
  551MOL0     H74343   3.014   0.859   5.762  0.0585 -4.1919  2.1485
  551MOL0     H74344   3.104   0.842   5.617  0.9494 -1.1294  0.4299
  551MOL0     H74345   2.860   0.517   5.564  1.6015  0.8799  2.3871
  551MOL0     H74346   2.884   0.261   5.299 -3.4530  0.4557 -1.5143
  551MOL0     H74347   2.823   0.313   5.458  1.0002  3.1531  1.6203
  551MOL0     H74348   2.755   0.382   5.306 -2.0065 -2.4444  2.3013
  551MOL0     H74349   3.382   0.419   4.957 -0.3242  0.3317 -0.5492
  551MOL0     H74350   3.435   0.316   4.755  0.4583 -0.9713 -1.3046
  551MOL0     H74351   3.251  -0.108   4.642  0.9571 -0.0613 -0.1191
  551MOL0     H74352   3.151   0.037   4.596  1.5620  3.9292  1.0637
  551MOL0     H74353   3.284   0.079   4.397  0.3973 -0.2946 -1.4228
  551MOL0     H74354   3.411  -0.040   4.435  0.1594 -2.5968 -1.6766
  551MOL0     H74355   3.205  -0.207   4.448  1.8849 -0.1483 -0.2706
  551MOL0     H74356   3.261  -0.158   4.289  2.6177  2.4392 -0.0972
  551MOL0     H74357   3.031  -0.014   4.426  0.7267  0.6120 -0.7702
  551MOL0     H74358   3.090  -0.011   4.257  1.9901  0.5793  0.2448
  551MOL0     H74359   3.044  -0.282   4.280 -0.1370 -0.1904  0.4921
  551MOL0     H74360   2.907  -0.187   4.234 -1.1700 -4.1927 -0.5078
  551MOL0     H74361   2.867  -0.341   4.407 -4.3150  0.7121  1.1781
  551MOL0     H74362   2.984  -0.252   4.512 -0.0324  0.1348 -0.0484
  551MOL0     H74363   2.713  -0.161   4.394  0.5543  0.7507 -0.8642
  551MOL0     H74364   2.811  -0.049   4.486  2.1634  0.3745 -2.1334
  551MOL0     H74365   2.817  -0.231   4.668 -0.1981  0.8982  2.2748
  551MOL0     H74366   2.694  -0.313   4.586 -1.3766  1.2877  0.3509
  551MOL0     H74367   3.149   0.003   4.837  1.3994 -0.3664 -2.9845
  551MOL0     H74368   3.106   0.094   5.038 -0.3572 -2.7113 -1.0411
  551MOL0     H74369   3.280   0.563   5.311  2.4259  1.1727  2.8589
  551MOL0     H74370   3.249   0.691   5.518 -2.2993  0.8910  2.0098
  551MOL0     H74371   2.481   2.133   4.703 -0.2895 -2.9418  0.6925
  551MOL0     H74372   2.643   2.307   4.666  2.6169  0.4018  0.1567
  551MOL0     H74373   3.073   2.287   4.423 -1.1005 -1.3182 -1.5197
  551MOL0     H74374   3.261   2.397   4.306 -1.1618 -2.1187 -0.7687
  551MOL0     H74375   3.135   2.707   3.976 -0.8307  1.2571 -0.4797
  551MOL0     H74376   3.191   2.796   4.118 -0.6501  0.2516 -1.4653
  551MOL0     H74377   3.417   2.776   4.067 -0.7996  0.9874  0.1363
  551MOL0     H74378   3.336   2.843   3.925  1.4024 -0.3102 -0.9105
  551MOL0     H74379   3.382   2.669   3.781 -1.5496  2.6887  0.5057
  551MOL0     H74380   3.334   2.559   3.905  0.4113 -0.2111  1.5506
  551MOL0     H74381   3.529   2.532   4.000  0.8875  0.4131  0.7133
  551MOL0     H74382   3.612   2.676   3.934  0.7357 -1.5611  0.7447
  551MOL0     H74383   3.673   2.427   3.611  0.7472  0.8365 -1.1910
  551MOL0     H74384   2.962   2.650   4.116  0.1134  1.7900  0.6045
  551MOL0     H74385   2.807   2.594   4.284 -1.0462 -2.2565 -0.8471
  552MOL0     O74386   5.385   3.451   1.312  0.5093  0.8784  0.0854
  552MOL0     C74387   5.338   3.524   1.402 -0.3461 -0.3873  0.2245
  552MOL0     O74388   5.403   3.554   1.516  0.4900  0.1745 -0.0784
  552MOL0     C74389   5.530   3.503   1.542 -0.0923 -1.2181  0.1525
  552MOL0     C74390   5.647   3.579   1.513  1.1496 -0.0218  0.1341
  552MOL0     C74391   5.768   3.520   1.544  0.3095 -0.1563 -0.1716
  552MOL0     C74392   5.775   3.394   1.600 -0.2994  0.3078 -0.3406
  552MOL0     O74393   5.901   3.352   1.621 -0.1336 -0.1538 -0.1880
  552MOL0     C74394   5.927   3.214   1.614 -0.3229 -1.4645  0.1769
  552MOL0     C74395   6.082   3.189   1.613  0.5879 -1.2830  0.4986
  552MOL0     C74396   6.157   3.225   1.488 -0.3967 -0.8650 -0.4906
  552MOL0     C74397   6.302   3.166   1.496  0.3419 -0.1721  0.0331
  552MOL0     C74398   6.373   3.150   1.359 -0.4776 -0.3006 -0.2792
  552MOL0     C74399   6.515   3.091   1.362 -1.0561  0.1465 -0.1601
  552MOL0     C74400   6.617   3.206   1.407 -0.2429 -0.2503  0.2796
  552MOL0     C74401   6.757   3.148   1.444  0.4173 -0.1168 -0.6071
  552MOL0     N74402   6.823   3.078   1.334 -0.3665  0.2026  0.6330
  552MOL0     C74403   6.828   2.940   1.294 -0.2410  0.8730  0.8457
  552MOL0     C74404   6.908   2.945   1.179 -0.7114  0.1250 -0.3600
  552MOL0     C74405   6.951   2.837   1.095 -0.3745 -0.0697  0.6563
  552MOL0     C74406   6.974   2.707   1.173 -0.0974  0.2251  0.0511
  552MOL0     C74407   7.034   2.602   1.086  0.5722  0.5004  0.3942
  552MOL0     C74408   7.079   2.469   1.148  0.2124 -0.5219  0.2659
  552MOL0     O74409   7.145   2.406   1.040 -0.8354  0.3327  0.5943
  552MOL0     C74410   7.279   2.430   1.008 -0.3383 -0.0764 -0.5370
  552MOL0     C74411   7.318   2.341   0.905  0.4253  0.0458  0.2197
  552MOL0     C74412   7.445   2.339   0.852  0.8905  0.5547 -0.1394
  552MOL0     C74413   7.448   2.256   0.734 -0.1464  0.5848  0.8207
  552MOL0     C74414   7.549   2.417   0.911 -0.0217 -0.1985  0.7041
  552MOL0     C74415   7.686   2.410   0.860 -0.1006 -1.0209 -0.5715
  552MOL0     O74416   7.771   2.492   0.922 -0.2235 -0.1567  0.6322
  552MOL0     C74417   7.901   2.479   0.895 -0.4123  0.2466  0.0032
  552MOL0     C74418   7.971   2.593   0.860  0.2224  0.2379  1.0336
  552MOL0     C74419   8.111   2.578   0.862  0.5907  0.3765 -0.8894
  552MOL0     C74420   8.178   2.460   0.891 -0.3735 -0.1801 -0.3887
  552MOL0     O74421   8.312   2.461   0.878  0.1941  0.2425  0.8637
  552MOL0     C74422   8.373   2.469   0.745  0.5134 -0.1792 -0.7134
  552MOL0     C74423   8.526   2.479   0.769 -0.5903  0.1913 -0.1162
  552MOL0     C74424   8.618   2.486   0.646 -0.6792 -0.2721 -0.2693
  552MOL0     C74425   8.755   2.423   0.683  0.2547 -0.3850  0.1913
  552MOL0     C74426   8.862   2.502   0.594 -0.0145 -0.0212  0.4405
  552MOL0     C74427   9.000   2.437   0.615 -0.2138 -0.8622 -0.0232
  552MOL0     C74428   9.088   2.460   0.497 -0.2975  0.6558  0.9709
  552MOL0     C74429   9.231   2.411   0.519  0.0432  0.4095 -0.0955
  552MOL0    Cl74430   9.334   2.520   0.628 -0.0850  0.2000  0.3438
  552MOL0     C74431   8.112   2.354   0.946 -1.2352  0.2777 -1.0692
  552MOL0     C74432   7.974   2.361   0.931  0.2388 -0.6263 -0.1906
  552MOL0     O74433   7.728   2.334   0.773  0.5445 -0.6337 -0.5211
  552MOL0     C74434   7.507   2.501   1.019  0.1320 -1.0106  0.1850
  552MOL0     C74435   7.375   2.517   1.066 -0.7224  0.5334  0.8761
  552MOL0     N74436   6.960   3.074   1.162 -0.4739 -0.4718  0.0718
  552MOL0     N74437   6.907   3.147   1.251  0.0557  0.4347 -0.2147
  552MOL0     C74438   5.661   3.319   1.630 -0.0441 -0.2268 -0.3307
  552MOL0     C74439   5.536   3.377   1.592  0.2294 -0.8651  0.0758
  552MOL0     C74440   5.208   3.580   1.385  0.9626  0.8499  0.8047
  552MOL0     C74441   5.120   3.507   1.294 -0.7449 -0.3100 -0.1456
  552MOL0     C74442   4.989   3.550   1.278  0.5987 -0.4744 -0.1677
  552MOL0     C74443   4.943   3.661   1.354  0.4063 -0.0255 -0.4602
  552MOL0     O74444   4.810   3.711   1.345 -0.5532  0.6037  0.4842
  552MOL0     C74445   4.722   3.650   1.251  0.2812 -0.1475 -0.1315
  552MOL0     C74446   4.589   3.724   1.246 -0.3164 -0.4845 -0.8111
  552MOL0     C74447   4.507   3.720   1.381  0.5746 -0.0051 -0.3642
  552MOL0     C74448   4.381   3.796   1.376  0.1172  0.2652 -0.8232
  552MOL0     C74449   4.348   3.858   1.503  0.1800 -0.7553  0.5924
  552MOL0     C74450   4.335   3.919   1.608 -0.5887  0.4310 -0.3500
  552MOL0     C74451   5.019   3.710   1.454 -0.6877 -1.4779 -0.0069
  552MOL0     C74452   5.155   3.686   1.460 -0.9267 -0.4372  0.6521
  552MOL0     H74453   5.651   3.668   1.450  1.7122 -1.2781 -1.6809
  552MOL0     H74454   5.853   3.588   1.539 -1.8003  2.6640 -0.2846
  552MOL0     H74455   5.888   3.165   1.703 -0.5620  0.2759  1.0687
  552MOL0     H74456   5.885   3.179   1.519 -0.2410 -2.7954  0.6150
  552MOL0     H74457   6.117   3.261   1.688 -0.6036  1.1227 -1.1217
  552MOL0     H74458   6.098   3.084   1.638 -0.7108 -1.3555  1.1721
  552MOL0     H74459   6.101   3.192   1.400 -4.3778 -0.2235  1.5671
  552MOL0     H74460   6.145   3.333   1.481 -4.2056 -0.9678  1.8463
  552MOL0     H74461   6.357   3.235   1.560 -0.8616  1.1970 -0.3576
  552MOL0     H74462   6.303   3.076   1.558 -1.8075  0.1594  0.6595
  552MOL0     H74463   6.305   3.085   1.303 -2.4759  0.3312  1.2680
  552MOL0     H74464   6.368   3.247   1.307 -1.8530  0.0802  0.4968
  552MOL0     H74465   6.521   3.006   1.431  1.6946 -1.1160 -1.7943
  552MOL0     H74466   6.549   3.058   1.263  2.2394 -1.5134  1.3807
  552MOL0     H74467   6.630   3.276   1.324 -1.0892  0.7350  0.9564
  552MOL0     H74468   6.561   3.255   1.488  0.9427  1.0377  0.3547
  552MOL0     H74469   6.760   3.077   1.527  1.4000  0.2241 -0.3379
  552MOL0     H74470   6.823   3.230   1.474 -2.2689  2.0846 -0.3663
  552MOL0     H74471   6.755   2.862   1.315  0.9581 -0.5462 -0.0126
  552MOL0     H74472   6.882   2.818   1.013  4.0085  0.6803 -3.6528
  552MOL0     H74473   7.047   2.855   1.046 -0.1657 -3.7727 -0.5987
  552MOL0     H74474   6.884   2.667   1.220 -1.3504  1.4247 -1.2494
  552MOL0     H74475   7.039   2.734   1.257 -2.0064 -0.8226  1.9858
  552MOL0     H74476   7.113   2.643   1.023 -0.6144 -1.0068 -2.2579
  552MOL0     H74477   6.958   2.569   1.014  0.6321  1.5502 -0.1654
  552MOL0     H74478   7.008   2.410   1.206  3.1097 -3.6924  0.8583
  552MOL0     H74479   7.148   2.506   1.224 -0.8930  3.8488 -0.5424
  552MOL0     H74480   7.240   2.278   0.863  2.1107 -0.1288 -2.9920
  552MOL0     H74481   7.351   2.210   0.716  1.6972 -3.2346 -0.5208
  552MOL0     H74482   7.479   2.303   0.640  0.8306  0.1025  0.8818
  552MOL0     H74483   7.523   2.177   0.747 -1.1913 -0.8810 -1.4504
  552MOL0     H74484   7.915   2.683   0.835  0.1591  0.0043  0.3362
  552MOL0     H74485   8.162   2.668   0.829 -2.3705  2.4767 -0.1605
  552MOL0     H74486   8.339   2.376   0.698  0.2223 -2.4672  3.5796
  552MOL0     H74487   8.337   2.565   0.706  1.5599  0.1616 -0.8697
  552MOL0     H74488   8.549   2.564   0.834 -0.4752  0.7741 -0.9181
  552MOL0     H74489   8.560   2.391   0.826 -0.2956  0.7018  0.5084
  552MOL0     H74490   8.630   2.592   0.620 -0.3825  0.1635  1.5035
  552MOL0     H74491   8.564   2.439   0.563 -1.0072  1.1581 -0.8920
  552MOL0     H74492   8.784   2.448   0.785  1.5572  2.2807 -0.7408
  552MOL0     H74493   8.759   2.316   0.660  2.0306 -0.3499  0.1684
  552MOL0     H74494   8.865   2.608   0.619 -2.7648  0.0604  0.7472
  552MOL0     H74495   8.840   2.485   0.488 -0.5641  1.2774  0.3322
  552MOL0     H74496   9.043   2.479   0.706  0.7992 -1.1743 -0.3485
  552MOL0     H74497   8.992   2.330   0.637 -1.0786 -0.4707  1.7200
  552MOL0     H74498   9.084   2.567   0.472 -1.6125 -0.1377 -2.8861
  552MOL0     H74499   9.046   2.413   0.408  0.6974  0.9832  0.3096
  552MOL0     H74500   9.282   2.398   0.423  0.4337 -2.4411  0.4259
  552MOL0     H74501   9.233   2.312   0.566 -0.9318  0.5593  0.2928
  552MOL0     H74502   8.152   2.260   0.985 -2.1091  0.1881 -0.3549
  552MOL0     H74503   7.921   2.275   0.972 -0.0932 -0.1248  0.4567
  552MOL0     H74504   7.579   2.563   1.073 -1.1067  2.3341 -1.7022
  552MOL0     H74505   7.345   2.586   1.143 -1.3622  2.5486 -1.0590
  552MOL0     H74506   5.656   3.224   1.682 -0.9023  1.0501  2.1149
  552MOL0     H74507   5.442   3.326   1.607 -0.6574  0.7539  0.2546
  552MOL0     H74508   5.160   3.424   1.237 -1.1008 -1.1552  0.8037
  552MOL0     H74509   4.936   3.492   1.203 -0.2422 -1.3346  1.0704
  552MOL0     H74510   4.765   3.647   1.150  1.9158  1.0653  0.4991
  552MOL0     H74511   4.701   3.549   1.289  0.4950  0.0719  0.5798
  552MOL0     H74512   4.525   3.684   1.167 -3.5178  1.3936  0.6135
  552MOL0     H74513   4.621   3.827   1.229  2.0011 -1.3290 -1.9534
  552MOL0     H74514   4.575   3.757   1.459  2.2231 -0.4159 -1.5440
  552MOL0     H74515   4.487   3.615   1.401  0.1472  0.1096 -0.1824
  552MOL0     H74516   4.308   3.717   1.357  0.3753 -0.1848  0.0048
  552MOL0     H74517   4.373   3.882   1.309 -0.8833  1.5238  0.8445
  552MOL0     H74518   4.322   3.972   1.700 -2.1025  0.6325 -0.6469
  552MOL0     H74519   4.971   3.794   1.503 -0.4932  1.7607 -4.6663
  552MOL0     H74520   5.219   3.735   1.532 -1.2635 -1.7917  1.9065
  553MOL0     O74521   5.408   5.872   6.163 -0.3699  0.1169 -0.1496
  553MOL0     C74522   5.354   5.761   6.139  0.6173 -0.4150  0.3888
  553MOL0     O74523   5.412   5.640   6.121 -0.3869  0.2095  1.0196
  553MOL0     C74524   5.547   5.622   6.135  0.0473  0.2575  0.1319
  553MOL0     C74525   5.622   5.641   6.017  0.1002 -0.0121  0.0289
  553MOL0     C74526   5.756   5.620   6.008  0.2311 -0.9248  0.5398
  553MOL0     C74527   5.826   5.602   6.122 -0.0160 -0.3245  0.8941
  553MOL0     O74528   5.959   5.598   6.094 -0.1876  0.6739 -0.2464
  553MOL0     C74529   6.054   5.577   6.195 -0.0211  0.9441 -0.2960
  553MOL0     C74530   6.051   5.420   6.244  0.5930 -0.5669  0.0130
  553MOL0     C74531   6.111   5.406   6.382 -0.2116 -0.2132  0.1801
  553MOL0     C74532   6.142   5.266   6.423  0.6799  0.9002 -0.2260
  553MOL0     C74533   6.232   5.278   6.550 -0.1185  0.6821 -0.1149
  553MOL0     C74534   6.240   5.135   6.615 -0.0216 -0.3780  0.7523
  553MOL0     C74535   6.274   5.152   6.755  0.1195  1.5312 -0.7683
  553MOL0     C74536   6.155   5.201   6.843 -0.9607 -0.5651 -0.4647
  553MOL0     N74537   6.034   5.111   6.834 -0.2057 -0.6375  0.2336
  553MOL0     C74538   6.024   4.985   6.889 -0.2892  0.0271 -0.6303
  553MOL0     C74539   5.896   4.954   6.887 -0.1712 -0.5882 -0.2399
  553MOL0     C74540   5.839   4.836   6.963 -0.2165  0.4599  0.3938
  553MOL0     C74541   5.699   4.864   7.021  0.3935 -1.0338  0.0059
  553MOL0     C74542   5.637   4.751   7.096  0.2782  0.8227  0.3163
  553MOL0     C74543   5.477   4.769   7.092  0.2613 -0.0655 -0.5299
  553MOL0     O74544   5.424   4.645   7.064  0.5697 -0.8340 -0.0992
  553MOL0     C74545   5.282   4.653   7.061 -0.2959  0.2943 -1.0697
  553MOL0     C74546   5.230   4.604   6.948 -0.1009 -0.3142  0.4509
  553MOL0     C74547   5.090   4.605   6.923 -1.2319  0.2544 -0.2094
  553MOL0     C74548   5.045   4.552   6.790  0.0171 -0.2943  0.1749
  553MOL0     C74549   5.002   4.668   7.015 -0.2875 -0.5674  0.4915
  553MOL0     C74550   4.855   4.683   6.994 -0.4739 -0.4273 -0.2865
  553MOL0     O74551   4.797   4.809   7.013  0.2200  0.1328 -0.0428
  553MOL0     C74552   4.669   4.800   7.068  0.0957 -0.6197  0.4060
  553MOL0     C74553   4.652   4.732   7.191 -0.7767 -0.8053  0.9822
  553MOL0     C74554   4.525   4.715   7.245 -0.6689  0.0502 -0.1693
  553MOL0     C74555   4.418   4.782   7.186  1.2432  0.3776  0.5205
  553MOL0     O74556   4.285   4.758   7.219  0.8790  0.9771 -0.4279
  553MOL0     C74557   4.252   4.688   7.346  0.0024 -0.4289  0.4378
  553MOL0     C74558   4.118   4.623   7.313  0.5381 -0.6200 -0.1194
  553MOL0     C74559   4.076   4.515   7.407  0.7405  0.2757  0.1518
  553MOL0     C74560   4.016   4.564   7.540 -0.2432  0.0032  0.0695
  553MOL0     C74561   3.974   4.444   7.630 -0.2847 -0.5189  0.1485
  553MOL0     C74562   3.872   4.346   7.571  0.4665  1.1313  0.3594
  553MOL0     C74563   3.839   4.247   7.670  0.2905  0.4107 -0.5201
  553MOL0     C74564   3.953   4.148   7.707 -0.5061  0.1791  0.4985
  553MOL0    Cl74565   3.870   3.991   7.739 -0.3968  0.3644 -0.2740
  553MOL0     C74566   4.436   4.853   7.065 -0.2916 -0.3737 -0.3411
  553MOL0     C74567   4.561   4.860   7.006 -0.6483  1.0137 -0.1267
  553MOL0     O74568   4.795   4.577   6.983  0.6984 -0.0234  0.0156
  553MOL0     C74569   5.062   4.731   7.129  0.2322  0.4642  0.6912
  553MOL0     C74570   5.197   4.721   7.155 -0.0276  0.2452 -0.4871
  553MOL0     N74571   5.821   5.064   6.845 -0.5432 -0.3206  0.9152
  553MOL0     N74572   5.906   5.159   6.811  0.5163  0.3692 -0.0948
  553MOL0     C74573   5.764   5.589   6.248  0.1745 -0.2308 -0.6379
  553MOL0     C74574   5.625   5.595   6.252  0.1701  0.2784 -0.1517
  553MOL0     C74575   5.210   5.763   6.088  0.1362 -0.9663 -0.1032
  553MOL0     C74576   5.160   5.676   5.992  0.1438  0.3055 -0.1035
  553MOL0     C74577   5.024   5.697   5.939 -0.1905 -0.0119  0.0895
  553MOL0     C74578   4.927   5.780   6.002 -0.1512 -0.9558  0.1305
  553MOL0     O74579   4.800   5.776   5.949  0.2830  0.9446 -0.5136
  553MOL0     C74580   4.724   5.901   5.962 -0.1627 -0.4771  0.0938
  553MOL0     C74581   4.592   5.870   5.903 -0.0873  0.1265  0.0984
  553MOL0     C74582   4.491   5.986   5.916 -0.8374  0.0451  0.2771
  553MOL0     C74583   4.363   5.963   5.843 -0.2335  0.8156 -0.1149
  553MOL0     C74584   4.279   6.086   5.828  1.0380  0.5998 -0.4998
  553MOL0     C74585   4.216   6.185   5.808 -0.3997  0.3281 -0.2398
  553MOL0     C74586   4.989   5.876   6.087  0.5589 -0.6353 -0.5535
  553MOL0     C74587   5.125   5.875   6.125 -0.6551 -0.2707 -0.1416
  553MOL0     H74588   5.562   5.666   5.930 -1.1682  0.5409  1.0224
  553MOL0     H74589   5.806   5.640   5.913 -1.1731  1.0191  0.1339
  553MOL0     H74590   6.151   5.604   6.152  0.1384 -1.3912 -1.5652
  553MOL0     H74591   6.032   5.657   6.266 -1.0944  0.6643 -0.2922
  553MOL0     H74592   5.947   5.386   6.249  0.1503  0.8007  0.8538
  553MOL0     H74593   6.106   5.366   6.167 -2.3722  0.9785 -3.4779
  553MOL0     H74594   6.203   5.465   6.372 -0.3151 -0.3335 -1.9933
  553MOL0     H74595   6.042   5.446   6.456 -1.2887 -2.0533  0.2333
  553MOL0     H74596   6.042   5.224   6.438  0.2580 -0.3210 -5.0113
  553MOL0     H74597   6.188   5.220   6.336 -0.4739 -0.2888 -0.2399
  553MOL0     H74598   6.332   5.309   6.519  0.0945  1.3594  1.1832
  553MOL0     H74599   6.194   5.343   6.629 -0.9608 -2.6148  2.4394
  553MOL0     H74600   6.145   5.082   6.599 -1.3093  1.7932  0.8259
  553MOL0     H74601   6.323   5.087   6.562 -1.1882  1.6035 -3.2759
  553MOL0     H74602   6.322   5.062   6.795  0.2189  2.5013  1.4699
  553MOL0     H74603   6.359   5.219   6.767  1.4410 -0.3222  1.0430
  553MOL0     H74604   6.130   5.302   6.812 -0.0065 -0.6479 -1.5591
  553MOL0     H74605   6.195   5.192   6.945 -2.4503 -0.0815  0.1862
  553MOL0     H74606   6.102   4.920   6.928 -1.9291 -1.5978  0.1049
  553MOL0     H74607   5.848   4.752   6.894 -0.9202 -0.4304  1.3495
  553MOL0     H74608   5.901   4.812   7.050 -1.7616 -1.6744  0.9883
  553MOL0     H74609   5.631   4.893   6.940  1.0206  1.4709  0.3015
  553MOL0     H74610   5.707   4.952   7.085  1.8605 -0.8580 -0.3782
  553MOL0     H74611   5.679   4.754   7.197 -1.3030 -1.6517  1.1416
  553MOL0     H74612   5.663   4.650   7.063  2.8699  1.1904  1.0454
  553MOL0     H74613   5.452   4.833   7.006  0.2326 -1.9452 -1.9756
  553MOL0     H74614   5.446   4.803   7.191  0.6656 -1.5932  0.1458
  553MOL0     H74615   5.297   4.555   6.878  4.2968 -0.2718  4.1735
  553MOL0     H74616   4.937   4.532   6.791  0.2283 -1.7410  3.0484
  553MOL0     H74617   5.060   4.638   6.724  2.4763 -0.9377 -0.1957
  553MOL0     H74618   5.102   4.464   6.759  1.4068  0.7612 -0.3306
  553MOL0     H74619   4.733   4.681   7.243  0.4830  0.8624  0.7292
  553MOL0     H74620   4.525   4.665   7.342  1.6504 -2.0470 -1.1521
  553MOL0     H74621   4.321   4.608   7.372  1.6648  1.3014  1.5854
  553MOL0     H74622   4.253   4.745   7.439  3.5545  0.3960  0.0382
  553MOL0     H74623   4.037   4.697   7.315  0.4773 -0.6992  1.2760
  553MOL0     H74624   4.107   4.587   7.211  1.2496  0.1684 -0.4890
  553MOL0     H74625   4.153   4.437   7.407  0.8297  0.2414  3.0505
  553MOL0     H74626   3.981   4.480   7.367 -0.0209  0.6018  1.5989
  553MOL0     H74627   4.098   4.611   7.596  0.0872 -0.8719  0.3386
  553MOL0     H74628   3.938   4.638   7.521  0.1499 -0.1177 -2.2629
  553MOL0     H74629   3.946   4.479   7.730 -0.8983  3.0482 -1.1238
  553MOL0     H74630   4.060   4.382   7.657 -1.0548 -3.1908 -3.0001
  553MOL0     H74631   3.779   4.403   7.560 -1.0811 -1.3823 -0.6064
  553MOL0     H74632   3.890   4.293   7.477 -0.7443 -1.5022  1.5207
  553MOL0     H74633   3.767   4.182   7.620  0.3644  0.4258 -0.6450
  553MOL0     H74634   3.801   4.300   7.758  1.5222  1.7264 -0.7325
  553MOL0     H74635   4.009   4.178   7.796 -1.8275  1.7751  0.8379
  553MOL0     H74636   4.017   4.136   7.620  0.7450  0.7737  1.2994
  553MOL0     H74637   4.362   4.916   7.017  1.7124  1.3088 -1.4044
  553MOL0     H74638   4.572   4.914   6.913 -0.9228  3.4485  1.1788
  553MOL0     H74639   5.003   4.771   7.211  0.3930  0.2778  0.8997
  553MOL0     H74640   5.245   4.752   7.248  0.6265  1.6404 -1.2610
  553MOL0     H74641   5.826   5.592   6.337 -1.1794 -2.6194  0.4998
  553MOL0     H74642   5.576   5.584   6.348  0.2510 -0.2687 -0.1677
  553MOL0     H74643   5.209   5.590   5.948  1.4011  1.7182 -1.5990
  553MOL0     H74644   4.988   5.622   5.869  0.1748  0.5207 -0.6935
  553MOL0     H74645   4.706   5.939   6.063 -0.9570 -1.3758  0.2941
  553MOL0     H74646   4.770   5.991   5.918 -0.0363  2.2088  5.0061
  553MOL0     H74647   4.552   5.781   5.953  1.6157 -1.2671 -0.8933
  553MOL0     H74648   4.610   5.851   5.797 -2.1720 -0.3498 -0.2112
  553MOL0     H74649   4.543   6.068   5.865  0.0767 -0.1157  0.9131
  553MOL0     H74650   4.474   6.013   6.021  2.1391 -0.1225  0.9130
  553MOL0     H74651   4.315   5.892   5.911  3.8912 -0.7302  1.4945
  553MOL0     H74652   4.360   5.909   5.748 -0.6900  0.0477  0.3249
  553MOL0     H74653   4.150   6.263   5.775 -0.7240  0.1332 -0.0601
  553MOL0     H74654   4.932   5.961   6.122  0.0308 -0.5373 -1.6130
  553MOL0     H74655   5.157   5.945   6.203 -4.6560  1.1203  0.5081
  554MOL0     O74656   7.514   1.731   2.465  0.8114 -0.4392 -0.3947
  554MOL0     C74657   7.575   1.672   2.550 -0.2068 -0.2016 -0.1110
  554MOL0     O74658   7.528   1.645   2.680  0.5625  0.9293  0.2364
  554MOL0     C74659   7.409   1.687   2.727  0.9444 -0.2411  0.7609
  554MOL0     C74660   7.297   1.605   2.714 -0.1101 -0.6286  0.0326
  554MOL0     C74661   7.171   1.639   2.763 -0.3258 -0.0859  0.0389
  554MOL0     C74662   7.161   1.752   2.849  0.1349 -0.2214 -0.3967
  554MOL0     O74663   7.048   1.788   2.923 -0.3145 -0.2779  0.8016
  554MOL0     C74664   7.053   1.742   3.060  0.5723  0.8194 -0.1657
  554MOL0     C74665   6.931   1.801   3.126 -0.9429  0.2521 -0.4638
  554MOL0     C74666   6.804   1.736   3.074 -0.3552 -0.0015 -0.2540
  554MOL0     C74667   6.689   1.779   3.159  0.3029  0.1585 -0.0747
  554MOL0     C74668   6.561   1.770   3.077  0.4481  0.5353  0.2744
  554MOL0     C74669   6.513   1.901   3.023 -0.2266  0.3264  0.0927
  554MOL0     C74670   6.366   1.886   2.987  0.2960  0.0560 -0.4106
  554MOL0     C74671   6.357   1.800   2.864  0.7156 -0.2326  0.4814
  554MOL0     N74672   6.220   1.767   2.822 -1.2838 -0.1186  0.4620
  554MOL0     C74673   6.139   1.681   2.885  0.4691 -0.3622 -0.7198
  554MOL0     C74674   6.029   1.659   2.806 -0.8384 -0.1247 -0.4250
  554MOL0     C74675   5.897   1.586   2.853  0.5823 -0.6608  0.6441
  554MOL0     C74676   5.819   1.518   2.734 -0.5445 -0.5757 -0.0267
  554MOL0     C74677   5.704   1.449   2.796 -0.8491  0.3592  0.1888
  554MOL0     C74678   5.737   1.321   2.870  0.2733  0.7527 -0.0862
  554MOL0     O74679   5.832   1.251   2.792 -0.3192 -0.1585 -0.0494
  554MOL0     C74680   5.775   1.173   2.690 -0.9587  0.2827  0.6506
  554MOL0     C74681   5.872   1.141   2.593  1.1193 -0.6802  0.2239
  554MOL0     C74682   5.850   1.065   2.481 -0.1530  0.7684  0.0140
  554MOL0     C74683   5.962   1.048   2.375  0.6088 -0.4136  0.1438
  554MOL0     C74684   5.718   1.005   2.479  1.1428  0.1641  0.5581
  554MOL0     C74685   5.671   0.933   2.363  0.1770  0.4499  0.1548
  554MOL0     O74686   5.625   0.808   2.385  0.2111  0.6004  0.1067
  554MOL0     C74687   5.627   0.717   2.278 -0.7685 -0.4205  0.5814
  554MOL0     C74688   5.510   0.664   2.238  0.3507 -0.2659  0.1417
  554MOL0     C74689   5.511   0.581   2.131 -0.0890 -0.2134  0.0322
  554MOL0     C74690   5.624   0.552   2.056  0.1537  0.3116  0.3727
  554MOL0     O74691   5.598   0.461   1.954 -0.8932 -0.4219  0.1169
  554MOL0     C74692   5.715   0.451   1.866  0.0829  0.6775 -0.1995
  554MOL0     C74693   5.670   0.385   1.732 -0.5084  0.1515  0.4441
  554MOL0     C74694   5.771   0.415   1.620  0.5847  1.0619 -0.6372
  554MOL0     C74695   5.909   0.356   1.669 -0.1722 -0.3757  0.3291
  554MOL0     C74696   6.015   0.370   1.564 -0.7583 -0.2129  0.0490
  554MOL0     C74697   6.074   0.516   1.558 -0.0649 -0.0534 -0.0490
  554MOL0     C74698   6.103   0.578   1.696  0.0781 -0.6180  0.4542
  554MOL0     C74699   6.228   0.666   1.697  0.6074  0.2026  0.2627
  554MOL0    Cl74700   6.367   0.564   1.658  0.4400  0.2467  0.0907
  554MOL0     C74701   5.738   0.610   2.092 -0.8604  1.4254  0.5331
  554MOL0     C74702   5.744   0.698   2.197 -0.4198 -0.6365 -0.6752
  554MOL0     O74703   5.675   0.994   2.253 -0.1168  0.4584 -0.3923
  554MOL0     C74704   5.621   1.023   2.584  0.1164 -0.5792  0.0623
  554MOL0     C74705   5.649   1.112   2.684 -0.3953 -0.4156 -0.7901
  554MOL0     N74706   6.054   1.735   2.699  0.4938  0.5139 -0.5669
  554MOL0     N74707   6.159   1.813   2.709  0.2015  0.6028  0.1668
  554MOL0     C74708   7.279   1.832   2.863 -0.0696  0.2802 -0.5341
  554MOL0     C74709   7.400   1.801   2.805 -0.6308 -0.7783  0.1267
  554MOL0     C74710   7.705   1.611   2.496 -0.0536 -0.9930 -0.2136
  554MOL0     C74711   7.754   1.639   2.366  0.0504  0.1171  0.3260
  554MOL0     C74712   7.882   1.600   2.327  0.2440  0.9208 -0.5004
  554MOL0     C74713   7.961   1.520   2.421 -0.0618  0.4870  0.1478
  554MOL0     O74714   8.081   1.468   2.376 -0.0653  0.2738  0.7379
  554MOL0     C74715   8.181   1.569   2.364 -0.4128 -0.3019 -0.7444
  554MOL0     C74716   8.229   1.616   2.505  1.0137 -1.1147  0.7374
  554MOL0     C74717   8.354   1.716   2.504 -0.7080 -0.8014  0.9400
  554MOL0     C74718   8.474   1.687   2.406  0.4473  1.0981 -0.5704
  554MOL0     C74719   8.597   1.754   2.435 -0.3893  0.4435  0.2319
  554MOL0     C74720   8.703   1.816   2.451  0.0617 -0.4816 -0.6872
  554MOL0     C74721   7.897   1.474   2.531 -0.3682  0.1074 -0.7823
  554MOL0     C74722   7.777   1.533   2.580  0.8650  0.3408 -1.1676
  554MOL0     H74723   7.314   1.519   2.650  1.5395 -0.7286  0.5502
  554MOL0     H74724   7.080   1.581   2.749 -1.4082  1.6527 -0.4286
  554MOL0     H74725   7.038   1.633   3.055 -0.2064  0.7086  2.8784
  554MOL0     H74726   7.143   1.774   3.113  1.3170  2.2247 -2.1496
  554MOL0     H74727   6.943   1.784   3.233  1.9850 -3.1786 -1.1207
  554MOL0     H74728   6.945   1.909   3.117  0.4467  0.3989  2.3679
  554MOL0     H74729   6.790   1.760   2.968  2.0784  0.4942 -0.5059
  554MOL0     H74730   6.822   1.629   3.083  2.9600  0.4510 -0.1940
  554MOL0     H74731   6.667   1.702   3.233 -3.1333 -1.3097 -2.3297
  554MOL0     H74732   6.699   1.880   3.199 -1.6588  0.4651 -0.2687
  554MOL0     H74733   6.586   1.699   2.998 -0.2103  0.7746 -0.1527
  554MOL0     H74734   6.483   1.722   3.137 -2.4487 -0.0663 -3.6397
  554MOL0     H74735   6.517   1.991   3.083 -2.3692  2.0507 -2.1416
  554MOL0     H74736   6.577   1.914   2.935 -2.0125 -4.3352 -2.2993
  554MOL0     H74737   6.302   1.844   3.065  0.8429 -0.7550 -0.3887
  554MOL0     H74738   6.322   1.984   2.967 -1.2032 -0.1257  1.7090
  554MOL0     H74739   6.406   1.703   2.879  2.5894  0.9607  2.6570
  554MOL0     H74740   6.413   1.850   2.784 -0.0605  0.5383  0.4090
  554MOL0     H74741   6.157   1.636   2.982 -1.0430  1.0306  0.2670
  554MOL0     H74742   5.939   1.511   2.921  2.5834  1.7136  2.2214
  554MOL0     H74743   5.838   1.660   2.909  0.1415  0.3350 -1.0625
  554MOL0     H74744   5.883   1.451   2.677 -1.0543 -0.7298 -0.4187
  554MOL0     H74745   5.778   1.601   2.675  1.3389  0.8260  0.5385
  554MOL0     H74746   5.643   1.429   2.707  0.5592  1.3875 -1.0669
  554MOL0     H74747   5.654   1.517   2.864 -0.5754  0.2682  0.4860
  554MOL0     H74748   5.650   1.260   2.897  0.6735 -0.0019 -0.4580
  554MOL0     H74749   5.780   1.340   2.969 -1.0631  2.6282  0.1782
  554MOL0     H74750   5.972   1.183   2.599  0.1442  1.7804  0.6374
  554MOL0     H74751   6.002   1.149   2.362 -0.5544 -0.1254 -1.6812
  554MOL0     H74752   6.032   0.971   2.409 -0.3238 -3.4287 -3.9947
  554MOL0     H74753   5.933   1.022   2.272 -1.7153  3.0018 -0.2276
  554MOL0     H74754   5.431   0.683   2.310  0.9356 -1.3891  1.1202
  554MOL0     H74755   5.418   0.532   2.106 -1.5029  1.9975  0.6912
  554MOL0     H74756   5.754   0.549   1.837  1.7755 -0.2893 -1.3225
  554MOL0     H74757   5.796   0.397   1.914 -0.5350  1.1314  1.4046
  554MOL0     H74758   5.655   0.278   1.748  0.2760 -0.2903 -1.3950
  554MOL0     H74759   5.581   0.441   1.700  0.9133  0.4170 -3.7295
  554MOL0     H74760   5.782   0.521   1.596  0.3018  1.1328 -0.4565
  554MOL0     H74761   5.745   0.350   1.537  0.4821 -0.2095  0.3541
  554MOL0     H74762   5.936   0.403   1.764  1.5879 -0.3013 -0.1711
  554MOL0     H74763   5.895   0.250   1.690 -0.0104 -0.3336  0.6698
  554MOL0     H74764   5.975   0.348   1.464  2.4720 -3.2829 -0.7665
  554MOL0     H74765   6.091   0.300   1.600 -1.4179  0.6248  3.4034
  554MOL0     H74766   6.171   0.500   1.508  0.8250  1.0241  1.2508
  554MOL0     H74767   6.017   0.573   1.485  0.7099 -1.7293 -2.0901
  554MOL0     H74768   6.141   0.499   1.762 -0.3786 -2.2243 -1.0988
  554MOL0     H74769   6.012   0.622   1.739 -0.3922  0.5951 -1.6263
  554MOL0     H74770   6.245   0.699   1.800  2.7117  0.7937 -0.2304
  554MOL0     H74771   6.220   0.763   1.647 -2.0046 -0.0950 -0.0609
  554MOL0     H74772   5.832   0.573   2.050  0.4144  3.2604  1.6132
  554MOL0     H74773   5.830   0.752   2.235 -1.3064 -0.1369  0.7142
  554MOL0     H74774   5.523   0.978   2.578  1.1044 -2.9705  0.5505
  554MOL0     H74775   5.579   1.144   2.761  1.0487  1.3169 -0.1159
  554MOL0     H74776   7.284   1.917   2.930 -1.0751 -0.0100 -0.0702
  554MOL0     H74777   7.480   1.872   2.821 -1.6186  0.7804 -1.5285
  554MOL0     H74778   7.687   1.690   2.297 -0.2311  1.7516  1.7520
  554MOL0     H74779   7.914   1.606   2.223 -0.0539 -1.6935 -0.7959
  554MOL0     H74780   8.273   1.527   2.322  2.7438  2.0784  3.0926
  554MOL0     H74781   8.141   1.653   2.307 -2.0870  0.4448  1.4085
  554MOL0     H74782   8.239   1.526   2.565 -0.2456 -1.2210  0.8137
  554MOL0     H74783   8.150   1.685   2.534  3.2910  3.7118 -2.9606
  554MOL0     H74784   8.390   1.710   2.607 -0.1916  0.2388  0.8243
  554MOL0     H74785   8.319   1.818   2.491  0.5052 -0.4438  0.3155
  554MOL0     H74786   8.445   1.702   2.302 -2.1916  0.7756  0.0376
  554MOL0     H74787   8.481   1.580   2.427 -0.7795  1.0742 -0.1650
  554MOL0     H74788   8.796   1.866   2.434 -1.7827  3.4660 -0.3166
  554MOL0     H74789   7.943   1.401   2.597 -4.4888 -0.5415  1.7177
  554MOL0     H74790   7.741   1.503   2.678 -1.2152 -0.9340 -2.2453
  555MOL0     O74791   7.375   6.664   8.174 -0.0520 -0.2765 -0.0283
  555MOL0     C74792   7.349   6.786   8.175  0.1319  0.1952  0.0805
  555MOL0     O74793   7.433   6.891   8.211 -0.4425  0.0844  0.5907
  555MOL0     C74794   7.567   6.868   8.230 -0.2044 -0.9232  0.0270
  555MOL0     C74795   7.658   6.959   8.173  0.8323 -0.0074 -0.7125
  555MOL0     C74796   7.804   6.925   8.167  0.6201 -0.4714  1.0832
  555MOL0     C74797   7.847   6.808   8.231  0.0516 -0.6636  0.4445
  555MOL0     O74798   7.987   6.791   8.241 -0.1636 -0.3631 -0.1827
  555MOL0     C74799   8.036   6.661   8.276 -0.6426 -0.4606 -0.1135
  555MOL0     C74800   8.174   6.658   8.207  1.2862 -0.4680 -0.7175
  555MOL0     C74801   8.279   6.757   8.257  0.3906 -0.8287  0.7299
  555MOL0     C74802   8.422   6.698   8.224 -0.8430 -0.2128  0.4308
  555MOL0     C74803   8.539   6.792   8.235 -0.4426  0.0850  0.6813
  555MOL0     C74804   8.529   6.873   8.368 -0.0275 -0.4984  0.0570
  555MOL0     C74805   8.660   6.947   8.406  0.1656  0.2287  0.1905
  555MOL0     C74806   8.652   7.012   8.549  0.4678  0.4756  0.3595
  555MOL0     N74807   8.773   7.088   8.568  0.3486  0.5996 -0.1805
  555MOL0     C74808   8.861   7.070   8.676  1.1020 -0.5062  0.2035
  555MOL0     C74809   8.941   7.173   8.674  0.5823 -0.5677 -0.2565
  555MOL0     C74810   9.055   7.195   8.775 -1.2681 -0.4770  0.9465
  555MOL0     C74811   9.193   7.203   8.701 -0.0251 -0.1879  0.0154
  555MOL0     C74812   9.200   7.089   8.593 -0.1099  0.9714  0.0655
  555MOL0     C74813   9.227   6.954   8.661 -0.5730 -1.0004 -0.0637
  555MOL0     O74814   9.270   6.855   8.563 -0.1383 -0.0005  0.7586
  555MOL0     C74815   9.384   6.879   8.486  1.1399 -0.7601  0.2459
  555MOL0     C74816   9.505   6.893   8.543 -0.4688 -0.3695  0.5967
  555MOL0     C74817   9.618   6.913   8.461  0.6235  0.2001 -0.7700
  555MOL0     C74818   9.751   6.914   8.538  0.2327  0.3721 -0.7071
  555MOL0     C74819   9.604   6.911   8.319  0.4537  0.1849  0.0926
  555MOL0     C74820   9.722   6.915   8.229  0.5151 -0.1285  0.5099
  555MOL0     O74821   9.691   6.901   8.097 -0.2725  0.3700 -0.2165
  555MOL0     C74822   9.806   6.914   8.021 -0.1869  0.0442  1.1665
  555MOL0     C74823   9.907   6.811   8.019  1.0488 -0.4700  0.3040
  555MOL0     C74824  10.008   6.809   7.920  0.1992  0.2919  0.2085
  555MOL0     C74825  10.027   6.910   7.827  0.8123 -0.4477  0.1622
  555MOL0     O74826  10.114   6.935   7.723 -0.0552  0.9133 -0.6480
  555MOL0     C74827  10.242   6.873   7.751 -0.8051  0.4432 -0.5781
  555MOL0     C74828  10.333   6.883   7.638  0.5998  0.5412 -0.4150
  555MOL0     C74829  10.483   6.899   7.685 -0.3383 -0.8164  0.6052
  555MOL0     C74830  10.584   6.884   7.573  0.1710  0.4355  1.0774
  555MOL0     C74831  10.709   6.971   7.588  0.3701 -0.7405 -0.0156
  555MOL0     C74832  10.815   6.946   7.488  0.9085  0.4915  0.7155
  555MOL0     C74833  10.865   6.810   7.471  0.4418  0.3348 -0.1983
  555MOL0     C74834  10.950   6.810   7.341  0.0515 -0.3019 -0.0368
  555MOL0    Cl74835  10.989   6.648   7.277  0.1644  0.8607 -0.0979
  555MOL0     C74836   9.932   7.015   7.835 -0.0134  0.0666  0.1038
  555MOL0     C74837   9.823   7.014   7.924 -0.2445  0.9318 -0.3728
  555MOL0     O74838   9.833   6.909   8.280 -0.5800 -0.2189 -0.8919
  555MOL0     C74839   9.476   6.897   8.261 -0.2453 -0.2378 -0.5778
  555MOL0     C74840   9.367   6.890   8.345 -0.1397  0.0266 -0.2072
  555MOL0     N74841   8.901   7.256   8.568 -0.0805 -0.0694 -0.9649
  555MOL0     N74842   8.808   7.200   8.500 -0.3806  0.0887  0.3841
  555MOL0     C74843   7.758   6.725   8.298  0.6387 -0.2696 -0.8623
  555MOL0     C74844   7.621   6.753   8.289  0.2307  0.1216  0.9034
  555MOL0     C74845   7.206   6.828   8.135  0.3500 -0.9043 -0.2985
  555MOL0     C74846   7.128   6.747   8.055 -0.4462  0.1710  0.2663
  555MOL0     C74847   6.991   6.770   8.026  0.1236  0.3091  0.7522
  555MOL0     C74848   6.926   6.884   8.069 -0.9506  0.7398 -0.0841
  555MOL0     O74849   6.800   6.910   8.027 -0.6637 -0.3172 -0.0920
  555MOL0     C74850   6.729   7.028   8.076  0.0686 -0.3144  0.0474
  555MOL0     C74851   6.695   7.028   8.230 -0.5597  0.6069  0.2831
  555MOL0     C74852   6.636   6.888   8.270  0.4211 -0.4410  0.2125
  555MOL0     C74853   6.510   6.850   8.196 -0.6393 -0.3937 -0.0843
  555MOL0     C74854   6.441   6.734   8.249 -0.1994 -0.8402 -0.3839
  555MOL0     C74855   6.376   6.655   8.311  0.6454  0.5829  0.2907
  555MOL0     C74856   7.006   6.968   8.153 -0.1320  0.1419 -0.3266
  555MOL0     C74857   7.144   6.945   8.184 -0.1477 -0.8440  0.0085
  555MOL0     H74858   7.614   7.048   8.129  4.1254  2.8684  1.2774
  555MOL0     H74859   7.873   6.997   8.124 -0.5154 -0.0019 -0.0017
  555MOL0     H74860   8.055   6.639   8.382  1.8014 -1.1700 -0.6381
  555MOL0     H74861   7.981   6.574   8.237 -1.2305 -0.2468  0.2158
  555MOL0     H74862   8.220   6.563   8.234  0.9852  0.1774  2.3324
  555MOL0     H74863   8.143   6.658   8.102 -2.9185 -0.4996  0.3505
  555MOL0     H74864   8.276   6.853   8.205 -1.0769 -2.9526 -3.6972
  555MOL0     H74865   8.271   6.776   8.364  2.0077  1.3610  0.5206
  555MOL0     H74866   8.438   6.612   8.289 -6.3986 -3.1308 -1.4694
  555MOL0     H74867   8.419   6.664   8.120  1.0744 -2.4193  1.0160
  555MOL0     H74868   8.634   6.738   8.240 -0.4625  0.1155  1.4224
  555MOL0     H74869   8.540   6.870   8.158  1.0568 -0.8780 -0.3360
  555MOL0     H74870   8.440   6.937   8.375  0.2424 -0.1639  0.4545
  555MOL0     H74871   8.504   6.802   8.448 -0.2642 -1.1603 -0.5949
  555MOL0     H74872   8.741   6.873   8.404  2.6085  2.5850  2.6969
  555MOL0     H74873   8.697   7.028   8.343  4.9227  0.2820  2.5381
  555MOL0     H74874   8.623   6.943   8.629 -0.3142 -0.1650 -0.4590
  555MOL0     H74875   8.580   7.094   8.549  1.2986  1.2147  0.7718
  555MOL0     H74876   8.856   6.984   8.741  0.1444  0.7073  1.8189
  555MOL0     H74877   9.027   7.286   8.830  2.4207  2.1310 -1.0657
  555MOL0     H74878   9.057   7.113   8.847 -1.0249 -0.5628  0.8432
  555MOL0     H74879   9.272   7.205   8.777 -1.2844  0.1765  1.3702
  555MOL0     H74880   9.191   7.292   8.637 -1.4159 -2.3551 -3.2163
  555MOL0     H74881   9.288   7.103   8.529  1.0842  1.8265  1.8251
  555MOL0     H74882   9.108   7.081   8.533 -1.1389  0.8228  1.6124
  555MOL0     H74883   9.140   6.919   8.718 -2.6504 -0.2404 -2.5706
  555MOL0     H74884   9.311   6.976   8.728 -2.6398  0.8112  2.1215
  555MOL0     H74885   9.516   6.871   8.649  3.4496 -2.0969  0.0136
  555MOL0     H74886   9.810   7.001   8.510 -0.8662  1.7929  1.1253
  555MOL0     H74887   9.734   6.933   8.644  0.2158  1.2892 -0.8668
  555MOL0     H74888   9.811   6.823   8.530  0.9915  0.8165 -0.2048
  555MOL0     H74889   9.908   6.726   8.087  0.0393 -1.4454 -0.8528
  555MOL0     H74890  10.072   6.721   7.914  0.0645  0.1211  1.0960
  555MOL0     H74891  10.291   6.927   7.833  1.2634 -1.7650 -0.2281
  555MOL0     H74892  10.235   6.769   7.784  0.4857 -0.7240 -3.6247
  555MOL0     H74893  10.315   6.793   7.579 -3.1854 -0.3057  1.7034
  555MOL0     H74894  10.298   6.977   7.595  0.8647  1.4832  1.3050
  555MOL0     H74895  10.502   6.822   7.761 -2.1630 -0.5987  1.3406
  555MOL0     H74896  10.501   7.003   7.714 -1.1340 -0.4787 -0.0842
  555MOL0     H74897  10.605   6.777   7.576  0.9294  0.5642  0.4404
  555MOL0     H74898  10.545   6.910   7.474  1.4673  3.1062  1.2011
  555MOL0     H74899  10.757   6.959   7.685  5.6237  3.4836 -1.5487
  555MOL0     H74900  10.670   7.073   7.585 -1.1409 -1.2627  0.8693
  555MOL0     H74901  10.762   6.978   7.398 -1.2341  1.4628  2.2188
  555MOL0     H74902  10.896   7.012   7.520  1.1731 -0.4001  1.9858
  555MOL0     H74903  10.778   6.745   7.459  0.3791  0.3827 -0.0104
  555MOL0     H74904  10.928   6.787   7.557 -0.3589 -3.4105 -0.4577
  555MOL0     H74905  11.048   6.857   7.358  0.7036 -1.5202 -0.3259
  555MOL0     H74906  10.893   6.869   7.269 -0.9671  4.6261  4.2369
  555MOL0     H74907   9.943   7.093   7.760  3.8981 -1.8648 -1.6432
  555MOL0     H74908   9.756   7.099   7.924 -0.2268  1.0345  2.1988
  555MOL0     H74909   9.475   6.889   8.153 -0.6854  2.0949 -0.7854
  555MOL0     H74910   9.264   6.895   8.311  0.1398  1.5452 -0.9202
  555MOL0     H74911   7.780   6.647   8.369 -2.5642  0.9145  1.6604
  555MOL0     H74912   7.549   6.687   8.336 -0.3515  1.5702  2.1303
  555MOL0     H74913   7.176   6.660   8.010  3.1295  2.1282 -0.1255
  555MOL0     H74914   6.930   6.700   7.969  1.0902  0.4706 -0.5323
  555MOL0     H74915   6.769   7.127   8.049 -3.5892  0.7787 -2.1863
  555MOL0     H74916   6.633   7.018   8.024 -0.2331 -3.6028  1.0491
  555MOL0     H74917   6.620   7.108   8.230 -0.4229  0.8704 -2.9603
  555MOL0     H74918   6.782   7.055   8.290  0.3106 -2.8491  0.7893
  555MOL0     H74919   6.596   6.905   8.370  4.1196  2.6169  1.3917
  555MOL0     H74920   6.714   6.812   8.271 -0.0299 -0.9834  3.3737
  555MOL0     H74921   6.542   6.823   8.095  1.5482  2.4955 -0.3206
  555MOL0     H74922   6.449   6.940   8.183  1.2506  0.7383 -1.8277
  555MOL0     H74923   6.319   6.589   8.373 -0.0460  0.6798 -0.2426
  555MOL0     H74924   6.969   7.068   8.175  0.2102 -0.3279  2.8786
  555MOL0     H74925   7.195   7.026   8.235 -4.0216  1.7835  0.1973
  556MOL0     O74926   4.822  10.257   7.962  0.6658  0.0719  0.9383
  556MOL0     C74927   4.721  10.279   8.027 -0.0351  0.8035  0.0701
  556MOL0     O74928   4.621  10.367   8.008  0.4437 -0.0891 -0.1053
  556MOL0     C74929   4.633  10.457   7.910  0.6480  0.2966  0.7204
  556MOL0     C74930   4.756  10.525   7.893  0.6827 -0.5045 -0.3309
  556MOL0     C74931   4.760  10.627   7.805 -0.3606  0.6373  0.0381
  556MOL0     C74932   4.659  10.646   7.705 -0.2712 -0.4432  0.0813
  556MOL0     O74933   4.651  10.747   7.613  1.0753 -0.1256  0.5828
  556MOL0     C74934   4.760  10.837   7.608  0.6426 -0.4089  0.5749
  556MOL0     C74935   4.747  10.934   7.497  0.3818  0.5424 -0.2100
  556MOL0     C74936   4.762  10.861   7.358 -0.2895 -0.1691 -0.7774
  556MOL0     C74937   4.753  10.980   7.260 -0.1057 -0.4434 -0.0076
  556MOL0     C74938   4.788  10.935   7.125  0.9962  0.0605  0.8176
  556MOL0     C74939   4.716  10.803   7.065  0.8234 -0.4205 -0.3722
  556MOL0     C74940   4.572  10.814   7.077 -0.0642  0.2633 -0.2816
  556MOL0     C74941   4.503  10.922   6.992  0.2811  0.1460 -0.7399
  556MOL0     N74942   4.578  10.938   6.866 -0.6908  0.4283  0.2802
  556MOL0     C74943   4.630  11.062   6.832 -0.2357  0.0692 -0.4105
  556MOL0     C74944   4.674  11.047   6.703 -0.1759  0.2185 -0.0396
  556MOL0     C74945   4.743  11.152   6.622 -0.4213  0.9411  1.0273
  556MOL0     C74946   4.849  11.225   6.705 -0.8029 -0.6097  1.2992
  556MOL0     C74947   4.971  11.142   6.727 -0.7859 -0.5651  0.0865
  556MOL0     C74948   5.064  11.231   6.810  0.6180 -0.5598 -0.6432
  556MOL0     O74949   5.170  11.153   6.871  0.3679 -0.4385  0.1223
  556MOL0     C74950   5.273  11.103   6.791 -0.1464 -1.1000  0.2202
  556MOL0     C74951   5.291  10.964   6.784  0.9963  0.7201 -0.2117
  556MOL0     C74952   5.397  10.910   6.714 -0.2425  0.1574 -0.8438
  556MOL0     C74953   5.413  10.762   6.696 -0.4297  0.0270  0.0929
  556MOL0     C74954   5.493  10.991   6.656 -0.7573 -0.3254  0.0586
  556MOL0     C74955   5.614  10.943   6.587  1.1996 -0.8247 -0.5158
  556MOL0     O74956   5.729  11.013   6.621 -0.3776  1.0921  0.3728
  556MOL0     C74957   5.843  10.951   6.579 -0.5465 -0.6995  0.4694
  556MOL0     C74958   5.906  10.985   6.464 -0.0079 -0.5500  0.3045
  556MOL0     C74959   6.024  10.915   6.428 -0.1070 -1.4902  0.2193
  556MOL0     C74960   6.081  10.843   6.524 -0.2382  0.3931  1.0520
  556MOL0     O74961   6.205  10.791   6.481  0.3421 -0.3521 -0.7973
  556MOL0     C74962   6.315  10.845   6.545 -0.1763 -0.4220  0.4895
  556MOL0     C74963   6.442  10.841   6.453  0.5040  0.7733 -0.5762
  556MOL0     C74964   6.499  10.691   6.449 -0.0417  0.0502 -0.6784
  556MOL0     C74965   6.549  10.630   6.315 -0.5376  0.7888 -0.6510
  556MOL0     C74966   6.433  10.557   6.250  0.5516  0.0767 -0.0157
  556MOL0     C74967   6.426  10.570   6.099 -0.5759 -0.1902 -0.2844
  556MOL0     C74968   6.314  10.477   6.053  0.1341 -0.2449  0.1263
  556MOL0     C74969   6.353  10.341   5.992 -1.1459 -0.8031  0.0217
  556MOL0    Cl74970   6.481  10.365   5.861 -0.5848 -0.0875  0.1442
  556MOL0     C74971   6.018  10.795   6.643  0.1809  0.0699 -0.1501
  556MOL0     C74972   5.899  10.856   6.667 -0.1722  0.1013  0.2622
  556MOL0     O74973   5.611  10.844   6.513 -0.3051  0.1817  0.5672
  556MOL0     C74974   5.468  11.128   6.661  0.7763 -0.9523  0.4465
  556MOL0     C74975   5.365  11.188   6.732 -0.1179  0.4508  0.0030
  556MOL0     N74976   4.654  10.914   6.663 -0.1308  0.1611 -1.3780
  556MOL0     N74977   4.588  10.852   6.762  0.1133  0.8451 -1.0967
  556MOL0     C74978   4.538  10.574   7.724  0.3044  0.0384 -1.3083
  556MOL0     C74979   4.522  10.483   7.827 -0.7514  0.6844 -0.0219
  556MOL0     C74980   4.697  10.192   8.145  0.3752 -0.2502 -0.7195
  556MOL0     C74981   4.601  10.233   8.238 -0.0484 -0.8931  0.5747
  556MOL0     C74982   4.598  10.181   8.367  0.9772 -0.2260  0.2886
  556MOL0     C74983   4.691  10.086   8.415 -0.4044 -0.1409 -0.2858
  556MOL0     O74984   4.716  10.037   8.539 -0.2104  0.4371 -0.7815
  556MOL0     C74985   4.641  10.088   8.660  0.6344  0.4283  0.0387
  556MOL0     C74986   4.735  10.080   8.776 -0.3880 -1.2433 -0.6524
  556MOL0     C74987   4.664  10.114   8.910 -0.5945 -0.3005  0.0164
  556MOL0     C74988   4.764  10.084   9.022 -0.2911  0.2835 -0.9678
  556MOL0     C74989   4.817   9.944   9.019 -0.6637  0.4357 -0.1907
  556MOL0     C74990   4.884   9.834   9.016  0.9349  0.3209  0.6007
  556MOL0     C74991   4.781  10.039   8.315  0.4063 -0.3727  0.6803
  556MOL0     C74992   4.792  10.095   8.193 -0.6420  0.6958  0.2592
  556MOL0     H74993   4.830  10.496   7.966 -0.2329 -1.2697  0.3205
  556MOL0     H74994   4.850  10.688   7.807  1.7469 -2.2770  0.2350
  556MOL0     H74995   4.771  10.886   7.705 -2.7111 -0.0813  0.9217
  556MOL0     H74996   4.856  10.786   7.598  0.4686 -1.0580  1.9445
  556MOL0     H74997   4.642  10.964   7.505 -1.2698 -3.9032 -2.1107
  556MOL0     H74998   4.810  11.021   7.518  2.0155 -0.8995  1.2381
  556MOL0     H74999   4.855  10.805   7.344 -0.5401 -0.5053 -1.1225
  556MOL0     H75000   4.678  10.793   7.342  0.6723 -1.1960 -1.6781
  556MOL0     H75001   4.646  11.005   7.255 -0.1992 -1.0175 -1.3299
  556MOL0     H75002   4.816  11.064   7.291  0.9223 -1.6833  1.3724
  556MOL0     H75003   4.781  11.019   7.055 -0.8939 -0.5478  0.2196
  556MOL0     H75004   4.895  10.911   7.121  0.7643 -0.8056 -1.4997
  556MOL0     H75005   4.743  10.788   6.960 -0.4946  0.1104 -0.8046
  556MOL0     H75006   4.758  10.719   7.122  0.1771 -1.8441 -1.9117
  556MOL0     H75007   4.533  10.715   7.053  2.6043 -1.1425  0.6886
  556MOL0     H75008   4.538  10.833   7.180 -0.3914 -0.3381 -0.2743
  556MOL0     H75009   4.499  11.020   7.041  1.7632  1.5067 -3.1115
  556MOL0     H75010   4.402  10.892   6.963 -0.0494  1.8395 -1.4628
  556MOL0     H75011   4.624  11.156   6.886 -1.0139  0.5564 -1.3309
  556MOL0     H75012   4.783  11.099   6.535 -1.3536  1.4781  0.2392
  556MOL0     H75013   4.670  11.224   6.583 -1.2820 -0.2129  0.3991
  556MOL0     H75014   4.795  11.254   6.795 -0.6577 -1.7437  1.7641
  556MOL0     H75015   4.879  11.315   6.651 -0.3545 -1.0570  0.7940
  556MOL0     H75016   5.030  11.122   6.637  1.9788  2.1018  1.1085
  556MOL0     H75017   4.934  11.048   6.769 -0.9263 -0.7026 -0.3413
  556MOL0     H75018   5.003  11.274   6.890  1.1596 -1.5573  0.3355
  556MOL0     H75019   5.104  11.311   6.746  0.2316  0.9208  0.9043
  556MOL0     H75020   5.226  10.890   6.830  0.6928 -0.7158 -2.7776
  556MOL0     H75021   5.342  10.710   6.760 -2.9428  1.9417 -0.9856
  556MOL0     H75022   5.400  10.730   6.593  2.2833 -3.2238  0.5733
  556MOL0     H75023   5.516  10.740   6.726 -0.1044 -0.5438 -1.3437
  556MOL0     H75024   5.859  11.051   6.392  3.2528  0.8511 -0.7020
  556MOL0     H75025   6.064  10.933   6.328 -1.6072 -2.2184 -0.5530
  556MOL0     H75026   6.299  10.953   6.551  0.7695 -0.2680  0.3306
  556MOL0     H75027   6.330  10.805   6.645 -0.3791 -0.1428  0.6332
  556MOL0     H75028   6.414  10.870   6.351 -0.9926 -0.9185 -0.6871
  556MOL0     H75029   6.515  10.911   6.496  1.5169  0.5570 -1.8893
  556MOL0     H75030   6.432  10.626   6.507  2.4257 -1.1729  0.9618
  556MOL0     H75031   6.582  10.688   6.519 -0.4520  1.5999 -0.0720
  556MOL0     H75032   6.582  10.711   6.250  1.4230 -1.2490 -2.3291
  556MOL0     H75033   6.627  10.555   6.327 -1.4050 -0.0455  0.0179
  556MOL0     H75034   6.338  10.589   6.294  1.1345 -0.2159  1.4997
  556MOL0     H75035   6.439  10.452   6.279  0.8743  0.0343 -0.2270
  556MOL0     H75036   6.407  10.671   6.061  2.3910 -0.2070 -2.1701
  556MOL0     H75037   6.526  10.548   6.059  0.1045  0.0890  1.2171
  556MOL0     H75038   6.268  10.539   5.976  0.0148  1.7025  1.6963
  556MOL0     H75039   6.241  10.472   6.133  2.3895  3.7913  2.7755
  556MOL0     H75040   6.258  10.300   5.957 -2.9575  2.8074  0.2938
  556MOL0     H75041   6.395  10.269   6.062 -0.3955 -0.3132  0.0976
  556MOL0     H75042   6.059  10.715   6.705 -0.1309 -0.3192 -0.4447
  556MOL0     H75043   5.830  10.817   6.741 -0.2373 -2.2601 -0.9435
  556MOL0     H75044   5.539  11.197   6.616 -0.3601  0.0435  0.1323
  556MOL0     H75045   5.361  11.296   6.743  1.6222  0.3701  2.3131
  556MOL0     H75046   4.452  10.578   7.658 -0.1581  0.7043 -0.6867
  556MOL0     H75047   4.439  10.414   7.838  1.1252 -1.6843  0.1405
  556MOL0     H75048   4.532  10.313   8.214 -3.4439 -3.4916  0.8895
  556MOL0     H75049   4.539  10.231   8.443  3.3364  0.2493  1.9001
  556MOL0     H75050   4.602  10.190   8.648  0.3429  0.3259  0.1056
  556MOL0     H75051   4.554  10.023   8.672  1.4557 -0.7526 -0.3153
  556MOL0     H75052   4.809  10.159   8.756 -2.5903  0.8214 -1.1264
  556MOL0     H75053   4.774   9.979   8.763  1.1501 -0.5227 -2.0451
  556MOL0     H75054   4.577  10.047   8.909 -0.7796 -0.1159  1.4681
  556MOL0     H75055   4.633  10.219   8.907  2.3567  0.6407 -2.0529
  556MOL0     H75056   4.707  10.107   9.112  2.8368 -1.0428  1.5590
  556MOL0     H75057   4.850  10.149   9.041 -0.4641  0.3166 -0.2539
  556MOL0     H75058   4.936   9.740   9.018  0.2971 -0.0309  1.0143
  556MOL0     H75059   4.853   9.962   8.342 -0.8716 -1.1001  2.2661
  556MOL0     H75060   4.866  10.056   8.123 -1.4523 -6.1903  2.4279
  557MOL0     O75061   5.770   8.172   9.611  0.2459 -0.1006  0.6125
  557MOL0     C75062   5.711   8.195   9.503 -0.5148 -0.2320  0.9595
  557MOL0     O75063   5.594   8.138   9.467  0.3788 -0.2096  0.4519
  557MOL0     C75064   5.534   8.045   9.554 -0.0584 -0.1414  0.9302
  557MOL0     C75065   5.609   7.939   9.606  0.8040 -0.8709 -0.0567
  557MOL0     C75066   5.551   7.859   9.705 -0.0784 -0.2928 -0.0645
  557MOL0     C75067   5.412   7.858   9.718 -0.5524 -0.5741  0.3054
  557MOL0     O75068   5.346   7.754   9.797  0.3277  0.1564 -0.7763
  557MOL0     C75069   5.212   7.704   9.772  0.0069 -1.1551 -0.1872
  557MOL0     C75070   5.200   7.565   9.838  0.6758 -0.0074 -0.1827
  557MOL0     C75071   5.047   7.540   9.845 -0.6320 -0.9681  0.5932
  557MOL0     C75072   5.021   7.393   9.859 -0.0557 -0.9531 -0.4138
  557MOL0     C75073   4.875   7.364   9.888  0.2867 -0.2987 -0.7682
  557MOL0     C75074   4.855   7.212   9.905 -0.6854  0.0338  1.2856
  557MOL0     C75075   4.882   7.131   9.780  0.7015  0.0263  0.5694
  557MOL0     C75076   4.812   6.996   9.783  0.7453  0.0618 -0.5334
  557MOL0     N75077   4.866   6.896   9.696  0.4130 -0.4607 -0.4118
  557MOL0     C75078   4.930   6.776   9.739 -0.1703  0.2930 -0.0091
  557MOL0     C75079   5.001   6.745   9.624  0.2209 -1.3588  0.5995
  557MOL0     C75080   5.104   6.632   9.604  0.1327 -0.5278  0.1349
  557MOL0     C75081   5.240   6.653   9.690  0.0793  0.5536 -1.0828
  557MOL0     C75082   5.346   6.536   9.674  0.5993 -0.8171  0.4867
  557MOL0     C75083   5.462   6.559   9.767  0.7616  0.0302 -0.1878
  557MOL0     O75084   5.573   6.472   9.740  0.3056 -0.6664  0.6003
  557MOL0     C75085   5.638   6.425   9.851  0.4524 -0.0541 -0.1799
  557MOL0     C75086   5.762   6.482   9.887 -0.0105  0.5730  0.1475
  557MOL0     C75087   5.842   6.429   9.984 -0.1462 -0.8679 -0.7800
  557MOL0     C75088   5.975   6.493  10.004 -0.7944 -0.1510  0.0711
  557MOL0     C75089   5.798   6.317  10.065 -0.6939  0.9313  0.0180
  557MOL0     C75090   5.890   6.235  10.159  0.8111 -0.9030 -0.5896
  557MOL0     O75091   5.829   6.124  10.216 -0.3599  0.2203  0.4725
  557MOL0     C75092   5.896   6.041  10.304  0.2348 -0.1098  0.2249
  557MOL0     C75093   5.804   5.973  10.388 -0.5369 -0.0420 -0.3824
  557MOL0     C75094   5.854   5.898  10.501 -0.0762  0.2213 -0.0043
  557MOL0     C75095   5.988   5.910  10.532 -0.8330  0.7805 -0.1787
  557MOL0     O75096   6.028   5.838  10.639 -0.8504 -0.5568 -0.1981
  557MOL0     C75097   6.154   5.841  10.689 -0.2658 -0.5481  0.1147
  557MOL0     C75098   6.170   5.777  10.821 -0.4492  0.0170  0.2786
  557MOL0     C75099   6.169   5.626  10.818  0.0959  0.5093  0.1744
  557MOL0     C75100   6.217   5.561  10.956  0.5263 -0.7565  0.4375
  557MOL0     C75101   6.259   5.414  10.961 -0.0975 -0.2425  0.1651
  557MOL0     C75102   6.357   5.386  11.076  0.2690 -0.6594 -0.0394
  557MOL0     C75103   6.353   5.236  11.106  0.6160  0.1842  1.0717
  557MOL0     C75104   6.423   5.192  11.225 -0.2653  0.1532  0.1327
  557MOL0    Cl75105   6.603   5.217  11.199  0.0405  0.0599  0.0062
  557MOL0     C75106   6.074   5.967  10.439 -0.8283 -1.3703  0.4947
  557MOL0     C75107   6.027   6.028  10.327  0.5518 -0.0579 -0.0217
  557MOL0     O75108   6.003   6.281  10.182  0.2544  0.4387  0.7022
  557MOL0     C75109   5.676   6.265  10.027  0.4807  0.0108  0.0988
  557MOL0     C75110   5.599   6.321   9.925 -0.4942  0.3263 -0.0135
  557MOL0     N75111   4.963   6.827   9.522 -0.3824 -0.0717  0.1230
  557MOL0     N75112   4.875   6.902   9.556 -0.2497 -0.3324 -0.3748
  557MOL0     C75113   5.341   7.954   9.645 -0.2786  0.6942 -0.0539
  557MOL0     C75114   5.401   8.045   9.567  0.3135 -0.0992  0.3882
  557MOL0     C75115   5.785   8.273   9.408  0.6967 -0.2591 -0.7421
  557MOL0     C75116   5.904   8.337   9.446 -0.7287  0.3056  0.0805
  557MOL0     C75117   5.961   8.423   9.345 -0.2330  0.2986 -0.1542
  557MOL0     C75118   5.905   8.443   9.216 -0.3828  0.1443 -0.6026
  557MOL0     O75119   5.986   8.529   9.147  0.6921  0.2107 -0.3253
  557MOL0     C75120   5.931   8.575   9.026  0.6240 -1.1926  0.5235
  557MOL0     C75121   6.023   8.685   8.968  0.6890 -0.1958  0.4933
  557MOL0     C75122   5.940   8.760   8.857 -0.3186 -0.3363 -0.4189
  557MOL0     C75123   5.934   8.916   8.884  0.2059  0.9062  0.2396
  557MOL0     C75124   5.866   8.975   8.761 -0.3062  0.3845  0.0425
  557MOL0     C75125   5.813   9.044   8.672  0.0797  0.9620 -0.1335
  557MOL0     C75126   5.793   8.371   9.173 -0.7061  1.0963 -0.7232
  557MOL0     C75127   5.737   8.292   9.270 -0.1545  1.0421  0.9504
  557MOL0     H75128   5.711   7.924   9.572  1.7092  1.4226  1.4321
  557MOL0     H75129   5.603   7.790   9.771  0.9350  0.2478 -0.2779
  557MOL0     H75130   5.145   7.776   9.819 -0.2389 -0.7555 -1.1148
  557MOL0     H75131   5.184   7.700   9.666 -0.2509 -0.5786 -0.1452
  557MOL0     H75132   5.250   7.491   9.775  1.1669 -0.5044  0.7684
  557MOL0     H75133   5.245   7.541   9.935  1.1338 -2.3351 -0.9123
  557MOL0     H75134   4.999   7.603   9.919 -2.3843 -1.6169  0.0562
  557MOL0     H75135   5.004   7.564   9.748 -2.4961 -1.5779  1.2146
  557MOL0     H75136   5.041   7.351   9.760 -1.4043 -2.6153 -0.0428
  557MOL0     H75137   5.080   7.351   9.942  0.2865 -2.4015 -1.3531
  557MOL0     H75138   4.847   7.417   9.979  0.7106 -0.0523 -0.7787
  557MOL0     H75139   4.796   7.397   9.820 -2.0011 -2.9615  0.3683
  557MOL0     H75140   4.928   7.180   9.980 -1.1353 -1.6071  1.0570
  557MOL0     H75141   4.758   7.187   9.950 -0.3541 -4.3926 -0.0198
  557MOL0     H75142   4.840   7.179   9.692  0.3336 -6.2269 -3.2944
  557MOL0     H75143   4.989   7.116   9.760  0.6457  1.9078 -1.4263
  557MOL0     H75144   4.709   7.022   9.756  0.0459 -0.6265  1.3256
  557MOL0     H75145   4.820   6.955   9.884  1.7764  0.3166 -0.4972
  557MOL0     H75146   4.925   6.720   9.832  0.9642  0.2384  0.0376
  557MOL0     H75147   5.056   6.536   9.625  4.8708 -3.5176 -1.0973
  557MOL0     H75148   5.127   6.631   9.497 -3.9775  1.0260 -0.9308
  557MOL0     H75149   5.215   6.665   9.796  1.6708  1.4270 -0.7611
  557MOL0     H75150   5.274   6.753   9.661 -1.1304  2.1812  2.4398
  557MOL0     H75151   5.376   6.519   9.571  0.7295  3.2575 -0.3193
  557MOL0     H75152   5.295   6.449   9.716  2.8523 -3.0697 -1.1649
  557MOL0     H75153   5.431   6.547   9.871 -2.5848  1.4908 -0.8865
  557MOL0     H75154   5.499   6.662   9.754  1.5488 -0.5736 -3.9405
  557MOL0     H75155   5.797   6.558   9.817 -1.9682  1.3553 -0.0306
  557MOL0     H75156   5.990   6.583   9.944  0.4714  1.0183  2.0036
  557MOL0     H75157   5.972   6.530  10.107  0.0477 -0.5017  0.2242
  557MOL0     H75158   6.050   6.419   9.973 -1.1737  0.4657 -2.5206
  557MOL0     H75159   5.700   5.975  10.358 -0.5887 -0.9628 -0.2867
  557MOL0     H75160   5.795   5.823  10.553  1.5954 -2.8580 -2.2185
  557MOL0     H75161   6.227   5.787  10.630  1.0500  2.9756 -1.7913
  557MOL0     H75162   6.196   5.942  10.692  1.3939 -1.0833 -2.4332
  557MOL0     H75163   6.269   5.805  10.857  0.0581  0.7066 -1.5388
  557MOL0     H75164   6.099   5.822  10.891 -1.2015  1.1077 -1.1351
  557MOL0     H75165   6.237   5.585  10.744  0.0748 -0.7180  0.7968
  557MOL0     H75166   6.070   5.587  10.792 -0.6081  2.1456  0.2925
  557MOL0     H75167   6.302   5.621  10.990 -1.5138  3.0386 -0.4844
  557MOL0     H75168   6.138   5.584  11.028 -0.0513  1.6149 -0.8179
  557MOL0     H75169   6.308   5.374  10.872 -0.1810 -2.0271  0.8944
  557MOL0     H75170   6.167   5.355  10.968 -0.3811 -0.0707 -1.5981
  557MOL0     H75171   6.460   5.412  11.049  0.0075  0.5497  0.0782
  557MOL0     H75172   6.315   5.436  11.163 -2.9645  0.7166 -2.1942
  557MOL0     H75173   6.385   5.181  11.017  2.0985  1.7359  0.6106
  557MOL0     H75174   6.249   5.208  11.126  0.6045 -0.5133  0.1140
  557MOL0     H75175   6.418   5.087  11.253  1.0873  1.2671  5.8121
  557MOL0     H75176   6.385   5.244  11.313 -0.3464  0.7317 -0.2337
  557MOL0     H75177   6.182   5.974  10.444 -0.6162  1.3178 -3.2932
  557MOL0     H75178   6.094   6.077  10.256 -1.1641  0.4667 -1.3743
  557MOL0     H75179   5.637   6.175  10.075 -3.4258  0.1941 -2.2698
  557MOL0     H75180   5.508   6.279   9.883 -0.8421  1.6108 -0.5705
  557MOL0     H75181   5.233   7.959   9.656 -0.3422 -1.9692  1.2446
  557MOL0     H75182   5.353   8.127   9.513  0.6233 -2.8422 -4.6432
  557MOL0     H75183   5.943   8.323   9.547  1.9571  3.0946 -0.3998
  557MOL0     H75184   6.052   8.477   9.364  0.0866 -0.5440  0.8494
  557MOL0     H75185   5.925   8.496   8.950  1.0143 -1.1725  0.4703
  557MOL0     H75186   5.832   8.611   9.053  1.5820  3.7603 -1.4748
  557MOL0     H75187   6.104   8.631   8.918 -0.8930 -0.5544 -1.7975
  557MOL0     H75188   6.062   8.747   9.050  0.3136 -0.6019  0.9830
  557MOL0     H75189   5.836   8.729   8.845  0.3586 -2.0463 -2.6351
  557MOL0     H75190   5.985   8.742   8.759  0.0959 -1.8747  0.0261
  557MOL0     H75191   6.030   8.967   8.894  0.7711 -0.0734 -0.0587
  557MOL0     H75192   5.869   8.931   8.970  1.2149  0.1880  1.1505
  557MOL0     H75193   5.773   9.120   8.608  0.0389  2.8505  1.9664
  557MOL0     H75194   5.774   8.375   9.066 -0.5313  0.9994 -0.7580
  557MOL0     H75195   5.649   8.235   9.244  0.4267  0.6052 -0.1075
  558MOL0     O75196   3.243   4.817   1.209  0.6786 -0.5239  0.6124
  558MOL0     C75197   3.167   4.890   1.283 -0.7495  1.1084 -0.5378
  558MOL0     O75198   3.066   4.966   1.241 -0.8361  0.1850 -0.0142
  558MOL0     C75199   3.041   4.989   1.112  0.1129  0.3196 -0.2422
  558MOL0     C75200   3.146   5.006   1.026 -0.4384  0.1135  0.2384
  558MOL0     C75201   3.119   5.029   0.884  0.3838 -0.4659 -0.4239
  558MOL0     C75202   2.993   5.056   0.837  0.9341  0.4443  0.6967
  558MOL0     O75203   2.959   5.076   0.698 -0.1523  0.2723 -0.3923
  558MOL0     C75204   3.059   5.091   0.610 -0.1039  0.1146  0.8889
  558MOL0     C75205   2.996   5.146   0.473  0.3816 -0.2415  0.1198
  558MOL0     C75206   2.902   5.255   0.495 -0.3850 -0.3345 -0.3050
  558MOL0     C75207   2.802   5.259   0.374  0.3579 -0.2702 -0.0058
  558MOL0     C75208   2.658   5.328   0.395  0.5868 -0.5674  0.1949
  558MOL0     C75209   2.666   5.479   0.428 -0.3828 -0.1378 -0.3526
  558MOL0     C75210   2.538   5.561   0.409 -0.5815  0.7270 -0.8458
  558MOL0     C75211   2.425   5.517   0.490  0.6188 -0.3220 -0.0648
  558MOL0     N75212   2.309   5.609   0.461  0.3779 -0.0130 -0.1306
  558MOL0     C75213   2.219   5.628   0.564  0.5205  0.1805 -0.1782
  558MOL0     C75214   2.130   5.716   0.508 -0.5876  0.7123 -0.8240
  558MOL0     C75215   2.033   5.782   0.590  1.0917 -0.7119 -0.1730
  558MOL0     C75216   1.906   5.710   0.599 -0.3214 -0.6216 -0.5093
  558MOL0     C75217   1.830   5.780   0.713 -0.7728 -0.4182 -0.4731
  558MOL0     C75218   1.676   5.742   0.722 -0.3078  1.2000  0.4107
  558MOL0     O75219   1.586   5.796   0.814 -0.2565  0.1793  0.0155
  558MOL0     C75220   1.504   5.903   0.774 -0.9415  0.2473  0.2170
  558MOL0     C75221   1.376   5.912   0.815  0.2994 -0.0015 -0.5912
  558MOL0     C75222   1.300   6.032   0.809  0.3717 -0.7467  0.0491
  558MOL0     C75223   1.167   6.032   0.866 -0.0761 -0.3028  0.6461
  558MOL0     C75224   1.358   6.147   0.742  0.7415  0.7400 -0.8539
  558MOL0     C75225   1.296   6.278   0.735 -0.7132  0.3164 -0.4590
  558MOL0     O75226   1.162   6.288   0.734  0.5654  0.2257 -0.4156
  558MOL0     C75227   1.109   6.407   0.745  0.5899 -0.4290 -0.3078
  558MOL0     C75228   1.141   6.509   0.839 -0.0474  0.7298 -0.5931
  558MOL0     C75229   1.080   6.635   0.843 -0.2206 -0.5368 -0.4426
  558MOL0     C75230   0.962   6.649   0.766 -0.6288  0.0576 -0.4142
  558MOL0     O75231   0.873   6.751   0.774  0.0418  0.4897 -0.2667
  558MOL0     C75232   0.933   6.878   0.753  0.6482  0.3959  0.4960
  558MOL0     C75233   0.851   6.986   0.681  0.9356 -0.2607 -0.3009
  558MOL0     C75234   0.728   7.049   0.760  0.7784  0.4183  0.9638
  558MOL0     C75235   0.773   7.139   0.885  0.9342  0.8942  0.0256
  558MOL0     C75236   0.663   7.224   0.930 -0.2721 -0.1775 -0.1006
  558MOL0     C75237   0.690   7.309   1.056 -0.4792 -0.9994 -0.3163
  558MOL0     C75238   0.740   7.232   1.182 -0.4255 -0.2413 -0.1584
  558MOL0     C75239   0.746   7.308   1.315 -0.1791 -1.0032 -0.0717
  558MOL0    Cl75240   0.836   7.191   1.424  0.0325  0.0893 -0.3976
  558MOL0     C75241   0.933   6.550   0.665  0.1501  0.0687  0.3701
  558MOL0     C75242   1.001   6.430   0.666  0.4419 -0.4926  0.2030
  558MOL0     O75243   1.377   6.377   0.723  0.5365 -0.3195  0.0033
  558MOL0     C75244   1.496   6.132   0.699  0.1406  0.4869  0.2188
  558MOL0     C75245   1.560   6.012   0.714  0.5674 -0.0396  0.6419
  558MOL0     N75246   2.160   5.747   0.379  0.2899 -0.0608  1.5079
  558MOL0     N75247   2.261   5.679   0.352 -0.0435 -0.1871 -0.2152
  558MOL0     C75248   2.891   5.054   0.931  0.3908  0.4717  0.9851
  558MOL0     C75249   2.915   5.024   1.065  0.8544 -0.8113  0.3020
  558MOL0     C75250   3.192   4.872   1.427  0.5761  0.2672 -0.1384
  558MOL0     C75251   3.136   4.955   1.520  0.1485 -0.3344 -0.3237
  558MOL0     C75252   3.177   4.939   1.651  0.5116 -0.2936 -0.0599
  558MOL0     C75253   3.273   4.849   1.699  0.1583 -0.5124  0.7503
  558MOL0     O75254   3.302   4.846   1.833  0.1417  0.5362  0.1879
  558MOL0     C75255   3.274   4.724   1.899 -0.5777  0.7022  0.5042
  558MOL0     C75256   3.128   4.666   1.900  0.6726  0.3045 -0.0317
  558MOL0     C75257   3.116   4.579   1.778  0.1725 -0.3095  0.9045
  558MOL0     C75258   2.973   4.522   1.775 -0.0632  0.6167 -0.5657
  558MOL0     C75259   2.877   4.634   1.787  0.0853  0.5366 -0.1517
  558MOL0     C75260   2.801   4.723   1.808 -0.3004  0.0065  0.6181
  558MOL0     C75261   3.329   4.776   1.602 -0.5231 -0.0718  0.3975
  558MOL0     C75262   3.293   4.788   1.469  0.0920  0.2216 -0.1606
  558MOL0     H75263   3.246   5.005   1.069 -1.3001  2.0407  2.5345
  558MOL0     H75264   3.205   5.028   0.818 -1.6796  1.2180 -3.4011
  558MOL0     H75265   3.136   5.164   0.636 -1.3185  2.6046 -1.8793
  558MOL0     H75266   3.103   4.992   0.591 -0.7134 -0.0363  0.1877
  558MOL0     H75267   3.074   5.177   0.402 -1.2416  2.0745 -0.7670
  558MOL0     H75268   2.939   5.065   0.428  0.8323 -1.0812  1.0313
  558MOL0     H75269   2.831   5.238   0.577  0.6677 -0.1876  0.6520
  558MOL0     H75270   2.949   5.350   0.523 -0.3724  0.2975 -2.3153
  558MOL0     H75271   2.858   5.321   0.303 -0.7226  0.2784 -0.4120
  558MOL0     H75272   2.782   5.160   0.332 -0.8441 -1.1027  2.3264
  558MOL0     H75273   2.602   5.325   0.301  1.7705 -0.8708 -0.5191
  558MOL0     H75274   2.605   5.280   0.477 -0.8938  1.4548  0.5169
  558MOL0     H75275   2.700   5.484   0.532  0.5996 -1.5765 -0.5677
  558MOL0     H75276   2.743   5.524   0.364 -0.6686  0.5254 -0.2375
  558MOL0     H75277   2.560   5.664   0.438  1.9194 -0.3467  1.4226
  558MOL0     H75278   2.508   5.559   0.304  1.4377 -2.1527 -1.4885
  558MOL0     H75279   2.445   5.509   0.597  2.9423  3.3748 -0.0368
  558MOL0     H75280   2.393   5.416   0.462 -0.9380 -0.0715  0.7147
  558MOL0     H75281   2.230   5.583   0.663  1.8161 -3.1260 -1.6411
  558MOL0     H75282   2.070   5.799   0.691  2.5562  3.2436 -1.1797
  558MOL0     H75283   2.015   5.881   0.548  1.7949  0.1981  1.5675
  558MOL0     H75284   1.924   5.605   0.623 -0.2241 -0.6594 -0.7395
  558MOL0     H75285   1.838   5.718   0.514 -0.1654  0.3190 -0.5638
  558MOL0     H75286   1.839   5.888   0.699  1.3937 -0.6118 -0.9981
  558MOL0     H75287   1.874   5.765   0.812 -0.1055 -0.0483 -0.7065
  558MOL0     H75288   1.686   5.633   0.724 -1.1296  1.1088  0.0065
  558MOL0     H75289   1.619   5.752   0.629 -1.5875  1.7305  1.2252
  558MOL0     H75290   1.339   5.823   0.865 -0.9459 -0.1345 -1.7166
  558MOL0     H75291   1.089   6.017   0.791  0.9172 -1.8395 -0.1180
  558MOL0     H75292   1.158   5.956   0.944  0.9856  0.8396  1.9420
  558MOL0     H75293   1.162   6.130   0.917  3.2927 -0.6974  1.9832
  558MOL0     H75294   1.226   6.490   0.903  2.5448  0.1750 -3.9195
  558MOL0     H75295   1.119   6.712   0.910  1.1624 -0.2874 -1.4869
  558MOL0     H75296   0.964   6.911   0.852 -1.8396 -0.2128  1.5272
  558MOL0     H75297   1.022   6.862   0.691 -1.1236 -3.1084 -1.4557
  558MOL0     H75298   0.910   7.073   0.653  2.8944 -1.6782 -0.8336
  558MOL0     H75299   0.809   6.942   0.591  0.7242 -1.4078  0.3350
  558MOL0     H75300   0.668   6.967   0.801  0.9562  1.4429  3.4658
  558MOL0     H75301   0.665   7.106   0.691  1.9729  0.6005 -0.0119
  558MOL0     H75302   0.812   7.067   0.957  1.5350 -1.4622 -2.4834
  558MOL0     H75303   0.858   7.204   0.861 -1.0483  2.1941 -4.7235
  558MOL0     H75304   0.581   7.167   0.974  0.4553 -0.8659  0.4022
  558MOL0     H75305   0.630   7.283   0.844 -2.1308  0.1236  0.7710
  558MOL0     H75306   0.764   7.387   1.035 -2.9806  2.3566  2.1110
  558MOL0     H75307   0.598   7.359   1.085  0.0849 -0.5310  0.7556
  558MOL0     H75308   0.846   7.220   1.162 -0.0184  1.8253  0.5080
  558MOL0     H75309   0.696   7.132   1.191  0.8697 -1.0050 -1.7410
  558MOL0     H75310   0.644   7.322   1.353 -0.2631 -1.1781 -0.2323
  558MOL0     H75311   0.801   7.402   1.300  0.7483 -1.0862  2.3428
  558MOL0     H75312   0.840   6.558   0.610 -0.9882  1.7749  2.4006
  558MOL0     H75313   0.963   6.365   0.587  0.2242  0.8449 -0.8326
  558MOL0     H75314   1.554   6.212   0.653 -1.2051  0.2837 -2.0041
  558MOL0     H75315   1.665   6.015   0.686  0.9379 -1.9189  1.6384
  558MOL0     H75316   2.788   5.080   0.910  0.0412 -0.5386  1.3700
  558MOL0     H75317   2.831   5.015   1.133 -2.7646  0.3404 -3.6224
  558MOL0     H75318   3.048   5.014   1.496 -0.1633 -0.2283  1.0028
  558MOL0     H75319   3.134   5.007   1.724 -1.1335 -0.7736 -0.5372
  558MOL0     H75320   3.342   4.647   1.861 -2.1754 -0.5188  0.0070
  558MOL0     H75321   3.282   4.740   2.007  1.8388  2.0274  0.1855
  558MOL0     H75322   3.070   4.758   1.893 -3.4329 -2.1381 -1.9388
  558MOL0     H75323   3.097   4.620   1.994 -1.5421  1.3415 -0.2081
  558MOL0     H75324   3.195   4.505   1.793  0.3822  0.0129  1.4403
  558MOL0     H75325   3.114   4.636   1.685 -1.3752 -1.3800  0.2430
  558MOL0     H75326   2.964   4.451   1.857 -2.4544  0.9109 -0.5090
  558MOL0     H75327   2.964   4.464   1.682  0.7525 -0.9822  0.3157
  558MOL0     H75328   2.732   4.799   1.837 -1.6935 -0.8904 -0.2576
  558MOL0     H75329   3.403   4.699   1.616  0.2713  0.5991 -0.0195
  558MOL0     H75330   3.353   4.725   1.403  1.7660 -1.1152  2.4724
  559MOL0     O75331   1.759   6.968   2.407 -0.0305 -0.1870 -0.3856
  559MOL0     C75332   1.691   6.944   2.505 -0.1181 -0.0488 -0.7981
  559MOL0     O75333   1.634   6.825   2.531  0.9302  0.5879  0.0986
  559MOL0     C75334   1.656   6.701   2.472  0.4207  0.8035  0.0117
  559MOL0     C75335   1.561   6.599   2.483  0.4193 -0.7631  0.6825
  559MOL0     C75336   1.597   6.469   2.442  0.4549 -0.7635 -0.0330
  559MOL0     C75337   1.721   6.434   2.385  0.5567 -1.3078  0.6636
  559MOL0     O75338   1.730   6.298   2.359 -0.4616  0.2833  1.0147
  559MOL0     C75339   1.861   6.241   2.301  0.2696  0.2707  0.1124
  559MOL0     C75340   1.834   6.096   2.268  0.5074 -0.6244 -1.2832
  559MOL0     C75341   1.712   6.074   2.185 -0.8339 -0.1456  0.4340
  559MOL0     C75342   1.688   5.929   2.149 -0.1944 -1.1548  0.1998
  559MOL0     C75343   1.573   5.897   2.051  0.1265  0.3224 -0.1241
  559MOL0     C75344   1.573   5.747   2.033  0.3768 -0.4199  0.9055
  559MOL0     C75345   1.489   5.700   1.915 -0.1444 -0.4277 -0.3482
  559MOL0     C75346   1.342   5.726   1.927  0.4309 -0.4213  0.1075
  559MOL0     N75347   1.289   5.654   2.048  0.7552 -0.1665  0.4810
  559MOL0     C75348   1.307   5.708   2.172  1.1317 -0.1193 -0.0922
  559MOL0     C75349   1.221   5.644   2.252  0.0427 -0.3397  0.0994
  559MOL0     C75350   1.197   5.679   2.397  0.0829  0.8814  0.4041
  559MOL0     C75351   1.316   5.612   2.466 -0.9758 -0.8329 -0.1790
  559MOL0     C75352   1.282   5.599   2.615 -0.1333  1.1029  0.4537
  559MOL0     C75353   1.375   5.488   2.678 -0.3572 -0.5250  0.1540
  559MOL0     O75354   1.387   5.531   2.824 -0.2412  1.1303  0.8810
  559MOL0     C75355   1.490   5.469   2.889 -1.3492 -0.0768 -0.6782
  559MOL0     C75356   1.562   5.352   2.855 -0.0039 -0.3731  0.4792
  559MOL0     C75357   1.664   5.288   2.933 -0.1004 -0.8562  0.1032
  559MOL0     C75358   1.724   5.161   2.890  0.5267  0.4661 -0.9188
  559MOL0     C75359   1.695   5.352   3.056 -0.2469 -0.1752  0.6189
  559MOL0     C75360   1.822   5.318   3.135  0.5282  0.3210  0.1726
  559MOL0     O75361   1.882   5.413   3.207 -0.5158 -0.1233  0.4507
  559MOL0     C75362   2.000   5.387   3.283  1.3787  0.4054  0.5698
  559MOL0     C75363   2.020   5.277   3.370 -0.7594 -0.0681  0.3383
  559MOL0     C75364   2.137   5.258   3.433 -0.7213  0.4816  0.7547
  559MOL0     C75365   2.244   5.340   3.421 -0.1210 -0.3329  0.3128
  559MOL0     O75366   2.360   5.317   3.495 -0.0139 -0.3172  0.1132
  559MOL0     C75367   2.366   5.216   3.600  0.2535 -0.3037 -0.1418
  559MOL0     C75368   2.307   5.275   3.736 -0.0832  0.4177 -0.9235
  559MOL0     C75369   2.367   5.408   3.774  0.2830  0.7285  0.5332
  559MOL0     C75370   2.334   5.453   3.913  0.0620 -0.3582  0.4041
  559MOL0     C75371   2.424   5.572   3.952  0.1282  0.4520  0.6580
  559MOL0     C75372   2.394   5.699   3.868 -0.2744  0.2765 -0.6627
  559MOL0     C75373   2.437   5.825   3.936  0.2955  0.0608  0.3627
  559MOL0     C75374   2.426   5.945   3.826  0.1230  0.7751  0.3787
  559MOL0    Cl75375   2.263   5.957   3.755  0.1583  0.2451  0.0960
  559MOL0     C75376   2.219   5.458   3.349  0.3856 -0.5092  0.9043
  559MOL0     C75377   2.107   5.478   3.277  0.3464 -0.9969 -0.3399
  559MOL0     O75378   1.866   5.204   3.123  0.0663 -0.1040 -0.3153
  559MOL0     C75379   1.636   5.472   3.089  0.5244 -0.7462  0.0335
  559MOL0     C75380   1.533   5.530   3.009 -0.3071  0.1895  0.5451
  559MOL0     N75381   1.151   5.547   2.174  0.4841 -0.4143  0.1252
  559MOL0     N75382   1.195   5.551   2.057  0.0458  0.0778 -0.2582
  559MOL0     C75383   1.807   6.539   2.353  0.0462 -0.5242 -0.1624
  559MOL0     C75384   1.770   6.668   2.401  0.3796 -0.0969  0.4487
  559MOL0     C75385   1.652   7.059   2.586 -0.6869 -0.3583 -0.0961
  559MOL0     C75386   1.721   7.181   2.570 -0.2782  0.2865  0.3399
  559MOL0     C75387   1.685   7.297   2.649  0.0094  0.2600  0.2682
  559MOL0     C75388   1.581   7.293   2.733 -0.3259 -0.8227  0.1430
  559MOL0     O75389   1.543   7.403   2.809 -0.3145  0.8578  0.4938
  559MOL0     C75390   1.634   7.443   2.911  0.2957  0.0894 -0.9788
  559MOL0     C75391   1.645   7.353   3.038  0.2387  0.1431  0.1703
  559MOL0     C75392   1.511   7.341   3.111  0.5433  0.1171  0.5595
  559MOL0     C75393   1.523   7.268   3.251 -0.9456 -0.6867 -0.0821
  559MOL0     C75394   1.396   7.222   3.307 -0.1428  0.5046 -0.0991
  559MOL0     C75395   1.303   7.179   3.364 -0.1097  0.0603 -0.2931
  559MOL0     C75396   1.508   7.179   2.744 -0.7391  0.1508  0.4303
  559MOL0     C75397   1.547   7.061   2.677  0.6196 -0.0259  0.4058
  559MOL0     H75398   1.469   6.611   2.539 -0.1615 -2.6680  0.2201
  559MOL0     H75399   1.522   6.392   2.459 -3.8220  2.8577 -0.6473
  559MOL0     H75400   1.875   6.297   2.208 -6.3525 -0.6142 -1.9703
  559MOL0     H75401   1.944   6.253   2.372 -0.5626 -1.4366  1.4451
  559MOL0     H75402   1.917   6.043   2.220  0.4636  0.0814 -2.1614
  559MOL0     H75403   1.812   6.040   2.359 -1.0997 -0.1804 -1.3737
  559MOL0     H75404   1.618   6.113   2.227 -1.1053 -2.0049  1.6661
  559MOL0     H75405   1.734   6.127   2.091  2.3577 -1.5909  0.2454
  559MOL0     H75406   1.784   5.893   2.110 -0.7399 -2.1141 -0.2965
  559MOL0     H75407   1.672   5.874   2.243 -0.7258  1.2703  1.6097
  559MOL0     H75408   1.479   5.936   2.091 -0.1886 -2.8808  2.7892
  559MOL0     H75409   1.587   5.955   1.959  0.2800 -0.9639 -0.9378
  559MOL0     H75410   1.673   5.723   1.994  1.0037  1.9942  0.8689
  559MOL0     H75411   1.561   5.694   2.128 -0.6767 -1.0504  0.4443
  559MOL0     H75412   1.526   5.746   1.823 -0.8266  0.9819  0.0500
  559MOL0     H75413   1.500   5.592   1.921  3.7657 -0.0980  3.8882
  559MOL0     H75414   1.288   5.690   1.839  1.0085  1.0285 -0.8761
  559MOL0     H75415   1.319   5.832   1.938 -0.5032 -0.7297  1.4158
  559MOL0     H75416   1.349   5.806   2.195 -2.2902  1.7371 -1.0820
  559MOL0     H75417   1.188   5.785   2.424  1.1959  1.6197 -1.8597
  559MOL0     H75418   1.106   5.632   2.435  2.0375 -2.8425  0.9919
  559MOL0     H75419   1.417   5.651   2.454 -0.2649 -3.2050 -3.2348
  559MOL0     H75420   1.324   5.511   2.424 -2.1572 -1.4833  1.0634
  559MOL0     H75421   1.181   5.567   2.644 -0.0998  0.1778 -0.3865
  559MOL0     H75422   1.293   5.696   2.664 -1.5267  1.1589  0.7000
  559MOL0     H75423   1.472   5.494   2.629 -0.9047  1.8106 -0.7327
  559MOL0     H75424   1.334   5.387   2.664  1.9853 -1.2036 -2.8118
  559MOL0     H75425   1.535   5.296   2.765  0.2326 -3.5439  2.2435
  559MOL0     H75426   1.699   5.098   2.976  1.2538  0.4494 -0.7154
  559MOL0     H75427   1.674   5.119   2.802  0.6499  1.4642 -1.4796
  559MOL0     H75428   1.832   5.162   2.875  0.9969 -2.9778  1.0701
  559MOL0     H75429   1.935   5.210   3.381  0.3114 -1.1762  2.3504
  559MOL0     H75430   2.144   5.173   3.500 -0.6632 -0.6901 -0.7113
  559MOL0     H75431   2.336   5.113   3.585 -4.0654  0.8103 -0.4689
  559MOL0     H75432   2.474   5.209   3.617  0.3769  0.2143 -0.6892
  559MOL0     H75433   2.202   5.303   3.725  0.0448  1.0948 -0.4584
  559MOL0     H75434   2.330   5.206   3.818 -1.9683  2.6435  1.6770
  559MOL0     H75435   2.324   5.486   3.711 -2.0309 -0.8428  0.0312
  559MOL0     H75436   2.474   5.403   3.752 -0.2925 -1.1297 -2.2773
  559MOL0     H75437   2.229   5.480   3.928 -0.8867 -2.9968 -0.8994
  559MOL0     H75438   2.364   5.384   3.993 -0.9913 -0.0598  1.0704
  559MOL0     H75439   2.531   5.548   3.960  0.1074 -0.1559 -0.6481
  559MOL0     H75440   2.412   5.600   4.057 -1.4588  2.7452 -0.0483
  559MOL0     H75441   2.444   5.690   3.772  2.4279 -0.7016  0.7230
  559MOL0     H75442   2.286   5.713   3.861 -0.3381  1.8520  1.9242
  559MOL0     H75443   2.540   5.831   3.972  0.2434 -0.1091  0.5469
  559MOL0     H75444   2.367   5.855   4.015  0.8767  2.3868  0.0721
  559MOL0     H75445   2.494   5.922   3.744  0.0918  0.6764  0.3813
  559MOL0     H75446   2.431   6.050   3.858  0.9716  1.4244 -1.7285
  559MOL0     H75447   2.285   5.544   3.360 -0.6794  0.2843  1.2608
  559MOL0     H75448   2.089   5.575   3.234 -2.4439  0.3853  3.4071
  559MOL0     H75449   1.672   5.535   3.170  2.6796 -0.7970 -0.8129
  559MOL0     H75450   1.502   5.629   3.039 -1.4325  0.0320 -0.0508
  559MOL0     H75451   1.898   6.529   2.295  0.9936 -1.8105  1.4503
  559MOL0     H75452   1.838   6.746   2.370 -0.8909  0.2965 -1.5087
  559MOL0     H75453   1.798   7.201   2.497 -2.4697  2.3326 -1.6062
  559MOL0     H75454   1.728   7.395   2.637  1.0339 -0.2181 -0.0952
  559MOL0     H75455   1.733   7.463   2.869  0.6476  1.0569  0.2583
  559MOL0     H75456   1.598   7.537   2.953  1.8787 -1.2000  3.8934
  559MOL0     H75457   1.717   7.402   3.105 -0.5324  0.2433  0.9399
  559MOL0     H75458   1.684   7.258   3.000 -0.2730 -1.1895  2.7200
  559MOL0     H75459   1.443   7.282   3.049  1.7633  0.9149 -1.6715
  559MOL0     H75460   1.461   7.438   3.114  0.6080  0.2297 -1.0862
  559MOL0     H75461   1.563   7.345   3.318 -0.7005 -0.5695 -0.3641
  559MOL0     H75462   1.593   7.185   3.249 -2.0005 -1.5955 -1.1743
  559MOL0     H75463   1.224   7.134   3.421  1.4484 -1.6737  0.6457
  559MOL0     H75464   1.419   7.175   2.806 -0.4919 -0.6151  0.7458
  559MOL0     H75465   1.488   6.974   2.705 -1.9984  0.7815 -2.1232
  560MOL0     O75466   9.563   5.867   9.813  0.5866 -0.4146 -0.4132
  560MOL0     C75467   9.460   5.934   9.793 -0.3891  0.0203  0.5475
  560MOL0     O75468   9.403   6.007   9.883  0.2685  0.1884 -0.2334
  560MOL0     C75469   9.428   5.992  10.017 -0.8547 -0.6966  1.1183
  560MOL0     C75470   9.363   5.893  10.084  0.9782  0.2057  0.3744
  560MOL0     C75471   9.382   5.873  10.219 -0.0145  0.0299  0.7282
  560MOL0     C75472   9.467   5.960  10.288 -0.1571  0.0924  0.3686
  560MOL0     O75473   9.473   5.960  10.420  0.5016  0.1604  0.5000
  560MOL0     C75474   9.593   5.898  10.460 -0.2923  0.1483 -0.4328
  560MOL0     C75475   9.654   5.938  10.593  0.0830 -0.5318  0.0149
  560MOL0     C75476   9.731   6.077  10.574 -0.0895  0.0325  0.4812
  560MOL0     C75477   9.796   6.143  10.689 -0.7970  0.0712 -0.1650
  560MOL0     C75478   9.905   6.244  10.656  0.5191  0.2966 -0.1456
  560MOL0     C75479   9.881   6.397  10.706  0.3124  0.6986  0.7326
  560MOL0     C75480   9.758   6.449  10.627  0.2747 -0.8610 -0.1722
  560MOL0     C75481   9.730   6.592  10.678  0.4838 -0.7653 -0.1393
  560MOL0     N75482   9.673   6.689  10.584  0.7455 -0.7367  0.3756
  560MOL0     C75483   9.754   6.734  10.479 -0.1000 -1.0204  0.2226
  560MOL0     C75484   9.661   6.788  10.395  0.6051 -0.3021  0.3367
  560MOL0     C75485   9.708   6.866  10.269 -1.2410  0.1371 -0.0998
  560MOL0     C75486   9.658   7.017  10.255 -0.7156 -0.1191  0.9874
  560MOL0     C75487   9.639   7.061  10.110 -0.7939  0.2327 -0.0668
  560MOL0     C75488   9.544   7.186  10.106 -0.1811 -0.9044  0.7201
  560MOL0     O75489   9.619   7.287  10.168  0.0660  0.4094  0.3500
  560MOL0     C75490   9.617   7.415  10.119 -0.9377  0.0574 -0.2538
  560MOL0     C75491   9.512   7.463  10.035 -0.0409 -0.0334 -0.2707
  560MOL0     C75492   9.503   7.597   9.992 -0.1447  0.3011 -0.1694
  560MOL0     C75493   9.403   7.634   9.885 -0.9363 -0.0631  0.4024
  560MOL0     C75494   9.598   7.691  10.044  0.3719 -0.7595  0.2186
  560MOL0     C75495   9.593   7.837  10.021 -1.0863  0.3244 -0.4451
  560MOL0     O75496   9.483   7.896   9.973 -0.0638 -0.0686  0.5765
  560MOL0     C75497   9.490   8.033   9.970  0.6777 -0.2472  0.0255
  560MOL0     C75498   9.400   8.089  10.056  0.3162 -0.1580 -0.0073
  560MOL0     C75499   9.391   8.229  10.056  0.4793 -0.0363  0.7410
  560MOL0     C75500   9.456   8.312   9.965  0.2969 -1.3482 -0.4021
  560MOL0     O75501   9.429   8.453   9.985  0.0611  0.4351 -0.5459
  560MOL0     C75502   9.505   8.550   9.919  0.2348 -0.8958 -0.0265
  560MOL0     C75503   9.412   8.676   9.905  0.5177 -0.3765  0.3975
  560MOL0     C75504   9.491   8.795   9.855 -0.0347 -0.1783  0.2179
  560MOL0     C75505   9.561   8.779   9.719  0.1197 -0.5917  0.2775
  560MOL0     C75506   9.601   8.914   9.662 -0.0024 -0.2274 -0.2860
  560MOL0     C75507   9.671   8.883   9.525  0.4491  0.0695  0.2477
  560MOL0     C75508   9.800   8.791   9.522 -0.1874 -0.9268 -0.3387
  560MOL0     C75509   9.904   8.839   9.627  0.3410 -0.0358  0.1350
  560MOL0    Cl75510  10.052   8.759   9.591  0.6704 -0.1243 -0.4184
  560MOL0     C75511   9.536   8.248   9.872  0.2674 -0.3869  0.8392
  560MOL0     C75512   9.560   8.109   9.876  0.4011  0.1831 -0.1211
  560MOL0     O75513   9.698   7.890  10.052  0.0270  0.0639 -0.6389
  560MOL0     C75514   9.709   7.637  10.120  0.4751  0.0744  1.2390
  560MOL0     C75515   9.717   7.501  10.153  0.0539 -0.9087  0.9113
  560MOL0     N75516   9.537   6.785  10.453  0.3392  0.1472 -0.1175
  560MOL0     N75517   9.542   6.722  10.568  0.9330 -0.9473 -0.3115
  560MOL0     C75518   9.541   6.053  10.217  0.3436 -0.1397  0.0353
  560MOL0     C75519   9.516   6.082  10.081 -0.2434  0.6953 -0.2571
  560MOL0     C75520   9.407   5.939   9.654  0.6582 -0.0915 -0.7937
  560MOL0     C75521   9.277   5.998   9.621  0.6187  1.0383  0.4176
  560MOL0     C75522   9.236   6.006   9.489  0.4189  0.9052 -0.1614
  560MOL0     C75523   9.317   5.969   9.380 -0.2205  0.3143 -0.2398
  560MOL0     O75524   9.277   6.015   9.256  0.6023 -0.4296 -0.2141
  560MOL0     C75525   9.327   5.939   9.142 -0.3584  0.6369 -1.1917
  560MOL0     C75526   9.425   6.026   9.047 -0.3967 -0.4280 -0.0389
  560MOL0     C75527   9.559   6.055   9.121  0.5549 -0.4253 -0.3660
  560MOL0     C75528   9.657   6.142   9.045  0.0993  0.0109 -0.3881
  560MOL0     C75529   9.734   6.235   9.134 -0.1256  0.2836 -0.3840
  560MOL0     C75530   9.785   6.327   9.201 -0.2580 -0.2677 -0.2560
  560MOL0     C75531   9.440   5.910   9.420 -0.1675  0.0611  0.2164
  560MOL0     C75532   9.485   5.887   9.553  0.3730 -0.1606 -0.4870
  560MOL0     H75533   9.294   5.831  10.028 -2.0470  2.8306  0.8425
  560MOL0     H75534   9.315   5.812  10.280 -0.0978 -2.4193 -1.5989
  560MOL0     H75535   9.567   5.793  10.475  0.9436 -0.2308 -0.7706
  560MOL0     H75536   9.671   5.912  10.384  1.6094  1.8580  1.6903
  560MOL0     H75537   9.574   5.957  10.665  0.2926  1.6761 -0.2803
  560MOL0     H75538   9.716   5.855  10.629  0.8368 -0.1124 -0.3017
  560MOL0     H75539   9.810   6.060  10.499  0.1520  1.0724  0.4806
  560MOL0     H75540   9.662   6.141  10.519  1.2097 -0.3650 -1.7438
  560MOL0     H75541   9.713   6.200  10.732  0.8898  1.5109  1.3553
  560MOL0     H75542   9.851   6.073  10.752  3.7271  1.1007 -2.4873
  560MOL0     H75543   9.997   6.211  10.705  0.4166 -0.4726 -0.4582
  560MOL0     H75544   9.932   6.242  10.550 -1.4173  1.9353 -0.7253
  560MOL0     H75545   9.870   6.401  10.815 -1.1743 -0.2810  0.6461
  560MOL0     H75546   9.969   6.457  10.681  0.1455  0.6712  0.0582
  560MOL0     H75547   9.777   6.437  10.520  1.3074 -0.5412 -0.0359
  560MOL0     H75548   9.668   6.391  10.645  0.8941 -1.9403 -0.4945
  560MOL0     H75549   9.823   6.647  10.698 -0.1763  0.6127 -0.7215
  560MOL0     H75550   9.669   6.584  10.769 -1.3758  0.1654 -1.2457
  560MOL0     H75551   9.860   6.720  10.461 -0.2003 -1.2142 -0.2323
  560MOL0     H75552   9.817   6.865  10.266 -1.2227  0.4769  0.3778
  560MOL0     H75553   9.669   6.810  10.183 -0.9405 -1.8404  1.0013
  560MOL0     H75554   9.742   7.081  10.282 -0.5566  1.8545 -3.2614
  560MOL0     H75555   9.566   7.049  10.306 -2.3988 -2.4030 -0.4130
  560MOL0     H75556   9.587   6.980  10.058 -2.4279  1.2850 -0.1107
  560MOL0     H75557   9.734   7.077  10.057  1.2848  3.5829  4.0543
  560MOL0     H75558   9.448   7.173  10.156 -2.2225 -1.1391 -2.9477
  560MOL0     H75559   9.531   7.198   9.998 -3.2540 -3.5622  0.6694
  560MOL0     H75560   9.435   7.395  10.001  0.3407 -0.7657  0.3109
  560MOL0     H75561   9.374   7.549   9.822 -2.4038 -1.1085  2.3743
  560MOL0     H75562   9.313   7.668   9.936 -0.6832 -0.9525  1.4886
  560MOL0     H75563   9.437   7.709   9.813 -0.9135  3.7677  4.0547
  560MOL0     H75564   9.341   8.028  10.124  2.7236  0.1228  2.5452
  560MOL0     H75565   9.319   8.275  10.124 -1.1825 -2.2624  0.5712
  560MOL0     H75566   9.592   8.577   9.981 -0.5580  0.1359  0.6688
  560MOL0     H75567   9.515   8.519   9.815 -1.1705  0.2951 -0.5523
  560MOL0     H75568   9.338   8.648   9.830  1.3406 -3.4147  0.5498
  560MOL0     H75569   9.367   8.695  10.003  0.7991 -3.7082  1.3277
  560MOL0     H75570   9.561   8.812   9.937  0.0697 -2.3262  0.6317
  560MOL0     H75571   9.412   8.871   9.851  0.3732  0.4909  2.8880
  560MOL0     H75572   9.654   8.723   9.732  1.3969  1.5755  1.0611
  560MOL0     H75573   9.493   8.728   9.650 -0.1544  0.2043 -0.0528
  560MOL0     H75574   9.670   8.957   9.735  1.8877 -4.4080  0.7234
  560MOL0     H75575   9.515   8.980   9.648 -0.0841  0.0582  1.3158
  560MOL0     H75576   9.602   8.824   9.464 -2.6674  3.8606 -0.3151
  560MOL0     H75577   9.694   8.974   9.469  3.8001 -0.5759  0.3610
  560MOL0     H75578   9.863   8.779   9.433  1.5550 -5.8742  1.2398
  560MOL0     H75579   9.773   8.686   9.536 -0.4928 -0.7557  0.3753
  560MOL0     H75580   9.875   8.799   9.725  1.0151 -1.2032 -0.1110
  560MOL0     H75581   9.907   8.948   9.629 -2.0693  0.0641  0.3224
  560MOL0     H75582   9.569   8.310   9.789 -0.1470  1.8675  2.2505
  560MOL0     H75583   9.627   8.065   9.802  0.6068  0.8866 -0.3579
  560MOL0     H75584   9.792   7.698  10.154  0.8261  1.0152 -1.1706
  560MOL0     H75585   9.795   7.447  10.207  3.8445  1.0745 -2.0835
  560MOL0     H75586   9.598   6.119  10.281  1.3097 -0.3076 -0.6273
  560MOL0     H75587   9.568   6.164  10.033  0.0994  0.9040  0.4561
  560MOL0     H75588   9.213   6.019   9.706 -0.6615 -0.4912 -0.1009
  560MOL0     H75589   9.136   6.042   9.467  0.4877  3.0039  2.5212
  560MOL0     H75590   9.372   5.847   9.180 -0.6843  0.8403 -0.3001
  560MOL0     H75591   9.242   5.905   9.081 -1.0071  1.8532 -0.9842
  560MOL0     H75592   9.380   6.123   9.023 -0.2746 -0.3217  0.1587
  560MOL0     H75593   9.456   5.963   8.964  4.3555  3.1213 -1.3868
  560MOL0     H75594   9.614   5.969   9.160  2.0234  1.4950  2.1250
  560MOL0     H75595   9.547   6.109   9.216  1.6291 -0.2499 -0.3181
  560MOL0     H75596   9.605   6.215   8.982  0.3759  1.0720  0.5771
  560MOL0     H75597   9.716   6.079   8.978 -2.5596 -2.1443 -0.8643
  560MOL0     H75598   9.840   6.392   9.267  1.2582 -3.6890  2.1700
  560MOL0     H75599   9.509   5.872   9.346  0.0580 -0.8106  0.8545
  560MOL0     H75600   9.584   5.846   9.571 -0.0206 -1.3184 -0.8780
  561MOL0     O75601   5.848   3.993   5.832 -0.1123 -0.6833 -0.8919
  561MOL0     C75602   5.945   3.937   5.888  0.0096  0.1939  0.5098
  561MOL0     O75603   5.943   3.813   5.942 -0.1519  0.4386  0.0910
  561MOL0     C75604   5.833   3.743   5.920 -0.0635  0.2882 -0.1741
  561MOL0     C75605   5.717   3.761   6.000 -0.2067  0.4137 -0.9657
  561MOL0     C75606   5.602   3.680   5.984  0.0077 -0.9378 -0.7953
  561MOL0     C75607   5.587   3.584   5.881 -0.6838 -0.1164  0.4791
  561MOL0     O75608   5.471   3.522   5.863  0.3631  0.0796  0.1312
  561MOL0     C75609   5.444   3.455   5.741 -0.1572 -0.3380 -1.2098
  561MOL0     C75610   5.369   3.529   5.626  0.9252  0.6560 -0.1943
  561MOL0     C75611   5.434   3.665   5.591 -0.0573 -0.1178 -0.1254
  561MOL0     C75612   5.378   3.780   5.689 -0.5016 -0.6129 -0.8810
  561MOL0     C75613   5.432   3.913   5.650  0.1252  0.0354 -0.4605
  561MOL0     C75614   5.404   4.036   5.740  1.2657 -0.8658  0.5021
  561MOL0     C75615   5.504   4.024   5.858  0.5409  0.0714 -0.0280
  561MOL0     C75616   5.475   4.119   5.980 -0.0393  0.7816  0.6730
  561MOL0     N75617   5.334   4.100   6.020  0.7786 -0.1439  0.2423
  561MOL0     C75618   5.282   4.030   6.128 -1.1457  0.3319 -0.2803
  561MOL0     C75619   5.160   4.075   6.146  0.6796  0.2745  0.7096
  561MOL0     C75620   5.075   4.032   6.259  0.3182  0.0109 -0.2794
  561MOL0     C75621   5.008   4.152   6.323  0.4718  0.6088 -0.1967
  561MOL0     C75622   4.879   4.116   6.399  0.2435  0.4988 -0.2604
  561MOL0     C75623   4.781   4.227   6.377  0.7327 -0.0096  0.2019
  561MOL0     O75624   4.835   4.359   6.410  0.5303  0.2207  0.0594
  561MOL0     C75625   4.741   4.463   6.429  0.1649  0.6677  0.1684
  561MOL0     C75626   4.775   4.553   6.531  0.4718 -1.4041  0.1337
  561MOL0     C75627   4.683   4.658   6.569  0.5719 -0.0496  0.5027
  561MOL0     C75628   4.721   4.746   6.692 -0.8202 -0.1834  0.1551
  561MOL0     C75629   4.550   4.650   6.514 -0.6285 -1.1719 -0.2937
  561MOL0     C75630   4.442   4.743   6.556  0.1638 -0.5386  0.9150
  561MOL0     O75631   4.353   4.768   6.456  0.1180  0.5649  0.8604
  561MOL0     C75632   4.227   4.827   6.480  0.0547  0.2019  0.3870
  561MOL0     C75633   4.150   4.809   6.590  0.4586 -0.6540 -0.4214
  561MOL0     C75634   4.037   4.893   6.621 -0.0038  1.0437 -0.4944
  561MOL0     C75635   4.006   5.003   6.546 -0.2699 -0.7684  0.9260
  561MOL0     O75636   3.897   5.083   6.574  0.4505 -0.2827  0.8724
  561MOL0     C75637   3.809   5.109   6.468 -0.2115 -0.5135 -0.2404
  561MOL0     C75638   3.682   5.167   6.520 -0.2416  0.3019 -0.4972
  561MOL0     C75639   3.586   5.197   6.416 -0.3292 -0.0809  0.8826
  561MOL0     C75640   3.477   5.301   6.433  0.1839  0.1654  0.0361
  561MOL0     C75641   3.402   5.328   6.306  1.1948 -0.6409  0.5713
  561MOL0     C75642   3.300   5.442   6.318 -0.1922 -0.1894  0.4855
  561MOL0     C75643   3.257   5.490   6.181 -0.7674 -0.4490 -0.5275
  561MOL0     C75644   3.145   5.600   6.192 -0.4781 -0.1656 -0.2310
  561MOL0    Cl75645   2.995   5.527   6.249  0.0877 -0.4388 -0.2960
  561MOL0     C75646   4.081   5.018   6.426 -0.5949  1.0195  0.3318
  561MOL0     C75647   4.193   4.934   6.393 -0.2494  0.0346  0.2621
  561MOL0     O75648   4.433   4.783   6.669 -0.4086 -0.1119  0.5861
  561MOL0     C75649   4.519   4.557   6.405  0.7300  0.4537 -0.9647
  561MOL0     C75650   4.609   4.458   6.379  0.2908 -0.6460 -0.3231
  561MOL0     N75651   5.122   4.160   6.041  0.2833 -0.8267  0.2027
  561MOL0     N75652   5.228   4.175   5.971 -0.6314 -0.2407 -0.4155
  561MOL0     C75653   5.705   3.565   5.797 -0.7462  0.1873  0.8327
  561MOL0     C75654   5.824   3.643   5.816  0.0814 -0.8266  0.0693
  561MOL0     C75655   6.054   4.036   5.926 -0.2031  0.3937  0.5195
  561MOL0     C75656   6.188   3.994   5.949 -0.5701  0.4818  0.3815
  561MOL0     C75657   6.290   4.086   5.983  0.2542 -0.2676 -0.7033
  561MOL0     C75658   6.264   4.223   6.008 -0.3655 -0.0445 -0.6192
  561MOL0     O75659   6.368   4.298   6.053  0.2338  0.0076 -0.0863
  561MOL0     C75660   6.335   4.432   6.114  0.5706  0.0350  0.6963
  561MOL0     C75661   6.309   4.410   6.263 -0.0537  0.3678 -0.2028
  561MOL0     C75662   6.227   4.521   6.322  0.6130 -0.6691 -0.1225
  561MOL0     C75663   6.244   4.528   6.474  1.0581 -0.0894 -0.1852
  561MOL0     C75664   6.191   4.661   6.518 -0.5790 -0.6075  0.6396
  561MOL0     C75665   6.168   4.769   6.561  0.3911 -0.1867 -0.1012
  561MOL0     C75666   6.135   4.260   5.989  0.6767  0.1606 -0.3305
  561MOL0     C75667   6.027   4.173   5.937 -0.3269 -0.3461 -0.4974
  561MOL0     H75668   5.719   3.826   6.086 -3.4294 -0.8219  0.1956
  561MOL0     H75669   5.519   3.692   6.054  1.4764 -2.0279  1.2561
  561MOL0     H75670   5.535   3.413   5.698  0.7162 -0.6585  0.8159
  561MOL0     H75671   5.380   3.370   5.769  1.6503 -1.8865 -1.5667
  561MOL0     H75672   5.350   3.463   5.541 -2.8048  1.2824  0.0111
  561MOL0     H75673   5.268   3.557   5.657  0.2786 -1.8740  0.2121
  561MOL0     H75674   5.543   3.662   5.593  0.3914  5.5204  0.2204
  561MOL0     H75675   5.415   3.669   5.483  0.9219  2.0500 -0.2653
  561MOL0     H75676   5.269   3.780   5.687 -0.5818  1.3525  0.3707
  561MOL0     H75677   5.411   3.752   5.790  1.5369 -0.7109 -1.5352
  561MOL0     H75678   5.534   3.913   5.612 -0.0670 -0.2325 -0.9879
  561MOL0     H75679   5.374   3.942   5.562  0.6757 -0.6615 -1.0681
  561MOL0     H75680   5.430   4.122   5.678  2.1176 -2.3645 -1.3013
  561MOL0     H75681   5.299   4.036   5.768  1.9916  0.0953  3.6874
  561MOL0     H75682   5.500   3.921   5.897 -0.5167 -0.3285 -1.1369
  561MOL0     H75683   5.602   4.038   5.812 -0.9729 -0.8480 -3.9012
  561MOL0     H75684   5.490   4.220   5.941 -0.2415 -0.1160 -1.8954
  561MOL0     H75685   5.539   4.091   6.065 -0.1168 -1.4954  0.0506
  561MOL0     H75686   5.331   3.957   6.191 -0.1967  3.1274  2.4750
  561MOL0     H75687   5.001   3.976   6.202  0.6181 -0.1965 -0.4691
  561MOL0     H75688   5.129   3.968   6.330 -1.1912 -2.7032 -1.3978
  561MOL0     H75689   4.993   4.231   6.250  1.2371  0.2354 -0.7703
  561MOL0     H75690   5.083   4.194   6.391  1.8300 -1.2851 -0.4398
  561MOL0     H75691   4.900   4.099   6.505  0.8343  0.7915 -0.3266
  561MOL0     H75692   4.838   4.018   6.375  2.6044 -1.3087  2.3229
  561MOL0     H75693   4.689   4.210   6.434 -1.6287  0.6729 -3.1190
  561MOL0     H75694   4.755   4.227   6.271  1.5288  0.2267 -0.0053
  561MOL0     H75695   4.872   4.537   6.577  1.2205 -1.0409 -1.2517
  561MOL0     H75696   4.653   4.741   6.777 -0.2557 -0.6864  0.5912
  561MOL0     H75697   4.826   4.726   6.718 -0.7461  1.2555  1.1233
  561MOL0     H75698   4.721   4.853   6.670  0.7425 -0.4526 -1.3698
  561MOL0     H75699   4.187   4.730   6.655 -2.6357  0.0235  2.3909
  561MOL0     H75700   3.970   4.873   6.704  0.9577 -0.7979 -0.1179
  561MOL0     H75701   3.856   5.180   6.399 -1.1889  0.1697 -0.2329
  561MOL0     H75702   3.789   5.019   6.408  0.6226  0.0194 -1.3455
  561MOL0     H75703   3.639   5.096   6.591 -1.3922  0.5151 -0.9635
  561MOL0     H75704   3.710   5.259   6.573 -0.4361 -0.3354  0.7468
  561MOL0     H75705   3.536   5.101   6.398  0.5416 -0.9829  2.9715
  561MOL0     H75706   3.644   5.219   6.326 -2.0209  2.3211  0.2823
  561MOL0     H75707   3.414   5.258   6.511  2.1348  1.2069  2.2965
  561MOL0     H75708   3.505   5.402   6.463  0.5499 -0.2696  1.2092
  561MOL0     H75709   3.341   5.241   6.282 -0.4824  1.5078 -4.0945
  561MOL0     H75710   3.475   5.337   6.225  0.7965  0.0264  0.2812
  561MOL0     H75711   3.215   5.413   6.381 -1.0700  0.7496 -0.2433
  561MOL0     H75712   3.345   5.522   6.378  0.5091 -1.2519  1.4274
  561MOL0     H75713   3.210   5.408   6.125 -1.9186  1.6657 -2.8311
  561MOL0     H75714   3.339   5.527   6.118 -1.8347  0.5406 -1.3733
  561MOL0     H75715   3.142   5.659   6.100  0.8115  0.3316  0.0246
  561MOL0     H75716   3.180   5.664   6.273  1.1518 -1.8366  0.4789
  561MOL0     H75717   4.064   5.105   6.364 -0.6050  1.6232  1.1530
  561MOL0     H75718   4.258   4.953   6.308 -0.7774 -3.4478 -1.1022
  561MOL0     H75719   4.418   4.549   6.366 -1.2382  4.7608  2.3408
  561MOL0     H75720   4.570   4.370   6.330  0.5321 -0.7206 -0.3825
  561MOL0     H75721   5.710   3.495   5.715  1.4475  1.1584  0.0636
  561MOL0     H75722   5.911   3.645   5.752 -0.6533 -1.7054 -0.9998
  561MOL0     H75723   6.214   3.891   5.926 -2.5129 -0.2164  1.0859
  561MOL0     H75724   6.391   4.054   6.006  0.4365  1.7106  1.6220
  561MOL0     H75725   6.420   4.499   6.099  0.6151 -0.6828 -3.3943
  561MOL0     H75726   6.245   4.478   6.071  0.6928 -0.6102 -0.2784
  561MOL0     H75727   6.398   4.394   6.323 -1.2991 -0.3536  1.5352
  561MOL0     H75728   6.260   4.313   6.277  2.7919 -1.3059 -1.0535
  561MOL0     H75729   6.121   4.517   6.295  1.1515 -0.5841 -2.5028
  561MOL0     H75730   6.261   4.616   6.280  0.1735 -0.2965  0.3507
  561MOL0     H75731   6.348   4.523   6.508  1.4544  0.6091 -1.2298
  561MOL0     H75732   6.188   4.446   6.521  3.6762 -1.2884  1.0440
  561MOL0     H75733   6.161   4.871   6.592 -2.0578 -0.5867  0.8303
  561MOL0     H75734   6.098   4.360   6.006  0.6997 -0.1990  2.4000
  561MOL0     H75735   5.930   4.219   5.925  0.0930  0.3993 -1.1091
  562MOL0     O75736   7.499   9.996   3.462  0.2733  0.1898 -0.2291
  562MOL0     C75737   7.408  10.072   3.457  0.2621 -0.0662  0.3552
  562MOL0     O75738   7.272  10.047   3.477 -0.5996 -0.6627 -0.8107
  562MOL0     C75739   7.219   9.920   3.478  0.4366  0.0973  0.2244
  562MOL0     C75740   7.095   9.896   3.550 -0.4345  0.8172  0.4406
  562MOL0     C75741   7.022   9.771   3.521  0.7172  1.4468  0.0560
  562MOL0     C75742   7.083   9.681   3.447 -0.6057  1.0205  0.7105
  562MOL0     O75743   7.011   9.564   3.411 -0.1756 -0.3675  0.9108
  562MOL0     C75744   6.913   9.581   3.303  0.3157 -0.2364 -0.6578
  562MOL0     C75745   6.881   9.440   3.241  0.0146  0.2452 -0.1214
  562MOL0     C75746   6.961   9.411   3.111  0.5351  0.6615 -0.8688
  562MOL0     C75747   6.935   9.277   3.049 -0.8554  0.0958 -0.0046
  562MOL0     C75748   7.006   9.263   2.908 -1.1002  0.5849 -0.1938
  562MOL0     C75749   6.944   9.347   2.791  0.9162  0.0711  0.0228
  562MOL0     C75750   6.787   9.336   2.773  1.4832 -0.7190  0.4218
  562MOL0     C75751   6.751   9.395   2.636 -0.0167  0.4846 -0.0658
  562MOL0     N75752   6.734   9.542   2.633  0.0270  0.2981 -0.1112
  562MOL0     C75753   6.674   9.611   2.527 -0.6045  0.6009 -0.6068
  562MOL0     C75754   6.721   9.734   2.536  0.4647  0.2633 -0.3311
  562MOL0     C75755   6.690   9.842   2.440 -0.0617 -0.5185  0.8789
  562MOL0     C75756   6.617   9.958   2.502 -1.5607  0.9489  0.0414
  562MOL0     C75757   6.484   9.911   2.567  0.7703 -0.0950 -0.6090
  562MOL0     C75758   6.374   9.891   2.460  1.0921 -0.6485 -0.3975
  562MOL0     O75759   6.239   9.929   2.512 -0.5763 -0.5629 -0.4021
  562MOL0     C75760   6.191  10.055   2.486 -0.7370  0.0655 -1.9068
  562MOL0     C75761   6.138  10.132   2.584 -0.4082 -1.3547  0.9413
  562MOL0     C75762   6.073  10.257   2.553 -0.1223  0.0476  0.3907
  562MOL0     C75763   5.990  10.320   2.661 -0.3110  0.8880  0.0286
  562MOL0     C75764   6.085  10.303   2.415  0.1715  0.7919 -0.1700
  562MOL0     C75765   6.030  10.433   2.361  0.2472  0.2712 -0.8691
  562MOL0     O75766   6.033  10.541   2.457 -0.5957  0.1807  0.2918
  562MOL0     C75767   5.996  10.666   2.430  0.0666  0.7015  0.2893
  562MOL0     C75768   6.025  10.728   2.310 -0.2301 -0.3764 -0.1710
  562MOL0     C75769   5.984  10.860   2.288  0.1448  0.5881 -0.2430
  562MOL0     C75770   5.897  10.915   2.384 -0.5673  0.6883 -0.2980
  562MOL0     O75771   5.845  11.034   2.350 -0.0509 -0.5520 -0.6011
  562MOL0     C75772   5.694  11.044   2.365 -0.8047  0.1341  0.0094
  562MOL0     C75773   5.645  11.170   2.293 -0.4451 -0.0530 -0.4847
  562MOL0     C75774   5.638  11.133   2.149  0.6521  0.4246  0.2569
  562MOL0     C75775   5.661  11.261   2.070 -0.2904  0.0816  0.9426
  562MOL0     C75776   5.657  11.220   1.918 -0.0448 -0.0131  0.0002
  562MOL0     C75777   5.680  11.336   1.826  0.3139  0.6683 -0.3322
  562MOL0     C75778   5.684  11.278   1.679  0.5361 -0.6362  0.8455
  562MOL0     C75779   5.750  11.363   1.566  0.6698  0.0202 -0.1971
  562MOL0    Cl75780   5.926  11.427   1.591  0.8084  0.2573  0.4988
  562MOL0     C75781   5.868  10.856   2.504  0.0781  0.4291  0.8557
  562MOL0     C75782   5.923  10.734   2.524  0.7135  0.3742 -0.2497
  562MOL0     O75783   6.000  10.445   2.240  0.3211  0.2412 -0.4552
  562MOL0     C75784   6.152  10.228   2.312  0.6790  0.9953 -0.3036
  562MOL0     C75785   6.188  10.098   2.354  0.6671 -0.4508  1.3870
  562MOL0     N75786   6.806   9.751   2.647 -0.5322 -0.1971  0.3493
  562MOL0     N75787   6.803   9.632   2.707  0.5259 -0.2733 -0.1386
  562MOL0     C75788   7.206   9.698   3.389  0.2235  0.6198 -0.4742
  562MOL0     C75789   7.268   9.824   3.401  0.4531  1.5045 -0.3436
  562MOL0     C75790   7.447  10.220   3.440 -0.3684 -0.3537 -0.4463
  562MOL0     C75791   7.358  10.327   3.423  0.6105 -0.3222  0.3581
  562MOL0     C75792   7.400  10.452   3.378  0.4023 -0.5707 -0.0592
  562MOL0     C75793   7.534  10.468   3.347  0.6086 -0.4899 -0.3881
  562MOL0     O75794   7.568  10.591   3.297 -0.0798 -0.2525  0.6265
  562MOL0     C75795   7.664  10.673   3.363 -0.9977 -0.3815 -0.7193
  562MOL0     C75796   7.695  10.793   3.282  0.4749  0.8504  0.1516
  562MOL0     C75797   7.577  10.877   3.226  0.4991 -0.5062  0.5403
  562MOL0     C75798   7.504  10.947   3.334 -0.2926 -0.9220 -0.7493
  562MOL0     C75799   7.431  10.872   3.439 -0.1965 -0.0670 -0.4352
  562MOL0     C75800   7.367  10.813   3.520  0.4187 -0.0403 -0.0250
  562MOL0     C75801   7.628  10.374   3.370 -0.3124 -0.2897 -0.6724
  562MOL0     C75802   7.583  10.248   3.415 -0.1069 -0.0360  0.0715
  562MOL0     H75803   7.055   9.975   3.614 -2.3751  0.8171 -0.6764
  562MOL0     H75804   6.922   9.751   3.557  1.6148  1.6398  2.9927
  562MOL0     H75805   6.820   9.624   3.339 -0.2032 -1.0715 -0.9658
  562MOL0     H75806   6.952   9.650   3.227 -0.2977 -0.1848 -0.9364
  562MOL0     H75807   6.899   9.361   3.314  0.7822 -0.4354 -1.0190
  562MOL0     H75808   6.774   9.433   3.224 -0.0514  0.4968  0.1776
  562MOL0     H75809   6.927   9.497   3.052 -0.6151  1.8830  1.4265
  562MOL0     H75810   7.067   9.426   3.134 -0.1121  0.2370  3.0661
  562MOL0     H75811   6.948   9.200   3.125 -0.0819 -0.2321 -0.4511
  562MOL0     H75812   6.830   9.264   3.022 -0.8554  0.3631 -0.1406
  562MOL0     H75813   7.107   9.302   2.921 -0.9534 -0.4639  2.5933
  562MOL0     H75814   6.996   9.156   2.884 -3.6754  1.3064 -3.0227
  562MOL0     H75815   6.962   9.454   2.802  0.6312  0.4818 -2.8740
  562MOL0     H75816   6.999   9.308   2.706  1.1488 -1.6613  0.9269
  562MOL0     H75817   6.742   9.238   2.787 -1.2851  0.3863 -0.1562
  562MOL0     H75818   6.738   9.397   2.849 -0.0052 -0.8213 -0.4239
  562MOL0     H75819   6.657   9.349   2.603 -0.8121  2.4038 -0.6335
  562MOL0     H75820   6.819   9.362   2.557  0.7467 -0.8773  1.1162
  562MOL0     H75821   6.622   9.554   2.451  0.0064 -1.1024  0.2003
  562MOL0     H75822   6.779   9.881   2.388 -1.5343  1.7900 -0.1074
  562MOL0     H75823   6.619   9.796   2.371 -1.2986  0.1094  1.6903
  562MOL0     H75824   6.601  10.031   2.422 -1.8562  3.3853  2.2000
  562MOL0     H75825   6.679  10.006   2.578 -0.0550 -3.0427  1.5823
  562MOL0     H75826   6.451   9.998   2.625  1.1347  0.5896 -1.4123
  562MOL0     H75827   6.501   9.826   2.633 -0.1609  0.8108  0.8701
  562MOL0     H75828   6.375   9.787   2.424  2.6144 -0.4591 -0.9555
  562MOL0     H75829   6.393   9.955   2.373  0.9709  0.8658  0.6591
  562MOL0     H75830   6.142  10.081   2.680  1.7511 -0.6172  1.2977
  562MOL0     H75831   6.047  10.402   2.706  0.7262 -0.3494  1.0439
  562MOL0     H75832   5.886  10.346   2.636 -0.4012  4.0015  2.9200
  562MOL0     H75833   5.976  10.241   2.735 -2.2373  0.6617 -0.5204
  562MOL0     H75834   6.079  10.677   2.230  0.3801 -1.5553  0.9546
  562MOL0     H75835   6.010  10.911   2.196  0.8046  1.0826  0.2100
  562MOL0     H75836   5.669  10.950   2.315  1.1302 -1.3808  1.7107
  562MOL0     H75837   5.671  11.042   2.472 -3.4453 -1.7832 -0.4956
  562MOL0     H75838   5.544  11.195   2.325 -0.8491  0.4034 -1.9965
  562MOL0     H75839   5.699  11.262   2.318 -2.7097  1.8934 -2.3364
  562MOL0     H75840   5.550  11.075   2.120  1.0622 -0.6503  1.1225
  562MOL0     H75841   5.725  11.071   2.124  0.3844 -0.2634  1.0027
  562MOL0     H75842   5.588  11.339   2.095  1.6207  2.4077 -0.2534
  562MOL0     H75843   5.759  11.304   2.090 -0.3553 -0.1797  1.8504
  562MOL0     H75844   5.559  11.179   1.894  0.2136  0.1915 -1.5483
  562MOL0     H75845   5.724  11.134   1.911  0.5962  0.3506  1.2940
  562MOL0     H75846   5.607  11.417   1.838 -1.8677 -1.2253 -0.1651
  562MOL0     H75847   5.781  11.373   1.844  1.7881 -1.5774 -3.1568
  562MOL0     H75848   5.587  11.252   1.636  1.2151  0.0158 -1.2118
  562MOL0     H75849   5.747  11.189   1.691 -1.4370 -1.8071  3.5850
  562MOL0     H75850   5.685  11.451   1.562  0.2049 -0.3758 -1.8969
  562MOL0     H75851   5.748  11.287   1.488  0.4439 -0.0835 -0.0876
  562MOL0     H75852   5.825  10.918   2.582 -1.3561  2.1379 -1.1960
  562MOL0     H75853   5.910  10.684   2.619  0.7714 -3.7028 -2.1619
  562MOL0     H75854   6.175  10.249   2.208  5.3678 -0.9380  0.1067
  562MOL0     H75855   6.210  10.024   2.278  0.6126  0.7347  0.1856
  562MOL0     H75856   7.254   9.624   3.326  3.8701  2.1983  0.2053
  562MOL0     H75857   7.362   9.845   3.350  2.2825  1.6209  2.7846
  562MOL0     H75858   7.255  10.319   3.455  0.7176 -3.5569  0.1407
  562MOL0     H75859   7.336  10.538   3.362  1.2533 -0.3749 -2.8943
  562MOL0     H75860   7.632  10.693   3.465  0.2279  0.3381 -0.4577
  562MOL0     H75861   7.760  10.620   3.358 -0.7996  0.0756 -3.6435
  562MOL0     H75862   7.737  10.753   3.190 -2.9558  0.3534 -1.3583
  562MOL0     H75863   7.772  10.853   3.331 -0.3351  2.1495 -0.1176
  562MOL0     H75864   7.514  10.809   3.169  2.7398 -2.8201  0.6496
  562MOL0     H75865   7.628  10.944   3.156  0.3725  0.1687  1.0880
  562MOL0     H75866   7.434  11.008   3.276 -0.3009  0.5971  0.7880
  562MOL0     H75867   7.567  11.020   3.385 -2.4937  0.6140 -0.0808
  562MOL0     H75868   7.305  10.759   3.589  0.8219  1.7262  1.8036
  562MOL0     H75869   7.735  10.389   3.362 -0.3881  0.2393 -0.7031
  562MOL0     H75870   7.655  10.167   3.423  1.1358  1.2039  2.5582
  563MOL0     O75871   8.307   7.147   4.288  0.1004 -0.2239 -0.0674
  563MOL0     C75872   8.391   7.235   4.309  0.3050 -0.1846  0.1439
  563MOL0     O75873   8.402   7.307   4.421  0.5441 -0.0979 -0.2015
  563MOL0     C75874   8.305   7.308   4.521  0.3097 -0.0585  0.0166
  563MOL0     C75875   8.164   7.277   4.513 -0.1646 -0.5504 -0.1482
  563MOL0     C75876   8.077   7.289   4.623  0.6972  0.4038 -0.3823
  563MOL0     C75877   8.124   7.356   4.742 -0.1918 -0.7846 -0.2886
  563MOL0     O75878   8.038   7.364   4.855 -0.4254  0.4606  0.8790
  563MOL0     C75879   8.091   7.427   4.979  0.8286  0.9280  0.6630
  563MOL0     C75880   7.962   7.418   5.070  0.3613  0.3286  0.3437
  563MOL0     C75881   7.982   7.459   5.213  0.4766  0.4916  0.3385
  563MOL0     C75882   8.075   7.350   5.280 -0.4637  0.1964 -0.3449
  563MOL0     C75883   8.063   7.338   5.423  0.0751 -0.1108 -0.2789
  563MOL0     C75884   8.123   7.214   5.499 -0.4545 -0.3603  0.3214
  563MOL0     C75885   8.277   7.199   5.489 -0.0093  0.9678 -0.1244
  563MOL0     C75886   8.356   7.318   5.534  0.2729  0.3108 -0.2736
  563MOL0     N75887   8.496   7.276   5.510  0.3429 -0.2221 -0.4573
  563MOL0     C75888   8.582   7.230   5.599  0.5719  0.5070  0.0425
  563MOL0     C75889   8.697   7.218   5.523  0.4787 -0.2925 -0.2287
  563MOL0     C75890   8.826   7.168   5.592  0.9776 -0.0999  0.2432
  563MOL0     C75891   8.866   7.026   5.560 -0.1090  0.2809  0.1052
  563MOL0     C75892   8.996   6.980   5.629 -0.5259  0.1676 -0.3613
  563MOL0     C75893   9.039   6.832   5.587 -1.3777  0.4089  0.1413
  563MOL0     O75894   9.031   6.753   5.712 -0.2103  0.2819 -0.0796
  563MOL0     C75895   8.904   6.717   5.755 -0.3231  1.0287  0.1764
  563MOL0     C75896   8.790   6.700   5.674 -0.6045  0.7921  0.1137
  563MOL0     C75897   8.670   6.656   5.729  0.0975 -0.2334 -0.4978
  563MOL0     C75898   8.561   6.638   5.637 -0.5998 -0.3925  0.0648
  563MOL0     C75899   8.674   6.612   5.858 -1.3572  0.4560  0.2042
  563MOL0     C75900   8.571   6.535   5.912 -0.1165  0.7957 -0.4249
  563MOL0     O75901   8.495   6.586   6.004 -0.1112 -0.0518 -0.3701
  563MOL0     C75902   8.359   6.551   6.032 -0.0321  0.0285  0.1500
  563MOL0     C75903   8.244   6.624   5.991  0.2021  0.2651  0.4251
  563MOL0     C75904   8.116   6.563   6.008 -1.1012  0.4231  0.3587
  563MOL0     C75905   8.100   6.444   6.093  0.6430 -0.6039 -0.0369
  563MOL0     O75906   7.977   6.388   6.125 -1.0387 -1.6700  0.2010
  563MOL0     C75907   7.870   6.386   6.026 -0.2110 -0.6710 -0.5517
  563MOL0     C75908   7.750   6.308   6.069 -0.3219  0.3326 -0.1106
  563MOL0     C75909   7.614   6.344   6.005  0.7730 -0.5670  0.3317
  563MOL0     C75910   7.494   6.251   6.049  0.3294 -0.1405 -0.1947
  563MOL0     C75911   7.361   6.317   6.003 -0.4375 -0.5548  0.3086
  563MOL0     C75912   7.319   6.427   6.093  0.6115  0.0572  0.7305
  563MOL0     C75913   7.197   6.502   6.033  0.0184  0.3962 -0.9842
  563MOL0     C75914   7.097   6.567   6.135 -0.7793 -0.5446 -0.0877
  563MOL0    Cl75915   7.018   6.439   6.230  0.4470 -0.2937  0.0288
  563MOL0     C75916   8.218   6.378   6.131  0.0985 -0.8023  0.0294
  563MOL0     C75917   8.343   6.429   6.101  0.5268  0.4876  0.0032
  563MOL0     O75918   8.543   6.426   5.849  0.0861  0.2069  0.1879
  563MOL0     C75919   8.786   6.629   5.934 -0.9814 -0.1814 -0.4508
  563MOL0     C75920   8.906   6.683   5.889 -0.3489 -0.0868  0.5555
  563MOL0     N75921   8.675   7.250   5.396 -0.3289 -0.6764  0.2514
  563MOL0     N75922   8.558   7.300   5.396  0.2563 -0.2801  0.4130
  563MOL0     C75923   8.261   7.392   4.749  0.7797 -0.7340  0.3459
  563MOL0     C75924   8.351   7.361   4.639 -0.3725  0.3644 -0.0360
  563MOL0     C75925   8.495   7.264   4.204 -0.0008  0.5699 -0.4948
  563MOL0     C75926   8.586   7.375   4.239 -0.7031  1.0884  0.1144
  563MOL0     C75927   8.664   7.422   4.136  0.4766 -0.7772  0.4658
  563MOL0     C75928   8.656   7.369   4.008  0.1886  0.2922 -0.0304
  563MOL0     O75929   8.733   7.430   3.911  0.6485  0.7052 -0.0099
  563MOL0     C75930   8.819   7.340   3.830 -0.1892  0.2184 -0.1843
  563MOL0     C75931   8.893   7.416   3.723 -0.2295 -0.1144 -0.1812
  563MOL0     C75932   8.975   7.325   3.635 -0.1969  0.5597 -0.1248
  563MOL0     C75933   9.086   7.413   3.566  0.3288 -0.2475 -0.6643
  563MOL0     C75934   9.162   7.331   3.476 -0.1275  0.5274  0.1074
  563MOL0     C75935   9.226   7.267   3.396 -0.1046 -0.1560 -0.2654
  563MOL0     C75936   8.579   7.251   3.981  0.4207  0.8589 -0.3746
  563MOL0     C75937   8.491   7.205   4.082 -0.5909 -0.3530  0.4863
  563MOL0     H75938   8.122   7.224   4.428 -0.7683  0.9970 -0.8660
  563MOL0     H75939   7.986   7.233   4.636  3.0250 -4.1776 -1.7288
  563MOL0     H75940   8.170   7.363   5.021  1.0398  1.0013  0.3792
  563MOL0     H75941   8.129   7.529   4.965  0.5921  0.6629 -2.6048
  563MOL0     H75942   7.897   7.497   5.031  2.1903  1.5579 -0.3745
  563MOL0     H75943   7.909   7.323   5.056 -0.3004  0.9641 -1.8225
  563MOL0     H75944   8.016   7.563   5.216  0.2877  0.5470  0.6361
  563MOL0     H75945   7.887   7.460   5.267 -0.0894 -2.6000 -0.4120
  563MOL0     H75946   8.043   7.254   5.238  0.3630  0.1995 -1.0119
  563MOL0     H75947   8.180   7.363   5.250 -0.8739 -0.4168 -2.2081
  563MOL0     H75948   8.095   7.436   5.462  1.6783 -0.1447 -1.3740
  563MOL0     H75949   7.958   7.323   5.449  0.3354  1.8162  2.2680
  563MOL0     H75950   8.094   7.222   5.605  1.5257 -2.4341  1.1037
  563MOL0     H75951   8.084   7.127   5.446 -1.4083  1.0703 -1.4286
  563MOL0     H75952   8.314   7.114   5.548  2.8519  0.1466 -2.8037
  563MOL0     H75953   8.299   7.173   5.385 -1.0755 -0.6181 -0.0032
  563MOL0     H75954   8.346   7.333   5.642  1.0957  1.6941 -0.3602
  563MOL0     H75955   8.323   7.405   5.476  1.4996 -1.6704 -4.3432
  563MOL0     H75956   8.584   7.203   5.705  0.7242 -0.2306 -0.1385
  563MOL0     H75957   8.911   7.233   5.571  0.5763  0.5603  0.6300
  563MOL0     H75958   8.808   7.174   5.699  0.8353 -0.6459  0.2560
  563MOL0     H75959   8.874   7.007   5.452  3.1667  0.2493  0.2418
  563MOL0     H75960   8.782   6.960   5.583  0.4554 -1.2380 -1.8691
  563MOL0     H75961   8.994   6.999   5.737  1.2409  0.8433 -0.4233
  563MOL0     H75962   9.072   7.043   5.582 -1.0863 -0.2205 -1.8381
  563MOL0     H75963   9.144   6.842   5.561 -0.3704 -1.4302  2.9425
  563MOL0     H75964   8.982   6.789   5.504 -1.0546 -0.5415  0.3891
  563MOL0     H75965   8.785   6.735   5.571 -2.4406  3.0398  0.8839
  563MOL0     H75966   8.569   6.554   5.568 -1.3704 -1.7189  1.5257
  563MOL0     H75967   8.471   6.621   5.696  0.7727 -1.2726  1.9889
  563MOL0     H75968   8.561   6.726   5.572  1.6023  0.7111  1.4112
  563MOL0     H75969   8.251   6.717   5.935  0.3412  0.1745  0.2928
  563MOL0     H75970   8.035   6.617   5.961  0.5401  1.3577 -1.4861
  563MOL0     H75971   7.831   6.488   6.014 -1.2385 -0.9092  0.5533
  563MOL0     H75972   7.906   6.346   5.931 -0.9888 -2.9888  0.0670
  563MOL0     H75973   7.763   6.205   6.037  1.6986  0.7013 -0.6073
  563MOL0     H75974   7.748   6.303   6.178  0.4757 -1.2811 -0.1456
  563MOL0     H75975   7.623   6.357   5.897  2.3493 -0.5410  0.4543
  563MOL0     H75976   7.595   6.443   6.050  1.7368 -0.0890 -0.2948
  563MOL0     H75977   7.498   6.148   6.014  2.3487 -0.1274 -0.1419
  563MOL0     H75978   7.496   6.252   6.158  1.8924 -0.3988 -0.2014
  563MOL0     H75979   7.271   6.256   5.993 -0.1343 -0.8071 -1.1988
  563MOL0     H75980   7.379   6.354   5.902 -0.8872  1.4596  0.9194
  563MOL0     H75981   7.294   6.387   6.192 -2.0155  3.7818  1.8391
  563MOL0     H75982   7.395   6.506   6.098  1.9347 -0.7760 -3.0781
  563MOL0     H75983   7.150   6.431   5.964 -3.2848 -0.7546  2.1607
  563MOL0     H75984   7.235   6.588   5.978  1.9484  1.0367  1.1802
  563MOL0     H75985   7.026   6.629   6.080 -0.5276 -0.9427 -0.8740
  563MOL0     H75986   7.156   6.614   6.214  0.0610 -1.5529 -0.0921
  563MOL0     H75987   8.213   6.289   6.193 -0.8217 -0.3072  0.6859
  563MOL0     H75988   8.430   6.371   6.128  1.5660  0.7093 -2.5280
  563MOL0     H75989   8.788   6.596   6.037 -1.0452  1.8287  0.2314
  563MOL0     H75990   8.992   6.683   5.954 -0.6039 -3.6479  1.1195
  563MOL0     H75991   8.309   7.439   4.834  0.0063  1.3550 -0.2946
  563MOL0     H75992   8.450   7.399   4.662 -0.9288  2.8431 -1.3862
  563MOL0     H75993   8.602   7.436   4.327  0.2274 -0.0481  0.7683
  563MOL0     H75994   8.731   7.505   4.154  2.3126 -1.8789 -0.9411
  563MOL0     H75995   8.881   7.284   3.900  0.3118 -0.5008 -1.1754
  563MOL0     H75996   8.746   7.273   3.784 -0.9751  0.9820 -0.0918
  563MOL0     H75997   8.957   7.490   3.773  0.7156 -1.6082  0.8842
  563MOL0     H75998   8.811   7.448   3.657 -2.2520 -2.3557  1.1069
  563MOL0     H75999   8.921   7.272   3.556 -1.2812 -3.2811  2.8742
  563MOL0     H76000   9.035   7.255   3.693  1.1091 -0.2621 -2.3606
  563MOL0     H76001   9.154   7.458   3.638 -1.5184 -1.8986  2.3087
  563MOL0     H76002   9.037   7.492   3.508  2.0683  0.6622 -0.9634
  563MOL0     H76003   9.268   7.204   3.320 -1.2498  2.0960 -2.9511
  563MOL0     H76004   8.559   7.198   3.889  0.9840  1.6443 -0.9599
  563MOL0     H76005   8.422   7.123   4.067 -0.9247  0.3598 -2.4712
  564MOL0     O76006   1.470   5.977   5.326 -0.4803  0.0246 -0.0159
  564MOL0     C76007   1.361   6.027   5.305  0.7580  0.3912  0.1732
  564MOL0     O76008   1.242   5.957   5.312  0.0291  0.0827 -0.3427
  564MOL0     C76009   1.252   5.827   5.359 -0.7663  0.1746  0.0651
  564MOL0     C76010   1.289   5.716   5.295 -0.0735  1.1825  0.2874
  564MOL0     C76011   1.292   5.585   5.354  0.4457 -1.4716  0.1293
  564MOL0     C76012   1.265   5.569   5.491  0.4693  1.1967 -0.6149
  564MOL0     O76013   1.263   5.453   5.562 -1.0292 -0.6818 -0.0676
  564MOL0     C76014   1.309   5.332   5.492  0.2988  0.3334  0.2379
  564MOL0     C76015   1.189   5.283   5.411 -0.3309  0.4615  0.3412
  564MOL0     C76016   1.071   5.242   5.509  0.3439 -0.2387  0.8906
  564MOL0     C76017   0.949   5.333   5.493 -0.4858 -1.0492  0.7111
  564MOL0     C76018   0.841   5.317   5.595 -0.3903  0.4258 -0.1524
  564MOL0     C76019   0.711   5.396   5.557  0.1686  0.5989  0.2172
  564MOL0     C76020   0.606   5.379   5.670  0.1245 -1.4635 -0.6942
  564MOL0     C76021   0.463   5.398   5.627  0.8414 -0.7491  0.3613
  564MOL0     N76022   0.407   5.281   5.549  0.2556  0.2077  0.2847
  564MOL0     C76023   0.403   5.144   5.590  0.1261 -0.0930 -0.1023
  564MOL0     C76024   0.332   5.080   5.487 -0.2708  0.2670  0.7107
  564MOL0     C76025   0.285   4.940   5.477  0.2743 -0.1498 -0.7644
  564MOL0     C76026   0.144   4.912   5.520  0.0236  0.2189 -0.0193
  564MOL0     C76027   0.133   4.954   5.670  0.6422 -0.5246 -0.1487
  564MOL0     C76028  -0.006   4.916   5.717 -0.1049 -0.5468  0.3119
  564MOL0     O76029  -0.039   4.979   5.837  1.0651 -0.3841  0.5076
  564MOL0     C76030   0.020   4.928   5.954 -0.6778 -0.8179 -0.1318
  564MOL0     C76031  -0.009   4.993   6.073  0.4522  0.8466  0.1557
  564MOL0     C76032   0.057   4.957   6.201 -0.1969  0.5649 -0.3504
  564MOL0     C76033   0.054   5.060   6.316  0.7614 -0.0017  0.0630
  564MOL0     C76034   0.142   4.842   6.203  0.1822 -0.7293 -0.9086
  564MOL0     C76035   0.216   4.780   6.329 -0.9786 -0.9515  0.7501
  564MOL0     O76036   0.288   4.656   6.320 -0.1033 -0.2923  0.4137
  564MOL0     C76037   0.324   4.589   6.437 -0.3944  0.1425 -0.1741
  564MOL0     C76038   0.243   4.483   6.481 -0.0429  0.1873 -0.3600
  564MOL0     C76039   0.275   4.398   6.594 -0.7869 -0.4915  0.0743
  564MOL0     C76040   0.392   4.425   6.666  0.0303  0.1431  0.9789
  564MOL0     O76041   0.430   4.358   6.779  0.0081  0.8388  0.3050
  564MOL0     C76042   0.324   4.351   6.873  0.0154  0.1337 -0.9406
  564MOL0     C76043   0.343   4.247   6.983 -0.2917  0.2675 -0.1463
  564MOL0     C76044   0.213   4.230   7.058 -0.0397 -0.1910  0.4363
  564MOL0     C76045   0.225   4.153   7.187 -0.8900  0.4548 -0.5887
  564MOL0     C76046   0.100   4.163   7.274  0.4436  0.1592 -0.9550
  564MOL0     C76047  -0.005   4.063   7.229 -0.3030 -1.2855 -0.2491
  564MOL0     C76048  -0.144   4.090   7.284 -0.5800 -0.3169  0.7174
  564MOL0     C76049  -0.152   4.094   7.434  0.2410  0.0502  0.1209
  564MOL0    Cl76050  -0.323   4.136   7.476 -0.3621 -0.1461 -0.2146
  564MOL0     C76051   0.466   4.537   6.631 -0.6326  0.1852  0.2878
  564MOL0     C76052   0.438   4.625   6.517  0.2553 -0.4005 -0.0717
  564MOL0     O76053   0.210   4.845   6.437  0.6110 -0.3676  1.4046
  564MOL0     C76054   0.153   4.768   6.082  0.7131 -0.0050  0.9224
  564MOL0     C76055   0.096   4.807   5.960 -0.4683  0.7308 -0.1677
  564MOL0     N76056   0.319   5.174   5.385 -0.1195  0.4025 -0.2514
  564MOL0     N76057   0.369   5.285   5.410  0.9748 -0.1980  0.6655
  564MOL0     C76058   1.234   5.686   5.560 -0.3312  0.1784  1.1531
  564MOL0     C76059   1.230   5.812   5.498 -0.0444  1.3638 -0.2511
  564MOL0     C76060   1.351   6.162   5.257 -0.6361  0.3800  0.5160
  564MOL0     C76061   1.464   6.247   5.262  1.1073  0.4570  0.2412
  564MOL0     C76062   1.452   6.389   5.224  0.4098  0.2623  1.2962
  564MOL0     C76063   1.329   6.439   5.185 -1.1206 -0.7976 -0.2602
  564MOL0     O76064   1.315   6.572   5.150  0.1823 -0.2111 -0.4330
  564MOL0     C76065   1.311   6.664   5.267 -0.2194 -0.3089 -0.3734
  564MOL0     C76066   1.367   6.795   5.221 -0.4123 -0.4835 -0.1884
  564MOL0     C76067   1.524   6.811   5.245 -0.4652 -0.6217 -0.3383
  564MOL0     C76068   1.558   6.961   5.262  0.5210  0.8326  0.8661
  564MOL0     C76069   1.686   6.986   5.327 -0.2013 -0.9869 -0.3971
  564MOL0     C76070   1.794   7.004   5.385 -0.2150  0.6324  0.8980
  564MOL0     C76071   1.220   6.348   5.166 -0.9044  0.1027 -0.3379
  564MOL0     C76072   1.229   6.219   5.211  0.5322 -0.5899 -0.4492
  564MOL0     H76073   1.318   5.733   5.192 -2.3199 -0.5631 -0.7231
  564MOL0     H76074   1.340   5.509   5.294  0.7129 -1.7300  0.6685
  564MOL0     H76075   1.402   5.350   5.438 -0.1848 -0.8569 -1.0340
  564MOL0     H76076   1.336   5.258   5.569  2.0406 -1.1397 -1.6742
  564MOL0     H76077   1.161   5.361   5.340 -1.1472 -2.2152 -2.5361
  564MOL0     H76078   1.221   5.197   5.351 -0.0504  0.2193  0.8346
  564MOL0     H76079   1.044   5.138   5.494 -0.9052  0.4977 -3.1289
  564MOL0     H76080   1.113   5.248   5.610  0.1029 -0.5992  1.0149
  564MOL0     H76081   0.989   5.434   5.506 -2.6129 -0.0301 -0.2361
  564MOL0     H76082   0.903   5.337   5.394  0.4636 -0.3388  0.2875
  564MOL0     H76083   0.811   5.212   5.601 -0.6392  0.5591  0.9866
  564MOL0     H76084   0.870   5.346   5.696 -2.1023 -3.6042  1.7137
  564MOL0     H76085   0.731   5.503   5.541  2.6386  0.5854  2.6354
  564MOL0     H76086   0.681   5.356   5.459 -0.4876  1.6670 -0.0433
  564MOL0     H76087   0.613   5.278   5.712 -0.3573 -1.2835 -0.1720
  564MOL0     H76088   0.619   5.453   5.749 -0.9611 -4.3783  2.4738
  564MOL0     H76089   0.445   5.482   5.560 -0.5702 -0.2318  1.3553
  564MOL0     H76090   0.394   5.409   5.711 -0.7344 -2.4218 -0.6253
  564MOL0     H76091   0.431   5.105   5.687 -0.1266 -0.2168 -0.0800
  564MOL0     H76092   0.296   4.903   5.374  3.8927 -0.7288 -0.3034
  564MOL0     H76093   0.350   4.874   5.535  1.4934  0.4606 -1.3917
  564MOL0     H76094   0.113   4.807   5.520 -2.3066  0.8141  1.8448
  564MOL0     H76095   0.066   4.966   5.464  1.0917  1.1328 -0.6532
  564MOL0     H76096   0.147   5.061   5.687  0.0215 -0.1580 -1.7626
  564MOL0     H76097   0.203   4.900   5.734 -1.7549 -1.4991  1.8155
  564MOL0     H76098  -0.025   4.809   5.727 -1.7842 -0.3214 -0.1871
  564MOL0     H76099  -0.085   4.949   5.649  0.0755 -0.4956  0.1267
  564MOL0     H76100  -0.066   5.086   6.074 -0.1946  0.6916 -3.9325
  564MOL0     H76101  -0.016   5.032   6.395  0.6804 -0.4614 -0.1660
  564MOL0     H76102   0.153   5.071   6.361 -0.1995  1.6359  1.9432
  564MOL0     H76103   0.011   5.151   6.273  1.6901  0.5326  0.2367
  564MOL0     H76104   0.155   4.462   6.421 -0.3836  1.4725 -0.3418
  564MOL0     H76105   0.214   4.310   6.607  0.1203 -0.7006  4.3144
  564MOL0     H76106   0.317   4.454   6.907 -2.9281 -0.3793  0.3285
  564MOL0     H76107   0.229   4.324   6.826 -0.2184 -1.0596  0.1426
  564MOL0     H76108   0.388   4.159   6.937 -1.9270 -0.7482  0.1119
  564MOL0     H76109   0.417   4.286   7.053  0.2253  3.2340 -2.1372
  564MOL0     H76110   0.142   4.178   6.992 -0.2494  0.0625  0.4599
  564MOL0     H76111   0.171   4.328   7.083  0.0118 -0.4670  1.6753
  564MOL0     H76112   0.243   4.048   7.165  0.8165  0.2695  1.3726
  564MOL0     H76113   0.312   4.181   7.248 -1.8471 -0.3592  1.2309
  564MOL0     H76114   0.059   4.263   7.287  1.3925  0.2564  1.9403
  564MOL0     H76115   0.125   4.143   7.379 -2.0066  2.7349  0.2366
  564MOL0     H76116   0.001   4.084   7.122  1.6860 -2.1842 -0.3560
  564MOL0     H76117   0.030   3.962   7.252  0.6485 -0.7659  0.6376
  564MOL0     H76118  -0.220   4.017   7.254 -0.4957 -0.4740  0.8863
  564MOL0     H76119  -0.184   4.180   7.235 -1.1229 -0.4718  0.8670
  564MOL0     H76120  -0.104   4.175   7.488 -1.4758  0.8909  0.4494
  564MOL0     H76121  -0.123   3.996   7.474 -1.3152  0.9715  3.9744
  564MOL0     H76122   0.547   4.564   6.698  0.1042 -2.4102  0.5438
  564MOL0     H76123   0.491   4.718   6.498 -3.4558  1.1738 -4.2517
  564MOL0     H76124   0.200   4.671   6.075 -0.9141 -0.6887 -2.4659
  564MOL0     H76125   0.117   4.737   5.879  1.1563 -1.9288  2.3462
  564MOL0     H76126   1.201   5.681   5.663 -0.2356 -1.4973  1.1217
  564MOL0     H76127   1.194   5.891   5.563 -0.6808  0.8847 -0.0169
  564MOL0     H76128   1.556   6.201   5.297  0.1293 -0.9705  1.0788
  564MOL0     H76129   1.545   6.444   5.228  1.8351 -2.0110  1.1713
  564MOL0     H76130   1.210   6.689   5.301 -0.0842 -0.7506  0.3818
  564MOL0     H76131   1.373   6.633   5.351  4.1093  1.5237 -2.5526
  564MOL0     H76132   1.310   6.874   5.271 -1.9515 -1.4670 -0.3268
  564MOL0     H76133   1.349   6.800   5.113 -2.1021  0.4434  0.1002
  564MOL0     H76134   1.575   6.772   5.156 -3.8934 -2.5359 -1.6346
  564MOL0     H76135   1.543   6.755   5.337  1.6594 -0.6919 -0.7602
  564MOL0     H76136   1.484   7.027   5.308  0.7819  1.5940  0.2198
  564MOL0     H76137   1.562   6.988   5.156  0.7675 -1.2463  0.2954
  564MOL0     H76138   1.883   6.992   5.442 -0.3769 -0.0211  1.0235
  564MOL0     H76139   1.138   6.409   5.127  1.3336  2.5066 -1.5948
  564MOL0     H76140   1.150   6.145   5.213  1.6927 -1.8922  1.8267
  565MOL0     O76141   1.045   4.976   9.643  0.4890  0.8991 -0.1350
  565MOL0     C76142   0.998   4.859   9.646  0.6692 -0.4112  0.0704
  565MOL0     O76143   0.989   4.777   9.538 -0.5905  0.1447  0.5931
  565MOL0     C76144   1.059   4.796   9.423 -0.1188  0.5149 -0.4315
  565MOL0     C76145   1.190   4.855   9.413 -0.5480  0.4365 -0.1666
  565MOL0     C76146   1.255   4.862   9.285 -0.4712  0.2913 -0.0842
  565MOL0     C76147   1.201   4.806   9.180  0.7884  0.3654  0.6705
  565MOL0     O76148   1.274   4.797   9.067 -0.0153  0.7496  0.0090
  565MOL0     C76149   1.240   4.689   8.982 -0.3285  0.3183 -0.3732
  565MOL0     C76150   1.333   4.695   8.853  0.2924  0.4416 -0.0260
  565MOL0     C76151   1.284   4.795   8.757  0.4511 -0.7156 -0.9372
  565MOL0     C76152   1.377   4.792   8.631  0.3037 -0.5212  0.5100
  565MOL0     C76153   1.344   4.910   8.541  0.5745  0.2195  0.4753
  565MOL0     C76154   1.234   4.882   8.441  1.3454 -1.2683 -0.9501
  565MOL0     C76155   1.248   4.756   8.352 -0.7691  0.5202 -0.2312
  565MOL0     C76156   1.368   4.765   8.263 -0.3414  0.6926  0.6239
  565MOL0     N76157   1.377   4.853   8.142  0.3991  0.6343 -0.3592
  565MOL0     C76158   1.491   4.882   8.068  0.9066 -0.8326  0.4908
  565MOL0     C76159   1.450   4.973   7.973 -0.0374 -0.3504  0.4170
  565MOL0     C76160   1.521   5.033   7.854 -0.1053  0.3337 -0.7982
  565MOL0     C76161   1.674   5.037   7.882 -0.3467  0.2090  0.1753
  565MOL0     C76162   1.714   5.125   8.005  0.5667 -0.5717  0.9039
  565MOL0     C76163   1.864   5.114   8.038 -0.0553  0.6086 -0.1894
  565MOL0     O76164   1.896   4.981   8.062  0.5360  0.1016  0.3439
  565MOL0     C76165   1.936   4.952   8.188 -0.1716  0.4444 -0.1761
  565MOL0     C76166   1.848   4.961   8.283 -0.5387  0.3127  0.2370
  565MOL0     C76167   1.871   4.938   8.417  0.3744 -0.3798 -0.5739
  565MOL0     C76168   1.744   4.977   8.500  0.1665 -0.0477 -0.1551
  565MOL0     C76169   1.995   4.902   8.458 -0.2087 -0.5033 -0.4192
  565MOL0     C76170   2.046   4.877   8.597 -0.1228 -0.1379 -0.3570
  565MOL0     O76171   1.977   4.932   8.704  0.0728 -0.0046 -0.5944
  565MOL0     C76172   2.012   4.899   8.826 -1.1699  0.1779 -0.1912
  565MOL0     C76173   2.139   4.918   8.886 -0.1239 -0.2312  0.3422
  565MOL0     C76174   2.154   4.904   9.028 -0.5621  0.2973  0.1032
  565MOL0     C76175   2.049   4.861   9.115 -0.2043 -0.6195  0.2319
  565MOL0     O76176   2.091   4.835   9.234  0.0260  0.2329 -0.4352
  565MOL0     C76177   2.002   4.755   9.320  0.0557 -0.7600 -0.1874
  565MOL0     C76178   2.004   4.602   9.305 -0.6826 -0.0989 -0.4233
  565MOL0     C76179   2.140   4.535   9.305 -0.6291 -0.0731 -0.8593
  565MOL0     C76180   2.229   4.591   9.426 -0.2941  0.6145 -0.2095
  565MOL0     C76181   2.339   4.486   9.461  0.1184 -0.4110 -0.4449
  565MOL0     C76182   2.442   4.485   9.349 -0.0610  0.0207 -0.8324
  565MOL0     C76183   2.559   4.383   9.378  0.9060 -0.0647  0.7023
  565MOL0     C76184   2.623   4.411   9.515 -1.0110 -0.2065  0.0447
  565MOL0    Cl76185   2.794   4.347   9.514  0.3546 -0.2376 -0.1902
  565MOL0     C76186   1.925   4.828   9.052  0.2337 -0.0817  0.2787
  565MOL0     C76187   1.907   4.862   8.915  1.0805  0.3317  0.1124
  565MOL0     O76188   2.148   4.811   8.610  0.7157  1.2962  0.5105
  565MOL0     C76189   2.090   4.883   8.354 -0.1367  0.2782  0.1224
  565MOL0     C76190   2.058   4.901   8.219 -0.7813 -0.1854 -0.6333
  565MOL0     N76191   1.318   4.997   7.999 -0.5822 -0.2123  0.7532
  565MOL0     N76192   1.277   4.938   8.102  0.2173 -0.1939 -0.3284
  565MOL0     C76193   1.063   4.761   9.188  0.0915 -0.5513 -0.0009
  565MOL0     C76194   1.001   4.747   9.303  0.3787 -0.1826  0.4848
  565MOL0     C76195   0.939   4.809   9.777 -0.8311  0.7663  0.5674
  565MOL0     C76196   0.960   4.874   9.897 -0.1720 -0.1759  0.4478
  565MOL0     C76197   0.879   4.832  10.007 -0.2277 -0.9306 -0.3282
  565MOL0     C76198   0.810   4.711  10.007  0.4479 -0.5862 -0.3823
  565MOL0     O76199   0.741   4.682  10.121  0.2428  0.1633  0.2471
  565MOL0     C76200   0.692   4.548  10.141  0.2281  0.1379 -0.4083
  565MOL0     C76201   0.627   4.510  10.263 -0.9344 -0.3030 -0.3115
  565MOL0     C76202   0.717   4.555  10.383 -0.0046 -1.1559  0.4635
  565MOL0     C76203   0.743   4.459  10.501  0.0366  0.2820  0.5994
  565MOL0     C76204   0.782   4.323  10.455 -0.3623 -0.4979  0.7047
  565MOL0     C76205   0.778   4.205  10.416 -0.8589 -0.0094 -0.4697
  565MOL0     C76206   0.790   4.645   9.887 -0.6696  0.0062  0.9129
  565MOL0     C76207   0.856   4.693   9.778 -0.2582 -0.1990 -0.0118
  565MOL0     H76208   1.239   4.875   9.508 -3.5762 -2.2552  2.1945
  565MOL0     H76209   1.353   4.908   9.296 -1.4790  2.0756  2.4607
  565MOL0     H76210   1.261   4.597   9.038 -2.6602  0.5194  1.0011
  565MOL0     H76211   1.135   4.691   8.949  0.1756 -4.9089 -3.3986
  565MOL0     H76212   1.438   4.715   8.877  0.1623  0.5871  0.4307
  565MOL0     H76213   1.335   4.599   8.800  1.1864  0.0728  0.6474
  565MOL0     H76214   1.179   4.769   8.743  0.1017 -2.0405  2.8710
  565MOL0     H76215   1.290   4.892   8.809 -5.5240 -0.9742  0.9495
  565MOL0     H76216   1.478   4.805   8.671  0.4018  1.2772 -0.2456
  565MOL0     H76217   1.367   4.693   8.585  2.4693 -0.1519 -0.9016
  565MOL0     H76218   1.350   4.998   8.606  0.7870 -0.8931  2.0213
  565MOL0     H76219   1.417   4.937   8.464 -2.1456  2.3121 -1.5741
  565MOL0     H76220   1.132   4.876   8.479  1.8639  0.1006  0.7663
  565MOL0     H76221   1.219   4.971   8.380 -0.5386  0.2910  1.6038
  565MOL0     H76222   1.245   4.660   8.405 -1.0910  1.9272  2.5157
  565MOL0     H76223   1.156   4.745   8.295 -0.0627 -1.1867 -1.1430
  565MOL0     H76224   1.380   4.667   8.216  2.2109  0.6081  1.3125
  565MOL0     H76225   1.450   4.780   8.334 -0.9538  1.1194  1.2489
  565MOL0     H76226   1.590   4.846   8.092  0.9443 -0.5336  0.7876
  565MOL0     H76227   1.500   4.970   7.767 -2.6212  0.6963 -0.5260
  565MOL0     H76228   1.484   5.135   7.839 -1.0335  0.9059  3.8698
  565MOL0     H76229   1.725   5.066   7.790  0.0772 -1.8515 -0.2840
  565MOL0     H76230   1.714   4.939   7.909 -1.6898 -0.2694  0.5207
  565MOL0     H76231   1.647   5.099   8.087 -2.9359 -0.7897 -1.8103
  565MOL0     H76232   1.687   5.227   7.976  0.7500 -0.6096  0.5903
  565MOL0     H76233   1.884   5.189   8.115 -0.1504  2.7531 -2.1660
  565MOL0     H76234   1.908   5.137   7.941 -0.6638 -1.2255 -0.9362
  565MOL0     H76235   1.748   4.981   8.244  0.5081  2.2367 -1.6316
  565MOL0     H76236   1.692   5.056   8.445 -1.9106 -1.6466 -0.5826
  565MOL0     H76237   1.677   4.891   8.504  0.4322 -0.2632 -0.3076
  565MOL0     H76238   1.759   5.009   8.604 -0.0170 -3.5030  1.0535
  565MOL0     H76239   2.214   4.946   8.813 -1.3439 -0.1926 -0.9461
  565MOL0     H76240   2.250   4.926   9.072 -0.7007  4.1816 -1.1304
  565MOL0     H76241   2.032   4.772   9.424 -3.0485 -3.7463  1.4151
  565MOL0     H76242   1.898   4.787   9.325 -0.4341 -2.1221 -1.0101
  565MOL0     H76243   1.937   4.561   9.381  1.0765 -0.1769  1.1639
  565MOL0     H76244   1.956   4.561   9.216  2.4333 -2.8299 -1.0381
  565MOL0     H76245   2.197   4.550   9.212 -2.4977  0.3657 -1.9853
  565MOL0     H76246   2.124   4.429   9.330 -1.1077  0.4084  1.0019
  565MOL0     H76247   2.271   4.687   9.394  0.1388 -0.4991 -3.3134
  565MOL0     H76248   2.171   4.610   9.517  2.2047 -0.0148  1.6154
  565MOL0     H76249   2.292   4.388   9.470 -1.2216  0.0824 -1.6655
  565MOL0     H76250   2.378   4.521   9.557 -0.2480 -1.3598  0.0558
  565MOL0     H76251   2.392   4.426   9.272  0.2569 -2.2128  0.5874
  565MOL0     H76252   2.479   4.586   9.329  1.1220 -0.1548  0.3822
  565MOL0     H76253   2.632   4.379   9.297  1.3582 -0.9977  1.1502
  565MOL0     H76254   2.520   4.281   9.387  0.4092 -0.3300 -2.9912
  565MOL0     H76255   2.559   4.365   9.591 -1.4438 -2.9109 -1.8316
  565MOL0     H76256   2.627   4.517   9.542 -2.7368 -0.4575  1.4644
  565MOL0     H76257   1.843   4.796   9.114 -2.0254  1.8171 -1.5061
  565MOL0     H76258   1.808   4.846   8.872  0.5546 -2.1395  2.0389
  565MOL0     H76259   2.185   4.842   8.385 -0.6622 -0.4842  0.7812
  565MOL0     H76260   2.143   4.881   8.154 -0.8317 -1.8036 -0.2597
  565MOL0     H76261   1.009   4.722   9.103  0.5572 -0.2765 -0.4271
  565MOL0     H76262   0.901   4.704   9.310 -0.7517  2.1398 -0.4097
  565MOL0     H76263   1.025   4.959   9.915  0.0360 -0.3774  0.6523
  565MOL0     H76264   0.871   4.896  10.094  0.6663  0.9683 -1.5649
  565MOL0     H76265   0.627   4.524  10.057  1.2912  2.5218 -2.0228
  565MOL0     H76266   0.782   4.486  10.131  1.2278  1.3625  0.6612
  565MOL0     H76267   0.622   4.401  10.262  1.4890 -0.5283  1.6731
  565MOL0     H76268   0.527   4.556  10.261 -0.6145  0.3940 -2.4913
  565MOL0     H76269   0.679   4.654  10.410  2.2005  0.0140 -0.4661
  565MOL0     H76270   0.816   4.583  10.346  0.1531 -2.0035  0.2274
  565MOL0     H76271   0.649   4.440  10.554 -2.1101 -1.5937 -3.4145
  565MOL0     H76272   0.814   4.504  10.571 -1.3940  0.1483  2.1980
  565MOL0     H76273   0.785   4.099  10.397 -0.3439 -0.7116  2.9814
  565MOL0     H76274   0.731   4.554   9.877  0.7641 -1.2346  2.8751
  565MOL0     H76275   0.847   4.632   9.689 -0.0641 -3.3410  1.9566
  566MOL0     O76276   9.966  10.451   1.067  0.8491 -0.4040 -0.1800
  566MOL0     C76277   9.976  10.396   1.172  0.2418  0.2173  0.2604
  566MOL0     O76278   9.864  10.351   1.245 -0.6951  0.3991 -0.1242
  566MOL0     C76279   9.731  10.382   1.235  0.6912  0.0919 -0.3045
  566MOL0     C76280   9.643  10.286   1.291  0.0795  0.5442  0.4637
  566MOL0     C76281   9.505  10.311   1.287  1.4346  0.2975  0.6663
  566MOL0     C76282   9.453  10.420   1.221 -0.6851  0.2901  0.1501
  566MOL0     O76283   9.314  10.436   1.229  0.5127 -1.0849 -0.5811
  566MOL0     C76284   9.241  10.522   1.145 -0.4966  0.3071  0.4625
  566MOL0     C76285   9.245  10.476   1.001  0.2974  0.6856  0.3103
  566MOL0     C76286   9.192  10.341   0.979  0.7837  0.3250  0.7816
  566MOL0     C76287   9.029  10.352   0.993  1.0171 -0.4800 -0.2092
  566MOL0     C76288   8.966  10.219   0.973  0.5739  0.9945  0.1668
  566MOL0     C76289   8.820  10.216   1.023 -0.6602  0.2274 -0.4499
  566MOL0     C76290   8.811  10.187   1.180  1.1489 -0.2658  0.2176
  566MOL0     C76291   8.833  10.042   1.206 -0.6799  0.8342 -0.3515
  566MOL0     N76292   8.747   9.946   1.134  0.1209 -0.1153  0.2278
  566MOL0     C76293   8.611   9.916   1.165 -0.2446  0.4153 -0.2815
  566MOL0     C76294   8.571   9.838   1.061  0.3209  0.6758 -0.1138
  566MOL0     C76295   8.432   9.790   1.060  0.4903  0.3355  0.3425
  566MOL0     C76296   8.381   9.688   1.155  0.5596 -0.6270  0.3901
  566MOL0     C76297   8.461   9.566   1.150 -0.1822 -0.1505  0.0739
  566MOL0     C76298   8.445   9.475   1.028  0.2967  0.0713  0.2446
  566MOL0     O76299   8.542   9.379   1.006  0.1722 -0.1149  0.7360
  566MOL0     C76300   8.529   9.248   1.052 -0.3220  0.7836  0.2785
  566MOL0     C76301   8.623   9.152   1.001 -0.8037 -0.2880 -0.2620
  566MOL0     C76302   8.614   9.017   1.034  0.0839 -0.0695  0.4190
  566MOL0     C76303   8.724   8.928   0.981 -0.3193  0.9317 -0.8364
  566MOL0     C76304   8.518   8.967   1.127 -0.5903 -0.0529 -0.6038
  566MOL0     C76305   8.511   8.830   1.173 -0.2583 -0.0760  1.2088
  566MOL0     O76306   8.437   8.812   1.287  0.4330 -0.7443  0.3716
  566MOL0     C76307   8.410   8.686   1.333  0.4978 -0.4257 -0.1727
  566MOL0     C76308   8.280   8.636   1.341  0.1254 -0.3774 -0.4737
  566MOL0     C76309   8.234   8.508   1.384 -0.7303 -0.9874  0.6843
  566MOL0     C76310   8.340   8.416   1.430 -0.4245  0.3695  0.7699
  566MOL0     O76311   8.319   8.280   1.456  0.1733  0.2074  0.1509
  566MOL0     C76312   8.368   8.219   1.575 -0.3458  0.8068 -0.2816
  566MOL0     C76313   8.418   8.080   1.534 -0.4946  1.0707  0.1534
  566MOL0     C76314   8.310   7.999   1.465 -0.2702  0.4688 -0.3216
  566MOL0     C76315   8.234   7.912   1.566 -0.3815 -0.6199  0.5569
  566MOL0     C76316   8.123   7.825   1.496 -0.3536 -0.4675  0.2000
  566MOL0     C76317   8.175   7.737   1.375  0.8443 -0.2164  0.6094
  566MOL0     C76318   8.061   7.643   1.330  0.1721 -0.5113 -0.0906
  566MOL0     C76319   7.957   7.710   1.236 -0.1202  0.3660  0.1693
  566MOL0    Cl76320   7.847   7.586   1.180 -0.4806 -0.0696 -0.1300
  566MOL0     C76321   8.471   8.459   1.421  0.1328 -0.2972  0.5921
  566MOL0     C76322   8.506   8.594   1.373 -0.7752  1.4997  0.1574
  566MOL0     O76323   8.569   8.736   1.117 -0.3654  0.9795 -0.0130
  566MOL0     C76324   8.429   9.065   1.175 -0.1104 -0.1923  0.2134
  566MOL0     C76325   8.433   9.198   1.136  0.5136 -0.7154  0.4779
  566MOL0     N76326   8.681   9.807   0.979  0.5938  0.2639  0.6898
  566MOL0     N76327   8.788   9.873   1.021 -0.4763 -0.5127 -0.0872
  566MOL0     C76328   9.543  10.500   1.156 -0.2999 -0.7778  0.8605
  566MOL0     C76329   9.680  10.484   1.158 -0.2419 -0.5472  0.5604
  566MOL0     C76330  10.112  10.377   1.216 -0.4197  0.3267  0.2758
  566MOL0     C76331  10.140  10.321   1.342 -0.7966  0.0112  0.7534
  566MOL0     C76332  10.269  10.285   1.374  0.5920 -0.4605 -0.3115
  566MOL0     C76333  10.370  10.307   1.281 -0.1362 -0.6202  0.3565
  566MOL0     O76334  10.492  10.266   1.307  0.3796 -0.1373  0.5056
  566MOL0     C76335  10.589  10.221   1.211 -0.9076  0.1467  1.0116
  566MOL0     C76336  10.701  10.135   1.267 -0.0483 -0.3957 -0.1035
  566MOL0     C76337  10.785  10.193   1.382  0.5971  0.2340  0.8632
  566MOL0     C76338  10.889  10.303   1.360 -0.0830 -0.0933  1.0691
  566MOL0     C76339  10.989  10.276   1.255  0.1785  0.7594  0.2400
  566MOL0     C76340  11.077  10.263   1.172 -0.1637  0.3583  0.3058
  566MOL0     C76341  10.343  10.369   1.157 -0.6888 -0.1419 -0.6074
  566MOL0     C76342  10.214  10.405   1.123  0.2651  0.5964  0.7191
  566MOL0     H76343   9.672  10.193   1.339  0.5715 -1.6703 -3.6287
  566MOL0     H76344   9.430  10.252   1.338 -0.4549  3.0908  1.3206
  566MOL0     H76345   9.140  10.512   1.185 -0.1232  2.0362  1.9120
  566MOL0     H76346   9.281  10.623   1.155 -3.0834  1.5609 -1.0309
  566MOL0     H76347   9.184  10.546   0.944 -0.0584 -1.6993 -2.4738
  566MOL0     H76348   9.345  10.482   0.957 -0.2077  0.2268 -0.9474
  566MOL0     H76349   9.219  10.304   0.880 -2.0395  0.7438 -0.2326
  566MOL0     H76350   9.235  10.277   1.057  1.1523  0.9248  1.0766
  566MOL0     H76351   9.000  10.385   1.092  0.2186  2.6267 -1.3628
  566MOL0     H76352   8.975  10.413   0.920 -0.5234 -2.1756 -0.5539
  566MOL0     H76353   8.953  10.193   0.868 -2.9690 -3.4380  1.3459
  566MOL0     H76354   9.019  10.134   1.016 -2.5659 -1.6716 -0.8251
  566MOL0     H76355   8.778  10.315   1.006  1.4179  0.9808 -1.5131
  566MOL0     H76356   8.760  10.148   0.961 -0.9681  1.7157 -1.8286
  566MOL0     H76357   8.877  10.257   1.233 -0.5528  1.6448 -0.0686
  566MOL0     H76358   8.705  10.202   1.198 -0.1650 -2.4621 -4.2336
  566MOL0     H76359   8.819  10.024   1.314  0.6612  0.9771 -0.1395
  566MOL0     H76360   8.937  10.009   1.192 -1.4943 -1.9184 -0.5950
  566MOL0     H76361   8.551   9.945   1.250  1.5974  0.1459  1.1839
  566MOL0     H76362   8.378   9.884   1.075  1.7535  1.7112 -2.8185
  566MOL0     H76363   8.404   9.768   0.956 -4.0860  0.6897  1.2905
  566MOL0     H76364   8.274   9.668   1.141 -0.0157  2.5552 -0.6086
  566MOL0     H76365   8.380   9.719   1.260  0.7085  1.5213 -0.1899
  566MOL0     H76366   8.435   9.508   1.239 -1.3797  0.1364 -0.0772
  566MOL0     H76367   8.566   9.595   1.165 -0.8283  2.1240  0.5267
  566MOL0     H76368   8.437   9.537   0.938 -0.5550 -1.0216 -0.4691
  566MOL0     H76369   8.347   9.430   1.045 -0.8191  2.4863  0.5969
  566MOL0     H76370   8.706   9.190   0.942 -0.1043 -2.3468 -0.6810
  566MOL0     H76371   8.684   8.848   0.919 -1.5919  0.0034  1.0687
  566MOL0     H76372   8.795   8.990   0.925  1.0429  0.3957  0.2420
  566MOL0     H76373   8.778   8.885   1.066  0.6682 -0.8987 -2.3377
  566MOL0     H76374   8.197   8.704   1.325 -2.3043 -2.7018  1.2981
  566MOL0     H76375   8.133   8.475   1.362 -1.4823  1.7737 -0.4955
  566MOL0     H76376   8.447   8.277   1.624 -0.8400 -0.1466  1.8074
  566MOL0     H76377   8.289   8.206   1.650  0.8398  2.7423  1.4102
  566MOL0     H76378   8.493   8.097   1.456  1.1076 -1.2493  1.0877
  566MOL0     H76379   8.460   8.035   1.624  0.5394  3.5487  1.0053
  566MOL0     H76380   8.365   7.949   1.385 -0.5271  0.6894 -0.6422
  566MOL0     H76381   8.236   8.063   1.415  0.3296  3.1492  1.9709
  566MOL0     H76382   8.303   7.861   1.634  0.4479 -0.0785  0.1349
  566MOL0     H76383   8.170   7.969   1.634  0.4712  0.0759  0.8052
  566MOL0     H76384   8.049   7.890   1.450 -1.2359 -0.3048  1.7589
  566MOL0     H76385   8.073   7.774   1.580 -2.4418  3.6042  1.7077
  566MOL0     H76386   8.204   7.807   1.296  2.4425 -0.9132  0.5455
  566MOL0     H76387   8.267   7.683   1.400  4.8836  4.7888 -1.6314
  566MOL0     H76388   8.016   7.598   1.419  3.4980 -1.7037  1.1490
  566MOL0     H76389   8.113   7.571   1.267  2.2325  3.1487 -3.0349
  566MOL0     H76390   8.013   7.751   1.151  0.6057 -1.4127 -0.2539
  566MOL0     H76391   7.909   7.798   1.279 -2.1801 -0.7637  0.3168
  566MOL0     H76392   8.550   8.387   1.440  3.3448  1.7083 -3.4208
  566MOL0     H76393   8.606   8.631   1.359 -1.2428  3.4269  1.4911
  566MOL0     H76394   8.360   9.031   1.252 -2.3441  1.3522 -0.9841
  566MOL0     H76395   8.369   9.268   1.189 -0.2799  0.0713 -1.4241
  566MOL0     H76396   9.502  10.585   1.103 -0.5397 -0.5266  1.4344
  566MOL0     H76397   9.736  10.557   1.101  1.0941 -4.0248 -3.1118
  566MOL0     H76398  10.060  10.304   1.413 -1.9042 -0.2212 -0.5120
  566MOL0     H76399  10.277  10.248   1.475 -1.4556  3.2348  1.4155
  566MOL0     H76400  10.551  10.174   1.120  1.7109 -2.2705  1.0328
  566MOL0     H76401  10.630  10.314   1.169 -2.4587  0.8234  0.9304
  566MOL0     H76402  10.769  10.108   1.185 -1.9034 -3.3426 -0.8213
  566MOL0     H76403  10.660  10.040   1.302  2.5315 -2.3185 -1.8602
  566MOL0     H76404  10.834  10.120   1.447  0.6334  0.3065  0.9164
  566MOL0     H76405  10.711  10.248   1.441 -0.1713  0.1103  0.0428
  566MOL0     H76406  10.937  10.329   1.455  1.2535  0.4492  0.2767
  566MOL0     H76407  10.844  10.392   1.316  1.4961 -0.7506 -2.2135
  566MOL0     H76408  11.155  10.245   1.100 -0.5036  0.7360 -0.1681
  566MOL0     H76409  10.417  10.384   1.079 -0.0065 -1.2198 -0.1981
  566MOL0     H76410  10.205  10.443   1.022 -1.3173  0.8316  0.9315
  567MOL0     O76411  10.602   1.083   2.200  0.9766  0.3704 -0.0649
  567MOL0     C76412  10.553   1.148   2.109  0.1421 -0.3740 -0.6103
  567MOL0     O76413  10.426   1.148   2.071  0.5671 -1.0152  0.6281
  567MOL0     C76414  10.349   1.052   2.139  0.1460  0.1469 -0.7762
  567MOL0     C76415  10.293   1.068   2.272 -0.3658 -0.6225 -0.1293
  567MOL0     C76416  10.237   0.953   2.330 -0.3443  0.1536  0.1299
  567MOL0     C76417  10.217   0.830   2.262 -0.5961 -0.3146 -0.5045
  567MOL0     O76418  10.152   0.717   2.324 -0.8422 -0.4010  0.6529
  567MOL0     C76419  10.117   0.612   2.236 -0.2285 -0.5498 -0.0763
  567MOL0     C76420  10.024   0.514   2.316  0.3783  0.7757  0.0950
  567MOL0     C76421   9.989   0.399   2.214  0.0408 -0.6698  0.2195
  567MOL0     C76422   9.909   0.287   2.294 -0.1393 -0.5929  0.1468
  567MOL0     C76423   9.896   0.173   2.192 -0.4703  0.6941 -1.4833
  567MOL0     C76424   9.798   0.066   2.252  0.6274 -0.6493  0.2473
  567MOL0     C76425   9.792  -0.036   2.144 -0.0224 -0.1434 -0.3678
  567MOL0     C76426   9.689  -0.134   2.189 -0.5527  0.1835  0.3528
  567MOL0     N76427   9.686  -0.255   2.107  0.1449  0.4792  0.2535
  567MOL0     C76428   9.703  -0.262   1.975  1.0293  0.3144  0.1723
  567MOL0     C76429   9.720  -0.395   1.951 -0.1167  1.1722  0.5215
  567MOL0     C76430   9.760  -0.464   1.814  0.5302 -1.1816  0.1615
  567MOL0     C76431   9.885  -0.551   1.833 -0.4485 -0.3622 -0.6504
  567MOL0     C76432  10.015  -0.466   1.842  0.0412 -0.3679 -0.2033
  567MOL0     C76433  10.138  -0.551   1.806  0.0021 -0.6615  0.3795
  567MOL0     O76434  10.248  -0.458   1.829  0.3235 -0.0444  0.1556
  567MOL0     C76435  10.329  -0.489   1.936  0.5058  0.0205  0.0144
  567MOL0     C76436  10.415  -0.600   1.926  0.1744  0.1601  0.2157
  567MOL0     C76437  10.495  -0.626   2.040  0.1509 -0.1196 -0.3867
  567MOL0     C76438  10.591  -0.734   2.021  0.0373 -0.3269  0.7325
  567MOL0     C76439  10.474  -0.561   2.158  0.1404  0.1792 -0.0848
  567MOL0     C76440  10.565  -0.600   2.267  0.0187  0.3804  1.1879
  567MOL0     O76441  10.688  -0.570   2.250  0.1273  0.5356  0.3155
  567MOL0     C76442  10.798  -0.576   2.330 -0.1469  0.7064  0.2612
  567MOL0     C76443  10.918  -0.537   2.269  0.2076 -0.0842 -0.5417
  567MOL0     C76444  11.044  -0.525   2.339  0.1412  0.9085 -0.3858
  567MOL0     C76445  11.047  -0.566   2.468 -0.7616  0.1875 -0.7060
  567MOL0     O76446  11.172  -0.570   2.530 -0.1330 -0.2708 -0.2099
  567MOL0     C76447  11.207  -0.681   2.618 -0.7627  0.0183 -0.2736
  567MOL0     C76448  11.360  -0.684   2.638  0.8607 -0.3874  0.9478
  567MOL0     C76449  11.414  -0.766   2.745 -1.1149  0.8247  0.1239
  567MOL0     C76450  11.448  -0.912   2.696 -0.0005  0.0171  0.5871
  567MOL0     C76451  11.512  -1.009   2.799 -1.1269 -0.2327  0.3990
  567MOL0     C76452  11.433  -1.032   2.937  0.0974 -0.3248 -0.0576
  567MOL0     C76453  11.521  -1.124   3.038  0.2770 -1.2599  0.1654
  567MOL0     C76454  11.440  -1.137   3.168 -0.2120  0.8206  0.9308
  567MOL0    Cl76455  11.373  -1.297   3.199  0.2694  0.3628 -0.4384
  567MOL0     C76456  10.933  -0.608   2.535 -0.1784 -0.0346  0.1852
  567MOL0     C76457  10.809  -0.607   2.459 -0.0202 -0.0385 -0.5261
  567MOL0     O76458  10.512  -0.655   2.361  0.0774  0.8342 -0.2148
  567MOL0     C76459  10.387  -0.464   2.176  0.8419  0.6457  0.5425
  567MOL0     C76460  10.310  -0.426   2.063  0.2618  0.9998 -2.0200
  567MOL0     N76461   9.719  -0.463   2.073 -0.0208  0.1496 -0.3933
  567MOL0     N76462   9.694  -0.377   2.166 -0.4828  0.5071  0.2447
  567MOL0     C76463  10.258   0.822   2.124 -0.3921 -0.8734  0.1233
  567MOL0     C76464  10.324   0.935   2.071  0.2553  0.6241 -0.1643
  567MOL0     C76465  10.641   1.244   2.043  0.0169  0.2126  0.6835
  567MOL0     C76466  10.783   1.233   2.048 -0.7674 -0.8561 -0.2945
  567MOL0     C76467  10.861   1.317   1.969  0.3691  0.4928 -0.1151
  567MOL0     C76468  10.810   1.422   1.886  0.2949 -0.2635 -0.4129
  567MOL0     O76469  10.901   1.498   1.818 -0.6374 -0.7296  0.3574
  567MOL0     C76470  10.857   1.597   1.720 -0.5436 -0.0802  0.1618
  567MOL0     C76471  10.992   1.622   1.634  0.5421  0.0455  0.7947
  567MOL0     C76472  10.990   1.750   1.546 -0.2587  0.7850 -0.0063
  567MOL0     C76473  10.975   1.874   1.631  0.8928  0.0004  0.6185
  567MOL0     C76474  10.842   1.929   1.600 -0.7324  0.9218  0.5434
  567MOL0     C76475  10.735   1.979   1.578 -0.5771 -0.5175  0.4069
  567MOL0     C76476  10.674   1.425   1.873 -0.2292 -0.4333  0.0931
  567MOL0     C76477  10.583   1.340   1.948 -1.0907  0.3936 -1.1353
  567MOL0     H76478  10.304   1.166   2.317 -0.1283  1.1561 -3.7616
  567MOL0     H76479  10.200   0.960   2.432 -0.4384  0.8445  0.0547
  567MOL0     H76480  10.048   0.662   2.168 -1.3388  0.4682  1.7044
  567MOL0     H76481  10.197   0.557   2.186  1.2041  0.3010  1.1981
  567MOL0     H76482  10.074   0.476   2.406 -1.0927 -1.4648  0.0596
  567MOL0     H76483   9.934   0.569   2.344  1.3444  1.5100  1.8965
  567MOL0     H76484   9.924   0.422   2.129 -0.8409  1.8921  1.4870
  567MOL0     H76485  10.078   0.349   2.174 -1.7510 -1.3149 -3.3185
  567MOL0     H76486   9.981   0.254   2.369  0.2662 -0.6024 -0.2446
  567MOL0     H76487   9.822   0.329   2.346  0.7562  0.4718  0.8259
  567MOL0     H76488   9.852   0.213   2.099 -1.2946  0.8256 -1.0458
  567MOL0     H76489   9.992   0.125   2.169 -0.5473  0.6116 -1.6347
  567MOL0     H76490   9.833   0.038   2.351  2.0678  3.1365  0.9958
  567MOL0     H76491   9.700   0.115   2.261  1.7867  1.9090 -0.1196
  567MOL0     H76492   9.771   0.015   2.049  3.1507  4.1401  0.9032
  567MOL0     H76493   9.892  -0.081   2.138  0.5073  1.0583 -1.1315
  567MOL0     H76494   9.591  -0.093   2.163 -0.3221 -1.1521 -3.1375
  567MOL0     H76495   9.704  -0.159   2.295  2.4199 -2.4600 -0.5363
  567MOL0     H76496   9.712  -0.191   1.894  1.8502  0.6639  0.5571
  567MOL0     H76497   9.676  -0.530   1.789 -0.0269 -0.9055  1.2397
  567MOL0     H76498   9.762  -0.383   1.741  3.4812 -0.0647  1.3092
  567MOL0     H76499   9.886  -0.626   1.753  0.1377 -0.2922 -0.7152
  567MOL0     H76500   9.885  -0.598   1.931  1.1683 -2.8423 -1.7358
  567MOL0     H76501  10.029  -0.420   1.940 -0.0105  1.4366 -0.9996
  567MOL0     H76502  10.020  -0.394   1.760 -1.2294 -1.1100 -0.9660
  567MOL0     H76503  10.142  -0.587   1.703 -0.9753 -0.4159  0.2503
  567MOL0     H76504  10.142  -0.642   1.866 -0.8120 -1.0495 -0.1414
  567MOL0     H76505  10.416  -0.664   1.838  0.4536  0.2946  0.1204
  567MOL0     H76506  10.651  -0.767   2.107  1.1803  0.5032  0.2821
  567MOL0     H76507  10.530  -0.812   1.975 -1.4934  3.0154 -3.6322
  567MOL0     H76508  10.659  -0.701   1.942  0.4581  0.5780  1.4488
  567MOL0     H76509  10.905  -0.496   2.169 -3.7870  2.0196  0.6310
  567MOL0     H76510  11.137  -0.490   2.296  1.5156 -1.7058  0.2409
  567MOL0     H76511  11.152  -0.659   2.710  1.6647 -0.2357  1.3375
  567MOL0     H76512  11.174  -0.772   2.567 -1.8965  0.4817 -0.3863
  567MOL0     H76513  11.416  -0.712   2.549 -1.3326  1.5257 -1.1930
  567MOL0     H76514  11.386  -0.580   2.658 -1.6867  0.4423  0.3179
  567MOL0     H76515  11.359  -0.770   2.839 -1.8441 -0.8007 -0.3340
  567MOL0     H76516  11.502  -0.722   2.792 -0.5540 -2.4291  2.5335
  567MOL0     H76517  11.361  -0.963   2.653  2.2454 -2.0655 -1.8537
  567MOL0     H76518  11.501  -0.908   2.600 -2.6830 -2.0447 -1.1123
  567MOL0     H76519  11.612  -0.975   2.827 -1.1736  1.4296 -1.2302
  567MOL0     H76520  11.527  -1.103   2.746 -1.8385  0.3472 -0.8920
  567MOL0     H76521  11.404  -0.936   2.981 -2.0933  0.7602 -3.4803
  567MOL0     H76522  11.330  -1.065   2.922 -0.1552 -0.0617  0.9770
  567MOL0     H76523  11.610  -1.065   3.062  0.8122 -0.6256 -2.9316
  567MOL0     H76524  11.554  -1.223   3.003  2.0229 -0.3287 -0.9818
  567MOL0     H76525  11.362  -1.062   3.175 -0.6027  0.4651  0.4468
  567MOL0     H76526  11.505  -1.115   3.254 -0.2810 -0.5423  1.3707
  567MOL0     H76527  10.936  -0.645   2.637  0.2017 -1.3462 -0.2760
  567MOL0     H76528  10.722  -0.649   2.507 -0.0904 -0.1518 -0.7503
  567MOL0     H76529  10.393  -0.398   2.262  1.4444 -0.9994  1.8003
  567MOL0     H76530  10.234  -0.350   2.073  0.6115  1.0160  1.7530
  567MOL0     H76531  10.268   0.733   2.063  0.1697  0.5515 -1.9732
  567MOL0     H76532  10.368   0.917   1.974  3.0927  2.2969  0.7201
  567MOL0     H76533  10.829   1.162   2.116  0.9905  1.7215  1.3985
  567MOL0     H76534  10.970   1.314   1.967  0.7562  2.8090  4.2330
  567MOL0     H76535  10.781   1.566   1.647 -0.9104  1.0175  0.0440
  567MOL0     H76536  10.821   1.681   1.780 -1.1990 -0.0646 -0.2382
  567MOL0     H76537  10.999   1.537   1.566 -2.1329  1.1646 -1.1020
  567MOL0     H76538  11.076   1.630   1.703  0.4117 -1.5903  1.1880
  567MOL0     H76539  10.917   1.745   1.464  0.2013  2.4774 -0.5627
  567MOL0     H76540  11.078   1.753   1.481 -0.5872  4.2442 -0.4612
  567MOL0     H76541  11.054   1.942   1.597  0.4096 -1.2450 -3.5409
  567MOL0     H76542  10.981   1.851   1.738  0.2218 -3.2051  0.0821
  567MOL0     H76543  10.636   2.021   1.569  0.0257  0.7661 -0.6211
  567MOL0     H76544  10.630   1.501   1.810 -1.2520 -0.7949  0.3620
  567MOL0     H76545  10.474   1.337   1.948 -1.1258 -1.4370  1.2344
  568MOL0     O76546  10.240   7.539   2.542  0.5761  0.7646  0.4987
  568MOL0     C76547  10.303   7.601   2.451  0.5757 -0.0787 -0.6134
  568MOL0     O76548  10.438   7.592   2.422 -0.1593  0.4331  0.0526
  568MOL0     C76549  10.528   7.525   2.509 -0.2312 -0.1909 -0.8661
  568MOL0     C76550  10.664   7.556   2.492 -0.2104  0.0026  0.6616
  568MOL0     C76551  10.763   7.516   2.569 -0.5297  0.2315  0.3293
  568MOL0     C76552  10.738   7.418   2.674  0.0937  0.3612  0.2065
  568MOL0     O76553  10.851   7.373   2.740  0.0826  0.1923 -1.0146
  568MOL0     C76554  10.887   7.443   2.861  0.6314  0.3322  0.1094
  568MOL0     C76555  11.036   7.407   2.892  0.1756  0.3191 -0.1964
  568MOL0     C76556  11.073   7.482   3.023 -0.3832  0.1168  0.3634
  568MOL0     C76557  11.208   7.553   3.001 -0.1346  0.3478  0.4474
  568MOL0     C76558  11.265   7.626   3.131  0.3063 -0.1290  1.0590
  568MOL0     C76559  11.413   7.666   3.121 -0.0387  0.1854  0.3785
  568MOL0     C76560  11.498   7.574   3.207  0.0668  0.1607  0.6875
  568MOL0     C76561  11.490   7.618   3.354 -0.0712 -0.0006  0.9673
  568MOL0     N76562  11.541   7.526   3.453 -0.1586 -0.2983  0.0194
  568MOL0     C76563  11.498   7.393   3.479 -0.3081 -0.1195 -0.3972
  568MOL0     C76564  11.597   7.343   3.561  0.5610 -0.1677 -0.1672
  568MOL0     C76565  11.598   7.215   3.631 -0.4541 -0.0115 -0.3402
  568MOL0     C76566  11.582   7.088   3.549 -0.9565 -0.2230 -0.0578
  568MOL0     C76567  11.714   7.063   3.463  0.2503 -0.5193 -0.0579
  568MOL0     C76568  11.833   7.021   3.551 -0.4050 -0.4586 -0.1493
  568MOL0     O76569  11.790   6.923   3.653 -0.6544  0.4180  0.3481
  568MOL0     C76570  11.883   6.845   3.704  0.1684 -0.2643 -0.5018
  568MOL0     C76571  12.019   6.873   3.701 -0.2826 -0.7023 -0.1342
  568MOL0     C76572  12.114   6.779   3.738  0.0044 -0.8413  0.7067
  568MOL0     C76573  12.258   6.836   3.731  0.0713  0.2199 -0.2600
  568MOL0     C76574  12.085   6.641   3.762 -0.0861  0.0255 -0.5989
  568MOL0     C76575  12.186   6.537   3.796  0.0868 -0.5190  0.1558
  568MOL0     O76576  12.127   6.425   3.847  0.0294  0.3787 -0.1067
  568MOL0     C76577  12.197   6.304   3.837 -0.5585  0.1403  0.9673
  568MOL0     C76578  12.330   6.283   3.872  0.7679 -0.3427  1.0289
  568MOL0     C76579  12.376   6.148   3.868  0.4781 -0.1283  0.8794
  568MOL0     C76580  12.293   6.036   3.838 -0.5442 -0.5516 -0.1404
  568MOL0     O76581  12.356   5.921   3.862 -0.0710  0.6420 -0.3161
  568MOL0     C76582  12.304   5.799   3.799 -0.2391  0.3415  0.8419
  568MOL0     C76583  12.399   5.679   3.858  0.1145  0.3418 -0.2199
  568MOL0     C76584  12.363   5.639   4.003 -0.2876  0.4754 -1.6573
  568MOL0     C76585  12.434   5.512   4.059 -0.4036 -0.5192 -0.0143
  568MOL0     C76586  12.361   5.460   4.184 -0.5691 -0.4397 -0.3196
  568MOL0     C76587  12.451   5.348   4.243 -0.0021  0.5588 -0.2988
  568MOL0     C76588  12.395   5.305   4.385 -0.7962 -0.3999 -0.2626
  568MOL0     C76589  12.498   5.222   4.463 -1.1827  0.1710  0.1086
  568MOL0    Cl76590  12.539   5.090   4.359 -0.1856 -0.6570  0.0330
  568MOL0     C76591  12.163   6.063   3.784  0.7183  0.4014  0.3158
  568MOL0     C76592  12.119   6.200   3.784 -0.3868 -0.0457 -0.9041
  568MOL0     O76593  12.304   6.544   3.751  0.5115 -0.3269 -0.2056
  568MOL0     C76594  11.947   6.614   3.779 -0.6441  0.9295  0.0616
  568MOL0     C76595  11.849   6.710   3.746 -0.0127  0.4052 -0.6144
  568MOL0     N76596  11.684   7.446   3.581 -0.7622 -0.2736 -0.7270
  568MOL0     N76597  11.648   7.560   3.527  0.6040 -0.4899  0.1782
  568MOL0     C76598  10.602   7.386   2.696  0.2356 -0.1125 -0.1690
  568MOL0     C76599  10.503   7.438   2.620  0.0430  0.3491  0.9083
  568MOL0     C76600  10.237   7.693   2.361 -0.1619  0.3671 -0.3031
  568MOL0     C76601  10.281   7.715   2.228 -0.5331 -0.8161 -0.1204
  568MOL0     C76602  10.223   7.809   2.141 -0.4060 -0.5694 -0.3044
  568MOL0     C76603  10.102   7.868   2.173 -0.6721 -0.1159 -0.7346
  568MOL0     O76604  10.039   7.957   2.084 -0.0731 -0.1138 -0.3462
  568MOL0     C76605  10.064   8.090   2.113  0.5087 -0.0604  0.0836
  568MOL0     C76606   9.968   8.154   2.223 -0.6082  0.3365  0.0221
  568MOL0     C76607   9.825   8.137   2.185  1.0022 -0.0933  0.2780
  568MOL0     C76608   9.732   8.242   2.258 -0.3951 -0.1160  0.0848
  568MOL0     C76609   9.712   8.211   2.400 -0.4677  0.1244 -1.0196
  568MOL0     C76610   9.693   8.181   2.516 -0.3364  0.1271 -0.2009
  568MOL0     C76611  10.049   7.848   2.303 -1.1092 -0.7321 -0.1013
  568MOL0     C76612  10.113   7.762   2.390 -0.1928  0.7501 -0.7765
  568MOL0     H76613  10.702   7.628   2.420  0.5130  0.8065  1.8111
  568MOL0     H76614  10.862   7.554   2.546 -1.4592  3.8212  1.6324
  568MOL0     H76615  10.874   7.551   2.845  1.2605  0.3216 -0.5431
  568MOL0     H76616  10.820   7.421   2.944  0.2706 -0.2571 -0.3302
  568MOL0     H76617  11.050   7.305   2.929  1.2363  0.0074 -1.3916
  568MOL0     H76618  11.108   7.412   2.810  0.5391 -0.2944  0.0713
  568MOL0     H76619  11.003   7.564   3.045 -2.7313 -0.9328 -2.5234
  568MOL0     H76620  11.080   7.412   3.106  1.6804  2.6439  2.4809
  568MOL0     H76621  11.280   7.477   2.970  0.7432  1.1333  0.5374
  568MOL0     H76622  11.211   7.628   2.922  2.8334  3.0719  2.8703
  568MOL0     H76623  11.210   7.719   3.148  0.1640  0.3833 -1.6854
  568MOL0     H76624  11.247   7.559   3.215 -1.5622  0.1781  0.9386
  568MOL0     H76625  11.452   7.676   3.019 -0.1637 -0.4007  0.2724
  568MOL0     H76626  11.423   7.767   3.161  0.7457 -0.1767  1.1329
  568MOL0     H76627  11.468   7.472   3.182 -1.2891  0.7633 -0.2298
  568MOL0     H76628  11.601   7.585   3.170  1.3993 -3.5834  2.7493
  568MOL0     H76629  11.381   7.619   3.368 -1.0164 -2.4772 -3.8061
  568MOL0     H76630  11.544   7.713   3.351  0.3702 -0.2619 -1.3030
  568MOL0     H76631  11.404   7.353   3.443  0.7002 -1.2619 -1.8785
  568MOL0     H76632  11.684   7.205   3.698 -0.3616  0.3349 -0.4051
  568MOL0     H76633  11.513   7.218   3.699 -1.1625 -0.6132 -1.1729
  568MOL0     H76634  11.488   7.095   3.493 -0.4597  0.4257 -0.8423
  568MOL0     H76635  11.576   6.999   3.612  3.3857 -0.8017 -0.1450
  568MOL0     H76636  11.742   7.146   3.398  1.0379 -1.7566 -1.3613
  568MOL0     H76637  11.685   6.983   3.394  0.6576 -1.2625  0.6286
  568MOL0     H76638  11.868   7.107   3.609 -1.6766 -1.4764  2.3353
  568MOL0     H76639  11.917   6.990   3.489  1.3451  2.6498  0.4977
  568MOL0     H76640  12.046   6.974   3.672 -0.4262 -1.7171 -4.4709
  568MOL0     H76641  12.300   6.789   3.642  0.3891 -0.1664  0.0882
  568MOL0     H76642  12.261   6.942   3.757  1.3926  0.1283  0.0145
  568MOL0     H76643  12.314   6.787   3.812  0.5209 -3.1563 -2.4113
  568MOL0     H76644  12.392   6.369   3.896 -1.4506  1.0395  2.2150
  568MOL0     H76645  12.481   6.130   3.889  1.2695 -0.7707 -2.9186
  568MOL0     H76646  12.202   5.768   3.822 -0.9964  0.1774 -2.3735
  568MOL0     H76647  12.317   5.815   3.692  0.2901 -0.5216  0.7692
  568MOL0     H76648  12.385   5.595   3.790  2.8943 -1.6121  1.4258
  568MOL0     H76649  12.505   5.708   3.853  0.1354  0.2509 -0.3220
  568MOL0     H76650  12.255   5.625   4.011 -0.1244  0.2045  1.5561
  568MOL0     H76651  12.387   5.728   4.064  0.9171 -0.6093 -0.4770
  568MOL0     H76652  12.424   5.437   3.981 -1.9750  1.4491 -1.8285
  568MOL0     H76653  12.538   5.539   4.079 -0.4747  1.5751 -1.9678
  568MOL0     H76654  12.259   5.422   4.171 -0.5153 -0.2940 -1.2602
  568MOL0     H76655  12.356   5.538   4.260  3.9967 -0.6558  0.4798
  568MOL0     H76656  12.451   5.263   4.174  0.5322 -1.6719  2.2778
  568MOL0     H76657  12.554   5.368   4.271  0.6899 -4.4424  1.9717
  568MOL0     H76658  12.303   5.248   4.369 -2.2209  1.6643  0.1557
  568MOL0     H76659  12.360   5.397   4.434 -2.2753 -0.9408 -0.2579
  568MOL0     H76660  12.441   5.191   4.551 -0.7622 -3.4591 -0.7323
  568MOL0     H76661  12.583   5.280   4.501 -0.4025 -0.2335 -0.9575
  568MOL0     H76662  12.099   5.986   3.744  1.3207 -1.2803  2.3883
  568MOL0     H76663  12.024   6.222   3.735 -1.6270 -3.1410 -0.0902
  568MOL0     H76664  11.906   6.521   3.817  0.0466  0.5528 -0.1056
  568MOL0     H76665  11.747   6.676   3.759  0.8071 -1.9662  0.0945
  568MOL0     H76666  10.574   7.318   2.776  0.3795 -0.5887 -0.5158
  568MOL0     H76667  10.408   7.388   2.639 -0.2518  1.7303  3.5135
  568MOL0     H76668  10.374   7.670   2.194 -1.2668 -2.3511 -0.1736
  568MOL0     H76669  10.268   7.819   2.043 -0.0199 -3.2327 -0.4755
  568MOL0     H76670  10.167   8.101   2.148  0.4746 -0.3891  0.2975
  568MOL0     H76671  10.054   8.155   2.025 -1.6075  1.2542  1.2038
  568MOL0     H76672   9.994   8.260   2.231  0.6225  0.0403  0.1022
  568MOL0     H76673   9.978   8.114   2.324  2.4911  0.0894 -0.2924
  568MOL0     H76674   9.797   8.035   2.213 -0.4469  0.5513  1.2867
  568MOL0     H76675   9.808   8.143   2.077  0.8860 -0.1716  0.2920
  568MOL0     H76676   9.636   8.227   2.208 -0.9996 -0.9924  1.4482
  568MOL0     H76677   9.774   8.341   2.235  1.7185 -1.4924 -2.4921
  568MOL0     H76678   9.676   8.150   2.617 -0.5934  1.2980  0.1237
  568MOL0     H76679   9.961   7.903   2.336  0.2506  1.2220  0.3989
  568MOL0     H76680  10.073   7.746   2.490 -4.0590  1.4581 -2.0412
  569MOL0     O76681   7.281   0.870   4.050 -0.1478  0.2071  0.8473
  569MOL0     C76682   7.180   0.913   4.112  0.1850 -0.0734  0.0307
  569MOL0     O76683   7.172   1.016   4.216  0.1495 -0.1525  0.4079
  569MOL0     C76684   7.281   1.091   4.248 -0.1371  0.6234 -0.9453
  569MOL0     C76685   7.420   1.072   4.212 -0.0526 -0.0936 -0.4345
  569MOL0     C76686   7.521   1.155   4.264 -0.6128  0.3782 -0.2062
  569MOL0     C76687   7.488   1.264   4.342  0.1314 -0.0046 -1.7396
  569MOL0     O76688   7.582   1.354   4.398  0.6322  0.6657 -0.7582
  569MOL0     C76689   7.722   1.328   4.378  0.2270  0.2497 -0.2463
  569MOL0     C76690   7.814   1.398   4.481 -0.2055 -0.0372 -0.4277
  569MOL0     C76691   7.954   1.353   4.464 -0.1316  1.1311  0.2429
  569MOL0     C76692   8.056   1.440   4.532  0.0315  0.4157 -0.1623
  569MOL0     C76693   8.188   1.363   4.531  0.0013  0.2603 -0.5510
  569MOL0     C76694   8.247   1.354   4.383  0.4655  0.3594 -0.1673
  569MOL0     C76695   8.262   1.498   4.320 -0.2223  0.2103  0.3683
  569MOL0     C76696   8.367   1.479   4.207  0.2710  1.0556  0.0591
  569MOL0     N76697   8.365   1.579   4.099  1.0369  0.1216 -0.4079
  569MOL0     C76698   8.368   1.717   4.128 -0.6264  0.1232  0.7069
  569MOL0     C76699   8.387   1.774   4.001 -0.5579  0.8902  0.8387
  569MOL0     C76700   8.375   1.909   3.956 -0.3359 -0.4076 -0.5382
  569MOL0     C76701   8.244   1.923   3.875  0.6844 -0.0046 -0.1244
  569MOL0     C76702   8.123   1.926   3.963  0.2425  0.2434 -0.4404
  569MOL0     C76703   7.999   1.883   3.878  0.5999  0.0855 -0.2800
  569MOL0     O76704   7.900   1.813   3.960  0.2902  0.3176  0.1259
  569MOL0     C76705   7.882   1.684   3.944  0.0414  0.9058 -0.0577
  569MOL0     C76706   7.959   1.595   4.011 -0.0900 -0.2470  1.1620
  569MOL0     C76707   7.932   1.462   4.014  0.4561  0.4204  0.1573
  569MOL0     C76708   8.045   1.366   4.056 -0.0368  0.0304 -0.1836
  569MOL0     C76709   7.820   1.401   3.952  0.3932 -0.7529 -0.3036
  569MOL0     C76710   7.760   1.265   3.971  0.0205  0.0061  0.2112
  569MOL0     O76711   7.667   1.237   3.874 -0.0195  0.0692  0.2536
  569MOL0     C76712   7.623   1.110   3.853  0.3146  0.0733 -0.6380
  569MOL0     C76713   7.502   1.090   3.802  0.5358 -0.4778 -0.3283
  569MOL0     C76714   7.462   0.970   3.751 -0.2579  0.1119 -0.6208
  569MOL0     C76715   7.526   0.852   3.776 -0.7294  0.0960 -0.9555
  569MOL0     O76716   7.459   0.734   3.746  0.2174 -0.2784  0.3352
  569MOL0     C76717   7.507   0.606   3.795  0.4138 -0.0680 -0.4503
  569MOL0     C76718   7.554   0.511   3.683  0.2970 -0.6044  0.3988
  569MOL0     C76719   7.441   0.461   3.597  0.1680  0.0946  0.8262
  569MOL0     C76720   7.482   0.335   3.510 -0.9029 -0.0562  0.5085
  569MOL0     C76721   7.364   0.275   3.442  0.4875  0.7584 -0.2687
  569MOL0     C76722   7.404   0.145   3.372  0.5291 -0.1350 -0.1552
  569MOL0     C76723   7.291   0.076   3.300  0.0792  0.1837 -0.5765
  569MOL0     C76724   7.313  -0.036   3.197  0.1030  0.2852 -0.6862
  569MOL0    Cl76725   7.157  -0.068   3.108 -0.0321 -0.1368  0.4010
  569MOL0     C76726   7.652   0.864   3.833  0.5208 -0.5622 -0.0426
  569MOL0     C76727   7.697   0.993   3.876 -0.9570  0.5228  0.3383
  569MOL0     O76728   7.792   1.190   4.065  0.7079 -0.3684  0.4212
  569MOL0     C76729   7.745   1.499   3.881  0.6507  0.0651 -0.0335
  569MOL0     C76730   7.769   1.634   3.870  0.0469  0.4600 -0.3175
  569MOL0     N76731   8.394   1.668   3.908  0.9728  1.0193 -0.2076
  569MOL0     N76732   8.378   1.556   3.967  0.4606  0.6330 -0.1021
  569MOL0     C76733   7.354   1.280   4.384  0.8533  0.6019 -0.5722
  569MOL0     C76734   7.256   1.195   4.335 -0.3211  0.4574 -0.2803
  569MOL0     C76735   7.050   0.883   4.049  1.4747 -1.2665 -0.0852
  569MOL0     C76736   6.927   0.897   4.127  0.0347 -0.1682  0.1757
  569MOL0     C76737   6.813   0.867   4.065  0.1378 -0.2610 -0.1080
  569MOL0     C76738   6.811   0.808   3.936  0.8276 -0.1827 -0.7768
  569MOL0     O76739   6.697   0.781   3.868  0.7146 -0.1407  0.2904
  569MOL0     C76740   6.579   0.860   3.889  0.6805 -0.4140  0.1365
  569MOL0     C76741   6.562   0.983   3.805 -0.0234  0.1559  1.1582
  569MOL0     C76742   6.594   0.950   3.655 -0.7144 -0.1169  0.6122
  569MOL0     C76743   6.543   1.059   3.559 -0.8458 -0.5745  0.3107
  569MOL0     C76744   6.588   1.026   3.418 -0.2313  0.6465 -0.9215
  569MOL0     C76745   6.639   1.015   3.304  0.1557  1.0932  0.0961
  569MOL0     C76746   6.925   0.797   3.867  0.2517 -0.8532 -0.0519
  569MOL0     C76747   7.052   0.830   3.920 -0.6341  0.6986  0.0198
  569MOL0     H76748   7.452   0.988   4.151 -3.0258  0.7915 -3.4453
  569MOL0     H76749   7.624   1.148   4.233 -0.1592 -2.1110  1.5054
  569MOL0     H76750   7.733   1.225   4.412 -2.0516  0.3980  1.1784
  569MOL0     H76751   7.754   1.359   4.278 -3.2205  1.3678 -1.1423
  569MOL0     H76752   7.809   1.507   4.474 -1.9524  0.2744  3.2892
  569MOL0     H76753   7.783   1.363   4.580  0.5309 -2.3529 -0.9368
  569MOL0     H76754   7.959   1.259   4.519  0.5515  1.2760  0.4392
  569MOL0     H76755   7.986   1.334   4.361  0.6884  2.7720  0.1579
  569MOL0     H76756   8.064   1.541   4.492 -1.3546  1.1925  1.4123
  569MOL0     H76757   8.020   1.461   4.633  2.6496 -2.3963  1.5407
  569MOL0     H76758   8.247   1.439   4.584 -0.3993  0.8956 -1.0083
  569MOL0     H76759   8.177   1.264   4.576 -3.0606  0.6146 -0.2909
  569MOL0     H76760   8.344   1.308   4.405 -0.1610 -0.4925  0.9204
  569MOL0     H76761   8.191   1.286   4.318  2.3601 -0.7765 -0.6791
  569MOL0     H76762   8.163   1.527   4.285 -0.5605 -1.4095 -0.1127
  569MOL0     H76763   8.309   1.566   4.392 -0.9810 -0.5062  1.5714
  569MOL0     H76764   8.353   1.380   4.162  3.0140 -0.4897  2.2168
  569MOL0     H76765   8.463   1.475   4.259 -0.1210 -0.0264  0.7373
  569MOL0     H76766   8.348   1.778   4.215 -1.6488 -0.8839  1.2089
  569MOL0     H76767   8.377   1.960   4.052  1.1474  0.1972 -0.8596
  569MOL0     H76768   8.463   1.945   3.901 -1.1148  0.0809 -1.4869
  569MOL0     H76769   8.246   1.831   3.816  2.1089 -0.0982  0.0256
  569MOL0     H76770   8.242   2.010   3.809  0.2224  0.9287  1.0749
  569MOL0     H76771   8.113   2.029   3.998 -2.3549 -1.6579  6.0503
  569MOL0     H76772   8.138   1.857   4.047 -2.1969 -1.5208 -1.3230
  569MOL0     H76773   8.031   1.814   3.800 -0.1582 -0.3284 -0.2375
  569MOL0     H76774   7.942   1.968   3.839  1.3465  1.2345  1.0524
  569MOL0     H76775   8.048   1.631   4.061  1.4830  0.7420 -2.0555
  569MOL0     H76776   8.035   1.269   4.007  2.4395  0.3812 -1.5188
  569MOL0     H76777   8.139   1.409   4.022  0.5271 -1.3287 -0.4138
  569MOL0     H76778   8.052   1.358   4.165 -1.9659 -0.7786 -0.0662
  569MOL0     H76779   7.450   1.181   3.773  2.6774  2.0285  2.9323
  569MOL0     H76780   7.363   0.964   3.708 -1.8739  3.9463  2.0014
  569MOL0     H76781   7.581   0.617   3.874 -2.0161  1.2937  1.8158
  569MOL0     H76782   7.433   0.547   3.851  0.9488  0.0006  0.3458
  569MOL0     H76783   7.628   0.561   3.620  0.7875  0.7759  1.9964
  569MOL0     H76784   7.617   0.432   3.725  0.1265  0.0236  1.8896
  569MOL0     H76785   7.404   0.543   3.535 -1.7302 -0.8828  0.6134
  569MOL0     H76786   7.364   0.423   3.664  1.3518  0.6720  2.5721
  569MOL0     H76787   7.553   0.364   3.432  0.0048  0.3551  1.4653
  569MOL0     H76788   7.540   0.265   3.570 -1.7548  0.9368  2.5669
  569MOL0     H76789   7.324   0.353   3.377  1.1907  1.0859 -0.3227
  569MOL0     H76790   7.286   0.258   3.517 -1.0630 -3.6910 -2.5353
  569MOL0     H76791   7.482   0.164   3.298  2.6801 -2.6289  1.2932
  569MOL0     H76792   7.451   0.079   3.445 -0.4225 -0.2440  0.3834
  569MOL0     H76793   7.266   0.158   3.232  2.8771  0.3258 -1.5670
  569MOL0     H76794   7.206   0.058   3.366 -1.0228 -0.6799 -2.1551
  569MOL0     H76795   7.348  -0.124   3.251  4.9531  1.4552 -1.4357
  569MOL0     H76796   7.394  -0.005   3.130 -2.4368  0.8304 -3.7421
  569MOL0     H76797   7.717   0.777   3.840  1.7208  0.3235  0.1280
  569MOL0     H76798   7.799   0.987   3.913 -0.1492 -0.5321 -1.8734
  569MOL0     H76799   7.654   1.462   3.834 -1.4688 -0.8319  4.2415
  569MOL0     H76800   7.704   1.693   3.806  1.2208  1.1235 -0.9199
  569MOL0     H76801   7.320   1.357   4.453 -0.2099 -2.7103  2.9825
  569MOL0     H76802   7.159   1.210   4.382 -0.6899 -0.8430 -0.5887
  569MOL0     H76803   6.926   0.934   4.228 -1.6368  0.3394  0.0082
  569MOL0     H76804   6.734   0.895   4.134  1.6345  0.7456  1.2414
  569MOL0     H76805   6.494   0.794   3.872 -2.2253  3.5919 -2.6247
  569MOL0     H76806   6.559   0.893   3.992 -1.8957  0.5727 -0.6259
  569MOL0     H76807   6.638   1.051   3.843  2.3099 -0.7186 -1.5654
  569MOL0     H76808   6.458   1.013   3.821  0.1271  3.3303 -2.3359
  569MOL0     H76809   6.561   0.853   3.615  1.1487 -0.3467 -0.4822
  569MOL0     H76810   6.702   0.944   3.644 -0.5595  4.1823 -2.2913
  569MOL0     H76811   6.602   1.144   3.595 -2.3735  0.3344  0.7999
  569MOL0     H76812   6.439   1.092   3.574 -0.2309  0.3071  3.2405
  569MOL0     H76813   6.697   1.003   3.215  3.8451  2.6211  2.0962
  569MOL0     H76814   6.916   0.757   3.766  0.0364 -0.7691 -0.0676
  569MOL0     H76815   7.141   0.812   3.859 -1.1350  1.7563 -1.0615
  570MOL0     O76816  11.152  10.090   5.993 -1.0336 -0.3212  0.2907
  570MOL0     C76817  11.115  10.178   5.916 -0.6693  0.1811 -0.4443
  570MOL0     O76818  11.144  10.311   5.930 -0.0599 -0.4524  0.1085
  570MOL0     C76819  11.231  10.352   6.029  0.1497 -0.7494 -0.9138
  570MOL0     C76820  11.187  10.440   6.132  0.1428 -0.4024 -1.0152
  570MOL0     C76821  11.262  10.474   6.246  0.2993 -0.8728 -0.9534
  570MOL0     C76822  11.400  10.444   6.238 -0.3994 -0.1633 -0.4308
  570MOL0     O76823  11.490  10.490   6.334  0.4797 -0.6147 -0.0215
  570MOL0     C76824  11.466  10.624   6.390 -1.3761 -0.0102  0.0233
  570MOL0     C76825  11.586  10.693   6.451 -1.2336  0.1450 -0.2175
  570MOL0     C76826  11.563  10.839   6.479 -0.1649 -0.7495  0.0375
  570MOL0     C76827  11.503  10.870   6.620  0.0890 -0.0246 -0.3164
  570MOL0     C76828  11.449  11.012   6.651 -0.3724  0.4330 -0.1410
  570MOL0     C76829  11.382  11.026   6.784 -0.9196 -0.3403 -0.3903
  570MOL0     C76830  11.368  11.172   6.829  0.0732 -1.5733 -0.3721
  570MOL0     C76831  11.288  11.265   6.745  0.2546  0.2290  0.2460
  570MOL0     N76832  11.255  11.378   6.829 -0.0545 -0.8926 -0.2011
  570MOL0     C76833  11.150  11.374   6.924 -0.0679 -0.4836  0.3060
  570MOL0     C76834  11.105  11.501   6.943 -0.3407 -0.3209  0.1303
  570MOL0     C76835  11.007  11.564   7.033 -0.5957  0.6838 -0.1167
  570MOL0     C76836  11.068  11.633   7.153  0.5282 -0.3372 -0.1254
  570MOL0     C76837  10.983  11.633   7.281  0.6516  1.0140 -0.2293
  570MOL0     C76838  11.070  11.696   7.395  0.4186  0.0032 -0.3377
  570MOL0     O76839  11.090  11.836   7.368 -0.3960  0.9536  0.5786
  570MOL0     C76840  11.177  11.894   7.454 -0.3957 -0.0042 -0.3101
  570MOL0     C76841  11.319  11.877   7.464 -0.5454  0.1379 -0.6351
  570MOL0     C76842  11.400  11.961   7.545  0.0578  0.5173  0.2937
  570MOL0     C76843  11.550  11.950   7.530  0.3666 -0.0227 -0.0703
  570MOL0     C76844  11.334  12.049   7.626 -0.5242 -0.5984  0.6063
  570MOL0     C76845  11.407  12.149   7.718  0.1111 -0.3993  0.2321
  570MOL0     O76846  11.550  12.149   7.705 -0.1021  0.0476  0.1115
  570MOL0     C76847  11.602  12.268   7.743  0.9895 -0.1864 -0.4020
  570MOL0     C76848  11.641  12.290   7.881  0.1074  0.3071  0.9483
  570MOL0     C76849  11.686  12.412   7.926 -0.1321 -0.3063 -0.5045
  570MOL0     C76850  11.668  12.527   7.844 -0.0969  0.0640  0.1362
  570MOL0     O76851  11.701  12.654   7.879  0.2637 -0.0636  0.1129
  570MOL0     C76852  11.835  12.667   7.931 -0.1735 -0.2515  0.3178
  570MOL0     C76853  11.808  12.734   8.069 -0.0046  0.3450  0.8584
  570MOL0     C76854  11.717  12.671   8.167  0.1916  0.0113  0.2206
  570MOL0     C76855  11.671  12.783   8.269  1.0453  0.0641  0.6886
  570MOL0     C76856  11.577  12.728   8.371 -0.1857  0.1844  0.2720
  570MOL0     C76857  11.555  12.828   8.477 -0.6926  0.4165 -0.3756
  570MOL0     C76858  11.666  12.823   8.590 -0.6746 -0.3670  0.3983
  570MOL0     C76859  11.687  12.947   8.671 -0.4222  0.6511 -0.4459
  570MOL0    Cl76860  11.811  12.919   8.790 -0.3679 -0.3068 -0.2250
  570MOL0     C76861  11.611  12.519   7.723 -0.6478  0.8779  0.9116
  570MOL0     C76862  11.595  12.387   7.666  0.0933 -0.2602 -0.5034
  570MOL0     O76863  11.334  12.223   7.791  0.4981 -0.4917  0.2518
  570MOL0     C76864  11.193  12.056   7.633  0.4538 -0.2587 -0.1898
  570MOL0     C76865  11.121  11.986   7.540  0.7476  0.8313  0.3960
  570MOL0     N76866  11.200  11.582   6.886  0.9025 -0.2568  0.0128
  570MOL0     N76867  11.277  11.518   6.799 -0.8632  0.1083 -0.0748
  570MOL0     C76868  11.445  10.359   6.143  0.6550 -0.0523 -0.5381
  570MOL0     C76869  11.368  10.306   6.035  0.6025  0.5325  0.3896
  570MOL0     C76870  11.035  10.127   5.800  1.2612  0.0668  0.0737
  570MOL0     C76871  11.014   9.994   5.786 -0.4287  0.2109  0.2662
  570MOL0     C76872  10.936   9.955   5.679  0.1256 -0.6154 -0.0495
  570MOL0     C76873  10.876  10.042   5.587  0.2315 -0.0502 -0.0601
  570MOL0     O76874  10.820   9.991   5.476  0.0923  0.4843  0.9346
  570MOL0     C76875  10.722  10.060   5.392  0.7542  0.8676  0.2918
  570MOL0     C76876  10.586  10.091   5.461  0.5777 -0.5086  0.8996
  570MOL0     C76877  10.499   9.972   5.482  0.9621  0.5853  0.6328
  570MOL0     C76878  10.353   9.998   5.416 -0.7005  0.6003  0.0552
  570MOL0     C76879  10.262   9.898   5.469 -0.1659 -0.6079  0.7461
  570MOL0     C76880  10.192   9.807   5.502 -0.3519 -0.2763 -0.3664
  570MOL0     C76881  10.903  10.178   5.611  0.0446  0.4275  0.4310
  570MOL0     C76882  10.980  10.223   5.721 -0.3291 -0.5066  0.0615
  570MOL0     H76883  11.083  10.469   6.144  0.8530  1.5871  1.0187
  570MOL0     H76884  11.228  10.535   6.328  3.3771 -2.1960  1.5172
  570MOL0     H76885  11.438  10.682   6.301  0.3889 -0.5202 -0.9027
  570MOL0     H76886  11.383  10.634   6.461 -2.2641 -0.5020 -0.9201
  570MOL0     H76887  11.615  10.628   6.535  1.0579 -1.5409 -2.1698
  570MOL0     H76888  11.665  10.684   6.376 -0.7217 -1.6880  0.4746
  570MOL0     H76889  11.657  10.894   6.470  0.1686 -1.6346 -4.1694
  570MOL0     H76890  11.493  10.865   6.398  0.6246 -0.1054 -0.4464
  570MOL0     H76891  11.414  10.809   6.639 -1.3534  2.4803  1.6039
  570MOL0     H76892  11.577  10.852   6.698  0.9274  3.3368 -0.1937
  570MOL0     H76893  11.539  11.073   6.664  0.4317 -1.0463  1.5413
  570MOL0     H76894  11.380  11.035   6.569  0.0916 -0.4402 -0.7905
  570MOL0     H76895  11.289  10.971   6.800 -1.6666  1.0623  0.2240
  570MOL0     H76896  11.454  10.974   6.847 -0.9001 -3.1725 -2.5205
  570MOL0     H76897  11.336  11.166   6.933  0.8366 -1.3038 -0.1177
  570MOL0     H76898  11.468  11.216   6.840 -0.4755 -0.3664 -0.0835
  570MOL0     H76899  11.199  11.209   6.715 -0.5972 -1.0253  4.5001
  570MOL0     H76900  11.343  11.288   6.653 -1.6541  3.0023 -0.3140
  570MOL0     H76901  11.117  11.282   6.971  2.7631 -1.4750  0.5639
  570MOL0     H76902  10.931  11.624   6.982 -1.8241 -0.6023  0.1194
  570MOL0     H76903  10.953  11.472   7.059  1.0662 -0.6247 -1.0872
  570MOL0     H76904  11.084  11.732   7.111 -1.5780 -0.5704 -1.6317
  570MOL0     H76905  11.170  11.596   7.170  0.9642  1.3146  1.0903
  570MOL0     H76906  10.954  11.529   7.298  2.4824  0.4354 -0.4375
  570MOL0     H76907  10.895  11.695   7.262  0.2910  0.8744  0.9174
  570MOL0     H76908  11.161  11.638   7.414 -0.2862 -0.7476  0.8140
  570MOL0     H76909  11.015  11.684   7.489 -1.9714  0.7922 -1.5723
  570MOL0     H76910  11.370  11.799   7.409 -0.0147 -1.5766  2.0910
  570MOL0     H76911  11.610  11.928   7.619 -0.6534  1.0282  0.9152
  570MOL0     H76912  11.572  11.867   7.462  0.4262 -0.3308  0.3211
  570MOL0     H76913  11.579  12.041   7.477 -0.9343 -0.5767 -1.8501
  570MOL0     H76914  11.642  12.204   7.947 -3.4309 -0.4591  0.2234
  570MOL0     H76915  11.722  12.419   8.028  0.0815 -1.5442 -0.4827
  570MOL0     H76916  11.880  12.573   7.965 -1.6437 -0.4886  1.7016
  570MOL0     H76917  11.899  12.733   7.871  0.3763 -0.5752  0.5379
  570MOL0     H76918  11.903  12.763   8.116  0.2054  0.0089  0.6492
  570MOL0     H76919  11.763  12.831   8.048  0.6105  0.6313  0.8285
  570MOL0     H76920  11.768  12.589   8.218 -0.2049  0.4280  1.3227
  570MOL0     H76921  11.622  12.652   8.116  0.2730 -0.1552  0.1341
  570MOL0     H76922  11.765  12.819   8.312  1.2298 -0.0074  0.3478
  570MOL0     H76923  11.625  12.867   8.218 -0.0161 -0.5125  0.6656
  570MOL0     H76924  11.617  12.639   8.421  2.6823  1.9349  1.3266
  570MOL0     H76925  11.485  12.695   8.321 -0.1607  0.8284 -0.2186
  570MOL0     H76926  11.554  12.931   8.439  2.0849  0.8271  0.3881
  570MOL0     H76927  11.458  12.801   8.520  0.8488 -3.1822  1.2508
  570MOL0     H76928  11.763  12.813   8.541 -0.3607  2.7471  0.1809
  570MOL0     H76929  11.656  12.732   8.650 -0.9962 -2.1280 -2.1562
  570MOL0     H76930  11.603  12.974   8.736 -2.2879 -3.7181 -0.6977
  570MOL0     H76931  11.715  13.033   8.611  0.8716  2.6470  2.7464
  570MOL0     H76932  11.583  12.610   7.671  0.8233 -0.4310 -2.4437
  570MOL0     H76933  11.558  12.376   7.564 -0.6806  2.6103 -0.6082
  570MOL0     H76934  11.148  12.114   7.714 -1.2780 -1.6722 -0.0896
  570MOL0     H76935  11.015  12.012   7.540  1.2136  2.8766 -0.2064
  570MOL0     H76936  11.552  10.341   6.142  0.5260 -0.8437 -1.5755
  570MOL0     H76937  11.424  10.253   5.959  0.7016 -0.1534  0.9306
  570MOL0     H76938  11.068   9.924   5.849  0.6416 -0.7946 -1.6700
  570MOL0     H76939  10.941   9.847   5.669 -1.3894 -0.7139 -0.0052
  570MOL0     H76940  10.772  10.152   5.361  0.5384  1.4557  1.6208
  570MOL0     H76941  10.712   9.999   5.302  0.2654  0.8312  0.3699
  570MOL0     H76942  10.536  10.173   5.407 -0.0740 -0.8743  0.9355
  570MOL0     H76943  10.613  10.118   5.563 -1.7256 -0.0232  1.4285
  570MOL0     H76944  10.480   9.961   5.589  2.3618  1.0573  0.9377
  570MOL0     H76945  10.543   9.877   5.448 -0.3958 -0.1343  0.8009
  570MOL0     H76946  10.364   9.996   5.307  2.5605 -1.0401  0.2943
  570MOL0     H76947  10.303  10.094   5.435 -3.0862 -0.0378 -2.4021
  570MOL0     H76948  10.132   9.734   5.553 -0.3734 -1.5244 -2.0886
  570MOL0     H76949  10.860  10.253   5.546 -1.3541 -0.4014  0.3584
  570MOL0     H76950  10.993  10.330   5.731  0.2721 -0.5337 -0.3788
  571MOL0     O76951   2.928  10.328   2.002 -0.1958 -0.0526  0.0662
  571MOL0     C76952   2.962  10.316   1.879  0.0389  0.1700 -0.7508
  571MOL0     O76953   3.086  10.324   1.835 -0.0517  0.2896 -0.0031
  571MOL0     C76954   3.189  10.373   1.923 -0.5877  0.3787  0.7067
  571MOL0     C76955   3.229  10.508   1.929  0.8675  0.5674  0.0495
  571MOL0     C76956   3.310  10.548   2.029 -0.5189  0.2665 -0.2867
  571MOL0     C76957   3.378  10.457   2.119 -1.0281  0.0280 -0.4122
  571MOL0     O76958   3.483  10.504   2.196 -1.3381 -0.2575 -0.5066
  571MOL0     C76959   3.451  10.608   2.293 -0.7713  0.2825  0.1287
  571MOL0     C76960   3.349  10.582   2.399  0.4136  0.4881  0.1537
  571MOL0     C76961   3.410  10.467   2.485  0.0528 -0.2382 -0.1404
  571MOL0     C76962   3.359  10.455   2.631  1.6446 -0.6481 -1.0665
  571MOL0     C76963   3.401  10.566   2.731 -0.5186  0.5945 -0.7477
  571MOL0     C76964   3.534  10.635   2.707  0.0136  0.6949  0.0643
  571MOL0     C76965   3.561  10.762   2.803  0.4440 -0.0492  0.3660
  571MOL0     C76966   3.488  10.889   2.738 -0.5970  0.5759 -0.1865
  571MOL0     N76967   3.489  11.006   2.832  0.6911 -0.9366  0.6127
  571MOL0     C76968   3.375  11.048   2.892 -0.0899 -0.4166 -0.5486
  571MOL0     C76969   3.419  11.134   2.985 -0.0181  0.2076 -0.2322
  571MOL0     C76970   3.334  11.197   3.087  0.0206  0.0875 -1.1264
  571MOL0     C76971   3.391  11.226   3.229  0.1903 -0.1455 -0.4108
  571MOL0     C76972   3.287  11.215   3.341  0.7293 -0.1192  0.2186
  571MOL0     C76973   3.253  11.069   3.373  0.1179  0.0210  1.2261
  571MOL0     O76974   3.219  11.058   3.513 -0.6148  0.2302  0.0937
  571MOL0     C76975   3.088  11.067   3.544 -0.6418 -0.2244  0.3880
  571MOL0     C76976   3.051  11.175   3.612  0.2864  0.5456  0.2639
  571MOL0     C76977   2.914  11.197   3.636 -0.1742 -0.0521 -0.3521
  571MOL0     C76978   2.871  11.331   3.698 -0.3890  0.0344  0.2266
  571MOL0     C76979   2.815  11.117   3.591  0.2677 -0.3061  0.3194
  571MOL0     C76980   2.669  11.148   3.610  0.5042 -0.1502  0.3510
  571MOL0     O76981   2.606  11.131   3.740 -0.4766  0.2486  0.2682
  571MOL0     C76982   2.679  11.084   3.841  0.4279  0.7622 -0.3782
  571MOL0     C76983   2.659  11.150   3.955 -0.6652  0.2395 -0.2104
  571MOL0     C76984   2.733  11.106   4.076  0.8577  0.1562  0.0372
  571MOL0     C76985   2.817  10.988   4.073 -0.1357 -0.7913  0.4957
  571MOL0     O76986   2.872  10.933   4.182  0.8398 -0.5948  0.2682
  571MOL0     C76987   2.899  10.788   4.191 -0.9990  0.1566 -0.2390
  571MOL0     C76988   2.949  10.786   4.339 -0.0045  0.8515  0.3672
  571MOL0     C76989   3.022  10.646   4.360 -0.4738 -0.2324  0.8446
  571MOL0     C76990   2.922  10.530   4.363 -0.7082 -0.0292 -1.1668
  571MOL0     C76991   2.847  10.528   4.498 -0.4363 -0.4606  0.1651
  571MOL0     C76992   2.767  10.403   4.508  1.2033  0.2098 -0.4909
  571MOL0     C76993   2.666  10.401   4.630  0.8519  0.5701 -0.1386
  571MOL0     C76994   2.597  10.264   4.641  0.7828  0.1448 -0.0564
  571MOL0    Cl76995   2.729  10.138   4.662  0.4384  0.3597  0.1422
  571MOL0     C76996   2.815  10.925   3.950  0.2434  0.8842 -0.6744
  571MOL0     C76997   2.748  10.963   3.837  0.0704  0.7825 -0.2620
  571MOL0     O76998   2.603  11.181   3.509 -0.4819  0.9867 -1.1804
  571MOL0     C76999   2.857  11.000   3.527  0.5535  0.0971  0.4903
  571MOL0     C77000   2.995  10.972   3.500  0.2754 -0.1779  0.5672
  571MOL0     N77001   3.560  11.155   2.977  0.7530  0.2568 -0.2073
  571MOL0     N77002   3.598  11.074   2.881 -0.1572 -0.4452 -0.9355
  571MOL0     C77003   3.344  10.320   2.104 -0.2098 -0.0011 -0.0344
  571MOL0     C77004   3.238  10.280   2.014 -0.9459 -0.8496 -0.5365
  571MOL0     C77005   2.846  10.297   1.787  0.0298  0.0002 -0.5793
  571MOL0     C77006   2.709  10.293   1.835 -0.2207  0.8765 -0.8009
  571MOL0     C77007   2.606  10.281   1.744  0.7605 -0.2295  0.3683
  571MOL0     C77008   2.633  10.268   1.603 -0.6255 -0.7312 -0.1340
  571MOL0     O77009   2.526  10.249   1.519 -0.5633 -0.3808 -0.7118
  571MOL0     C77010   2.546  10.264   1.380  0.5284 -0.3543  0.3621
  571MOL0     C77011   2.418  10.332   1.316  0.2715 -0.4220  0.3481
  571MOL0     C77012   2.285  10.263   1.328 -0.4100 -0.5111  0.0539
  571MOL0     C77013   2.300  10.116   1.286 -0.6462  0.8632 -0.1249
  571MOL0     C77014   2.182  10.037   1.307 -0.5737  0.5767 -0.3546
  571MOL0     C77015   2.082   9.956   1.322 -0.3455 -1.2439 -0.5438
  571MOL0     C77016   2.773  10.269   1.559  0.4714 -0.2874  0.9663
  571MOL0     C77017   2.868  10.283   1.651  0.2352  0.7780  0.0369
  571MOL0     H77018   3.179  10.572   1.857  2.2616  0.0049 -1.4886
  571MOL0     H77019   3.328  10.655   2.034 -0.5456  0.2214  0.9605
  571MOL0     H77020   3.543  10.646   2.337 -0.9164  1.3187 -0.4372
  571MOL0     H77021   3.422  10.694   2.231  1.1623  1.3586  0.6463
  571MOL0     H77022   3.327  10.668   2.463 -1.0360  1.4693 -1.5488
  571MOL0     H77023   3.249  10.552   2.367  0.8127 -0.7936  0.0605
  571MOL0     H77024   3.389  10.375   2.429  0.7914  0.2200 -1.2014
  571MOL0     H77025   3.519  10.478   2.489  0.0523  1.1997 -2.5473
  571MOL0     H77026   3.250  10.442   2.634  1.4491  0.8062  1.5868
  571MOL0     H77027   3.395  10.359   2.668 -1.7579 -1.7863 -0.2915
  571MOL0     H77028   3.323  10.642   2.742 -1.5704 -0.8355  3.3847
  571MOL0     H77029   3.409  10.511   2.825  0.9307 -2.5489 -2.5602
  571MOL0     H77030   3.610  10.557   2.720  1.1428  1.1066 -3.2041
  571MOL0     H77031   3.558  10.666   2.605 -2.7661  1.5671 -0.4143
  571MOL0     H77032   3.510  10.749   2.900  0.3535 -0.4807  0.2615
  571MOL0     H77033   3.668  10.784   2.811  0.2079  1.4040 -0.2084
  571MOL0     H77034   3.386  10.853   2.724  0.2866 -1.1852 -2.7471
  571MOL0     H77035   3.537  10.915   2.644  1.1645 -3.7795 -0.6997
  571MOL0     H77036   3.272  11.023   2.871 -0.2380 -1.5826  1.3117
  571MOL0     H77037   3.290  11.292   3.055 -4.6763 -1.4383  0.0204
  571MOL0     H77038   3.262  11.115   3.091  1.6102 -1.3495  1.8515
  571MOL0     H77039   3.437  11.324   3.241 -1.2125  0.9967 -3.3978
  571MOL0     H77040   3.464  11.148   3.255 -0.4305 -0.1034  1.6884
  571MOL0     H77041   3.205  11.282   3.313  1.1706  0.0354 -0.7624
  571MOL0     H77042   3.324  11.256   3.435 -1.3338 -1.3572  1.6459
  571MOL0     H77043   3.322  10.994   3.334 -0.3607  0.5123 -0.6711
  571MOL0     H77044   3.169  11.057   3.305  0.0335  1.8591  0.9467
  571MOL0     H77045   3.122  11.247   3.651  1.1497 -0.2648  0.2118
  571MOL0     H77046   2.959  11.396   3.698 -1.1709  1.2436  2.9356
  571MOL0     H77047   2.790  11.381   3.644 -1.0577 -1.7610 -0.4904
  571MOL0     H77048   2.842  11.304   3.800 -0.9985 -2.7439 -0.6169
  571MOL0     H77049   2.593  11.235   3.972  1.4167  1.9803 -0.3936
  571MOL0     H77050   2.718  11.155   4.172 -1.6713 -1.9618  0.8585
  571MOL0     H77051   2.809  10.728   4.178 -0.3528 -1.4178  1.9553
  571MOL0     H77052   2.978  10.772   4.116 -1.4465  0.1544 -0.7155
  571MOL0     H77053   3.017  10.872   4.352 -0.3158  1.6928 -2.7317
  571MOL0     H77054   2.867  10.773   4.410 -0.2732 -4.0781 -0.5077
  571MOL0     H77055   3.084  10.644   4.450  2.2531 -3.5185 -0.8716
  571MOL0     H77056   3.093  10.638   4.278 -1.3723  0.2736 -0.0108
  571MOL0     H77057   2.856  10.525   4.275 -2.4941 -0.5882  0.1458
  571MOL0     H77058   2.978  10.437   4.351  0.9215  1.0215 -2.0580
  571MOL0     H77059   2.768  10.604   4.489 -0.4123 -0.6990 -3.7064
  571MOL0     H77060   2.912  10.539   4.585  1.0353  2.6215 -1.1620
  571MOL0     H77061   2.710  10.395   4.416  0.1897 -1.7140  0.2323
  571MOL0     H77062   2.843  10.325   4.509  0.9952  0.0070  0.1275
  571MOL0     H77063   2.601  10.488   4.622  1.5574  1.1506  0.3059
  571MOL0     H77064   2.720  10.420   4.724  2.0361  0.7036 -0.8193
  571MOL0     H77065   2.549  10.246   4.544 -0.0405  0.5800  0.2579
  571MOL0     H77066   2.531  10.261   4.728  1.3254  1.1575  0.4135
  571MOL0     H77067   2.890  10.847   3.938 -1.0972 -0.1201 -3.3764
  571MOL0     H77068   2.747  10.913   3.740 -1.8147 -1.1091  0.6557
  571MOL0     H77069   2.785  10.926   3.492  0.0815  0.2143  1.1899
  571MOL0     H77070   3.006  10.876   3.451  1.6760 -0.3760  1.2397
  571MOL0     H77071   3.395  10.243   2.160  1.1039 -1.1554 -2.6229
  571MOL0     H77072   3.204  10.178   2.002 -1.9233 -0.2716 -3.5163
  571MOL0     H77073   2.694  10.298   1.942 -1.2021 -1.3076 -0.7877
  571MOL0     H77074   2.506  10.297   1.784  1.0188  0.0392  0.9063
  571MOL0     H77075   2.634  10.321   1.349 -0.7578  1.3646 -0.2867
  571MOL0     H77076   2.561  10.169   1.327 -1.2069  0.1903 -1.2260
  571MOL0     H77077   2.434  10.350   1.210  2.0772  1.3803  0.8595
  571MOL0     H77078   2.409  10.430   1.363 -1.1581 -0.6343  0.5679
  571MOL0     H77079   2.212  10.311   1.262  0.0240 -4.2359 -3.5119
  571MOL0     H77080   2.249  10.265   1.431 -1.7075  0.6640 -0.3795
  571MOL0     H77081   2.376  10.068   1.348 -1.3056  0.8986  0.7138
  571MOL0     H77082   2.327  10.109   1.180 -3.1679  1.1645 -0.8416
  571MOL0     H77083   1.996   9.895   1.336  1.4425 -3.4581  1.7925
  571MOL0     H77084   2.812  10.270   1.458  2.9887  2.1830  1.8317
  571MOL0     H77085   2.970  10.284   1.614  0.5263 -3.9987  0.0927
  572MOL0     O77086   0.345   4.732   3.363  0.2511  0.1757  0.3568
  572MOL0     C77087   0.239   4.801   3.354 -0.5137 -0.1937  0.0537
  572MOL0     O77088   0.149   4.824   3.455 -0.8539 -0.2335 -0.1718
  572MOL0     C77089   0.126   4.714   3.535  0.2680  0.3575  1.1199
  572MOL0     C77090   0.203   4.683   3.651  0.4953 -0.3784  0.4251
  572MOL0     C77091   0.174   4.576   3.736 -0.2504  0.4670 -0.1355
  572MOL0     C77092   0.062   4.499   3.710  0.4087  1.1153 -0.6014
  572MOL0     O77093   0.049   4.397   3.804  0.0714  0.5737 -0.1771
  572MOL0     C77094  -0.064   4.304   3.799 -0.4204  0.1230  0.0573
  572MOL0     C77095  -0.197   4.358   3.859 -0.6936  0.4284  0.4738
  572MOL0     C77096  -0.295   4.252   3.860 -0.7223  1.0308 -0.6377
  572MOL0     C77097  -0.407   4.279   3.962 -0.2180 -0.7139 -1.1736
  572MOL0     C77098  -0.513   4.171   3.967 -0.5827  0.2067 -0.2286
  572MOL0     C77099  -0.618   4.177   3.857  0.1629 -1.0179  0.4869
  572MOL0     C77100  -0.712   4.054   3.837  0.9505 -0.0971 -0.7191
  572MOL0     C77101  -0.820   4.050   3.943  0.2336  0.8514 -0.1377
  572MOL0     N77102  -0.889   4.177   3.957  0.0324 -0.4763 -0.1288
  572MOL0     C77103  -0.899   4.256   4.073  0.1692  0.2138 -0.7260
  572MOL0     C77104  -0.981   4.356   4.042 -0.1211  0.2777  0.3494
  572MOL0     C77105  -0.988   4.486   4.116 -1.0670 -0.5272  0.3800
  572MOL0     C77106  -1.127   4.557   4.121  0.3231 -0.5777  0.4799
  572MOL0     C77107  -1.241   4.465   4.155  0.2163  0.1428  0.1085
  572MOL0     C77108  -1.374   4.540   4.172  0.6947 -0.1652 -0.3564
  572MOL0     O77109  -1.477   4.443   4.202 -0.2632 -0.9918  0.7070
  572MOL0     C77110  -1.581   4.474   4.289 -0.4119  0.3737 -0.6971
  572MOL0     C77111  -1.712   4.499   4.245  0.1431  0.1586  0.4518
  572MOL0     C77112  -1.810   4.513   4.332  0.6774  0.4173 -0.3348
  572MOL0     C77113  -1.944   4.558   4.277 -0.5592  0.6927  0.1156
  572MOL0     C77114  -1.789   4.506   4.474 -0.1062 -0.0763  0.2880
  572MOL0     C77115  -1.891   4.517   4.581 -0.0688 -0.1126 -0.1756
  572MOL0     O77116  -2.010   4.458   4.552  0.2701 -0.6354  0.3088
  572MOL0     C77117  -2.128   4.503   4.602 -0.2918 -0.0566 -0.4184
  572MOL0     C77118  -2.246   4.438   4.557  0.0513 -0.5651 -0.3067
  572MOL0     C77119  -2.371   4.472   4.609 -0.4202 -0.1383  0.1603
  572MOL0     C77120  -2.388   4.590   4.686  0.4358  0.5969  0.2328
  572MOL0     O77121  -2.517   4.631   4.712  0.6627 -0.0063  0.4931
  572MOL0     C77122  -2.545   4.756   4.782 -0.2110 -0.5509  0.8158
  572MOL0     C77123  -2.699   4.758   4.798 -0.2644 -0.5529 -0.0066
  572MOL0     C77124  -2.736   4.898   4.854 -0.0831 -0.0308  0.1569
  572MOL0     C77125  -2.889   4.897   4.850  0.2575  0.0097 -0.7805
  572MOL0     C77126  -2.942   5.021   4.918  0.0792 -0.0282 -0.1002
  572MOL0     C77127  -3.090   5.010   4.953  0.4135  0.5022 -0.4959
  572MOL0     C77128  -3.122   5.136   5.024 -0.6640 -0.1775  0.4853
  572MOL0     C77129  -3.126   5.270   4.944  0.1956  0.0393 -0.3257
  572MOL0    Cl77130  -3.252   5.277   4.829  0.1789  0.1104 -0.0109
  572MOL0     C77131  -2.272   4.664   4.718 -0.2541 -1.4206  0.2117
  572MOL0     C77132  -2.139   4.616   4.686  1.3882 -0.5608  0.1219
  572MOL0     O77133  -1.857   4.565   4.690 -0.1605 -0.3056  0.8377
  572MOL0     C77134  -1.658   4.488   4.512  0.0524 -0.3862  0.6267
  572MOL0     C77135  -1.555   4.464   4.425  0.2773  0.0935  0.0144
  572MOL0     N77136  -1.016   4.340   3.913  0.7425 -0.6665 -0.1040
  572MOL0     N77137  -0.967   4.229   3.857 -0.2368 -0.2686 -0.2647
  572MOL0     C77138  -0.019   4.512   3.591 -0.0922 -0.7461 -0.4237
  572MOL0     C77139   0.019   4.623   3.502 -0.4418  0.6678 -0.1717
  572MOL0     C77140   0.230   4.884   3.233  0.8937  0.2055 -0.6346
  572MOL0     C77141   0.336   4.894   3.152 -0.2965  0.0385  0.2276
  572MOL0     C77142   0.328   4.970   3.030 -0.8588  1.0623 -0.1969
  572MOL0     C77143   0.208   5.024   2.991  0.1091 -0.9288 -0.1356
  572MOL0     O77144   0.180   5.114   2.882  0.5769  0.0705  0.2585
  572MOL0     C77145   0.281   5.177   2.814 -0.1194  0.1672 -0.6207
  572MOL0     C77146   0.332   5.282   2.908  0.1710  0.3468 -1.1779
  572MOL0     C77147   0.430   5.377   2.844 -0.3849 -0.3232 -0.4991
  572MOL0     C77148   0.505   5.470   2.952  0.6564 -0.0490  0.6554
  572MOL0     C77149   0.577   5.392   3.053  0.2634 -0.2760 -1.2207
  572MOL0     C77150   0.636   5.333   3.145  1.5835 -0.6077  0.5108
  572MOL0     C77151   0.091   5.002   3.062 -0.3574  0.0739 -0.2451
  572MOL0     C77152   0.104   4.936   3.194 -0.9691 -0.8123  0.2457
  572MOL0     H77153   0.277   4.761   3.665 -1.6921  1.6841  1.1932
  572MOL0     H77154   0.236   4.563   3.825  0.1539  0.4101 -0.4206
  572MOL0     H77155  -0.086   4.264   3.700 -2.6705  1.4611 -0.0482
  572MOL0     H77156  -0.032   4.219   3.859  1.4508  0.1052 -0.9028
  572MOL0     H77157  -0.178   4.400   3.958 -1.7266 -1.9138  1.7622
  572MOL0     H77158  -0.233   4.431   3.786 -0.0318 -0.6863 -1.0153
  572MOL0     H77159  -0.324   4.236   3.756  0.0495 -0.9691 -0.5844
  572MOL0     H77160  -0.239   4.165   3.895 -0.5126  1.6256  0.5404
  572MOL0     H77161  -0.355   4.299   4.056  2.3022  1.3891 -2.8829
  572MOL0     H77162  -0.450   4.377   3.940  0.5104 -0.5611 -1.9870
  572MOL0     H77163  -0.476   4.069   3.961 -4.4619 -1.3687 -0.3376
  572MOL0     H77164  -0.556   4.194   4.065  0.7120 -1.7124  0.8387
  572MOL0     H77165  -0.673   4.271   3.860 -0.7987 -1.5223 -0.3919
  572MOL0     H77166  -0.558   4.183   3.765 -0.3432  1.0594  0.2562
  572MOL0     H77167  -0.755   4.075   3.738  2.5750  1.9311 -1.0540
  572MOL0     H77168  -0.665   3.955   3.833 -0.3052 -0.7324 -0.5830
  572MOL0     H77169  -0.794   4.025   4.046 -1.8588  0.2079  0.2844
  572MOL0     H77170  -0.895   3.978   3.911  1.1832  1.5581 -4.5769
  572MOL0     H77171  -0.848   4.237   4.167  1.7098  0.8973 -1.3827
  572MOL0     H77172  -0.937   4.466   4.211  0.4218 -2.6651 -0.7922
  572MOL0     H77173  -0.921   4.562   4.074  1.4227 -1.7958  1.8095
  572MOL0     H77174  -1.143   4.597   4.021  0.6482 -5.1126 -1.6375
  572MOL0     H77175  -1.119   4.636   4.197 -3.6667 -1.3209  1.9601
  572MOL0     H77176  -1.217   4.411   4.247  0.5877 -0.6963 -0.4718
  572MOL0     H77177  -1.246   4.394   4.072 -4.3393 -0.1346  0.3626
  572MOL0     H77178  -1.404   4.601   4.086 -2.2610  1.3104  1.5639
  572MOL0     H77179  -1.360   4.605   4.259  1.4321 -2.6252  1.4865
  572MOL0     H77180  -1.712   4.489   4.137  2.8950  2.3425  0.1490
  572MOL0     H77181  -1.963   4.654   4.326  0.1516  1.4949 -1.1174
  572MOL0     H77182  -1.945   4.576   4.169  1.2057  0.9488  0.1047
  572MOL0     H77183  -2.023   4.486   4.300 -0.1731  0.9702  2.6303
  572MOL0     H77184  -2.236   4.348   4.498  1.6335 -0.2361 -0.6010
  572MOL0     H77185  -2.458   4.428   4.561 -0.6570  2.8004 -2.4171
  572MOL0     H77186  -2.508   4.759   4.885 -2.8073 -2.4744  1.9203
  572MOL0     H77187  -2.509   4.844   4.730 -0.6753  1.1881  3.2448
  572MOL0     H77188  -2.749   4.731   4.705  0.2834 -0.1968 -0.4100
  572MOL0     H77189  -2.731   4.673   4.859 -0.8858 -0.0484  0.3871
  572MOL0     H77190  -2.694   4.981   4.797 -0.1898 -0.1503 -0.1034
  572MOL0     H77191  -2.694   4.913   4.953 -0.3230 -0.6094  0.3546
  572MOL0     H77192  -2.922   4.886   4.747  2.8687 -2.5465 -1.4550
  572MOL0     H77193  -2.919   4.807   4.904 -3.3849 -0.2302 -2.8762
  572MOL0     H77194  -2.913   5.101   4.849  1.3116 -0.6942 -0.4048
  572MOL0     H77195  -2.882   5.028   5.010 -0.6173  1.6282  0.2568
  572MOL0     H77196  -3.154   5.010   4.864  0.4021  0.6216 -0.4877
  572MOL0     H77197  -3.105   4.917   5.009 -0.4858  1.4467  0.8958
  572MOL0     H77198  -3.061   5.143   5.115 -1.5355 -2.0360  1.2636
  572MOL0     H77199  -3.220   5.123   5.071  0.0344 -1.1601  1.7464
  572MOL0     H77200  -3.030   5.289   4.895 -0.0218  0.4887 -0.5838
  572MOL0     H77201  -3.156   5.354   5.007  0.5634  0.9326 -1.3250
  572MOL0     H77202  -2.283   4.759   4.769 -1.1436 -1.8377  0.8264
  572MOL0     H77203  -2.055   4.657   4.741  2.6666 -1.5299 -1.0463
  572MOL0     H77204  -1.631   4.487   4.617 -1.8648 -0.7859  1.1705
  572MOL0     H77205  -1.451   4.449   4.453 -0.4861 -2.9519  1.6444
  572MOL0     H77206  -0.100   4.446   3.562 -1.3285  0.8885 -0.8767
  572MOL0     H77207  -0.035   4.624   3.408  1.2395  1.9593 -1.1601
  572MOL0     H77208   0.430   4.840   3.156 -0.6251 -0.7064 -1.3565
  572MOL0     H77209   0.420   4.979   2.973  0.0324  0.7176  1.1462
  572MOL0     H77210   0.351   5.101   2.779  1.1922  2.0599 -2.3319
  572MOL0     H77211   0.238   5.221   2.724 -1.8434 -1.5549 -0.7084
  572MOL0     H77212   0.368   5.233   2.999 -1.4155 -0.8453 -1.1453
  572MOL0     H77213   0.245   5.339   2.944  0.8605 -0.0109  1.2628
  572MOL0     H77214   0.368   5.443   2.782  3.4717  1.3633 -2.9010
  572MOL0     H77215   0.504   5.326   2.782 -1.1865 -2.6688  0.3430
  572MOL0     H77216   0.437   5.528   3.015  1.2156 -1.3600  2.5507
  572MOL0     H77217   0.561   5.549   2.902  0.4107  1.6139  2.8551
  572MOL0     H77218   0.692   5.275   3.215  0.2282 -2.1450  0.3733
  572MOL0     H77219  -0.005   5.047   3.038  0.7481  1.7830 -1.7030
  572MOL0     H77220   0.017   4.936   3.258 -0.0950  1.4985  1.5296
  573MOL0     O77221   3.769   3.361   4.637 -0.3306  0.3675 -0.9285
  573MOL0     C77222   3.817   3.248   4.654  0.8078 -0.5122 -1.2595
  573MOL0     O77223   3.749   3.147   4.704  0.0367  0.1001 -0.2465
  573MOL0     C77224   3.618   3.159   4.706  0.3417  0.6310 -0.0078
  573MOL0     C77225   3.544   3.197   4.818 -0.4498 -0.4063  0.3448
  573MOL0     C77226   3.405   3.213   4.818  0.0889  0.4204  0.1394
  573MOL0     C77227   3.334   3.190   4.700  0.2703 -0.4844  0.0200
  573MOL0     O77228   3.200   3.224   4.713 -0.4575  0.2787 -0.3887
  573MOL0     C77229   3.119   3.194   4.597  0.0366 -0.1221 -0.6084
  573MOL0     C77230   2.975   3.217   4.635  0.5993 -0.4231  0.0833
  573MOL0     C77231   2.919   3.359   4.635  1.5270 -0.3997  0.1771
  573MOL0     C77232   2.763   3.347   4.635  0.4146 -0.1725  0.1285
  573MOL0     C77233   2.708   3.373   4.495 -0.0727  0.1170  0.2585
  573MOL0     C77234   2.556   3.375   4.477  0.4780  0.6115 -1.1766
  573MOL0     C77235   2.486   3.248   4.515  0.5450  0.7432 -0.0579
  573MOL0     C77236   2.338   3.231   4.458  0.4483  1.3292  0.1664
  573MOL0     N77237   2.322   3.249   4.315  0.3116 -0.2625  0.7137
  573MOL0     C77238   2.320   3.158   4.210 -0.0404  0.3437 -0.4161
  573MOL0     C77239   2.269   3.226   4.101 -0.2476  0.5937 -0.0861
  573MOL0     C77240   2.246   3.179   3.956  0.6959 -0.2338 -1.2345
  573MOL0     C77241   2.096   3.138   3.935  0.1861 -0.1437 -0.3347
  573MOL0     C77242   2.064   3.136   3.780 -0.7523  0.1049  0.3894
  573MOL0     C77243   2.142   3.028   3.695  0.1295 -0.6968 -0.4257
  573MOL0     O77244   2.153   2.908   3.772 -0.8705  0.1614 -0.7308
  573MOL0     C77245   2.035   2.835   3.781  0.6822 -0.1167  0.0458
  573MOL0     C77246   2.002   2.789   3.902  0.0319  0.3523 -0.1324
  573MOL0     C77247   1.895   2.702   3.934 -0.8423 -0.4101 -0.5341
  573MOL0     C77248   1.870   2.670   4.088 -0.5803  0.0318  0.5409
  573MOL0     C77249   1.809   2.659   3.825 -0.2835 -0.3990 -0.5159
  573MOL0     C77250   1.710   2.554   3.834  0.8577  0.3467 -0.2982
  573MOL0     O77251   1.704   2.486   3.950  0.2726 -0.1686  0.5309
  573MOL0     C77252   1.599   2.406   3.982 -0.3406 -0.1439  0.8108
  573MOL0     C77253   1.467   2.425   3.935  0.5899  0.0903 -0.2607
  573MOL0     C77254   1.357   2.340   3.968 -0.8753  0.3196  0.2787
  573MOL0     C77255   1.384   2.219   4.040 -0.6580  0.6809  0.2505
  573MOL0     O77256   1.294   2.122   4.068 -0.0642 -0.6108 -0.1370
  573MOL0     C77257   1.224   2.054   3.959  0.9236 -0.4119  0.6072
  573MOL0     C77258   1.086   2.119   3.930  0.2575 -0.2170  0.9800
  573MOL0     C77259   0.988   2.041   3.834 -0.2159  0.7684 -0.5495
  573MOL0     C77260   0.932   1.920   3.901 -0.5287  0.8109 -0.4611
  573MOL0     C77261   0.804   1.863   3.841 -0.0881  0.3586 -0.1041
  573MOL0     C77262   0.683   1.960   3.865 -0.2530  0.5335 -0.2279
  573MOL0     C77263   0.569   1.904   3.775  0.3855  0.1110  1.1268
  573MOL0     C77264   0.576   1.966   3.632  0.0921 -0.0638 -0.6321
  573MOL0    Cl77265   0.474   2.121   3.634 -0.0229  0.0655  0.5538
  573MOL0     C77266   1.513   2.211   4.079 -1.4128 -0.1772 -0.8182
  573MOL0     C77267   1.620   2.303   4.061 -0.8645  1.2991  0.7270
  573MOL0     O77268   1.631   2.522   3.737  0.9069  0.1897 -0.3770
  573MOL0     C77269   1.837   2.714   3.699 -0.2143  0.3458  0.9343
  573MOL0     C77270   1.945   2.802   3.674  0.2267 -0.5138 -0.0189
  573MOL0     N77271   2.231   3.351   4.142  0.0850 -0.2133  0.2224
  573MOL0     N77272   2.267   3.363   4.264  0.2777 -0.3441 -0.3466
  573MOL0     C77273   3.400   3.150   4.584  0.6734  1.1430  0.3277
  573MOL0     C77274   3.540   3.130   4.592 -0.8566  0.8470  1.1567
  573MOL0     C77275   3.957   3.243   4.640 -0.5591 -0.1574 -0.8740
  573MOL0     C77276   4.031   3.343   4.570 -0.1751 -0.1492  0.7447
  573MOL0     C77277   4.167   3.347   4.571 -0.6965  0.6408 -0.5564
  573MOL0     C77278   4.240   3.248   4.641 -0.0911  0.1004  0.3674
  573MOL0     O77279   4.379   3.264   4.645  0.0588 -0.5178 -0.1954
  573MOL0     C77280   4.423   3.321   4.760  0.0336 -0.1663  0.5150
  573MOL0     C77281   4.521   3.438   4.726 -0.7729  0.2542  1.0233
  573MOL0     C77282   4.610   3.486   4.841  0.2754 -0.8533 -0.3262
  573MOL0     C77283   4.748   3.520   4.800 -0.4959  0.8173  0.2043
  573MOL0     C77284   4.809   3.584   4.913 -0.4274  0.0168  0.1160
  573MOL0     C77285   4.870   3.638   5.001 -0.9736  0.1314 -0.7104
  573MOL0     C77286   4.172   3.143   4.703 -0.4300 -1.0315 -0.3944
  573MOL0     C77287   4.029   3.146   4.701  0.3992  0.3076 -0.4758
  573MOL0     H77288   3.596   3.195   4.913  0.5457  0.2641 -0.1791
  573MOL0     H77289   3.348   3.249   4.904  0.9091 -2.1893  1.9085
  573MOL0     H77290   3.157   3.234   4.502  0.9208 -4.2492 -2.1917
  573MOL0     H77291   3.127   3.087   4.575 -2.9087 -0.3138 -1.0725
  573MOL0     H77292   2.914   3.173   4.556 -1.4111 -0.7017  1.7009
  573MOL0     H77293   2.959   3.157   4.724  2.6536 -0.4137  0.5212
  573MOL0     H77294   2.966   3.412   4.719  0.9491 -0.8162  0.7795
  573MOL0     H77295   2.946   3.413   4.544  0.1963 -0.3793 -0.2307
  573MOL0     H77296   2.720   3.257   4.680  1.5165  0.0630  1.7191
  573MOL0     H77297   2.718   3.423   4.700 -3.8013  0.0567 -2.6489
  573MOL0     H77298   2.741   3.475   4.469 -1.9424  1.2664  2.0759
  573MOL0     H77299   2.746   3.295   4.428 -0.5216  2.2764 -2.7413
  573MOL0     H77300   2.507   3.447   4.542  0.3517 -0.1797 -0.3805
  573MOL0     H77301   2.521   3.396   4.375 -2.9137  1.7032  0.0993
  573MOL0     H77302   2.543   3.168   4.467 -0.4252 -0.5757  0.9056
  573MOL0     H77303   2.492   3.233   4.623  0.8900  1.0345 -0.0352
  573MOL0     H77304   2.284   3.312   4.506  0.6047 -0.1748  3.0966
  573MOL0     H77305   2.301   3.132   4.486  2.6228  1.3923  3.9568
  573MOL0     H77306   2.361   3.058   4.200 -3.0661 -1.1633  1.1011
  573MOL0     H77307   2.271   3.255   3.882  0.5604  0.0280 -1.0131
  573MOL0     H77308   2.302   3.087   3.939 -1.7954 -2.4438  1.4682
  573MOL0     H77309   2.035   3.224   3.965  0.3511  1.1292 -3.3111
  573MOL0     H77310   2.063   3.059   4.003 -1.2027  0.2078 -0.5819
  573MOL0     H77311   2.091   3.232   3.735 -0.9618 -0.1073 -0.1999
  573MOL0     H77312   1.956   3.128   3.763 -0.7780  0.0690  0.5697
  573MOL0     H77313   2.247   3.056   3.686 -0.0752  0.6763  0.9259
  573MOL0     H77314   2.091   3.018   3.598  0.3483  0.3298 -0.6664
  573MOL0     H77315   2.073   2.813   3.981  3.2773 -3.6679 -1.4694
  573MOL0     H77316   1.901   2.566   4.103  0.8536  0.6301  2.0401
  573MOL0     H77317   1.931   2.738   4.148  2.7728 -1.7256 -0.5960
  573MOL0     H77318   1.763   2.679   4.106 -1.1305 -0.1536 -2.1541
  573MOL0     H77319   1.446   2.509   3.870 -2.6171 -0.3017  0.1140
  573MOL0     H77320   1.255   2.360   3.937 -0.6620 -2.4227 -2.7209
  573MOL0     H77321   1.289   2.053   3.871  0.5947 -4.3966  0.2067
  573MOL0     H77322   1.217   1.947   3.982  2.7099 -0.4256  1.2400
  573MOL0     H77323   1.024   2.127   4.020 -1.5773 -3.4598  0.1323
  573MOL0     H77324   1.099   2.216   3.881 -3.5682  0.1632  0.4242
  573MOL0     H77325   1.035   2.002   3.743 -2.3830 -1.3909 -0.8374
  573MOL0     H77326   0.902   2.104   3.809 -0.7728  0.9993  1.7129
  573MOL0     H77327   1.007   1.841   3.895  0.7312  2.0498 -1.9510
  573MOL0     H77328   0.906   1.945   4.004 -3.1155  0.6665 -1.0002
  573MOL0     H77329   0.789   1.765   3.889 -0.5831 -0.8772 -2.6284
  573MOL0     H77330   0.813   1.834   3.736 -0.7729  0.0995 -0.0950
  573MOL0     H77331   0.647   1.957   3.968  1.6792 -0.5005  0.4646
  573MOL0     H77332   0.703   2.064   3.838 -1.0336  0.4338 -1.2430
  573MOL0     H77333   0.480   1.946   3.821 -2.3469 -1.6482 -2.0704
  573MOL0     H77334   0.558   1.795   3.765 -3.7183  0.3025  1.8892
  573MOL0     H77335   0.538   1.898   3.555 -1.7647 -0.7189  0.8072
  573MOL0     H77336   0.677   1.990   3.598  1.5304 -1.2819  2.3921
  573MOL0     H77337   1.545   2.125   4.137  1.1840  0.5560 -1.0533
  573MOL0     H77338   1.723   2.277   4.082 -0.4369  2.0166 -0.4215
  573MOL0     H77339   1.779   2.690   3.610  0.9631  1.5796 -0.2167
  573MOL0     H77340   1.955   2.829   3.570 -1.8266  3.5567  0.6189
  573MOL0     H77341   3.347   3.140   4.490 -1.3176 -2.6537  1.6291
  573MOL0     H77342   3.594   3.087   4.508 -0.5729  1.9190  0.7694
  573MOL0     H77343   3.973   3.409   4.506  1.4307 -0.7931 -1.4929
  573MOL0     H77344   4.214   3.436   4.533  3.0691 -0.0001  2.0050
  573MOL0     H77345   4.348   3.360   4.829 -2.2318  1.7818 -2.8015
  573MOL0     H77346   4.478   3.255   4.827  0.3044 -0.0109  0.4521
  573MOL0     H77347   4.460   3.514   4.676  0.4747  0.1800 -0.6907
  573MOL0     H77348   4.584   3.398   4.646 -1.2629  0.2175  0.6521
  573MOL0     H77349   4.599   3.427   4.932 -0.8559 -1.9690 -1.1600
  573MOL0     H77350   4.570   3.585   4.863  1.6595  0.2190 -2.2959
  573MOL0     H77351   4.751   3.595   4.721  1.8797  0.3186 -0.2391
  573MOL0     H77352   4.801   3.429   4.771  0.6019  2.2989 -2.8031
  573MOL0     H77353   4.939   3.677   5.073 -0.6822 -1.8616  0.1696
  573MOL0     H77354   4.223   3.061   4.752 -2.7183 -1.5812  1.2684
  573MOL0     H77355   3.999   3.058   4.756  2.4955 -3.2461 -4.5026
  574MOL0     O77356  10.920   9.612   2.120 -0.7615 -0.3247 -0.4516
  574MOL0     C77357  10.806   9.591   2.173  0.4152 -0.6524  0.5124
  574MOL0     O77358  10.740   9.676   2.258  0.4923  0.3796  0.4530
  574MOL0     C77359  10.800   9.798   2.252 -0.1362 -0.4411 -0.0112
  574MOL0     C77360  10.768   9.884   2.143 -0.1695  0.6365 -0.0544
  574MOL0     C77361  10.819  10.017   2.157 -0.3088  0.5325  0.4782
  574MOL0     C77362  10.911  10.060   2.255  0.1781  0.7446 -0.0839
  574MOL0     O77363  10.968  10.188   2.266 -0.4084  0.7329  0.5072
  574MOL0     C77364  11.028  10.244   2.144  0.2828  0.0921  0.2212
  574MOL0     C77365  11.127  10.156   2.077  0.5553  0.3810  0.6089
  574MOL0     C77366  11.239  10.095   2.167 -0.4082 -0.4797 -0.1426
  574MOL0     C77367  11.368  10.082   2.083  0.1376  0.4190  0.6459
  574MOL0     C77368  11.488  10.027   2.147  0.6105  0.8446  0.8228
  574MOL0     C77369  11.472   9.880   2.191  0.5077 -0.3432 -0.0180
  574MOL0     C77370  11.565   9.835   2.298 -0.0524  0.0324 -0.5578
  574MOL0     C77371  11.560   9.678   2.333  0.1947  0.1408  0.6500
  574MOL0     N77372  11.666   9.642   2.427 -0.3591 -0.4162  0.5290
  574MOL0     C77373  11.699   9.689   2.552  0.9553  0.0181  0.4270
  574MOL0     C77374  11.807   9.623   2.593 -0.1997  0.3609 -0.2639
  574MOL0     C77375  11.878   9.647   2.731  0.6950  0.4168  0.2904
  574MOL0     C77376  12.034   9.674   2.727  0.4245  0.6504  0.9448
  574MOL0     C77377  12.094   9.744   2.855  0.0053 -1.0402 -0.0042
  574MOL0     C77378  12.250   9.744   2.844 -0.0005  0.0612 -0.5601
  574MOL0     O77379  12.311   9.736   2.979  0.8351 -0.2577 -0.6205
  574MOL0     C77380  12.453   9.731   2.985  0.1752  0.5331  0.2591
  574MOL0     C77381  12.497   9.667   3.102  0.1938  0.5250 -0.4095
  574MOL0     C77382  12.628   9.643   3.132  0.0062  0.2981 -0.1885
  574MOL0     C77383  12.653   9.586   3.269 -0.4865  0.1771  0.2307
  574MOL0     C77384  12.726   9.670   3.038 -0.2706 -0.2849 -0.3437
  574MOL0     C77385  12.867   9.638   3.056  0.6671 -0.3865 -0.1260
  574MOL0     O77386  12.943   9.636   2.945 -0.2749  0.3163 -0.3786
  574MOL0     C77387  13.080   9.638   2.956 -0.4713  0.7460 -0.3660
  574MOL0     C77388  13.140   9.734   3.042  0.1944  0.4515  0.4595
  574MOL0     C77389  13.281   9.742   3.028 -0.4488 -0.0329 -0.7319
  574MOL0     C77390  13.354   9.652   2.947 -0.4127  0.0553 -0.0449
  574MOL0     O77391  13.491   9.643   2.959  0.1940  0.1708 -0.1508
  574MOL0     C77392  13.555   9.769   3.002 -0.0195  0.3438 -0.1239
  574MOL0     C77393  13.702   9.753   2.977 -0.3882  0.5641  1.2118
  574MOL0     C77394  13.765   9.652   3.061 -0.6502 -0.1063  0.0187
  574MOL0     C77395  13.713   9.632   3.204  1.0618 -0.0687 -0.1772
  574MOL0     C77396  13.774   9.524   3.282  0.4933 -1.0481  0.1855
  574MOL0     C77397  13.900   9.577   3.341  0.3863  0.1800  0.3297
  574MOL0     C77398  13.947   9.472   3.444 -0.7456 -0.3103  0.0622
  574MOL0     C77399  14.083   9.522   3.492  0.2646  0.4743 -0.6513
  574MOL0    Cl77400  14.101   9.474   3.667  0.1200  0.0127  0.3155
  574MOL0     C77401  13.287   9.551   2.871  0.4215 -0.1374 -0.4619
  574MOL0     C77402  13.150   9.544   2.872  0.4322  0.0027  1.1037
  574MOL0     O77403  12.909   9.627   3.170  0.2022 -0.2939 -0.5778
  574MOL0     C77404  12.683   9.728   2.914 -0.5251  0.3657  1.1149
  574MOL0     C77405  12.551   9.759   2.886  0.0231  1.1501  0.2295
  574MOL0     N77406  11.843   9.540   2.488 -0.6569 -0.1201  0.3015
  574MOL0     N77407  11.762   9.556   2.390 -0.9100  0.1836  0.0207
  574MOL0     C77408  10.942   9.963   2.358 -0.8905  0.0793  0.0265
  574MOL0     C77409  10.891   9.834   2.348  0.7095 -0.2665 -0.0022
  574MOL0     C77410  10.741   9.457   2.156  1.1996  0.0917  0.3115
  574MOL0     C77411  10.755   9.376   2.042  0.2181 -0.6211 -0.5299
  574MOL0     C77412  10.682   9.254   2.024 -0.0843 -0.9249 -0.3293
  574MOL0     C77413  10.585   9.219   2.121 -0.9579  0.5547  1.1058
  574MOL0     O77414  10.516   9.095   2.094  0.1660 -0.5599  0.2083
  574MOL0     C77415  10.398   9.080   2.168 -0.3600 -0.5298 -0.1681
  574MOL0     C77416  10.297   9.002   2.089  0.2527  0.9630  0.4962
  574MOL0     C77417  10.153   9.008   2.149 -0.4435 -0.4113 -0.5176
  574MOL0     C77418  10.059   8.916   2.079 -0.0125  0.0339  0.8068
  574MOL0     C77419  10.045   8.949   1.937  0.6990  0.1617  0.2477
  574MOL0     C77420  10.042   8.951   1.814  0.0167  0.2494  0.5963
  574MOL0     C77421  10.583   9.290   2.235  0.6436 -0.5116  0.7202
  574MOL0     C77422  10.651   9.412   2.253 -0.2599 -0.1891  0.0830
  574MOL0     H77423  10.708   9.856   2.057  4.1277 -2.2292 -2.5191
  574MOL0     H77424  10.787  10.088   2.082 -2.9202  1.2946  2.1777
  574MOL0     H77425  10.946  10.258   2.073 -0.0839 -2.1901  0.1232
  574MOL0     H77426  11.075  10.342   2.160  1.4514 -0.3754 -0.2403
  574MOL0     H77427  11.072  10.081   2.020 -3.3297  2.8223  0.7746
  574MOL0     H77428  11.172  10.205   1.990  0.1819 -1.6709 -0.8037
  574MOL0     H77429  11.271  10.161   2.248 -1.6987 -0.4683  0.3789
  574MOL0     H77430  11.211   9.999   2.212 -1.0321  0.6474  2.0117
  574MOL0     H77431  11.340  10.015   2.001  0.5147  0.8668  0.1490
  574MOL0     H77432  11.398  10.177   2.040  2.0926 -1.3394 -2.1738
  574MOL0     H77433  11.563  10.028   2.067  1.4642  4.0463  1.5085
  574MOL0     H77434  11.516  10.083   2.237 -0.0065 -4.5883  4.9232
  574MOL0     H77435  11.380   9.859   2.245 -0.6023  1.5250 -1.0853
  574MOL0     H77436  11.481   9.816   2.103  1.5121 -0.5266  0.2085
  574MOL0     H77437  11.668   9.863   2.272 -0.6649  1.7603 -1.3232
  574MOL0     H77438  11.544   9.896   2.386 -1.3372 -1.3251  0.1024
  574MOL0     H77439  11.583   9.630   2.237  2.5728  5.4914 -1.8673
  574MOL0     H77440  11.461   9.647   2.368  1.1166 -2.0000  1.5099
  574MOL0     H77441  11.646   9.758   2.617 -5.7652 -1.2466 -2.7954
  574MOL0     H77442  11.826   9.734   2.773  0.4021  1.3628 -1.9044
  574MOL0     H77443  11.863   9.552   2.784 -2.7558  1.1570  0.9060
  574MOL0     H77444  12.049   9.736   2.638  0.4854 -1.2634 -0.4685
  574MOL0     H77445  12.075   9.576   2.701 -1.2067  0.2779 -0.4557
  574MOL0     H77446  12.069   9.679   2.939  1.1234 -1.4935 -0.0113
  574MOL0     H77447  12.056   9.845   2.870  0.6076 -0.8418  0.2213
  574MOL0     H77448  12.295   9.823   2.784  2.7982 -1.3791 -0.5241
  574MOL0     H77449  12.282   9.649   2.800  2.2553 -2.5213  5.5320
  574MOL0     H77450  12.411   9.630   3.157 -1.3245 -0.0720 -3.0287
  574MOL0     H77451  12.725   9.503   3.269 -1.7164 -0.9618  2.0555
  574MOL0     H77452  12.671   9.660   3.347  2.3781 -0.3725  0.2088
  574MOL0     H77453  12.563   9.532   3.298  0.4153 -0.9711  1.0131
  574MOL0     H77454  13.081   9.797   3.108  1.3282 -0.6195  2.5933
  574MOL0     H77455  13.327   9.808   3.100  1.1514  1.1322 -2.7198
  574MOL0     H77456  13.521   9.848   2.934  0.6280  0.8518  0.1274
  574MOL0     H77457  13.536   9.791   3.108 -0.3161 -0.2059 -0.0581
  574MOL0     H77458  13.714   9.723   2.873 -2.2259 -0.4726  1.2534
  574MOL0     H77459  13.763   9.843   2.985  0.2699  0.2492  0.0051
  574MOL0     H77460  13.870   9.682   3.058 -0.0598 -1.9288  0.7829
  574MOL0     H77461  13.750   9.560   3.004 -0.9749 -0.4679  0.6758
  574MOL0     H77462  13.721   9.724   3.263 -2.6377 -0.3733  1.0848
  574MOL0     H77463  13.607   9.607   3.189  0.8315  0.8957 -0.2252
  574MOL0     H77464  13.793   9.439   3.216  1.6928  0.3693 -1.3918
  574MOL0     H77465  13.707   9.504   3.367  0.8357 -1.5560  0.3381
  574MOL0     H77466  13.964   9.605   3.257 -1.1080 -1.8001 -1.5922
  574MOL0     H77467  13.884   9.672   3.394  0.1330 -0.7655  2.0266
  574MOL0     H77468  13.973   9.380   3.390  0.2212  0.6417 -1.1447
  574MOL0     H77469  13.866   9.464   3.517 -2.6204  3.1324 -1.4236
  574MOL0     H77470  14.080   9.631   3.491 -2.8345  0.4831  0.1345
  574MOL0     H77471  14.153   9.492   3.412 -1.6422  1.9076 -2.9675
  574MOL0     H77472  13.340   9.486   2.802  3.6279  1.4861  0.2795
  574MOL0     H77473  13.092   9.475   2.812 -1.1361  1.0031  1.3889
  574MOL0     H77474  12.758   9.720   2.836  0.2159 -1.3212  1.9457
  574MOL0     H77475  12.524   9.791   2.786 -2.6905  1.6550  1.0413
  574MOL0     H77476  11.009   9.998   2.436 -3.2764  0.7609  1.8863
  574MOL0     H77477  10.918   9.771   2.432  0.4106 -0.7742 -0.2852
  574MOL0     H77478  10.821   9.410   1.962  0.1122  2.0254  0.4157
  574MOL0     H77479  10.670   9.192   1.936 -1.5592 -0.3741 -0.5442
  574MOL0     H77480  10.425   9.034   2.264  2.2794 -0.1546 -0.6694
  574MOL0     H77481  10.360   9.177   2.201 -2.3604 -0.6603 -1.8831
  574MOL0     H77482  10.336   8.900   2.093 -1.6220  0.1122 -1.0264
  574MOL0     H77483  10.282   9.013   1.981 -0.7922 -2.6770  0.1481
  574MOL0     H77484  10.120   9.112   2.154  2.3757  0.5040  1.8444
  574MOL0     H77485  10.139   8.983   2.255  0.3967  4.4084  1.0163
  574MOL0     H77486   9.960   8.927   2.126  0.5880  3.7452  1.5114
  574MOL0     H77487  10.083   8.810   2.091 -3.3346 -1.2442 -1.9693
  574MOL0     H77488  10.026   8.956   1.709  0.4211 -0.9953  0.4536
  574MOL0     H77489  10.525   9.262   2.323 -1.4854 -0.6083 -0.6457
  574MOL0     H77490  10.636   9.460   2.349 -1.7655 -1.4007  0.4921
  575MOL0     O77491   2.815   8.463   5.338 -0.2453  0.3289 -0.3800
  575MOL0     C77492   2.740   8.356   5.344  0.8289 -0.8478 -0.1054
  575MOL0     O77493   2.608   8.361   5.353  0.8083  0.3919  0.0279
  575MOL0     C77494   2.546   8.469   5.292 -0.4059 -0.8762 -0.9754
  575MOL0     C77495   2.538   8.484   5.148 -0.3731  0.0310  0.7715
  575MOL0     C77496   2.484   8.602   5.086 -0.0665 -0.4754  0.1166
  575MOL0     C77497   2.445   8.710   5.168 -0.3441 -0.4445  0.2204
  575MOL0     O77498   2.387   8.820   5.105  0.1397 -0.5328  0.2007
  575MOL0     C77499   2.343   8.940   5.181  0.0407 -0.3769 -0.6637
  575MOL0     C77500   2.199   8.930   5.236 -0.0712  0.0978 -0.0227
  575MOL0     C77501   2.133   9.050   5.286 -0.0020  0.0548  0.0239
  575MOL0     C77502   2.215   9.104   5.401  0.1541  0.0867  0.9330
  575MOL0     C77503   2.140   9.208   5.476 -0.1769 -1.2161 -0.9061
  575MOL0     C77504   2.227   9.320   5.525 -0.2499  0.3845  0.5831
  575MOL0     C77505   2.130   9.407   5.598  0.5140  0.3982  0.0209
  575MOL0     C77506   2.216   9.523   5.664  0.1878  0.1166 -0.2057
  575MOL0     N77507   2.127   9.622   5.729 -0.1411 -0.1396  0.5780
  575MOL0     C77508   2.087   9.620   5.859  0.6075 -0.2334  0.1584
  575MOL0     C77509   2.049   9.745   5.879  0.5984  0.0310 -0.2770
  575MOL0     C77510   2.008   9.792   6.018  1.0247  0.0062  0.6341
  575MOL0     C77511   1.917   9.695   6.106  0.0543 -0.0458  0.0555
  575MOL0     C77512   1.788   9.662   6.039 -0.3743 -0.5484 -0.6272
  575MOL0     C77513   1.701   9.560   6.116  0.1313 -0.2412 -0.5156
  575MOL0     O77514   1.567   9.547   6.068 -0.3931  0.2055 -0.3510
  575MOL0     C77515   1.468   9.616   6.137  0.4481 -0.0531 -0.2782
  575MOL0     C77516   1.460   9.755   6.135  0.5260 -0.0269  0.3878
  575MOL0     C77517   1.356   9.825   6.202  0.3279  0.4894 -0.8222
  575MOL0     C77518   1.346   9.969   6.193 -1.2915  0.3745 -0.1286
  575MOL0     C77519   1.259   9.750   6.285 -0.7608  0.5048 -0.6229
  575MOL0     C77520   1.146   9.809   6.369  0.8271  1.3359  0.1567
  575MOL0     O77521   1.072   9.726   6.451 -0.0703  0.1941 -0.3997
  575MOL0     C77522   0.968   9.781   6.518 -0.2643 -0.3063  0.5668
  575MOL0     C77523   0.853   9.836   6.457  0.0733  0.4903  0.0756
  575MOL0     C77524   0.751   9.886   6.527  0.2317  0.3316 -0.3593
  575MOL0     C77525   0.752   9.885   6.666  0.2832 -0.6465  0.2953
  575MOL0     O77526   0.642   9.952   6.717  0.2867  0.4506 -0.4308
  575MOL0     C77527   0.667  10.040   6.831 -0.2151 -1.2585 -0.9940
  575MOL0     C77528   0.534  10.070   6.891 -1.1875  0.1556  0.9816
  575MOL0     C77529   0.545  10.168   7.012  0.3648  0.2768 -0.1649
  575MOL0     C77530   0.405  10.195   7.065 -0.3311  0.4391  0.3498
  575MOL0     C77531   0.399  10.301   7.177 -0.4612 -1.2942 -0.2191
  575MOL0     C77532   0.476  10.435   7.154  0.0065 -0.1464  0.4401
  575MOL0     C77533   0.419  10.540   7.247 -0.5464  1.0794 -0.2471
  575MOL0     C77534   0.484  10.670   7.200 -0.4638 -0.6260 -0.3120
  575MOL0    Cl77535   0.659  10.688   7.220  0.5692 -0.1241 -0.2538
  575MOL0     C77536   0.863   9.825   6.732 -0.1557 -0.0325 -0.7662
  575MOL0     C77537   0.973   9.771   6.659  0.1192 -0.4075 -0.7676
  575MOL0     O77538   1.129   9.929   6.358 -0.1109 -0.0946  0.3931
  575MOL0     C77539   1.269   9.617   6.281  0.1855  0.3958 -0.4327
  575MOL0     C77540   1.369   9.547   6.211 -0.0199 -0.2459 -0.5647
  575MOL0     N77541   2.054   9.820   5.760 -0.7295 -0.8360 -0.2033
  575MOL0     N77542   2.090   9.737   5.669 -0.6246 -0.2580  0.7353
  575MOL0     C77543   2.446   8.691   5.313  0.3700  0.2854 -0.3701
  575MOL0     C77544   2.488   8.572   5.375 -0.0238 -0.4107  0.5801
  575MOL0     C77545   2.814   8.223   5.333 -0.4513  0.2380  0.6547
  575MOL0     C77546   2.948   8.201   5.368  0.3801 -1.0132 -1.0876
  575MOL0     C77547   3.004   8.069   5.347  0.3985  0.8476  0.8102
  575MOL0     C77548   2.919   7.966   5.303 -0.9975  0.7662 -0.3915
  575MOL0     O77549   2.982   7.853   5.270 -0.3997 -0.9449 -0.0640
  575MOL0     C77550   2.924   7.757   5.179  1.0745 -0.1918  0.5238
  575MOL0     C77551   3.009   7.629   5.161 -0.0023  0.4428  0.4560
  575MOL0     C77552   3.029   7.542   5.278 -0.1586  0.0797 -0.5452
  575MOL0     C77553   3.080   7.403   5.255  0.4804  0.2080  0.5045
  575MOL0     C77554   3.226   7.398   5.232  0.3046 -0.7536  0.3539
  575MOL0     C77555   3.346   7.383   5.205  0.5573  0.5980  0.1110
  575MOL0     C77556   2.788   7.993   5.267 -0.0689  0.3488  0.1907
  575MOL0     C77557   2.732   8.120   5.299  0.8971 -0.2099 -0.1271
  575MOL0     H77558   2.585   8.422   5.073  3.0642  2.5019  0.6412
  575MOL0     H77559   2.475   8.605   4.978 -1.8116 -2.3354  0.1692
  575MOL0     H77560   2.418   8.961   5.257  1.6997  2.2821 -2.8364
  575MOL0     H77561   2.332   9.021   5.108  1.0127 -0.8171 -1.3134
  575MOL0     H77562   2.139   8.912   5.147  1.5154  1.4424 -1.4235
  575MOL0     H77563   2.206   8.849   5.310  1.0874 -0.4885 -0.7446
  575MOL0     H77564   2.127   9.130   5.212 -2.9493 -0.4081 -0.3751
  575MOL0     H77565   2.030   9.035   5.320 -1.4557  1.3687 -3.3142
  575MOL0     H77566   2.250   9.028   5.470  0.5782 -2.0496 -1.4777
  575MOL0     H77567   2.303   9.140   5.347  0.7291 -2.5770 -0.0306
  575MOL0     H77568   2.067   9.257   5.410  1.9117  4.1032  0.2023
  575MOL0     H77569   2.091   9.152   5.556  1.1992 -1.9453 -0.5495
  575MOL0     H77570   2.303   9.288   5.597  0.6198  1.9047  0.3749
  575MOL0     H77571   2.281   9.372   5.446 -0.5011 -1.2335 -0.7196
  575MOL0     H77572   2.052   9.432   5.526 -0.4180 -2.0690  0.0679
  575MOL0     H77573   2.082   9.340   5.669  1.6673  0.0574  0.5086
  575MOL0     H77574   2.262   9.583   5.585 -0.7687  1.2786  0.0908
  575MOL0     H77575   2.293   9.485   5.731 -1.8722 -3.2771  0.4851
  575MOL0     H77576   2.087   9.538   5.930  0.9719 -0.2844  0.1043
  575MOL0     H77577   2.097   9.811   6.079  1.1107  1.5493  0.0773
  575MOL0     H77578   1.962   9.891   6.014  1.8498  0.3658 -0.4739
  575MOL0     H77579   1.903   9.737   6.206 -0.1804  0.2443 -0.0977
  575MOL0     H77580   1.972   9.602   6.128  1.5573 -0.1614 -3.5026
  575MOL0     H77581   1.788   9.635   5.933 -0.7948  2.4707 -1.4924
  575MOL0     H77582   1.730   9.754   6.051  0.7364  0.2177 -0.9598
  575MOL0     H77583   1.704   9.584   6.223  1.8787 -1.9722 -0.1268
  575MOL0     H77584   1.755   9.466   6.111 -0.1509 -0.3821 -0.9326
  575MOL0     H77585   1.529   9.822   6.086 -1.5220  1.7867 -0.1996
  575MOL0     H77586   1.352  10.013   6.293 -1.0510  1.3642 -0.5655
  575MOL0     H77587   1.437  10.001   6.142 -1.1772  1.3934  0.6769
  575MOL0     H77588   1.251   9.995   6.145 -1.4657 -3.2874 -2.1454
  575MOL0     H77589   0.852   9.825   6.349 -1.7218 -0.5745  0.1601
  575MOL0     H77590   0.664   9.921   6.471 -0.8894 -0.6087  0.7699
  575MOL0     H77591   0.734   9.995   6.905 -0.3707  1.5552  1.0069
  575MOL0     H77592   0.709  10.129   6.785  0.1435  0.2358  1.9837
  575MOL0     H77593   0.466  10.118   6.820  0.2943 -1.2401 -1.5610
  575MOL0     H77594   0.495   9.973   6.925 -1.8854 -0.7773 -2.1402
  575MOL0     H77595   0.590  10.261   6.978 -3.1245  2.0325 -0.5062
  575MOL0     H77596   0.600  10.130   7.099 -5.2072 -3.4042  2.3342
  575MOL0     H77597   0.346  10.226   6.978 -0.1951 -0.4475 -0.0764
  575MOL0     H77598   0.365  10.097   7.092 -0.7062  1.1207  2.4250
  575MOL0     H77599   0.436  10.258   7.271 -1.1572  1.1579  1.2699
  575MOL0     H77600   0.292  10.324   7.187 -0.0153 -0.0390  3.2956
  575MOL0     H77601   0.583  10.435   7.173  0.3863 -0.6464 -1.4516
  575MOL0     H77602   0.458  10.477   7.054 -3.3800  0.3378  1.1108
  575MOL0     H77603   0.456  10.519   7.348 -3.5117 -2.0593  0.3835
  575MOL0     H77604   0.311  10.544   7.231 -0.7966  1.6249  1.4313
  575MOL0     H77605   0.444  10.753   7.260 -1.1003 -0.7188 -0.6017
  575MOL0     H77606   0.453  10.694   7.098 -1.5342 -1.0953 -0.1138
  575MOL0     H77607   0.856   9.820   6.840 -3.6620  0.1523 -0.8563
  575MOL0     H77608   1.057   9.722   6.706  1.1865  0.2452 -1.9281
  575MOL0     H77609   1.198   9.556   6.335 -0.6751  2.5976  1.1141
  575MOL0     H77610   1.362   9.439   6.225  0.2703 -0.1249  0.6249
  575MOL0     H77611   2.400   8.769   5.374 -2.0454  0.1077 -1.8307
  575MOL0     H77612   2.501   8.567   5.483  0.6928 -0.3200  0.5039
  575MOL0     H77613   2.995   8.291   5.407 -0.7343 -0.4243 -1.0560
  575MOL0     H77614   3.109   8.050   5.367  1.4640  3.1797 -1.8477
  575MOL0     H77615   2.820   7.736   5.205  0.8342  0.1659 -0.1282
  575MOL0     H77616   2.914   7.799   5.078  0.8759 -0.8437  0.2720
  575MOL0     H77617   3.112   7.654   5.133 -0.0308  1.7843  1.4210
  575MOL0     H77618   2.968   7.573   5.077 -0.7215  1.2158  0.2788
  575MOL0     H77619   2.934   7.539   5.332  0.0332 -1.3414 -0.2318
  575MOL0     H77620   3.103   7.575   5.351  2.6610 -2.3231 -2.0883
  575MOL0     H77621   3.035   7.353   5.169  1.0515 -0.7407  0.7450
  575MOL0     H77622   3.063   7.343   5.345 -1.8433 -0.1903 -0.1260
  575MOL0     H77623   3.449   7.358   5.184  0.0162 -1.7333 -0.0464
  575MOL0     H77624   2.726   7.916   5.223  2.1888 -2.3498  1.3977
  575MOL0     H77625   2.625   8.133   5.292  0.0864 -3.9059  2.3227
  576MOL0     O77626   2.501   3.855   4.183  0.4216 -0.6300  0.7717
  576MOL0     C77627   2.502   3.851   4.308 -0.5212  0.2302 -0.6665
  576MOL0     O77628   2.403   3.856   4.391  0.4262  0.1501 -0.5872
  576MOL0     C77629   2.273   3.847   4.347  0.1605 -0.1497 -0.9396
  576MOL0     C77630   2.226   3.724   4.301 -0.0992 -0.0607 -0.3105
  576MOL0     C77631   2.082   3.701   4.277  0.1769  0.1751  0.3294
  576MOL0     C77632   1.993   3.804   4.311  0.8975 -0.3119 -0.3543
  576MOL0     O77633   1.857   3.792   4.302  0.1270  0.0869 -0.0666
  576MOL0     C77634   1.813   3.654   4.316  0.3145 -0.1767 -0.4834
  576MOL0     C77635   1.654   3.645   4.323  0.0785 -0.5557  0.3061
  576MOL0     C77636   1.583   3.701   4.201  0.5371 -0.1225  0.3601
  576MOL0     C77637   1.566   3.602   4.085 -0.4076  0.6753  0.1116
  576MOL0     C77638   1.697   3.580   4.012  0.7648 -0.3860 -0.7136
  576MOL0     C77639   1.650   3.530   3.866  0.6809  0.0121 -0.3227
  576MOL0     C77640   1.780   3.514   3.779 -0.1919 -0.3294 -1.2191
  576MOL0     C77641   1.746   3.511   3.631  0.0443 -0.1602 -0.6736
  576MOL0     N77642   1.855   3.456   3.563 -0.0114 -0.1364  0.2630
  576MOL0     C77643   1.968   3.519   3.538 -0.5838 -0.1450  0.6170
  576MOL0     C77644   2.048   3.422   3.494  0.0150  0.2247 -0.7511
  576MOL0     C77645   2.188   3.432   3.446 -0.9292  0.0749 -0.4988
  576MOL0     C77646   2.225   3.352   3.324 -0.0615  0.6383  0.2442
  576MOL0     C77647   2.171   3.417   3.202 -0.5677 -0.0619  0.1265
  576MOL0     C77648   2.248   3.535   3.141 -0.2601 -0.3636  0.1799
  576MOL0     O77649   2.274   3.660   3.206 -0.6928  0.2234  0.4177
  576MOL0     C77650   2.174   3.735   3.255  0.6501 -0.5435 -0.5153
  576MOL0     C77651   2.168   3.795   3.384 -0.0660 -0.8086  0.2041
  576MOL0     C77652   2.056   3.872   3.434 -1.1068 -1.2796  0.2696
  576MOL0     C77653   2.065   3.929   3.577 -0.0119  0.0348 -0.1632
  576MOL0     C77654   1.942   3.894   3.355  0.0585  0.2096 -0.2713
  576MOL0     C77655   1.813   3.950   3.398 -0.2549  0.0515 -0.6670
  576MOL0     O77656   1.785   4.076   3.339  0.5531 -0.2403  0.0306
  576MOL0     C77657   1.672   4.136   3.382  0.9613 -0.3706  0.6549
  576MOL0     C77658   1.551   4.092   3.320  0.0947 -0.1085 -0.2182
  576MOL0     C77659   1.430   4.155   3.367  0.0398  1.2564 -0.3993
  576MOL0     C77660   1.428   4.245   3.473 -0.3139 -0.4202 -0.6032
  576MOL0     O77661   1.313   4.311   3.534 -0.7654  0.4036  0.2460
  576MOL0     C77662   1.199   4.234   3.546  0.8993  1.4217 -0.3943
  576MOL0     C77663   1.117   4.283   3.667 -0.0166 -0.8640  0.2501
  576MOL0     C77664   0.989   4.199   3.670  0.7773 -0.4462  0.2603
  576MOL0     C77665   0.917   4.251   3.796 -0.7272  0.6871  1.0918
  576MOL0     C77666   0.770   4.213   3.808 -0.7451 -0.7636  0.0799
  576MOL0     C77667   0.734   4.068   3.794  0.7855  0.1095  0.0995
  576MOL0     C77668   0.622   4.022   3.898 -0.1781 -0.1701  0.1111
  576MOL0     C77669   0.669   3.925   4.004  0.8570  0.0897 -0.2663
  576MOL0    Cl77670   0.724   3.776   3.914  0.2751  0.4051  0.1377
  576MOL0     C77671   1.550   4.292   3.518 -0.0325  0.2589 -0.1824
  576MOL0     C77672   1.670   4.243   3.471 -0.0767  0.3439  0.4665
  576MOL0     O77673   1.738   3.879   3.467  0.1132  0.3655  0.3544
  576MOL0     C77674   1.948   3.835   3.229 -1.0814  0.1616 -0.6490
  576MOL0     C77675   2.057   3.756   3.181  0.4165 -1.0146  0.0759
  576MOL0     N77676   1.985   3.296   3.503  1.0327 -0.2769 -0.2838
  576MOL0     N77677   1.871   3.320   3.551  0.2424  0.1944 -0.1305
  576MOL0     C77678   2.048   3.929   4.346 -0.5751  0.1889 -0.0023
  576MOL0     C77679   2.183   3.948   4.370 -0.4486 -0.3806  0.1587
  576MOL0     C77680   2.636   3.848   4.364  0.2945 -1.1773 -0.1109
  576MOL0     C77681   2.665   3.765   4.468  0.0734  0.1649  0.1882
  576MOL0     C77682   2.795   3.755   4.505 -0.1034 -0.0418 -0.4516
  576MOL0     C77683   2.898   3.828   4.439 -0.4402 -0.7284 -0.2174
  576MOL0     O77684   3.026   3.823   4.494 -0.2923  0.0231 -0.0682
  576MOL0     C77685   3.097   3.693   4.488  0.4184 -0.7975 -0.4282
  576MOL0     C77686   3.248   3.703   4.534 -0.0269 -0.3811 -0.6896
  576MOL0     C77687   3.320   3.570   4.560 -0.8114 -0.0648  0.0096
  576MOL0     C77688   3.467   3.572   4.519  0.0864 -0.4246  0.7079
  576MOL0     C77689   3.489   3.604   4.371  0.6098  0.2097  1.3821
  576MOL0     C77690   3.507   3.638   4.253  0.2676 -0.0616 -0.3970
  576MOL0     C77691   2.874   3.920   4.343  0.4050  0.3351 -0.1956
  576MOL0     C77692   2.741   3.929   4.306 -0.1613  0.4751 -0.0950
  576MOL0     H77693   2.295   3.644   4.276  1.9001  1.5056 -0.0833
  576MOL0     H77694   2.050   3.611   4.225  1.7856  1.2709 -2.7623
  576MOL0     H77695   1.848   3.594   4.232 -0.3656 -0.7972 -0.3326
  576MOL0     H77696   1.854   3.628   4.414 -1.9268 -0.2728  0.4881
  576MOL0     H77697   1.636   3.538   4.309  1.1743 -0.6115 -0.7587
  576MOL0     H77698   1.628   3.689   4.420  2.9839  1.2045  0.4040
  576MOL0     H77699   1.478   3.718   4.229 -0.0058  0.1738 -1.7110
  576MOL0     H77700   1.624   3.800   4.179  2.7098 -1.1341 -0.4597
  576MOL0     H77701   1.524   3.506   4.118  0.9566 -1.2993 -3.3029
  576MOL0     H77702   1.492   3.646   4.017 -0.8240 -1.4957 -0.9631
  576MOL0     H77703   1.757   3.671   4.019 -0.2171  0.1389  2.5808
  576MOL0     H77704   1.759   3.507   4.064  1.8466  1.2426  0.3480
  576MOL0     H77705   1.600   3.433   3.871 -0.0807  0.3424 -1.1267
  576MOL0     H77706   1.586   3.607   3.822  2.2959  0.8998 -1.2373
  576MOL0     H77707   1.844   3.600   3.798  1.7950 -2.0462  0.2773
  576MOL0     H77708   1.825   3.421   3.814  0.5213 -0.9424 -3.6255
  576MOL0     H77709   1.728   3.614   3.599  1.9798  0.6621  0.6835
  576MOL0     H77710   1.663   3.443   3.610 -0.3201  0.1048 -0.1083
  576MOL0     H77711   1.981   3.625   3.524 -1.0994  0.0316  1.4352
  576MOL0     H77712   2.222   3.535   3.434  3.8888 -1.3504 -1.1251
  576MOL0     H77713   2.252   3.393   3.526 -2.7803 -0.9734  0.5310
  576MOL0     H77714   2.175   3.257   3.344  0.4889  0.3132  0.0988
  576MOL0     H77715   2.332   3.328   3.323  0.0490  1.1289 -0.5833
  576MOL0     H77716   2.074   3.459   3.231 -1.0073 -0.1949 -1.0908
  576MOL0     H77717   2.163   3.339   3.126 -1.0515 -0.5214  0.6345
  576MOL0     H77718   2.215   3.550   3.038  1.6361 -0.7117 -0.5206
  576MOL0     H77719   2.350   3.504   3.117 -1.0257 -1.3966 -2.0164
  576MOL0     H77720   2.254   3.787   3.449 -0.1916  2.5411  0.9323
  576MOL0     H77721   1.987   3.890   3.642  0.6237  0.2104  0.7284
  576MOL0     H77722   2.166   3.906   3.614  0.7185  1.3200 -1.2445
  576MOL0     H77723   2.058   4.038   3.565  0.9188  0.1692  0.3776
  576MOL0     H77724   1.557   4.012   3.248 -0.6822  1.0207 -1.6002
  576MOL0     H77725   1.337   4.117   3.326 -0.7451  0.8178  1.6599
  576MOL0     H77726   1.143   4.222   3.453  1.9935  0.3826 -0.9401
  576MOL0     H77727   1.221   4.128   3.564  2.3055  1.3314 -2.3324
  576MOL0     H77728   1.185   4.282   3.753 -1.7422 -1.9978  1.6874
  576MOL0     H77729   1.093   4.389   3.656  1.8991 -0.4319 -0.1727
  576MOL0     H77730   1.000   4.092   3.690 -0.4644 -1.0589 -1.9718
  576MOL0     H77731   0.927   4.208   3.580 -3.4502 -0.3014  2.8703
  576MOL0     H77732   0.967   4.215   3.887 -1.7426 -0.9242  1.0628
  576MOL0     H77733   0.924   4.360   3.795  0.6291  0.6174  1.0661
  576MOL0     H77734   0.702   4.266   3.741 -0.4739 -4.1847 -3.2424
  576MOL0     H77735   0.748   4.234   3.913  1.7662 -1.3844  0.7945
  576MOL0     H77736   0.691   4.030   3.701  1.5070 -0.0459 -0.1776
  576MOL0     H77737   0.830   4.016   3.804  0.0356 -1.1443  1.2939
  576MOL0     H77738   0.547   3.970   3.837 -1.6809  2.1382 -0.1578
  576MOL0     H77739   0.571   4.101   3.955 -0.4762 -1.5481  1.8403
  576MOL0     H77740   0.597   3.897   4.082  1.6057 -0.1804  0.3352
  576MOL0     H77741   0.749   3.975   4.060  1.2078 -1.9405  1.1656
  576MOL0     H77742   1.552   4.367   3.597  1.0922 -1.2699  1.3201
  576MOL0     H77743   1.759   4.292   3.509  0.4569 -0.0935 -0.1888
  576MOL0     H77744   1.862   3.834   3.162 -2.2332 -1.9971  0.7386
  576MOL0     H77745   2.047   3.727   3.077  0.3235  0.9022 -0.4921
  576MOL0     H77746   1.976   3.993   4.397  0.7976 -0.0067  2.3341
  576MOL0     H77747   2.215   4.028   4.436 -0.9437 -0.5011  0.5497
  576MOL0     H77748   2.583   3.716   4.520 -0.8242  2.8658  1.5106
  576MOL0     H77749   2.821   3.687   4.585  1.0133  1.8650  0.8890
  576MOL0     H77750   3.040   3.619   4.544 -0.9006 -1.7893 -2.9246
  576MOL0     H77751   3.107   3.663   4.383 -2.4894 -0.6075 -0.8282
  576MOL0     H77752   3.256   3.771   4.619 -2.4600 -0.5826 -0.2490
  576MOL0     H77753   3.298   3.766   4.460  0.3985  2.9507  2.1867
  576MOL0     H77754   3.269   3.493   4.501  0.0735 -1.2471  0.7593
  576MOL0     H77755   3.305   3.548   4.666  0.1165 -0.8782 -0.0174
  576MOL0     H77756   3.516   3.478   4.547  2.4216 -0.0204 -1.6273
  576MOL0     H77757   3.525   3.644   4.578 -0.6785  0.3296  0.5678
  576MOL0     H77758   3.496   3.672   4.152 -0.2347 -0.2159 -0.3946
  576MOL0     H77759   2.953   3.979   4.299  2.9502 -1.9858  0.9904
  576MOL0     H77760   2.715   3.999   4.227  0.2517  2.7447  1.6735
  577MOL0     O77761   3.768   5.928   6.616 -0.3386 -0.0599  0.2548
  577MOL0     C77762   3.764   5.973   6.729 -0.4155  0.0463 -0.1092
  577MOL0     O77763   3.654   5.968   6.811 -0.1086 -0.4017  0.3813
  577MOL0     C77764   3.538   5.918   6.761  0.8230  0.4075  0.6816
  577MOL0     C77765   3.536   5.810   6.675 -0.3282  0.8037  0.6475
  577MOL0     C77766   3.414   5.755   6.623  0.1625  0.3456  0.8949
  577MOL0     C77767   3.291   5.820   6.659 -0.9120 -0.3768  0.4010
  577MOL0     O77768   3.179   5.770   6.596  0.4473 -0.1064 -0.8804
  577MOL0     C77769   3.057   5.812   6.647  0.7827 -0.4378 -0.1063
  577MOL0     C77770   2.932   5.758   6.582  0.5324  1.2386 -0.4635
  577MOL0     C77771   2.887   5.839   6.459 -0.2295  1.5428 -0.2210
  577MOL0     C77772   2.768   5.766   6.396  0.0690  0.4460  1.0701
  577MOL0     C77773   2.703   5.851   6.278  0.2795  0.1058  0.3519
  577MOL0     C77774   2.766   5.831   6.138 -0.3480  0.2248 -1.1059
  577MOL0     C77775   2.687   5.906   6.031 -0.9853 -0.3822  0.5583
  577MOL0     C77776   2.546   5.852   6.012 -0.0630 -0.4090  0.2710
  577MOL0     N77777   2.567   5.732   5.921 -0.0290 -0.0969  0.0165
  577MOL0     C77778   2.615   5.613   5.953  1.2211 -0.1610 -0.4198
  577MOL0     C77779   2.636   5.547   5.840  0.3379 -0.3028  0.4198
  577MOL0     C77780   2.711   5.416   5.835 -0.0162  0.5130  0.5645
  577MOL0     C77781   2.854   5.431   5.877  0.7968 -0.7871 -0.0437
  577MOL0     C77782   2.911   5.294   5.868  0.0317 -0.0641  0.6307
  577MOL0     C77783   2.988   5.293   5.727  0.3976 -0.0015 -0.5933
  577MOL0     O77784   3.121   5.350   5.745  0.6867  1.0441 -0.1657
  577MOL0     C77785   3.211   5.291   5.823 -0.2713 -0.3891 -0.7460
  577MOL0     C77786   3.210   5.155   5.863  0.2040  0.8784 -0.3069
  577MOL0     C77787   3.316   5.094   5.923  1.0438 -0.8806 -0.6909
  577MOL0     C77788   3.310   4.953   5.976 -0.0606 -0.2022  0.1509
  577MOL0     C77789   3.433   5.181   5.952  0.6011 -0.4128 -0.0773
  577MOL0     C77790   3.557   5.134   6.022 -0.3100 -0.2221  1.2380
  577MOL0     O77791   3.680   5.166   5.977  0.2909  0.1005 -0.2361
  577MOL0     C77792   3.781   5.074   6.005 -0.6417  0.0218 -1.0701
  577MOL0     C77793   3.911   5.121   6.025 -0.0338  0.1893 -0.5176
  577MOL0     C77794   4.019   5.034   6.048 -0.4068 -0.8757  0.0420
  577MOL0     C77795   4.000   4.898   6.045  0.3099  0.7409  0.1785
  577MOL0     O77796   4.120   4.819   6.055 -0.0590  0.0941 -0.5960
  577MOL0     C77797   4.107   4.682   6.092  0.5217  0.6349 -0.7136
  577MOL0     C77798   4.235   4.610   6.124  0.3641 -0.0146 -0.1642
  577MOL0     C77799   4.297   4.546   5.994  0.7917 -0.6301 -0.6648
  577MOL0     C77800   4.427   4.466   6.017 -0.5120 -0.2602 -0.6372
  577MOL0     C77801   4.554   4.522   5.949  0.0855 -1.3315 -0.0691
  577MOL0     C77802   4.676   4.464   6.016  0.9506 -0.2719  0.0562
  577MOL0     C77803   4.803   4.539   5.973  0.3978 -0.1627  0.1206
  577MOL0     C77804   4.942   4.484   6.017  0.1786  0.7444  0.1405
  577MOL0    Cl77805   5.061   4.612   5.972 -0.2959 -0.1257 -0.1195
  577MOL0     C77806   3.867   4.847   6.009  0.2380 -0.8606  0.2348
  577MOL0     C77807   3.757   4.938   5.999  0.1175  0.2080 -0.5571
  577MOL0     O77808   3.534   5.085   6.129  0.7085  0.7218 -0.1328
  577MOL0     C77809   3.432   5.316   5.909  0.7215 -0.1410 -0.3432
  577MOL0     C77810   3.325   5.361   5.844  0.1661 -0.0498 -0.4854
  577MOL0     N77811   2.608   5.632   5.735  0.6949 -0.5002  0.2494
  577MOL0     N77812   2.570   5.744   5.788 -1.5848  0.2345  0.3195
  577MOL0     C77813   3.297   5.934   6.738  0.0080  0.0444 -0.3504
  577MOL0     C77814   3.418   5.975   6.793 -0.2460 -0.8619 -0.7924
  577MOL0     C77815   3.890   6.037   6.770  0.1597  0.3590 -0.3511
  577MOL0     C77816   3.897   6.106   6.891 -0.5695  0.0465 -1.1285
  577MOL0     C77817   4.004   6.194   6.930 -0.6352  0.0338  0.3182
  577MOL0     C77818   4.112   6.206   6.840  0.9715 -0.1683  0.0548
  577MOL0     O77819   4.221   6.284   6.858  0.7063 -0.0880 -0.4621
  577MOL0     C77820   4.261   6.320   6.992 -0.5415 -0.0684 -0.8303
  577MOL0     C77821   4.394   6.397   7.011  0.2789  0.6639 -0.3109
  577MOL0     C77822   4.364   6.551   7.015  0.3055  0.3498 -0.5980
  577MOL0     C77823   4.481   6.644   7.015 -0.2612  0.2516  0.5385
  577MOL0     C77824   4.569   6.608   7.134  0.5364  0.6662 -0.4168
  577MOL0     C77825   4.635   6.582   7.231 -0.3991 -0.0254  0.0411
  577MOL0     C77826   4.114   6.123   6.724  0.0966  0.3558  0.0724
  577MOL0     C77827   4.007   6.042   6.687 -0.4269 -1.0145 -0.1057
  577MOL0     H77828   3.629   5.756   6.668 -1.2184 -0.5919 -1.2895
  577MOL0     H77829   3.410   5.664   6.564 -0.8525  0.8036  0.2246
  577MOL0     H77830   3.056   5.776   6.750  3.7631 -1.4466 -0.3318
  577MOL0     H77831   3.053   5.921   6.645  0.7622 -0.3862 -3.6133
  577MOL0     H77832   2.945   5.650   6.569 -0.2145  1.0531  0.2069
  577MOL0     H77833   2.868   5.765   6.671  3.1105 -0.6357  1.7260
  577MOL0     H77834   2.850   5.936   6.493 -1.9864  0.5367  0.9237
  577MOL0     H77835   2.961   5.847   6.379 -0.6564  0.2058 -0.7951
  577MOL0     H77836   2.797   5.669   6.355  4.1908  1.7696  0.3835
  577MOL0     H77837   2.692   5.741   6.470  0.1296 -2.5051  0.2565
  577MOL0     H77838   2.598   5.823   6.284  1.0266 -3.7139 -1.5280
  577MOL0     H77839   2.714   5.958   6.300 -0.1769  0.1739  0.2494
  577MOL0     H77840   2.867   5.873   6.140 -0.2897  0.0696 -0.4127
  577MOL0     H77841   2.779   5.723   6.129 -0.2313 -0.1699  2.3513
  577MOL0     H77842   2.687   6.013   6.054 -3.2324 -0.2939  0.3585
  577MOL0     H77843   2.727   5.910   5.929 -2.4857  0.7281 -0.0233
  577MOL0     H77844   2.479   5.928   5.972 -1.1687 -0.7826  1.3445
  577MOL0     H77845   2.499   5.826   6.108  1.3998 -0.2799  1.0603
  577MOL0     H77846   2.627   5.574   6.054  0.7649  2.5203  0.7562
  577MOL0     H77847   2.658   5.356   5.910  1.1173 -0.9879  0.2170
  577MOL0     H77848   2.699   5.378   5.733  1.4494 -1.1507  0.9604
  577MOL0     H77849   2.852   5.463   5.981 -0.0711  0.4494 -0.4167
  577MOL0     H77850   2.909   5.506   5.819  1.9820 -1.6116 -0.0345
  577MOL0     H77851   2.834   5.217   5.872  0.9302 -1.1080 -1.1021
  577MOL0     H77852   2.988   5.280   5.945 -0.4191 -2.1395  0.7548
  577MOL0     H77853   2.932   5.350   5.652 -0.8383  0.7533  0.8324
  577MOL0     H77854   2.988   5.190   5.692 -2.0497  0.0900 -1.0355
  577MOL0     H77855   3.121   5.095   5.847 -0.8998  2.3648  0.0910
  577MOL0     H77856   3.251   4.892   5.907  0.2066  0.1159 -0.3612
  577MOL0     H77857   3.413   4.917   5.978  0.9525  2.4638  1.7177
  577MOL0     H77858   3.265   4.937   6.075  0.4661 -0.7975  0.2992
  577MOL0     H77859   3.942   5.225   6.019  2.4210 -0.3979  0.4729
  577MOL0     H77860   4.120   5.070   6.067 -1.4876  2.5229  0.0208
  577MOL0     H77861   4.037   4.669   6.176  2.9782 -1.5473  1.1417
  577MOL0     H77862   4.061   4.624   6.012  2.5938 -0.5754 -1.0931
  577MOL0     H77863   4.305   4.681   6.169 -1.5945  0.9548  1.5910
  577MOL0     H77864   4.211   4.527   6.192 -2.7277  1.4272  0.7145
  577MOL0     H77865   4.317   4.626   5.922 -0.3775  0.5166  0.2440
  577MOL0     H77866   4.212   4.488   5.957  0.4639 -0.8816  0.4493
  577MOL0     H77867   4.442   4.457   6.125 -0.5014  0.8667 -0.5295
  577MOL0     H77868   4.413   4.365   5.977 -1.0358 -0.6535  0.5108
  577MOL0     H77869   4.563   4.629   5.967  3.0309 -1.7010  1.1928
  577MOL0     H77870   4.549   4.502   5.842  0.4325 -0.9861 -0.1500
  577MOL0     H77871   4.656   4.473   6.123 -2.1742 -2.9479 -0.1422
  577MOL0     H77872   4.680   4.356   5.999 -2.8070 -0.5610  0.0634
  577MOL0     H77873   4.799   4.635   6.024  2.4115  0.2679 -0.4418
  577MOL0     H77874   4.785   4.545   5.865 -4.2137 -0.4638  0.6713
  577MOL0     H77875   4.960   4.388   5.969 -0.3180  1.1579 -0.9100
  577MOL0     H77876   4.952   4.464   6.124  2.1263 -2.0615 -0.4564
  577MOL0     H77877   3.851   4.742   5.991 -3.5463 -0.6772  1.6062
  577MOL0     H77878   3.656   4.910   5.969 -0.8223  3.4804 -0.8520
  577MOL0     H77879   3.509   5.382   5.946  0.9618  0.6829 -2.1963
  577MOL0     H77880   3.326   5.468   5.824 -1.6404  0.0067 -0.4246
  577MOL0     H77881   3.217   5.996   6.778  0.2458 -1.5051  2.8839
  577MOL0     H77882   3.413   6.067   6.851  1.8606 -2.3982  2.1004
  577MOL0     H77883   3.820   6.104   6.968  2.2741 -0.1493  1.9377
  577MOL0     H77884   3.994   6.252   7.021  0.1579  0.2355  0.2852
  577MOL0     H77885   4.178   6.368   7.043  0.0830  2.3006 -1.9187
  577MOL0     H77886   4.276   6.222   7.039 -4.5313 -1.0614 -1.2526
  577MOL0     H77887   4.475   6.371   6.942  1.4780  1.6988  0.6710
  577MOL0     H77888   4.421   6.380   7.116 -1.9986  2.7163  0.7192
  577MOL0     H77889   4.289   6.575   7.091 -3.2125 -3.5613 -2.3795
  577MOL0     H77890   4.313   6.581   6.923  2.1210  1.6604 -1.2296
  577MOL0     H77891   4.435   6.742   7.032  0.8311  1.3868 -2.3264
  577MOL0     H77892   4.539   6.654   6.922  1.0085 -0.5142  1.2249
  577MOL0     H77893   4.700   6.589   7.315 -0.0452 -0.4207 -0.1992
  577MOL0     H77894   4.202   6.117   6.662 -1.4789 -2.4599 -2.1156
  577MOL0     H77895   4.009   5.989   6.592  0.8541  1.8368 -1.7950
  578MOL0     O77896   2.020   1.463   7.611 -0.6350 -0.7910  0.2286
  578MOL0     C77897   1.980   1.401   7.516 -0.1247 -0.3224 -1.2844
  578MOL0     O77898   2.032   1.412   7.380  0.2759  0.2917  0.1189
  578MOL0     C77899   2.116   1.516   7.360 -0.5554  0.2736  0.2250
  578MOL0     C77900   2.248   1.514   7.407  0.4874  0.7543 -1.3009
  578MOL0     C77901   2.344   1.605   7.377  0.2788  0.1568  0.1710
  578MOL0     C77902   2.324   1.704   7.284  0.4838  0.0285 -0.8844
  578MOL0     O77903   2.421   1.802   7.268 -0.2327 -0.5281 -0.1868
  578MOL0     C77904   2.409   1.910   7.175 -0.1251  0.0740 -0.2921
  578MOL0     C77905   2.326   2.033   7.215 -1.0735 -0.5320 -0.1506
  578MOL0     C77906   2.244   2.090   7.099  0.2369 -0.1823 -0.1933
  578MOL0     C77907   2.318   2.141   6.973 -0.0616  1.2091  0.7605
  578MOL0     C77908   2.255   2.160   6.829 -0.1559  0.1373 -0.2347
  578MOL0     C77909   2.361   2.231   6.736 -0.6077 -1.4902 -0.4219
  578MOL0     C77910   2.371   2.202   6.589  0.3755 -0.5232 -0.3940
  578MOL0     C77911   2.262   2.258   6.507  1.0337  0.5713 -0.4436
  578MOL0     N77912   2.134   2.205   6.539  1.2457  0.1953  0.3774
  578MOL0     C77913   2.026   2.282   6.575 -0.9094  0.1480 -0.1942
  578MOL0     C77914   1.920   2.194   6.589  0.3325  0.3553  0.1070
  578MOL0     C77915   1.775   2.227   6.624  0.0426  0.4755 -0.0800
  578MOL0     C77916   1.673   2.190   6.517  1.1345  0.1813  0.7948
  578MOL0     C77917   1.678   2.278   6.390 -0.1490  0.7118  0.0532
  578MOL0     C77918   1.552   2.273   6.315 -0.4005  0.6184  0.1040
  578MOL0     O77919   1.552   2.167   6.211 -0.2767 -0.0159 -0.2460
  578MOL0     C77920   1.437   2.148   6.135 -0.8255  0.5541 -0.1614
  578MOL0     C77921   1.448   2.063   6.029  0.4441  0.3595  0.2741
  578MOL0     C77922   1.336   2.033   5.941 -1.1599 -0.0800 -0.9256
  578MOL0     C77923   1.362   1.929   5.838  0.5233  0.0305  0.5766
  578MOL0     C77924   1.216   2.106   5.955  0.5703 -0.3589  0.2871
  578MOL0     C77925   1.100   2.094   5.861 -0.0357  0.0199 -0.2205
  578MOL0     O77926   1.131   2.112   5.731  0.4275  0.1262 -0.1531
  578MOL0     C77927   1.045   2.070   5.633 -0.4427 -0.3604  0.3842
  578MOL0     C77928   1.109   1.985   5.538  0.6305 -0.5008  0.7799
  578MOL0     C77929   1.039   1.927   5.429 -0.2276  0.3418  0.3300
  578MOL0     C77930   0.908   1.967   5.400 -0.5446 -0.0666 -0.8335
  578MOL0     O77931   0.838   1.928   5.291 -0.0488  0.2943  0.4059
  578MOL0     C77932   0.907   1.926   5.166 -1.0789 -0.2774  0.5887
  578MOL0     C77933   0.802   1.909   5.063  0.0746  0.6297 -0.2815
  578MOL0     C77934   0.703   1.795   5.093 -0.2498  0.6773  0.6023
  578MOL0     C77935   0.766   1.662   5.109  0.0764 -0.4749 -0.1271
  578MOL0     C77936   0.651   1.549   5.127 -0.8109 -0.2475  0.5670
  578MOL0     C77937   0.589   1.550   5.273  0.6226 -0.1464  0.5852
  578MOL0     C77938   0.443   1.545   5.268 -0.1791 -0.5615  0.0887
  578MOL0     C77939   0.376   1.509   5.396  0.0020 -0.1877 -0.1118
  578MOL0    Cl77940   0.413   1.333   5.436  0.0665 -0.4639  0.2170
  578MOL0     C77941   0.853   2.060   5.484  0.7037  0.2770  0.2691
  578MOL0     C77942   0.917   2.110   5.603 -0.0934 -1.0940  1.0224
  578MOL0     O77943   0.986   2.086   5.907  0.8103  0.2893 -0.0772
  578MOL0     C77944   1.207   2.186   6.070  0.1677  0.4296 -0.0318
  578MOL0     C77945   1.319   2.210   6.154 -0.4533  0.7920  0.2292
  578MOL0     N77946   1.965   2.067   6.568  0.0214  0.4167  0.4584
  578MOL0     N77947   2.095   2.078   6.539  0.5015  0.6056 -0.2591
  578MOL0     C77948   2.194   1.703   7.221 -0.0437 -0.0166 -0.9147
  578MOL0     C77949   2.101   1.608   7.258  0.2697  0.7242 -0.1019
  578MOL0     C77950   1.882   1.289   7.534  0.4193  1.1361 -0.1027
  578MOL0     C77951   1.804   1.235   7.431  1.0631 -0.0850  0.0062
  578MOL0     C77952   1.710   1.125   7.441 -0.3155 -1.1589  0.7537
  578MOL0     C77953   1.688   1.074   7.566 -0.4413  0.7888 -0.5403
  578MOL0     O77954   1.598   0.963   7.568 -0.1754  0.4238 -0.0578
  578MOL0     C77955   1.546   0.930   7.695 -0.4350 -0.1552  0.1326
  578MOL0     C77956   1.421   1.021   7.726 -0.6980  0.6839 -0.1815
  578MOL0     C77957   1.349   0.992   7.861  0.3480  0.1081  1.5672
  578MOL0     C77958   1.294   0.852   7.877  0.2213 -0.1985  0.4642
  578MOL0     C77959   1.201   0.828   7.988  0.5623  0.0146 -0.0637
  578MOL0     C77960   1.115   0.817   8.070  0.7978 -0.4593  0.3016
  578MOL0     C77961   1.771   1.117   7.672 -0.3842  0.2285 -0.2666
  578MOL0     C77962   1.862   1.230   7.660  0.5087  0.5756 -0.2106
  578MOL0     H77963   2.272   1.431   7.473  4.3228  2.5938 -0.0573
  578MOL0     H77964   2.447   1.600   7.413 -0.4832 -0.0662  2.4523
  578MOL0     H77965   2.505   1.955   7.150  1.4729 -0.3803  4.1447
  578MOL0     H77966   2.363   1.864   7.087  1.8253 -2.6600  0.0015
  578MOL0     H77967   2.259   1.995   7.292 -3.0549 -0.4344 -1.7459
  578MOL0     H77968   2.380   2.111   7.269  2.4225 -3.1139  0.4004
  578MOL0     H77969   2.179   2.006   7.073 -0.8535  0.6539 -0.2650
  578MOL0     H77970   2.184   2.173   7.138 -2.1522 -1.5624 -0.7397
  578MOL0     H77971   2.380   2.226   7.001  0.5128  1.3161 -0.7510
  578MOL0     H77972   2.399   2.068   6.962  0.4397  1.8917 -0.3461
  578MOL0     H77973   2.233   2.059   6.793  0.7245  0.1066 -0.7217
  578MOL0     H77974   2.164   2.220   6.835  0.1821  0.7066 -0.6803
  578MOL0     H77975   2.347   2.340   6.741  2.7716 -0.8970 -0.8215
  578MOL0     H77976   2.459   2.207   6.779  0.0165  0.0606 -0.8736
  578MOL0     H77977   2.463   2.238   6.541 -0.1822 -0.5259 -1.5028
  578MOL0     H77978   2.369   2.094   6.576 -2.0345 -1.1435  3.6636
  578MOL0     H77979   2.283   2.218   6.407 -0.5049  0.9311 -0.9363
  578MOL0     H77980   2.260   2.367   6.513 -0.5960  0.9908 -4.7068
  578MOL0     H77981   2.026   2.390   6.590  0.7002  0.4230 -1.8764
  578MOL0     H77982   1.740   2.190   6.721  3.4556  2.9047  2.3174
  578MOL0     H77983   1.769   2.336   6.632 -1.3473  0.4490 -0.4407
  578MOL0     H77984   1.569   2.187   6.549  0.0602 -0.8829 -2.4666
  578MOL0     H77985   1.696   2.087   6.490  1.3549  0.6275 -0.8416
  578MOL0     H77986   1.756   2.236   6.326  1.1333  0.6258  1.6049
  578MOL0     H77987   1.697   2.381   6.421 -3.9081  1.9565 -1.2925
  578MOL0     H77988   1.535   2.374   6.275  2.6422  1.4557  0.6576
  578MOL0     H77989   1.472   2.253   6.386  0.3042  0.6570  0.9210
  578MOL0     H77990   1.544   2.013   6.014 -0.6894 -1.3455 -2.0742
  578MOL0     H77991   1.275   1.868   5.813  0.2482  0.7119 -0.1835
  578MOL0     H77992   1.397   1.984   5.751  1.8136  0.9694  1.6374
  578MOL0     H77993   1.443   1.858   5.856  0.5253  0.5095  2.7787
  578MOL0     H77994   1.211   1.949   5.550  0.4239 -1.6098 -0.5961
  578MOL0     H77995   1.097   1.863   5.364 -2.1736  0.0380 -1.2150
  578MOL0     H77996   0.974   2.007   5.137  1.4157 -2.4559 -0.0917
  578MOL0     H77997   0.976   1.842   5.176  0.5872  1.1500  1.8063
  578MOL0     H77998   0.742   1.996   5.033 -1.2076  0.4887  1.6420
  578MOL0     H77999   0.859   1.894   4.971 -0.7339  0.8621 -0.8306
  578MOL0     H78000   0.629   1.792   5.013  2.2913  0.3909 -1.8762
  578MOL0     H78001   0.662   1.820   5.191  1.1497 -1.4444  1.8117
  578MOL0     H78002   0.814   1.640   5.013 -0.0704  3.3179 -1.2063
  578MOL0     H78003   0.830   1.674   5.197 -0.4789  0.1999  0.2001
  578MOL0     H78004   0.694   1.450   5.113  1.1173  0.5598  0.5003
  578MOL0     H78005   0.574   1.568   5.052 -2.7457 -1.9287  2.0124
  578MOL0     H78006   0.627   1.469   5.336  2.5487 -0.2423 -0.6367
  578MOL0     H78007   0.625   1.644   5.317  0.0569  1.4857 -2.2071
  578MOL0     H78008   0.413   1.473   5.192  0.1744 -1.0861  0.4412
  578MOL0     H78009   0.393   1.636   5.233 -0.4727 -0.5663  0.4799
  578MOL0     H78010   0.267   1.514   5.393 -0.0433 -0.4733  0.7197
  578MOL0     H78011   0.419   1.571   5.476 -1.9709 -0.1665  0.9849
  578MOL0     H78012   0.751   2.096   5.474 -0.2429 -2.2840 -0.0314
  578MOL0     H78013   0.876   2.173   5.681  0.0963 -0.2200  0.4423
  578MOL0     H78014   1.111   2.227   6.098 -1.4537 -2.5614 -0.7119
  578MOL0     H78015   1.312   2.279   6.237  3.1807 -0.1765  1.5052
  578MOL0     H78016   2.164   1.777   7.148 -2.9103 -1.6477 -1.5195
  578MOL0     H78017   2.007   1.598   7.206 -0.3086 -0.2118  1.0709
  578MOL0     H78018   1.818   1.278   7.332 -5.0056 -0.0071 -1.1900
  578MOL0     H78019   1.653   1.095   7.354  1.0108 -1.2663 -0.1064
  578MOL0     H78020   1.510   0.826   7.692  2.0421 -1.0419 -1.3279
  578MOL0     H78021   1.614   0.932   7.781 -2.2163  5.9596  1.8748
  578MOL0     H78022   1.346   1.022   7.647 -2.1518  0.9899  1.1439
  578MOL0     H78023   1.454   1.125   7.731  1.1187  0.4411 -3.7450
  578MOL0     H78024   1.262   1.057   7.849  1.1605  0.6532 -2.7884
  578MOL0     H78025   1.409   1.022   7.947  0.7732  0.4996  1.1393
  578MOL0     H78026   1.391   0.803   7.892  1.4467  1.1585 -2.3624
  578MOL0     H78027   1.251   0.815   7.784  1.2514 -1.6925  0.5335
  578MOL0     H78028   1.048   0.794   8.150  1.1991 -0.6314  0.5887
  578MOL0     H78029   1.758   1.068   7.768  1.5043 -1.4947 -0.8174
  578MOL0     H78030   1.908   1.284   7.742  0.3073  0.5355 -0.0711
  579MOL0     O78031   6.938  10.778   9.052 -0.2567  0.7236 -0.1517
  579MOL0     C78032   6.899  10.669   9.094  0.6967 -0.3729 -0.4481
  579MOL0     O78033   6.970  10.592   9.180  0.8463  0.2621 -0.4836
  579MOL0     C78034   7.080  10.635   9.237  0.4331  0.6203  0.5022
  579MOL0     C78035   7.107  10.759   9.289 -0.6880 -0.0508  0.2273
  579MOL0     C78036   7.230  10.785   9.357  0.3761 -0.3494  0.1476
  579MOL0     C78037   7.334  10.693   9.346  0.1285 -0.2274 -0.0000
  579MOL0     O78038   7.459  10.728   9.390  0.2137 -0.5306 -0.1464
  579MOL0     C78039   7.481  10.689   9.520  0.5516 -0.1857  0.3030
  579MOL0     C78040   7.623  10.666   9.566 -0.4453  0.0698  0.2191
  579MOL0     C78041   7.688  10.543   9.505 -0.3701  0.3611  0.2139
  579MOL0     C78042   7.630  10.411   9.565 -0.3442  0.9280  0.1640
  579MOL0     C78043   7.701  10.288   9.515 -0.4177 -0.2378  0.0330
  579MOL0     C78044   7.627  10.156   9.557  0.0511  0.1879 -0.0201
  579MOL0     C78045   7.720  10.043   9.489 -0.1519  0.4133  0.4312
  579MOL0     C78046   7.661   9.906   9.494  0.5068  0.1621 -0.3918
  579MOL0     N78047   7.543   9.890   9.412 -0.1362  0.3531  0.8090
  579MOL0     C78048   7.421   9.927   9.440 -0.2030  0.4884  0.0023
  579MOL0     C78049   7.346   9.882   9.336 -0.2985  0.9718  0.0092
  579MOL0     C78050   7.192   9.914   9.320  0.0461 -0.2757  0.2585
  579MOL0     C78051   7.178  10.026   9.216 -0.3117  0.1015  0.1545
  579MOL0     C78052   7.036  10.024   9.153 -0.0800  0.7148 -0.7812
  579MOL0     C78053   7.032  10.144   9.044  0.4732  0.7242 -0.8297
  579MOL0     O78054   6.908  10.127   8.969  0.1702  0.6614  0.2677
  579MOL0     C78055   6.934  10.114   8.838 -0.6781  0.0170  0.2086
  579MOL0     C78056   7.034  10.038   8.782  0.3098  0.4705  0.8974
  579MOL0     C78057   7.052  10.038   8.646 -0.9173 -0.4520  0.5645
  579MOL0     C78058   7.187   9.987   8.600  0.1399  0.0198 -0.4384
  579MOL0     C78059   6.959  10.094   8.558  0.5113 -0.2193 -0.0021
  579MOL0     C78060   6.974  10.076   8.410 -0.5029  0.7075 -0.2627
  579MOL0     O78061   6.940  10.189   8.340 -0.8054 -0.2392  0.6049
  579MOL0     C78062   6.950  10.196   8.198 -0.1745  0.2239  0.0561
  579MOL0     C78063   6.950  10.327   8.149 -0.5664 -0.0959 -0.2830
  579MOL0     C78064   6.956  10.353   8.009  0.6646  0.4677  0.2830
  579MOL0     C78065   6.947  10.247   7.918  0.0131 -0.3035 -0.9084
  579MOL0     O78066   6.947  10.279   7.787  0.1496  0.2175 -0.7403
  579MOL0     C78067   6.829  10.234   7.725 -0.7884 -0.2628 -0.6598
  579MOL0     C78068   6.691  10.250   7.796 -0.4985  0.0620 -0.6282
  579MOL0     C78069   6.573  10.225   7.705  0.0255 -0.0362  0.9519
  579MOL0     C78070   6.460  10.323   7.723 -0.1500 -0.6254  0.2571
  579MOL0     C78071   6.343  10.258   7.641  0.0414  0.6819  0.2582
  579MOL0     C78072   6.218  10.329   7.673  0.5134  0.3111 -0.2437
  579MOL0     C78073   6.103  10.271   7.576 -0.1901  0.2427 -0.2938
  579MOL0     C78074   6.042  10.141   7.627 -0.8845 -0.1599 -0.3178
  579MOL0    Cl78075   5.882  10.130   7.548 -0.0722  0.2575  0.1914
  579MOL0     C78076   6.960  10.115   7.964 -0.1340  0.6637 -0.8763
  579MOL0     C78077   6.958  10.084   8.106 -0.3926 -0.9770 -0.5825
  579MOL0     O78078   7.000   9.967   8.366  0.3266  0.5541 -0.0709
  579MOL0     C78079   6.861  10.168   8.611 -0.3242 -0.0979 -0.6194
  579MOL0     C78080   6.848  10.181   8.757 -0.6740 -0.4868  0.7731
  579MOL0     N78081   7.423   9.822   9.246 -0.4677 -0.0820 -0.1749
  579MOL0     N78082   7.544   9.825   9.293 -0.2893 -0.1607 -0.4263
  579MOL0     C78083   7.312  10.577   9.271  0.3169 -0.2240  0.2279
  579MOL0     C78084   7.189  10.548   9.226  0.5948  0.6371 -0.5291
  579MOL0     C78085   6.771  10.628   9.057 -0.1300 -0.5137  0.3879
  579MOL0     C78086   6.683  10.714   9.004 -0.1819 -0.0691  0.6570
  579MOL0     C78087   6.556  10.675   8.972 -0.3880 -0.6843 -0.2047
  579MOL0     C78088   6.518  10.549   8.998  0.8618 -0.0131  0.3649
  579MOL0     O78089   6.382  10.527   8.983 -0.2750  0.8483  0.4108
  579MOL0     C78090   6.320  10.388   9.018  0.0994 -0.2003  0.5970
  579MOL0     C78091   6.200  10.362   8.934  0.2063 -0.6918 -0.1646
  579MOL0     C78092   6.088  10.451   8.994  1.0477 -0.2309  0.1215
  579MOL0     C78093   5.956  10.449   8.915 -0.1995 -1.0238 -0.8209
  579MOL0     C78094   5.874  10.331   8.949  0.4708  0.7427  0.0853
  579MOL0     C78095   5.798  10.242   8.979  0.0487 -0.5948 -0.4187
  579MOL0     C78096   6.606  10.452   9.043 -0.1160  0.1236  0.3627
  579MOL0     C78097   6.738  10.491   9.066 -0.1808 -0.1340  0.7256
  579MOL0     H78098   7.039  10.843   9.288 -0.8468 -0.1548  1.1255
  579MOL0     H78099   7.252  10.880   9.404  0.8056 -0.1709 -0.4223
  579MOL0     H78100   7.444  10.754   9.601  2.1428 -0.0492  0.9669
  579MOL0     H78101   7.431  10.592   9.521 -0.1359  0.1427 -1.0421
  579MOL0     H78102   7.679  10.757   9.549 -1.5836  0.6727 -0.4415
  579MOL0     H78103   7.616  10.664   9.675 -1.3719 -1.3134  0.1641
  579MOL0     H78104   7.694  10.530   9.397  4.0736 -3.5658  0.6038
  579MOL0     H78105   7.790  10.541   9.546 -1.2063 -2.1064  2.4567
  579MOL0     H78106   7.632  10.405   9.674 -2.0550 -5.0668  0.1977
  579MOL0     H78107   7.526  10.401   9.533 -0.3568 -2.5294  0.8834
  579MOL0     H78108   7.700  10.295   9.406 -1.8236 -2.3539 -0.1407
  579MOL0     H78109   7.802  10.292   9.556 -0.5269 -0.1562  0.2947
  579MOL0     H78110   7.607  10.135   9.663  2.7328  2.2398  1.0042
  579MOL0     H78111   7.536  10.169   9.499  0.2571  2.3792  0.0669
  579MOL0     H78112   7.721  10.061   9.381 -1.0609  2.1829  0.6723
  579MOL0     H78113   7.821  10.049   9.530  0.0360  2.2664 -0.1904
  579MOL0     H78114   7.638   9.901   9.601  0.4620  3.9431 -0.0970
  579MOL0     H78115   7.740   9.834   9.472 -1.6420 -1.7104 -2.5914
  579MOL0     H78116   7.387   9.976   9.531 -1.9041  1.3683 -1.0584
  579MOL0     H78117   7.140   9.818   9.321  0.3807 -0.5515  4.1711
  579MOL0     H78118   7.158   9.956   9.415 -2.0377 -2.6261  0.6494
  579MOL0     H78119   7.257  10.010   9.141  0.3358 -1.5469  1.1378
  579MOL0     H78120   7.184  10.111   9.284 -2.1298 -0.4651  1.0741
  579MOL0     H78121   6.965  10.044   9.234  2.5409  1.3566  1.4960
  579MOL0     H78122   7.025   9.926   9.105  0.6051 -0.0113  0.5245
  579MOL0     H78123   7.121  10.133   8.981  1.7731 -1.9010  1.2768
  579MOL0     H78124   7.027  10.245   9.087 -1.5636  0.0086  0.7966
  579MOL0     H78125   7.103   9.976   8.839  0.4485  0.6634  0.9382
  579MOL0     H78126   7.160   9.886   8.568 -1.6468 -1.6646  5.1842
  579MOL0     H78127   7.234  10.045   8.520 -2.4369 -0.4354 -2.4084
  579MOL0     H78128   7.269   9.984   8.672 -1.0527 -0.3450  0.9537
  579MOL0     H78129   6.972  10.409   8.216  1.8689 -0.7689 -0.1660
  579MOL0     H78130   6.947  10.454   7.970 -2.6441  2.0871  4.3910
  579MOL0     H78131   6.824  10.297   7.636  1.4075  2.4659  0.9811
  579MOL0     H78132   6.843  10.128   7.701 -1.7743  0.0592 -2.8412
  579MOL0     H78133   6.698  10.182   7.880  0.0270  1.5879  0.6090
  579MOL0     H78134   6.680  10.352   7.835 -4.0520  0.0818 -1.3611
  579MOL0     H78135   6.531  10.126   7.725  0.3011  0.4270  4.4086
  579MOL0     H78136   6.613  10.240   7.604 -3.6975  2.3641 -0.4073
  579MOL0     H78137   6.429  10.334   7.827  1.6041  0.2927  0.7153
  579MOL0     H78138   6.465  10.425   7.685 -3.9517 -0.0122  0.9863
  579MOL0     H78139   6.313  10.154   7.655  0.7261 -0.3231 -4.2328
  579MOL0     H78140   6.379  10.250   7.538 -0.0331 -1.0366  0.3385
  579MOL0     H78141   6.191  10.294   7.773  2.8662 -3.1405 -0.6582
  579MOL0     H78142   6.246  10.435   7.665  0.1632  0.3744 -0.6944
  579MOL0     H78143   6.155  10.264   7.480 -1.4799  2.1284 -1.1770
  579MOL0     H78144   6.022  10.345   7.574  0.0013  0.4386 -1.0359
  579MOL0     H78145   6.034  10.163   7.733  2.8085  3.1913 -0.5246
  579MOL0     H78146   6.103  10.051   7.618 -0.6205  0.0262 -0.4013
  579MOL0     H78147   6.961  10.030   7.897  0.4758 -0.0739  0.0355
  579MOL0     H78148   6.967   9.980   8.135  1.5478 -0.0722  2.6022
  579MOL0     H78149   6.777  10.210   8.556 -1.4435  3.1823  3.0577
  579MOL0     H78150   6.772  10.245   8.802  2.1912  2.0185  2.4943
  579MOL0     H78151   7.393  10.506   9.263 -1.3533 -2.1415 -0.3578
  579MOL0     H78152   7.171  10.452   9.176 -0.0695  1.6408 -2.3260
  579MOL0     H78153   6.715  10.816   8.988  0.1570  0.3497  3.3942
  579MOL0     H78154   6.484  10.740   8.924 -1.9845 -1.3430  1.2096
  579MOL0     H78155   6.396  10.312   9.000  1.3235  0.2122  3.4141
  579MOL0     H78156   6.295  10.360   9.121 -1.3354 -2.7594 -0.3608
  579MOL0     H78157   6.158  10.261   8.947 -1.6124  0.0242 -0.1647
  579MOL0     H78158   6.227  10.383   8.831 -0.6346  2.2450  0.1237
  579MOL0     H78159   6.124  10.554   8.985  0.7628 -0.0584  0.8507
  579MOL0     H78160   6.066  10.437   9.100 -0.1784  0.3366 -0.0362
  579MOL0     H78161   5.992  10.453   8.812  0.6884  1.8960 -0.4932
  579MOL0     H78162   5.895  10.537   8.934 -2.0730 -2.4546  0.1776
  579MOL0     H78163   5.731  10.168   9.017  1.3130 -0.6221  1.9496
  579MOL0     H78164   6.580  10.351   9.073 -2.9064 -0.2306 -2.6751
  579MOL0     H78165   6.802  10.414   9.108 -0.5896 -0.4865  0.7144
  580MOL0     O78166  11.324   8.980   1.877 -0.0524  0.6054 -0.0178
  580MOL0     C78167  11.309   9.055   1.973  0.3194 -0.4192  0.1933
  580MOL0     O78168  11.189   9.090   2.027  0.4181 -0.8455 -0.3898
  580MOL0     C78169  11.076   9.045   1.964  0.2798  0.4755  0.2740
  580MOL0     C78170  10.981   8.985   2.048 -0.4096  0.8627  0.6146
  580MOL0     C78171  10.875   8.911   1.991  1.0834  0.6898 -0.5502
  580MOL0     C78172  10.837   8.929   1.855  0.2116  0.1831 -0.1211
  580MOL0     O78173  10.717   8.879   1.804 -0.1929  0.0422 -0.1397
  580MOL0     C78174  10.636   8.782   1.876 -0.5358 -1.1252 -0.1269
  580MOL0     C78175  10.516   8.727   1.798  0.2749 -0.4026  0.6334
  580MOL0     C78176  10.546   8.681   1.651 -1.0934  1.9850 -0.1652
  580MOL0     C78177  10.646   8.574   1.646 -0.1607  0.6978 -0.1296
  580MOL0     C78178  10.612   8.440   1.717  0.0527 -0.4893  0.1486
  580MOL0     C78179  10.709   8.336   1.662  0.6496 -1.3783  1.5099
  580MOL0     C78180  10.697   8.203   1.728  0.1813  0.3648 -0.6300
  580MOL0     C78181  10.821   8.102   1.714 -0.1856 -0.7587 -0.0951
  580MOL0     N78182  10.940   8.144   1.773  0.8793  0.8315 -0.1549
  580MOL0     C78183  10.941   8.160   1.909  0.1284 -0.1408 -0.3415
  580MOL0     C78184  11.072   8.180   1.944  0.4309  1.0713  0.0870
  580MOL0     C78185  11.130   8.185   2.083  0.3425  1.3161 -0.1351
  580MOL0     C78186  11.030   8.229   2.194  0.5704 -0.7065  0.0353
  580MOL0     C78187  11.056   8.178   2.332  0.6982  0.2019  0.3326
  580MOL0     C78188  11.176   8.243   2.397  0.0080 -1.0596 -0.1844
  580MOL0     O78189  11.165   8.201   2.537  0.1274  0.0581 -0.0269
  580MOL0     C78190  11.078   8.265   2.624  0.3761 -0.3725  0.5372
  580MOL0     C78191  11.070   8.211   2.753  0.6431 -0.0997 -0.3187
  580MOL0     C78192  11.010   8.276   2.863 -0.2934  0.3726  0.7353
  580MOL0     C78193  11.044   8.209   2.999 -0.1889 -0.2512 -0.0010
  580MOL0     C78194  10.930   8.390   2.840  0.4157 -0.3071  0.0485
  580MOL0     C78195  10.835   8.454   2.942  0.6500 -0.1053 -0.2888
  580MOL0     O78196  10.893   8.456   3.068 -0.6002 -1.1107 -0.2808
  580MOL0     C78197  10.841   8.548   3.158  0.4123  0.0825  0.1616
  580MOL0     C78198  10.813   8.516   3.291  0.0532 -0.1366 -0.7599
  580MOL0     C78199  10.766   8.612   3.379  0.8364  0.1855  0.0803
  580MOL0     C78200  10.752   8.747   3.332 -0.3015 -1.2290  0.0285
  580MOL0     O78201  10.691   8.843   3.410  0.3697 -0.4366 -0.4630
  580MOL0     C78202  10.565   8.802   3.463  0.7975 -0.3005 -0.1258
  580MOL0     C78203  10.498   8.914   3.535 -0.1737 -0.2183  0.5259
  580MOL0     C78204  10.357   8.894   3.577 -0.0688  0.2543  0.2708
  580MOL0     C78205  10.301   8.975   3.683  0.0129 -1.0977  0.1766
  580MOL0     C78206  10.279   9.125   3.638 -0.3639  0.1685  0.3795
  580MOL0     C78207  10.184   9.186   3.738  0.0858 -0.5394  0.0777
  580MOL0     C78208  10.154   9.327   3.697 -0.1384  0.2112 -0.3169
  580MOL0     C78209  10.069   9.383   3.797 -0.2804 -0.1893 -0.3608
  580MOL0    Cl78210  10.066   9.561   3.766  0.0778  0.1685 -0.8093
  580MOL0     C78211  10.797   8.781   3.202 -0.2032  0.3051  0.4751
  580MOL0     C78212  10.836   8.678   3.118 -0.8466 -0.5929 -0.4470
  580MOL0     O78213  10.738   8.519   2.903  0.2797  0.0935  0.0725
  580MOL0     C78214  10.923   8.443   2.710  0.2706 -0.3158 -0.8865
  580MOL0     C78215  11.000   8.378   2.604  1.2600 -0.3976 -0.4008
  580MOL0     N78216  11.138   8.187   1.815  0.1404 -0.9035 -0.6787
  580MOL0     N78217  11.053   8.167   1.717 -0.3368  0.9511 -0.0341
  580MOL0     C78218  10.920   9.009   1.768 -0.4354  0.2252  1.0662
  580MOL0     C78219  11.040   9.069   1.824  1.1765  0.0870  0.2817
  580MOL0     C78220  11.429   9.129   2.009 -0.2427  0.2814  0.4802
  580MOL0     C78221  11.433   9.208   2.119  0.4147 -0.0615 -0.7951
  580MOL0     C78222  11.546   9.280   2.139 -0.0489  0.1769  0.3419
  580MOL0     C78223  11.663   9.265   2.058  0.7992 -0.1301 -0.4251
  580MOL0     O78224  11.769   9.350   2.081 -0.2624  0.1244 -0.0445
  580MOL0     C78225  11.905   9.307   2.048 -0.0728  0.1814 -0.5032
  580MOL0     C78226  12.015   9.410   2.077 -0.3082 -0.2458 -0.2619
  580MOL0     C78227  12.010   9.526   1.972  0.3978  0.3782 -0.4937
  580MOL0     C78228  12.019   9.660   2.039 -0.8933  0.4196 -0.9456
  580MOL0     C78229  12.036   9.767   1.946 -0.4251 -0.1170  0.6583
  580MOL0     C78230  12.074   9.870   1.892  0.3351  0.4506  0.0220
  580MOL0     C78231  11.671   9.170   1.954 -0.2823 -0.1045 -0.0060
  580MOL0     C78232  11.549   9.102   1.931 -0.2997 -0.4763  0.2721
  580MOL0     H78233  11.007   8.963   2.151  1.0919 -0.1758  0.0588
  580MOL0     H78234  10.822   8.835   2.047  1.7207  1.3730  1.0589
  580MOL0     H78235  10.708   8.702   1.893 -0.9198 -1.3535  0.4935
  580MOL0     H78236  10.613   8.836   1.968  2.2664  1.6778 -0.8784
  580MOL0     H78237  10.459   8.653   1.856  1.6332 -0.2041  2.2897
  580MOL0     H78238  10.440   8.805   1.795  0.9869  0.3989  2.3414
  580MOL0     H78239  10.463   8.631   1.600  1.5043 -2.4344 -0.5980
  580MOL0     H78240  10.576   8.763   1.586 -3.1411  1.5209 -1.8205
  580MOL0     H78241  10.656   8.545   1.541  0.0643 -1.3984  0.4193
  580MOL0     H78242  10.746   8.608   1.675  0.0996 -0.8934  0.9898
  580MOL0     H78243  10.622   8.459   1.824 -0.7690  1.1022 -0.0132
  580MOL0     H78244  10.512   8.399   1.699  0.6573 -2.6987  1.5298
  580MOL0     H78245  10.679   8.313   1.559  0.5569  1.7839  0.7490
  580MOL0     H78246  10.808   8.382   1.658 -1.4293  3.7351  1.3580
  580MOL0     H78247  10.689   8.214   1.837  1.3773 -0.7353 -0.4020
  580MOL0     H78248  10.607   8.149   1.698  0.0254  0.5806 -0.5513
  580MOL0     H78249  10.847   8.075   1.611  0.7160 -2.5521  0.5647
  580MOL0     H78250  10.793   8.003   1.751 -2.2161 -0.1971 -0.0015
  580MOL0     H78251  10.860   8.124   1.972 -0.7614 -1.3442 -2.0977
  580MOL0     H78252  11.182   8.090   2.103  2.8042  2.7627  0.7658
  580MOL0     H78253  11.218   8.250   2.086  1.3225  0.0234  0.2882
  580MOL0     H78254  10.930   8.191   2.174 -1.0714  1.5158  3.1964
  580MOL0     H78255  11.032   8.338   2.201  1.6629 -0.5440 -1.9794
  580MOL0     H78256  11.086   8.073   2.333  1.4973  0.4078 -0.6403
  580MOL0     H78257  10.963   8.190   2.389  0.3342 -0.1212 -0.1904
  580MOL0     H78258  11.179   8.352   2.386  2.7820 -1.2844 -2.9217
  580MOL0     H78259  11.268   8.207   2.351  0.9408  0.5366  0.3422
  580MOL0     H78260  11.132   8.124   2.770  3.1042  1.1864 -1.9595
  580MOL0     H78261  11.100   8.118   2.977 -0.5101 -0.1184 -1.4841
  580MOL0     H78262  11.118   8.263   3.059 -0.2057 -0.1505 -0.0708
  580MOL0     H78263  10.956   8.201   3.064  0.2914  2.1865  1.0537
  580MOL0     H78264  10.828   8.413   3.324  1.3918  0.1003 -0.5844
  580MOL0     H78265  10.748   8.576   3.480  1.7107 -1.8176 -0.4371
  580MOL0     H78266  10.503   8.750   3.389 -0.5136 -1.0459  1.4395
  580MOL0     H78267  10.589   8.731   3.542  1.5757  0.5042  0.3786
  580MOL0     H78268  10.556   8.957   3.617 -0.0464 -1.2299  0.9797
  580MOL0     H78269  10.496   9.003   3.471 -0.2103  3.7229  5.4340
  580MOL0     H78270  10.342   8.793   3.614 -2.5628 -0.5641 -2.5535
  580MOL0     H78271  10.307   8.888   3.480  2.4323 -0.1445 -1.0958
  580MOL0     H78272  10.204   8.934   3.714 -0.9292  0.7621 -0.1463
  580MOL0     H78273  10.347   8.972   3.782  1.6769  1.1010 -0.4571
  580MOL0     H78274  10.240   9.131   3.537  2.3896  0.3752 -0.7720
  580MOL0     H78275  10.366   9.191   3.630 -1.9940  2.2660 -1.0589
  580MOL0     H78276  10.092   9.127   3.743  0.8266 -1.7702 -0.4220
  580MOL0     H78277  10.232   9.177   3.837 -0.6854  3.7982  1.0519
  580MOL0     H78278  10.103   9.338   3.600 -2.0449  0.7712  0.6961
  580MOL0     H78279  10.245   9.386   3.680 -2.1109  2.9352 -2.4191
  580MOL0     H78280  10.101   9.348   3.896  0.1716  0.8522 -0.1122
  580MOL0     H78281   9.968   9.349   3.773  0.3937 -1.0823 -2.0426
  580MOL0     H78282  10.792   8.884   3.169  1.5067  0.9631  2.1110
  580MOL0     H78283  10.873   8.698   3.018  1.0120 -1.9997 -0.0857
  580MOL0     H78284  10.869   8.537   2.695  1.9192  1.0395  1.1215
  580MOL0     H78285  10.993   8.426   2.507  0.1294 -2.1683 -1.2479
  580MOL0     H78286  10.890   9.031   1.666 -0.0209 -0.1309  0.8635
  580MOL0     H78287  11.108   9.125   1.760 -0.4235 -2.5162 -4.1177
  580MOL0     H78288  11.353   9.228   2.190 -0.1634 -0.9490 -1.1742
  580MOL0     H78289  11.550   9.347   2.224  1.0680  0.3088  0.2011
  580MOL0     H78290  11.911   9.203   2.081 -4.1359 -0.6456 -1.7997
  580MOL0     H78291  11.902   9.294   1.939 -2.0896 -0.4397 -0.4136
  580MOL0     H78292  12.116   9.373   2.060 -1.1869 -1.4076 -3.8379
  580MOL0     H78293  12.001   9.423   2.185  0.9024 -2.5939  0.2546
  580MOL0     H78294  11.916   9.528   1.917  1.2938  1.4944 -2.0647
  580MOL0     H78295  12.090   9.500   1.902  0.0422 -0.5600 -0.5642
  580MOL0     H78296  12.105   9.669   2.107 -0.5048 -1.4026 -1.1613
  580MOL0     H78297  11.934   9.690   2.101  1.7151  3.4275  1.5545
  580MOL0     H78298  12.122   9.952   1.843  1.0882 -0.2375 -0.4143
  580MOL0     H78299  11.761   9.153   1.897 -0.1550 -2.4733  0.8019
  580MOL0     H78300  11.538   9.037   1.844 -0.2098  3.2022 -2.7204
  581MOL0     O78301  10.282   1.120   7.584 -0.8633 -0.9850  0.2478
  581MOL0     C78302  10.173   1.131   7.638 -0.1075 -0.5627 -0.7412
  581MOL0     O78303  10.109   1.035   7.706 -0.4612 -0.9456 -0.3891
  581MOL0     C78304  10.147   0.903   7.702 -0.0597  0.0956  0.4554
  581MOL0     C78305  10.177   0.835   7.821 -0.3815  0.5961  0.2058
  581MOL0     C78306  10.226   0.704   7.815  0.4689  0.0967  0.4005
  581MOL0     C78307  10.223   0.629   7.694  0.1895  0.5421 -0.5317
  581MOL0     O78308  10.276   0.499   7.698 -0.3836 -0.0467 -0.7387
  581MOL0     C78309  10.310   0.436   7.565  0.3733  0.2444  0.4422
  581MOL0     C78310  10.428   0.338   7.574  0.1782 -0.4595 -0.1063
  581MOL0     C78311  10.564   0.401   7.625  0.4737 -0.2453  0.3715
  581MOL0     C78312  10.664   0.288   7.625 -1.4413  0.2192 -0.1623
  581MOL0     C78313  10.818   0.323   7.657  0.4876  0.0722 -0.2525
  581MOL0     C78314  10.820   0.359   7.810  0.9982  0.3745 -0.0538
  581MOL0     C78315  10.959   0.371   7.868  0.2197 -0.6775 -0.1275
  581MOL0     C78316  10.956   0.445   8.000 -0.3021 -0.4006  0.3368
  581MOL0     N78317  11.076   0.448   8.083 -0.5873 -0.1467  0.1255
  581MOL0     C78318  11.178   0.525   8.044 -0.5191 -0.2199  0.7514
  581MOL0     C78319  11.249   0.528   8.160 -0.6404  0.0373 -0.2684
  581MOL0     C78320  11.393   0.579   8.180 -0.2564  0.7480 -0.1838
  581MOL0     C78321  11.433   0.712   8.130 -0.0480  0.0059  0.1428
  581MOL0     C78322  11.339   0.823   8.175  0.3104 -0.5439 -0.5701
  581MOL0     C78323  11.403   0.958   8.166 -0.0926 -0.0019 -0.8657
  581MOL0     O78324  11.305   1.052   8.179 -0.1477  0.1694  0.4505
  581MOL0     C78325  11.253   1.085   8.304  0.8782  0.1544 -0.2576
  581MOL0     C78326  11.134   1.163   8.308 -0.9156 -0.6513 -0.3049
  581MOL0     C78327  11.081   1.211   8.433  0.6310  1.7141 -0.0519
  581MOL0     C78328  10.955   1.276   8.429  0.2476  0.0038 -0.4074
  581MOL0     C78329  11.142   1.182   8.556 -0.2763  0.7190  0.0684
  581MOL0     C78330  11.099   1.233   8.689  0.5768 -0.2776  0.4874
  581MOL0     O78331  11.189   1.233   8.796  0.1035 -0.4183  0.2102
  581MOL0     C78332  11.159   1.288   8.915 -0.2832  0.0124 -0.1244
  581MOL0     C78333  11.090   1.405   8.925  0.0807 -0.0418 -0.1243
  581MOL0     C78334  11.039   1.439   9.054 -0.7066  0.2091 -0.0288
  581MOL0     C78335  11.073   1.372   9.168 -0.4647 -0.1472 -0.0297
  581MOL0     O78336  11.022   1.392   9.290  0.1863 -0.3536 -0.1361
  581MOL0     C78337  10.908   1.470   9.306  0.2518  1.0522  0.1990
  581MOL0     C78338  10.843   1.459   9.444  0.5186 -0.6148 -0.7085
  581MOL0     C78339  10.727   1.558   9.460  0.2698  0.2124 -0.4205
  581MOL0     C78340  10.599   1.489   9.407 -0.3228  0.2246 -0.4748
  581MOL0     C78341  10.476   1.576   9.422  0.2369  0.7581  0.5773
  581MOL0     C78342  10.343   1.492   9.414 -0.3348 -0.6876 -0.0452
  581MOL0     C78343  10.216   1.570   9.458  0.2749  0.4285 -0.3156
  581MOL0     C78344  10.213   1.698   9.372  0.8947 -0.9600  0.5376
  581MOL0    Cl78345  10.206   1.664   9.198 -0.2697  0.0649 -0.0231
  581MOL0     C78346  11.155   1.259   9.156  0.1215  0.0275  0.0494
  581MOL0     C78347  11.194   1.213   9.032 -0.2220 -0.0833 -0.0770
  581MOL0     O78348  10.977   1.239   8.698 -0.4104 -0.2520  0.0073
  581MOL0     C78349  11.266   1.107   8.539  0.4997 -0.0454  1.1931
  581MOL0     C78350  11.309   1.049   8.429  0.0562  1.1663 -0.3569
  581MOL0     N78351  11.185   0.454   8.255  1.2281 -0.0470 -0.8468
  581MOL0     N78352  11.072   0.407   8.210  0.8891 -0.4113  0.1975
  581MOL0     C78353  10.195   0.697   7.572 -1.0500  0.0252 -0.3230
  581MOL0     C78354  10.168   0.839   7.578  0.4998 -0.4673 -0.6474
  581MOL0     C78355  10.109   1.261   7.635  0.3178  0.4584 -0.0082
  581MOL0     C78356  10.179   1.372   7.586 -0.1750  0.6355 -0.3334
  581MOL0     C78357  10.113   1.499   7.572  0.7770  0.4208 -1.7389
  581MOL0     C78358   9.975   1.512   7.604 -0.1802 -0.4868 -0.0602
  581MOL0     O78359   9.897   1.619   7.578 -0.7994 -0.7827 -0.3866
  581MOL0     C78360   9.954   1.731   7.505  0.1131 -0.2508 -0.3441
  581MOL0     C78361   9.866   1.847   7.497  0.1674 -0.6976 -0.1661
  581MOL0     C78362   9.856   1.921   7.636 -0.0811 -0.8755  0.1363
  581MOL0     C78363   9.812   2.074   7.620  1.5831  1.0733 -0.0327
  581MOL0     C78364   9.925   2.159   7.606 -0.7433 -0.7636  1.0265
  581MOL0     C78365  10.021   2.232   7.588 -0.9981  0.0340  0.1997
  581MOL0     C78366   9.905   1.404   7.655  0.1948  0.6118 -0.6646
  581MOL0     C78367   9.971   1.281   7.665 -0.5173  0.4735  0.6101
  581MOL0     H78368  10.141   0.890   7.908 -1.0611 -1.1639  1.0902
  581MOL0     H78369  10.263   0.659   7.907  1.5465 -3.7794 -1.7103
  581MOL0     H78370  10.217   0.394   7.526  0.1203  1.6554 -0.5570
  581MOL0     H78371  10.346   0.506   7.489  2.8779 -2.3524 -0.9175
  581MOL0     H78372  10.400   0.264   7.650  1.0629  1.9377  2.7605
  581MOL0     H78373  10.440   0.294   7.475  0.7756  2.1789 -1.2847
  581MOL0     H78374  10.591   0.485   7.559 -1.6740  0.7678  0.7168
  581MOL0     H78375  10.553   0.440   7.727  1.9416  0.5970  0.2435
  581MOL0     H78376  10.635   0.221   7.707 -1.9375  2.1466  1.3327
  581MOL0     H78377  10.661   0.230   7.533  0.2264 -0.4022  0.1407
  581MOL0     H78378  10.882   0.236   7.639 -0.1332  0.1143 -3.1376
  581MOL0     H78379  10.850   0.409   7.598 -0.7122 -0.6101 -1.9710
  581MOL0     H78380  10.774   0.458   7.818  0.1627 -0.1172  1.9318
  581MOL0     H78381  10.772   0.281   7.870  1.3113 -0.7585 -1.2382
  581MOL0     H78382  11.005   0.272   7.882 -2.7576 -2.0501  0.6769
  581MOL0     H78383  11.021   0.431   7.801 -0.7182  0.2913 -0.1474
  581MOL0     H78384  10.870   0.414   8.060 -0.9282 -0.9512 -0.7969
  581MOL0     H78385  10.942   0.545   7.959 -2.5777 -0.8407 -0.1126
  581MOL0     H78386  11.215   0.560   7.949 -1.8448 -3.7844 -1.2966
  581MOL0     H78387  11.414   0.569   8.287  0.2404  1.6835 -0.1869
  581MOL0     H78388  11.459   0.513   8.123  0.8918  2.0267 -0.3689
  581MOL0     H78389  11.424   0.695   8.023 -1.9670 -0.0863  0.2762
  581MOL0     H78390  11.537   0.722   8.161  0.0122 -2.2995  0.9043
  581MOL0     H78391  11.318   0.817   8.282 -0.4495  0.5358 -0.6480
  581MOL0     H78392  11.240   0.825   8.129 -0.7776  1.2090  1.6536
  581MOL0     H78393  11.455   0.983   8.073  0.6687 -1.0101 -0.7288
  581MOL0     H78394  11.478   0.962   8.245 -1.0225 -4.3865  0.4996
  581MOL0     H78395  11.084   1.180   8.213 -0.5951 -2.6064 -0.8631
  581MOL0     H78396  10.938   1.349   8.509  0.7151 -0.5229  0.1856
  581MOL0     H78397  10.929   1.314   8.330 -0.9279 -1.6554 -0.7682
  581MOL0     H78398  10.884   1.196   8.452 -0.7291  1.0029  0.1486
  581MOL0     H78399  11.068   1.465   8.837 -0.6328  0.5379  0.4447
  581MOL0     H78400  10.966   1.520   9.060 -3.1168 -1.8833  0.6758
  581MOL0     H78401  10.939   1.573   9.289  0.7119  1.5935  3.6794
  581MOL0     H78402  10.834   1.456   9.226  3.0906 -0.0260 -2.4846
  581MOL0     H78403  10.808   1.356   9.456 -1.8833  0.3999  2.2010
  581MOL0     H78404  10.900   1.491   9.532  1.5630  0.1164 -1.6365
  581MOL0     H78405  10.740   1.649   9.400  0.9978 -0.9564 -2.1148
  581MOL0     H78406  10.711   1.581   9.566 -3.1765 -1.1350 -0.5330
  581MOL0     H78407  10.616   1.463   9.303 -2.0504 -2.7045 -0.1304
  581MOL0     H78408  10.585   1.394   9.460 -1.3762  1.1537  0.9678
  581MOL0     H78409  10.481   1.637   9.331 -0.3362 -1.1525 -0.7829
  581MOL0     H78410  10.470   1.641   9.510 -2.0954  2.9142 -1.0366
  581MOL0     H78411  10.328   1.459   9.311 -0.6627 -3.5427  0.8340
  581MOL0     H78412  10.347   1.397   9.468  1.9076 -0.3448  0.4619
  581MOL0     H78413  10.224   1.575   9.567  0.5534  0.2444 -0.3266
  581MOL0     H78414  10.123   1.512   9.450 -0.3744  1.0384  2.1069
  581MOL0     H78415  10.296   1.760   9.405  0.2842  0.3558 -0.3209
  581MOL0     H78416  10.122   1.752   9.398 -1.0062 -2.9284 -1.4693
  581MOL0     H78417  11.192   1.221   9.251  0.5409  1.6718  0.5797
  581MOL0     H78418  11.261   1.128   9.025 -2.4248 -1.9394  0.2930
  581MOL0     H78419  11.324   1.101   8.631  0.4814 -0.9272  1.1501
  581MOL0     H78420  11.400   0.992   8.442 -1.0931 -1.2559 -2.1667
  581MOL0     H78421  10.194   0.646   7.476 -1.6830 -0.8459  0.1359
  581MOL0     H78422  10.148   0.879   7.479 -0.6336  0.7916  0.0548
  581MOL0     H78423  10.280   1.355   7.549 -1.1224 -0.7351 -2.4624
  581MOL0     H78424  10.167   1.585   7.534 -0.2519  0.6356 -2.7856
  581MOL0     H78425  10.046   1.761   7.556  0.1128  1.3265 -1.1868
  581MOL0     H78426   9.975   1.706   7.400  0.4415 -0.0389 -0.3304
  581MOL0     H78427   9.771   1.817   7.452 -1.0605 -2.1404  3.0717
  581MOL0     H78428   9.909   1.912   7.420  3.6281 -0.0950  2.0309
  581MOL0     H78429   9.955   1.923   7.680  0.6426 -1.3345 -1.3830
  581MOL0     H78430   9.783   1.864   7.695 -0.5524 -3.8017 -2.9408
  581MOL0     H78431   9.747   2.112   7.699 -1.4728  1.4473 -2.5091
  581MOL0     H78432   9.756   2.083   7.526  0.4832  0.1647  0.5158
  581MOL0     H78433  10.116   2.280   7.572 -0.4685 -1.7489 -2.5869
  581MOL0     H78434   9.807   1.424   7.694 -0.2435 -1.9605 -0.2745
  581MOL0     H78435   9.917   1.198   7.707  1.1347 -0.2018  1.4888
  582MOL0     O78436   9.722   1.246  11.206  0.3317  0.7526 -0.7295
  582MOL0     C78437   9.793   1.334  11.164  0.3889 -0.1357  0.1263
  582MOL0     O78438   9.913   1.334  11.095  0.4774  0.3074  0.3775
  582MOL0     C78439   9.968   1.221  11.037  0.5904  0.0562  0.4114
  582MOL0     C78440   9.887   1.115  10.998 -0.1929 -1.0600 -0.2981
  582MOL0     C78441   9.950   1.005  10.927 -0.2247 -0.0382  1.3465
  582MOL0     C78442  10.090   0.992  10.924  1.0409  0.0046 -0.1393
  582MOL0     O78443  10.149   0.884  10.864  0.4620  0.0932 -0.3770
  582MOL0     C78444  10.266   0.831  10.919  0.2227  0.1520 -0.5693
  582MOL0     C78445  10.307   0.707  10.845  0.1776 -0.9523  0.2270
  582MOL0     C78446  10.213   0.584  10.865  0.8035 -0.3876 -0.4869
  582MOL0     C78447  10.270   0.481  10.967  0.4995  0.2269 -0.3194
  582MOL0     C78448  10.172   0.366  10.986  0.4525 -0.2075 -0.0791
  582MOL0     C78449  10.168   0.265  10.874 -0.0321  0.0786 -0.0010
  582MOL0     C78450  10.054   0.163  10.894  0.3402  0.0686 -1.0218
  582MOL0     C78451   9.918   0.230  10.883 -0.7995 -0.2563 -0.1388
  582MOL0     N78452   9.815   0.134  10.894  0.3031  1.0644 -0.1018
  582MOL0     C78453   9.771   0.085  11.015 -0.7976 -0.4382 -0.0262
  582MOL0     C78454   9.665   0.004  10.978  0.3284  0.2742 -0.5717
  582MOL0     C78455   9.584  -0.087  11.069  0.0539 -0.1657  0.5569
  582MOL0     C78456   9.571  -0.020  11.204  0.3123 -0.0530 -0.1718
  582MOL0     C78457   9.509  -0.131  11.292 -0.7212  0.6301  0.0997
  582MOL0     C78458   9.469  -0.077  11.428 -0.1464  0.3212  0.3830
  582MOL0     O78459   9.405  -0.177  11.510  0.4887 -0.0828 -0.2246
  582MOL0     C78460   9.279  -0.209  11.465  0.9893 -0.2832  0.2099
  582MOL0     C78461   9.241  -0.330  11.399 -0.2429  0.6460 -0.1161
  582MOL0     C78462   9.119  -0.362  11.347  0.2795  0.4945  0.8064
  582MOL0     C78463   9.100  -0.495  11.285  0.2109  0.0670 -0.5391
  582MOL0     C78464   9.017  -0.272  11.359  0.3130  0.0474  0.1721
  582MOL0     C78465   8.874  -0.284  11.309 -0.0917 -0.3786 -0.8283
  582MOL0     O78466   8.807  -0.167  11.292  0.3029 -0.2574  0.1359
  582MOL0     C78467   8.677  -0.161  11.251 -0.0690 -0.2359 -1.4706
  582MOL0     C78468   8.649  -0.095  11.137  0.6240  0.3217  0.0879
  582MOL0     C78469   8.513  -0.096  11.085  0.3309  0.3982 -0.0209
  582MOL0     C78470   8.406  -0.160  11.159 -0.5258 -0.7639  0.2257
  582MOL0     O78471   8.275  -0.157  11.121  0.4953 -0.2335 -0.6941
  582MOL0     C78472   8.241  -0.144  10.985 -0.2477 -0.5174  0.6729
  582MOL0     C78473   8.083  -0.143  10.972  0.3844  0.4405 -0.3942
  582MOL0     C78474   8.022  -0.025  11.045 -0.9165  0.3274  0.1486
  582MOL0     C78475   7.908   0.020  10.959  0.1118 -0.6298  0.5538
  582MOL0     C78476   7.839   0.134  11.036 -0.4953 -0.5383 -0.8710
  582MOL0     C78477   7.734   0.205  10.948 -0.0680  0.4423  0.0070
  582MOL0     C78478   7.623   0.116  10.892 -0.5292  0.3385  0.4979
  582MOL0     C78479   7.526   0.068  11.003 -0.3463  0.8640  0.4280
  582MOL0    Cl78480   7.444   0.204  11.093  0.3353 -0.4083 -0.2093
  582MOL0     C78481   8.440  -0.221  11.276 -0.5114  0.9244 -0.1777
  582MOL0     C78482   8.567  -0.214  11.325  0.2046  0.1357  0.6272
  582MOL0     O78483   8.828  -0.396  11.295  0.3363 -0.5465 -0.5053
  582MOL0     C78484   9.051  -0.148  11.430 -0.3399 -0.3028  0.4553
  582MOL0     C78485   9.179  -0.113  11.479  0.4027 -0.0850 -0.3523
  582MOL0     N78486   9.643   0.026  10.843 -0.0708 -0.2082 -0.5400
  582MOL0     N78487   9.730   0.105  10.796 -0.5361 -0.1045  0.4552
  582MOL0     C78488  10.162   1.102  10.962 -0.0876 -0.6780  0.2592
  582MOL0     C78489  10.101   1.213  11.006 -0.7440 -0.2425  1.6767
  582MOL0     C78490   9.746   1.475  11.171 -0.2583  0.3910  0.7932
  582MOL0     C78491   9.692   1.524  11.292 -0.6652 -0.4807  1.1765
  582MOL0     C78492   9.644   1.654  11.304 -0.3723 -0.5465  0.4604
  582MOL0     C78493   9.668   1.745  11.204  0.6204  0.3327  0.3224
  582MOL0     O78494   9.633   1.880  11.203  0.2329  0.3950 -0.5184
  582MOL0     C78495   9.554   1.915  11.323 -0.5274 -0.1398  0.4755
  582MOL0     C78496   9.512   2.059  11.302  0.8288  0.3276 -0.4718
  582MOL0     C78497   9.423   2.115  11.410  0.9909  0.1214 -0.0283
  582MOL0     C78498   9.402   2.261  11.408  0.0737 -0.8534  0.4525
  582MOL0     C78499   9.293   2.301  11.498  0.1939 -0.5505  0.0775
  582MOL0     C78500   9.220   2.329  11.584  1.1990  0.5083 -0.1242
  582MOL0     C78501   9.730   1.702  11.087 -0.2044  0.2873  0.2498
  582MOL0     C78502   9.767   1.571  11.068 -0.5891  0.4773 -0.0172
  582MOL0     H78503   9.784   1.107  11.031  0.2138  0.1820  1.4221
  582MOL0     H78504   9.884   0.924  10.895  0.7064 -0.2238 -0.1984
  582MOL0     H78505  10.357   0.891  10.915  2.3896 -2.7501  1.0392
  582MOL0     H78506  10.256   0.816  11.027  2.8647 -1.9164 -0.4940
  582MOL0     H78507  10.299   0.741  10.742 -2.0309  2.4020  1.3455
  582MOL0     H78508  10.412   0.681  10.859  1.2914  3.3210  1.1207
  582MOL0     H78509  10.111   0.615  10.893  0.6591 -1.0429 -0.2754
  582MOL0     H78510  10.196   0.536  10.768 -0.0850  1.2010 -1.1664
  582MOL0     H78511  10.363   0.438  10.928 -0.5196 -1.2108 -1.2892
  582MOL0     H78512  10.285   0.535  11.060  3.1552 -1.0488  0.1021
  582MOL0     H78513  10.207   0.314  11.076  1.9751 -0.4544 -0.7882
  582MOL0     H78514  10.077   0.410  11.018  1.0941  0.5486  0.8354
  582MOL0     H78515  10.152   0.320  10.780 -1.0607  0.6150  0.4732
  582MOL0     H78516  10.264   0.213  10.869 -0.5392 -0.7636 -2.1402
  582MOL0     H78517  10.062   0.094  10.809 -0.0316 -1.0010 -0.2021
  582MOL0     H78518  10.064   0.107  10.987  1.7667 -2.7756 -2.7178
  582MOL0     H78519   9.902   0.275  10.785  2.1643 -1.7096 -1.3997
  582MOL0     H78520   9.906   0.301  10.966 -1.8327 -1.1019  0.4573
  582MOL0     H78521   9.824   0.087  11.109 -0.3111  3.4771 -0.2347
  582MOL0     H78522   9.486  -0.106  11.023  0.5300 -4.3435  0.9415
  582MOL0     H78523   9.632  -0.185  11.076  1.6802  0.6460  1.2526
  582MOL0     H78524   9.500   0.062  11.191  0.8528  0.3758 -0.4620
  582MOL0     H78525   9.666   0.011  11.249 -0.1009  1.0526 -0.0286
  582MOL0     H78526   9.584  -0.210  11.307 -0.2070  0.8129 -1.3376
  582MOL0     H78527   9.415  -0.167  11.249 -0.7786  1.6185 -0.6356
  582MOL0     H78528   9.407   0.007  11.397 -0.6553 -0.3949 -0.6282
  582MOL0     H78529   9.557  -0.037  11.479  1.3575 -0.6230 -1.3368
  582MOL0     H78530   9.317  -0.407  11.400  1.2388  2.0464 -0.0818
  582MOL0     H78531   9.045  -0.496  11.191 -1.3351 -2.7308  0.2798
  582MOL0     H78532   9.195  -0.548  11.276 -0.2736 -0.8148 -0.5987
  582MOL0     H78533   9.037  -0.556  11.351  2.5516 -0.9063  0.9292
  582MOL0     H78534   8.727  -0.057  11.072  0.3104  1.3503  0.3019
  582MOL0     H78535   8.490  -0.045  10.993  0.5940 -0.3824 -0.5383
  582MOL0     H78536   8.278  -0.049  10.946  2.0482 -1.6969 -0.1887
  582MOL0     H78537   8.284  -0.222  10.921  1.0844 -1.1185  2.2290
  582MOL0     H78538   8.057  -0.145  10.866  1.6065  2.4583 -0.7732
  582MOL0     H78539   8.056  -0.242  11.010  2.4028 -0.9366 -2.2861
  582MOL0     H78540   8.100   0.052  11.051 -2.3543  1.7203  2.1807
  582MOL0     H78541   7.988  -0.064  11.142  0.6311 -1.7977 -0.0865
  582MOL0     H78542   7.951   0.051  10.864  0.5813 -0.8629  0.6831
  582MOL0     H78543   7.831  -0.056  10.945  1.7761 -2.4211  0.6345
  582MOL0     H78544   7.915   0.212  11.047 -3.0136  1.7676  1.8844
  582MOL0     H78545   7.795   0.103  11.132  0.0454  0.5535 -0.2484
  582MOL0     H78546   7.699   0.292  11.005  2.0490  0.3666  1.5383
  582MOL0     H78547   7.791   0.248  10.864 -0.4884 -0.1043 -0.5717
  582MOL0     H78548   7.654   0.032  10.829  0.3081  0.7228  0.3804
  582MOL0     H78549   7.566   0.175  10.819 -1.0978  0.0574  0.7093
  582MOL0     H78550   7.592   0.007  11.064  0.1049 -1.1431 -1.9233
  582MOL0     H78551   7.451   0.002  10.960 -0.6964  0.9284  0.9259
  582MOL0     H78552   8.366  -0.261  11.344  1.8852  1.6549  3.1504
  582MOL0     H78553   8.583  -0.252  11.425  0.7175 -0.4127  0.3427
  582MOL0     H78554   8.987  -0.064  11.456  2.5693  2.1182  0.4327
  582MOL0     H78555   9.217  -0.017  11.512 -0.4440  0.9838 -2.2973
  582MOL0     H78556  10.271   1.101  10.962 -0.0413  1.1491  1.7847
  582MOL0     H78557  10.162   1.303  11.013  0.9459 -1.3060  1.0165
  582MOL0     H78558   9.683   1.455  11.375 -0.7377 -1.0693  0.6841
  582MOL0     H78559   9.589   1.668  11.397 -1.5509 -2.9457  0.1889
  582MOL0     H78560   9.460   1.860  11.319 -1.4498  1.4265 -2.4856
  582MOL0     H78561   9.604   1.884  11.415  0.1040  1.3133  0.6562
  582MOL0     H78562   9.470   2.066  11.202  2.2069  3.1161 -0.9346
  582MOL0     H78563   9.604   2.116  11.317  1.1604 -0.4591  0.6580
  582MOL0     H78564   9.461   2.099  11.511 -1.1653 -1.2123  0.6463
  582MOL0     H78565   9.328   2.060  11.404  1.7553 -1.2849  0.3091
  582MOL0     H78566   9.364   2.287  11.308  1.3340 -1.2548 -0.1445
  582MOL0     H78567   9.494   2.318  11.422 -0.5150  0.1608  0.2749
  582MOL0     H78568   9.158   2.319  11.671 -0.1404 -0.4760 -1.1468
  582MOL0     H78569   9.736   1.780  11.012  0.1590  2.5097  2.4452
  582MOL0     H78570   9.801   1.545  10.969  3.3818 -1.7531  1.6961
  583MOL0     O78571   0.637   9.905   4.456 -1.0027 -0.1410 -0.8561
  583MOL0     C78572   0.652   9.950   4.343 -0.3085 -0.4200  1.0818
  583MOL0     O78573   0.559   9.929   4.246  0.1961 -0.8196  0.8636
  583MOL0     C78574   0.448   9.851   4.264  0.2628  0.2094  0.5653
  583MOL0     C78575   0.330   9.872   4.184 -0.4437 -0.8326 -0.4892
  583MOL0     C78576   0.215   9.779   4.201 -0.1081 -0.0591 -0.9506
  583MOL0     C78577   0.223   9.662   4.284 -0.3122  0.3824  0.6355
  583MOL0     O78578   0.120   9.572   4.292 -0.6366 -0.3004  0.4509
  583MOL0     C78579   0.046   9.582   4.415  0.2438 -0.8448  0.6088
  583MOL0     C78580  -0.088   9.513   4.383 -0.8783 -0.0827 -1.1001
  583MOL0     C78581  -0.182   9.561   4.492  0.0657  0.3508  0.0146
  583MOL0     C78582  -0.314   9.482   4.490 -0.7462 -0.7835  0.3475
  583MOL0     C78583  -0.405   9.524   4.603  0.0399  0.3362  0.8091
  583MOL0     C78584  -0.546   9.534   4.553  0.4057 -0.2040 -0.1239
  583MOL0     C78585  -0.627   9.610   4.667 -0.8144 -0.3990  0.2844
  583MOL0     C78586  -0.747   9.684   4.614  0.5186 -0.2946  1.1995
  583MOL0     N78587  -0.804   9.746   4.736  0.9276  0.8669 -0.7683
  583MOL0     C78588  -0.894   9.684   4.820 -0.2398 -0.1645 -0.4338
  583MOL0     C78589  -0.912   9.777   4.920 -0.3508  0.0222 -0.2296
  583MOL0     C78590  -0.998   9.761   5.034 -0.4581  0.0052 -0.2975
  583MOL0     C78591  -1.144   9.721   5.002  0.1789  0.8103 -0.3193
  583MOL0     C78592  -1.247   9.766   5.101  0.9634 -0.2957  0.0401
  583MOL0     C78593  -1.392   9.775   5.052  0.2039 -0.0853 -0.6730
  583MOL0     O78594  -1.417   9.876   4.950  0.1775 -0.0633 -0.6796
  583MOL0     C78595  -1.536   9.860   4.887 -0.1583  0.8326  0.9094
  583MOL0     C78596  -1.543   9.909   4.756  0.6578 -0.6278 -1.0585
  583MOL0     C78597  -1.652   9.893   4.674 -0.4596 -0.2788  0.2491
  583MOL0     C78598  -1.641   9.942   4.534  0.6178  0.4612 -0.3510
  583MOL0     C78599  -1.772   9.830   4.718 -0.9418 -0.3632  1.0175
  583MOL0     C78600  -1.892   9.805   4.641  0.1202 -0.7227  0.9861
  583MOL0     O78601  -1.939   9.683   4.648  0.5521  0.8074 -0.0724
  583MOL0     C78602  -2.058   9.641   4.585  0.3612 -0.8615  1.1627
  583MOL0     C78603  -2.124   9.715   4.487 -0.2773 -0.3144  0.4150
  583MOL0     C78604  -2.244   9.675   4.428  0.3379  0.3924  0.9175
  583MOL0     C78605  -2.306   9.556   4.466 -0.4658  0.1139  0.3783
  583MOL0     O78606  -2.433   9.528   4.420  0.1259  0.3014 -0.0497
  583MOL0     C78607  -2.431   9.430   4.316  0.3724  0.0979  0.2520
  583MOL0     C78608  -2.504   9.480   4.181 -0.9439  0.6293 -0.5612
  583MOL0     C78609  -2.427   9.577   4.098 -0.5429  0.5444 -0.2136
  583MOL0     C78610  -2.514   9.692   4.046 -0.4048  0.7316  0.6565
  583MOL0     C78611  -2.456   9.763   3.926 -0.1950 -1.2793  0.5555
  583MOL0     C78612  -2.312   9.823   3.953 -0.4340  0.5157  0.2004
  583MOL0     C78613  -2.316   9.956   4.032 -0.1510  0.6103  0.0516
  583MOL0     C78614  -2.177   9.980   4.093  0.1364 -0.3675  0.5518
  583MOL0    Cl78615  -2.169  10.151   4.119  0.1197  0.1258 -0.2670
  583MOL0     C78616  -2.227   9.473   4.551  0.9010  0.4850 -0.8854
  583MOL0     C78617  -2.118   9.522   4.621  0.0277  0.5395 -0.2224
  583MOL0     O78618  -1.941   9.903   4.577  0.2035 -0.0706 -0.3004
  583MOL0     C78619  -1.770   9.797   4.855  0.2259 -0.2430 -0.5321
  583MOL0     C78620  -1.658   9.810   4.929 -0.8486 -0.2968 -0.0474
  583MOL0     N78621  -0.838   9.888   4.887  0.8592 -0.5987  0.1952
  583MOL0     N78622  -0.771   9.869   4.785  0.7650 -0.7811 -0.8643
  583MOL0     C78623   0.347   9.644   4.350 -0.7519 -0.0707 -0.4739
  583MOL0     C78624   0.451   9.741   4.348  0.7273 -0.9046  0.7198
  583MOL0     C78625   0.780  10.026   4.313 -0.0840  0.2325 -0.3873
  583MOL0     C78626   0.844  10.082   4.423 -0.1203 -0.3669 -0.7804
  583MOL0     C78627   0.972  10.126   4.415 -0.4588  0.2579  0.4656
  583MOL0     C78628   1.040  10.137   4.296  0.1914 -0.9654  0.0492
  583MOL0     O78629   1.170  10.180   4.284  0.1347  0.0813 -0.4809
  583MOL0     C78630   1.267  10.197   4.393 -1.0542 -0.1003  0.4396
  583MOL0     C78631   1.388  10.281   4.340 -0.2099 -0.9350  0.2696
  583MOL0     C78632   1.487  10.311   4.461 -0.0882 -0.4342  0.5466
  583MOL0     C78633   1.615  10.378   4.400  0.2558 -0.2615 -0.6032
  583MOL0     C78634   1.717  10.281   4.354  0.3997  0.3198 -0.5146
  583MOL0     C78635   1.792  10.191   4.326 -0.3163  0.3845 -0.5233
  583MOL0     C78636   0.979  10.083   4.179 -0.4593 -0.3420 -0.0664
  583MOL0     C78637   0.843  10.032   4.193  0.2951  0.1159 -0.3773
  583MOL0     H78638   0.330   9.949   4.108  0.1321 -0.4443 -0.0985
  583MOL0     H78639   0.130   9.787   4.134 -0.2425 -2.0603 -1.0669
  583MOL0     H78640   0.109   9.524   4.483  1.1735 -0.0968  0.3892
  583MOL0     H78641   0.041   9.685   4.451  0.9071 -1.0142  1.1966
  583MOL0     H78642  -0.129   9.535   4.283  0.9400 -1.2128 -2.1452
  583MOL0     H78643  -0.070   9.406   4.389  0.4816  0.1701 -0.1677
  583MOL0     H78644  -0.137   9.566   4.592 -2.3231  2.1970  1.1349
  583MOL0     H78645  -0.228   9.659   4.474 -4.7337 -1.4257  1.0062
  583MOL0     H78646  -0.359   9.507   4.394  1.4592  1.2735 -0.2351
  583MOL0     H78647  -0.301   9.373   4.486 -0.6267 -0.7263 -2.1396
  583MOL0     H78648  -0.394   9.450   4.682 -2.2342 -0.7321  0.2190
  583MOL0     H78649  -0.377   9.620   4.647  0.2253  0.0109  1.4154
  583MOL0     H78650  -0.550   9.602   4.468 -0.1859 -2.6876 -2.2385
  583MOL0     H78651  -0.601   9.441   4.533 -2.3491  0.7284  2.3988
  583MOL0     H78652  -0.659   9.534   4.740  0.4483 -0.6345  0.6169
  583MOL0     H78653  -0.566   9.684   4.719  0.7971 -1.5256  0.0814
  583MOL0     H78654  -0.820   9.630   4.554  2.1889  0.3462 -1.5896
  583MOL0     H78655  -0.722   9.764   4.543 -0.4791 -0.8903  0.1538
  583MOL0     H78656  -0.941   9.586   4.823  2.0641 -1.2942  1.1623
  583MOL0     H78657  -0.953   9.679   5.089 -1.1292 -0.0826  0.1253
  583MOL0     H78658  -0.990   9.851   5.096  1.1344 -2.9609  4.2341
  583MOL0     H78659  -1.170   9.618   4.977 -2.6098  1.4791 -0.5129
  583MOL0     H78660  -1.178   9.760   4.906 -3.5555 -2.7958 -0.7508
  583MOL0     H78661  -1.224   9.863   5.145 -1.7324  1.2573 -1.6869
  583MOL0     H78662  -1.230   9.709   5.193  2.9403  1.4923  0.8475
  583MOL0     H78663  -1.455   9.804   5.137 -0.8898 -0.4687 -1.3270
  583MOL0     H78664  -1.427   9.675   5.026  0.6719  0.0500 -1.9150
  583MOL0     H78665  -1.452   9.954   4.719  1.3388 -0.0160  1.2214
  583MOL0     H78666  -1.701  10.028   4.504  3.2453  1.9813 -1.6486
  583MOL0     H78667  -1.538   9.978   4.525  1.0310 -0.9902 -1.6697
  583MOL0     H78668  -1.642   9.856   4.467  0.0453  0.9002 -0.9156
  583MOL0     H78669  -2.081   9.797   4.432 -3.5125  0.1178 -1.7270
  583MOL0     H78670  -2.283   9.756   4.367  0.7298 -0.5380 -0.6116
  583MOL0     H78671  -2.328   9.400   4.296  1.1560  2.5749  0.2525
  583MOL0     H78672  -2.482   9.345   4.361  0.9532  0.5759  1.8739
  583MOL0     H78673  -2.537   9.398   4.116  1.0513 -4.1858  3.7383
  583MOL0     H78674  -2.603   9.518   4.208 -0.7757  1.5849 -1.2578
  583MOL0     H78675  -2.379   9.534   4.010  2.4280 -0.2891  1.6605
  583MOL0     H78676  -2.343   9.626   4.149 -0.3947  0.5912 -0.4978
  583MOL0     H78677  -2.606   9.641   4.015 -1.4222 -0.0522  4.4494
  583MOL0     H78678  -2.537   9.770   4.119  0.2186  1.6593 -0.1136
  583MOL0     H78679  -2.516   9.841   3.880  2.9946  0.9047 -0.2919
  583MOL0     H78680  -2.443   9.691   3.845 -0.7519 -1.7445  0.8753
  583MOL0     H78681  -2.243   9.748   3.992  0.6255  0.9941 -0.7025
  583MOL0     H78682  -2.256   9.840   3.860 -0.2403 -0.2060  0.1805
  583MOL0     H78683  -2.380   9.950   4.121 -0.5739 -2.6066 -0.3706
  583MOL0     H78684  -2.339  10.037   3.962 -2.7314 -0.9139 -1.0060
  583MOL0     H78685  -2.096   9.959   4.023 -0.8069 -1.7024 -0.1793
  583MOL0     H78686  -2.149   9.926   4.184  1.6812  0.6255  0.6988
  583MOL0     H78687  -2.283   9.387   4.586  2.5793  0.1660  1.1795
  583MOL0     H78688  -2.087   9.475   4.714 -1.9715 -1.1735 -0.3548
  583MOL0     H78689  -1.866   9.767   4.895 -0.8448  1.6285 -1.5672
  583MOL0     H78690  -1.661   9.770   5.030 -0.2333  0.3737  0.2493
  583MOL0     H78691   0.376   9.554   4.403 -1.8414 -0.5666 -0.6955
  583MOL0     H78692   0.546   9.711   4.389  2.0459  3.1112  0.9778
  583MOL0     H78693   0.805  10.087   4.524  2.4436  0.3863  0.2402
  583MOL0     H78694   1.012  10.171   4.506  0.1177 -0.9987  0.8519
  583MOL0     H78695   1.224  10.256   4.473  3.2672  2.9711  0.8396
  583MOL0     H78696   1.302  10.103   4.437  1.5454  0.6630  0.1728
  583MOL0     H78697   1.337  10.371   4.301  0.7760 -1.3835 -2.2485
  583MOL0     H78698   1.439  10.227   4.260 -0.5485 -2.1856  0.8813
  583MOL0     H78699   1.515  10.211   4.496  0.6028 -1.1160 -1.7844
  583MOL0     H78700   1.451  10.370   4.545 -0.3308 -3.2818  2.5745
  583MOL0     H78701   1.668  10.428   4.482  0.4791 -0.4958 -0.6048
  583MOL0     H78702   1.595  10.446   4.317  0.4634  2.8272  1.6965
  583MOL0     H78703   1.855  10.105   4.316 -0.5651 -0.0384  1.3277
  583MOL0     H78704   1.028  10.095   4.083  2.0167  0.7722  1.2460
  583MOL0     H78705   0.792  10.010   4.100  0.4484 -2.1631  0.0131
  584MOL0     O78706   2.348   1.120   8.301 -0.4850  0.7865 -0.7079
  584MOL0     C78707   2.255   1.042   8.304 -0.4057  0.3812 -0.0909
  584MOL0     O78708   2.123   1.077   8.281 -0.6215 -0.2538 -0.1404
  584MOL0     C78709   2.081   1.200   8.238 -0.5239 -0.0877 -0.0488
  584MOL0     C78710   2.147   1.318   8.253 -0.5862 -0.4843  0.2845
  584MOL0     C78711   2.125   1.434   8.179  0.3822 -0.8083 -0.6117
  584MOL0     C78712   2.020   1.442   8.099  0.3007  0.0050  0.8730
  584MOL0     O78713   1.982   1.553   8.031  0.5709 -0.2160  1.1349
  584MOL0     C78714   2.078   1.606   7.941  0.4807 -1.2819  0.3064
  584MOL0     C78715   2.025   1.714   7.856 -0.2739 -0.4832 -0.9541
  584MOL0     C78716   2.121   1.750   7.744  0.1755  0.5456 -0.1562
  584MOL0     C78717   2.143   1.895   7.719  0.0119 -0.8278  0.5019
  584MOL0     C78718   2.299   1.930   7.710 -0.2373  0.1217 -0.7497
  584MOL0     C78719   2.371   1.867   7.589  1.2435  1.0435  0.3404
  584MOL0     C78720   2.521   1.887   7.581 -0.3889 -0.0013 -1.0457
  584MOL0     C78721   2.575   2.014   7.514 -1.2160 -0.2036  0.0492
  584MOL0     N78722   2.569   2.141   7.587 -0.1877 -0.1454  0.7200
  584MOL0     C78723   2.563   2.168   7.722 -0.2159  0.9960 -0.1711
  584MOL0     C78724   2.542   2.304   7.728 -1.1474 -0.9778  0.3170
  584MOL0     C78725   2.522   2.371   7.861  0.0362 -0.3382 -0.1267
  584MOL0     C78726   2.377   2.394   7.906  0.7819 -0.0662 -0.1824
  584MOL0     C78727   2.303   2.268   7.926 -0.3476 -0.0580  0.6718
  584MOL0     C78728   2.175   2.277   8.003  0.5594 -0.3902 -0.4690
  584MOL0     O78729   2.088   2.162   7.981  0.3740 -0.4950 -0.4220
  584MOL0     C78730   2.104   2.066   8.075  0.5442  0.0748 -0.0924
  584MOL0     C78731   2.216   1.980   8.076 -0.2923 -0.0794  0.8030
  584MOL0     C78732   2.243   1.883   8.178  0.1735 -0.3540 -1.1972
  584MOL0     C78733   2.387   1.817   8.179  0.6435 -0.6751  0.2252
  584MOL0     C78734   2.143   1.864   8.282 -0.5279 -0.2349  0.2363
  584MOL0     C78735   2.131   1.743   8.376  0.1126 -0.0480  0.4039
  584MOL0     O78736   2.002   1.736   8.425  0.7192  0.0975 -0.2696
  584MOL0     C78737   1.965   1.637   8.517  0.1105  0.1558  0.4553
  584MOL0     C78738   1.866   1.546   8.478 -0.4910 -0.3955 -0.4402
  584MOL0     C78739   1.815   1.451   8.558 -0.5237  0.3439 -0.5182
  584MOL0     C78740   1.868   1.436   8.685  0.0922 -0.6227 -0.4638
  584MOL0     O78741   1.824   1.336   8.762  0.1923  0.0782  0.2378
  584MOL0     C78742   1.765   1.369   8.893 -0.4702  0.7112 -0.2997
  584MOL0     C78743   1.768   1.243   8.975  0.2097  0.2509 -0.3267
  584MOL0     C78744   1.712   1.252   9.119 -0.6927  0.3265 -0.1218
  584MOL0     C78745   1.734   1.118   9.194  0.7319  0.9050 -1.0861
  584MOL0     C78746   1.658   1.129   9.325 -0.2968 -0.0057 -0.2685
  584MOL0     C78747   1.668   1.002   9.416  0.8624  0.3015 -0.5511
  584MOL0     C78748   1.561   0.995   9.529 -0.1423  0.7076  0.3753
  584MOL0     C78749   1.580   1.073   9.659  0.0381 -0.2225  0.1760
  584MOL0    Cl78750   1.579   1.246   9.635 -0.5226 -0.1771 -0.0956
  584MOL0     C78751   1.968   1.518   8.727  0.1355 -0.2981  0.6262
  584MOL0     C78752   2.011   1.625   8.648 -0.9021 -0.1058  0.0750
  584MOL0     O78753   2.227   1.679   8.411 -0.2794  1.0654 -0.3707
  584MOL0     C78754   2.034   1.957   8.282 -0.1746 -0.5081 -0.4574
  584MOL0     C78755   2.017   2.056   8.183  0.3202 -0.2451  0.5586
  584MOL0     N78756   2.533   2.357   7.610  0.1851  0.1944  0.2929
  584MOL0     N78757   2.544   2.268   7.526  0.3434  0.0185  0.1020
  584MOL0     C78758   1.936   1.326   8.080  1.2935 -0.9994 -1.1232
  584MOL0     C78759   1.972   1.208   8.149 -0.0497 -0.0789 -0.7059
  584MOL0     C78760   2.276   0.898   8.337  0.2466  0.4783 -0.1406
  584MOL0     C78761   2.402   0.843   8.344 -0.0617 -0.7492 -1.0547
  584MOL0     C78762   2.405   0.703   8.370 -0.1060 -0.0323  0.1882
  584MOL0     C78763   2.291   0.634   8.407 -0.2103 -2.1753  0.0603
  584MOL0     O78764   2.316   0.501   8.432 -0.5098  0.5056  0.1091
  584MOL0     C78765   2.208   0.404   8.468  0.3928 -0.9161 -0.3175
  584MOL0     C78766   2.102   0.371   8.363 -0.7797 -0.3645 -0.7863
  584MOL0     C78767   2.001   0.275   8.435  0.0076 -0.0781 -0.8814
  584MOL0     C78768   1.890   0.220   8.350 -0.1326  0.4358 -0.4244
  584MOL0     C78769   1.803   0.333   8.293 -0.5901  0.5470 -1.4640
  584MOL0     C78770   1.741   0.418   8.235 -0.1214  0.1241  0.5949
  584MOL0     C78771   2.164   0.694   8.412 -1.1014 -0.5587 -1.0955
  584MOL0     C78772   2.160   0.821   8.363  0.8292  0.2076 -0.1817
  584MOL0     H78773   2.229   1.332   8.322  0.7664 -0.4403 -1.2676
  584MOL0     H78774   2.190   1.520   8.193  0.4191 -0.7787 -0.9689
  584MOL0     H78775   2.153   1.654   8.005  1.3939 -0.4094 -1.3564
  584MOL0     H78776   2.123   1.531   7.875  0.7773 -0.0216 -0.9701
  584MOL0     H78777   1.934   1.683   7.804 -2.0725  1.2101  1.0081
  584MOL0     H78778   2.009   1.798   7.924  4.2985 -0.7602  0.8324
  584MOL0     H78779   2.216   1.706   7.776 -0.7655 -0.5358  1.2885
  584MOL0     H78780   2.088   1.710   7.648 -0.3664  3.7874 -1.4377
  584MOL0     H78781   2.098   1.921   7.622  1.1336 -1.1055 -0.1102
  584MOL0     H78782   2.109   1.961   7.799  0.9246 -1.9673  1.8744
  584MOL0     H78783   2.314   2.037   7.697 -2.0487  0.2285 -2.4713
  584MOL0     H78784   2.339   1.895   7.805 -0.8087  0.6293 -0.3157
  584MOL0     H78785   2.348   1.760   7.583 -0.9552  1.2773  2.7007
  584MOL0     H78786   2.313   1.900   7.503  1.4674  0.4515 -0.0469
  584MOL0     H78787   2.553   1.881   7.685  0.7850 -0.3344 -1.4133
  584MOL0     H78788   2.560   1.797   7.532  1.1864  1.4000 -2.4595
  584MOL0     H78789   2.544   2.041   7.413  1.2894  1.3180 -0.3873
  584MOL0     H78790   2.679   1.992   7.490 -0.8001  2.6169 -1.0066
  584MOL0     H78791   2.575   2.104   7.809 -1.0176 -0.6307 -1.2009
  584MOL0     H78792   2.570   2.317   7.943  0.2892  1.0173  0.6573
  584MOL0     H78793   2.554   2.476   7.858 -2.2716  0.4593  0.9972
  584MOL0     H78794   2.326   2.457   7.833  3.7232 -1.3485 -3.6231
  584MOL0     H78795   2.384   2.448   8.001  0.7820  0.5141 -0.5118
  584MOL0     H78796   2.373   2.201   7.976  1.2843  1.3549  0.3857
  584MOL0     H78797   2.280   2.222   7.829 -1.7892 -2.4442  2.0628
  584MOL0     H78798   2.118   2.364   7.970  2.9445 -0.6018 -6.3083
  584MOL0     H78799   2.197   2.282   8.110 -1.3169 -2.5662  0.1160
  584MOL0     H78800   2.296   2.002   8.006 -2.1862  0.7046 -1.2201
  584MOL0     H78801   2.401   1.747   8.262  0.0305  2.2518  2.9847
  584MOL0     H78802   2.409   1.769   8.083  2.5635  1.4949 -0.5144
  584MOL0     H78803   2.467   1.892   8.187 -0.5692  1.6054 -4.7526
  584MOL0     H78804   1.836   1.566   8.376 -3.9944 -1.5798  0.2421
  584MOL0     H78805   1.730   1.388   8.530 -0.3250 -0.9431  1.5642
  584MOL0     H78806   1.812   1.458   8.938  0.8679  1.0845 -2.2892
  584MOL0     H78807   1.658   1.389   8.884 -0.0910  2.9453 -0.5759
  584MOL0     H78808   1.722   1.152   8.934  0.3006 -0.1719  0.4940
  584MOL0     H78809   1.873   1.214   8.987 -0.0743 -0.9493 -0.6431
  584MOL0     H78810   1.605   1.272   9.121 -0.7927  0.1161 -1.8675
  584MOL0     H78811   1.766   1.333   9.168  1.7479 -2.0584  1.4306
  584MOL0     H78812   1.693   1.047   9.121  1.0326  2.0505 -2.4232
  584MOL0     H78813   1.840   1.108   9.218  0.5187  0.3044 -0.3763
  584MOL0     H78814   1.550   1.134   9.306 -0.5762 -1.0476  0.9006
  584MOL0     H78815   1.704   1.216   9.372  0.8288 -0.4583 -0.5010
  584MOL0     H78816   1.658   0.911   9.356  0.9445  1.7534 -2.9219
  584MOL0     H78817   1.764   1.009   9.468  0.2734  3.3687  0.2841
  584MOL0     H78818   1.555   0.890   9.560 -0.6169  0.2105 -1.3248
  584MOL0     H78819   1.461   1.022   9.494 -0.5670 -0.6222  0.5057
  584MOL0     H78820   1.679   1.050   9.699 -0.2634 -0.0636  1.0431
  584MOL0     H78821   1.500   1.049   9.730 -0.2742  1.1813  0.3328
  584MOL0     H78822   2.009   1.512   8.827 -2.3063  1.7316  1.8712
  584MOL0     H78823   2.089   1.692   8.682 -1.6696  0.8702 -0.0286
  584MOL0     H78824   1.949   1.964   8.349 -0.6356 -0.2125 -1.0665
  584MOL0     H78825   1.935   2.128   8.185 -2.7258 -3.4404  2.6056
  584MOL0     H78826   1.854   1.326   8.009  3.5393  2.8592 -4.1195
  584MOL0     H78827   1.917   1.116   8.139 -1.6684  0.7903 -0.1649
  584MOL0     H78828   2.490   0.904   8.326  0.3031 -0.4969  1.3023
  584MOL0     H78829   2.495   0.643   8.367 -0.6423 -0.9094  1.1833
  584MOL0     H78830   2.254   0.314   8.508 -1.6858 -1.4682  1.0088
  584MOL0     H78831   2.155   0.444   8.556  1.2797 -2.3162  0.9046
  584MOL0     H78832   2.147   0.327   8.274 -0.7616  0.3600 -1.1385
  584MOL0     H78833   2.053   0.458   8.319  0.6600 -0.4926 -2.7440
  584MOL0     H78834   1.959   0.347   8.506 -1.1139 -1.3439 -0.2123
  584MOL0     H78835   2.037   0.196   8.502 -0.6406  1.4482  1.3705
  584MOL0     H78836   1.847   0.141   8.413  0.6817 -0.5445 -1.0633
  584MOL0     H78837   1.927   0.149   8.276 -4.0763 -3.5176  0.9707
  584MOL0     H78838   1.682   0.501   8.204  1.5502  0.7700 -1.0760
  584MOL0     H78839   2.076   0.637   8.442 -1.5930  2.2144  3.9194
  584MOL0     H78840   2.065   0.873   8.368 -0.1116 -1.5480  2.2639
  585MOL0     O78841   8.298   9.200   8.276  0.7425 -0.0180  0.4672
  585MOL0     C78842   8.171   9.185   8.276 -0.1548  0.5329  0.3971
  585MOL0     O78843   8.101   9.131   8.377 -0.6749 -0.0760 -0.1653
  585MOL0     C78844   8.146   9.022   8.441 -0.7904 -0.5430 -0.3008
  585MOL0     C78845   8.210   8.913   8.378 -0.4162  0.3987  0.1678
  585MOL0     C78846   8.259   8.805   8.452  0.0550 -0.0126  0.3255
  585MOL0     C78847   8.257   8.808   8.594 -0.2429  0.6446  0.2631
  585MOL0     O78848   8.330   8.706   8.653  0.0486  0.7228 -0.3316
  585MOL0     C78849   8.288   8.667   8.788  0.1744  0.9617 -0.2770
  585MOL0     C78850   8.155   8.585   8.788 -0.3098  0.3273 -1.0162
  585MOL0     C78851   8.064   8.627   8.895 -0.0022  0.9898 -0.0501
  585MOL0     C78852   8.124   8.612   9.036 -0.1755 -0.4334 -0.0084
  585MOL0     C78853   8.122   8.463   9.073  0.1189  0.5017 -1.2580
  585MOL0     C78854   8.180   8.442   9.216  0.5709  0.4538  0.0673
  585MOL0     C78855   8.193   8.290   9.243 -0.4459 -0.9237  0.0039
  585MOL0     C78856   8.155   8.264   9.397  0.4266 -0.7790  0.0844
  585MOL0     N78857   8.123   8.121   9.424  0.8249  0.0541 -0.1625
  585MOL0     C78858   8.016   8.038   9.377  0.7586 -0.1792 -0.0628
  585MOL0     C78859   8.021   7.935   9.460  1.0919  0.3755 -0.1210
  585MOL0     C78860   7.912   7.827   9.475  0.4844 -0.3684  0.5920
  585MOL0     C78861   7.791   7.889   9.551  0.1407  0.2961 -0.2182
  585MOL0     C78862   7.649   7.827   9.519  0.1987 -0.3951  0.6821
  585MOL0     C78863   7.537   7.938   9.523 -0.5469 -0.1172  0.7710
  585MOL0     O78864   7.545   7.986   9.659 -0.4129  0.8728 -0.2172
  585MOL0     C78865   7.443   8.061   9.724 -0.7651 -0.6156 -1.4334
  585MOL0     C78866   7.328   8.119   9.656 -0.4879 -0.2277  0.6119
  585MOL0     C78867   7.217   8.189   9.729 -0.1266  0.8350  0.7068
  585MOL0     C78868   7.088   8.233   9.650 -0.1029  0.6088  0.2944
  585MOL0     C78869   7.242   8.219   9.865 -0.4377  0.2540  0.4981
  585MOL0     C78870   7.142   8.283   9.959  1.1035  0.3594 -0.3747
  585MOL0     O78871   7.022   8.317   9.906 -0.7526  0.3048  1.3336
  585MOL0     C78872   6.907   8.367   9.964 -0.5153  0.4322 -1.2319
  585MOL0     C78873   6.847   8.325  10.082  0.0251  0.1606 -0.8417
  585MOL0     C78874   6.706   8.356  10.114 -0.3709  0.0453  0.5978
  585MOL0     C78875   6.641   8.438  10.026  0.7993 -0.6252  0.2261
  585MOL0     O78876   6.515   8.476  10.056 -0.3481 -0.2039  0.1921
  585MOL0     C78877   6.515   8.533  10.184  1.1386 -1.2425  0.6553
  585MOL0     C78878   6.370   8.605  10.195 -0.5540 -0.3691 -0.7834
  585MOL0     C78879   6.259   8.493  10.214  0.3791 -0.5237  0.3244
  585MOL0     C78880   6.236   8.454  10.366 -0.7544  0.1895  0.0032
  585MOL0     C78881   6.122   8.353  10.400 -0.1538  0.4180 -0.3123
  585MOL0     C78882   6.164   8.210  10.354  0.2161  1.0190 -0.4338
  585MOL0     C78883   6.288   8.158  10.425 -0.8844 -0.8533  0.4764
  585MOL0     C78884   6.334   8.022  10.375 -0.1907  0.1792  0.3988
  585MOL0    Cl78885   6.479   7.964  10.450  0.2854  0.5628 -0.2295
  585MOL0     C78886   6.693   8.476   9.911 -0.7465 -0.5539  0.2073
  585MOL0     C78887   6.825   8.439   9.881  0.2748 -0.4093  0.1487
  585MOL0     O78888   7.176   8.304  10.071 -0.4005 -0.2825 -0.1056
  585MOL0     C78889   7.356   8.175   9.932  0.2187 -0.5396 -0.8258
  585MOL0     C78890   7.456   8.103   9.865 -1.1387  0.2397  0.3900
  585MOL0     N78891   8.126   7.944   9.542  0.2182  0.3742 -0.0462
  585MOL0     N78892   8.183   8.056   9.524  0.1465 -0.8148 -0.0864
  585MOL0     C78893   8.198   8.922   8.655  0.4343 -0.8716 -0.1164
  585MOL0     C78894   8.142   9.024   8.582 -0.1083  0.4968  0.6284
  585MOL0     C78895   8.099   9.235   8.155  0.3321 -0.1295 -0.0369
  585MOL0     C78896   8.160   9.262   8.030 -0.3671 -0.4947 -0.0581
  585MOL0     C78897   8.085   9.313   7.926  0.3316  0.1685  0.2154
  585MOL0     C78898   7.943   9.337   7.937  0.5185  0.0351  0.9702
  585MOL0     O78899   7.861   9.394   7.848 -0.1576 -0.5238  0.0874
  585MOL0     C78900   7.922   9.441   7.723 -0.0270 -0.0826 -0.1284
  585MOL0     C78901   7.820   9.503   7.630  0.7288 -0.3248  0.5022
  585MOL0     C78902   7.897   9.546   7.501  0.2714 -0.1847  0.4987
  585MOL0     C78903   7.826   9.652   7.405 -0.0170  0.5310  1.2502
  585MOL0     C78904   7.811   9.772   7.484  0.2607  0.0514  0.0768
  585MOL0     C78905   7.797   9.862   7.559 -0.6156  0.0036  0.6184
  585MOL0     C78906   7.886   9.307   8.055 -0.0563  0.4630  0.6665
  585MOL0     C78907   7.964   9.257   8.166 -0.0110 -0.4311 -0.3357
  585MOL0     H78908   8.222   8.917   8.270 -0.3823 -2.3272  0.0154
  585MOL0     H78909   8.311   8.716   8.422  0.3792  0.5036 -0.6782
  585MOL0     H78910   8.367   8.601   8.825  4.2489  5.3094 -0.3372
  585MOL0     H78911   8.279   8.752   8.857 -1.5550 -0.7963  1.8450
  585MOL0     H78912   8.097   8.602   8.697 -1.5076 -3.1939 -1.0679
  585MOL0     H78913   8.185   8.480   8.800  0.7153  0.8824  1.9982
  585MOL0     H78914   8.041   8.733   8.888 -2.8094  0.3336 -2.2758
  585MOL0     H78915   7.968   8.576   8.887 -0.6569  2.1910 -0.0647
  585MOL0     H78916   8.224   8.655   9.047  0.1634 -1.0854 -0.4831
  585MOL0     H78917   8.057   8.664   9.105  0.0125 -0.9113  0.5397
  585MOL0     H78918   8.017   8.433   9.077  0.3275 -0.1251 -0.3093
  585MOL0     H78919   8.191   8.400   9.015  1.1260 -1.4837  1.8511
  585MOL0     H78920   8.276   8.487   9.240  2.1433 -2.5927 -0.0306
  585MOL0     H78921   8.106   8.487   9.283  1.1631 -0.7844  1.6149
  585MOL0     H78922   8.134   8.229   9.174 -0.8284  1.5789 -2.0310
  585MOL0     H78923   8.298   8.260   9.232 -0.4236 -1.0342  0.4787
  585MOL0     H78924   8.073   8.329   9.430  1.4135  0.4398  0.2269
  585MOL0     H78925   8.237   8.292   9.464  0.6132 -3.2073  0.9885
  585MOL0     H78926   7.946   8.068   9.299  1.1471  0.6131 -0.1175
  585MOL0     H78927   7.878   7.802   9.374  1.5419 -1.0414  0.3801
  585MOL0     H78928   7.956   7.736   9.518 -0.5126 -1.7070 -1.0715
  585MOL0     H78929   7.790   7.995   9.525  0.9852  1.0573  2.4895
  585MOL0     H78930   7.810   7.874   9.658  1.1887 -0.4895 -0.4898
  585MOL0     H78931   7.629   7.751   9.594  2.2719 -1.3524  0.3199
  585MOL0     H78932   7.648   7.781   9.420 -0.8188 -1.1378  1.0301
  585MOL0     H78933   7.440   7.900   9.491  0.0326 -0.1840 -0.9927
  585MOL0     H78934   7.559   8.017   9.451  2.2885 -2.3298 -1.0546
  585MOL0     H78935   7.322   8.113   9.548 -1.5979  0.7906  0.6022
  585MOL0     H78936   7.057   8.337   9.670 -0.1033  0.9145 -1.2241
  585MOL0     H78937   7.102   8.216   9.543  1.2744 -0.8812  0.6668
  585MOL0     H78938   7.003   8.170   9.676 -2.3416  1.8460 -3.3539
  585MOL0     H78939   6.896   8.256  10.150 -0.8287 -0.4230 -0.8046
  585MOL0     H78940   6.662   8.323  10.208 -0.0072 -2.2725 -0.0006
  585MOL0     H78941   6.515   8.454  10.261  2.6363 -0.9256  1.0170
  585MOL0     H78942   6.595   8.606  10.197 -1.0186  1.7355 -1.4107
  585MOL0     H78943   6.371   8.670  10.283 -1.1934  0.2141 -1.2005
  585MOL0     H78944   6.339   8.660  10.105 -0.5058  0.9953  0.0057
  585MOL0     H78945   6.278   8.408  10.146  0.5453  2.9045 -4.4466
  585MOL0     H78946   6.166   8.535  10.176 -0.1152 -0.0972  1.9615
  585MOL0     H78947   6.333   8.430  10.411 -1.1781 -0.4959  0.5651
  585MOL0     H78948   6.207   8.539  10.429  2.1586 -0.6475  2.7720
  585MOL0     H78949   6.029   8.376  10.347 -3.1824 -0.5177  4.0127
  585MOL0     H78950   6.095   8.358  10.506  0.7341  1.3933 -0.1249
  585MOL0     H78951   6.076   8.148  10.370  1.1497 -0.5613 -1.1180
  585MOL0     H78952   6.183   8.212  10.246 -2.5136 -0.1923 -1.0174
  585MOL0     H78953   6.260   8.160  10.530 -0.7259  0.8285  0.5103
  585MOL0     H78954   6.373   8.224  10.408  0.2678 -1.9484  1.7591
  585MOL0     H78955   6.356   8.017  10.268  0.7230 -4.3785  0.6122
  585MOL0     H78956   6.255   7.951  10.401 -0.7959  0.0163 -1.7021
  585MOL0     H78957   6.643   8.534   9.834  0.1483 -1.3038 -0.9819
  585MOL0     H78958   6.894   8.472   9.804  1.5962 -0.0455  1.4498
  585MOL0     H78959   7.370   8.191  10.038  2.7233 -2.2507 -0.8041
  585MOL0     H78960   7.544   8.075   9.923 -2.6683 -3.3067  1.2444
  585MOL0     H78961   8.209   8.923   8.763  2.6684 -0.2533 -0.3019
  585MOL0     H78962   8.095   9.098   8.645 -0.5894  0.4537  0.3221
  585MOL0     H78963   8.268   9.258   8.025 -0.1385  3.2141 -0.4111
  585MOL0     H78964   8.138   9.349   7.839 -0.1346 -2.1679 -1.1351
  585MOL0     H78965   8.004   9.506   7.753  0.1692  0.5786 -1.9669
  585MOL0     H78966   7.966   9.353   7.675  0.0187  0.9241 -1.9978
  585MOL0     H78967   7.784   9.594   7.680  2.3786  1.7951 -1.9561
  585MOL0     H78968   7.737   9.432   7.619  1.6704 -1.6539  1.6144
  585MOL0     H78969   7.899   9.459   7.434  0.0633 -2.5619  3.3812
  585MOL0     H78970   7.998   9.573   7.535 -0.3072 -0.0989  2.2570
  585MOL0     H78971   7.731   9.607   7.374  1.3156 -1.8843  0.3770
  585MOL0     H78972   7.880   9.669   7.312  1.3761 -2.4443  1.3888
  585MOL0     H78973   7.781   9.944   7.625  1.1104  1.1520 -0.3023
  585MOL0     H78974   7.781   9.312   8.084  0.1233  4.2891  1.2362
  585MOL0     H78975   7.912   9.237   8.259  2.1175 -0.7814  0.8255
  586MOL0     O78976   0.751   9.939   6.118 -0.3518 -0.6087 -0.3787
  586MOL0     C78977   0.746   9.913   5.999 -0.8913  0.3414 -0.1759
  586MOL0     O78978   0.632   9.892   5.926 -0.3998  0.6269  0.6686
  586MOL0     C78979   0.516   9.914   5.989  0.5048  0.1971  0.1943
  586MOL0     C78980   0.439   9.810   6.040 -0.4483  0.8285 -0.7484
  586MOL0     C78981   0.330   9.832   6.111  1.1737 -0.1667 -1.0512
  586MOL0     C78982   0.261   9.960   6.098  0.0841  0.3193  0.3187
  586MOL0     O78983   0.146   9.990   6.171 -0.1935  0.1403  0.0765
  586MOL0     C78984   0.064   9.891   6.216  1.2775  0.5896 -0.5383
  586MOL0     C78985  -0.070   9.957   6.247 -0.5717  0.2834  0.0199
  586MOL0     C78986  -0.075  10.054   6.370 -0.3277  0.2894  0.1170
  586MOL0     C78987  -0.222  10.095   6.383 -0.6522 -0.1245 -0.0574
  586MOL0     C78988  -0.250  10.180   6.510  0.0444 -0.4455  0.3066
  586MOL0     C78989  -0.255  10.092   6.639  0.9723 -0.7345  0.0118
  586MOL0     C78990  -0.377   9.989   6.647  0.1343 -0.2041  0.4658
  586MOL0     C78991  -0.406   9.927   6.789  0.2954 -0.3911  0.9891
  586MOL0     N78992  -0.289   9.857   6.820  0.1921  0.0231 -0.4515
  586MOL0     C78993  -0.247   9.735   6.772 -0.0075 -1.3720 -0.3892
  586MOL0     C78994  -0.169   9.677   6.868  0.3897  0.4500 -0.4140
  586MOL0     C78995  -0.113   9.540   6.867  0.7464 -0.3210  0.0562
  586MOL0     C78996  -0.202   9.446   6.956 -0.6095 -0.5357 -0.2951
  586MOL0     C78997  -0.152   9.301   6.929  0.1830  0.2016  0.2692
  586MOL0     C78998  -0.250   9.187   6.964  0.3777 -0.3531 -0.5344
  586MOL0     O78999  -0.382   9.216   6.912 -0.0787  0.4629 -0.2008
  586MOL0     C79000  -0.481   9.118   6.937 -0.5786 -0.1492 -0.8408
  586MOL0     C79001  -0.608   9.138   6.875  0.5007  0.1689  0.3636
  586MOL0     C79002  -0.714   9.055   6.886 -0.0316  0.4320  0.2129
  586MOL0     C79003  -0.815   9.090   6.786  0.7516  0.4355 -0.1765
  586MOL0     C79004  -0.698   8.933   6.971  0.6850 -0.3539 -0.7948
  586MOL0     C79005  -0.820   8.843   6.993  0.3973  0.5057  0.3717
  586MOL0     O79006  -0.802   8.743   7.082 -0.5040 -0.0267 -0.2995
  586MOL0     C79007  -0.886   8.636   7.111  0.3362 -0.0914 -0.2027
  586MOL0     C79008  -0.830   8.514   7.138 -0.2674  0.2690  0.7360
  586MOL0     C79009  -0.916   8.403   7.174 -0.7683 -1.1584  0.6931
  586MOL0     C79010  -1.044   8.418   7.205 -0.5500 -0.3805 -0.9214
  586MOL0     O79011  -1.110   8.311   7.249 -0.3945  0.0149  0.1132
  586MOL0     C79012  -1.168   8.222   7.159  0.7886  0.5754  0.0928
  586MOL0     C79013  -1.317   8.196   7.218 -0.7627 -0.5749  0.2901
  586MOL0     C79014  -1.401   8.322   7.242  0.4875 -1.1840  0.6667
  586MOL0     C79015  -1.539   8.276   7.297  0.4223  0.8087 -0.2805
  586MOL0     C79016  -1.640   8.387   7.335  0.5962 -0.0959  0.7677
  586MOL0     C79017  -1.581   8.497   7.416 -0.1200 -0.3629  0.4335
  586MOL0     C79018  -1.686   8.603   7.456  0.7701  0.3992 -0.3025
  586MOL0     C79019  -1.677   8.648   7.596 -0.5807 -0.3047 -0.4785
  586MOL0    Cl79020  -1.701   8.511   7.718  0.0290 -0.0873  0.0773
  586MOL0     C79021  -1.099   8.551   7.182 -0.1272 -0.1600 -0.7254
  586MOL0     C79022  -1.024   8.653   7.130 -0.3020 -0.2857  0.5226
  586MOL0     O79023  -0.923   8.844   6.917 -0.3919  0.7973  0.2882
  586MOL0     C79024  -0.578   8.904   7.030 -0.1050 -0.2454  0.1843
  586MOL0     C79025  -0.468   8.990   7.007 -0.4753 -0.5598 -0.2546
  586MOL0     N79026  -0.143   9.770   6.964 -0.0643  0.3028  0.3452
  586MOL0     N79027  -0.205   9.877   6.930  0.0904 -0.1883 -0.0918
  586MOL0     C79028   0.326  10.062   6.032  1.0499 -0.1689 -0.0837
  586MOL0     C79029   0.449  10.039   5.971 -0.1533 -0.2371 -0.6171
  586MOL0     C79030   0.872   9.879   5.934 -0.4698  0.2382 -0.8493
  586MOL0     C79031   0.869   9.852   5.797 -0.0981 -0.0943  0.4027
  586MOL0     C79032   0.981   9.802   5.731  0.4002 -0.3580  0.4463
  586MOL0     C79033   1.097   9.788   5.799  0.1242 -0.0809  0.1706
  586MOL0     O79034   1.200   9.735   5.732  0.4069  0.1560  0.3114
  586MOL0     C79035   1.306   9.827   5.688  0.1993  1.0618  0.6221
  586MOL0     C79036   1.399   9.735   5.607 -0.1626  0.0426 -0.9815
  586MOL0     C79037   1.481   9.652   5.710  0.2765 -0.5447  0.7537
  586MOL0     C79038   1.591   9.596   5.628 -0.0403 -0.4671 -0.2388
  586MOL0     C79039   1.700   9.523   5.697  0.5402  0.2404  0.2772
  586MOL0     C79040   1.798   9.465   5.742 -0.5896 -0.2120 -0.5891
  586MOL0     C79041   1.107   9.814   5.934  0.5240 -0.0500 -0.3779
  586MOL0     C79042   0.994   9.860   6.008 -0.0779  0.0046 -0.0384
  586MOL0     H79043   0.495   9.718   6.051 -1.2628  0.6908  3.9833
  586MOL0     H79044   0.297   9.749   6.174  2.2838  0.6203  0.6453
  586MOL0     H79045   0.061   9.813   6.140  2.5056 -1.8571  1.7550
  586MOL0     H79046   0.100   9.851   6.311  3.3561  2.7620 -0.2936
  586MOL0     H79047  -0.102  10.007   6.155  0.4706 -0.0585 -0.5444
  586MOL0     H79048  -0.135   9.872   6.269  1.0022 -0.8567  0.4640
  586MOL0     H79049  -0.031  10.015   6.462  2.8694 -0.5875 -1.6250
  586MOL0     H79050  -0.027  10.150   6.351 -1.1362  0.1309 -3.3627
  586MOL0     H79051  -0.253  10.158   6.299 -0.4879  2.1004  1.4780
  586MOL0     H79052  -0.282  10.004   6.390  2.5470 -2.6172 -1.8501
  586MOL0     H79053  -0.180  10.264   6.519 -0.3281 -0.1918  0.8910
  586MOL0     H79054  -0.347  10.223   6.484  1.1649  0.8077 -2.0404
  586MOL0     H79055  -0.159  10.051   6.671  1.0300 -0.0194  0.7835
  586MOL0     H79056  -0.272  10.172   6.712  0.2550  0.0661 -0.9945
  586MOL0     H79057  -0.471  10.038   6.618 -0.8139 -1.1281  1.8254
  586MOL0     H79058  -0.363   9.902   6.583  2.6554 -1.7682  2.9355
  586MOL0     H79059  -0.496   9.864   6.785  0.8610 -1.4848  3.2719
  586MOL0     H79060  -0.432  10.003   6.864 -0.6926  0.6596 -0.3766
  586MOL0     H79061  -0.290   9.685   6.686  0.1154 -0.3897 -1.0395
  586MOL0     H79062  -0.114   9.515   6.760 -2.4769  0.5619 -0.2301
  586MOL0     H79063  -0.009   9.548   6.902  0.5268 -3.8826  1.8857
  586MOL0     H79064  -0.307   9.468   6.935 -1.4206 -0.4100  3.2388
  586MOL0     H79065  -0.194   9.464   7.064  1.7440 -0.3176 -0.4510
  586MOL0     H79066  -0.061   9.277   6.985  1.2901  0.1056 -1.4845
  586MOL0     H79067  -0.134   9.280   6.823 -2.3498 -2.2313  0.1998
  586MOL0     H79068  -0.258   9.174   7.072 -4.7096 -2.0023 -0.8741
  586MOL0     H79069  -0.214   9.096   6.916  0.6049 -0.2218 -0.6172
  586MOL0     H79070  -0.611   9.230   6.818 -0.9161  0.5603  1.0132
  586MOL0     H79071  -0.827   9.005   6.718 -1.2617  1.6038 -1.3491
  586MOL0     H79072  -0.907   9.125   6.833 -0.0846  3.2574 -3.5043
  586MOL0     H79073  -0.782   9.175   6.726 -1.5066  0.0912 -2.0073
  586MOL0     H79074  -0.724   8.506   7.117 -0.3127  3.5696 -1.6235
  586MOL0     H79075  -0.875   8.303   7.161 -1.4134 -1.2136 -1.3870
  586MOL0     H79076  -1.175   8.267   7.059  1.0530  1.2846  0.3901
  586MOL0     H79077  -1.119   8.124   7.154 -0.2983 -0.0218  0.7574
  586MOL0     H79078  -1.373   8.125   7.156  0.9740  0.8197 -3.0861
  586MOL0     H79079  -1.301   8.159   7.320  0.4931  1.4986  0.8938
  586MOL0     H79080  -1.397   8.372   7.145 -0.3616 -0.9672  0.7384
  586MOL0     H79081  -1.355   8.389   7.316 -1.7370  0.0968  0.9646
  586MOL0     H79082  -1.587   8.214   7.221  0.6158  0.6070 -0.2384
  586MOL0     H79083  -1.527   8.207   7.381 -0.6149 -0.9770 -1.5108
  586MOL0     H79084  -1.713   8.348   7.407 -0.8333  2.2273  0.6856
  586MOL0     H79085  -1.686   8.435   7.249  3.4952 -1.5468 -1.7836
  586MOL0     H79086  -1.531   8.449   7.500  2.7281 -1.8835 -1.9252
  586MOL0     H79087  -1.500   8.537   7.352 -0.1650 -0.8600  0.0583
  586MOL0     H79088  -1.785   8.562   7.436 -0.1563  2.4451 -0.2025
  586MOL0     H79089  -1.673   8.693   7.395  3.6200 -1.3041 -2.4291
  586MOL0     H79090  -1.752   8.721   7.627  2.7885  1.9561  3.2302
  586MOL0     H79091  -1.581   8.701   7.601 -1.5839  1.6179 -0.7862
  586MOL0     H79092  -1.200   8.566   7.220  0.8483  0.0580  1.9525
  586MOL0     H79093  -1.075   8.746   7.106 -0.7699 -1.3126 -3.0007
  586MOL0     H79094  -0.552   8.813   7.081  3.4028  0.5123 -0.0461
  586MOL0     H79095  -0.367   8.969   7.039  1.9129  0.2157 -6.0538
  586MOL0     H79096   0.288  10.164   6.032 -0.1484 -0.5913  1.1702
  586MOL0     H79097   0.490  10.126   5.921  0.5423 -2.1707 -3.6680
  586MOL0     H79098   0.772   9.865   5.752 -0.4289 -0.4247  1.0019
  586MOL0     H79099   0.987   9.792   5.623  1.9505 -1.6499  0.6113
  586MOL0     H79100   1.272   9.900   5.614  1.4272 -1.0712 -2.2473
  586MOL0     H79101   1.360   9.871   5.773  0.9483  0.3927  0.5084
  586MOL0     H79102   1.467   9.804   5.556 -0.4544  0.3141 -1.0125
  586MOL0     H79103   1.347   9.672   5.534 -0.9796 -0.7645  0.2582
  586MOL0     H79104   1.408   9.586   5.758 -3.4708  1.8372 -1.1492
  586MOL0     H79105   1.529   9.719   5.781  1.0058  1.3722 -1.4132
  586MOL0     H79106   1.641   9.683   5.584 -0.3243  0.0456  0.4245
  586MOL0     H79107   1.556   9.539   5.542 -1.7166 -1.7965  1.2365
  586MOL0     H79108   1.894   9.423   5.766 -0.6799 -0.4514 -0.6447
  586MOL0     H79109   1.191   9.780   5.993 -1.5807 -0.5822  2.5402
  586MOL0     H79110   1.001   9.878   6.115 -0.2204 -1.2129  0.1804
  587MOL0     O79111   3.829   5.212   9.539 -0.3478 -0.0312  0.0574
  587MOL0     C79112   3.901   5.187   9.445  0.1649  0.2835 -0.1888
  587MOL0     O79113   3.867   5.223   9.320 -0.6193  0.4920 -0.3789
  587MOL0     C79114   3.743   5.276   9.298  0.0708  0.1090  1.0753
  587MOL0     C79115   3.739   5.403   9.241  0.4735  0.6219 -0.3362
  587MOL0     C79116   3.619   5.445   9.193  0.6228  0.5076  0.2091
  587MOL0     C79117   3.500   5.383   9.224  1.0836  0.5018 -0.7503
  587MOL0     O79118   3.388   5.436   9.180 -0.1608 -0.2605  0.0076
  587MOL0     C79119   3.262   5.385   9.221 -0.4867  0.0080 -0.6316
  587MOL0     C79120   3.155   5.470   9.153 -0.5732 -0.1088 -1.0989
  587MOL0     C79121   3.022   5.433   9.222 -0.2600  0.1598  0.0038
  587MOL0     C79122   2.996   5.491   9.371  1.4853 -0.5002  0.7060
  587MOL0     C79123   2.857   5.469   9.416 -0.0268  0.2941 -0.5990
  587MOL0     C79124   2.849   5.336   9.485  0.8628  0.1295  0.2277
  587MOL0     C79125   2.714   5.310   9.550 -0.2595 -0.6870  0.2239
  587MOL0     C79126   2.594   5.287   9.459  0.5687 -0.2806 -0.3288
  587MOL0     N79127   2.609   5.182   9.357  0.3982  1.0880 -0.0389
  587MOL0     C79128   2.600   5.045   9.372 -0.5333 -0.7487  0.1512
  587MOL0     C79129   2.622   4.989   9.251  0.3431 -0.7718 -0.5969
  587MOL0     C79130   2.605   4.844   9.226 -0.2338  0.7269 -0.3580
  587MOL0     C79131   2.702   4.764   9.308 -0.9436  0.8663 -1.1849
  587MOL0     C79132   2.848   4.810   9.285 -0.3160  0.3088 -0.0135
  587MOL0     C79133   2.943   4.714   9.361 -0.4650  0.4337 -0.7057
  587MOL0     O79134   2.921   4.709   9.507  0.3940 -0.9392  0.6888
  587MOL0     C79135   3.022   4.639   9.578  0.3493 -0.7550  0.7197
  587MOL0     C79136   3.035   4.660   9.720 -0.7499  0.8270  0.4134
  587MOL0     C79137   3.133   4.588   9.798 -0.0441  0.7686 -0.0478
  587MOL0     C79138   3.127   4.624   9.943 -0.1963  0.0015  0.4884
  587MOL0     C79139   3.215   4.490   9.735  0.6549 -0.8900 -0.0591
  587MOL0     C79140   3.320   4.412   9.802 -0.0391  0.0198  0.0721
  587MOL0     O79141   3.436   4.413   9.739  0.3891 -0.8300  0.6736
  587MOL0     C79142   3.535   4.329   9.776  0.4024  0.6201  0.2346
  587MOL0     C79143   3.642   4.383   9.848  0.3081  0.0153  0.3221
  587MOL0     C79144   3.748   4.302   9.883 -0.6179 -0.7136 -1.0862
  587MOL0     C79145   3.736   4.165   9.866 -0.0262  0.7627  1.1139
  587MOL0     O79146   3.841   4.091   9.916 -0.7033  0.2330  0.1099
  587MOL0     C79147   3.844   3.948   9.895 -0.2353  0.2361 -0.2296
  587MOL0     C79148   3.761   3.855   9.992  0.0006 -0.2750 -1.6309
  587MOL0     C79149   3.765   3.907  10.136  0.2154 -0.1210 -0.3099
  587MOL0     C79150   3.907   3.912  10.187  0.2846  0.4780 -0.7314
  587MOL0     C79151   3.957   3.777  10.231 -0.1073  0.5641  0.0458
  587MOL0     C79152   3.884   3.745  10.360 -0.4980 -0.0594  0.5215
  587MOL0     C79153   3.930   3.603  10.405 -0.1700 -1.3325 -0.0391
  587MOL0     C79154   3.897   3.580  10.550 -0.4437 -0.2865  1.5953
  587MOL0    Cl79155   3.907   3.403  10.583  0.0914 -0.2431  0.3581
  587MOL0     C79156   3.619   4.108   9.816  0.2192  0.2141  0.8378
  587MOL0     C79157   3.523   4.192   9.768  0.3100 -0.6798  0.2796
  587MOL0     O79158   3.293   4.347   9.906 -0.7072  0.5750 -0.2833
  587MOL0     C79159   3.207   4.483   9.596  0.2359  0.3087  0.1651
  587MOL0     C79160   3.107   4.550   9.522 -0.9945  0.1297 -0.3304
  587MOL0     N79161   2.670   5.094   9.172  1.0254  0.2871  0.3064
  587MOL0     N79162   2.643   5.206   9.228 -0.6842  0.3988  0.2842
  587MOL0     C79163   3.500   5.265   9.301 -0.6813  0.9848  0.1079
  587MOL0     C79164   3.621   5.201   9.335 -0.2626 -0.3085 -0.3156
  587MOL0     C79165   4.029   5.124   9.490 -1.3205 -0.2191  0.0697
  587MOL0     C79166   4.047   5.068   9.616  0.2115 -0.1022 -0.2471
  587MOL0     C79167   4.176   5.011   9.653  0.9155  0.1464 -0.5742
  587MOL0     C79168   4.285   5.008   9.562  0.8816 -0.1189  0.3915
  587MOL0     O79169   4.404   4.956   9.604 -0.3881 -0.6764 -0.6072
  587MOL0     C79170   4.489   4.888   9.519  0.3167  0.6614 -0.9077
  587MOL0     C79171   4.566   4.783   9.592 -0.1150 -1.1462 -0.5010
  587MOL0     C79172   4.659   4.708   9.501  0.3351 -0.6835  0.8308
  587MOL0     C79173   4.774   4.788   9.458 -0.6858 -0.6872 -0.3316
  587MOL0     C79174   4.856   4.731   9.342 -0.4245  1.3488  0.0706
  587MOL0     C79175   4.899   4.696   9.234 -0.4255 -0.5844 -0.1333
  587MOL0     C79176   4.268   5.062   9.430  0.0977  0.3035  0.6627
  587MOL0     C79177   4.133   5.108   9.395  0.2761 -0.5595 -1.3734
  587MOL0     H79178   3.833   5.456   9.228  2.2321 -2.0035  0.8859
  587MOL0     H79179   3.616   5.535   9.132 -0.3955 -0.0575 -0.6307
  587MOL0     H79180   3.257   5.282   9.186 -2.0036 -0.0591 -0.3060
  587MOL0     H79181   3.264   5.399   9.329 -2.4066 -1.8439 -0.2827
  587MOL0     H79182   3.175   5.575   9.176 -0.9052 -0.1674 -0.5295
  587MOL0     H79183   3.151   5.465   9.044 -3.3218  3.0014 -1.2908
  587MOL0     H79184   2.939   5.467   9.160 -1.2192 -1.5158  0.2839
  587MOL0     H79185   3.017   5.324   9.234  3.6897 -0.1108  0.3858
  587MOL0     H79186   3.073   5.448   9.437  3.4798 -1.4839 -2.0665
  587MOL0     H79187   3.007   5.597   9.347  0.1236 -0.9355 -2.3316
  587MOL0     H79188   2.844   5.544   9.493  0.7673 -0.7124  0.5540
  587MOL0     H79189   2.779   5.485   9.340 -3.0186  2.7019  2.6735
  587MOL0     H79190   2.864   5.258   9.410  0.2680  0.3689 -0.1460
  587MOL0     H79191   2.927   5.333   9.561  1.8933 -2.7396 -0.8116
  587MOL0     H79192   2.728   5.212   9.596  0.0534 -1.6593 -1.8643
  587MOL0     H79193   2.681   5.392   9.615  0.4291 -0.9897  0.9640
  587MOL0     H79194   2.568   5.377   9.403  0.4473  1.2296  2.0010
  587MOL0     H79195   2.509   5.256   9.520  1.3883 -0.8378  0.5611
  587MOL0     H79196   2.570   4.997   9.465 -1.2247 -1.4878 -0.4434
  587MOL0     H79197   2.501   4.816   9.246 -0.1051 -0.0287 -0.6770
  587MOL0     H79198   2.623   4.834   9.118  2.0369 -0.9292  0.0923
  587MOL0     H79199   2.693   4.659   9.280  4.0769 -1.0948  2.8921
  587MOL0     H79200   2.683   4.771   9.416  4.6639  0.7966  0.1204
  587MOL0     H79201   2.873   4.910   9.321  0.1175 -0.3595  1.6450
  587MOL0     H79202   2.877   4.814   9.180  1.9116  0.0284  0.5323
  587MOL0     H79203   3.048   4.745   9.352  0.2105 -1.0232  1.3473
  587MOL0     H79204   2.922   4.613   9.324 -0.3954  1.0234 -2.4457
  587MOL0     H79205   2.964   4.734   9.756 -1.1076  1.0533 -0.7077
  587MOL0     H79206   3.048   4.694   9.972  0.2321  1.4119 -1.4955
  587MOL0     H79207   3.109   4.535  10.004 -0.5753 -1.2609 -1.3760
  587MOL0     H79208   3.214   4.683   9.975 -0.7814  0.9897  0.2825
  587MOL0     H79209   3.649   4.491   9.843 -0.9882  0.0577 -2.1443
  587MOL0     H79210   3.835   4.351   9.923 -1.0160  1.1365 -2.3398
  587MOL0     H79211   3.828   3.930   9.788  0.4153  0.5057 -0.3821
  587MOL0     H79212   3.944   3.903   9.900 -0.0829  0.1510 -2.7935
  587MOL0     H79213   3.664   3.855   9.940 -1.0399  0.6925  0.2125
  587MOL0     H79214   3.788   3.749   9.988  1.9208  0.2028 -2.5280
  587MOL0     H79215   3.698   3.860  10.208  1.6352 -1.1077  0.4215
  587MOL0     H79216   3.729   4.011  10.134 -0.0803 -0.2289 -0.6977
  587MOL0     H79217   3.968   3.947  10.104 -0.4299  0.8091 -1.1264
  587MOL0     H79218   3.911   3.981  10.272  0.5161 -0.6901  0.2487
  587MOL0     H79219   4.065   3.782  10.250  0.1523 -3.7172  0.5770
  587MOL0     H79220   3.938   3.703  10.152 -0.9233  2.6510 -1.8374
  587MOL0     H79221   3.923   3.827  10.421 -0.2746  0.8648 -0.7956
  587MOL0     H79222   3.775   3.740  10.354 -0.5217  0.7585  0.1545
  587MOL0     H79223   4.033   3.572  10.386 -0.2250 -3.7905  2.9233
  587MOL0     H79224   3.871   3.533  10.346 -1.2374 -2.2066  1.9666
  587MOL0     H79225   3.790   3.603  10.547 -1.0045 -2.5722 -1.6053
  587MOL0     H79226   3.948   3.641  10.624  0.6446  0.3537  0.3487
  587MOL0     H79227   3.601   4.006   9.786  0.0195  0.9194 -1.6747
  587MOL0     H79228   3.437   4.143   9.723  0.5817 -0.0188 -1.0266
  587MOL0     H79229   3.270   4.405   9.554  1.6831  1.4798  0.0764
  587MOL0     H79230   3.101   4.527   9.416  3.8818 -3.8037 -0.1230
  587MOL0     H79231   3.407   5.216   9.330  0.8075 -1.0009  1.8773
  587MOL0     H79232   3.620   5.110   9.394  0.6669 -0.1452 -0.0220
  587MOL0     H79233   3.970   5.064   9.692 -0.3037 -0.5378 -0.7816
  587MOL0     H79234   4.197   4.968   9.750  1.7964 -0.6499 -1.0959
  587MOL0     H79235   4.429   4.828   9.450  0.7322 -0.6618 -0.1361
  587MOL0     H79236   4.552   4.954   9.458 -2.8291  2.0633 -2.8891
  587MOL0     H79237   4.497   4.707   9.630 -0.2936 -0.2134  1.1245
  587MOL0     H79238   4.625   4.824   9.675 -3.8608  2.8496  0.5321
  587MOL0     H79239   4.613   4.689   9.403 -0.8896  1.7993  0.8187
  587MOL0     H79240   4.688   4.612   9.544 -1.1570 -2.5243 -1.9595
  587MOL0     H79241   4.843   4.780   9.543 -0.2066  3.6273 -0.1198
  587MOL0     H79242   4.744   4.887   9.424 -0.0384 -0.6135 -0.7066
  587MOL0     H79243   4.954   4.673   9.145  0.2558 -0.2556  0.1918
  587MOL0     H79244   4.353   5.063   9.363 -0.8834 -0.8983 -0.6489
  587MOL0     H79245   4.122   5.156   9.298  1.0612  2.0611 -0.2772
  588MOL0     O79246   1.285   7.375   6.527 -0.0834 -0.5847 -0.0824
  588MOL0     C79247   1.185   7.445   6.533 -0.1698 -0.1643  0.4304
  588MOL0     O79248   1.094   7.456   6.435 -0.3623  0.5233  0.1347
  588MOL0     C79249   1.099   7.376   6.327 -0.3932 -0.8252  0.4928
  588MOL0     C79250   1.145   7.425   6.204  0.2187  0.2030 -0.1379
  588MOL0     C79251   1.153   7.338   6.098 -0.3351 -0.3397  0.6337
  588MOL0     C79252   1.127   7.202   6.105  0.6641 -0.0563  0.6091
  588MOL0     O79253   1.162   7.102   6.009 -0.9242  0.0671  0.3868
  588MOL0     C79254   1.261   7.144   5.911 -0.1696  0.0265 -0.6608
  588MOL0     C79255   1.297   7.012   5.832  0.0276 -0.4070  0.5742
  588MOL0     C79256   1.215   7.007   5.702  0.4519 -0.5487 -0.1885
  588MOL0     C79257   1.277   6.912   5.598 -0.8423 -0.3559  0.3200
  588MOL0     C79258   1.263   6.758   5.629 -0.1588  0.1978  0.2414
  588MOL0     C79259   1.391   6.683   5.682  1.0459  0.1109  1.2095
  588MOL0     C79260   1.356   6.546   5.727  1.6000  0.3401 -0.7120
  588MOL0     C79261   1.383   6.451   5.608  0.2899  0.2028 -0.8195
  588MOL0     N79262   1.381   6.308   5.646 -0.7662  0.4701 -0.2660
  588MOL0     C79263   1.446   6.239   5.749  0.3912 -0.3784  0.4014
  588MOL0     C79264   1.398   6.110   5.736  0.3518  0.8761 -1.3601
  588MOL0     C79265   1.429   6.008   5.835 -0.0686  0.4017 -0.8587
  588MOL0     C79266   1.576   5.961   5.827  0.7602  0.3755 -0.3630
  588MOL0     C79267   1.650   6.034   5.943  0.0744  0.9891  0.0357
  588MOL0     C79268   1.803   6.000   5.957  0.1230  0.8505 -0.2004
  588MOL0     O79269   1.805   5.894   6.052 -0.2940 -0.5104 -0.0940
  588MOL0     C79270   1.803   5.919   6.191 -0.1126  1.0126 -0.1349
  588MOL0     C79271   1.784   6.039   6.252  0.1965  0.3628  0.3469
  588MOL0     C79272   1.776   6.068   6.389  1.2810 -0.2781  0.3695
  588MOL0     C79273   1.763   6.204   6.441 -0.1503 -0.5514  0.0535
  588MOL0     C79274   1.790   5.954   6.474 -0.5189 -0.4569  0.0629
  588MOL0     C79275   1.766   5.961   6.620  0.4184  0.5160  0.8205
  588MOL0     O79276   1.682   6.064   6.677  0.1534 -0.0472  0.3158
  588MOL0     C79277   1.694   6.092   6.813 -0.2424 -0.2823 -0.5864
  588MOL0     C79278   1.809   6.077   6.884  0.3087 -0.2218 -0.6579
  588MOL0     C79279   1.813   6.113   7.020  0.3654 -0.9306 -0.0219
  588MOL0     C79280   1.704   6.159   7.083  0.7568 -0.4813  0.0867
  588MOL0     O79281   1.727   6.180   7.214 -0.7335  0.3838 -0.4231
  588MOL0     C79282   1.622   6.179   7.308  0.3759  0.5735  0.5556
  588MOL0     C79283   1.547   6.320   7.324  0.4285 -0.1949 -0.0765
  588MOL0     C79284   1.642   6.424   7.392 -1.2815  0.1145 -0.4498
  588MOL0     C79285   1.567   6.542   7.428  0.0856 -0.0267  0.3231
  588MOL0     C79286   1.652   6.646   7.494 -0.7754 -0.4087  0.0973
  588MOL0     C79287   1.584   6.786   7.507  0.6165  1.2683 -0.3114
  588MOL0     C79288   1.676   6.873   7.594 -0.0130 -0.4158  0.2687
  588MOL0     C79289   1.603   6.993   7.645  0.3904  0.2581  0.4645
  588MOL0    Cl79290   1.578   7.119   7.529  0.4170  0.0832  0.4743
  588MOL0     C79291   1.586   6.166   7.015  0.6077  1.1512  0.6999
  588MOL0     C79292   1.581   6.122   6.886 -0.9583 -1.1534  0.4127
  588MOL0     O79293   1.817   5.874   6.687  0.0405  0.1028 -0.1611
  588MOL0     C79294   1.815   5.829   6.414 -1.0782 -0.8308 -0.5851
  588MOL0     C79295   1.825   5.810   6.281 -0.6705 -0.2305 -0.0541
  588MOL0     N79296   1.320   6.104   5.621  0.7379 -0.5314 -0.1767
  588MOL0     N79297   1.296   6.221   5.591  0.3110 -0.6277  0.3998
  588MOL0     C79298   1.074   7.153   6.222  0.2686 -0.0858 -0.0103
  588MOL0     C79299   1.073   7.239   6.340 -0.6850  0.6442 -0.3588
  588MOL0     C79300   1.173   7.531   6.652  0.1619 -0.1977 -0.4356
  588MOL0     C79301   1.283   7.550   6.738 -0.0876 -0.5919  0.8688
  588MOL0     C79302   1.273   7.644   6.846 -0.4132  0.0425  0.2964
  588MOL0     C79303   1.159   7.718   6.864  0.3873  0.4286  0.7789
  588MOL0     O79304   1.156   7.813   6.962 -0.8509 -0.1589 -0.3183
  588MOL0     C79305   1.028   7.826   7.032  0.2927 -0.8199  1.0168
  588MOL0     C79306   0.983   7.694   7.105  0.0577  0.0155  1.2002
  588MOL0     C79307   0.841   7.711   7.165  0.5697  0.1031  0.3764
  588MOL0     C79308   0.861   7.765   7.304  0.0250 -0.1790  0.3260
  588MOL0     C79309   0.731   7.819   7.343  0.1977  0.7510  0.8709
  588MOL0     C79310   0.628   7.867   7.374 -0.2941 -0.4594 -0.0573
  588MOL0     C79311   1.046   7.700   6.770  0.1361 -0.0338 -0.5435
  588MOL0     C79312   1.055   7.613   6.667 -0.6758 -0.1592 -0.3664
  588MOL0     H79313   1.158   7.532   6.198  1.6395 -0.0223 -2.2520
  588MOL0     H79314   1.197   7.396   6.018 -0.9648  2.3745  2.1064
  588MOL0     H79315   1.226   7.214   5.834  0.9216 -0.7297 -1.8916
  588MOL0     H79316   1.350   7.181   5.962 -0.6617 -0.7425  0.8205
  588MOL0     H79317   1.406   7.001   5.828  0.0562 -0.0997  0.5184
  588MOL0     H79318   1.259   6.920   5.878 -1.8687 -0.3385 -0.7293
  588MOL0     H79319   1.116   6.976   5.738  0.4989 -0.9889 -0.4271
  588MOL0     H79320   1.212   7.111   5.668  0.1996 -0.4725  0.0598
  588MOL0     H79321   1.245   6.934   5.496 -1.0502 -2.0737 -0.0159
  588MOL0     H79322   1.385   6.929   5.601 -0.5569 -1.9037 -0.4084
  588MOL0     H79323   1.183   6.741   5.701  0.0985  0.7168  0.6553
  588MOL0     H79324   1.227   6.709   5.538 -3.8016  0.0650  1.6140
  588MOL0     H79325   1.461   6.683   5.599  1.1741 -1.0123  1.3061
  588MOL0     H79326   1.432   6.732   5.770 -1.0006 -0.0907  2.3604
  588MOL0     H79327   1.424   6.532   5.812  1.1391 -1.7088 -0.6331
  588MOL0     H79328   1.253   6.553   5.764  1.1883 -0.8818 -1.5814
  588MOL0     H79329   1.482   6.468   5.564  1.2924  0.5814  1.4508
  588MOL0     H79330   1.297   6.465   5.541 -0.1958 -0.3461 -0.3222
  588MOL0     H79331   1.515   6.276   5.824  1.9336 -2.9035  0.3593
  588MOL0     H79332   1.408   6.036   5.939  1.2886 -0.2865 -0.3719
  588MOL0     H79333   1.356   5.929   5.820 -0.5346  0.8564 -1.0226
  588MOL0     H79334   1.617   5.991   5.730  1.4614  0.1814 -0.1278
  588MOL0     H79335   1.589   5.854   5.845 -1.5988 -0.7528 -4.1584
  588MOL0     H79336   1.596   6.042   6.037 -3.2068  7.2540 -1.8119
  588MOL0     H79337   1.651   6.137   5.907 -2.8791  0.9549 -0.4231
  588MOL0     H79338   1.855   6.087   6.000  0.2392 -0.7532  3.2070
  588MOL0     H79339   1.855   5.970   5.866  1.6995 -1.7984  1.4438
  588MOL0     H79340   1.763   6.124   6.188 -0.8188  2.4967  3.2509
  588MOL0     H79341   1.665   6.232   6.481 -1.4195 -2.3695 -1.6023
  588MOL0     H79342   1.848   6.215   6.509  0.1405  1.6963 -0.5875
  588MOL0     H79343   1.797   6.268   6.359  2.3524  1.0603  2.1440
  588MOL0     H79344   1.900   6.055   6.829  0.7335 -2.8117  0.9125
  588MOL0     H79345   1.902   6.111   7.081  0.2119 -0.9438  0.2055
  588MOL0     H79346   1.554   6.099   7.275  3.8371 -1.6457 -2.0342
  588MOL0     H79347   1.664   6.143   7.402  2.5510  0.1593 -0.5047
  588MOL0     H79348   1.522   6.363   7.227 -0.5494  3.6976  1.7158
  588MOL0     H79349   1.457   6.302   7.383  1.0163 -3.5342  0.0236
  588MOL0     H79350   1.729   6.443   7.329  2.1044 -3.2119  2.7220
  588MOL0     H79351   1.682   6.385   7.486  1.2044  2.6863 -0.3032
  588MOL0     H79352   1.530   6.577   7.331  3.9451 -0.6709 -1.5895
  588MOL0     H79353   1.482   6.507   7.488 -0.7181 -0.4282 -0.9899
  588MOL0     H79354   1.735   6.664   7.425 -2.6318 -2.3855 -2.8716
  588MOL0     H79355   1.692   6.600   7.585 -0.8946  0.0461  0.3824
  588MOL0     H79356   1.561   6.832   7.411 -0.0893  1.0870 -0.2342
  588MOL0     H79357   1.489   6.763   7.558 -0.7096 -2.0673 -3.8133
  588MOL0     H79358   1.759   6.906   7.531 -1.2443  2.5783  0.0606
  588MOL0     H79359   1.702   6.818   7.685 -0.4544 -1.5371 -0.2709
  588MOL0     H79360   1.657   7.037   7.729  0.6631  1.5780 -0.3635
  588MOL0     H79361   1.507   6.950   7.675 -0.1133  2.1045  1.6914
  588MOL0     H79362   1.496   6.191   7.070  0.7862  1.1882  0.9725
  588MOL0     H79363   1.486   6.149   6.841 -1.4818  0.3642  2.2614
  588MOL0     H79364   1.834   5.738   6.470 -0.8244 -0.4919 -0.1085
  588MOL0     H79365   1.838   5.706   6.251  0.2825 -0.6537  1.6907
  588MOL0     H79366   1.047   7.048   6.225 -1.8955  0.4275  2.7691
  588MOL0     H79367   1.043   7.194   6.434 -3.4829  1.6524 -0.6755
  588MOL0     H79368   1.374   7.492   6.732  0.9061  0.9106  1.0743
  588MOL0     H79369   1.350   7.638   6.922 -1.5930  1.3637  1.6740
  588MOL0     H79370   1.037   7.905   7.106  0.3120 -1.0323  1.2402
  588MOL0     H79371   0.951   7.855   6.959  1.0619 -0.0319  0.5042
  588MOL0     H79372   1.059   7.665   7.179 -0.9774  0.0073  2.3007
  588MOL0     H79373   0.983   7.611   7.035  0.5118  1.1189 -0.1706
  588MOL0     H79374   0.799   7.611   7.177  0.8657 -0.0473  0.1927
  588MOL0     H79375   0.777   7.767   7.096  0.8295  3.8283  2.8449
  588MOL0     H79376   0.937   7.844   7.308  0.7536 -0.8719  0.4404
  588MOL0     H79377   0.885   7.682   7.372 -1.6333 -0.5481  0.4940
  588MOL0     H79378   0.537   7.921   7.391  0.7668  2.3127 -2.3806
  588MOL0     H79379   0.957   7.763   6.772 -0.8934 -1.4398 -1.1149
  588MOL0     H79380   0.976   7.617   6.592 -2.2314  0.7868  1.2359
  589MOL0     O79381   3.445   5.561   2.729 -0.1581 -0.7536 -0.4634
  589MOL0     C79382   3.527   5.652   2.705  0.0214  0.9702 -0.6466
  589MOL0     O79383   3.626   5.686   2.794 -0.4204 -0.2790  0.2531
  589MOL0     C79384   3.611   5.627   2.916 -1.0070  0.0800  0.6709
  589MOL0     C79385   3.506   5.671   3.003  1.0083 -0.2579  0.4326
  589MOL0     C79386   3.485   5.603   3.123 -0.0046 -0.8025 -0.4366
  589MOL0     C79387   3.552   5.490   3.154 -0.1240 -0.4659  0.5749
  589MOL0     O79388   3.509   5.424   3.270 -0.2157 -0.0879  0.5850
  589MOL0     C79389   3.461   5.289   3.231 -0.0922  0.2081 -0.0619
  589MOL0     C79390   3.341   5.243   3.322  0.5494  0.4105  0.5547
  589MOL0     C79391   3.393   5.229   3.460  0.9915 -0.7846  0.0516
  589MOL0     C79392   3.279   5.169   3.548 -0.7725 -0.0461 -0.0365
  589MOL0     C79393   3.319   5.170   3.697 -1.1391 -0.4677 -0.0752
  589MOL0     C79394   3.216   5.092   3.777  0.0163  0.0746  1.0430
  589MOL0     C79395   3.265   5.089   3.928 -0.1823  0.5600  0.2411
  589MOL0     C79396   3.373   4.990   3.977 -0.1514 -0.8332 -0.2930
  589MOL0     N79397   3.329   4.848   3.977 -0.4963  0.0326  0.4672
  589MOL0     C79398   3.211   4.809   4.033 -0.0424  1.0118  0.5576
  589MOL0     C79399   3.183   4.689   3.984 -0.1230 -0.3378 -0.4372
  589MOL0     C79400   3.065   4.597   4.026 -0.3250 -0.0267  0.9302
  589MOL0     C79401   3.108   4.520   4.150  0.4956 -0.4110 -0.1093
  589MOL0     C79402   2.991   4.443   4.219 -0.4380  0.9526  0.4932
  589MOL0     C79403   2.932   4.330   4.136 -0.2238  1.0855  0.9910
  589MOL0     O79404   2.840   4.249   4.202  0.7493  0.0782  0.2547
  589MOL0     C79405   2.711   4.273   4.194  0.5727 -0.2939 -0.2216
  589MOL0     C79406   2.643   4.331   4.091  0.0607  0.0360 -0.0808
  589MOL0     C79407   2.508   4.362   4.092  1.4908  0.1426  0.6380
  589MOL0     C79408   2.451   4.414   3.957  0.3072 -0.0473 -0.5062
  589MOL0     C79409   2.436   4.340   4.210  0.1936 -0.5788  1.0137
  589MOL0     C79410   2.303   4.396   4.215  0.0939 -0.2218 -0.0172
  589MOL0     O79411   2.200   4.319   4.244 -0.3307  0.3291 -0.3606
  589MOL0     C79412   2.074   4.370   4.220 -0.7536 -0.2286 -0.3625
  589MOL0     C79413   2.029   4.455   4.121 -0.6191  0.4277 -0.0148
  589MOL0     C79414   1.901   4.479   4.089  1.1852  0.3524 -0.0222
  589MOL0     C79415   1.802   4.433   4.187 -0.0601 -0.4121 -0.6939
  589MOL0     O79416   1.672   4.444   4.154  1.0328  0.8327  0.3559
  589MOL0     C79417   1.617   4.576   4.170  0.1354 -0.0486 -0.1325
  589MOL0     C79418   1.478   4.590   4.089 -0.3895  0.5837 -0.2417
  589MOL0     C79419   1.367   4.533   4.179  0.3384  0.3520  0.0442
  589MOL0     C79420   1.220   4.562   4.140 -0.4934  0.1650 -0.1770
  589MOL0     C79421   1.115   4.533   4.246  0.5847  0.0230 -0.3429
  589MOL0     C79422   0.981   4.539   4.185 -0.1691  0.7641 -0.0521
  589MOL0     C79423   0.939   4.687   4.150 -0.8044  0.7019 -0.1306
  589MOL0     C79424   0.796   4.690   4.106  0.6775 -0.2580 -0.8226
  589MOL0    Cl79425   0.685   4.632   4.246  0.0137 -0.3224  0.0737
  589MOL0     C79426   1.845   4.368   4.300  0.3636  0.7619  0.3846
  589MOL0     C79427   1.976   4.317   4.305 -0.8720  0.2314 -0.0244
  589MOL0     O79428   2.300   4.517   4.209  0.2661 -0.5284 -0.6280
  589MOL0     C79429   2.500   4.280   4.321  0.0006  0.0296 -0.5485
  589MOL0     C79430   2.635   4.243   4.311 -0.9594 -0.4751  0.3068
  589MOL0     N79431   3.287   4.663   3.895  0.2539 -0.0202 -0.1460
  589MOL0     N79432   3.378   4.759   3.879  0.3962  0.3115 -0.9106
  589MOL0     C79433   3.657   5.449   3.058 -0.2365 -0.7362 -0.9726
  589MOL0     C79434   3.688   5.512   2.942 -0.3755 -0.1146 -0.0028
  589MOL0     C79435   3.526   5.710   2.570 -1.2609 -0.2232  0.3755
  589MOL0     C79436   3.431   5.677   2.476  0.1823  0.6417 -0.5351
  589MOL0     C79437   3.423   5.742   2.351 -0.8568 -0.5204 -0.0873
  589MOL0     C79438   3.509   5.846   2.311  0.4571  0.1327 -0.4309
  589MOL0     O79439   3.489   5.905   2.190 -0.4689 -0.0486  0.1522
  589MOL0     C79440   3.609   5.946   2.122 -0.0639 -0.8276  0.0118
  589MOL0     C79441   3.553   6.014   2.000  0.7996  0.1030  0.2741
  589MOL0     C79442   3.638   6.057   1.882 -0.0088 -0.2178 -0.3982
  589MOL0     C79443   3.608   5.963   1.757  0.4863  0.1464 -0.0549
  589MOL0     C79444   3.668   5.830   1.787 -0.4768 -0.4243  0.5278
  589MOL0     C79445   3.703   5.720   1.817  0.9055 -0.4771 -0.0096
  589MOL0     C79446   3.608   5.877   2.411  0.2579 -0.2759 -0.0670
  589MOL0     C79447   3.615   5.814   2.536 -0.1676 -0.3288  0.5990
  589MOL0     H79448   3.431   5.747   2.984  1.7414 -0.1190 -2.2139
  589MOL0     H79449   3.396   5.643   3.171  0.9907 -1.1989  1.8755
  589MOL0     H79450   3.428   5.289   3.127 -0.8497  0.6567  0.1703
  589MOL0     H79451   3.541   5.215   3.236 -0.6926 -0.8249 -3.3648
  589MOL0     H79452   3.260   5.316   3.321 -0.5448 -0.7790  0.7479
  589MOL0     H79453   3.299   5.150   3.283  1.1600  0.8575 -1.2927
  589MOL0     H79454   3.484   5.168   3.465  1.7707 -0.1083 -3.3056
  589MOL0     H79455   3.426   5.327   3.496 -0.1957  0.7267 -2.6961
  589MOL0     H79456   3.189   5.231   3.544 -1.0805 -0.3838  1.2049
  589MOL0     H79457   3.268   5.067   3.510  1.2656 -0.2369 -0.2150
  589MOL0     H79458   3.415   5.119   3.706 -1.5519 -1.6162 -1.6124
  589MOL0     H79459   3.321   5.277   3.717 -1.4815  0.5167 -4.3432
  589MOL0     H79460   3.117   5.138   3.785  0.2132  0.7593 -0.1908
  589MOL0     H79461   3.204   4.990   3.741 -1.3249  0.4780  0.2881
  589MOL0     H79462   3.304   5.191   3.936 -0.0113  0.6356 -1.2741
  589MOL0     H79463   3.184   5.072   3.999  2.0897 -2.4170  2.3733
  589MOL0     H79464   3.400   5.020   4.079  0.4529 -2.6492  0.1124
  589MOL0     H79465   3.466   5.009   3.923 -0.3334  3.9574  0.6476
  589MOL0     H79466   3.149   4.875   4.093 -0.8675  2.0760 -1.3621
  589MOL0     H79467   2.981   4.664   4.041 -0.6392  0.2910 -1.8003
  589MOL0     H79468   3.032   4.526   3.949  0.8395  1.2852 -0.8674
  589MOL0     H79469   3.152   4.585   4.226 -0.6477 -1.0898  1.1887
  589MOL0     H79470   3.183   4.450   4.112  1.6907  0.3542  0.7686
  589MOL0     H79471   2.906   4.511   4.225 -1.3296  0.4458 -3.3760
  589MOL0     H79472   3.031   4.404   4.313 -2.4410 -1.8202  0.2970
  589MOL0     H79473   3.025   4.277   4.111 -0.3413  1.6872 -0.9049
  589MOL0     H79474   2.892   4.366   4.041 -1.7881 -3.3809 -0.2360
  589MOL0     H79475   2.703   4.340   4.001  2.2186 -1.8817  1.0543
  589MOL0     H79476   2.362   4.478   3.962 -0.2321 -0.8451  1.9926
  589MOL0     H79477   2.530   4.477   3.914 -0.3009  2.1300  1.3409
  589MOL0     H79478   2.437   4.331   3.888  2.3377 -0.0149 -0.9995
  589MOL0     H79479   2.106   4.503   4.062 -0.1502 -2.8068 -2.2936
  589MOL0     H79480   1.859   4.535   4.006  1.0764 -0.9237 -0.8509
  589MOL0     H79481   1.613   4.585   4.279 -1.8643 -1.6060 -0.0130
  589MOL0     H79482   1.683   4.659   4.142  0.1666  0.6187  1.7837
  589MOL0     H79483   1.449   4.688   4.051 -0.2245  0.8104  0.2108
  589MOL0     H79484   1.485   4.517   4.008  1.1355 -1.9058  1.9831
  589MOL0     H79485   1.377   4.583   4.275 -1.9175  0.5881  0.2097
  589MOL0     H79486   1.375   4.424   4.193  1.8682  0.1835 -1.6761
  589MOL0     H79487   1.213   4.669   4.117 -2.0019  0.1517  0.1360
  589MOL0     H79488   1.188   4.501   4.055  0.6096  2.3559 -2.3086
  589MOL0     H79489   1.128   4.609   4.324 -1.5401 -1.3760  1.5127
  589MOL0     H79490   1.135   4.440   4.302 -2.3164 -0.7383 -0.4210
  589MOL0     H79491   0.978   4.478   4.094  2.4992  1.2010 -0.4983
  589MOL0     H79492   0.909   4.492   4.253 -1.3057 -1.8120 -2.7795
  589MOL0     H79493   0.999   4.737   4.073 -1.9044  3.0531  0.4428
  589MOL0     H79494   0.943   4.744   4.243 -1.4930 -1.3445  1.2183
  589MOL0     H79495   0.778   4.625   4.020  1.4877 -0.5340 -0.7915
  589MOL0     H79496   0.759   4.790   4.079 -4.8036 -1.8797 -0.3815
  589MOL0     H79497   1.776   4.343   4.381 -2.9787  0.5411 -2.3166
  589MOL0     H79498   2.023   4.260   4.385  4.4792  0.5885 -2.4480
  589MOL0     H79499   2.448   4.269   4.415  0.4890 -0.3235 -0.3200
  589MOL0     H79500   2.679   4.210   4.405 -1.5154 -1.7482  0.1377
  589MOL0     H79501   3.718   5.360   3.069  1.3161  0.0497 -2.7532
  589MOL0     H79502   3.765   5.471   2.877  0.2179  0.0844  0.5699
  589MOL0     H79503   3.364   5.596   2.502  0.6849  0.2558 -0.4268
  589MOL0     H79504   3.368   5.708   2.264  0.4161 -0.9078 -0.7603
  589MOL0     H79505   3.669   6.003   2.193 -1.3964 -0.6418  1.0285
  589MOL0     H79506   3.675   5.861   2.101  2.1619  0.9194 -0.3754
  589MOL0     H79507   3.511   6.109   2.032  2.8299  0.3284  2.5619
  589MOL0     H79508   3.478   5.947   1.957  0.9045  0.4822 -0.5181
  589MOL0     H79509   3.740   6.038   1.916 -0.0226 -2.5598 -1.4228
  589MOL0     H79510   3.620   6.162   1.861 -2.2439 -0.3676  0.4422
  589MOL0     H79511   3.652   6.001   1.664  0.8745  0.4597  0.2495
  589MOL0     H79512   3.500   5.948   1.747  0.4504  0.9515 -1.0845
  589MOL0     H79513   3.723   5.617   1.837 -1.1831 -0.2995  3.9277
  589MOL0     H79514   3.689   5.942   2.380 -0.7161  1.8288  1.5365
  589MOL0     H79515   3.690   5.848   2.607 -0.3111  3.1212 -0.7329
  590MOL0     O79516  10.772   9.663  10.230 -0.2123 -0.2387  0.2825
  590MOL0     C79517  10.864   9.601  10.286  0.5537 -0.1448 -0.0310
  590MOL0     O79518  10.874   9.468  10.306 -0.1969  0.5537 -0.4821
  590MOL0     C79519  10.754   9.393  10.302 -0.2875 -0.3872  0.4083
  590MOL0     C79520  10.713   9.325  10.418 -0.2047  1.2066 -0.6752
  590MOL0     C79521  10.582   9.261  10.407 -0.7322  0.2968 -0.7177
  590MOL0     C79522  10.501   9.250  10.287  0.2661 -0.1370  0.5680
  590MOL0     O79523  10.375   9.188  10.297  0.3524 -0.0157  0.5368
  590MOL0     C79524  10.269   9.280  10.340  1.3044  1.1463  0.2938
  590MOL0     C79525  10.136   9.197  10.353  0.6204  0.2457 -1.3372
  590MOL0     C79526  10.028   9.277  10.431  0.3205 -0.7133 -1.3834
  590MOL0     C79527   9.961   9.390  10.355 -0.5890  0.9939 -0.6975
  590MOL0     C79528   9.866   9.464  10.453 -1.0430  0.0922  0.5678
  590MOL0     C79529   9.783   9.554  10.370 -0.4108 -0.4555  0.1172
  590MOL0     C79530   9.703   9.659  10.445 -0.0280  0.7335  0.4499
  590MOL0     C79531   9.585   9.720  10.365  0.5179  0.2959  0.5642
  590MOL0     N79532   9.604   9.832  10.278  0.0602  0.1923  0.1313
  590MOL0     C79533   9.526   9.871  10.170 -0.3392  0.5206  0.1505
  590MOL0     C79534   9.592   9.981  10.119 -0.3683 -0.1385  0.6713
  590MOL0     C79535   9.575  10.048   9.990 -0.4236 -0.8831 -0.1261
  590MOL0     C79536   9.495  10.184  10.007  0.1309  0.0274 -0.1370
  590MOL0     C79537   9.346  10.165   9.997  0.0557  0.3655 -1.1609
  590MOL0     C79538   9.280  10.291   9.975  0.6031  0.6568  0.9382
  590MOL0     O79539   9.151  10.276   9.916 -1.5040  0.0904  0.6737
  590MOL0     C79540   9.066  10.383   9.926  1.2007 -1.4083 -0.2472
  590MOL0     C79541   9.038  10.442   9.802  0.4015 -0.2744 -0.1848
  590MOL0     C79542   8.963  10.562   9.803  0.4163 -0.5917 -0.0571
  590MOL0     C79543   8.937  10.621   9.669 -0.3662 -0.0935  0.4444
  590MOL0     C79544   8.911  10.605   9.927  0.5005 -0.7427  0.0454
  590MOL0     C79545   8.823  10.716   9.942  0.1081 -0.0168 -0.2020
  590MOL0     O79546   8.842  10.804  10.045 -0.4080  0.3599  0.6555
  590MOL0     C79547   8.760  10.909  10.068  0.0021 -0.4925  0.5305
  590MOL0     C79548   8.630  10.888  10.107 -0.2381  0.4335 -0.4606
  590MOL0     C79549   8.543  10.998  10.129  0.6999  0.4747  0.8749
  590MOL0     C79550   8.574  11.130  10.098 -0.4656  0.9599 -0.3456
  590MOL0     O79551   8.483  11.232  10.106 -0.2120 -0.8834  0.2536
  590MOL0     C79552   8.515  11.368  10.076 -0.2161  0.8863 -0.4050
  590MOL0     C79553   8.600  11.426  10.191  0.3623  0.4172 -0.2533
  590MOL0     C79554   8.531  11.552  10.243 -0.3421  0.6486  0.3110
  590MOL0     C79555   8.511  11.668  10.141 -0.3321  0.1121  0.6024
  590MOL0     C79556   8.635  11.732  10.088  0.0055  0.0948  0.7434
  590MOL0     C79557   8.723  11.787  10.201  0.4797 -0.4392  1.1927
  590MOL0     C79558   8.828  11.871  10.141  0.6000 -0.4056 -0.0621
  590MOL0     C79559   8.911  11.940  10.249 -0.6406  0.4859 -0.1872
  590MOL0    Cl79560   9.077  11.855  10.254  0.3476  0.1134  0.2929
  590MOL0     C79561   8.706  11.151  10.054 -0.6519 -0.0866  0.6565
  590MOL0     C79562   8.795  11.040  10.041  0.3858  0.2576  0.3267
  590MOL0     O79563   8.727  10.719   9.864  1.1733  0.1705  0.3795
  590MOL0     C79564   8.944  10.550  10.050  0.0711  0.4225 -0.8155
  590MOL0     C79565   9.031  10.438  10.056  0.6247 -0.5106 -0.1337
  590MOL0     N79566   9.703  10.007  10.196  0.1855 -0.2363  1.0522
  590MOL0     N79567   9.715   9.908  10.277  0.2117  0.0047  0.1521
  590MOL0     C79568  10.549   9.311  10.174 -0.2669  1.2786  0.1556
  590MOL0     C79569  10.670   9.379  10.183 -0.2261  0.7441 -0.1438
  590MOL0     C79570  10.975   9.684  10.349 -1.1253  0.2607  0.5901
  590MOL0     C79571  11.082   9.614  10.411 -0.0564  0.5387 -0.3204
  590MOL0     C79572  11.200   9.683  10.425  0.4932  0.0441 -0.5236
  590MOL0     C79573  11.218   9.811  10.374 -0.1737 -0.0930 -0.9261
  590MOL0     O79574  11.343   9.868  10.389  0.1816 -0.4181 -0.1944
  590MOL0     C79575  11.417   9.892  10.269 -0.1570 -0.4110  0.6544
  590MOL0     C79576  11.526   9.775  10.257 -0.5258  0.7536  0.6005
  590MOL0     C79577  11.650   9.792  10.354 -0.1135 -0.0637  1.2438
  590MOL0     C79578  11.714   9.655  10.374  0.7230 -1.2039 -0.3844
  590MOL0     C79579  11.639   9.567  10.460  0.0825  0.6802 -0.6175
  590MOL0     C79580  11.585   9.486  10.532  0.0930  0.8214  0.9951
  590MOL0     C79581  11.109   9.884  10.333  0.7685 -0.6510  0.4526
  590MOL0     C79582  10.981   9.826  10.333 -0.1700  0.7408  0.3487
  590MOL0     H79583  10.784   9.323  10.500  0.4604 -2.3162 -1.1867
  590MOL0     H79584  10.543   9.208  10.493 -1.4581  3.4578  1.0821
  590MOL0     H79585  10.292   9.331  10.435  1.6735  1.6297 -0.0501
  590MOL0     H79586  10.259   9.368  10.277  0.6339  2.2703  1.8929
  590MOL0     H79587  10.101   9.168  10.253 -0.8754 -1.4711 -0.3744
  590MOL0     H79588  10.153   9.103  10.406  0.2897  0.1054 -1.4709
  590MOL0     H79589   9.954   9.198  10.444  0.7670 -1.1715 -1.5577
  590MOL0     H79590  10.065   9.318  10.526 -1.2609 -1.6674 -0.3056
  590MOL0     H79591  10.038   9.460  10.321  1.4019 -0.3099  0.8923
  590MOL0     H79592   9.895   9.360  10.273  0.0923 -0.6888 -0.6693
  590MOL0     H79593   9.814   9.390  10.514 -1.2875 -2.1203 -2.1189
  590MOL0     H79594   9.919   9.529  10.523 -0.4621 -0.5683  0.7569
  590MOL0     H79595   9.845   9.612  10.301 -2.8401  0.5590 -1.3606
  590MOL0     H79596   9.722   9.492  10.305 -0.5447  1.7756 -2.0262
  590MOL0     H79597   9.666   9.611  10.536 -0.8557 -0.8573 -0.6770
  590MOL0     H79598   9.766   9.740  10.482  2.6781 -1.7656  1.6344
  590MOL0     H79599   9.512   9.746  10.442  2.5692 -1.4543  3.2741
  590MOL0     H79600   9.555   9.636  10.301  1.1754 -0.6149  1.4087
  590MOL0     H79601   9.439   9.819  10.130  1.2847 -2.7848  0.5627
  590MOL0     H79602   9.673  10.082   9.954 -2.8631  4.3705 -2.8823
  590MOL0     H79603   9.533   9.973   9.921  4.1716 -1.2772 -2.9331
  590MOL0     H79604   9.523  10.251   9.925 -2.9812  0.7759 -0.6922
  590MOL0     H79605   9.518  10.242  10.097  1.4575  1.6145 -1.4273
  590MOL0     H79606   9.301  10.143  10.094  0.5676 -1.9816 -1.3857
  590MOL0     H79607   9.311  10.086   9.929  0.9794 -2.7347  1.6510
  590MOL0     H79608   9.335  10.346   9.899 -1.9412 -0.6773 -2.1064
  590MOL0     H79609   9.268  10.347  10.069 -0.7267 -0.1131  1.2679
  590MOL0     H79610   9.060  10.391   9.709  0.7173  2.1625 -1.5229
  590MOL0     H79611   8.972  10.724   9.660 -0.6889  0.0800  1.0742
  590MOL0     H79612   8.996  10.564   9.596  0.0183 -1.7550  1.9688
  590MOL0     H79613   8.829  10.619   9.650 -0.2253 -0.8902 -0.3431
  590MOL0     H79614   8.604  10.784  10.120  0.6887  0.1413 -0.8524
  590MOL0     H79615   8.445  10.970  10.168  0.8908 -1.2217  0.2410
  590MOL0     H79616   8.575  11.364   9.984  3.1620  2.3575  1.5293
  590MOL0     H79617   8.419  11.420  10.062 -1.9900 -1.0913  3.0607
  590MOL0     H79618   8.595  11.359  10.277 -2.1383 -0.5512 -1.0707
  590MOL0     H79619   8.703  11.449  10.159 -0.4616  1.4193 -2.3753
  590MOL0     H79620   8.588  11.593  10.327 -0.0054 -0.2121  0.5063
  590MOL0     H79621   8.440  11.518  10.292 -0.9654  2.2728  0.3308
  590MOL0     H79622   8.445  11.641  10.058  1.1422 -0.0280 -0.5799
  590MOL0     H79623   8.459  11.747  10.195  0.9064  0.5582  1.1906
  590MOL0     H79624   8.608  11.810  10.017 -0.4996 -1.1738 -0.5026
  590MOL0     H79625   8.698  11.661  10.034  0.1745  1.9228 -1.6111
  590MOL0     H79626   8.653  11.849  10.258 -0.5943  1.3349 -1.8503
  590MOL0     H79627   8.765  11.708  10.263  0.5545 -2.1545 -0.9478
  590MOL0     H79628   8.767  11.950  10.097 -0.6764 -1.9361 -1.1481
  590MOL0     H79629   8.884  11.818  10.063  0.1629 -1.2972  0.2207
  590MOL0     H79630   8.857  11.918  10.342 -1.9321 -2.9500 -1.5892
  590MOL0     H79631   8.924  12.048  10.239  0.8919  0.5036  1.4068
  590MOL0     H79632   8.747  11.251  10.038  3.7107 -1.9554 -1.7908
  590MOL0     H79633   8.895  11.061  10.006  1.2364 -2.0132  1.1888
  590MOL0     H79634   8.903  10.593  10.141 -2.1740 -3.4785  0.2581
  590MOL0     H79635   9.048  10.398  10.156 -2.1271  1.9868  1.5249
  590MOL0     H79636  10.483   9.309  10.087 -1.6590  2.1079  1.1575
  590MOL0     H79637  10.702   9.439  10.098 -1.9523 -0.7691 -1.9856
  590MOL0     H79638  11.081   9.507  10.428 -0.1165  0.7549  1.1439
  590MOL0     H79639  11.288   9.627  10.456  1.1746  2.1522  1.6694
  590MOL0     H79640  11.358   9.893  10.177  1.0524 -1.9779 -0.1842
  590MOL0     H79641  11.474   9.986  10.272  0.7623 -0.9129 -0.2313
  590MOL0     H79642  11.571   9.751  10.160  1.7283 -2.6070  2.2834
  590MOL0     H79643  11.469   9.685  10.283 -0.1813  0.2073 -0.4593
  590MOL0     H79644  11.621   9.837  10.449 -3.4100  0.0434  0.3088
  590MOL0     H79645  11.726   9.858  10.313  0.3500 -1.5635 -0.4495
  590MOL0     H79646  11.810   9.670  10.424  1.1402 -1.8707 -0.9725
  590MOL0     H79647  11.727   9.595  10.284  1.5125 -1.5346 -0.0655
  590MOL0     H79648  11.527   9.426  10.598  1.1991  0.7995  1.9846
  590MOL0     H79649  11.122   9.989  10.310  2.1884  0.1763  4.2740
  590MOL0     H79650  10.899   9.885  10.292 -1.0153  2.2721  3.8584
  591MOL0     O79651   9.633   4.213   6.931 -0.4586  0.4201 -0.1901
  591MOL0     C79652   9.697   4.227   6.825 -0.3063 -0.3793 -0.4638
  591MOL0     O79653   9.653   4.196   6.702 -0.2490  0.6051  0.7112
  591MOL0     C79654   9.531   4.141   6.665  0.1496 -0.0396 -0.2234
  591MOL0     C79655   9.536   4.083   6.545 -0.5270  0.1049  0.2365
  591MOL0     C79656   9.413   4.043   6.481 -0.3664  0.7322  0.1102
  591MOL0     C79657   9.289   4.044   6.548  0.7159 -0.4470 -0.3782
  591MOL0     O79658   9.164   4.011   6.500 -0.3170  1.1786 -0.1694
  591MOL0     C79659   9.165   4.012   6.358 -0.7540  0.0992  0.1868
  591MOL0     C79660   9.028   4.000   6.308 -0.1161 -0.1501 -0.0293
  591MOL0     C79661   9.022   3.961   6.163  0.7232  0.0265  0.4001
  591MOL0     C79662   8.880   3.926   6.122  0.5929 -0.3739  0.3897
  591MOL0     C79663   8.848   3.989   5.981  0.6531 -1.0244  0.2380
  591MOL0     C79664   8.701   3.992   5.946 -1.0575 -0.0278 -0.3829
  591MOL0     C79665   8.607   4.056   6.053  0.1019 -0.2707  0.4302
  591MOL0     C79666   8.470   4.056   6.004  0.9290 -0.5489  0.5988
  591MOL0     N79667   8.385   4.045   6.121  0.7583  0.3761 -0.3393
  591MOL0     C79668   8.329   3.936   6.194 -0.4051  0.2552  0.4102
  591MOL0     C79669   8.235   3.997   6.271 -0.7363  0.8887 -0.2844
  591MOL0     C79670   8.148   3.954   6.386  0.8680 -0.6821  0.1569
  591MOL0     C79671   8.000   4.011   6.352 -0.0804 -0.0375  1.0478
  591MOL0     C79672   7.928   3.914   6.252 -0.2666 -1.0423 -0.3770
  591MOL0     C79673   7.789   3.981   6.213  1.0423  0.7869 -1.0212
  591MOL0     O79674   7.721   3.910   6.118  0.5772  0.1391  1.0074
  591MOL0     C79675   7.606   3.963   6.074  0.2438  0.0056  0.9226
  591MOL0     C79676   7.516   4.045   6.142 -0.9402 -0.0101  0.3818
  591MOL0     C79677   7.392   4.081   6.080  0.4024  0.6174 -1.2847
  591MOL0     C79678   7.310   4.169   6.167  0.4675  0.2353  0.4653
  591MOL0     C79679   7.346   4.018   5.962 -0.2274  0.8098  0.3177
  591MOL0     C79680   7.216   4.042   5.893 -0.0797 -0.0003 -0.7712
  591MOL0     O79681   7.197   3.950   5.798  0.3250  0.4313  0.4396
  591MOL0     C79682   7.103   3.969   5.697  1.1919  0.0354 -0.0987
  591MOL0     C79683   6.979   4.030   5.702 -1.0449 -0.3728 -0.4199
  591MOL0     C79684   6.894   4.042   5.591  0.4189 -0.1103  0.7488
  591MOL0     C79685   6.945   4.010   5.461  0.4972  0.5394 -0.2756
  591MOL0     O79686   6.872   4.042   5.348 -0.8086  0.3468 -0.8567
  591MOL0     C79687   6.785   3.936   5.302  0.0164 -0.5776  0.0459
  591MOL0     C79688   6.730   3.943   5.163  0.3343  0.4055  0.2021
  591MOL0     C79689   6.831   3.878   5.068  0.8288 -0.4030  0.9447
  591MOL0     C79690   6.796   3.893   4.920  0.3794  0.4677 -0.6167
  591MOL0     C79691   6.924   3.887   4.840 -0.3384 -0.4700  0.1082
  591MOL0     C79692   6.970   3.744   4.841 -0.3732 -0.2217  0.0166
  591MOL0     C79693   6.877   3.653   4.752  0.8984 -0.1999 -0.4312
  591MOL0     C79694   6.943   3.514   4.724 -0.1633 -0.6673 -0.7141
  591MOL0    Cl79695   6.982   3.436   4.870 -0.3586 -0.0112  0.0367
  591MOL0     C79696   7.070   3.951   5.455 -0.6503  0.7314 -0.0527
  591MOL0     C79697   7.149   3.925   5.572  0.8033 -0.3496  0.2514
  591MOL0     O79698   7.141   4.136   5.920  0.6695 -0.0812  0.3761
  591MOL0     C79699   7.442   3.937   5.898  0.5748 -0.1648  0.8588
  591MOL0     C79700   7.555   3.906   5.957 -0.1867 -1.2947 -0.4912
  591MOL0     N79701   8.250   4.135   6.264 -0.5483 -0.7943  0.2471
  591MOL0     N79702   8.323   4.164   6.163 -0.6176  0.2475 -0.2850
  591MOL0     C79703   9.283   4.095   6.680 -0.3308 -0.3115  0.0459
  591MOL0     C79704   9.409   4.140   6.735  0.4443  0.0415 -0.5500
  591MOL0     C79705   9.824   4.290   6.843 -1.0840 -0.3031 -0.0190
  591MOL0     C79706   9.909   4.283   6.735 -0.0051 -0.2847  0.1742
  591MOL0     C79707  10.045   4.327   6.736 -0.4084  0.2507 -0.3542
  591MOL0     C79708  10.089   4.409   6.851  0.1823  0.7209  0.2753
  591MOL0     O79709  10.217   4.463   6.864  0.0618  0.0578  0.4665
  591MOL0     C79710  10.320   4.368   6.838 -1.2461  0.3020  0.5164
  591MOL0     C79711  10.430   4.393   6.932  0.2630 -1.2852 -0.4838
  591MOL0     C79712  10.552   4.306   6.880  0.4829 -0.2150 -0.6204
  591MOL0     C79713  10.675   4.326   6.975  0.6194 -0.2930 -0.2049
  591MOL0     C79714  10.663   4.265   7.102  0.1361  0.0548  0.8905
  591MOL0     C79715  10.645   4.195   7.197  0.1956  0.4594  0.0024
  591MOL0     C79716  10.006   4.415   6.959 -0.1154  0.0666 -0.5249
  591MOL0     C79717   9.874   4.353   6.956 -0.0884 -0.2397 -0.3287
  591MOL0     H79718   9.637   4.064   6.508  0.7106 -3.1868  4.5100
  591MOL0     H79719   9.426   3.986   6.390  0.0404  1.4117 -0.2606
  591MOL0     H79720   9.206   4.101   6.310  0.4546 -1.0976 -1.0868
  591MOL0     H79721   9.224   3.927   6.324  0.5834  1.6746 -1.6716
  591MOL0     H79722   8.986   3.921   6.371 -5.2720  3.1699  1.3911
  591MOL0     H79723   8.983   4.098   6.329  0.0707 -0.0298 -0.1819
  591MOL0     H79724   9.059   4.035   6.091 -2.2490 -0.7115 -2.1148
  591MOL0     H79725   9.078   3.867   6.159  0.9706  0.1712  0.4733
  591MOL0     H79726   8.860   3.819   6.132  1.0293 -0.6752 -1.6553
  591MOL0     H79727   8.815   3.969   6.199 -1.4240  0.8547 -1.8695
  591MOL0     H79728   8.876   4.095   5.986  0.2562 -0.1598 -6.4537
  591MOL0     H79729   8.899   3.940   5.898 -0.5682 -0.6546 -0.7674
  591MOL0     H79730   8.683   4.056   5.860 -1.7803 -1.5618 -1.4158
  591MOL0     H79731   8.672   3.887   5.932  2.0105 -0.7953 -1.6540
  591MOL0     H79732   8.614   4.002   6.148  1.2966 -0.3666  0.3116
  591MOL0     H79733   8.635   4.161   6.062  0.6897 -0.0791 -2.4114
  591MOL0     H79734   8.451   3.972   5.936  0.2862 -1.8909  2.3494
  591MOL0     H79735   8.469   4.143   5.938  2.5301 -2.4255 -2.1020
  591MOL0     H79736   8.331   3.828   6.183 -0.4375  0.3769 -1.0211
  591MOL0     H79737   8.151   3.845   6.380 -1.0587 -0.6957 -1.9929
  591MOL0     H79738   8.191   4.001   6.474  2.8754  2.3112 -2.2222
  591MOL0     H79739   8.009   4.113   6.315 -0.4280  0.0141  1.1020
  591MOL0     H79740   7.941   4.005   6.444 -0.6316 -0.0827  0.6980
  591MOL0     H79741   7.924   3.818   6.304 -0.8254  0.7463  3.2994
  591MOL0     H79742   7.980   3.905   6.157  1.5052 -0.0832  0.4453
  591MOL0     H79743   7.795   4.078   6.163 -2.9983  1.1239 -1.1195
  591MOL0     H79744   7.740   3.987   6.310  2.8929  0.1146  0.0226
  591MOL0     H79745   7.526   4.075   6.246 -3.1940 -3.1670  1.6533
  591MOL0     H79746   7.382   4.238   6.213 -1.3091  1.2592  1.8561
  591MOL0     H79747   7.227   4.222   6.120  0.2025  1.3408  2.1278
  591MOL0     H79748   7.261   4.117   6.249  0.1648  0.2024  0.2674
  591MOL0     H79749   6.937   4.063   5.796 -0.9022 -1.4249  0.0294
  591MOL0     H79750   6.799   4.093   5.605  0.4832  0.1213  0.3663
  591MOL0     H79751   6.830   3.838   5.321 -2.5843 -1.7236  0.6541
  591MOL0     H79752   6.697   3.935   5.367 -0.8382 -1.7355 -1.0918
  591MOL0     H79753   6.641   3.879   5.172 -0.5715  1.7486  1.0498
  591MOL0     H79754   6.703   4.045   5.134 -0.6102 -0.0604 -0.6251
  591MOL0     H79755   6.831   3.771   5.091  1.7785 -0.5313  0.4013
  591MOL0     H79756   6.924   3.933   5.083 -0.9478  2.8466  0.9562
  591MOL0     H79757   6.727   3.815   4.887  2.0673 -0.9411 -0.9760
  591MOL0     H79758   6.744   3.988   4.907  1.0063  0.9751  0.4811
  591MOL0     H79759   7.011   3.941   4.878  1.5551  0.1946 -4.5903
  591MOL0     H79760   6.904   3.921   4.738  2.1063  4.6843  1.0778
  591MOL0     H79761   7.065   3.755   4.787 -0.0497 -1.2071  0.3621
  591MOL0     H79762   6.985   3.708   4.943 -0.6424  0.1366  0.1859
  591MOL0     H79763   6.835   3.707   4.667 -1.1609  1.0777  1.2845
  591MOL0     H79764   6.786   3.632   4.809  0.4605  0.4255 -0.8855
  591MOL0     H79765   7.034   3.533   4.666  0.1847  0.0613  0.0427
  591MOL0     H79766   6.871   3.458   4.664 -3.9507  1.3567  1.6000
  591MOL0     H79767   7.123   3.919   5.366  1.3302 -0.3404  1.4476
  591MOL0     H79768   7.251   3.893   5.555  0.7192  0.8106 -2.9814
  591MOL0     H79769   7.427   3.883   5.805 -4.2831  0.2791  1.1303
  591MOL0     H79770   7.631   3.840   5.915  1.2373 -0.3242  0.4479
  591MOL0     H79771   9.191   4.102   6.738  0.1177 -0.7536  0.8424
  591MOL0     H79772   9.400   4.185   6.833  0.6525 -0.7733 -0.1447
  591MOL0     H79773   9.872   4.258   6.636 -1.2101 -0.8323  0.7365
  591MOL0     H79774  10.114   4.307   6.655  0.3435  1.0952  0.0668
  591MOL0     H79775  10.282   4.266   6.851  0.1605 -0.2392  0.5812
  591MOL0     H79776  10.352   4.378   6.734 -0.0548  1.0204  0.9402
  591MOL0     H79777  10.402   4.378   7.036  0.7162  0.8732 -0.0067
  591MOL0     H79778  10.456   4.498   6.918 -2.8409 -0.1420  1.3600
  591MOL0     H79779  10.570   4.330   6.775 -1.8145  0.5900 -0.9004
  591MOL0     H79780  10.523   4.200   6.879 -1.6661  0.3147 -1.9110
  591MOL0     H79781  10.689   4.432   6.995  2.0691 -0.5631  0.3636
  591MOL0     H79782  10.758   4.277   6.923  0.7236  2.6070 -3.0651
  591MOL0     H79783  10.619   4.126   7.274 -0.1448  1.5479  0.8802
  591MOL0     H79784  10.046   4.464   7.048  3.2965 -1.3356 -1.1383
  591MOL0     H79785   9.813   4.347   7.045  0.6405  2.0619  0.3899
  592MOL0     O79786  11.335   2.974   1.688  0.2783  0.5309 -0.3476
  592MOL0     C79787  11.374   3.082   1.735  0.3722  0.0063  0.4856
  592MOL0     O79788  11.299   3.154   1.820  0.5595 -0.0035 -0.1114
  592MOL0     C79789  11.171   3.183   1.781 -0.5934  0.0904 -0.7539
  592MOL0     C79790  11.122   3.194   1.654 -0.6093  0.0145 -0.5551
  592MOL0     C79791  10.990   3.236   1.635  0.2369  0.3596 -0.4841
  592MOL0     C79792  10.906   3.256   1.747 -0.5874  0.2441  0.8317
  592MOL0     O79793  10.773   3.275   1.745  0.3828 -0.6802 -0.0597
  592MOL0     C79794  10.731   3.390   1.663  0.1300  0.9158 -1.2442
  592MOL0     C79795  10.591   3.367   1.589 -0.3455 -0.1797 -0.1889
  592MOL0     C79796  10.489   3.383   1.707 -0.5948  0.1032  0.4836
  592MOL0     C79797  10.354   3.381   1.643 -0.4069  0.8078 -0.0294
  592MOL0     C79798  10.252   3.441   1.724 -0.0651  0.0511 -0.2852
  592MOL0     C79799  10.109   3.402   1.678 -0.1971  0.2999  0.2297
  592MOL0     C79800   9.997   3.440   1.777  0.0952  0.7331 -0.7411
  592MOL0     C79801  10.014   3.388   1.926 -0.0716 -0.2324  0.2273
  592MOL0     N79802   9.898   3.431   2.010 -0.3152  0.2502  0.7905
  592MOL0     C79803   9.762   3.387   2.006 -0.6505 -0.5890 -0.5884
  592MOL0     C79804   9.694   3.470   2.081 -0.2600 -0.3628  0.0402
  592MOL0     C79805   9.551   3.469   2.107  0.4570  0.6846 -0.6681
  592MOL0     C79806   9.490   3.602   2.060 -0.0992 -0.1326 -0.7206
  592MOL0     C79807   9.335   3.618   2.081 -1.4505  1.2379 -0.4664
  592MOL0     C79808   9.290   3.757   2.058  0.2153 -0.3977 -0.0470
  592MOL0     O79809   9.149   3.752   2.066 -0.2820  0.2809 -0.4890
  592MOL0     C79810   9.087   3.871   2.066 -0.1135  0.9387  0.8948
  592MOL0     C79811   8.950   3.852   2.099  0.3396  0.4468 -0.3367
  592MOL0     C79812   8.864   3.966   2.113  0.6346 -0.8779  0.1029
  592MOL0     C79813   8.721   3.944   2.164  0.4588  0.9766 -0.0904
  592MOL0     C79814   8.912   4.092   2.084 -0.0530 -0.6863 -0.0267
  592MOL0     C79815   8.833   4.206   2.091  0.6919 -0.6145  0.4401
  592MOL0     O79816   8.873   4.305   2.168 -0.3786  0.4056 -0.1961
  592MOL0     C79817   8.805   4.420   2.202  0.6875 -0.2165  0.7163
  592MOL0     C79818   8.670   4.448   2.183  0.8532  0.1181 -0.2536
  592MOL0     C79819   8.616   4.573   2.218 -0.3164 -0.1689  0.5964
  592MOL0     C79820   8.692   4.669   2.286 -0.6316 -1.0958  0.6748
  592MOL0     O79821   8.644   4.796   2.305 -0.7859 -0.2243  0.6240
  592MOL0     C79822   8.677   4.845   2.436 -0.2559 -0.0741 -0.6831
  592MOL0     C79823   8.757   4.977   2.443  0.4961 -0.6501  0.0642
  592MOL0     C79824   8.788   5.001   2.588  0.8179  0.3759  0.6288
  592MOL0     C79825   8.926   4.954   2.614  0.0546  0.5117 -0.2162
  592MOL0     C79826   8.972   4.945   2.768 -0.7822 -0.8694 -0.1614
  592MOL0     C79827   8.964   5.091   2.829 -0.9179 -0.5426  0.0714
  592MOL0     C79828   9.050   5.116   2.951 -0.2846  0.3058 -0.0994
  592MOL0     C79829   9.059   5.261   2.991  0.5520  1.1937  0.0067
  592MOL0    Cl79830   9.095   5.370   2.853 -0.1373 -0.0451 -0.1796
  592MOL0     C79831   8.828   4.643   2.295  0.9947 -0.3196 -0.1475
  592MOL0     C79832   8.880   4.518   2.257 -0.3243 -0.4800 -0.8007
  592MOL0     O79833   8.739   4.206   2.014  0.1241 -0.3702 -0.1398
  592MOL0     C79834   9.042   4.113   2.044 -0.1924  0.4075  0.1914
  592MOL0     C79835   9.129   4.004   2.026 -0.4419 -0.8261  0.9386
  592MOL0     N79836   9.778   3.555   2.147 -0.2605 -0.3498  0.4083
  592MOL0     N79837   9.897   3.534   2.097 -0.4090  0.2574 -0.3454
  592MOL0     C79838  10.963   3.238   1.872 -0.1932 -1.0581 -0.5930
  592MOL0     C79839  11.090   3.191   1.889 -1.2491 -0.9359 -1.1274
  592MOL0     C79840  11.510   3.132   1.721  0.7652 -0.9718 -0.5819
  592MOL0     C79841  11.609   3.035   1.710 -1.0304 -0.3181 -0.1359
  592MOL0     C79842  11.745   3.074   1.697 -0.7553 -0.3952 -0.2194
  592MOL0     C79843  11.778   3.220   1.688 -0.8281 -0.1128  0.4427
  592MOL0     O79844  11.901   3.280   1.666  0.2529  0.0246 -0.2658
  592MOL0     C79845  12.018   3.201   1.677  0.5899  0.0807 -0.6300
  592MOL0     C79846  12.126   3.301   1.636  0.3355 -0.7636  0.6623
  592MOL0     C79847  12.271   3.277   1.684  0.8506 -0.5993 -0.6655
  592MOL0     C79848  12.369   3.393   1.650  0.8166 -0.0888  0.8632
  592MOL0     C79849  12.401   3.409   1.501 -0.4370  0.3766  0.4718
  592MOL0     C79850  12.424   3.421   1.385 -0.0738 -0.6118 -0.0402
  592MOL0     C79851  11.678   3.305   1.704  0.4840 -0.3495 -0.0250
  592MOL0     C79852  11.541   3.270   1.727  1.0862  0.5517  0.8484
  592MOL0     H79853  11.193   3.165   1.577  0.8556  0.1708  0.6816
  592MOL0     H79854  10.934   3.242   1.542  1.5482  1.9648 -1.2137
  592MOL0     H79855  10.733   3.475   1.731  2.7430 -0.0452  0.0154
  592MOL0     H79856  10.806   3.416   1.587  1.5606  0.2878 -0.0829
  592MOL0     H79857  10.577   3.445   1.514 -0.5800 -2.5469 -2.7793
  592MOL0     H79858  10.573   3.273   1.537 -0.2636 -0.6461  0.6138
  592MOL0     H79859  10.506   3.298   1.774  0.2589  0.0086  0.1702
  592MOL0     H79860  10.511   3.467   1.774  2.8857 -0.9163  0.8249
  592MOL0     H79861  10.356   3.428   1.544  2.4197  0.9842  0.0458
  592MOL0     H79862  10.325   3.276   1.634  0.4267  0.6832 -1.4726
  592MOL0     H79863  10.246   3.395   1.823 -2.8467 -3.1031 -1.6931
  592MOL0     H79864  10.247   3.550   1.728 -0.9306  0.0082  0.1922
  592MOL0     H79865  10.095   3.463   1.588 -0.1601  1.3135  0.8968
  592MOL0     H79866  10.104   3.293   1.670  1.0851 -0.2191  4.2975
  592MOL0     H79867   9.973   3.547   1.782  2.0539  1.1875 -0.0610
  592MOL0     H79868   9.905   3.393   1.742 -2.0255  2.5763  1.8889
  592MOL0     H79869  10.106   3.427   1.969  1.8957 -3.4132 -0.8013
  592MOL0     H79870  10.027   3.280   1.923  0.1818 -0.2115 -2.9268
  592MOL0     H79871   9.725   3.293   1.967  2.9840 -1.4459 -2.4588
  592MOL0     H79872   9.479   3.400   2.063  1.0921  0.7361 -1.8171
  592MOL0     H79873   9.535   3.469   2.215  0.4172  0.1853 -0.6741
  592MOL0     H79874   9.520   3.615   1.955  0.0935 -0.4665 -0.7103
  592MOL0     H79875   9.535   3.679   2.123  0.1072 -1.3459  0.6617
  592MOL0     H79876   9.297   3.581   2.176  1.6863  0.1278  0.4693
  592MOL0     H79877   9.291   3.563   1.996  0.9588  0.3216 -1.2010
  592MOL0     H79878   9.322   3.802   1.963  1.4793  1.3242  1.1450
  592MOL0     H79879   9.330   3.821   2.136  1.3361 -1.0549 -0.0622
  592MOL0     H79880   8.916   3.749   2.097  0.9602  0.2349 -0.2609
  592MOL0     H79881   8.664   3.878   2.097  0.8059  0.2742  0.2987
  592MOL0     H79882   8.727   3.889   2.258 -1.6059 -0.1430 -0.5547
  592MOL0     H79883   8.661   4.033   2.188  1.7603  2.1776 -1.1156
  592MOL0     H79884   8.616   4.382   2.115  0.0842  1.2141 -0.7231
  592MOL0     H79885   8.511   4.600   2.208  0.2937  1.7802 -1.4969
  592MOL0     H79886   8.576   4.868   2.471  0.6030 -0.5586  2.4553
  592MOL0     H79887   8.721   4.772   2.505 -0.0048  1.3710  0.7432
  592MOL0     H79888   8.841   4.989   2.373 -1.7879 -1.5911 -3.0780
  592MOL0     H79889   8.685   5.058   2.425 -0.0323 -1.2814 -0.7493
  592MOL0     H79890   8.720   4.943   2.652  0.3187 -0.5791 -0.7264
  592MOL0     H79891   8.787   5.107   2.616  3.0436  0.1560  1.7263
  592MOL0     H79892   8.945   4.862   2.559 -2.1341  0.0422 -0.2749
  592MOL0     H79893   8.988   5.019   2.552 -2.8835  2.9134 -0.9079
  592MOL0     H79894   9.075   4.911   2.778  0.4047  2.1407 -0.8629
  592MOL0     H79895   8.902   4.880   2.820 -0.4834 -1.7216 -0.8092
  592MOL0     H79896   8.992   5.165   2.754 -1.6230 -1.6641 -1.3560
  592MOL0     H79897   8.859   5.118   2.844 -0.1624  2.7982  0.1494
  592MOL0     H79898   9.153   5.085   2.932  0.4723  2.1906  0.6765
  592MOL0     H79899   9.018   5.044   3.027  1.1174 -1.5619 -1.1888
  592MOL0     H79900   9.141   5.276   3.062  0.9928 -0.1062 -0.2055
  592MOL0     H79901   8.964   5.289   3.038 -0.7167  0.4352 -1.9910
  592MOL0     H79902   8.897   4.704   2.352 -1.1215  0.1613  2.0640
  592MOL0     H79903   8.986   4.497   2.258 -0.0332  0.8572 -0.8924
  592MOL0     H79904   9.076   4.211   2.014  3.7111 -1.0136 -0.7009
  592MOL0     H79905   9.232   4.011   1.992 -0.9444  1.8276 -0.3009
  592MOL0     H79906  10.893   3.254   1.953  1.0324 -0.4692  0.3949
  592MOL0     H79907  11.111   3.180   1.995  2.9154  1.2229 -1.5237
  592MOL0     H79908  11.592   2.928   1.702  0.6296 -0.4602 -5.1050
  592MOL0     H79909  11.812   2.991   1.677  0.1595  0.3475 -0.3167
  592MOL0     H79910  12.023   3.166   1.780 -2.6368  3.1270  0.7785
  592MOL0     H79911  12.010   3.113   1.613 -1.5746 -1.2864  1.3503
  592MOL0     H79912  12.087   3.396   1.673 -1.5247 -2.0981  2.3302
  592MOL0     H79913  12.124   3.293   1.527 -0.4676 -1.1236  0.6965
  592MOL0     H79914  12.311   3.193   1.626 -1.5127 -0.9572 -1.9303
  592MOL0     H79915  12.273   3.260   1.792 -0.9069  0.6517 -0.3910
  592MOL0     H79916  12.463   3.364   1.697  0.2347 -4.9769 -0.4042
  592MOL0     H79917  12.339   3.490   1.691 -2.0854 -0.6984  0.4064
  592MOL0     H79918  12.445   3.421   1.280  0.6369  0.2966  0.0946
  592MOL0     H79919  11.699   3.411   1.695  0.5395 -0.4229 -0.8136
  592MOL0     H79920  11.464   3.339   1.760  2.0743  0.7372  2.9822
  593MOL0     O79921   3.866   7.053   5.938 -0.5149 -0.7010  0.4902
  593MOL0     C79922   3.907   6.940   5.917  0.5139  0.1205 -0.1213
  593MOL0     O79923   3.957   6.853   6.017  0.0311 -0.5817  0.0679
  593MOL0     C79924   3.966   6.877   6.153  0.0238  0.2246 -0.0848
  593MOL0     C79925   3.946   6.764   6.229  0.3080  0.2129  0.2097
  593MOL0     C79926   3.935   6.773   6.371 -0.5835  0.0371 -0.4294
  593MOL0     C79927   3.950   6.896   6.428 -1.0089 -0.0824 -0.7428
  593MOL0     O79928   3.916   6.907   6.560 -0.2204  0.4956  0.3121
  593MOL0     C79929   4.000   6.821   6.645 -0.6864 -0.3091 -0.3975
  593MOL0     C79930   3.934   6.824   6.779 -0.2454  0.1166 -0.1066
  593MOL0     C79931   3.980   6.714   6.872 -0.6094  0.0226 -0.5341
  593MOL0     C79932   3.894   6.702   6.998  0.8059 -0.0996  0.7606
  593MOL0     C79933   3.912   6.566   7.055 -0.2159 -0.7229 -0.0018
  593MOL0     C79934   3.799   6.540   7.159  0.5126 -0.1454 -0.9643
  593MOL0     C79935   3.666   6.506   7.087  0.0720  0.4693  0.6032
  593MOL0     C79936   3.564   6.441   7.176  0.4581  0.0419  0.3852
  593MOL0     N79937   3.449   6.358   7.120 -0.6105 -0.3701  0.1254
  593MOL0     C79938   3.321   6.370   7.174  0.7149 -0.1290 -0.1555
  593MOL0     C79939   3.263   6.253   7.144  0.3244  0.3538  0.3317
  593MOL0     C79940   3.123   6.207   7.182  0.3113 -0.2553  0.4939
  593MOL0     C79941   3.041   6.131   7.071 -0.4392  0.5713 -0.1889
  593MOL0     C79942   2.911   6.047   7.123 -1.1184 -1.4903  0.0785
  593MOL0     C79943   2.865   5.937   7.033 -0.5015  0.4306 -0.1039
  593MOL0     O79944   2.834   5.979   6.899 -0.2205 -0.5208 -0.3460
  593MOL0     C79945   2.704   6.031   6.866  0.0121  0.6715 -0.0603
  593MOL0     C79946   2.678   6.046   6.732  0.0429 -0.0628  0.3713
  593MOL0     C79947   2.563   6.102   6.683  0.3374  0.2009 -0.6813
  593MOL0     C79948   2.568   6.114   6.540 -0.5937 -0.9763  0.6016
  593MOL0     C79949   2.458   6.151   6.771 -0.6219  0.6760 -0.2218
  593MOL0     C79950   2.335   6.220   6.735 -0.4570  0.0803  0.3404
  593MOL0     O79951   2.288   6.310   6.823 -0.0751  0.1122 -0.3223
  593MOL0     C79952   2.178   6.383   6.788  0.1749  0.8740  0.0604
  593MOL0     C79953   2.175   6.500   6.722  0.5388  0.3960 -0.1032
  593MOL0     C79954   2.054   6.576   6.690  0.5741 -0.2780  0.0737
  593MOL0     C79955   1.929   6.519   6.723  0.1411 -0.5274  0.3342
  593MOL0     O79956   1.810   6.581   6.699 -0.4580  0.3410  0.0539
  593MOL0     C79957   1.797   6.638   6.571  1.2534  0.6696  0.1464
  593MOL0     C79958   1.655   6.685   6.563  0.3890 -0.1919  0.2747
  593MOL0     C79959   1.546   6.577   6.599  0.7699  0.4445 -0.6608
  593MOL0     C79960   1.429   6.635   6.694 -0.0157 -0.4337 -0.7163
  593MOL0     C79961   1.318   6.526   6.727 -1.0988 -0.9387 -0.4818
  593MOL0     C79962   1.211   6.600   6.816  1.7510  0.5295 -0.2230
  593MOL0     C79963   1.262   6.665   6.943  0.1093  0.2045 -1.1330
  593MOL0     C79964   1.156   6.663   7.056 -0.1933 -0.0949  0.4524
  593MOL0    Cl79965   1.154   6.504   7.138 -0.4951  0.2666  0.3517
  593MOL0     C79966   1.929   6.395   6.795 -0.0651  0.2332 -0.8874
  593MOL0     C79967   2.050   6.332   6.828 -0.8679  0.0494 -0.8611
  593MOL0     O79968   2.273   6.180   6.631  0.0352 -0.2093  0.7602
  593MOL0     C79969   2.491   6.139   6.906 -0.7273 -0.8673  1.0544
  593MOL0     C79970   2.605   6.075   6.958  0.4368  0.3563  0.6066
  593MOL0     N79971   3.347   6.174   7.067  0.8016 -0.5016  0.2050
  593MOL0     N79972   3.456   6.239   7.041 -0.1740  0.1995  0.4621
  593MOL0     C79973   3.963   7.010   6.351  0.2940 -0.4373  0.0409
  593MOL0     C79974   3.968   7.001   6.213 -0.8444 -0.0708 -1.0138
  593MOL0     C79975   3.894   6.882   5.781 -1.0128 -0.4676  0.0536
  593MOL0     C79976   3.871   6.962   5.667  0.6744  0.4102  0.3398
  593MOL0     C79977   3.852   6.901   5.545  0.6847 -0.6981 -0.1284
  593MOL0     C79978   3.844   6.763   5.520  1.0282 -0.9220 -0.1934
  593MOL0     O79979   3.818   6.708   5.402  0.4603  0.4964  0.2755
  593MOL0     C79980   3.733   6.782   5.316 -0.3915  0.2610 -0.4542
  593MOL0     C79981   3.701   6.698   5.191  0.4925  0.2702  0.0123
  593MOL0     C79982   3.587   6.601   5.213 -0.0354  0.5643  0.6679
  593MOL0     C79983   3.456   6.674   5.203 -0.0739  0.2092  0.9876
  593MOL0     C79984   3.424   6.732   5.069 -0.0281 -0.8260  0.3849
  593MOL0     C79985   3.391   6.775   4.962  0.3614  0.0863  0.4096
  593MOL0     C79986   3.877   6.687   5.635 -0.2722 -0.5570 -0.6263
  593MOL0     C79987   3.901   6.744   5.760  0.9731  0.0824 -0.3519
  593MOL0     H79988   3.958   6.664   6.187  0.9479 -0.1616  1.2563
  593MOL0     H79989   3.921   6.684   6.432 -0.9175  2.0752  2.6887
  593MOL0     H79990   4.014   6.723   6.599  0.9877 -0.1410 -0.3045
  593MOL0     H79991   4.095   6.874   6.638 -2.3017  2.7853 -0.6840
  593MOL0     H79992   3.952   6.916   6.836 -0.8047 -0.9905  1.9550
  593MOL0     H79993   3.825   6.828   6.773 -0.1610  0.5565 -2.9857
  593MOL0     H79994   3.971   6.618   6.820 -2.1390 -0.6105  0.8056
  593MOL0     H79995   4.083   6.727   6.909 -0.1686  0.9448 -2.0188
  593MOL0     H79996   3.918   6.769   7.082 -3.0171  2.9773 -0.2909
  593MOL0     H79997   3.790   6.721   6.971  0.3149 -1.9221  1.2065
  593MOL0     H79998   3.904   6.492   6.975  3.3921  1.7687 -2.9989
  593MOL0     H79999   4.015   6.568   7.090  0.3641 -2.0857 -1.5315
  593MOL0     H80000   3.821   6.454   7.224 -0.3346  0.5341  0.2536
  593MOL0     H80001   3.782   6.628   7.222  0.9794  0.5273 -1.7547
  593MOL0     H80002   3.625   6.605   7.062 -0.4688 -0.0774 -0.7939
  593MOL0     H80003   3.660   6.451   6.992  0.1514  3.1519 -1.0704
  593MOL0     H80004   3.523   6.524   7.234  0.6310  0.4984 -0.1359
  593MOL0     H80005   3.614   6.374   7.247 -0.0127 -1.8016 -0.9390
  593MOL0     H80006   3.292   6.458   7.229  1.7526 -0.2072  0.5585
  593MOL0     H80007   3.136   6.145   7.270  2.9186  0.3171  0.6017
  593MOL0     H80008   3.057   6.291   7.205  0.1125  0.0324 -1.0293
  593MOL0     H80009   3.108   6.058   7.024  0.7287  0.3432  1.7205
  593MOL0     H80010   3.002   6.198   6.995  0.3548 -0.4593 -1.5483
  593MOL0     H80011   2.830   6.118   7.144 -1.3382 -0.8710 -2.4929
  593MOL0     H80012   2.929   5.994   7.217 -0.4892 -1.2167  0.1172
  593MOL0     H80013   2.770   5.897   7.070 -0.6569  1.0550  0.1811
  593MOL0     H80014   2.931   5.850   7.028  0.0691  0.7073  1.8069
  593MOL0     H80015   2.760   6.014   6.668  0.7700 -0.9995  1.7265
  593MOL0     H80016   2.517   6.023   6.509 -0.6374 -1.6968  2.6623
  593MOL0     H80017   2.525   6.204   6.495  2.4208  0.0099 -0.5445
  593MOL0     H80018   2.671   6.120   6.504 -0.8517 -0.8485 -0.1306
  593MOL0     H80019   2.259   6.541   6.669 -2.4324  2.6719 -3.5189
  593MOL0     H80020   2.058   6.673   6.643 -0.2302 -0.4078 -0.2704
  593MOL0     H80021   1.868   6.720   6.553  2.4004 -0.6044 -1.5361
  593MOL0     H80022   1.823   6.558   6.501  3.1757  2.9087 -1.8718
  593MOL0     H80023   1.654   6.766   6.637  0.8501  0.6280 -0.6010
  593MOL0     H80024   1.636   6.741   6.471 -1.6435  2.6760  2.2540
  593MOL0     H80025   1.593   6.495   6.653 -0.9121 -0.5544 -0.6286
  593MOL0     H80026   1.502   6.532   6.509  2.9125 -1.5652 -0.7778
  593MOL0     H80027   1.464   6.688   6.783 -0.6372  0.6560 -1.0966
  593MOL0     H80028   1.370   6.713   6.645  1.0063  0.6175 -0.3270
  593MOL0     H80029   1.366   6.444   6.782 -1.4705 -0.3348  0.7805
  593MOL0     H80030   1.265   6.500   6.635 -3.1473  0.6986  0.1648
  593MOL0     H80031   1.170   6.676   6.748  1.4292 -0.8560 -1.6477
  593MOL0     H80032   1.132   6.526   6.832  3.4398 -1.2570  0.2360
  593MOL0     H80033   1.294   6.769   6.930  3.4113 -0.2081  1.9757
  593MOL0     H80034   1.355   6.617   6.976 -0.4491  1.1169  2.0921
  593MOL0     H80035   1.058   6.706   7.032  0.6942  1.3866 -0.7269
  593MOL0     H80036   1.184   6.735   7.134 -4.3063  1.4369  0.7585
  593MOL0     H80037   1.837   6.341   6.818 -1.0166  2.1624  0.0987
  593MOL0     H80038   2.038   6.239   6.883 -3.3485  0.6297 -0.2684
  593MOL0     H80039   2.422   6.175   6.981 -1.5683 -1.2363  0.4755
  593MOL0     H80040   2.614   6.073   7.066  0.3099  4.4011  0.8241
  593MOL0     H80041   3.941   7.100   6.407  2.0990 -0.5921  1.1046
  593MOL0     H80042   3.974   7.084   6.143  0.4738 -0.0209 -0.8735
  593MOL0     H80043   3.875   7.069   5.681  1.4269  0.4566 -0.1876
  593MOL0     H80044   3.844   6.962   5.456  1.4539  0.1153  0.3435
  593MOL0     H80045   3.639   6.820   5.359  0.4013 -0.4454  2.0497
  593MOL0     H80046   3.782   6.875   5.284 -0.0301  0.8312  1.6321
  593MOL0     H80047   3.795   6.649   5.162  0.7177  0.5985  0.1711
  593MOL0     H80048   3.682   6.768   5.109  1.9197 -0.5337 -1.0443
  593MOL0     H80049   3.592   6.564   5.316 -0.2559 -0.0837  0.4470
  593MOL0     H80050   3.585   6.519   5.141  1.2422 -2.3694  3.7427
  593MOL0     H80051   3.457   6.753   5.280  1.0206 -0.9408  2.2129
  593MOL0     H80052   3.372   6.605   5.213 -0.9061  0.5110 -2.7926
  593MOL0     H80053   3.366   6.824   4.870  2.6274  1.6646  0.5427
  593MOL0     H80054   3.877   6.579   5.628  1.2760 -0.6476  0.4260
  593MOL0     H80055   3.924   6.678   5.843  0.6157 -2.6324 -2.2671
  594MOL0     O80056   0.006   7.615   8.314 -0.0042 -0.3272  0.2692
  594MOL0     C80057   0.010   7.709   8.397 -0.8141 -0.1068  0.0052
  594MOL0     O80058  -0.084   7.807   8.420 -0.3481 -0.2406  0.4594
  594MOL0     C80059  -0.187   7.803   8.339  0.4539  0.4713  0.2822
  594MOL0     C80060  -0.186   7.868   8.215 -0.3092 -1.1476 -0.2547
  594MOL0     C80061  -0.299   7.867   8.130  0.0710  0.3149  0.7945
  594MOL0     C80062  -0.421   7.803   8.167  0.0036 -0.2753 -0.2465
  594MOL0     O80063  -0.517   7.785   8.084 -0.4394  0.4517  0.3207
  594MOL0     C80064  -0.512   7.852   7.957  0.3427  1.3322  0.4636
  594MOL0     C80065  -0.660   7.870   7.924  1.0217  0.0726  0.5283
  594MOL0     C80066  -0.742   7.932   8.033  0.2790  0.6649 -0.1179
  594MOL0     C80067  -0.897   7.918   8.001 -0.3365  0.2118  0.3412
  594MOL0     C80068  -0.956   7.787   8.042  1.0055 -1.0179  0.1673
  594MOL0     C80069  -0.952   7.758   8.199  0.2937 -0.3322 -0.3476
  594MOL0     C80070  -0.856   7.638   8.224  0.4154  0.6850  0.1366
  594MOL0     C80071  -0.878   7.584   8.366 -0.3540 -0.2641 -0.3619
  594MOL0     N80072  -0.751   7.525   8.417  0.0469  0.1319  0.0474
  594MOL0     C80073  -0.686   7.407   8.387 -0.5104  0.0808  0.0219
  594MOL0     C80074  -0.561   7.415   8.441  0.0735  1.1451 -1.7404
  594MOL0     C80075  -0.465   7.301   8.452  0.0291 -0.0651  0.6597
  594MOL0     C80076  -0.402   7.279   8.317  0.4486  0.0474 -0.6272
  594MOL0     C80077  -0.293   7.383   8.292  0.8672 -0.9888 -0.3283
  594MOL0     C80078  -0.288   7.423   8.140  0.7247  0.1879 -0.1206
  594MOL0     O80079  -0.259   7.305   8.071  0.3162 -0.1803 -0.4452
  594MOL0     C80080  -0.133   7.261   8.046 -0.3372  0.1103 -0.2840
  594MOL0     C80081  -0.110   7.128   7.996  0.5941 -0.6121 -0.0977
  594MOL0     C80082   0.029   7.088   7.984 -0.7742 -0.5910 -1.0180
  594MOL0     C80083   0.045   6.949   7.925 -0.0659  0.1570 -0.5140
  594MOL0     C80084   0.145   7.172   8.021 -0.7268 -0.6323  0.4020
  594MOL0     C80085   0.293   7.140   8.008 -0.5359  0.1072  0.6843
  594MOL0     O80086   0.391   7.229   8.047  0.1636  0.4880 -0.6686
  594MOL0     C80087   0.505   7.171   8.083  0.9302 -0.6802 -0.0461
  594MOL0     C80088   0.549   7.175   8.218  0.6088  0.7811  0.2753
  594MOL0     C80089   0.679   7.132   8.238  0.1572 -0.1098  0.1758
  594MOL0     C80090   0.778   7.095   8.136 -0.1480  0.5522  0.0580
  594MOL0     O80091   0.908   7.067   8.161  0.3218 -0.0982  0.2488
  594MOL0     C80092   0.959   7.099   8.292  0.5353 -0.0072  0.2193
  594MOL0     C80093   1.029   7.237   8.289 -0.4137  0.1986 -0.6664
  594MOL0     C80094   1.143   7.243   8.187  0.7871  0.7981  0.1100
  594MOL0     C80095   1.237   7.355   8.220  0.5985  0.5264 -0.1055
  594MOL0     C80096   1.374   7.359   8.143 -0.1795  0.3829 -1.3547
  594MOL0     C80097   1.493   7.302   8.217 -0.9886 -0.0065  0.1305
  594MOL0     C80098   1.610   7.300   8.118 -0.3226 -0.5651  0.6036
  594MOL0     C80099   1.683   7.436   8.088  0.0334 -0.1633  0.1676
  594MOL0    Cl80100   1.758   7.485   8.241  0.0211 -0.1401 -0.7012
  594MOL0     C80101   0.727   7.081   8.003  0.6168  0.3677  0.6795
  594MOL0     C80102   0.594   7.119   7.983  0.3878  0.6390  0.2807
  594MOL0     O80103   0.314   7.026   7.978 -0.5317  0.1736 -0.5541
  594MOL0     C80104   0.111   7.295   8.071  0.1537  0.5045 -0.5899
  594MOL0     C80105  -0.023   7.340   8.082  0.4168  0.0525 -0.2691
  594MOL0     N80106  -0.551   7.537   8.508 -0.5480  0.4731 -0.2813
  594MOL0     N80107  -0.664   7.607   8.493 -0.5703 -0.0138 -0.1560
  594MOL0     C80108  -0.419   7.741   8.294 -0.1173 -0.4741  0.3779
  594MOL0     C80109  -0.308   7.741   8.375 -0.1545 -0.7898 -1.1605
  594MOL0     C80110   0.142   7.717   8.466  0.1469  0.3170  0.9336
  594MOL0     C80111   0.171   7.793   8.578 -0.6978 -0.3147 -0.2884
  594MOL0     C80112   0.301   7.799   8.629 -0.4674  0.5480 -0.4319
  594MOL0     C80113   0.409   7.738   8.556 -0.6132  0.2894 -0.4587
  594MOL0     O80114   0.541   7.734   8.602 -0.7654  0.5738 -0.6355
  594MOL0     C80115   0.574   7.775   8.736  0.4647 -0.5509 -0.0370
  594MOL0     C80116   0.726   7.742   8.761 -0.0142  0.4175  1.1046
  594MOL0     C80117   0.790   7.843   8.847  0.3911 -0.0405 -0.0969
  594MOL0     C80118   0.920   7.794   8.899 -0.9615  0.1992 -0.6136
  594MOL0     C80119   0.994   7.891   8.983  0.2515  0.1812  0.5516
  594MOL0     C80120   1.034   7.964   9.071  0.8076  0.1906  0.6808
  594MOL0     C80121   0.390   7.677   8.441 -0.9887 -0.3395 -0.4592
  594MOL0     C80122   0.255   7.663   8.405 -0.3075  0.1317  0.2113
  594MOL0     H80123  -0.094   7.907   8.172 -2.1982  2.4013 -1.5071
  594MOL0     H80124  -0.283   7.911   8.032  0.8666 -0.2879  0.6367
  594MOL0     H80125  -0.463   7.950   7.957  1.4263  0.8018 -0.2293
  594MOL0     H80126  -0.464   7.788   7.883  1.7527  2.3824  0.4312
  594MOL0     H80127  -0.674   7.928   7.832 -3.3448  0.3394  1.1091
  594MOL0     H80128  -0.701   7.770   7.906  2.8252 -0.3080 -1.9320
  594MOL0     H80129  -0.723   7.877   8.125 -0.9838 -0.0480 -0.2583
  594MOL0     H80130  -0.717   8.038   8.032  2.5978  0.1930  0.6439
  594MOL0     H80131  -0.947   7.985   8.071  1.3535 -0.8919  2.7457
  594MOL0     H80132  -0.930   7.922   7.897  2.2653 -0.5944 -0.5755
  594MOL0     H80133  -1.062   7.781   8.015  1.3016  0.6137 -1.5951
  594MOL0     H80134  -0.908   7.713   7.978  0.7417  0.7043 -2.1628
  594MOL0     H80135  -0.931   7.841   8.267 -1.5426  0.7549 -1.0323
  594MOL0     H80136  -1.056   7.733   8.222 -1.0132  0.3747 -4.5929
  594MOL0     H80137  -0.888   7.554   8.161  2.1042 -0.9534  1.3637
  594MOL0     H80138  -0.751   7.662   8.207  0.7552 -2.4684 -3.7098
  594MOL0     H80139  -0.950   7.501   8.369 -0.9763  0.2727 -0.0296
  594MOL0     H80140  -0.904   7.656   8.444  2.2780 -0.4211  0.7477
  594MOL0     H80141  -0.732   7.323   8.335 -3.6473 -0.0124  2.5652
  594MOL0     H80142  -0.386   7.321   8.524  0.4216 -2.1658  0.8491
  594MOL0     H80143  -0.515   7.213   8.492  0.8937  0.0650  2.0726
  594MOL0     H80144  -0.477   7.288   8.238  0.0137  0.6680 -0.1478
  594MOL0     H80145  -0.363   7.178   8.303  0.7578  0.4510 -3.1198
  594MOL0     H80146  -0.191   7.351   8.312  1.4089  0.6765 -0.2429
  594MOL0     H80147  -0.319   7.472   8.349 -0.7153 -0.4456 -1.7720
  594MOL0     H80148  -0.227   7.513   8.122 -1.3746  2.2800  2.4429
  594MOL0     H80149  -0.382   7.462   8.101 -0.2164 -1.9941 -0.1556
  594MOL0     H80150  -0.190   7.061   7.968 -0.0961  0.1916 -0.0747
  594MOL0     H80151  -0.050   6.894   7.925  1.4170 -2.5775 -0.0906
  594MOL0     H80152   0.080   6.947   7.822  0.5690  1.5316 -0.3559
  594MOL0     H80153   0.108   6.877   7.978 -1.8820 -1.1395 -0.0213
  594MOL0     H80154   0.486   7.228   8.289  0.5437  0.2823  0.5926
  594MOL0     H80155   0.692   7.163   8.341 -1.1389  1.9989 -0.2405
  594MOL0     H80156   0.881   7.095   8.368 -2.2153  1.2832 -2.3257
  594MOL0     H80157   1.034   7.022   8.316 -1.4360 -1.4707  2.0315
  594MOL0     H80158   0.955   7.315   8.266 -1.1982 -0.3171  0.0363
  594MOL0     H80159   1.059   7.267   8.390 -2.8106  2.9218 -0.6177
  594MOL0     H80160   1.114   7.229   8.082 -0.6563 -3.1366  0.8460
  594MOL0     H80161   1.203   7.153   8.199 -1.4528 -0.8591 -0.4067
  594MOL0     H80162   1.181   7.446   8.196 -0.6463 -0.0344  0.5826
  594MOL0     H80163   1.248   7.366   8.328 -1.2219 -0.6018  0.2367
  594MOL0     H80164   1.394   7.466   8.141  1.6239  0.0762 -1.4153
  594MOL0     H80165   1.358   7.320   8.042  0.2553  0.3992 -1.4304
  594MOL0     H80166   1.509   7.367   8.304  0.7507 -1.6442  1.1157
  594MOL0     H80167   1.469   7.201   8.253 -0.4839 -0.0426  0.3709
  594MOL0     H80168   1.580   7.249   8.025 -0.8355 -0.9180  0.9551
  594MOL0     H80169   1.684   7.235   8.165  0.1509  0.1197  0.8138
  594MOL0     H80170   1.618   7.518   8.057 -0.0522 -0.2886  0.0192
  594MOL0     H80171   1.759   7.423   8.010  0.4790 -2.9972  0.9448
  594MOL0     H80172   0.793   7.049   7.923  0.2927 -0.1006  0.5929
  594MOL0     H80173   0.547   7.100   7.887  0.6952  1.3780 -0.0240
  594MOL0     H80174   0.190   7.363   8.099  1.4241 -0.9545 -0.5000
  594MOL0     H80175  -0.043   7.440   8.120 -2.2415  0.1690 -1.7363
  594MOL0     H80176  -0.510   7.687   8.317 -2.8548  2.4755 -2.5706
  594MOL0     H80177  -0.309   7.688   8.470 -1.3035  1.9859  0.5028
  594MOL0     H80178   0.087   7.850   8.618  1.4090  1.9882  1.1534
  594MOL0     H80179   0.307   7.848   8.726  0.5863  1.0027 -0.7155
  594MOL0     H80180   0.560   7.883   8.746 -0.2604 -0.7784  1.8981
  594MOL0     H80181   0.513   7.720   8.808  0.3905  1.1940  1.2979
  594MOL0     H80182   0.776   7.732   8.664  0.5239 -4.3618  1.6539
  594MOL0     H80183   0.728   7.645   8.811  0.8078 -0.5071 -0.6305
  594MOL0     H80184   0.722   7.867   8.929 -0.1276 -2.5006  0.2660
  594MOL0     H80185   0.804   7.931   8.783  0.9191  0.1915  0.3229
  594MOL0     H80186   0.986   7.782   8.812  0.4733  0.3124  0.4118
  594MOL0     H80187   0.899   7.701   8.953 -1.8617  0.8322  0.1443
  594MOL0     H80188   1.065   8.030   9.149  0.2893 -1.9791  2.8487
  594MOL0     H80189   0.479   7.630   8.399  0.3027  2.6993 -1.3887
  594MOL0     H80190   0.238   7.592   8.325  1.6338  0.4374 -0.5220
  595MOL0     O80191   7.951  10.413   7.209  0.1620 -0.1130  0.6638
  595MOL0     C80192   8.007  10.304   7.207 -0.2771 -0.9300  0.6831
  595MOL0     O80193   8.014  10.220   7.098  0.0401 -0.0991  1.0387
  595MOL0     C80194   7.929  10.243   6.993  0.1307  0.3308  0.3644
  595MOL0     C80195   7.964  10.338   6.899  0.3141  0.8388 -0.3247
  595MOL0     C80196   7.868  10.371   6.804 -0.0056  0.2225  0.9571
  595MOL0     C80197   7.734  10.315   6.802 -0.4952 -0.0941 -0.4979
  595MOL0     O80198   7.633  10.328   6.701  0.4874 -0.1897 -0.9388
  595MOL0     C80199   7.654  10.450   6.614 -0.9160  0.1710 -0.5654
  595MOL0     C80200   7.518  10.484   6.554 -0.6920  0.4279 -0.7498
  595MOL0     C80201   7.520  10.626   6.486  0.7828  0.9028  0.7816
  595MOL0     C80202   7.618  10.629   6.366  0.9505  0.3443 -0.5384
  595MOL0     C80203   7.592  10.753   6.290  0.2204 -0.7204 -0.7012
  595MOL0     C80204   7.687  10.777   6.177 -0.2393  0.1180  0.1062
  595MOL0     C80205   7.672  10.916   6.109 -0.3910 -0.5395 -0.2428
  595MOL0     C80206   7.540  10.918   6.045  0.2553  0.1804  0.3814
  595MOL0     N80207   7.521  11.044   5.972 -0.3050 -0.1574 -0.2639
  595MOL0     C80208   7.481  11.168   6.034 -0.0766 -0.1315  0.6582
  595MOL0     C80209   7.451  11.250   5.933  0.2039 -0.1203 -0.2775
  595MOL0     C80210   7.386  11.386   5.962 -0.2656  0.2343 -0.9472
  595MOL0     C80211   7.242  11.376   5.908  0.4166 -0.5563 -0.8746
  595MOL0     C80212   7.174  11.517   5.926  0.4301 -0.6221  0.6411
  595MOL0     C80213   7.034  11.536   5.865 -0.1160 -1.3496  0.0391
  595MOL0     O80214   6.997  11.653   5.933  0.2724 -0.7715  0.2270
  595MOL0     C80215   6.899  11.727   5.875 -0.7318 -1.1593  0.0619
  595MOL0     C80216   6.810  11.690   5.769  0.3135  0.0245 -0.5262
  595MOL0     C80217   6.695  11.763   5.739 -0.3024 -0.4335 -0.9669
  595MOL0     C80218   6.609  11.714   5.632  0.9562  0.6363  0.4075
  595MOL0     C80219   6.674  11.891   5.809  0.1553 -0.6874 -0.4644
  595MOL0     C80220   6.554  11.984   5.793 -1.5396  0.5689  0.3825
  595MOL0     O80221   6.521  12.060   5.893  0.3140 -0.6015 -0.8430
  595MOL0     C80222   6.416  12.140   5.890  0.4477 -0.4749  0.6805
  595MOL0     C80223   6.420  12.237   5.792 -0.7836 -0.8154  0.0057
  595MOL0     C80224   6.327  12.342   5.776 -0.0862 -0.0786 -0.3052
  595MOL0     C80225   6.211  12.331   5.860 -0.9831 -0.4183  0.4100
  595MOL0     O80226   6.114  12.416   5.868 -0.2915  0.2854  0.1947
  595MOL0     C80227   6.072  12.470   5.743 -0.1631  0.3573 -0.8680
  595MOL0     C80228   5.927  12.434   5.727  0.1258 -0.2419  0.4480
  595MOL0     C80229   5.839  12.467   5.846 -0.9671  0.3337  0.1473
  595MOL0     C80230   5.691  12.486   5.799  0.9519  0.5340 -0.1159
  595MOL0     C80231   5.601  12.520   5.912 -0.1229 -1.3780  0.9225
  595MOL0     C80232   5.450  12.497   5.884 -0.3144  0.4747 -0.2852
  595MOL0     C80233   5.387  12.625   5.817  0.9034 -1.0518  0.1678
  595MOL0     C80234   5.244  12.660   5.876  0.5222 -0.4218  0.1527
  595MOL0    Cl80235   5.122  12.564   5.798 -0.1746  0.1350  0.0118
  595MOL0     C80236   6.187  12.225   5.946 -0.6699 -0.5647  0.3297
  595MOL0     C80237   6.298  12.131   5.968 -0.9427 -0.8260 -0.2600
  595MOL0     O80238   6.491  11.971   5.686 -0.0972  0.8162  0.5302
  595MOL0     C80239   6.766  11.928   5.904 -0.3612  0.2850  0.6991
  595MOL0     C80240   6.866  11.850   5.940 -1.3330  0.5375  0.9194
  595MOL0     N80241   7.475  11.186   5.815 -0.4468 -0.3113  0.1833
  595MOL0     N80242   7.523  11.065   5.837  0.3490 -0.5203 -0.1262
  595MOL0     C80243   7.712  10.208   6.889 -0.1730 -0.0609 -0.4098
  595MOL0     C80244   7.794  10.183   6.993  0.1083  0.0685 -0.5003
  595MOL0     C80245   8.082  10.262   7.324 -0.9724  0.9306  0.5127
  595MOL0     C80246   8.100  10.338   7.446  0.3043  0.4150  0.5549
  595MOL0     C80247   8.176  10.293   7.549  0.0039  0.1454 -0.3256
  595MOL0     C80248   8.240  10.168   7.543  1.1219  0.2833 -0.5003
  595MOL0     O80249   8.322  10.107   7.637 -0.1546 -0.0023 -0.2163
  595MOL0     C80250   8.361  10.178   7.760  0.0749 -0.3291  0.4204
  595MOL0     C80251   8.409  10.066   7.857  0.2515 -0.2835 -0.0308
  595MOL0     C80252   8.457  10.135   7.984  0.3838 -0.2203  0.2203
  595MOL0     C80253   8.511  10.037   8.088  0.5202 -0.2560  0.0799
  595MOL0     C80254   8.643   9.991   8.045  0.6390 -0.0667  0.0307
  595MOL0     C80255   8.750   9.956   7.997  0.2409 -0.2001  0.1022
  595MOL0     C80256   8.218  10.095   7.424 -1.3084  0.1634  0.3846
  595MOL0     C80257   8.139  10.133   7.323  1.2879  0.5646 -0.0624
  595MOL0     H80258   8.064  10.380   6.901  1.9295 -2.6298 -1.1521
  595MOL0     H80259   7.893  10.427   6.715 -2.0707  0.4140  0.4504
  595MOL0     H80260   7.683  10.525   6.689  0.4337  1.2412 -2.0837
  595MOL0     H80261   7.731  10.440   6.537 -0.7548  0.1355 -0.4021
  595MOL0     H80262   7.485  10.411   6.480 -4.1315 -0.7957  1.7533
  595MOL0     H80263   7.448  10.487   6.637  0.0261  0.4395 -0.1329
  595MOL0     H80264   7.417  10.644   6.454  0.2919  0.1183  1.8202
  595MOL0     H80265   7.546  10.713   6.548  1.0469  1.7265 -0.4552
  595MOL0     H80266   7.722  10.618   6.397  0.3124  0.3241  1.8421
  595MOL0     H80267   7.604  10.543   6.300 -0.0629  1.3109 -1.6244
  595MOL0     H80268   7.494  10.754   6.241  0.5764  1.7503 -1.5388
  595MOL0     H80269   7.582  10.838   6.359 -1.6126 -1.5939  0.1732
  595MOL0     H80270   7.788  10.776   6.219 -1.7577  0.7115  4.2577
  595MOL0     H80271   7.677  10.689   6.113  0.1117 -0.9452  1.4470
  595MOL0     H80272   7.658  10.996   6.183  1.5424  0.2988 -0.7115
  595MOL0     H80273   7.751  10.946   6.040  3.2303  0.7110  3.9575
  595MOL0     H80274   7.464  10.894   6.119  0.6240 -4.8084 -0.5188
  595MOL0     H80275   7.537  10.833   5.977  3.8316 -0.2881  0.5877
  595MOL0     H80276   7.446  11.187   6.135 -0.4833 -0.4335  0.5787
  595MOL0     H80277   7.381  11.402   6.071  3.8004 -1.8042 -0.2947
  595MOL0     H80278   7.451  11.464   5.922  0.0667  0.2701 -0.3535
  595MOL0     H80279   7.187  11.297   5.959 -1.8616  1.7317  0.4183
  595MOL0     H80280   7.234  11.357   5.801 -0.4040  0.6098 -1.0379
  595MOL0     H80281   7.241  11.593   5.886 -1.5652  1.1873  0.5599
  595MOL0     H80282   7.177  11.545   6.032 -1.7028  2.6040  0.0178
  595MOL0     H80283   6.963  11.459   5.894 -1.3944  0.8439  3.2751
  595MOL0     H80284   7.043  11.545   5.756 -3.1725  2.3222 -0.1102
  595MOL0     H80285   6.819  11.597   5.715 -0.5796 -1.1280  1.2263
  595MOL0     H80286   6.642  11.614   5.603  1.0941 -1.0847  5.4363
  595MOL0     H80287   6.515  11.709   5.686  1.7760  4.6407  2.5944
  595MOL0     H80288   6.617  11.777   5.543  1.0989 -0.9614 -0.7685
  595MOL0     H80289   6.507  12.250   5.730  0.0496  0.1365  1.3066
  595MOL0     H80290   6.340  12.419   5.701 -0.5963 -0.5702 -0.9100
  595MOL0     H80291   6.079  12.579   5.746  2.2970  0.4066 -3.5336
  595MOL0     H80292   6.129  12.443   5.653  1.1438 -0.6332  0.2128
  595MOL0     H80293   5.891  12.501   5.649  0.1212 -0.2552  0.4387
  595MOL0     H80294   5.931  12.328   5.700 -1.3221  0.2819 -2.1228
  595MOL0     H80295   5.873  12.565   5.881 -1.0330  1.2868 -2.2374
  595MOL0     H80296   5.855  12.385   5.917 -2.0149 -0.8706 -0.9507
  595MOL0     H80297   5.698  12.568   5.728  2.7663  0.4609 -0.0788
  595MOL0     H80298   5.650  12.395   5.753 -0.2777  0.7529  0.5099
  595MOL0     H80299   5.630  12.621   5.942 -1.5079 -0.7269  0.1530
  595MOL0     H80300   5.617  12.448   5.993 -0.7147 -1.9160  0.5681
  595MOL0     H80301   5.429  12.408   5.824  2.2917  0.2021 -0.9078
  595MOL0     H80302   5.399  12.484   5.979 -3.5682 -1.3333 -2.0841
  595MOL0     H80303   5.389  12.607   5.709  3.3420 -0.6649  0.0880
  595MOL0     H80304   5.453  12.711   5.836  0.7395 -0.5521 -1.4089
  595MOL0     H80305   5.230  12.767   5.860  0.9637 -0.1330  1.5693
  595MOL0     H80306   5.240  12.639   5.984  0.9618 -0.3754  0.1759
  595MOL0     H80307   6.106  12.217   6.018  0.1790 -2.8769  1.1278
  595MOL0     H80308   6.283  12.049   6.038 -2.9190  0.9065  1.4648
  595MOL0     H80309   6.751  12.022   5.956 -1.0926 -0.6757  2.2696
  595MOL0     H80310   6.937  11.887   6.014  1.9921  2.5726 -2.8739
  595MOL0     H80311   7.614  10.162   6.882  0.2178 -0.7900 -1.1943
  595MOL0     H80312   7.767  10.109   7.067 -1.1227  2.2120  1.2980
  595MOL0     H80313   8.065  10.440   7.462  1.8496  1.6879 -3.0185
  595MOL0     H80314   8.190  10.352   7.640  1.7952 -1.3978  0.4499
  595MOL0     H80315   8.441  10.251   7.744  1.8391 -2.1878  0.3136
  595MOL0     H80316   8.276  10.237   7.795 -0.1893  0.2021 -1.0459
  595MOL0     H80317   8.485  10.004   7.809  1.3830  0.5664  0.6026
  595MOL0     H80318   8.326   9.996   7.875  0.1233  0.3550  2.1312
  595MOL0     H80319   8.371  10.178   8.036 -0.4071 -0.3510 -0.9408
  595MOL0     H80320   8.532  10.208   7.952 -2.1705  2.6671  0.4072
  595MOL0     H80321   8.447   9.949   8.097 -1.2773  0.8815 -0.9599
  595MOL0     H80322   8.518  10.094   8.181 -0.2284 -1.2035  0.7313
  595MOL0     H80323   8.841   9.913   7.962 -0.3036 -0.8148 -0.6114
  595MOL0     H80324   8.266   9.999   7.408  1.0484  0.8094  2.8407
  595MOL0     H80325   8.124  10.063   7.242  3.2867  0.5143 -0.4424
  596MOL0     O80326   9.890   3.441   7.338  0.2936 -0.4708 -0.3046
  596MOL0     C80327   9.872   3.346   7.416 -0.1633 -0.6095  0.0048
  596MOL0     O80328   9.757   3.284   7.431  1.0891 -0.8861  1.0176
  596MOL0     C80329   9.648   3.342   7.377  0.1734  0.4262 -0.1225
  596MOL0     C80330   9.580   3.427   7.464  0.3693 -0.3960  0.4543
  596MOL0     C80331   9.466   3.489   7.434  0.6059 -0.5183 -0.2902
  596MOL0     C80332   9.411   3.464   7.309  0.5992 -0.5606 -0.6174
  596MOL0     O80333   9.292   3.532   7.291 -0.4606 -0.2288 -0.5716
  596MOL0     C80334   9.178   3.469   7.235 -0.1691  0.4360  0.4103
  596MOL0     C80335   9.068   3.510   7.321  0.3622 -0.2264 -0.5108
  596MOL0     C80336   8.943   3.433   7.280  0.2654 -0.0918  0.2621
  596MOL0     C80337   8.821   3.480   7.365 -0.3260  0.0787 -0.4283
  596MOL0     C80338   8.686   3.463   7.302 -0.0933 -0.3131  1.1572
  596MOL0     C80339   8.635   3.327   7.279  1.0479 -0.4076 -0.3130
  596MOL0     C80340   8.478   3.323   7.255 -0.4440  0.3447 -0.6158
  596MOL0     C80341   8.444   3.205   7.163 -0.3329  0.3149  0.5415
  596MOL0     N80342   8.301   3.203   7.136  0.2782 -0.6558  0.2847
  596MOL0     C80343   8.207   3.181   7.237  0.1191  1.1377 -0.2703
  596MOL0     C80344   8.086   3.218   7.188 -0.1423  0.0946  0.6879
  596MOL0     C80345   7.951   3.196   7.248 -1.0897 -0.4380 -0.1750
  596MOL0     C80346   7.863   3.106   7.162  0.4606  0.0754 -0.2023
  596MOL0     C80347   7.734   3.082   7.238  0.3767 -0.0409  1.1956
  596MOL0     C80348   7.633   2.986   7.172  0.9258  0.0264  0.4584
  596MOL0     O80349   7.625   3.014   7.033  0.1797  0.4800 -0.4334
  596MOL0     C80350   7.508   3.003   6.963 -0.2733  1.1631  0.7140
  596MOL0     C80351   7.504   3.064   6.838  0.6712  0.9932  0.0674
  596MOL0     C80352   7.391   3.069   6.755  0.1410  0.3519 -0.1588
  596MOL0     C80353   7.402   3.135   6.622  0.5625 -1.2941 -0.8104
  596MOL0     C80354   7.278   2.996   6.799 -0.0258  0.1994  0.9736
  596MOL0     C80355   7.165   2.991   6.717 -0.9462  0.9203 -0.0069
  596MOL0     O80356   7.052   3.021   6.784 -0.4160 -0.3334  0.3039
  596MOL0     C80357   6.937   3.028   6.711  0.5376 -0.4041  0.0973
  596MOL0     C80358   6.837   2.933   6.743 -0.3874  1.0378 -0.4594
  596MOL0     C80359   6.712   2.928   6.666 -0.4558  0.6352 -0.0687
  596MOL0     C80360   6.692   3.033   6.572  0.5043  0.2607  1.0266
  596MOL0     O80361   6.585   3.043   6.485  0.7153  0.0285  0.1425
  596MOL0     C80362   6.458   2.974   6.528  1.7074  0.1204  0.2237
  596MOL0     C80363   6.423   2.846   6.444  0.2929  0.9054  0.0872
  596MOL0     C80364   6.286   2.778   6.476  0.5286 -0.1741 -0.1418
  596MOL0     C80365   6.250   2.653   6.388 -0.0719 -0.7977  0.8067
  596MOL0     C80366   6.196   2.705   6.245  0.3131  0.7929  0.4233
  596MOL0     C80367   6.182   2.595   6.141 -0.0742  0.0704 -0.2477
  596MOL0     C80368   6.055   2.515   6.169  0.1713 -0.0645  0.3001
  596MOL0     C80369   6.000   2.452   6.044 -0.8059  0.1181  1.5227
  596MOL0    Cl80370   5.869   2.359   6.092  0.2287  0.0565 -0.0299
  596MOL0     C80371   6.789   3.137   6.551  0.4162 -0.7184  0.3375
  596MOL0     C80372   6.906   3.132   6.626 -0.3893 -0.2165  0.6135
  596MOL0     O80373   7.179   2.919   6.616 -0.0638  0.7518  0.0664
  596MOL0     C80374   7.285   2.927   6.917  0.4495 -0.3976 -0.0638
  596MOL0     C80375   7.398   2.932   7.000  0.1022 -0.4629  0.3578
  596MOL0     N80376   8.108   3.252   7.055  0.2177  0.0474 -0.1776
  596MOL0     N80377   8.232   3.253   7.035  1.1123 -0.0831 -0.0643
  596MOL0     C80378   9.473   3.378   7.205 -0.0644 -0.5170 -0.3454
  596MOL0     C80379   9.600   3.324   7.247 -0.1310 -0.0895  0.1276
  596MOL0     C80380   9.987   3.277   7.487  0.9106  0.2075 -0.4692
  596MOL0     C80381  10.119   3.308   7.455  0.3574 -0.1965  0.0395
  596MOL0     C80382  10.223   3.245   7.527  0.0883 -0.2826 -0.2716
  596MOL0     C80383  10.197   3.142   7.619  0.3933 -0.4286  0.1598
  596MOL0     O80384  10.304   3.080   7.675 -0.0347  0.2727  0.1510
  596MOL0     C80385  10.322   2.940   7.636  0.3967  0.2542 -0.1435
  596MOL0     C80386  10.474   2.922   7.586  0.2456  0.3788  0.6854
  596MOL0     C80387  10.499   2.962   7.437  0.0391 -0.9566 -1.3292
  596MOL0     C80388  10.639   2.929   7.372  0.9734  0.3725  0.9696
  596MOL0     C80389  10.662   2.999   7.256  0.2726 -0.5705  0.3159
  596MOL0     C80390  10.673   3.085   7.167 -0.8450 -0.1270  0.5385
  596MOL0     C80391  10.065   3.115   7.655  0.8636  0.4033 -0.1407
  596MOL0     C80392   9.960   3.175   7.586  0.5410  0.9113 -0.7457
  596MOL0     H80393   9.628   3.435   7.561  4.0370 -1.0120 -1.1351
  596MOL0     H80394   9.408   3.542   7.509  2.9130 -2.8875  3.5308
  596MOL0     H80395   9.168   3.499   7.130 -1.2122 -2.6130 -0.4637
  596MOL0     H80396   9.201   3.362   7.231  1.8910  0.8346  0.2092
  596MOL0     H80397   9.091   3.485   7.425  1.2427  1.5424 -0.2492
  596MOL0     H80398   9.063   3.618   7.303  2.3173  0.4788  2.5331
  596MOL0     H80399   8.919   3.455   7.176 -0.1711  2.4001  0.8273
  596MOL0     H80400   8.954   3.324   7.292  0.3289 -0.0036  1.0575
  596MOL0     H80401   8.823   3.433   7.464 -0.1198  3.7611  1.4983
  596MOL0     H80402   8.843   3.584   7.390 -1.3018 -0.1299  1.4627
  596MOL0     H80403   8.608   3.520   7.354 -0.4571  1.7625 -1.4449
  596MOL0     H80404   8.681   3.507   7.202 -0.5018  1.2448  1.8315
  596MOL0     H80405   8.701   3.298   7.197  1.1153  0.4905 -0.5861
  596MOL0     H80406   8.656   3.270   7.370 -1.2143 -0.1316  0.4453
  596MOL0     H80407   8.433   3.308   7.353 -0.0689  0.2117 -0.4624
  596MOL0     H80408   8.446   3.418   7.212 -1.1975 -0.3646 -1.7101
  596MOL0     H80409   8.455   3.111   7.219 -0.2961  0.7123  1.2082
  596MOL0     H80410   8.503   3.203   7.071  2.3222 -1.1850  2.1486
  596MOL0     H80411   8.218   3.138   7.336  1.5564  3.1157  0.4775
  596MOL0     H80412   7.976   3.136   7.336 -0.1218  1.8816  1.2342
  596MOL0     H80413   7.904   3.291   7.274  4.4340  2.3918  0.9402
  596MOL0     H80414   7.907   3.009   7.133 -1.3610 -2.4105  4.3688
  596MOL0     H80415   7.845   3.167   7.073 -1.9152  0.4353  0.4498
  596MOL0     H80416   7.687   3.180   7.234  0.0911 -0.1449 -3.2076
  596MOL0     H80417   7.758   3.048   7.340 -2.4576 -3.5496  0.9081
  596MOL0     H80418   7.532   2.990   7.214  0.4585  0.8922 -0.7141
  596MOL0     H80419   7.656   2.879   7.183 -2.0683 -0.9709 -1.5745
  596MOL0     H80420   7.592   3.123   6.815  1.2892 -0.2635 -0.9585
  596MOL0     H80421   7.320   3.204   6.598 -0.0846 -0.0677  3.8562
  596MOL0     H80422   7.500   3.184   6.619 -0.3487  0.9187  1.4009
  596MOL0     H80423   7.395   3.061   6.542  3.4471  0.9810 -3.4154
  596MOL0     H80424   6.856   2.851   6.810 -2.8477  1.4678  0.8929
  596MOL0     H80425   6.638   2.849   6.680 -0.8522  0.9236 -0.4965
  596MOL0     H80426   6.461   2.959   6.636  0.0529  1.4505  0.5119
  596MOL0     H80427   6.373   3.043   6.523  1.1552 -0.2448  2.9375
  596MOL0     H80428   6.430   2.886   6.342  2.0324  1.2370  0.3071
  596MOL0     H80429   6.496   2.765   6.453  1.2166  1.7121 -0.0178
  596MOL0     H80430   6.209   2.854   6.494  0.7526 -0.5970  3.4448
  596MOL0     H80431   6.299   2.728   6.573  0.2065 -1.5513 -0.7874
  596MOL0     H80432   6.334   2.587   6.364 -0.7611 -0.8922 -1.6708
  596MOL0     H80433   6.166   2.598   6.430 -0.5588 -1.0908 -0.4912
  596MOL0     H80434   6.279   2.770   6.214 -0.2167  0.6074 -1.4919
  596MOL0     H80435   6.107   2.769   6.246  0.0232  0.8397 -4.4755
  596MOL0     H80436   6.185   2.643   6.042  3.4932 -1.8997 -1.2792
  596MOL0     H80437   6.269   2.529   6.137 -0.9759 -1.1204 -0.8057
  596MOL0     H80438   5.969   2.570   6.209 -1.7070 -2.5824 -0.0550
  596MOL0     H80439   6.074   2.435   6.240  0.8446 -1.5376 -1.4542
  596MOL0     H80440   6.070   2.379   6.004 -0.0228  1.2160  0.8174
  596MOL0     H80441   5.969   2.529   5.973  1.2896  0.4343  0.8816
  596MOL0     H80442   6.774   3.207   6.470  3.0190 -0.9441 -0.4323
  596MOL0     H80443   6.975   3.216   6.616  0.2542 -0.8645 -0.5486
  596MOL0     H80444   7.191   2.878   6.943 -1.5139  1.8249 -2.3752
  596MOL0     H80445   7.397   2.883   7.097 -1.1376  1.7052  1.4973
  596MOL0     H80446   9.420   3.365   7.112  0.3479 -0.7614 -0.5479
  596MOL0     H80447   9.653   3.248   7.190 -0.0028 -2.8264  3.5451
  596MOL0     H80448  10.127   3.384   7.378  0.7010  0.4788  0.7346
  596MOL0     H80449  10.329   3.263   7.511  1.1793 -2.9871  2.8018
  596MOL0     H80450  10.299   2.889   7.731 -0.5192  0.9626  0.0352
  596MOL0     H80451  10.255   2.920   7.552  0.4899  2.8172 -0.8831
  596MOL0     H80452  10.479   2.813   7.597  1.2436  0.0634 -2.0032
  596MOL0     H80453  10.526   2.987   7.656  0.8788  1.6212 -0.8650
  596MOL0     H80454  10.481   3.070   7.438 -0.4699 -1.0248  1.0269
  596MOL0     H80455  10.418   2.915   7.380 -2.4456 -0.2545  1.3842
  596MOL0     H80456  10.650   2.821   7.361  2.6445  0.6038 -0.0266
  596MOL0     H80457  10.711   2.967   7.445 -0.1731  0.6133  2.0165
  596MOL0     H80458  10.695   3.160   7.095 -0.2490  0.0323  0.8812
  596MOL0     H80459  10.052   3.024   7.713 -0.0357  1.6719  1.7475
  596MOL0     H80460   9.859   3.161   7.624  1.1818  0.4865  0.8706
  597MOL0     O80461   8.325   3.402   7.588  0.1567 -0.3253 -0.0038
  597MOL0     C80462   8.365   3.399   7.708  0.1867  0.5907 -0.0703
  597MOL0     O80463   8.298   3.345   7.814  0.5630 -0.6809 -0.4088
  597MOL0     C80464   8.166   3.313   7.791  0.6433 -0.3454  0.2905
  597MOL0     C80465   8.140   3.215   7.706 -0.8329  0.5538  0.2484
  597MOL0     C80466   8.007   3.169   7.688  0.6092 -0.5216  0.9218
  597MOL0     C80467   7.900   3.204   7.767 -0.9016 -0.4926  0.0092
  597MOL0     O80468   7.782   3.140   7.754  0.7277  0.3623 -0.1319
  597MOL0     C80469   7.666   3.188   7.808 -0.0125 -0.3771 -0.8136
  597MOL0     C80470   7.546   3.097   7.766 -0.9607 -0.7912  0.2382
  597MOL0     C80471   7.408   3.169   7.780  0.3039 -0.3499 -0.4969
  597MOL0     C80472   7.302   3.106   7.681  0.2278 -0.6940  0.4168
  597MOL0     C80473   7.324   3.159   7.550 -0.4248 -0.0776  0.6767
  597MOL0     C80474   7.210   3.129   7.452 -0.0594 -0.2416  0.3289
  597MOL0     C80475   7.215   2.986   7.396  0.4987 -0.8634  0.2944
  597MOL0     C80476   7.079   2.962   7.321  0.2155  0.2750  0.3866
  597MOL0     N80477   7.068   2.834   7.244 -1.0063  0.6880 -0.7012
  597MOL0     C80478   6.956   2.748   7.228 -0.3289 -0.1073  0.4232
  597MOL0     C80479   6.997   2.649   7.154  0.4434  0.0401  0.3826
  597MOL0     C80480   6.918   2.529   7.107  0.1578 -0.1238 -1.0189
  597MOL0     C80481   6.903   2.529   6.958 -0.0346 -0.0347  0.0302
  597MOL0     C80482   6.761   2.461   6.941 -0.2625  0.1237  0.4008
  597MOL0     C80483   6.727   2.439   6.798  0.4177  0.9153  1.7425
  597MOL0     O80484   6.718   2.573   6.742 -0.0534  0.0747  0.2699
  597MOL0     C80485   6.713   2.564   6.607 -1.0414 -0.5977  0.0643
  597MOL0     C80486   6.794   2.646   6.533  0.4889 -0.0997 -0.4966
  597MOL0     C80487   6.787   2.648   6.391 -0.0971  0.5518 -0.9030
  597MOL0     C80488   6.891   2.740   6.335  0.0199  0.0337  0.2961
  597MOL0     C80489   6.691   2.572   6.317  1.5215 -0.1099  0.2097
  597MOL0     C80490   6.673   2.562   6.172 -0.6060  0.4768  0.2036
  597MOL0     O80491   6.569   2.483   6.143  0.7715 -0.6063  0.1823
  597MOL0     C80492   6.544   2.455   6.014 -0.2777 -0.0985 -0.4627
  597MOL0     C80493   6.573   2.323   5.969 -0.1062  0.4578  0.0135
  597MOL0     C80494   6.545   2.285   5.844  0.2406 -0.1630 -0.0897
  597MOL0     C80495   6.496   2.377   5.746  0.0568  0.9518  0.6246
  597MOL0     O80496   6.486   2.348   5.611 -0.2083  0.6481  0.5114
  597MOL0     C80497   6.435   2.210   5.585  0.1181  0.3466 -0.4882
  597MOL0     C80498   6.372   2.188   5.447 -0.1934 -0.0002 -0.8281
  597MOL0     C80499   6.232   2.254   5.438  0.0666  0.3220 -0.3469
  597MOL0     C80500   6.115   2.189   5.512 -0.6664 -0.0919 -0.4338
  597MOL0     C80501   5.980   2.225   5.454  0.3790 -0.5745 -0.5561
  597MOL0     C80502   5.937   2.368   5.471 -0.0164 -0.1699  0.3824
  597MOL0     C80503   5.790   2.396   5.446 -0.1253 -0.3480 -0.8104
  597MOL0     C80504   5.765   2.539   5.383 -0.6536 -0.2846 -0.0624
  597MOL0    Cl80505   5.752   2.506   5.198  0.2977  0.2447 -0.0757
  597MOL0     C80506   6.466   2.501   5.792 -1.5234 -1.3709 -0.3291
  597MOL0     C80507   6.499   2.543   5.925 -0.1825 -0.5383 -0.6062
  597MOL0     O80508   6.756   2.617   6.097 -0.6998  0.3345 -0.4193
  597MOL0     C80509   6.606   2.490   6.402  0.7521 -0.5882 -0.8180
  597MOL0     C80510   6.622   2.484   6.546  0.0191  0.3919  0.3595
  597MOL0     N80511   7.132   2.664   7.124  0.3701  0.0730  0.1735
  597MOL0     N80512   7.170   2.781   7.174 -0.4862  1.1562  0.6920
  597MOL0     C80513   7.935   3.291   7.863 -1.0818 -0.5618 -0.2409
  597MOL0     C80514   8.067   3.347   7.876  1.0588 -0.6556  0.1154
  597MOL0     C80515   8.486   3.463   7.736 -0.0419 -0.3623  0.9822
  597MOL0     C80516   8.566   3.522   7.637 -0.3519 -0.8582 -0.0570
  597MOL0     C80517   8.692   3.581   7.662 -0.6811 -0.0018  0.3275
  597MOL0     C80518   8.737   3.588   7.792 -0.0333  0.3591  0.4716
  597MOL0     O80519   8.855   3.657   7.809  0.4894  0.2058  0.1521
  597MOL0     C80520   8.932   3.645   7.927  0.6354  0.0816  0.1706
  597MOL0     C80521   9.016   3.513   7.930 -0.1066 -1.0514 -0.2514
  597MOL0     C80522   9.140   3.531   7.859  0.4389  0.3826 -0.0653
  597MOL0     C80523   9.217   3.394   7.862  0.5421  0.6893 -0.5012
  597MOL0     C80524   9.356   3.411   7.846 -0.0358  0.6181  0.7195
  597MOL0     C80525   9.471   3.422   7.849 -1.2998  0.0087 -0.1391
  597MOL0     C80526   8.673   3.506   7.889  0.3541  0.0369 -0.4162
  597MOL0     C80527   8.549   3.449   7.864  0.0240 -0.6386  0.2080
  597MOL0     H80528   8.221   3.171   7.649 -1.3464 -0.5528  0.3346
  597MOL0     H80529   7.996   3.090   7.614  1.3252  0.3517 -0.1546
  597MOL0     H80530   7.669   3.196   7.917  0.8355  0.7380 -0.9021
  597MOL0     H80531   7.653   3.293   7.778 -3.2099  0.4143  2.6303
  597MOL0     H80532   7.558   3.065   7.662 -1.7836  0.5775 -0.3006
  597MOL0     H80533   7.548   3.009   7.832 -0.3709 -0.4075  0.7483
  597MOL0     H80534   7.371   3.154   7.882  0.6825  1.3748 -0.0611
  597MOL0     H80535   7.419   3.275   7.756  0.4399 -0.1047  0.5956
  597MOL0     H80536   7.319   2.999   7.677  2.4146 -0.7333  4.8748
  597MOL0     H80537   7.196   3.115   7.705  0.0125 -1.9085 -0.0198
  597MOL0     H80538   7.330   3.267   7.563  1.8645  0.1367 -1.3693
  597MOL0     H80539   7.423   3.140   7.508 -0.0303  1.5803  0.7890
  597MOL0     H80540   7.118   3.152   7.507 -0.4677  1.1143 -0.8767
  597MOL0     H80541   7.206   3.191   7.363  2.0126  0.3607  0.6126
  597MOL0     H80542   7.297   2.983   7.324 -0.5415  1.5209 -1.1054
  597MOL0     H80543   7.225   2.920   7.483 -1.4144  1.8852  2.8043
  597MOL0     H80544   7.058   3.034   7.241 -2.2903 -1.8413 -1.0022
  597MOL0     H80545   6.996   2.980   7.390 -1.6983  3.1162 -2.3315
  597MOL0     H80546   6.855   2.758   7.264 -0.6445  1.3010 -0.7317
  597MOL0     H80547   6.962   2.435   7.141  1.8194  0.3075 -1.8332
  597MOL0     H80548   6.824   2.549   7.159  1.7291 -1.8250  2.8378
  597MOL0     H80549   6.984   2.477   6.907 -0.4027 -3.4023  2.5918
  597MOL0     H80550   6.898   2.632   6.920 -2.7595  0.3094  1.0916
  597MOL0     H80551   6.686   2.526   6.986 -0.2305  0.6177 -0.2481
  597MOL0     H80552   6.761   2.370   7.002  2.6370 -0.1050  0.1838
  597MOL0     H80553   6.639   2.376   6.778  0.4261  2.1355 -3.9725
  597MOL0     H80554   6.818   2.399   6.752  0.7816  0.1953  3.0566
  597MOL0     H80555   6.875   2.693   6.588 -2.0863  2.6376  1.2361
  597MOL0     H80556   6.954   2.683   6.266  0.8140  2.4547 -1.0915
  597MOL0     H80557   6.847   2.822   6.278  1.5842  1.1879  0.6990
  597MOL0     H80558   6.955   2.779   6.415 -1.7961 -0.8897  2.2904
  597MOL0     H80559   6.622   2.259   6.041 -3.0641 -0.9664  0.9471
  597MOL0     H80560   6.588   2.187   5.827  1.1189  0.2956 -0.5686
  597MOL0     H80561   6.513   2.134   5.596 -2.7199 -2.8628 -1.1134
  597MOL0     H80562   6.366   2.185   5.666  1.8270 -0.7495  0.7261
  597MOL0     H80563   6.440   2.243   5.382 -2.9881  1.5594 -2.6472
  597MOL0     H80564   6.359   2.085   5.415 -0.2672  0.1467 -1.2820
  597MOL0     H80565   6.198   2.255   5.334 -0.6250  2.8535 -0.1624
  597MOL0     H80566   6.248   2.360   5.461  0.0116  0.2118  0.1997
  597MOL0     H80567   6.131   2.081   5.514 -3.2729 -0.5485 -0.2723
  597MOL0     H80568   6.122   2.219   5.616 -0.2011  0.2912 -0.5717
  597MOL0     H80569   5.914   2.157   5.510 -0.9441  2.1524  1.3909
  597MOL0     H80570   5.971   2.195   5.349 -2.2419 -1.3472 -0.1805
  597MOL0     H80571   5.960   2.413   5.568  1.7098  2.2985 -1.0488
  597MOL0     H80572   5.993   2.429   5.400  0.7468  2.1434  2.8047
  597MOL0     H80573   5.724   2.386   5.533  1.3642  1.1840  0.5618
  597MOL0     H80574   5.753   2.321   5.376 -0.7327  0.6060 -1.5353
  597MOL0     H80575   5.848   2.606   5.407  0.4818 -1.6710  0.0324
  597MOL0     H80576   5.678   2.586   5.431 -0.7547 -1.1691  0.6603
  597MOL0     H80577   6.422   2.578   5.728  0.6400  0.9672  0.8049
  597MOL0     H80578   6.480   2.645   5.956 -2.2647 -0.7193 -1.1784
  597MOL0     H80579   6.523   2.428   6.367 -1.6237 -0.9229  4.4020
  597MOL0     H80580   6.555   2.419   6.602 -1.3447 -0.3918 -2.0155
  597MOL0     H80581   7.858   3.319   7.934 -0.4418 -2.4671  1.3106
  597MOL0     H80582   8.075   3.419   7.957 -1.8296 -1.5048  1.2582
  597MOL0     H80583   8.526   3.512   7.537 -3.2488  5.1185  0.0492
  597MOL0     H80584   8.755   3.627   7.586  2.0359 -2.7793  0.7008
  597MOL0     H80585   8.993   3.735   7.936  2.6100 -1.0866 -0.7581
  597MOL0     H80586   8.861   3.640   8.010  0.1832 -1.7795 -0.2703
  597MOL0     H80587   8.955   3.444   7.872  0.2709 -0.3654 -1.5033
  597MOL0     H80588   9.030   3.483   8.035  3.0305  1.6999  0.2894
  597MOL0     H80589   9.206   3.611   7.895  0.6947 -0.5089  1.5649
  597MOL0     H80590   9.107   3.558   7.758  2.4500 -2.5413 -1.6470
  597MOL0     H80591   9.188   3.317   7.789 -0.1176 -0.9623  1.4049
  597MOL0     H80592   9.210   3.362   7.966  2.1733 -0.2612 -0.6627
  597MOL0     H80593   9.575   3.443   7.843 -1.2998  0.9215  2.1163
  597MOL0     H80594   8.720   3.489   7.985 -0.5071 -2.1887 -0.3320
  597MOL0     H80595   8.496   3.381   7.930 -1.7826 -0.1916 -0.6883
  598MOL0     O80596   1.134   0.735   9.449  0.0906 -0.7582  0.4302
  598MOL0     C80597   1.032   0.802   9.429 -0.0739 -1.0656  0.0469
  598MOL0     O80598   0.911   0.778   9.483 -0.3810  0.3720  0.0576
  598MOL0     C80599   0.897   0.660   9.553  0.3996 -0.3798 -0.7250
  598MOL0     C80600   0.864   0.669   9.694  0.0693 -0.3518 -1.0731
  598MOL0     C80601   0.869   0.552   9.769  0.0838 -0.1493  0.1406
  598MOL0     C80602   0.897   0.429   9.708 -1.2798 -0.3720 -0.5790
  598MOL0     O80603   0.872   0.319   9.785  0.3971  0.6017 -0.2015
  598MOL0     C80604   0.958   0.207   9.746  1.0932 -1.4339 -0.2224
  598MOL0     C80605   0.975   0.129   9.875 -0.9190  0.0363 -0.5538
  598MOL0     C80606   1.066   0.004   9.872  0.1238  0.0017  0.2675
  598MOL0     C80607   1.036  -0.092   9.983 -0.1960  0.2969  0.2351
  598MOL0     C80608   1.083  -0.233   9.948  0.2635 -0.1020  0.1313
  598MOL0     C80609   1.228  -0.245   9.996 -0.0382  0.8596 -0.3144
  598MOL0     C80610   1.292  -0.377   9.955  0.4777  0.2545  0.3064
  598MOL0     C80611   1.439  -0.374  10.005 -0.0793 -0.5580 -0.8155
  598MOL0     N80612   1.460  -0.383  10.151  0.2321 -0.7883  0.0962
  598MOL0     C80613   1.380  -0.469  10.226 -0.1563 -0.3676  0.0983
  598MOL0     C80614   1.392  -0.423  10.344 -0.0513 -1.3722 -0.2047
  598MOL0     C80615   1.308  -0.463  10.451  0.0372 -0.1548 -0.2780
  598MOL0     C80616   1.176  -0.385  10.466 -0.5244 -0.3798  0.4884
  598MOL0     C80617   1.086  -0.439  10.573  0.1100 -0.1739 -0.3202
  598MOL0     C80618   1.014  -0.575  10.541 -0.0713 -0.9520  0.3618
  598MOL0     O80619   0.909  -0.586  10.637  0.2368 -0.1143  0.3389
  598MOL0     C80620   0.929  -0.628  10.764 -0.2201  0.5271  0.5899
  598MOL0     C80621   1.055  -0.644  10.824  0.3804 -0.0050  0.8051
  598MOL0     C80622   1.074  -0.695  10.955  0.1034 -0.0733 -0.4916
  598MOL0     C80623   1.208  -0.728  11.014 -0.1388 -0.5200  0.3016
  598MOL0     C80624   0.961  -0.716  11.033  0.4088  0.6943  0.6700
  598MOL0     C80625   0.948  -0.800  11.150 -0.3826 -0.0845 -0.1552
  598MOL0     O80626   0.819  -0.823  11.205 -0.3635 -0.0904  0.1212
  598MOL0     C80627   0.802  -0.889  11.328 -0.6302 -0.5648  0.2738
  598MOL0     C80628   0.883  -0.888  11.438 -0.1488 -0.5880 -0.4315
  598MOL0     C80629   0.847  -0.958  11.561  0.8566  0.9818 -0.2700
  598MOL0     C80630   0.734  -1.040  11.567 -0.1384  0.5590  0.1429
  598MOL0     O80631   0.690  -1.096  11.687  0.1447 -0.8538  0.1968
  598MOL0     C80632   0.788  -1.177  11.747 -0.1347 -0.2190 -0.4971
  598MOL0     C80633   0.722  -1.303  11.792  0.5646  0.0597 -0.1280
  598MOL0     C80634   0.831  -1.396  11.840 -0.1618  0.7731  0.6773
  598MOL0     C80635   0.767  -1.522  11.881  0.1695 -0.2942 -0.3750
  598MOL0     C80636   0.848  -1.603  11.993 -0.5012  0.2998  0.6028
  598MOL0     C80637   0.873  -1.522  12.121  0.4808  1.1326  0.1939
  598MOL0     C80638   0.935  -1.593  12.238 -0.0469 -0.4180 -0.4867
  598MOL0     C80639   0.860  -1.722  12.285  0.0675 -0.6866  0.1676
  598MOL0    Cl80640   0.691  -1.687  12.332  0.0306  0.1267 -0.1074
  598MOL0     C80641   0.658  -1.048  11.453  0.8145 -0.3612 -0.1446
  598MOL0     C80642   0.687  -0.974  11.335  0.7718  0.9685  0.4401
  598MOL0     O80643   1.049  -0.853  11.202  0.1070  0.7276 -0.4586
  598MOL0     C80644   0.828  -0.695  10.968  0.6587 -0.2191  0.1749
  598MOL0     C80645   0.816  -0.653  10.834 -0.7208  0.0904 -0.6585
  598MOL0     N80646   1.472  -0.308  10.349  0.0916  0.5718  0.7517
  598MOL0     N80647   1.512  -0.289  10.234 -0.4945 -0.2101 -0.3887
  598MOL0     C80648   0.937   0.428   9.571 -0.1555 -0.1240  0.9516
  598MOL0     C80649   0.939   0.547   9.497 -0.6866 -0.4291 -0.2295
  598MOL0     C80650   1.055   0.921   9.348 -0.0881 -0.5360  0.9480
  598MOL0     C80651   0.950   0.962   9.268  0.2504 -0.5014 -0.2629
  598MOL0     C80652   0.961   1.089   9.195  0.5775 -0.5153 -0.8974
  598MOL0     C80653   1.083   1.158   9.201 -0.8333 -0.7227  0.3088
  598MOL0     O80654   1.104   1.270   9.125  0.0075  0.0225 -0.9239
  598MOL0     C80655   1.079   1.249   8.983 -0.1088  0.1733 -0.9639
  598MOL0     C80656   1.014   1.378   8.934  1.0383 -0.4957 -0.2506
  598MOL0     C80657   0.996   1.369   8.779 -0.9347  0.0313  0.4788
  598MOL0     C80658   0.937   1.493   8.718 -0.5965 -0.0368 -0.7362
  598MOL0     C80659   1.045   1.597   8.710 -1.0679  0.0130  0.8311
  598MOL0     C80660   1.120   1.699   8.721  0.0760  0.0021  0.0511
  598MOL0     C80661   1.185   1.109   9.277  0.0515 -1.1361 -0.1585
  598MOL0     C80662   1.181   0.992   9.347  0.0091  0.4155  0.0979
  598MOL0     H80663   0.822   0.763   9.730 -3.6022 -2.6151  1.1501
  598MOL0     H80664   0.843   0.550   9.874 -5.1428 -0.1586 -0.8910
  598MOL0     H80665   0.900   0.144   9.678  1.3360 -0.3750 -1.4501
  598MOL0     H80666   1.059   0.226   9.708  2.9395 -2.2891  3.6662
  598MOL0     H80667   1.022   0.189   9.953 -1.2460 -0.4809  0.0596
  598MOL0     H80668   0.877   0.113   9.923 -1.2851  1.1952 -0.8913
  598MOL0     H80669   1.054  -0.051   9.778  0.6631 -1.6882  1.1544
  598MOL0     H80670   1.171   0.034   9.883  0.1068 -0.1325  0.8049
  598MOL0     H80671   1.086  -0.056  10.074  1.1124 -1.0968  0.0972
  598MOL0     H80672   0.928  -0.109   9.994 -0.4506 -0.3431 -2.4962
  598MOL0     H80673   1.025  -0.301  10.011 -1.2077  3.5101  3.1490
  598MOL0     H80674   1.076  -0.267   9.845  4.0884 -0.2320 -0.2380
  598MOL0     H80675   1.292  -0.166   9.957  1.9909 -0.2232  0.6495
  598MOL0     H80676   1.232  -0.234  10.105  1.0681 -0.9998 -0.1245
  598MOL0     H80677   1.235  -0.464   9.989  1.3172  0.3332  2.0340
  598MOL0     H80678   1.301  -0.369   9.846 -0.1015 -1.4460  0.1098
  598MOL0     H80679   1.502  -0.294   9.963  1.1426  0.2690  2.3045
  598MOL0     H80680   1.479  -0.464   9.957 -2.5544 -1.8957 -0.5103
  598MOL0     H80681   1.326  -0.559  10.198 -0.8436 -0.6223  2.0436
  598MOL0     H80682   1.279  -0.568  10.436  0.3730 -0.2276 -0.4164
  598MOL0     H80683   1.362  -0.452  10.546  3.7014  0.0801 -2.1983
  598MOL0     H80684   1.126  -0.374  10.370  0.6803 -0.3438 -0.1525
  598MOL0     H80685   1.202  -0.283  10.495 -0.2814 -0.3755  0.2609
  598MOL0     H80686   1.015  -0.361  10.601 -1.0296 -1.7757  1.4739
  598MOL0     H80687   1.147  -0.452  10.663 -0.5382  1.7210  0.4427
  598MOL0     H80688   1.084  -0.659  10.534 -2.2589 -2.9395  1.2032
  598MOL0     H80689   0.970  -0.555  10.443  0.0929 -1.5350  0.1649
  598MOL0     H80690   1.153  -0.629  10.778  0.5135 -1.7192  0.4398
  598MOL0     H80691   1.218  -0.696  11.118  2.1485 -1.0043  0.2751
  598MOL0     H80692   1.236  -0.833  11.001  1.2310  0.1305 -3.1915
  598MOL0     H80693   1.284  -0.670  10.962  0.3576 -0.7586  0.7453
  598MOL0     H80694   0.958  -0.810  11.443 -0.0135 -0.7358 -0.1227
  598MOL0     H80695   0.901  -0.943  11.653 -2.2265  1.0214  1.6801
  598MOL0     H80696   0.881  -1.192  11.691 -0.3460  1.7565 -1.4722
  598MOL0     H80697   0.811  -1.121  11.838 -3.1241 -1.4898  1.1845
  598MOL0     H80698   0.660  -1.274  11.878  0.5543  4.2172 -1.3287
  598MOL0     H80699   0.668  -1.358  11.715  0.3932 -2.5114  1.6908
  598MOL0     H80700   0.870  -1.345  11.929 -0.2750  1.9490  0.0686
  598MOL0     H80701   0.900  -1.424  11.760  0.3845  2.3832  0.5548
  598MOL0     H80702   0.671  -1.507  11.931 -0.9803 -2.1657 -1.8803
  598MOL0     H80703   0.756  -1.583  11.791 -0.0803  1.8320 -1.8649
  598MOL0     H80704   0.945  -1.627  11.948 -0.9180 -3.1626  1.3114
  598MOL0     H80705   0.795  -1.698  12.001  0.2869 -0.2953 -0.9125
  598MOL0     H80706   0.938  -1.436  12.105  1.8673 -0.1076 -1.0670
  598MOL0     H80707   0.774  -1.489  12.153  1.1017  2.6749  0.5845
  598MOL0     H80708   0.944  -1.508  12.307 -0.9868  0.3256 -1.2427
  598MOL0     H80709   1.037  -1.622  12.213 -0.1960 -1.6206  0.2459
  598MOL0     H80710   0.916  -1.773  12.364 -0.9025 -2.3340 -0.1542
  598MOL0     H80711   0.867  -1.790  12.199  0.7994  1.7959 -1.9010
  598MOL0     H80712   0.566  -1.104  11.460  1.0690 -0.7021  0.6498
  598MOL0     H80713   0.637  -1.000  11.243  1.6619 -3.8875  1.0552
  598MOL0     H80714   0.733  -0.696  11.022  0.6012  0.0367  0.0791
  598MOL0     H80715   0.717  -0.631  10.795 -0.8036 -0.5070 -0.7955
  598MOL0     H80716   0.969   0.336   9.522 -1.3841 -1.5271  2.6379
  598MOL0     H80717   0.973   0.556   9.395 -0.3532  0.2659 -0.0605
  598MOL0     H80718   0.859   0.903   9.276  1.4670 -2.9551 -2.7482
  598MOL0     H80719   0.885   1.134   9.133  0.0342  0.5156  0.4589
  598MOL0     H80720   1.169   1.231   8.925 -0.4295  1.6035 -1.9794
  598MOL0     H80721   1.012   1.165   8.962  0.6747 -1.7122  3.1493
  598MOL0     H80722   1.094   1.446   8.964  0.6889  0.9931 -2.4717
  598MOL0     H80723   0.917   1.394   8.982 -0.2125  0.3987 -2.8963
  598MOL0     H80724   0.924   1.290   8.755 -1.2413  0.9058 -1.7073
  598MOL0     H80725   1.090   1.342   8.730 -0.4504  1.8598  0.3108
  598MOL0     H80726   0.850   1.532   8.773 -2.1548 -0.8050 -2.5140
  598MOL0     H80727   0.899   1.474   8.617 -0.2439  2.4151 -1.3973
  598MOL0     H80728   1.183   1.782   8.747  3.1105 -2.3455  0.8487
  598MOL0     H80729   1.280   1.161   9.288 -1.6088  1.5969  3.1292
  598MOL0     H80730   1.259   0.961   9.416  2.8917  2.3781 -2.0363
  599MOL0     O80731   1.817  10.827  11.231 -0.1126  0.9107  0.2533
  599MOL0     C80732   1.823  10.827  11.349 -0.0280  0.4635 -0.0734
  599MOL0     O80733   1.772  10.926  11.435 -0.1090  0.3105  0.3762
  599MOL0     C80734   1.720  11.046  11.397  0.3926 -0.8177 -0.8471
  599MOL0     C80735   1.780  11.128  11.308  0.0601  0.2371  0.4860
  599MOL0     C80736   1.730  11.257  11.277  0.0089  0.0446 -0.4932
  599MOL0     C80737   1.612  11.295  11.337 -0.3976  0.5138 -0.5419
  599MOL0     O80738   1.550  11.412  11.311 -0.0740 -0.1770  1.1898
  599MOL0     C80739   1.635  11.528  11.323  0.4486 -0.9408  0.0419
  599MOL0     C80740   1.537  11.648  11.316 -0.2625  0.0361 -0.8174
  599MOL0     C80741   1.456  11.654  11.445 -1.2582  0.0234  0.3614
  599MOL0     C80742   1.432  11.798  11.472 -1.0000 -0.4919 -1.4456
  599MOL0     C80743   1.379  11.824  11.613 -0.1152 -0.2846  0.4912
  599MOL0     C80744   1.499  11.818  11.714 -0.0451  1.0840  0.4937
  599MOL0     C80745   1.452  11.865  11.854 -0.3004  0.8693  0.5834
  599MOL0     C80746   1.544  11.800  11.962  0.1861  0.1076 -1.0278
  599MOL0     N80747   1.512  11.842  12.098  1.0816 -0.5770  0.0785
  599MOL0     C80748   1.429  11.945  12.130 -0.0468  0.4170  0.1639
  599MOL0     C80749   1.428  11.961  12.263  0.7225  0.2086  0.1227
  599MOL0     C80750   1.339  12.064  12.332  0.4389  0.0401 -0.2176
  599MOL0     C80751   1.210  12.115  12.265  0.2531  0.6720  0.4334
  599MOL0     C80752   1.113  12.006  12.281 -0.2280  0.5978  0.6200
  599MOL0     C80753   0.983  12.052  12.214 -0.7679  0.1981  0.4517
  599MOL0     O80754   1.005  12.085  12.077 -0.9511  0.2575  0.1930
  599MOL0     C80755   1.010  11.982  11.980  0.5989 -1.1490  0.0105
  599MOL0     C80756   1.020  12.025  11.846 -0.0024  0.3031 -0.0173
  599MOL0     C80757   1.035  11.933  11.742 -0.0505  0.8876  0.0693
  599MOL0     C80758   1.036  12.004  11.606 -1.0025  0.6286 -0.5885
  599MOL0     C80759   1.024  11.795  11.769 -0.0025  1.1497 -0.0568
  599MOL0     C80760   1.042  11.691  11.661 -0.5502 -0.0042  0.0703
  599MOL0     O80761   1.036  11.567  11.705  0.9716  0.0722  0.1127
  599MOL0     C80762   1.049  11.470  11.613 -0.0232  0.6240  0.2029
  599MOL0     C80763   0.931  11.424  11.541 -0.4829  0.1065  0.3864
  599MOL0     C80764   0.950  11.341  11.433  1.1321  0.0150  0.8082
  599MOL0     C80765   1.082  11.296  11.384 -0.2284  0.3169  0.8440
  599MOL0     O80766   1.088  11.226  11.268 -0.2262  0.3339  0.5483
  599MOL0     C80767   1.217  11.187  11.217  0.1734  0.4429 -0.1243
  599MOL0     C80768   1.192  11.159  11.069  0.2842  0.3665 -0.5410
  599MOL0     C80769   1.323  11.121  10.984 -0.5906  0.0010 -0.2499
  599MOL0     C80770   1.409  11.249  10.947  0.1997 -0.2729  0.2986
  599MOL0     C80771   1.557  11.224  10.888  0.2069 -1.0532  0.4584
  599MOL0     C80772   1.539  11.203  10.742  0.1797  0.1694 -0.4254
  599MOL0     C80773   1.646  11.103  10.700 -0.4420  0.3804  0.5395
  599MOL0     C80774   1.742  11.148  10.580  0.4313  0.0230 -0.0535
  599MOL0    Cl80775   1.740  11.022  10.452  0.2188  0.2658  0.1508
  599MOL0     C80776   1.191  11.341  11.452  0.5522  0.2330 -0.9209
  599MOL0     C80777   1.183  11.430  11.568  0.3691  0.0062 -0.9853
  599MOL0     O80778   1.078  11.722  11.549  1.1076 -0.2716  0.1739
  599MOL0     C80779   1.026  11.757  11.905  0.2072  0.2295  0.6058
  599MOL0     C80780   1.027  11.849  12.011  0.4810  0.9849  0.3336
  599MOL0     N80781   1.518  11.875  12.316 -0.3575 -1.1239  0.5105
  599MOL0     N80782   1.552  11.796  12.223 -0.8601  0.4238  0.6079
  599MOL0     C80783   1.559  11.222  11.439  0.0938  0.8936  0.3821
  599MOL0     C80784   1.615  11.095  11.474  1.2306 -0.4206  0.1960
  599MOL0     C80785   1.868  10.700  11.416  0.1711  0.4515  0.3164
  599MOL0     C80786   1.921  10.687  11.546 -0.3922  0.8649 -0.0206
  599MOL0     C80787   1.952  10.569  11.612  0.9221  0.0932 -0.2935
  599MOL0     C80788   1.939  10.450  11.543 -0.3034 -0.3093  0.7390
  599MOL0     O80789   1.973  10.321  11.600  0.0592 -0.4616  0.1028
  599MOL0     C80790   1.906  10.203  11.553  0.5711 -0.9179  0.3050
  599MOL0     C80791   1.753  10.211  11.560  0.8480 -0.1020 -0.0701
  599MOL0     C80792   1.700  10.184  11.705  0.5739  0.5382 -0.4656
  599MOL0     C80793   1.548  10.163  11.729 -0.2103  0.7100  0.0290
  599MOL0     C80794   1.501  10.029  11.711 -1.2792  0.1719  0.2594
  599MOL0     C80795   1.460   9.917  11.702  0.0489 -0.5723  0.6258
  599MOL0     C80796   1.916  10.461  11.406 -0.0678 -1.1692 -0.2211
  599MOL0     C80797   1.876  10.578  11.338  0.7522 -0.9944  0.5866
  599MOL0     H80798   1.864  11.076  11.263  0.3417 -1.3108  2.6693
  599MOL0     H80799   1.761  11.316  11.191  1.1454  2.5203  1.4631
  599MOL0     H80800   1.699  11.525  11.411 -0.3916  2.1992  0.8520
  599MOL0     H80801   1.701  11.527  11.236  0.6296  0.6508  0.1370
  599MOL0     H80802   1.601  11.736  11.316 -1.6033  1.0574 -1.4345
  599MOL0     H80803   1.468  11.637  11.232  1.9246  1.5477 -2.9268
  599MOL0     H80804   1.366  11.597  11.422 -1.3341  1.1308 -2.6579
  599MOL0     H80805   1.526  11.615  11.519  1.2499  2.4370 -0.5518
  599MOL0     H80806   1.526  11.855  11.468 -2.2172  1.8287  0.6610
  599MOL0     H80807   1.376  11.844  11.390  2.3830  1.0473 -3.1302
  599MOL0     H80808   1.332  11.922  11.618  0.7048  0.1096  0.5305
  599MOL0     H80809   1.304  11.746  11.631 -1.3978 -0.3940 -3.9557
  599MOL0     H80810   1.541  11.717  11.706 -0.7217  0.9601 -3.6257
  599MOL0     H80811   1.569  11.896  11.680  0.9155 -0.3490 -0.9604
  599MOL0     H80812   1.439  11.974  11.860 -2.3398  0.5929  2.8203
  599MOL0     H80813   1.353  11.820  11.867 -1.2984  1.8068 -2.8339
  599MOL0     H80814   1.644  11.839  11.940  0.2982 -1.0575 -2.7340
  599MOL0     H80815   1.551  11.691  11.966  1.1329  0.1758  1.5151
  599MOL0     H80816   1.374  12.012  12.065  1.7446 -0.2451 -2.1724
  599MOL0     H80817   1.312  12.019  12.428  1.7604 -1.3629 -0.4614
  599MOL0     H80818   1.414  12.141  12.350  4.0917 -3.1878 -0.1046
  599MOL0     H80819   1.230  12.137  12.159 -4.1712  0.4092 -0.6412
  599MOL0     H80820   1.168  12.203  12.313 -1.0994  0.5219 -0.4229
  599MOL0     H80821   1.099  11.978  12.386  0.6047 -0.3461  0.5017
  599MOL0     H80822   1.147  11.911  12.239 -0.4595 -0.7945  3.3593
  599MOL0     H80823   0.946  12.146  12.258  1.0630  0.5680  1.2866
  599MOL0     H80824   0.907  11.976  12.235 -1.2118  0.6257  0.4175
  599MOL0     H80825   1.032  12.129  11.820  2.5696  0.1306  0.2252
  599MOL0     H80826   1.135  12.043  11.579 -1.0403  1.2404  0.1240
  599MOL0     H80827   0.990  11.941  11.529  0.7262 -2.1557  0.4974
  599MOL0     H80828   0.977  12.096  11.609 -1.2449  0.4618 -0.3073
  599MOL0     H80829   0.831  11.461  11.558  0.1719  2.2476 -0.1809
  599MOL0     H80830   0.866  11.302  11.377 -0.4232  1.7786  1.7865
  599MOL0     H80831   1.291  11.267  11.227 -1.2065  1.9022 -1.1467
  599MOL0     H80832   1.257  11.095  11.261  2.7886  0.6525 -1.8499
  599MOL0     H80833   1.120  11.078  11.082 -2.4117  3.0754  4.1175
  599MOL0     H80834   1.146  11.243  11.017  0.3311  0.3929 -0.5400
  599MOL0     H80835   1.296  11.071  10.891 -0.5868 -1.6779  0.6212
  599MOL0     H80836   1.395  11.053  11.031  0.2454 -0.7915 -2.5680
  599MOL0     H80837   1.349  11.313  10.882 -1.1741 -1.3871  0.4182
  599MOL0     H80838   1.412  11.311  11.037 -1.9000 -2.5596  2.0850
  599MOL0     H80839   1.597  11.131  10.930  0.5636 -1.6203 -1.0924
  599MOL0     H80840   1.626  11.304  10.919 -1.4709  1.2379 -1.3850
  599MOL0     H80841   1.447  11.149  10.721  0.6701 -0.3509 -1.2908
  599MOL0     H80842   1.533  11.295  10.683 -3.6196  0.6701  0.4700
  599MOL0     H80843   1.600  11.006  10.678 -0.6406  0.7831 -0.9436
  599MOL0     H80844   1.712  11.079  10.784  0.7610  3.2784  0.5628
  599MOL0     H80845   1.845  11.165  10.613  0.3341  0.4684  0.0315
  599MOL0     H80846   1.703  11.241  10.538  0.5364 -0.7662 -1.9636
  599MOL0     H80847   1.289  11.317  11.412  0.2471 -1.8326 -0.5513
  599MOL0     H80848   1.262  11.490  11.614  0.0694  0.9276 -1.6319
  599MOL0     H80849   1.044  11.652  11.923  1.2432  0.3134  0.1341
  599MOL0     H80850   1.012  11.810  12.111 -3.0547  0.6149 -0.1853
  599MOL0     H80851   1.465  11.254  11.484  0.2293  2.4796 -0.3867
  599MOL0     H80852   1.563  11.032  11.546  2.6556  1.7473  3.3532
  599MOL0     H80853   1.932  10.773  11.611  2.3660 -0.6735  1.7763
  599MOL0     H80854   1.979  10.558  11.716 -1.6201 -0.4123  0.3894
  599MOL0     H80855   1.940  10.193  11.450  3.0938  1.1990  0.8039
  599MOL0     H80856   1.948  10.114  11.601 -3.1167 -1.1188  3.7144
  599MOL0     H80857   1.715  10.131  11.497  1.3297 -1.7718  1.6749
  599MOL0     H80858   1.701  10.302  11.527 -0.9555 -0.2379  2.1172
  599MOL0     H80859   1.738  10.267  11.766 -2.2405  0.7156  1.2439
  599MOL0     H80860   1.751  10.094  11.742 -0.2358  0.7713  1.3202
  599MOL0     H80861   1.493  10.227  11.659 -1.7501 -1.7999 -1.1961
  599MOL0     H80862   1.525  10.201  11.829 -0.0255  2.7206 -0.6491
  599MOL0     H80863   1.413   9.821  11.698 -2.6342  0.6789 -0.9128
  599MOL0     H80864   1.915  10.378  11.336  0.9883  0.2072 -1.9370
  599MOL0     H80865   1.838  10.561  11.238 -1.7883 -0.0776  1.3062
  600MOL0     O80866   4.664   4.521   2.531 -0.2235 -0.0972 -0.2166
  600MOL0     C80867   4.699   4.613   2.455 -0.9471 -0.5910 -0.6714
  600MOL0     O80868   4.805   4.707   2.484  0.1945  1.0345 -0.7163
  600MOL0     C80869   4.849   4.690   2.610  0.3470  0.6798  0.4608
  600MOL0     C80870   4.768   4.723   2.725 -0.1505  0.3811  0.6367
  600MOL0     C80871   4.830   4.716   2.855  0.5174  0.0557  0.1295
  600MOL0     C80872   4.954   4.655   2.878 -0.4338 -0.1920 -0.3841
  600MOL0     O80873   4.988   4.630   3.011  0.6419  0.0128  0.0148
  600MOL0     C80874   5.109   4.556   3.041  0.0911 -0.2895 -0.0099
  600MOL0     C80875   5.159   4.614   3.168 -0.8657 -0.2234 -0.2950
  600MOL0     C80876   5.264   4.728   3.129  0.6187 -0.7117 -1.1994
  600MOL0     C80877   5.352   4.769   3.247  0.6452 -1.1023  1.3252
  600MOL0     C80878   5.443   4.884   3.191 -0.4792  0.4981 -0.0319
  600MOL0     C80879   5.563   4.811   3.123  0.3537 -0.0605 -0.1944
  600MOL0     C80880   5.658   4.757   3.223  0.5005  0.4298 -0.5181
  600MOL0     C80881   5.752   4.859   3.295 -0.0019 -0.4457  0.4981
  600MOL0     N80882   5.859   4.916   3.203  0.1332 -0.4530  0.0418
  600MOL0     C80883   5.894   4.850   3.091  0.8023  0.4007  0.1807
  600MOL0     C80884   5.953   4.947   3.016  0.0664 -1.0859 -0.8510
  600MOL0     C80885   6.020   4.923   2.882 -0.3498  0.4168  0.0836
  600MOL0     C80886   5.911   4.879   2.777 -0.0196  0.6682  0.1962
  600MOL0     C80887   5.791   4.975   2.773  0.5192 -0.1419  0.4970
  600MOL0     C80888   5.659   4.909   2.723  0.3843  0.7625  0.5955
  600MOL0     O80889   5.623   4.799   2.808 -0.1139  0.6648 -0.2409
  600MOL0     C80890   5.541   4.694   2.763  0.3576  0.6522 -0.5045
  600MOL0     C80891   5.587   4.570   2.781  0.2168 -0.2976 -0.4917
  600MOL0     C80892   5.525   4.457   2.727 -0.2248 -0.0053 -0.2914
  600MOL0     C80893   5.586   4.328   2.772 -0.1894  0.0630 -0.3993
  600MOL0     C80894   5.411   4.466   2.648 -0.1338 -0.1489  0.7541
  600MOL0     C80895   5.339   4.352   2.601  0.1452  0.2922 -1.0048
  600MOL0     O80896   5.227   4.373   2.533 -0.1501  0.3513  0.0065
  600MOL0     C80897   5.164   4.281   2.454 -0.2432 -0.9028 -0.9819
  600MOL0     C80898   5.029   4.298   2.426 -0.6194 -0.3348 -0.2095
  600MOL0     C80899   4.961   4.207   2.348 -0.0582 -0.3526 -0.1541
  600MOL0     C80900   5.026   4.101   2.286 -0.4528 -0.4079 -0.1171
  600MOL0     O80901   4.963   4.035   2.182 -0.1844  0.1309  0.4680
  600MOL0     C80902   5.042   4.018   2.063 -0.5981 -0.0565 -0.9525
  600MOL0     C80903   4.958   3.977   1.933  0.4239 -0.5520  0.1361
  600MOL0     C80904   4.895   3.838   1.951 -0.6852 -0.5563  0.5006
  600MOL0     C80905   4.836   3.789   1.814 -0.2686 -0.4558  0.1397
  600MOL0     C80906   4.741   3.668   1.822  0.2388 -1.0669  0.2380
  600MOL0     C80907   4.710   3.622   1.681 -0.2197 -0.3048  0.2285
  600MOL0     C80908   4.591   3.530   1.676  0.6365  0.3889 -0.2511
  600MOL0     C80909   4.604   3.426   1.771 -0.7935  0.9077 -0.3223
  600MOL0    Cl80910   4.494   3.291   1.740  0.0731  0.6361 -0.4703
  600MOL0     C80911   5.160   4.075   2.320  0.4727 -0.1235  0.3606
  600MOL0     C80912   5.227   4.171   2.398 -1.0637  0.4944 -0.2579
  600MOL0     O80913   5.378   4.242   2.647  0.1819  1.0035 -0.4002
  600MOL0     C80914   5.358   4.598   2.637  0.1840 -0.8096  0.3230
  600MOL0     C80915   5.431   4.712   2.681  1.4627  0.0958 -0.7061
  600MOL0     N80916   5.949   5.075   3.083  0.2894 -0.2387 -0.5386
  600MOL0     N80917   5.891   5.051   3.198  0.3644  0.1235  0.6915
  600MOL0     C80918   5.027   4.616   2.765 -1.0488 -0.6001 -0.8827
  600MOL0     C80919   4.970   4.630   2.630 -0.5396  1.1704 -0.2336
  600MOL0     C80920   4.612   4.640   2.336 -0.5787 -0.9325 -0.5061
  600MOL0     C80921   4.501   4.565   2.299  0.6249  0.0366 -0.3250
  600MOL0     C80922   4.422   4.597   2.190  0.6405  0.0524 -0.6341
  600MOL0     C80923   4.447   4.715   2.110  0.6206  0.8514  0.0870
  600MOL0     O80924   4.364   4.754   2.004 -0.1862  0.3332 -0.4517
  600MOL0     C80925   4.220   4.737   2.022  0.1897  0.1892  0.0647
  600MOL0     C80926   4.139   4.790   1.900 -0.2559  0.4609 -0.4183
  600MOL0     C80927   4.192   4.721   1.769 -0.2175 -1.2937 -0.4851
  600MOL0     C80928   4.116   4.774   1.641 -0.7608 -0.0838 -0.7194
  600MOL0     C80929   4.179   4.892   1.577  0.3846  0.3959 -0.3742
  600MOL0     C80930   4.231   4.993   1.531  0.2111  0.3989 -0.4421
  600MOL0     C80931   4.545   4.802   2.154 -0.5238 -0.3008 -0.0590
  600MOL0     C80932   4.633   4.766   2.262 -0.9307 -0.6917  0.1514
  600MOL0     H80933   4.670   4.765   2.709 -0.7342 -1.4212 -0.8711
  600MOL0     H80934   4.774   4.739   2.945 -2.4787 -1.1645 -1.2832
  600MOL0     H80935   5.083   4.451   3.056 -1.9680  0.5661  3.4207
  600MOL0     H80936   5.187   4.574   2.966  2.9593 -0.5569  2.7250
  600MOL0     H80937   5.075   4.657   3.224  0.3617  2.0573 -0.0831
  600MOL0     H80938   5.210   4.537   3.226  0.7190  1.1606  0.2250
  600MOL0     H80939   5.327   4.699   3.044  1.9215 -0.2473 -0.4308
  600MOL0     H80940   5.190   4.802   3.096 -2.1233 -1.8797  1.8576
  600MOL0     H80941   5.299   4.811   3.333 -1.8862 -2.4451  0.5162
  600MOL0     H80942   5.399   4.679   3.287  1.1275 -0.7836  1.4846
  600MOL0     H80943   5.392   4.949   3.119  1.3162 -0.7802 -2.6236
  600MOL0     H80944   5.485   4.950   3.267  1.4491  2.4491 -2.5923
  600MOL0     H80945   5.537   4.723   3.064  2.1321 -1.4182  0.9325
  600MOL0     H80946   5.623   4.877   3.058  0.3404 -1.2004 -1.4145
  600MOL0     H80947   5.605   4.705   3.303  3.3578 -1.0378  0.5788
  600MOL0     H80948   5.713   4.674   3.177 -1.3607 -1.2336  0.0956
  600MOL0     H80949   5.802   4.805   3.376  3.1908 -2.3690 -2.4660
  600MOL0     H80950   5.690   4.940   3.333 -1.5858 -0.9416 -0.9140
  600MOL0     H80951   5.876   4.747   3.060  2.3522  0.0151  0.4668
  600MOL0     H80952   6.082   5.008   2.853 -0.0891 -0.0122 -0.6336
  600MOL0     H80953   6.089   4.842   2.908 -2.9092 -0.9926  3.1270
  600MOL0     H80954   5.886   4.776   2.806  3.4239 -0.2322  0.4714
  600MOL0     H80955   5.968   4.878   2.683 -1.8025  0.4831 -0.9176
  600MOL0     H80956   5.816   5.055   2.703 -1.9443 -0.9428 -1.4475
  600MOL0     H80957   5.763   5.010   2.873 -0.3991  0.5273  0.0242
  600MOL0     H80958   5.681   4.877   2.620  2.0084  1.6783  0.6246
  600MOL0     H80959   5.584   4.989   2.726 -1.6840 -1.0534 -0.1769
  600MOL0     H80960   5.669   4.562   2.851 -1.3631 -1.1559  1.3784
  600MOL0     H80961   5.689   4.343   2.803 -0.0345 -0.3945 -0.6822
  600MOL0     H80962   5.536   4.288   2.860  1.2507  2.0451  1.4224
  600MOL0     H80963   5.596   4.252   2.694  5.3712 -0.4383  0.4078
  600MOL0     H80964   4.997   4.395   2.463  2.3169  0.7628 -0.2530
  600MOL0     H80965   4.857   4.228   2.323  0.8366  3.9245 -1.0139
  600MOL0     H80966   5.094   4.108   2.030  2.3594 -1.6522 -1.0363
  600MOL0     H80967   5.118   3.940   2.071  0.3159  0.6844 -2.0718
  600MOL0     H80968   4.876   4.047   1.914  1.3919  0.1089 -1.8375
  600MOL0     H80969   5.017   3.987   1.842 -3.0511  0.0859 -2.2699
  600MOL0     H80970   4.823   3.857   2.031 -0.8154  2.3569 -0.1949
  600MOL0     H80971   4.960   3.759   1.989  1.6299  3.5609  6.5517
  600MOL0     H80972   4.772   3.862   1.764  0.3345 -1.2807 -1.9270
  600MOL0     H80973   4.908   3.759   1.738 -0.6887 -0.7051 -0.1622
  600MOL0     H80974   4.658   3.685   1.892  1.3158  1.6643  0.9985
  600MOL0     H80975   4.806   3.596   1.872  2.2417  0.3228 -0.2222
  600MOL0     H80976   4.706   3.709   1.616 -2.5084 -0.5340 -0.0139
  600MOL0     H80977   4.792   3.571   1.628  0.3791 -0.9060  1.6694
  600MOL0     H80978   4.598   3.484   1.577  3.1287  1.6228 -0.7439
  600MOL0     H80979   4.494   3.579   1.685  1.4266  1.7779  1.1729
  600MOL0     H80980   4.591   3.452   1.876  0.4616 -0.0032  0.0976
  600MOL0     H80981   4.709   3.393   1.763 -0.9666  0.7048 -2.5514
  600MOL0     H80982   5.222   3.994   2.282  0.2956 -0.6459  1.1518
  600MOL0     H80983   5.329   4.141   2.423 -1.4110 -0.7534 -0.2750
  600MOL0     H80984   5.259   4.592   2.594  1.2039  1.0703 -2.5651
  600MOL0     H80985   5.382   4.809   2.686 -0.3913 -0.8694  1.4518
  600MOL0     H80986   5.110   4.546   2.763  1.6475  2.3410 -2.7447
  600MOL0     H80987   5.021   4.586   2.545 -0.4446  1.6349 -0.4170
  600MOL0     H80988   4.469   4.481   2.360  0.9405 -0.3348 -0.6700
  600MOL0     H80989   4.336   4.533   2.179 -0.5388  1.7278 -1.7244
  600MOL0     H80990   4.176   4.638   2.042  1.2139 -0.1165  0.9072
  600MOL0     H80991   4.198   4.798   2.110 -0.0288  0.2741 -0.0481
  600MOL0     H80992   4.136   4.899   1.891 -2.1573  0.5327  0.6283
  600MOL0     H80993   4.033   4.764   1.908  0.3688 -4.5083 -3.5843
  600MOL0     H80994   4.173   4.613   1.779 -3.3605 -0.7305  0.8458
  600MOL0     H80995   4.299   4.734   1.752 -0.5193 -0.3948 -1.8004
  600MOL0     H80996   4.010   4.785   1.664 -0.1976 -0.4220  2.4370
  600MOL0     H80997   4.115   4.687   1.575 -3.6937 -2.3199  1.9911
  600MOL0     H80998   4.294   5.066   1.483  0.6055 -0.8094 -1.8226
  600MOL0     H80999   4.547   4.897   2.101  0.2009 -1.1693 -1.6972
  600MOL0     H81000   4.712   4.838   2.280  0.0916 -1.1742 -2.0116
  601MOL0     O81001   1.276   3.756   2.127 -0.5527  0.1332 -0.2047
  601MOL0     C81002   1.329   3.732   2.020  0.2794  0.6457 -0.3742
  601MOL0     O81003   1.433   3.649   2.005 -0.6505 -0.3336  0.4460
  601MOL0     C81004   1.479   3.582   2.117  0.5662 -0.1010 -0.0432
  601MOL0     C81005   1.403   3.527   2.218  0.4954  1.4634  0.2985
  601MOL0     C81006   1.477   3.447   2.313 -0.2698 -0.0845 -0.3676
  601MOL0     C81007   1.609   3.420   2.300  0.2139 -0.3168 -0.2280
  601MOL0     O81008   1.684   3.340   2.373  0.5490 -0.7568 -0.8172
  601MOL0     C81009   1.645   3.320   2.513 -0.1280 -0.4189  0.0971
  601MOL0     C81010   1.751   3.228   2.576 -0.4205 -0.5982  0.2187
  601MOL0     C81011   1.698   3.201   2.714  0.3867  0.2821 -0.1381
  601MOL0     C81012   1.814   3.146   2.791 -0.1223  0.3255 -0.6456
  601MOL0     C81013   1.754   3.062   2.918  0.6986 -1.1496  0.8031
  601MOL0     C81014   1.770   3.133   3.055  0.3271  0.1726 -0.2120
  601MOL0     C81015   1.707   3.046   3.168  0.5678  0.5564 -0.1484
  601MOL0     C81016   1.750   3.105   3.305 -0.6596 -0.0667  0.0411
  601MOL0     N81017   1.656   3.076   3.409  0.8526  0.8637  0.1579
  601MOL0     C81018   1.619   2.949   3.463 -0.1668  0.3695 -0.4733
  601MOL0     C81019   1.545   2.986   3.567  0.3847 -0.2448  0.2312
  601MOL0     C81020   1.487   2.888   3.675  0.1793  0.1590  0.4714
  601MOL0     C81021   1.340   2.847   3.643 -0.1977 -0.0858  0.0264
  601MOL0     C81022   1.308   2.696   3.612 -0.6426 -0.3129  0.1474
  601MOL0     C81023   1.394   2.634   3.498  0.2728  0.0725  0.3957
  601MOL0     O81024   1.384   2.700   3.373 -0.2188 -0.0001 -0.2978
  601MOL0     C81025   1.267   2.679   3.307 -0.0195 -0.8683  0.3250
  601MOL0     C81026   1.224   2.545   3.270 -0.4283  0.1463 -0.6901
  601MOL0     C81027   1.105   2.521   3.200  0.0395  0.1688  0.0779
  601MOL0     C81028   1.075   2.378   3.149 -0.0403  0.1665 -0.6237
  601MOL0     C81029   1.013   2.629   3.181 -0.6036 -0.0001  0.1170
  601MOL0     C81030   0.871   2.617   3.115  0.3183 -0.1507 -0.0988
  601MOL0     O81031   0.815   2.744   3.092 -0.4540 -0.2933  0.2306
  601MOL0     C81032   0.682   2.756   3.053 -0.1670  0.2140 -0.3421
  601MOL0     C81033   0.594   2.824   3.138  1.1135  0.1193 -0.0861
  601MOL0     C81034   0.469   2.869   3.092 -0.9395 -0.7510 -0.2927
  601MOL0     C81035   0.431   2.833   2.959  0.8120 -0.2330 -0.2947
  601MOL0     O81036   0.311   2.882   2.908 -0.3299 -0.0012  0.3455
  601MOL0     C81037   0.193   2.813   2.963 -0.5751  0.0315 -0.4215
  601MOL0     C81038   0.066   2.891   2.943  0.2265  0.1135  0.0534
  601MOL0     C81039  -0.049   2.823   3.027 -0.0149  0.1018  0.3271
  601MOL0     C81040  -0.189   2.868   2.987 -0.8536  0.1481 -1.2005
  601MOL0     C81041  -0.303   2.793   3.050  0.1205 -0.1178  0.2532
  601MOL0     C81042  -0.348   2.664   2.991 -0.0200  0.8648  0.5310
  601MOL0     C81043  -0.356   2.544   3.088  0.0710 -0.0028 -0.5802
  601MOL0     C81044  -0.396   2.416   3.008 -0.1626  1.0414 -0.8811
  601MOL0    Cl81045  -0.365   2.268   3.110  0.5038 -0.6094 -0.4132
  601MOL0     C81046   0.523   2.763   2.874  1.2823  0.5164  0.3288
  601MOL0     C81047   0.646   2.725   2.920 -0.5006 -0.6164 -0.4677
  601MOL0     O81048   0.809   2.512   3.113 -1.2176 -0.0086  0.3064
  601MOL0     C81049   1.060   2.757   3.211  0.0243 -0.6027 -0.3076
  601MOL0     C81050   1.181   2.786   3.272  0.2496 -0.8229  0.1810
  601MOL0     N81051   1.531   3.123   3.575 -0.2276  0.6166 -0.1804
  601MOL0     N81052   1.584   3.173   3.476 -0.3865  0.9342  0.4277
  601MOL0     C81053   1.689   3.486   2.205  0.2393  0.0704  0.0768
  601MOL0     C81054   1.618   3.567   2.111 -0.4216  1.0539  0.7613
  601MOL0     C81055   1.259   3.766   1.896 -0.1053 -0.5235  0.0750
  601MOL0     C81056   1.115   3.773   1.899  0.8356  0.2905 -0.2259
  601MOL0     C81057   1.040   3.793   1.787  0.4701  0.0876  0.0670
  601MOL0     C81058   1.103   3.822   1.665 -0.4611  0.2055  0.0847
  601MOL0     O81059   1.045   3.838   1.540  0.7105 -0.0774  0.2573
  601MOL0     C81060   0.916   3.799   1.510 -0.7841 -0.2396  1.1036
  601MOL0     C81061   0.821   3.922   1.546 -0.1597 -0.3112  0.2649
  601MOL0     C81062   0.678   3.871   1.554 -0.2734  1.1041  0.5164
  601MOL0     C81063   0.585   3.968   1.485 -0.3607 -0.4205  0.3169
  601MOL0     C81064   0.454   3.905   1.515  0.3485  1.1324 -0.4165
  601MOL0     C81065   0.355   3.830   1.522 -0.2457 -0.4033  0.8836
  601MOL0     C81066   1.249   3.823   1.665  0.1394  0.4676 -0.4485
  601MOL0     C81067   1.324   3.789   1.777 -0.5926  0.8309 -0.4768
  601MOL0     H81068   1.296   3.538   2.234  0.3589 -1.4672  2.2769
  601MOL0     H81069   1.421   3.396   2.391 -0.7192 -0.8338 -1.1623
  601MOL0     H81070   1.627   3.408   2.576 -1.8927  2.6006 -4.1196
  601MOL0     H81071   1.549   3.268   2.524 -1.1208  1.4312  0.5589
  601MOL0     H81072   1.758   3.141   2.510 -2.5154  0.2417 -1.2619
  601MOL0     H81073   1.840   3.291   2.585 -0.3116 -1.0743  3.1533
  601MOL0     H81074   1.654   3.288   2.762  2.0566 -0.9075  4.0393
  601MOL0     H81075   1.617   3.129   2.699 -1.5288  2.7825 -2.8640
  601MOL0     H81076   1.864   3.066   2.736  1.3004 -1.1296  2.5426
  601MOL0     H81077   1.900   3.209   2.816  0.4728 -1.3730  2.0119
  601MOL0     H81078   1.652   3.031   2.893  0.5629  1.1033 -1.9963
  601MOL0     H81079   1.821   2.976   2.920  1.0418 -0.9144 -0.0005
  601MOL0     H81080   1.875   3.152   3.079  0.7202 -4.4866  3.0470
  601MOL0     H81081   1.727   3.231   3.033  0.8796  0.9523  1.9517
  601MOL0     H81082   1.598   3.044   3.158  0.6948 -1.2727 -1.6248
  601MOL0     H81083   1.733   2.940   3.171 -0.8743  0.2050  2.1744
  601MOL0     H81084   1.748   3.213   3.290  3.1784 -0.1196 -2.3283
  601MOL0     H81085   1.853   3.074   3.325  0.9413  4.0706 -0.8118
  601MOL0     H81086   1.640   2.846   3.437  0.0560  0.0532  0.9069
  601MOL0     H81087   1.557   2.804   3.668 -1.6453 -1.5988  2.0014
  601MOL0     H81088   1.477   2.930   3.775 -2.4635 -0.8502  0.7237
  601MOL0     H81089   1.299   2.906   3.561 -2.6840 -0.8298  0.6618
  601MOL0     H81090   1.290   2.864   3.739  2.3582 -2.4536  1.9706
  601MOL0     H81091   1.200   2.683   3.600 -0.8244 -0.0961  1.3950
  601MOL0     H81092   1.340   2.643   3.702  0.7497  1.6488  0.8694
  601MOL0     H81093   1.369   2.527   3.501 -0.5623  0.2726  2.7176
  601MOL0     H81094   1.497   2.628   3.535  0.3883 -0.8135 -0.0339
  601MOL0     H81095   1.294   2.466   3.296  0.2174  0.2685 -1.9657
  601MOL0     H81096   1.158   2.309   3.169  0.0792 -0.6124 -3.3815
  601MOL0     H81097   1.007   2.334   3.222  0.3905 -0.2943 -0.4906
  601MOL0     H81098   1.061   2.373   3.040  0.6230  1.2187 -0.7749
  601MOL0     H81099   0.623   2.853   3.238  2.1351  1.2112 -0.6745
  601MOL0     H81100   0.414   2.942   3.151  2.5569  0.9986  1.1211
  601MOL0     H81101   0.186   2.714   2.917  1.7650  0.2142 -1.3000
  601MOL0     H81102   0.202   2.806   3.072 -3.0347 -1.0156 -0.2134
  601MOL0     H81103   0.079   2.997   2.963 -0.5949  0.3241 -0.4740
  601MOL0     H81104   0.043   2.907   2.838  2.6629  5.9299  0.0636
  601MOL0     H81105  -0.029   2.829   3.134  0.2150 -0.2399  0.3034
  601MOL0     H81106  -0.042   2.717   3.003  1.3089  0.5313 -1.3779
  601MOL0     H81107  -0.202   2.974   3.014  1.9065 -0.0099  1.3086
  601MOL0     H81108  -0.194   2.860   2.878 -3.0674 -2.3213 -1.0138
  601MOL0     H81109  -0.389   2.861   3.049  0.3894  0.2235 -0.1404
  601MOL0     H81110  -0.271   2.784   3.154 -1.7752 -0.0982  0.8798
  601MOL0     H81111  -0.439   2.681   2.933  0.7707 -1.2061 -1.4447
  601MOL0     H81112  -0.271   2.641   2.917 -1.0849  1.1975 -0.7204
  601MOL0     H81113  -0.437   2.559   3.160 -0.4694  0.3394 -1.2432
  601MOL0     H81114  -0.258   2.523   3.131  0.1995  2.3640  0.4183
  601MOL0     H81115  -0.342   2.407   2.913  1.2894 -1.9610  0.1060
  601MOL0     H81116  -0.502   2.416   2.979 -0.3933  0.5051 -0.0598
  601MOL0     H81117   0.489   2.755   2.771 -2.2247  0.4290  1.3670
  601MOL0     H81118   0.723   2.698   2.848  0.9208  0.0256  0.7342
  601MOL0     H81119   0.993   2.841   3.198 -0.4667 -0.5017  2.4304
  601MOL0     H81120   1.218   2.889   3.274 -2.3678  0.1996 -0.2038
  601MOL0     H81121   1.796   3.469   2.214  0.2729  0.5596  0.7385
  601MOL0     H81122   1.672   3.608   2.026  0.9541 -3.3108 -0.7147
  601MOL0     H81123   1.056   3.759   1.990 -2.3128  0.7775 -2.0373
  601MOL0     H81124   0.932   3.792   1.788  0.4738 -0.1685  0.8840
  601MOL0     H81125   0.915   3.796   1.400  2.5610  1.1128  0.9263
  601MOL0     H81126   0.888   3.702   1.552  2.7307 -2.5090 -1.2184
  601MOL0     H81127   0.829   4.001   1.470 -3.6565  0.7645  0.8251
  601MOL0     H81128   0.847   3.980   1.635  0.0200  4.5752 -2.5771
  601MOL0     H81129   0.667   3.861   1.662 -0.3695 -1.2763  0.3477
  601MOL0     H81130   0.667   3.774   1.505  1.0595  2.5714 -3.0329
  601MOL0     H81131   0.614   3.970   1.379  2.2815  2.0303  0.9795
  601MOL0     H81132   0.588   4.064   1.536  1.9536 -1.2676  1.9437
  601MOL0     H81133   0.277   3.759   1.502  0.0634 -0.5361  0.1287
  601MOL0     H81134   1.305   3.827   1.572 -0.9133 -1.8050 -1.2488
  601MOL0     H81135   1.430   3.774   1.763 -0.7375 -1.8559  0.5871
  602MOL0     O81136   5.399   8.377   9.311  0.6092 -0.1646 -0.0001
  602MOL0     C81137   5.364   8.383   9.193  0.4639 -0.0752 -0.0075
  602MOL0     O81138   5.292   8.285   9.135 -0.3499  0.6165 -0.2127
  602MOL0     C81139   5.261   8.178   9.213  0.7168 -0.4795  0.3381
  602MOL0     C81140   5.343   8.074   9.211  0.0231 -0.5260 -0.5646
  602MOL0     C81141   5.298   7.966   9.282  0.8721  0.2701 -0.1429
  602MOL0     C81142   5.170   7.955   9.347 -0.4263 -0.6852  0.2306
  602MOL0     O81143   5.131   7.840   9.413 -0.5120 -0.4536  0.0622
  602MOL0     C81144   5.002   7.798   9.368  1.2299  0.2595 -0.4582
  602MOL0     C81145   4.963   7.693   9.467  1.1401 -0.6576  0.3292
  602MOL0     C81146   4.858   7.608   9.410  0.4830  0.7894  0.0340
  602MOL0     C81147   4.907   7.461   9.401 -0.1113  1.0341 -0.2837
  602MOL0     C81148   4.775   7.380   9.378 -0.3941  0.0146  0.2151
  602MOL0     C81149   4.799   7.227   9.355  0.0260  0.4504  0.0367
  602MOL0     C81150   4.668   7.143   9.387  0.2221  0.2057  1.0308
  602MOL0     C81151   4.566   7.159   9.275 -0.4809 -1.0878  0.8808
  602MOL0     N81152   4.598   7.067   9.162 -0.1857  0.0253 -0.0227
  602MOL0     C81153   4.687   6.961   9.162 -0.4600 -0.7441 -0.5383
  602MOL0     C81154   4.675   6.908   9.033  0.0816 -0.0020 -0.2955
  602MOL0     C81155   4.750   6.788   8.976 -0.3174  0.5726  0.4526
  602MOL0     C81156   4.902   6.774   8.989 -1.3526 -0.3190 -0.8333
  602MOL0     C81157   4.938   6.703   9.118  0.0931  0.3641 -0.3552
  602MOL0     C81158   5.088   6.681   9.134 -0.3725  0.4386  0.0974
  602MOL0     O81159   5.154   6.681   9.006 -0.8669 -0.3325  0.4598
  602MOL0     C81160   5.146   6.562   8.949  0.5924  0.8655  0.5921
  602MOL0     C81161   5.105   6.556   8.816 -0.7373 -0.2398  0.2260
  602MOL0     C81162   5.093   6.440   8.745  0.0744  0.2231  0.6604
  602MOL0     C81163   5.040   6.449   8.599 -0.4025 -0.4238 -0.0649
  602MOL0     C81164   5.123   6.311   8.810  0.4434 -0.4383  0.3185
  602MOL0     C81165   5.137   6.190   8.733  0.9030 -0.8865  0.3850
  602MOL0     O81166   5.034   6.100   8.760 -0.0245 -1.1139  0.5692
  602MOL0     C81167   5.025   5.975   8.702 -0.1191 -0.8674 -0.5427
  602MOL0     C81168   5.115   5.908   8.619 -0.3632  1.0006  1.1960
  602MOL0     C81169   5.086   5.784   8.571  0.3235  0.3449  1.0006
  602MOL0     C81170   4.967   5.718   8.603 -0.1367  0.1415  0.1200
  602MOL0     O81171   4.953   5.594   8.550  0.1554 -0.8900  0.2328
  602MOL0     C81172   4.817   5.545   8.514 -0.7709  0.1653 -0.2521
  602MOL0     C81173   4.782   5.427   8.607 -0.7893  0.7238  0.2699
  602MOL0     C81174   4.646   5.378   8.571 -0.6784  0.4806  0.2434
  602MOL0     C81175   4.617   5.256   8.652  0.0575 -0.2874 -1.0942
  602MOL0     C81176   4.473   5.202   8.625  0.0620 -0.7827  0.7015
  602MOL0     C81177   4.460   5.109   8.500  0.4871  0.3926 -0.1826
  602MOL0     C81178   4.319   5.028   8.489 -0.1596 -0.1163 -0.2179
  602MOL0     C81179   4.203   5.121   8.515 -0.2724 -0.2182  1.0597
  602MOL0    Cl81180   4.201   5.251   8.395  0.1197  0.1665  0.3625
  602MOL0     C81181   4.881   5.779   8.699 -0.2142  0.4867 -0.1547
  602MOL0     C81182   4.916   5.903   8.756  0.2327  0.3073 -0.4968
  602MOL0     O81183   5.231   6.173   8.658  0.0810  0.3663  0.5795
  602MOL0     C81184   5.158   6.321   8.950 -0.1321  0.2058 -0.4638
  602MOL0     C81185   5.174   6.442   9.016 -0.4516 -0.9405  0.3740
  602MOL0     N81186   4.597   6.992   8.959 -0.6271  0.1733  0.4814
  602MOL0     N81187   4.552   7.084   9.035 -0.1337 -0.0434 -0.2890
  602MOL0     C81188   5.094   8.074   9.347 -0.3745 -0.3618  0.1602
  602MOL0     C81189   5.134   8.178   9.273 -0.7044 -0.8599  0.7555
  602MOL0     C81190   5.400   8.502   9.113  0.1320 -0.7655 -0.1769
  602MOL0     C81191   5.510   8.577   9.139  0.5597 -0.5060 -0.0299
  602MOL0     C81192   5.556   8.684   9.053 -0.2291  0.8414 -1.2359
  602MOL0     C81193   5.480   8.712   8.947  0.5666 -0.1903  0.6400
  602MOL0     O81194   5.530   8.810   8.861 -0.0977  0.1156  0.1214
  602MOL0     C81195   5.479   8.841   8.727  0.1481  0.0202 -0.0783
  602MOL0     C81196   5.373   8.959   8.744  0.2436  0.1568  0.8803
  602MOL0     C81197   5.348   9.034   8.612  0.1619  0.4154 -0.0711
  602MOL0     C81198   5.474   9.102   8.568 -0.4802  0.1638  0.2371
  602MOL0     C81199   5.467   9.167   8.440 -0.1961  0.5222 -0.3179
  602MOL0     C81200   5.445   9.221   8.335 -0.0212 -0.2277  0.1388
  602MOL0     C81201   5.347   8.650   8.924  0.0766  0.0352 -0.3935
  602MOL0     C81202   5.316   8.538   9.008 -0.7973 -0.1099  0.1241
  602MOL0     H81203   5.439   8.090   9.162 -0.6838 -0.8236 -2.1018
  602MOL0     H81204   5.355   7.873   9.284  5.2575  2.7004  0.7232
  602MOL0     H81205   4.935   7.885   9.364  0.5076 -0.0906  1.9646
  602MOL0     H81206   5.003   7.766   9.264 -0.7477 -1.3984 -0.0413
  602MOL0     H81207   5.052   7.640   9.503  3.1804  0.8935 -2.1149
  602MOL0     H81208   4.916   7.740   9.554  0.6250 -1.3379  0.4280
  602MOL0     H81209   4.772   7.609   9.477  0.8443 -1.2641  0.5936
  602MOL0     H81210   4.817   7.645   9.316  2.8561 -0.8078 -1.7510
  602MOL0     H81211   4.966   7.444   9.310  1.1997  2.4311  0.2653
  602MOL0     H81212   4.959   7.416   9.487 -1.6300  0.7982  0.5450
  602MOL0     H81213   4.709   7.392   9.465 -1.5470  0.8531 -0.7459
  602MOL0     H81214   4.737   7.426   9.287  1.5493  1.3615  0.0273
  602MOL0     H81215   4.824   7.208   9.250 -2.7395 -0.3806 -0.5753
  602MOL0     H81216   4.879   7.203   9.425 -0.4755  3.1775  1.7065
  602MOL0     H81217   4.689   7.039   9.415 -1.8239  0.2356  2.9477
  602MOL0     H81218   4.614   7.191   9.469 -2.4579  1.8653 -1.4915
  602MOL0     H81219   4.547   7.258   9.234 -2.4768 -0.7466  2.4415
  602MOL0     H81220   4.467   7.140   9.317 -0.4675 -0.6697  1.0946
  602MOL0     H81221   4.751   6.920   9.239  1.3958 -0.3280 -1.7957
  602MOL0     H81222   4.703   6.697   9.015  1.8491 -1.6741 -1.8247
  602MOL0     H81223   4.713   6.782   8.873  0.7474 -0.1150  0.1014
  602MOL0     H81224   4.940   6.877   8.990  3.0318 -1.7293 -1.8296
  602MOL0     H81225   4.935   6.725   8.897  3.5401 -1.1050  1.0499
  602MOL0     H81226   4.892   6.604   9.112  0.4641  0.0590  1.4825
  602MOL0     H81227   4.904   6.747   9.212 -0.0215 -1.8522  0.6914
  602MOL0     H81228   5.091   6.584   9.185 -0.2483  0.4373  0.0856
  602MOL0     H81229   5.132   6.749   9.208 -0.2323  1.2252 -0.6909
  602MOL0     H81230   5.078   6.652   8.772 -1.2206 -0.9842 -1.1672
  602MOL0     H81231   5.123   6.476   8.533  2.1319 -0.0351  3.0139
  602MOL0     H81232   5.002   6.352   8.565 -0.1850  0.3959 -2.8693
  602MOL0     H81233   4.955   6.516   8.590  0.7612  0.9015 -2.0405
  602MOL0     H81234   5.213   5.944   8.590 -0.4966  0.8169  0.4952
  602MOL0     H81235   5.161   5.723   8.522  0.9433  1.9819 -0.1480
  602MOL0     H81236   4.744   5.623   8.536 -0.4594  0.3886 -0.0026
  602MOL0     H81237   4.815   5.523   8.407  0.5061  0.6233 -0.3851
  602MOL0     H81238   4.864   5.355   8.600  0.1960  1.5045  2.5966
  602MOL0     H81239   4.777   5.467   8.709 -0.5869 -2.2001  1.5119
  602MOL0     H81240   4.640   5.355   8.465 -4.2065  0.2164  0.3724
  602MOL0     H81241   4.570   5.455   8.588  0.4403  1.4571  1.0115
  602MOL0     H81242   4.690   5.181   8.623  0.2591 -0.6597  0.2729
  602MOL0     H81243   4.618   5.261   8.762  3.2923 -0.3673 -1.0424
  602MOL0     H81244   4.399   5.283   8.615  1.8299  0.5883 -2.7307
  602MOL0     H81245   4.444   5.144   8.713  3.6589  1.2712  3.5521
  602MOL0     H81246   4.466   5.177   8.415  0.8458  0.8449  0.1986
  602MOL0     H81247   4.548   5.044   8.503  0.8562  0.8865 -0.1910
  602MOL0     H81248   4.317   4.952   8.567 -1.8433  2.8158  2.8448
  602MOL0     H81249   4.315   4.978   8.392 -0.7212 -1.0990  0.2970
  602MOL0     H81250   4.213   5.162   8.616  2.1947 -2.3377  1.7741
  602MOL0     H81251   4.118   5.052   8.507 -1.1583  0.8608  0.9603
  602MOL0     H81252   4.782   5.736   8.713  1.1440 -2.5678  0.8198
  602MOL0     H81253   4.845   5.944   8.826  0.4577 -4.0222  2.7195
  602MOL0     H81254   5.174   6.223   8.994 -0.5091  0.2947 -0.1152
  602MOL0     H81255   5.222   6.439   9.113 -0.6238 -1.6668  0.4430
  602MOL0     H81256   5.000   8.078   9.401 -1.6946  0.1762 -2.0229
  602MOL0     H81257   5.064   8.261   9.273 -2.3959 -2.2325  0.6149
  602MOL0     H81258   5.569   8.557   9.228  0.5257  1.9568  0.6240
  602MOL0     H81259   5.648   8.741   9.064  1.0864 -1.5940  2.2410
  602MOL0     H81260   5.557   8.867   8.654  0.3700 -1.2961 -0.3333
  602MOL0     H81261   5.435   8.752   8.681 -1.2744  0.1964  0.8883
  602MOL0     H81262   5.403   9.026   8.825 -0.8355  0.6345  0.8921
  602MOL0     H81263   5.273   8.919   8.759  0.1205 -1.9621 -3.6579
  602MOL0     H81264   5.257   9.094   8.613 -0.3672 -0.3714 -0.3652
  602MOL0     H81265   5.326   8.956   8.539 -1.0688 -0.6768  1.4038
  602MOL0     H81266   5.550   9.025   8.551  0.3809  0.8857  0.7202
  602MOL0     H81267   5.504   9.166   8.651 -1.3634 -0.4519  1.0461
  602MOL0     H81268   5.441   9.261   8.235  2.7207  1.4251  0.5927
  602MOL0     H81269   5.285   8.682   8.841 -4.1163  0.6959  2.6695
  602MOL0     H81270   5.235   8.476   8.970 -1.6623 -0.1294  1.8996
  603MOL0     O81271   3.898   9.380   1.754 -0.0880  0.1867 -0.5880
  603MOL0     C81272   3.971   9.316   1.831 -0.5639 -1.1158 -0.7107
  603MOL0     O81273   3.927   9.220   1.918 -0.5539  0.3065  0.3915
  603MOL0     C81274   3.795   9.185   1.924  0.3096  0.3388 -0.2518
  603MOL0     C81275   3.758   9.054   1.904 -0.7520  0.5247 -0.5443
  603MOL0     C81276   3.623   9.013   1.908  0.2018 -0.0723 -0.3477
  603MOL0     C81277   3.526   9.113   1.929 -0.1750  0.0113 -0.9543
  603MOL0     O81278   3.397   9.058   1.911  1.0638 -0.0768 -0.7834
  603MOL0     C81279   3.295   9.154   1.876  1.0533 -0.7675 -0.3978
  603MOL0     C81280   3.171   9.077   1.930 -0.0741  0.0359 -0.3408
  603MOL0     C81281   3.057   9.108   1.840 -0.0835  0.2796 -0.0325
  603MOL0     C81282   2.931   9.035   1.873 -0.5217 -0.5589  0.0938
  603MOL0     C81283   2.817   9.069   1.774  0.0060 -0.5751  0.6354
  603MOL0     C81284   2.685   9.005   1.830 -0.3533  0.0169  0.4983
  603MOL0     C81285   2.693   8.856   1.879  0.0710  0.8342 -0.3483
  603MOL0     C81286   2.562   8.777   1.893  0.5836  0.2036 -0.2470
  603MOL0     N81287   2.492   8.751   1.769  0.1241 -0.6260  0.2183
  603MOL0     C81288   2.513   8.635   1.690 -0.1752 -0.4919 -1.7994
  603MOL0     C81289   2.447   8.656   1.578 -0.1408  0.2569  0.3042
  603MOL0     C81290   2.430   8.566   1.456  0.3229  0.2257  0.4096
  603MOL0     C81291   2.306   8.476   1.453 -0.8667 -0.9238 -0.4121
  603MOL0     C81292   2.316   8.359   1.347  0.8384 -0.5817  0.4571
  603MOL0     C81293   2.194   8.275   1.346  0.7179 -0.5283 -0.6340
  603MOL0     O81294   2.197   8.202   1.460 -0.7287 -0.2965  0.2179
  603MOL0     C81295   2.097   8.109   1.475  0.1294 -0.0559 -0.0058
  603MOL0     C81296   1.973   8.093   1.405  0.0153 -0.2360 -0.1596
  603MOL0     C81297   1.891   7.982   1.438  0.0498  0.5812 -0.5607
  603MOL0     C81298   1.765   7.963   1.355  0.6159  0.5274  0.1537
  603MOL0     C81299   1.930   7.896   1.543  0.0418 -0.2163  0.1529
  603MOL0     C81300   1.846   7.774   1.575 -0.3500 -0.3079  0.0045
  603MOL0     O81301   1.822   7.760   1.712 -0.0951 -0.5796 -0.0832
  603MOL0     C81302   1.746   7.661   1.767  0.0008  0.0544  0.1900
  603MOL0     C81303   1.625   7.619   1.715  0.1324 -0.3509 -0.3731
  603MOL0     C81304   1.560   7.518   1.785 -0.0382 -1.1238 -0.2239
  603MOL0     C81305   1.611   7.467   1.901  1.5818 -0.7367  0.4988
  603MOL0     O81306   1.536   7.370   1.961 -0.1398 -0.1268  0.5998
  603MOL0     C81307   1.534   7.371   2.105 -0.2350 -0.3449 -0.2006
  603MOL0     C81308   1.435   7.261   2.153  0.8199 -0.3727  0.3303
  603MOL0     C81309   1.403   7.267   2.299  0.1672 -0.2594  0.2637
  603MOL0     C81310   1.262   7.242   2.332  0.7523  0.0241 -0.8797
  603MOL0     C81311   1.234   7.181   2.469 -0.0363  0.0354 -0.3049
  603MOL0     C81312   1.086   7.163   2.491  0.6325  0.0999  0.4716
  603MOL0     C81313   1.055   7.039   2.569  0.5391  1.0152  0.3540
  603MOL0     C81314   0.894   7.038   2.590 -0.4684  0.9402  0.1602
  603MOL0    Cl81315   0.839   6.906   2.693 -0.4044 -0.1181  0.0364
  603MOL0     C81316   1.720   7.517   1.960 -0.4679 -0.6136  0.0916
  603MOL0     C81317   1.794   7.618   1.889 -0.4695 -0.2602  0.4584
  603MOL0     O81318   1.808   7.701   1.479 -0.0276  0.5419 -0.0745
  603MOL0     C81319   2.042   7.920   1.622 -0.8451  0.1263  0.4352
  603MOL0     C81320   2.124   8.029   1.590  0.3199  0.0354 -0.0948
  603MOL0     N81321   2.374   8.778   1.602  0.3758  0.2946  0.1270
  603MOL0     N81322   2.404   8.835   1.707  0.6775 -0.2936  0.1451
  603MOL0     C81323   3.563   9.240   1.966  0.2531 -0.7240  0.0368
  603MOL0     C81324   3.698   9.278   1.961  0.5749 -1.5507  1.6267
  603MOL0     C81325   4.118   9.344   1.832 -0.3865  0.5358 -0.2694
  603MOL0     C81326   4.199   9.314   1.948  0.4077  0.2800  0.4216
  603MOL0     C81327   4.334   9.355   1.950 -0.3772  0.7588  0.2099
  603MOL0     C81328   4.390   9.400   1.831 -0.0986  0.6575 -0.6371
  603MOL0     O81329   4.520   9.446   1.832  0.6823 -0.4461 -0.2542
  603MOL0     C81330   4.585   9.522   1.730 -0.3155 -0.6158  0.1885
  603MOL0     C81331   4.730   9.553   1.775  0.0096 -0.0849 -0.2762
  603MOL0     C81332   4.744   9.683   1.863 -0.0006 -0.0793 -0.0950
  603MOL0     C81333   4.883   9.686   1.940  0.1034 -0.2811 -0.5416
  603MOL0     C81334   4.930   9.823   1.951 -0.0344 -0.9279 -0.1736
  603MOL0     C81335   4.962   9.941   1.961 -0.3562  0.4327  0.5660
  603MOL0     C81336   4.317   9.400   1.717 -0.4895  0.1418 -0.6832
  603MOL0     C81337   4.184   9.374   1.716 -0.4761  0.0138  0.3490
  603MOL0     H81338   3.848   8.994   1.891 -1.1154 -0.5310  1.5074
  603MOL0     H81339   3.584   8.912   1.898 -0.7555  0.5089 -3.6158
  603MOL0     H81340   3.300   9.257   1.912  3.1382  0.8206 -4.5098
  603MOL0     H81341   3.297   9.162   1.766  0.0856 -0.8574 -0.4272
  603MOL0     H81342   3.178   8.968   1.925 -0.8019 -0.0192 -0.2360
  603MOL0     H81343   3.144   9.101   2.033  3.7768 -0.0750  0.8381
  603MOL0     H81344   3.020   9.211   1.845 -2.4894 -0.6096  2.1660
  603MOL0     H81345   3.080   9.075   1.738  0.2519  0.5277 -0.0419
  603MOL0     H81346   2.948   8.927   1.864  1.4680 -0.3247  0.5994
  603MOL0     H81347   2.906   9.066   1.975 -1.2697 -2.2465  0.4651
  603MOL0     H81348   2.807   9.178   1.775 -0.4109 -0.6101  1.6927
  603MOL0     H81349   2.841   9.032   1.673 -4.3499  1.2211 -1.2835
  603MOL0     H81350   2.645   9.069   1.909 -0.3752  0.4153  0.1709
  603MOL0     H81351   2.607   8.999   1.753  0.5286 -0.6076 -0.3581
  603MOL0     H81352   2.758   8.790   1.821 -2.2296 -0.9001 -1.1116
  603MOL0     H81353   2.746   8.852   1.975 -2.3652 -1.7707  1.0439
  603MOL0     H81354   2.490   8.838   1.948  1.8048  0.7317  0.8209
  603MOL0     H81355   2.570   8.686   1.952 -2.2905 -0.8702 -1.3163
  603MOL0     H81356   2.582   8.555   1.714 -0.5882 -0.4289 -0.3100
  603MOL0     H81357   2.431   8.636   1.372 -0.2002 -1.7092 -1.2882
  603MOL0     H81358   2.518   8.502   1.445 -0.3163 -1.6328  4.4361
  603MOL0     H81359   2.225   8.541   1.417 -0.0427  0.4519  0.1300
  603MOL0     H81360   2.280   8.435   1.551 -0.4302 -0.4698 -0.1036
  603MOL0     H81361   2.402   8.296   1.369  0.9338 -0.3945  0.6281
  603MOL0     H81362   2.315   8.406   1.248  0.3216 -1.4465  0.0389
  603MOL0     H81363   2.184   8.211   1.258 -1.9348 -0.6251 -0.3458
  603MOL0     H81364   2.103   8.334   1.353 -0.4770 -2.4364  1.4424
  603MOL0     H81365   1.959   8.163   1.324  1.6984 -1.3409 -1.4730
  603MOL0     H81366   1.788   7.884   1.283 -1.5349 -0.4519  0.4683
  603MOL0     H81367   1.680   7.930   1.415 -0.0385  1.8627 -0.0110
  603MOL0     H81368   1.739   8.047   1.291 -3.1266 -1.5605 -1.3929
  603MOL0     H81369   1.585   7.655   1.621 -1.5908 -2.3392 -0.4695
  603MOL0     H81370   1.483   7.458   1.736 -0.0679 -3.7874  2.7711
  603MOL0     H81371   1.632   7.371   2.154  0.0067  4.3486 -0.1959
  603MOL0     H81372   1.491   7.463   2.146 -3.3735 -1.3883 -0.8641
  603MOL0     H81373   1.349   7.274   2.088  0.8604  1.1455  0.5310
  603MOL0     H81374   1.480   7.166   2.122  1.2929  0.3586 -1.3388
  603MOL0     H81375   1.434   7.356   2.354 -0.7157 -0.6323  1.4319
  603MOL0     H81376   1.462   7.184   2.340 -0.5945  0.0237  2.0335
  603MOL0     H81377   1.203   7.331   2.309  1.5998  0.0889 -3.0433
  603MOL0     H81378   1.218   7.168   2.264 -0.7201 -0.1725  0.2416
  603MOL0     H81379   1.277   7.243   2.548  2.2151 -1.2466 -0.4636
  603MOL0     H81380   1.288   7.087   2.484 -0.2405 -0.2619 -1.3205
  603MOL0     H81381   1.062   7.257   2.543  0.1318 -0.9807  2.3049
  603MOL0     H81382   1.035   7.166   2.394  2.0448 -0.2131 -0.2962
  603MOL0     H81383   1.112   7.025   2.662 -1.8148  0.5478  1.8291
  603MOL0     H81384   1.070   6.956   2.499 -1.1383  2.6273 -2.0355
  603MOL0     H81385   0.851   7.024   2.491  1.3845  1.0511 -0.6962
  603MOL0     H81386   0.877   7.141   2.625  0.3336  2.8237 -4.3597
  603MOL0     H81387   1.762   7.497   2.058  0.2915 -3.4244 -0.7296
  603MOL0     H81388   1.881   7.661   1.937  0.0604 -0.1302 -0.5949
  603MOL0     H81389   2.061   7.849   1.702 -0.2342 -0.7672 -0.4803
  603MOL0     H81390   2.213   8.064   1.641 -0.1818  1.4860 -0.1523
  603MOL0     H81391   3.499   9.317   2.006  0.7793 -1.4302  2.3736
  603MOL0     H81392   3.717   9.384   1.978  1.3924 -0.5453 -3.8891
  603MOL0     H81393   4.145   9.284   2.037 -0.1580  0.7529  0.2437
  603MOL0     H81394   4.386   9.354   2.045 -3.5233  0.8975  2.0729
  603MOL0     H81395   4.600   9.469   1.635 -0.8025 -1.9240  0.8200
  603MOL0     H81396   4.540   9.619   1.708  0.9887  0.0114  0.2281
  603MOL0     H81397   4.782   9.568   1.679 -0.7877 -0.5588 -0.7916
  603MOL0     H81398   4.774   9.460   1.810 -2.1018 -1.1631 -0.3394
  603MOL0     H81399   4.672   9.692   1.945 -2.6294 -1.2238 -2.1189
  603MOL0     H81400   4.723   9.772   1.803 -1.3163  0.8515  1.6562
  603MOL0     H81401   4.959   9.637   1.879  1.7275  2.1459 -0.5735
  603MOL0     H81402   4.873   9.639   2.039 -0.1661  2.9251  1.0805
  603MOL0     H81403   4.988  10.043   1.980  0.1477  0.2109  1.0979
  603MOL0     H81404   4.353   9.430   1.619 -1.4283 -0.1129 -1.1137
  603MOL0     H81405   4.140   9.382   1.617  1.2744 -0.7495 -0.5361
  604MOL0     O81406   3.454  10.790   3.318  0.3248  0.1055 -0.2330
  604MOL0     C81407   3.565  10.758   3.281  0.2323 -0.1926 -1.1220
  604MOL0     O81408   3.677  10.822   3.329  0.6246 -0.0124  0.3226
  604MOL0     C81409   3.658  10.924   3.418  0.2054 -0.0706  0.6164
  604MOL0     C81410   3.727  11.040   3.390  0.1157 -0.3016  0.5958
  604MOL0     C81411   3.718  11.150   3.477  0.2020 -0.6766 -0.1909
  604MOL0     C81412   3.628  11.153   3.593 -0.9728  1.1020  0.3575
  604MOL0     O81413   3.609  11.252   3.681  0.7997 -0.6317  0.0661
  604MOL0     C81414   3.688  11.366   3.695  0.6485  0.6827 -0.7264
  604MOL0     C81415   3.647  11.467   3.591  0.2638 -0.1339 -0.1613
  604MOL0     C81416   3.529  11.533   3.649 -0.1666  0.0804 -0.1513
  604MOL0     C81417   3.489  11.637   3.537 -0.3595  0.1629  0.3399
  604MOL0     C81418   3.375  11.733   3.579  0.9517 -0.3508  0.1749
  604MOL0     C81419   3.253  11.660   3.626  0.4120 -0.8623  0.0200
  604MOL0     C81420   3.181  11.566   3.523  0.3260 -0.1548  1.3109
  604MOL0     C81421   3.102  11.650   3.421  0.2661  0.1645 -0.0038
  604MOL0     N81422   3.042  11.564   3.318  0.5284 -0.6359 -0.1565
  604MOL0     C81423   2.986  11.437   3.338 -0.4696  0.7428  0.1735
  604MOL0     C81424   2.957  11.392   3.212 -0.6917  0.3438 -0.1353
  604MOL0     C81425   2.886  11.258   3.177  0.5303 -0.1913 -0.6153
  604MOL0     C81426   2.741  11.273   3.218 -0.7054 -1.0084 -0.1725
  604MOL0     C81427   2.641  11.333   3.109 -0.7306 -0.5904  1.0969
  604MOL0     C81428   2.497  11.338   3.151 -0.6467  0.1703  0.1475
  604MOL0     O81429   2.420  11.375   3.040  0.4264 -0.5221  0.0819
  604MOL0     C81430   2.289  11.399   3.066 -0.0843 -0.3988  0.8996
  604MOL0     C81431   2.235  11.518   3.115 -0.3401  0.0065  1.8134
  604MOL0     C81432   2.098  11.522   3.134 -0.5817 -0.2240 -0.6144
  604MOL0     C81433   2.038  11.660   3.165 -0.1958  0.4947  0.2027
  604MOL0     C81434   2.020  11.401   3.114 -0.2845  0.0310  0.1364
  604MOL0     C81435   1.877  11.404   3.142 -0.6727 -0.4061 -0.0285
  604MOL0     O81436   1.827  11.288   3.191  0.6783  0.9421  0.3007
  604MOL0     C81437   1.691  11.282   3.214  0.5286  0.7728  1.1982
  604MOL0     C81438   1.608  11.300   3.097  0.1735  0.3930  0.7564
  604MOL0     C81439   1.478  11.288   3.132 -0.5355  0.0176 -0.2361
  604MOL0     C81440   1.423  11.281   3.264 -0.4273  0.0063 -0.0501
  604MOL0     O81441   1.283  11.291   3.268 -0.1951 -0.0737  0.9859
  604MOL0     C81442   1.213  11.313   3.392 -0.4388 -0.6599  0.0838
  604MOL0     C81443   1.209  11.467   3.433  0.0551 -0.7476 -0.0715
  604MOL0     C81444   1.109  11.489   3.549 -0.4008  0.2231 -0.0793
  604MOL0     C81445   1.103  11.644   3.554  0.4990 -0.5165 -0.5954
  604MOL0     C81446   0.989  11.694   3.639 -0.1496  0.4698 -0.2858
  604MOL0     C81447   1.019  11.826   3.697 -0.6864 -0.6999 -0.2457
  604MOL0     C81448   0.897  11.890   3.765 -0.7746 -0.3803  0.0269
  604MOL0     C81449   0.941  11.974   3.886  1.2205  0.4028  0.3442
  604MOL0    Cl81450   0.803  12.066   3.948  0.2419  0.1664 -0.1460
  604MOL0     C81451   1.506  11.265   3.367  0.1258 -0.4332  0.1877
  604MOL0     C81452   1.644  11.254   3.343  0.1006 -0.3097  0.1881
  604MOL0     O81453   1.807  11.503   3.117 -0.2176 -0.0097  0.5888
  604MOL0     C81454   2.084  11.277   3.081 -0.9937 -0.5506  0.0379
  604MOL0     C81455   2.220  11.287   3.056 -0.1120  0.5527  0.4687
  604MOL0     N81456   3.017  11.489   3.123  0.5193 -0.9277 -0.1424
  604MOL0     N81457   3.062  11.597   3.190  0.2766  0.0988  0.6329
  604MOL0     C81458   3.566  11.034   3.628  0.7496  0.5963  0.0277
  604MOL0     C81459   3.573  10.922   3.536  0.6432 -0.6000  0.0390
  604MOL0     C81460   3.601  10.653   3.190 -0.6378  0.7792 -0.2262
  604MOL0     C81461   3.717  10.636   3.117  0.0204  0.8160  0.0427
  604MOL0     C81462   3.743  10.542   3.014  0.0087 -0.7367  0.3046
  604MOL0     C81463   3.642  10.450   2.988  0.7735 -0.5741  0.2151
  604MOL0     O81464   3.664  10.368   2.874 -0.1300 -0.7356  0.0878
  604MOL0     C81465   3.617  10.230   2.870 -0.5044  1.2878  1.0714
  604MOL0     C81466   3.646  10.162   2.736  0.0626 -0.0684  1.1284
  604MOL0     C81467   3.789  10.170   2.672  0.0208 -0.0386 -0.3903
  604MOL0     C81468   3.838  10.302   2.604  0.8190  0.4901 -0.1941
  604MOL0     C81469   3.760  10.325   2.485 -0.3885  0.3839 -0.7155
  604MOL0     C81470   3.699  10.340   2.387  0.1187  0.1331  0.1037
  604MOL0     C81471   3.524  10.444   3.066 -0.2605 -0.4745 -0.2752
  604MOL0     C81472   3.505  10.557   3.158  0.5476 -0.0034  0.4493
  604MOL0     H81473   3.796  11.043   3.306 -0.4139 -1.2369  0.1118
  604MOL0     H81474   3.772  11.236   3.441 -0.3484 -1.1839 -2.3570
  604MOL0     H81475   3.673  11.408   3.795  1.0008 -1.5664  0.3333
  604MOL0     H81476   3.791  11.330   3.690  0.1520 -0.6758 -1.9197
  604MOL0     H81477   3.730  11.538   3.588 -0.4185  0.8075  1.7690
  604MOL0     H81478   3.627  11.425   3.492 -1.7409 -2.1055  0.9720
  604MOL0     H81479   3.446  11.466   3.676 -1.8063  1.6287 -1.1767
  604MOL0     H81480   3.565  11.592   3.734  1.6755 -1.0519 -0.0924
  604MOL0     H81481   3.580  11.692   3.511 -0.2248  0.4242  1.3081
  604MOL0     H81482   3.450  11.587   3.449 -0.5245  1.9954 -0.6804
  604MOL0     H81483   3.410  11.806   3.652 -0.0813 -0.9471  1.2816
  604MOL0     H81484   3.345  11.792   3.492  1.3987  2.7564  1.9747
  604MOL0     H81485   3.286  11.605   3.715 -1.7600  0.0443  1.4710
  604MOL0     H81486   3.178  11.735   3.653 -0.4374 -0.3533 -3.2879
  604MOL0     H81487   3.259  11.503   3.479  2.0807  0.1436  3.7907
  604MOL0     H81488   3.099  11.507   3.564 -2.2743 -0.3842 -3.4911
  604MOL0     H81489   3.166  11.724   3.373  2.6219 -1.9477 -0.3235
  604MOL0     H81490   3.018  11.695   3.474 -1.3867 -1.2969 -1.2618
  604MOL0     H81491   2.958  11.383   3.428  1.4332  1.7494  1.4597
  604MOL0     H81492   2.896  11.236   3.070 -1.4674 -0.6214 -0.7553
  604MOL0     H81493   2.928  11.174   3.233  3.9616 -0.3582 -3.0870
  604MOL0     H81494   2.744  11.339   3.306  1.3160  0.0760 -0.9876
  604MOL0     H81495   2.705  11.177   3.256 -2.9125 -0.8601 -1.7032
  604MOL0     H81496   2.646  11.275   3.016 -3.5219 -0.3798  0.7369
  604MOL0     H81497   2.674  11.435   3.085  0.5539  0.2232  5.5007
  604MOL0     H81498   2.481  11.399   3.240 -0.7620  0.0534  0.2072
  604MOL0     H81499   2.465  11.237   3.180 -0.6579 -0.4706 -1.9179
  604MOL0     H81500   2.292  11.608   3.130  2.2699 -1.6952  2.6921
  604MOL0     H81501   1.991  11.700   3.075  0.8525  1.7993  0.2005
  604MOL0     H81502   1.970  11.647   3.249 -0.5867 -0.4502 -0.2501
  604MOL0     H81503   2.114  11.735   3.193 -0.4824  0.6805  0.4869
  604MOL0     H81504   1.646  11.321   2.998 -1.5815  2.7364  0.5170
  604MOL0     H81505   1.404  11.289   3.053 -0.9665  2.4854  0.1354
  604MOL0     H81506   1.108  11.298   3.366 -0.0517  1.2544 -3.1031
  604MOL0     H81507   1.225  11.249   3.480 -1.1711  1.1964  1.6169
  604MOL0     H81508   1.308  11.505   3.460 -0.3202  0.0752  0.1792
  604MOL0     H81509   1.169  11.531   3.353 -1.1295  1.9147  2.4570
  604MOL0     H81510   1.146  11.430   3.633 -0.3436 -1.2290 -1.0971
  604MOL0     H81511   1.013  11.447   3.519 -1.0410  4.4707 -5.8059
  604MOL0     H81512   1.202  11.665   3.595 -0.4783  2.1984  0.6259
  604MOL0     H81513   1.090  11.696   3.459 -0.4269  0.4207  0.0197
  604MOL0     H81514   0.963  11.628   3.723  0.6990  0.9110  0.3436
  604MOL0     H81515   0.898  11.713   3.582 -0.8390  1.1795  0.9960
  604MOL0     H81516   1.095  11.819   3.775  0.4858 -0.8881 -1.3649
  604MOL0     H81517   1.068  11.893   3.625 -2.5015 -0.0800 -0.9470
  604MOL0     H81518   0.826  11.814   3.799 -0.3433 -1.9345 -2.3531
  604MOL0     H81519   0.859  11.954   3.685 -0.0105 -4.7350 -4.3129
  604MOL0     H81520   1.019  12.049   3.867 -0.3263  1.3867 -3.0553
  604MOL0     H81521   0.976  11.915   3.970  1.7020  1.7185  1.0987
  604MOL0     H81522   1.462  11.254   3.465 -0.7900 -1.1524 -0.2770
  604MOL0     H81523   1.711  11.221   3.423  0.4406 -1.6752 -0.6297
  604MOL0     H81524   2.030  11.183   3.071  0.2007 -1.1238 -1.3908
  604MOL0     H81525   2.272  11.202   3.014 -0.3903  0.7027 -0.1875
  604MOL0     H81526   3.501  11.023   3.714  0.7787 -0.7095 -0.0970
  604MOL0     H81527   3.517  10.830   3.550  0.7598 -0.8472 -0.9692
  604MOL0     H81528   3.787  10.719   3.112  1.8794 -0.4944  1.9614
  604MOL0     H81529   3.833  10.547   2.953 -0.3881 -0.8510 -0.3001
  604MOL0     H81530   3.666  10.167   2.945  0.6208 -1.3843 -1.6825
  604MOL0     H81531   3.509  10.231   2.888 -1.3629 -0.1987 -2.9440
  604MOL0     H81532   3.572  10.207   2.668  0.0302 -1.5791  0.0980
  604MOL0     H81533   3.625  10.055   2.746  3.6389 -1.0794 -0.4550
  604MOL0     H81534   3.798  10.088   2.600 -1.6311 -0.1673 -0.4852
  604MOL0     H81535   3.857  10.135   2.750  0.6549 -0.1869 -0.9932
  604MOL0     H81536   3.940  10.278   2.572  0.5323 -2.0853  0.6033
  604MOL0     H81537   3.823  10.384   2.675  0.8046 -0.1350  0.5440
  604MOL0     H81538   3.652  10.356   2.292 -0.9479  0.9738  0.7645
  604MOL0     H81539   3.448  10.369   3.050  1.6879 -2.7324  0.5386
  604MOL0     H81540   3.421  10.570   3.226  0.5343  1.0151  0.2627
  605MOL0     O81541   9.637   9.689   9.228 -0.2914  0.5753 -0.3010
  605MOL0     C81542   9.699   9.744   9.138 -0.3506  0.1995  0.2719
  605MOL0     O81543   9.647   9.844   9.072 -0.4626  0.3670  0.0373
  605MOL0     C81544   9.525   9.892   9.101  0.0473 -0.5268 -0.1124
  605MOL0     C81545   9.427   9.840   9.018  0.7921  0.1090 -0.1787
  605MOL0     C81546   9.295   9.890   9.019  0.4514 -0.2830  0.5801
  605MOL0     C81547   9.255   9.993   9.103 -0.7680 -0.1402  0.7200
  605MOL0     O81548   9.130  10.028   9.132 -0.4557  0.5499 -0.7280
  605MOL0     C81549   9.022   9.928   9.142 -0.1113 -0.2019 -0.0237
  605MOL0     C81550   8.893   9.989   9.103 -0.4214  0.0736  0.4019
  605MOL0     C81551   8.762   9.900   9.090  0.3125 -0.8152  0.0645
  605MOL0     C81552   8.627   9.978   9.096  0.0609 -0.5160  0.1618
  605MOL0     C81553   8.607  10.040   8.955 -0.0206 -0.0133 -1.1850
  605MOL0     C81554   8.493  10.142   8.949 -0.6190  0.8762 -0.0617
  605MOL0     C81555   8.475  10.184   8.807 -0.1247 -0.9171  0.0884
  605MOL0     C81556   8.599  10.252   8.751 -0.2575 -0.6312  0.1561
  605MOL0     N81557   8.636  10.362   8.836  0.1734 -0.5498  0.2197
  605MOL0     C81558   8.743  10.380   8.923 -0.6919  0.1627 -0.2351
  605MOL0     C81559   8.732  10.508   8.958 -0.3125  0.5062 -0.6397
  605MOL0     C81560   8.821  10.594   9.036  0.3890  0.5598  1.0663
  605MOL0     C81561   8.841  10.552   9.180  0.1781  0.5225  0.0160
  605MOL0     C81562   8.911  10.660   9.265  1.2245 -0.8570  0.0368
  605MOL0     C81563   8.814  10.782   9.296  0.7131 -0.5792  0.5286
  605MOL0     O81564   8.869  10.858   9.403 -0.1630 -0.3915  0.3001
  605MOL0     C81565   8.783  10.959   9.435 -0.2241 -0.2539  0.2499
  605MOL0     C81566   8.702  10.953   9.550  0.1588 -0.3051 -0.4116
  605MOL0     C81567   8.611  11.057   9.598  0.3141 -0.0120  0.4862
  605MOL0     C81568   8.523  11.030   9.710 -0.6823  0.0465  0.2282
  605MOL0     C81569   8.626  11.185   9.532 -0.6120  0.4026  0.0513
  605MOL0     C81570   8.558  11.318   9.559  0.1030  0.8544 -0.1661
  605MOL0     O81571   8.495  11.328   9.681 -0.6451  0.1876 -0.0054
  605MOL0     C81572   8.427  11.444   9.711 -0.3968  0.4567 -0.6708
  605MOL0     C81573   8.288  11.430   9.721  0.2389  0.5493 -0.5864
  605MOL0     C81574   8.200  11.537   9.743  0.0442  0.5373  0.6053
  605MOL0     C81575   8.256  11.668   9.763 -0.4563  0.1799  0.0313
  605MOL0     O81576   8.181  11.777   9.775 -0.0962 -0.2448 -0.3783
  605MOL0     C81577   8.046  11.766   9.818  0.7340  0.5684 -0.2573
  605MOL0     C81578   7.997  11.914   9.827 -0.2238  0.1966 -0.1736
  605MOL0     C81579   8.013  11.998   9.689  0.4799  1.1411 -0.3099
  605MOL0     C81580   7.950  11.915   9.580 -0.1568  0.0784  0.4491
  605MOL0     C81581   7.900  11.982   9.456 -0.3882 -0.3574 -0.0757
  605MOL0     C81582   7.747  12.012   9.469 -0.0154 -0.4281  0.3237
  605MOL0     C81583   7.713  12.099   9.587  0.3676 -0.4452 -0.1927
  605MOL0     C81584   7.555  12.132   9.594 -0.7210  0.4424  0.0523
  605MOL0    Cl81585   7.542  12.258   9.720 -0.0645  0.8879  0.2927
  605MOL0     C81586   8.389  11.681   9.771 -0.3281 -0.5311 -0.2156
  605MOL0     C81587   8.480  11.567   9.744  0.4171  0.5357 -0.0604
  605MOL0     O81588   8.555  11.403   9.471  0.4059 -0.0495 -0.1671
  605MOL0     C81589   8.707  11.191   9.420  0.4408  0.3239  1.1091
  605MOL0     C81590   8.782  11.083   9.376  0.0201  1.1116  0.7759
  605MOL0     N81591   8.614  10.558   8.908  0.4161 -0.4895  0.0998
  605MOL0     N81592   8.565  10.475   8.831  1.0507  0.1967  0.0258
  605MOL0     C81593   9.366  10.054   9.179  0.4385 -0.5326  0.4373
  605MOL0     C81594   9.497  10.004   9.185  0.3488 -0.4234 -0.0877
  605MOL0     C81595   9.838   9.713   9.106 -0.7637  0.1961  0.9328
  605MOL0     C81596   9.904   9.599   9.161  0.6441 -1.1555 -0.3045
  605MOL0     C81597  10.043   9.570   9.148 -0.2267  0.6257 -0.8653
  605MOL0     C81598  10.120   9.650   9.071 -0.3212 -0.3223  1.5377
  605MOL0     O81599  10.251   9.609   9.048 -0.3410 -0.9209  0.1200
  605MOL0     C81600  10.332   9.689   8.958  0.4109  0.0617 -0.1523
  605MOL0     C81601  10.470   9.634   8.998 -0.7178  0.3281 -0.1550
  605MOL0     C81602  10.572   9.667   8.890 -0.8293 -0.4742  0.1484
  605MOL0     C81603  10.711   9.632   8.944  0.4907 -0.6661  0.4120
  605MOL0     C81604  10.824   9.683   8.860 -0.0704 -0.3792  0.6610
  605MOL0     C81605  10.917   9.731   8.796  0.3984 -0.0704 -0.4677
  605MOL0     C81606  10.060   9.762   9.003 -0.2367 -0.0083 -0.8736
  605MOL0     C81607   9.925   9.793   9.022 -0.4933  0.3923  0.1899
  605MOL0     H81608   9.453   9.756   8.955  1.9094  0.0032  0.4015
  605MOL0     H81609   9.208   9.856   8.963 -0.5201  4.0758 -0.9542
  605MOL0     H81610   9.042   9.846   9.073  2.2163  0.9059 -0.7766
  605MOL0     H81611   9.014   9.883   9.241 -0.5032  0.4363  0.2445
  605MOL0     H81612   8.864  10.065   9.175  1.8028  1.3088  0.0835
  605MOL0     H81613   8.914  10.037   9.007  0.7904  0.7638  0.9927
  605MOL0     H81614   8.765   9.838   9.000  4.3734  1.9480 -2.0033
  605MOL0     H81615   8.768   9.827   9.171  1.3987 -0.2255  0.5296
  605MOL0     H81616   8.543   9.918   9.132 -0.7835 -1.4460 -3.0220
  605MOL0     H81617   8.643  10.059   9.168 -1.9072  0.3304 -0.2734
  605MOL0     H81618   8.701  10.086   8.925  0.4684 -0.9102 -1.0484
  605MOL0     H81619   8.597   9.958   8.883 -1.8499  0.6164 -1.7210
  605MOL0     H81620   8.400  10.099   8.987 -0.2284 -1.0567 -1.1513
  605MOL0     H81621   8.510  10.227   9.015 -1.8446  1.4015 -0.3887
  605MOL0     H81622   8.458  10.092   8.751 -0.2042 -1.1362  0.4678
  605MOL0     H81623   8.382  10.241   8.797 -1.2871 -2.9235 -1.2418
  605MOL0     H81624   8.573  10.285   8.650  0.6292  0.9269  0.4054
  605MOL0     H81625   8.687  10.188   8.742  0.4684  0.3940 -0.1599
  605MOL0     H81626   8.816  10.303   8.942 -0.8479  0.1972  0.5364
  605MOL0     H81627   8.919  10.609   8.988  0.6089  3.3768  2.1985
  605MOL0     H81628   8.778  10.694   9.026  1.8088  1.0292 -1.5322
  605MOL0     H81629   8.900  10.460   9.186 -2.1429 -1.0535 -0.1149
  605MOL0     H81630   8.746  10.531   9.230  1.0324  0.9061  1.8838
  605MOL0     H81631   8.991  10.707   9.207 -0.1687 -1.0629 -2.1552
  605MOL0     H81632   8.960  10.619   9.354  3.1969 -4.3660 -2.4015
  605MOL0     H81633   8.714  10.745   9.322 -1.6780  1.7219 -4.1266
  605MOL0     H81634   8.805  10.851   9.211 -0.1238  0.6764  1.6030
  605MOL0     H81635   8.700  10.853   9.593  0.4769  0.0457  0.4436
  605MOL0     H81636   8.422  11.032   9.666  0.6152  1.8108 -3.0030
  605MOL0     H81637   8.544  10.936   9.764  1.3002 -0.2992 -1.0645
  605MOL0     H81638   8.529  11.116   9.777 -2.2019 -1.4598  2.4520
  605MOL0     H81639   8.252  11.338   9.676  2.1492  0.9198 -3.0656
  605MOL0     H81640   8.093  11.525   9.727  0.3254  0.3477 -1.4481
  605MOL0     H81641   7.993  11.698   9.751  2.5612 -1.9242  0.6877
  605MOL0     H81642   8.046  11.720   9.917  1.9975 -0.0550 -0.5328
  605MOL0     H81643   7.888  11.910   9.837 -0.0062 -0.8599  2.6185
  605MOL0     H81644   8.044  11.969   9.909 -5.0741  0.5140  2.7794
  605MOL0     H81645   8.114  12.026   9.660  0.8879  1.9332  1.7047
  605MOL0     H81646   7.952  12.088   9.700 -0.9192  0.0760  1.0895
  605MOL0     H81647   8.020  11.835   9.555 -2.5407 -2.6631  1.8562
  605MOL0     H81648   7.873  11.854   9.628  4.0525 -1.8268  5.8490
  605MOL0     H81649   7.912  11.916   9.369  1.6684 -0.4805  0.2430
  605MOL0     H81650   7.961  12.070   9.433 -0.8635 -0.1518 -0.5683
  605MOL0     H81651   7.712  12.058   9.376 -2.1666  0.7537  1.6483
  605MOL0     H81652   7.689  11.924   9.498 -2.1482  0.4428 -1.0399
  605MOL0     H81653   7.769  12.193   9.584  1.8672 -1.3181 -0.3910
  605MOL0     H81654   7.742  12.042   9.676 -1.0752 -0.7887  0.0942
  605MOL0     H81655   7.516  12.031   9.607 -0.6236  0.3467 -0.3811
  605MOL0     H81656   7.502  12.162   9.504 -1.4398 -4.3786 -1.3992
  605MOL0     H81657   8.427  11.783   9.781 -3.2017  0.7933 -1.6644
  605MOL0     H81658   8.586  11.588   9.742  0.4883  0.1279 -1.0599
  605MOL0     H81659   8.719  11.285   9.366  2.6523 -0.5954 -0.1308
  605MOL0     H81660   8.860  11.096   9.301  0.1678 -2.5598  0.1269
  605MOL0     H81661   9.340  10.138   9.242 -3.1503 -0.3452 -1.0267
  605MOL0     H81662   9.587  10.051   9.224  0.4936  1.3398 -2.3514
  605MOL0     H81663   9.850   9.529   9.224  1.4934  0.3258  2.2060
  605MOL0     H81664  10.085   9.484   9.199 -0.6635  0.7640 -0.2669
  605MOL0     H81665  10.309   9.674   8.852 -0.6297 -1.0297  0.2084
  605MOL0     H81666  10.321   9.793   8.991 -1.9075 -0.0024 -0.5481
  605MOL0     H81667  10.474   9.525   9.011  1.6992  0.1486 -1.8138
  605MOL0     H81668  10.504   9.685   9.088 -3.6272  1.3043  0.4840
  605MOL0     H81669  10.574   9.775   8.873  1.4242  0.2642  3.9376
  605MOL0     H81670  10.540   9.608   8.803 -0.7567  0.9226 -0.8702
  605MOL0     H81671  10.729   9.526   8.966 -0.4922 -0.6830  1.2064
  605MOL0     H81672  10.713   9.677   9.044 -1.3379 -2.2924  1.2421
  605MOL0     H81673  10.992   9.777   8.734  0.6235 -0.0732 -0.2018
  605MOL0     H81674  10.128   9.821   8.942 -0.4733 -0.3630 -1.4843
  605MOL0     H81675   9.875   9.875   8.971 -0.7395  0.6322  0.8138
  606MOL0     O81676   0.690   1.295   8.473 -0.4512  0.5031  0.4195
  606MOL0     C81677   0.650   1.340   8.577  0.1554 -0.4395 -0.0927
  606MOL0     O81678   0.640   1.469   8.612 -0.2584 -0.2663  0.3571
  606MOL0     C81679   0.634   1.558   8.509 -0.1500 -0.7309  0.3790
  606MOL0     C81680   0.699   1.683   8.523  0.4634  0.4742  0.3209
  606MOL0     C81681   0.687   1.781   8.424 -0.2717  0.2953  0.9895
  606MOL0     C81682   0.608   1.756   8.313 -0.0791  0.8580 -0.0003
  606MOL0     O81683   0.604   1.847   8.211 -0.9293  0.1546 -0.0580
  606MOL0     C81684   0.541   1.821   8.086  0.1403 -0.0443 -0.0158
  606MOL0     C81685   0.569   1.944   8.000  0.1804 -0.2840 -0.2202
  606MOL0     C81686   0.723   1.985   7.995 -0.1663 -0.1030  0.5697
  606MOL0     C81687   0.749   2.085   7.896  0.4104 -0.6542  0.3541
  606MOL0     C81688   0.906   2.100   7.873  0.1835 -0.2435 -0.5876
  606MOL0     C81689   0.927   2.212   7.762  0.3845 -0.0391 -0.5636
  606MOL0     C81690   0.929   2.133   7.629  0.2005 -0.5546  0.1482
  606MOL0     C81691   1.002   2.209   7.528  0.6216 -0.0570 -0.3118
  606MOL0     N81692   1.001   2.160   7.391  0.3642 -0.6460  0.2414
  606MOL0     C81693   0.946   2.043   7.357 -0.4677  0.7733  0.0203
  606MOL0     C81694   1.028   2.005   7.252  0.1559 -0.1166 -0.6579
  606MOL0     C81695   1.011   1.875   7.166  0.2300 -0.6373 -0.4462
  606MOL0     C81696   0.924   1.766   7.242 -0.1559  0.2273 -0.3462
  606MOL0     C81697   0.926   1.641   7.156 -0.0734 -0.9080  0.9475
  606MOL0     C81698   1.049   1.555   7.182  0.6652  0.2039 -0.8000
  606MOL0     O81699   1.052   1.456   7.080 -0.8518 -0.7124  0.0869
  606MOL0     C81700   0.990   1.335   7.091  1.1462 -0.3044  0.7114
  606MOL0     C81701   1.014   1.254   6.979 -0.1979  0.6704 -0.5275
  606MOL0     C81702   0.965   1.122   6.986 -0.4880  0.2577 -0.5704
  606MOL0     C81703   1.018   1.039   6.877 -0.2240  0.8480  0.4045
  606MOL0     C81704   0.884   1.075   7.097 -0.0976  0.0743  0.1144
  606MOL0     C81705   0.824   0.940   7.099  0.5621  0.5187 -0.3156
  606MOL0     O81706   0.881   0.835   7.027  0.6233  0.4700 -0.9724
  606MOL0     C81707   0.823   0.707   7.024 -0.7937  0.4152  1.5462
  606MOL0     C81708   0.782   0.639   7.141 -0.4299  0.3675 -0.4615
  606MOL0     C81709   0.732   0.504   7.146 -0.6534 -0.2443  0.5050
  606MOL0     C81710   0.713   0.431   7.028 -0.7971  0.0635 -0.3252
  606MOL0     O81711   0.666   0.298   7.041  0.4926  0.2131  0.9905
  606MOL0     C81712   0.724   0.199   6.952  0.0241 -0.3194  0.8928
  606MOL0     C81713   0.695   0.050   6.986  0.1706  0.3232  0.4589
  606MOL0     C81714   0.562  -0.009   6.931  0.3209 -0.1903  1.2780
  606MOL0     C81715   0.440   0.077   6.967 -0.5162 -0.8170 -1.3359
  606MOL0     C81716   0.320   0.010   6.905 -0.2260  0.2974 -0.0444
  606MOL0     C81717   0.182   0.082   6.927  0.4763  0.7207 -0.8293
  606MOL0     C81718   0.147   0.106   7.081 -0.2294  1.0698  0.8122
  606MOL0     C81719   0.006   0.133   7.103 -0.6464  0.4187 -0.0568
  606MOL0    Cl81720  -0.042   0.299   7.059  0.0909 -0.4908  0.4995
  606MOL0     C81721   0.757   0.499   6.909 -0.6206  0.1101 -0.8376
  606MOL0     C81722   0.807   0.633   6.905  0.0886 -0.5965 -0.3384
  606MOL0     O81723   0.709   0.931   7.150 -0.2098  0.2907 -0.2877
  606MOL0     C81724   0.860   1.169   7.200  0.9940 -0.1532  0.0434
  606MOL0     C81725   0.912   1.295   7.196  1.1544  0.3467  0.1811
  606MOL0     N81726   1.122   2.095   7.226 -0.3143 -1.3833 -0.5144
  606MOL0     N81727   1.105   2.191   7.319  0.3614  0.3071  0.4192
  606MOL0     C81728   0.539   1.637   8.303  0.5007  0.1876 -0.3856
  606MOL0     C81729   0.551   1.539   8.397 -0.2385 -0.0217  0.0572
  606MOL0     C81730   0.635   1.243   8.693  0.4870  0.4837  0.1098
  606MOL0     C81731   0.621   1.107   8.673 -0.8899  0.2224  0.6426
  606MOL0     C81732   0.593   1.012   8.773  0.4126 -0.0992 -1.1253
  606MOL0     C81733   0.580   1.056   8.907  0.8507  0.0945 -0.0008
  606MOL0     O81734   0.554   0.980   9.016 -0.0335 -1.1840  0.4969
  606MOL0     C81735   0.602   0.843   9.017  0.7356  0.0907 -0.2522
  606MOL0     C81736   0.589   0.796   9.172  0.0454 -0.5663  0.7445
  606MOL0     C81737   0.639   0.655   9.175  0.1837  0.0228  0.3226
  606MOL0     C81738   0.624   0.603   9.313 -0.5479  0.8980 -0.1973
  606MOL0     C81739   0.636   0.454   9.315 -1.0372 -0.1430  0.7318
  606MOL0     C81740   0.634   0.334   9.336  0.5150  0.9539 -0.0705
  606MOL0     C81741   0.597   1.192   8.920 -0.4858 -0.0796 -0.3093
  606MOL0     C81742   0.621   1.286   8.824  0.4118 -0.1481 -0.3258
  606MOL0     H81743   0.751   1.713   8.613  1.4435 -1.4996  0.4715
  606MOL0     H81744   0.723   1.882   8.440 -0.7699  0.0933  3.9035
  606MOL0     H81745   0.572   1.728   8.038 -0.8263 -1.4871  2.0460
  606MOL0     H81746   0.433   1.810   8.096 -0.1444  0.6593 -1.8611
  606MOL0     H81747   0.547   1.929   7.894 -0.3853  2.0541 -0.4738
  606MOL0     H81748   0.507   2.024   8.040  1.3867  0.4517  0.2183
  606MOL0     H81749   0.759   1.997   8.097  0.3840 -2.8975  0.7903
  606MOL0     H81750   0.771   1.896   7.954  1.4391  0.7810  0.4627
  606MOL0     H81751   0.710   2.047   7.801  0.4929 -0.5999  0.2995
  606MOL0     H81752   0.692   2.177   7.913  0.3549 -0.6539  0.1689
  606MOL0     H81753   0.948   2.129   7.970  0.8308 -2.1710 -0.2429
  606MOL0     H81754   0.952   2.007   7.837 -1.6910 -2.2252  1.7164
  606MOL0     H81755   0.854   2.293   7.774 -0.4078 -0.6975 -0.9043
  606MOL0     H81756   1.026   2.255   7.781 -0.2874  1.0886  0.5532
  606MOL0     H81757   0.972   2.033   7.622  1.7654  0.1796 -1.4661
  606MOL0     H81758   0.824   2.125   7.601 -0.6399  3.0140  1.7119
  606MOL0     H81759   1.107   2.223   7.558  1.6277 -3.3278 -1.8608
  606MOL0     H81760   0.952   2.305   7.517 -0.1427 -0.4184 -0.0454
  606MOL0     H81761   0.865   1.980   7.392 -0.6348  0.8981 -0.1380
  606MOL0     H81762   0.959   1.898   7.072  0.1812  3.0766  0.3434
  606MOL0     H81763   1.110   1.833   7.145  0.0181 -1.3445 -0.0492
  606MOL0     H81764   0.828   1.808   7.272 -0.8366 -0.8736 -0.9174
  606MOL0     H81765   0.980   1.738   7.332  0.2325 -0.2376 -0.7251
  606MOL0     H81766   0.913   1.664   7.050  3.7068 -2.2505  0.0412
  606MOL0     H81767   0.839   1.577   7.173 -0.9800 -0.3121 -1.2017
  606MOL0     H81768   1.056   1.509   7.281  2.5587 -0.4346 -1.1981
  606MOL0     H81769   1.140   1.617   7.181 -0.1880  1.6333  1.6112
  606MOL0     H81770   1.078   1.283   6.897  0.1009 -0.6076 -0.7790
  606MOL0     H81771   0.939   0.978   6.833  0.2168 -2.0319  3.2878
  606MOL0     H81772   1.077   1.090   6.799 -1.4310  0.0837 -1.0687
  606MOL0     H81773   1.068   0.955   6.925 -1.8358 -1.4377 -1.6874
  606MOL0     H81774   0.798   0.700   7.229 -2.9019  1.2599 -0.5469
  606MOL0     H81775   0.702   0.461   7.241 -0.7000  1.8726  1.4942
  606MOL0     H81776   0.693   0.226   6.851  2.0940 -0.1440  0.2418
  606MOL0     H81777   0.832   0.216   6.958 -0.0210  1.1204 -1.1592
  606MOL0     H81778   0.776  -0.012   6.946 -2.6950 -3.4030 -0.1452
  606MOL0     H81779   0.700   0.031   7.093 -3.3613  2.5537  1.1959
  606MOL0     H81780   0.548  -0.113   6.963  1.7372 -1.4444 -1.7329
  606MOL0     H81781   0.568  -0.009   6.821  1.8893  2.6615  1.2896
  606MOL0     H81782   0.441   0.082   7.076 -0.8229 -0.0384 -1.3627
  606MOL0     H81783   0.457   0.176   6.925  1.2654 -2.2514 -4.2987
  606MOL0     H81784   0.300  -0.089   6.946 -0.0034 -0.1923 -1.0863
  606MOL0     H81785   0.333   0.003   6.797  3.1247 -2.7782  0.3625
  606MOL0     H81786   0.185   0.184   6.885 -1.8687  1.6595  1.0617
  606MOL0     H81787   0.101   0.023   6.883 -1.3140  0.7285  2.2090
  606MOL0     H81788   0.210   0.184   7.123  1.3021  0.0722  0.4486
  606MOL0     H81789   0.174   0.018   7.141  1.1647 -1.9208 -3.6568
  606MOL0     H81790  -0.027   0.131   7.207 -3.3455  1.0393 -0.7925
  606MOL0     H81791  -0.053   0.052   7.059 -2.4690  1.1096  0.9902
  606MOL0     H81792   0.745   0.440   6.819  0.5236  1.2511 -1.7656
  606MOL0     H81793   0.834   0.687   6.815 -0.1026 -2.3490 -1.4883
  606MOL0     H81794   0.783   1.152   7.275  1.0644 -1.0145 -0.0742
  606MOL0     H81795   0.876   1.366   7.269  0.3183 -1.4256  1.5767
  606MOL0     H81796   0.470   1.620   8.221  1.9225  0.3443 -1.6660
  606MOL0     H81797   0.487   1.452   8.389  0.0716 -0.1026 -2.6181
  606MOL0     H81798   0.641   1.076   8.571  3.9891  0.4508  1.3062
  606MOL0     H81799   0.582   0.908   8.743 -1.6384  0.2639 -1.8140
  606MOL0     H81800   0.555   0.770   8.951 -0.0117 -1.1521  1.5487
  606MOL0     H81801   0.710   0.843   9.000  1.3605 -0.7634  2.9789
  606MOL0     H81802   0.486   0.790   9.208  0.5830 -1.5365  2.1859
  606MOL0     H81803   0.651   0.862   9.233  1.0324 -1.1482  0.3936
  606MOL0     H81804   0.745   0.650   9.149  0.1151 -0.9419  0.1975
  606MOL0     H81805   0.574   0.597   9.110 -2.0475  0.0750  2.3802
  606MOL0     H81806   0.531   0.629   9.365 -0.2630  3.4999 -0.8580
  606MOL0     H81807   0.701   0.644   9.377  0.8158 -0.2028 -1.0814
  606MOL0     H81808   0.632   0.227   9.347 -1.2089  0.8004 -1.4294
  606MOL0     H81809   0.580   1.227   9.022 -1.8809 -0.0783 -0.5216
  606MOL0     H81810   0.622   1.393   8.845 -0.2792 -0.2179  0.0789
  607MOL0     O81811   2.474   6.190   0.316 -0.1162  0.7624 -0.0867
  607MOL0     C81812   2.402   6.110   0.367  0.5569 -0.0785 -0.3445
  607MOL0     O81813   2.266   6.110   0.360 -0.0078 -0.0379 -0.4560
  607MOL0     C81814   2.200   6.188   0.268 -0.1452  0.7023  0.3029
  607MOL0     C81815   2.193   6.326   0.279 -0.4025  0.1437 -0.1464
  607MOL0     C81816   2.127   6.404   0.185  0.3323 -0.0864 -0.2209
  607MOL0     C81817   2.065   6.344   0.066  0.2912  0.6977 -0.4197
  607MOL0     O81818   2.012   6.427  -0.033  0.3749 -0.0768  0.6314
  607MOL0     C81819   1.927   6.366  -0.129  0.3317 -0.2964 -0.3460
  607MOL0     C81820   1.878   6.465  -0.228 -0.4298 -0.7912  1.1464
  607MOL0     C81821   1.996   6.531  -0.292 -1.7213  0.2863 -0.5560
  607MOL0     C81822   1.972   6.600  -0.432  1.3811  0.1446 -0.6481
  607MOL0     C81823   2.080   6.674  -0.494  0.0333  0.1737 -0.1277
  607MOL0     C81824   2.177   6.583  -0.565  0.4566  0.3969  0.2651
  607MOL0     C81825   2.296   6.657  -0.620 -0.3246 -0.8461  0.3501
  607MOL0     C81826   2.401   6.720  -0.524 -0.1750  0.1674 -0.6718
  607MOL0     N81827   2.450   6.627  -0.411 -0.1674  0.0598  0.5759
  607MOL0     C81828   2.377   6.593  -0.301 -0.2168 -0.6305  0.4309
  607MOL0     C81829   2.456   6.499  -0.247  0.6385  0.6098  0.2742
  607MOL0     C81830   2.407   6.438  -0.124  0.5990  0.2757  0.4867
  607MOL0     C81831   2.339   6.304  -0.139  0.0809  0.2004 -0.5926
  607MOL0     C81832   2.436   6.200  -0.175  0.4936  0.7884 -0.7127
  607MOL0     C81833   2.521   6.136  -0.057  0.6324  0.2803 -0.7582
  607MOL0     O81834   2.607   6.037  -0.110 -0.4066  0.7415 -0.4645
  607MOL0     C81835   2.702   5.978  -0.028 -0.2982  0.1739  0.4510
  607MOL0     C81836   2.823   5.953  -0.086 -0.5724  0.0411  0.3882
  607MOL0     C81837   2.917   5.865  -0.026  0.1286 -0.3583 -0.0610
  607MOL0     C81838   3.040   5.835  -0.112  0.8431  0.4055  0.9241
  607MOL0     C81839   2.897   5.817   0.106 -0.4440 -0.5215  0.2067
  607MOL0     C81840   2.997   5.741   0.191 -0.2582  0.6351  0.1463
  607MOL0     O81841   2.952   5.721   0.312  0.0951  0.7047  0.2003
  607MOL0     C81842   3.028   5.662   0.411 -0.2454  0.0851  0.0226
  607MOL0     C81843   3.058   5.749   0.519  0.7332 -0.4135  0.3669
  607MOL0     C81844   3.149   5.704   0.615 -1.0153 -1.1131 -1.2041
  607MOL0     C81845   3.200   5.579   0.608 -0.1275  0.2073 -0.7592
  607MOL0     O81846   3.269   5.512   0.710 -0.7829 -0.0876  0.4034
  607MOL0     C81847   3.392   5.565   0.769  0.6853  0.3398  0.3245
  607MOL0     C81848   3.384   5.591   0.921  0.4487  0.9460  0.1145
  607MOL0     C81849   3.323   5.462   0.992 -0.5349 -1.2332 -0.9607
  607MOL0     C81850   3.275   5.508   1.132 -0.3338 -0.8847  0.0565
  607MOL0     C81851   3.233   5.393   1.207 -0.2353  0.2745 -0.2021
  607MOL0     C81852   3.192   5.411   1.351 -0.0612 -0.3609 -0.3340
  607MOL0     C81853   3.130   5.284   1.413  0.0232  0.3810  0.0691
  607MOL0     C81854   3.104   5.298   1.559  0.1935  0.8456  1.1696
  607MOL0    Cl81855   3.016   5.437   1.586  0.0436  0.2231  0.0724
  607MOL0     C81856   3.168   5.491   0.505 -0.3917 -0.3902 -0.5836
  607MOL0     C81857   3.080   5.527   0.401  0.3695 -0.0459  0.3077
  607MOL0     O81858   3.105   5.713   0.149  0.1225 -0.4624  0.2875
  607MOL0     C81859   2.767   5.841   0.155  0.6653 -0.2052  0.0749
  607MOL0     C81860   2.669   5.923   0.100  0.2978 -0.5620  0.0420
  607MOL0     N81861   2.564   6.463  -0.330  0.3044 -0.1491  0.0015
  607MOL0     N81862   2.563   6.549  -0.429  0.8382  0.1971  0.6031
  607MOL0     C81863   2.054   6.200   0.069 -0.0611 -0.1104 -0.6338
  607MOL0     C81864   2.129   6.130   0.159 -0.6452  0.5327 -0.2180
  607MOL0     C81865   2.467   6.005   0.455 -0.1405  0.1363  1.5251
  607MOL0     C81866   2.604   5.987   0.457 -0.7938 -0.0496 -0.0674
  607MOL0     C81867   2.664   5.898   0.548 -0.5754  0.3022  0.2033
  607MOL0     C81868   2.597   5.828   0.640 -0.4313  0.9101  0.1096
  607MOL0     O81869   2.649   5.746   0.731 -0.5750  0.2915 -0.7360
  607MOL0     C81870   2.790   5.743   0.753 -0.3030  0.1740 -0.5882
  607MOL0     C81871   2.833   5.648   0.862  0.6782  0.8630 -0.1635
  607MOL0     C81872   2.869   5.509   0.822  0.7699  0.2363 -0.1368
  607MOL0     C81873   2.936   5.418   0.929 -0.5290 -0.2126 -0.2910
  607MOL0     C81874   2.865   5.408   1.056  0.5502 -0.2790 -0.6948
  607MOL0     C81875   2.845   5.404   1.175  0.9022  0.1300 -1.0863
  607MOL0     C81876   2.459   5.839   0.639 -0.3187 -0.3321 -0.3007
  607MOL0     C81877   2.394   5.928   0.551 -0.5374 -0.1082  1.3184
  607MOL0     H81878   2.227   6.374   0.370 -1.8026 -0.5645  0.7940
  607MOL0     H81879   2.107   6.509   0.204  0.7157 -0.0736  0.1068
  607MOL0     H81880   1.969   6.277  -0.178 -0.4119 -1.4823  1.1079
  607MOL0     H81881   1.843   6.331  -0.069  1.9899  0.0277  2.3270
  607MOL0     H81882   1.816   6.417  -0.305 -0.1902 -1.2396  1.2303
  607MOL0     H81883   1.824   6.543  -0.173  0.7931  0.8496  0.1398
  607MOL0     H81884   2.045   6.597  -0.220 -0.4259 -0.9463 -0.2730
  607MOL0     H81885   2.064   6.449  -0.316  1.9599  1.2714  4.8221
  607MOL0     H81886   1.932   6.533  -0.509 -2.6833 -0.8487  1.9907
  607MOL0     H81887   1.893   6.672  -0.408 -0.0055 -1.6796  0.6048
  607MOL0     H81888   2.027   6.732  -0.571 -3.7729 -2.3596  0.3066
  607MOL0     H81889   2.133   6.728  -0.415 -1.4481  2.1700 -0.4048
  607MOL0     H81890   2.209   6.517  -0.483 -3.4365  1.2508  2.7498
  607MOL0     H81891   2.125   6.520  -0.638 -0.3747  2.2787 -0.8377
  607MOL0     H81892   2.351   6.587  -0.683  0.7087  0.5642 -0.3764
  607MOL0     H81893   2.279   6.729  -0.700 -2.9019 -1.2192  0.4822
  607MOL0     H81894   2.347   6.804  -0.479  0.9547 -0.0537  1.2403
  607MOL0     H81895   2.491   6.750  -0.578  0.2601  1.2583  0.5937
  607MOL0     H81896   2.282   6.640  -0.276 -1.5805 -2.6255 -0.7300
  607MOL0     H81897   2.484   6.431  -0.047 -1.0892  1.5033  2.4013
  607MOL0     H81898   2.334   6.510  -0.085 -1.4860 -2.4027  1.8194
  607MOL0     H81899   2.257   6.306  -0.211 -2.4674  3.3862  2.0663
  607MOL0     H81900   2.290   6.272  -0.046  0.4089 -0.9852 -0.8152
  607MOL0     H81901   2.500   6.235  -0.257  1.0205  0.1066 -0.6019
  607MOL0     H81902   2.380   6.114  -0.213  0.5882 -0.2089  1.2801
  607MOL0     H81903   2.456   6.083   0.013  0.0288  0.2702 -1.3154
  607MOL0     H81904   2.588   6.210  -0.012  0.8213 -0.7919  0.8046
  607MOL0     H81905   2.837   5.990  -0.187 -1.3004 -1.3980 -0.2718
  607MOL0     H81906   3.082   5.734  -0.111 -0.7262 -0.4135 -2.2863
  607MOL0     H81907   3.007   5.847  -0.216  2.4694 -1.0208  0.2005
  607MOL0     H81908   3.116   5.910  -0.090 -2.8274  3.9896  2.7888
  607MOL0     H81909   3.011   5.847   0.518 -0.1033 -0.7459 -2.4440
  607MOL0     H81910   3.171   5.748   0.712  3.0346 -1.2743 -1.8982
  607MOL0     H81911   3.475   5.494   0.759  0.7652  0.5019 -0.1760
  607MOL0     H81912   3.411   5.657   0.713 -1.5571  0.7704  0.1878
  607MOL0     H81913   3.486   5.615   0.952  0.6650  0.6651 -0.3643
  607MOL0     H81914   3.330   5.684   0.943 -0.9999  0.0486  0.4976
  607MOL0     H81915   3.407   5.394   1.009 -1.3737 -1.6393  2.2222
  607MOL0     H81916   3.240   5.414   0.940 -1.7734  1.8958 -2.0792
  607MOL0     H81917   3.361   5.558   1.177 -0.5519  1.8649 -2.3105
  607MOL0     H81918   3.192   5.579   1.124 -0.3601 -1.0734 -1.6447
  607MOL0     H81919   3.311   5.316   1.209  0.3870  0.8711  2.2075
  607MOL0     H81920   3.148   5.352   1.151  2.2361 -2.9280 -1.9067
  607MOL0     H81921   3.278   5.420   1.418 -2.0578 -1.1873  2.4875
  607MOL0     H81922   3.134   5.503   1.360 -1.8382 -1.6041  1.7415
  607MOL0     H81923   3.213   5.212   1.405 -0.3369 -0.1416  0.9389
  607MOL0     H81924   3.045   5.255   1.351  1.1424  0.0932 -1.4004
  607MOL0     H81925   3.194   5.295   1.620 -0.0626 -1.4929  1.5331
  607MOL0     H81926   3.044   5.209   1.580  0.7542 -0.1405 -1.1093
  607MOL0     H81927   3.233   5.404   0.500  1.7258  1.1303 -0.8883
  607MOL0     H81928   3.069   5.460   0.317  0.9403 -1.1441  1.0807
  607MOL0     H81929   2.740   5.793   0.249 -0.4599  1.4107  0.6075
  607MOL0     H81930   2.570   5.916   0.145 -0.5791 -0.2100 -1.7500
  607MOL0     H81931   1.982   6.152   0.003 -0.0965 -1.6860  0.4913
  607MOL0     H81932   2.123   6.022   0.155 -0.1239  0.5072 -0.3455
  607MOL0     H81933   2.668   6.025   0.378  0.9745 -2.6422  0.0146
  607MOL0     H81934   2.773   5.894   0.554 -0.4466 -1.2465 -1.8581
  607MOL0     H81935   2.839   5.710   0.661  0.1692 -2.0961  0.3940
  607MOL0     H81936   2.824   5.841   0.787  1.2564 -0.8975  1.1101
  607MOL0     H81937   2.756   5.645   0.940  1.8737 -0.2527  1.0094
  607MOL0     H81938   2.914   5.706   0.908  1.6138 -1.0013  0.6214
  607MOL0     H81939   2.948   5.516   0.746  0.1340 -0.7424 -0.9202
  607MOL0     H81940   2.777   5.457   0.794 -0.2522  0.8203  1.9195
  607MOL0     H81941   3.034   5.465   0.945 -0.8401  0.7266 -1.0648
  607MOL0     H81942   2.961   5.321   0.884 -0.0855 -0.9662  1.4939
  607MOL0     H81943   2.826   5.399   1.280 -0.5056 -0.7538 -1.3559
  607MOL0     H81944   2.393   5.780   0.701 -0.8680  1.3369  0.7804
  607MOL0     H81945   2.287   5.940   0.555 -0.5671  0.0203  0.3885
  608MOL0     O81946   1.594  11.416   4.838 -1.0028  0.0379 -0.7364
  608MOL0     C81947   1.708  11.460   4.832  0.3369  0.7026  0.8996
  608MOL0     O81948   1.811  11.395   4.788 -0.6067 -0.8529 -0.1322
  608MOL0     C81949   1.801  11.273   4.734  0.1284 -0.0241  0.6923
  608MOL0     C81950   1.872  11.166   4.791 -0.9342  0.1479  0.9388
  608MOL0     C81951   1.872  11.030   4.742  0.7020 -0.1823  0.3997
  608MOL0     C81952   1.787  10.999   4.639 -0.8947 -0.5567  0.2576
  608MOL0     O81953   1.767  10.877   4.579 -0.0011 -0.6145  0.1733
  608MOL0     C81954   1.801  10.761   4.659  0.6444  0.0331  0.1186
  608MOL0     C81955   1.674  10.720   4.736 -0.1087 -0.6540 -0.4876
  608MOL0     C81956   1.669  10.572   4.778  0.2368  0.4410 -0.2652
  608MOL0     C81957   1.539  10.543   4.850  0.5519 -0.4830 -0.2645
  608MOL0     C81958   1.541  10.398   4.906  0.3586  0.1612 -0.3231
  608MOL0     C81959   1.465  10.399   5.034  0.6470  0.2512 -0.3858
  608MOL0     C81960   1.456  10.264   5.108 -0.1327  0.5367  0.1874
  608MOL0     C81961   1.420  10.141   5.014 -0.3774  0.3193  0.4740
  608MOL0     N81962   1.363  10.035   5.098  0.2247  0.2810  0.5053
  608MOL0     C81963   1.423   9.918   5.127  0.3546  0.6322 -0.0187
  608MOL0     C81964   1.319   9.842   5.184 -0.0599 -0.0124 -0.5106
  608MOL0     C81965   1.329   9.702   5.250 -0.6633 -1.6334 -1.0752
  608MOL0     C81966   1.384   9.607   5.140  0.1522 -1.0424  0.5453
  608MOL0     C81967   1.353   9.467   5.181 -0.2934  1.2609  0.0138
  608MOL0     C81968   1.423   9.356   5.091 -0.5082 -0.0179 -0.7125
  608MOL0     O81969   1.401   9.370   4.947 -0.2186 -0.2450  0.1676
  608MOL0     C81970   1.280   9.338   4.901  0.3019  0.3883 -0.7529
  608MOL0     C81971   1.252   9.369   4.774 -0.5080 -0.0714  0.9232
  608MOL0     C81972   1.126   9.351   4.718 -1.3076  0.0111  0.6539
  608MOL0     C81973   1.114   9.388   4.567  0.1465 -0.5589 -0.3888
  608MOL0     C81974   1.020   9.318   4.805 -0.4276  0.5438 -0.1449
  608MOL0     C81975   0.885   9.314   4.758 -0.1036  0.1092  0.5161
  608MOL0     O81976   0.830   9.430   4.713 -0.5568 -0.4229 -0.0981
  608MOL0     C81977   0.695   9.461   4.701  0.6603 -0.0297  0.5291
  608MOL0     C81978   0.656   9.588   4.652 -0.0883  1.1652 -0.2500
  608MOL0     C81979   0.522   9.628   4.655 -0.0108 -0.2635 -0.3445
  608MOL0     C81980   0.426   9.541   4.701  0.1320  0.3821 -0.3519
  608MOL0     O81981   0.300   9.599   4.702  0.7138 -0.9587  0.3419
  608MOL0     C81982   0.211   9.553   4.805  0.4064  0.0673 -0.2181
  608MOL0     C81983   0.082   9.630   4.811  0.2120  0.9864 -0.2818
  608MOL0     C81984  -0.004   9.594   4.935  0.0901  0.2237  0.1148
  608MOL0     C81985  -0.152   9.645   4.917  1.2796  0.8074 -0.1610
  608MOL0     C81986  -0.234   9.642   5.047 -0.3600 -0.1025 -0.0471
  608MOL0     C81987  -0.372   9.685   5.014  1.1535  0.6742  0.2561
  608MOL0     C81988  -0.468   9.713   5.123  1.0500 -0.8054 -0.3858
  608MOL0     C81989  -0.610   9.709   5.075 -0.3995 -0.0519  0.3050
  608MOL0    Cl81990  -0.721   9.688   5.219  0.1714  0.0963 -0.7327
  608MOL0     C81991   0.459   9.413   4.748 -0.7552 -0.9749  0.0290
  608MOL0     C81992   0.594   9.373   4.730  0.2740  0.8027  0.3543
  608MOL0     O81993   0.836   9.203   4.759  0.0908 -0.2758 -0.4331
  608MOL0     C81994   1.051   9.262   4.931  0.1522 -0.7071 -0.1026
  608MOL0     C81995   1.181   9.282   4.986  0.0985  0.1978  0.5272
  608MOL0     N81996   1.204   9.915   5.172  0.4226 -0.9191 -0.3921
  608MOL0     N81997   1.234  10.033   5.136  0.1784 -0.4679  0.8769
  608MOL0     C81998   1.729  11.109   4.567  0.6231 -0.3541 -0.2602
  608MOL0     C81999   1.743  11.245   4.608  0.0701  1.1967 -0.0674
  608MOL0     C82000   1.732  11.601   4.871 -0.4602 -0.6005  0.0101
  608MOL0     C82001   1.641  11.679   4.949 -0.6141  0.5592 -0.0693
  608MOL0     C82002   1.657  11.815   4.980  0.3782  0.9183 -0.0809
  608MOL0     C82003   1.760  11.891   4.929  0.1405 -0.2465  0.3643
  608MOL0     O82004   1.788  12.018   4.963  0.3767  0.0220  0.7193
  608MOL0     C82005   1.737  12.111   4.871 -0.0281 -0.9221  0.7230
  608MOL0     C82006   1.757  12.250   4.942 -0.9835 -0.2851 -0.2694
  608MOL0     C82007   1.889  12.305   4.893  0.0101  0.6566  0.8942
  608MOL0     C82008   1.935  12.431   4.962  0.2358  0.2384 -0.5794
  608MOL0     C82009   1.850  12.542   4.931  0.3216 -0.1020 -0.7373
  608MOL0     C82010   1.780  12.644   4.905 -0.6806  0.0134 -0.2404
  608MOL0     C82011   1.858  11.822   4.863 -0.1506 -1.2796 -0.7070
  608MOL0     C82012   1.843  11.686   4.828 -0.0911  0.1548 -0.0585
  608MOL0     H82013   1.935  11.202   4.872  0.8573 -0.5341 -0.0826
  608MOL0     H82014   1.938  10.961   4.794  0.2889 -1.9266 -1.2937
  608MOL0     H82015   1.821  10.674   4.596 -1.2682 -1.5793  1.5905
  608MOL0     H82016   1.883  10.782   4.729 -1.6156  3.6384  1.9843
  608MOL0     H82017   1.670  10.784   4.824 -0.7179 -0.8075 -0.4029
  608MOL0     H82018   1.583  10.735   4.678  0.3347  0.5053 -0.9134
  608MOL0     H82019   1.680  10.501   4.695  0.1522 -1.6547  1.4577
  608MOL0     H82020   1.754  10.556   4.845  0.7617  0.0377 -1.0015
  608MOL0     H82021   1.542  10.620   4.927  0.8208  1.5258 -2.1716
  608MOL0     H82022   1.449  10.558   4.790  0.4021  0.7874  0.2561
  608MOL0     H82023   1.482  10.333   4.841 -0.0202 -0.0701  0.2412
  608MOL0     H82024   1.640  10.358   4.927  2.2727  2.7088 -3.5290
  608MOL0     H82025   1.504  10.461   5.115  0.6544  3.7715 -2.8932
  608MOL0     H82026   1.365  10.434   5.007  1.2551  3.0175  0.6933
  608MOL0     H82027   1.551  10.239   5.156  0.3925 -1.0681 -1.5601
  608MOL0     H82028   1.376  10.270   5.183 -1.5056 -0.3433 -1.1398
  608MOL0     H82029   1.503  10.101   4.955 -1.3598 -3.1149  1.2155
  608MOL0     H82030   1.345  10.179   4.944 -0.2650  1.0302  0.7273
  608MOL0     H82031   1.524   9.883   5.112  0.4914 -0.1104  2.1674
  608MOL0     H82032   1.403   9.695   5.329  0.6747  1.1379 -1.9536
  608MOL0     H82033   1.228   9.678   5.285 -1.4167  0.1295 -1.8714
  608MOL0     H82034   1.490   9.631   5.143  0.2061 -1.2049  4.1491
  608MOL0     H82035   1.327   9.633   5.049  0.6402 -0.1286  0.4918
  608MOL0     H82036   1.246   9.447   5.168 -0.1349  1.8462 -2.8653
  608MOL0     H82037   1.381   9.447   5.285 -0.3899 -0.9117 -0.3270
  608MOL0     H82038   1.403   9.253   5.119 -0.6436 -0.5656 -2.6722
  608MOL0     H82039   1.530   9.378   5.100 -1.1313  2.4755  2.3659
  608MOL0     H82040   1.317   9.421   4.705 -0.2312 -2.5949 -0.8482
  608MOL0     H82041   1.015   9.368   4.525 -0.8756 -0.5942  1.8625
  608MOL0     H82042   1.143   9.493   4.561  1.0912 -0.6270  1.9897
  608MOL0     H82043   1.189   9.328   4.515 -0.8458 -3.2107  1.0257
  608MOL0     H82044   0.728   9.661   4.620 -0.2296  2.4705  2.1444
  608MOL0     H82045   0.484   9.728   4.637 -3.6981 -0.7669  3.1925
  608MOL0     H82046   0.178   9.451   4.787  0.1350  0.1420 -0.1373
  608MOL0     H82047   0.262   9.553   4.902  1.9860  1.6186 -0.9748
  608MOL0     H82048   0.118   9.732   4.826  0.8428  0.7215  0.0552
  608MOL0     H82049   0.031   9.618   4.715  2.5788  0.6027 -1.5764
  608MOL0     H82050   0.035   9.628   5.031 -0.8644 -0.7678  0.8763
  608MOL0     H82051  -0.005   9.487   4.959 -0.3567  0.3989  0.9221
  608MOL0     H82052  -0.156   9.751   4.887 -1.1405  0.6817 -0.4194
  608MOL0     H82053  -0.201   9.583   4.842 -0.7999 -0.0399  1.7682
  608MOL0     H82054  -0.202   9.708   5.128  0.8024  0.5593 -1.0098
  608MOL0     H82055  -0.221   9.548   5.102  1.2267  1.8560  3.2482
  608MOL0     H82056  -0.360   9.785   4.972 -5.3565  1.3145 -1.1938
  608MOL0     H82057  -0.413   9.622   4.934 -0.2541  3.8556 -1.7112
  608MOL0     H82058  -0.438   9.811   5.160 -0.8704 -0.2006 -0.3164
  608MOL0     H82059  -0.464   9.640   5.205 -1.4452 -0.6782 -0.0775
  608MOL0     H82060  -0.637   9.632   5.002 -0.2138  0.7322 -0.5992
  608MOL0     H82061  -0.634   9.806   5.032 -2.2163  1.4069  4.1421
  608MOL0     H82062   0.383   9.348   4.790 -2.9496  1.8502  0.7409
  608MOL0     H82063   0.622   9.274   4.765  1.4747  0.2106 -2.0190
  608MOL0     H82064   0.977   9.201   4.980 -1.2271  0.1051 -1.1007
  608MOL0     H82065   1.195   9.253   5.090 -0.5455 -0.7422  0.3624
  608MOL0     H82066   1.683  11.072   4.475  1.4484 -1.6813 -0.1632
  608MOL0     H82067   1.689  11.322   4.554 -2.1971 -0.4884 -0.3560
  608MOL0     H82068   1.555  11.629   4.993 -0.0187  0.3471  0.8759
  608MOL0     H82069   1.598  11.870   5.053  1.9204  1.4459  0.8195
  608MOL0     H82070   1.797  12.094   4.781  0.2418 -1.1126  0.9367
  608MOL0     H82071   1.634  12.106   4.833 -0.0434  6.3151 -1.5552
  608MOL0     H82072   1.750  12.239   5.050 -3.7533 -2.8896 -0.5992
  608MOL0     H82073   1.687  12.330   4.917 -1.4692  0.2987  2.6661
  608MOL0     H82074   1.883  12.321   4.785  3.2793 -1.1508  0.2959
  608MOL0     H82075   1.963  12.225   4.906  2.4292  3.0523  3.1367
  608MOL0     H82076   2.040  12.454   4.945  0.2502  0.0380 -0.7638
  608MOL0     H82077   1.914  12.413   5.068  1.7577 -0.0590 -0.3028
  608MOL0     H82078   1.713  12.725   4.882 -0.4181  0.7677  1.5089
  608MOL0     H82079   1.948  11.874   4.830 -2.9568  2.4892 -3.2328
  608MOL0     H82080   1.905  11.627   4.761 -3.0008 -1.3734 -1.6068
  609MOL0     O82081   6.387   9.009   1.954  0.6659  0.0144 -0.8488
  609MOL0     C82082   6.298   9.040   1.870 -0.8411  0.1796 -0.3835
  609MOL0     O82083   6.167   8.996   1.870 -0.5332 -0.5586  0.4001
  609MOL0     C82084   6.116   8.897   1.954  0.4602  0.5895  0.1158
  609MOL0     C82085   5.978   8.884   1.959  0.1407 -0.7682  0.6645
  609MOL0     C82086   5.912   8.773   2.022  0.4543 -0.9488 -0.4286
  609MOL0     C82087   5.988   8.680   2.101  0.5795  0.5942 -0.0918
  609MOL0     O82088   5.921   8.592   2.175  0.0287  0.0010 -0.1097
  609MOL0     C82089   5.924   8.613   2.315 -0.3040  0.1109  0.3206
  609MOL0     C82090   5.866   8.501   2.404 -0.4831 -1.1323  0.4961
  609MOL0     C82091   5.931   8.373   2.358  0.4166  0.1134  0.9467
  609MOL0     C82092   5.905   8.261   2.457 -0.1400 -0.2702  1.1214
  609MOL0     C82093   5.970   8.138   2.400  0.1161  0.0100 -0.1792
  609MOL0     C82094   5.986   8.017   2.501  0.4940  0.2065 -0.9704
  609MOL0     C82095   5.858   7.988   2.584 -0.9137  1.0064  0.6232
  609MOL0     C82096   5.744   7.941   2.501  0.7926 -0.3904  0.5997
  609MOL0     N82097   5.610   7.952   2.573  0.8931 -0.5865 -0.3036
  609MOL0     C82098   5.487   7.988   2.520 -1.6409  0.7478  0.4971
  609MOL0     C82099   5.395   7.958   2.614 -0.6976  0.5179  0.5002
  609MOL0     C82100   5.252   7.979   2.591  0.3098  0.1923  0.2386
  609MOL0     C82101   5.168   7.871   2.656 -0.4270 -0.1182  0.4920
  609MOL0     C82102   5.015   7.921   2.657 -0.3153  0.0127  0.2670
  609MOL0     C82103   4.920   7.828   2.720  0.1052 -0.0982  0.1864
  609MOL0     O82104   4.938   7.706   2.654  0.8867  0.2011 -0.2231
  609MOL0     C82105   4.863   7.684   2.542  0.2308 -0.8826 -0.7156
  609MOL0     C82106   4.724   7.683   2.538  0.2220 -0.4265 -1.0861
  609MOL0     C82107   4.651   7.664   2.427  0.1057 -0.4743  0.0523
  609MOL0     C82108   4.499   7.684   2.421  0.0909  0.5897  0.6701
  609MOL0     C82109   4.727   7.645   2.304 -0.4620  0.1105 -1.2537
  609MOL0     C82110   4.667   7.627   2.174 -0.2867  0.6439 -0.5352
  609MOL0     O82111   4.724   7.535   2.087  0.0719 -0.4130  0.0766
  609MOL0     C82112   4.685   7.524   1.954  0.5633 -0.1346  0.0660
  609MOL0     C82113   4.674   7.624   1.860 -0.5699 -0.2248  0.3442
  609MOL0     C82114   4.642   7.591   1.738 -0.2147  0.1554 -0.4355
  609MOL0     C82115   4.617   7.457   1.696  0.5502 -0.3028 -0.1735
  609MOL0     O82116   4.600   7.429   1.563  0.5634  0.2420 -0.8776
  609MOL0     C82117   4.465   7.432   1.528  0.2373 -0.2313 -1.1556
  609MOL0     C82118   4.448   7.415   1.379 -0.6409  0.0213 -0.6630
  609MOL0     C82119   4.489   7.540   1.302 -0.2836 -0.0435 -0.0246
  609MOL0     C82120   4.502   7.507   1.157 -0.0516 -0.5024  1.2101
  609MOL0     C82121   4.377   7.441   1.090  0.6804 -0.0954  0.1026
  609MOL0     C82122   4.246   7.514   1.126 -0.0368  0.4287 -0.0309
  609MOL0     C82123   4.121   7.427   1.091  0.6020  0.7797  0.0141
  609MOL0     C82124   4.011   7.506   1.029  0.3348  0.4917  0.5895
  609MOL0    Cl82125   4.048   7.548   0.859  0.3366 -0.2974 -0.2436
  609MOL0     C82126   4.631   7.357   1.791 -0.3017  0.0150 -0.4135
  609MOL0     C82127   4.663   7.394   1.917 -0.8801 -0.5244  0.1272
  609MOL0     O82128   4.589   7.711   2.152  0.3562 -0.4012  0.6954
  609MOL0     C82129   4.873   7.628   2.314 -0.4606  0.6226  0.4275
  609MOL0     C82130   4.932   7.646   2.434 -0.5502  0.1618  0.5654
  609MOL0     N82131   5.458   7.905   2.717  0.8011 -0.3867  0.3151
  609MOL0     N82132   5.580   7.890   2.693  0.2618  0.7322 -0.2550
  609MOL0     C82133   6.129   8.690   2.099 -0.0609  0.0102 -0.0531
  609MOL0     C82134   6.190   8.792   2.023 -0.4669 -0.3632  0.5044
  609MOL0     C82135   6.321   9.145   1.770  0.5509  0.2890  0.2159
  609MOL0     C82136   6.249   9.140   1.646 -0.8794 -0.0834  0.4649
  609MOL0     C82137   6.242   9.248   1.557 -1.0632 -0.0235  0.2137
  609MOL0     C82138   6.316   9.365   1.590  0.6208  0.2405 -0.1104
  609MOL0     O82139   6.287   9.475   1.510  1.3786  0.6375  0.4288
  609MOL0     C82140   6.355   9.596   1.528  0.8267 -0.0498 -0.1655
  609MOL0     C82141   6.258   9.710   1.538  0.6830 -0.0029 -0.9000
  609MOL0     C82142   6.190   9.762   1.407 -0.0916 -0.3332  0.3054
  609MOL0     C82143   6.116   9.661   1.324  0.4037  0.5105  0.0466
  609MOL0     C82144   6.207   9.615   1.218  1.1589 -0.8491 -0.0698
  609MOL0     C82145   6.289   9.583   1.140  0.4266  0.3356 -0.2280
  609MOL0     C82146   6.400   9.362   1.709 -0.2005 -0.0095  1.1216
  609MOL0     C82147   6.405   9.257   1.793  0.3202  0.5456 -0.0581
  609MOL0     H82148   5.927   8.961   1.902  1.1668  0.4989  1.3852
  609MOL0     H82149   5.804   8.760   2.024  0.3934 -0.4180 -0.1709
  609MOL0     H82150   6.026   8.619   2.355 -1.3841  1.1509  3.2331
  609MOL0     H82151   5.887   8.713   2.339  2.1878  0.5290  3.0767
  609MOL0     H82152   5.897   8.519   2.508 -1.6884  1.9899  0.4173
  609MOL0     H82153   5.758   8.494   2.387 -0.1551 -0.5502 -2.3100
  609MOL0     H82154   5.884   8.335   2.267 -1.9408  0.3607  1.9815
  609MOL0     H82155   6.039   8.386   2.343  0.5982  1.2019  2.8324
  609MOL0     H82156   5.953   8.292   2.551  0.6921  2.4438 -0.0942
  609MOL0     H82157   5.799   8.240   2.469  0.4413 -2.5857  2.9571
  609MOL0     H82158   5.919   8.102   2.310  0.1864  1.8826 -1.0298
  609MOL0     H82159   6.066   8.168   2.356 -0.0845 -0.1721 -0.7587
  609MOL0     H82160   6.022   7.928   2.450 -1.1795 -0.8588 -0.3544
  609MOL0     H82161   6.071   8.047   2.564 -0.8865  0.3914  0.8748
  609MOL0     H82162   5.878   7.906   2.655 -3.0328  0.6273  0.8413
  609MOL0     H82163   5.843   8.079   2.643  1.8521  1.4493  0.8145
  609MOL0     H82164   5.777   7.844   2.464  0.4208 -0.1906 -0.2800
  609MOL0     H82165   5.736   8.001   2.410 -0.9492 -1.1964  0.1798
  609MOL0     H82166   5.465   8.033   2.424  0.1037  0.3870 -0.0988
  609MOL0     H82167   5.228   8.076   2.634 -1.4435 -0.1629  0.1503
  609MOL0     H82168   5.244   7.997   2.483 -2.0436  0.6734  0.4570
  609MOL0     H82169   5.191   7.848   2.761 -0.6585 -3.2186 -0.0394
  609MOL0     H82170   5.183   7.782   2.594 -0.1736  0.7717 -0.7632
  609MOL0     H82171   4.985   7.953   2.557 -3.3400 -0.7586  0.8405
  609MOL0     H82172   5.002   8.008   2.722  1.0831 -1.2633  2.4062
  609MOL0     H82173   4.821   7.873   2.707  1.1000  2.5103  0.9222
  609MOL0     H82174   4.937   7.813   2.827  1.5632 -1.6151 -0.2166
  609MOL0     H82175   4.676   7.688   2.635  0.1858 -1.2800 -1.0566
  609MOL0     H82176   4.477   7.786   2.388 -2.6643 -0.6061 -1.5750
  609MOL0     H82177   4.438   7.613   2.365 -3.8721  1.0443  3.9523
  609MOL0     H82178   4.474   7.668   2.527  1.4564  0.4382  0.9961
  609MOL0     H82179   4.690   7.729   1.881  0.2822 -0.2032 -0.3534
  609MOL0     H82180   4.625   7.668   1.664 -0.5774 -1.1217 -1.7154
  609MOL0     H82181   4.417   7.351   1.585 -2.9254  2.6032  0.5906
  609MOL0     H82182   4.416   7.525   1.557  0.6826 -0.6237  1.0609
  609MOL0     H82183   4.518   7.336   1.349  1.1337  2.2111 -2.7608
  609MOL0     H82184   4.349   7.379   1.350 -1.5252  0.5793  1.5007
  609MOL0     H82185   4.586   7.571   1.341 -1.3163  0.1771  2.5413
  609MOL0     H82186   4.423   7.624   1.324 -0.3497  0.2822 -1.3728
  609MOL0     H82187   4.515   7.601   1.102 -3.1608 -0.3433  0.5612
  609MOL0     H82188   4.588   7.443   1.134  1.8149  2.4996 -0.8091
  609MOL0     H82189   4.368   7.335   1.115 -1.3975  0.0986  0.3810
  609MOL0     H82190   4.383   7.446   0.981 -2.1948 -0.6394 -0.1388
  609MOL0     H82191   4.230   7.539   1.231 -1.0389 -0.4171  0.0292
  609MOL0     H82192   4.254   7.605   1.066  0.9466  1.3478  1.4270
  609MOL0     H82193   4.086   7.389   1.188  3.0268  1.9152  1.4067
  609MOL0     H82194   4.148   7.348   1.020  0.3099  1.2235 -0.6007
  609MOL0     H82195   4.004   7.606   1.074  0.1720  1.2340 -1.0161
  609MOL0     H82196   3.923   7.444   1.049  1.3695 -2.3956 -2.8378
  609MOL0     H82197   4.621   7.253   1.762  0.5171  0.9577 -4.7794
  609MOL0     H82198   4.698   7.315   1.983 -1.3584  0.2654  1.3752
  609MOL0     H82199   4.934   7.593   2.232 -1.2662 -3.4840  1.3677
  609MOL0     H82200   5.038   7.637   2.451 -0.0408  4.7239  1.1856
  609MOL0     H82201   6.175   8.610   2.155  2.1259  1.0725 -0.2270
  609MOL0     H82202   6.298   8.797   2.029 -0.5798  0.6722  2.2866
  609MOL0     H82203   6.190   9.052   1.621 -1.0102 -0.1500  1.0068
  609MOL0     H82204   6.175   9.231   1.473  0.3802 -1.4491 -0.7051
  609MOL0     H82205   6.408   9.600   1.623  0.3660  1.1338  0.0637
  609MOL0     H82206   6.427   9.615   1.447 -0.9217  1.5577 -1.4295
  609MOL0     H82207   6.299   9.796   1.591 -2.7543  0.3309  1.5475
  609MOL0     H82208   6.167   9.687   1.594  0.4773 -1.6071 -1.8335
  609MOL0     H82209   6.262   9.811   1.341  0.9259 -1.4978  0.4977
  609MOL0     H82210   6.125   9.846   1.431 -0.8057 -0.4591 -1.1255
  609MOL0     H82211   6.031   9.713   1.278  1.5052  2.0973 -0.2496
  609MOL0     H82212   6.079   9.574   1.380  2.7466 -0.9741 -0.5754
  609MOL0     H82213   6.373   9.554   1.081 -0.2723 -1.1606 -0.5468
  609MOL0     H82214   6.451   9.447   1.755  0.9256 -0.0473 -0.0007
  609MOL0     H82215   6.469   9.266   1.879 -1.5320  0.7217  1.3737
  610MOL0     O82216  10.053   2.291   2.379 -0.2233  0.4220 -0.2225
  610MOL0     C82217  10.077   2.172   2.357  0.0318  0.6262 -0.6080
  610MOL0     O82218   9.991   2.066   2.365 -0.0122  0.6306 -0.1326
  610MOL0     C82219   9.861   2.082   2.394 -0.3798 -0.6812  0.9069
  610MOL0     C82220   9.790   2.188   2.342 -0.0519 -0.7997  0.2230
  610MOL0     C82221   9.653   2.199   2.383 -0.7231  0.1666  0.2388
  610MOL0     C82222   9.589   2.114   2.480  1.3709 -0.2907  0.6666
  610MOL0     O82223   9.460   2.131   2.534  0.5420 -0.5300  0.1151
  610MOL0     C82224   9.391   2.251   2.524 -0.0257 -0.6219  0.2964
  610MOL0     C82225   9.283   2.243   2.636  0.8610 -0.3511 -0.3826
  610MOL0     C82226   9.154   2.178   2.586 -0.9373  0.3705  1.0362
  610MOL0     C82227   9.041   2.196   2.686  0.0495 -0.1901  0.3275
  610MOL0     C82228   8.911   2.123   2.647 -0.4205 -0.6003 -0.2833
  610MOL0     C82229   8.785   2.201   2.710 -0.0909  0.3817  0.0037
  610MOL0     C82230   8.656   2.142   2.643 -0.3127 -0.2513 -0.8878
  610MOL0     C82231   8.652   2.182   2.500  0.0013 -0.1838 -0.0062
  610MOL0     N82232   8.507   2.179   2.465 -1.2447 -0.0044  0.0459
  610MOL0     C82233   8.458   2.081   2.383 -0.0354  0.9201  0.9402
  610MOL0     C82234   8.320   2.097   2.386 -0.2023 -0.0516  0.5378
  610MOL0     C82235   8.230   2.020   2.286  0.1956  0.1071  0.3935
  610MOL0     C82236   8.157   2.125   2.199  0.0406  0.5307  0.5748
  610MOL0     C82237   8.025   2.076   2.151 -0.6806 -0.8393  0.0358
  610MOL0     C82238   8.034   1.972   2.043 -1.5539 -0.3773  0.1111
  610MOL0     O82239   7.902   1.929   2.000  0.2453 -0.6978 -0.3936
  610MOL0     C82240   7.872   1.797   1.982  0.8450  0.0582 -0.5018
  610MOL0     C82241   7.739   1.755   2.009  0.1257 -0.1565 -0.2863
  610MOL0     C82242   7.702   1.618   1.989  0.2249  0.0388  0.7012
  610MOL0     C82243   7.558   1.580   2.033 -1.0189  0.0258  0.0675
  610MOL0     C82244   7.812   1.521   1.949  0.4363 -0.2882 -0.0870
  610MOL0     C82245   7.802   1.370   1.939  0.1983 -0.6806 -0.1239
  610MOL0     O82246   7.675   1.313   1.943  0.0344  0.3820  0.0590
  610MOL0     C82247   7.666   1.179   1.947  0.7689 -0.5333 -0.1856
  610MOL0     C82248   7.713   1.109   2.061  1.0579 -0.0541 -0.0849
  610MOL0     C82249   7.724   0.971   2.055  0.3888  0.3215  0.4865
  610MOL0     C82250   7.672   0.900   1.943 -0.3106 -0.1388  0.9895
  610MOL0     O82251   7.656   0.768   1.912 -0.0987 -0.0174 -0.2562
  610MOL0     C82252   7.663   0.685   2.031  1.0634 -0.1881 -0.8498
  610MOL0     C82253   7.668   0.542   1.981 -0.2623  0.4923 -1.2290
  610MOL0     C82254   7.754   0.507   1.865 -0.3374 -0.2928 -0.0143
  610MOL0     C82255   7.901   0.548   1.857 -0.1420 -0.4559 -0.0846
  610MOL0     C82256   7.943   0.572   1.708 -0.6271  0.9555 -0.4648
  610MOL0     C82257   7.954   0.432   1.633  0.3762  0.1743 -0.7274
  610MOL0     C82258   8.068   0.332   1.677  0.2425 -0.0944  0.8063
  610MOL0     C82259   8.040   0.203   1.594 -0.4199 -0.4188  0.1978
  610MOL0    Cl82260   8.037   0.227   1.404 -0.2099 -0.4904 -0.1369
  610MOL0     C82261   7.615   0.972   1.845  0.5003  0.3650 -0.1635
  610MOL0     C82262   7.624   1.108   1.835 -0.4087 -0.1289  0.6486
  610MOL0     O82263   7.910   1.311   1.935  0.5281  0.0133 -0.1221
  610MOL0     C82264   7.946   1.571   1.929  0.3453 -0.3534 -0.6211
  610MOL0     C82265   7.966   1.704   1.947 -0.8815  0.1129 -0.3124
  610MOL0     N82266   8.294   2.196   2.480 -0.4647  0.1512 -0.2252
  610MOL0     N82267   8.408   2.244   2.528  0.0743  0.1265 -0.4179
  610MOL0     C82268   9.659   2.005   2.527 -0.1930 -0.0535  1.0159
  610MOL0     C82269   9.792   1.990   2.484 -0.6412  0.5442  0.1175
  610MOL0     C82270  10.220   2.137   2.343 -0.4903 -0.4941 -0.1312
  610MOL0     C82271  10.313   2.240   2.328 -0.4666 -0.2125 -0.2798
  610MOL0     C82272  10.444   2.222   2.307 -0.6042 -0.0016 -0.0520
  610MOL0     C82273  10.500   2.097   2.310  0.4505 -0.3432  0.0588
  610MOL0     O82274  10.635   2.076   2.301  0.5059  0.1060  0.5828
  610MOL0     C82275  10.715   2.159   2.234  0.8922 -0.2293 -0.1975
  610MOL0     C82276  10.827   2.093   2.158 -0.2487 -0.0042 -0.1474
  610MOL0     C82277  10.784   1.967   2.080 -0.8464 -0.6424  0.8352
  610MOL0     C82278  10.713   1.998   1.945 -0.5563  0.0592 -0.1745
  610MOL0     C82279  10.578   2.058   1.956  0.9166  0.1862  0.2734
  610MOL0     C82280  10.473   2.124   1.973 -0.7428  0.6608 -0.3493
  610MOL0     C82281  10.417   1.991   2.334 -0.1247  0.0393 -0.1520
  610MOL0     C82282  10.278   2.009   2.346  1.4196 -0.3981  1.1301
  610MOL0     H82283   9.828   2.262   2.274 -0.5201  0.6527  1.4881
  610MOL0     H82284   9.595   2.280   2.342 -1.5286 -0.4398  0.1461
  610MOL0     H82285   9.466   2.329   2.539  0.0076 -0.8386  1.3142
  610MOL0     H82286   9.335   2.274   2.432 -2.5078 -0.8773  1.6550
  610MOL0     H82287   9.323   2.173   2.710 -0.0852 -1.2504 -0.6902
  610MOL0     H82288   9.265   2.338   2.687 -1.3184 -0.5705 -0.6601
  610MOL0     H82289   9.121   2.218   2.490 -2.2612 -2.4851  0.1685
  610MOL0     H82290   9.175   2.071   2.576 -1.3641  0.4330 -0.9267
  610MOL0     H82291   9.071   2.155   2.783  3.9678  2.1256  0.3293
  610MOL0     H82292   9.016   2.302   2.690  0.6532 -0.0671  1.2566
  610MOL0     H82293   8.910   2.128   2.538 -1.2400  0.4849 -0.2389
  610MOL0     H82294   8.915   2.019   2.682 -0.4582 -0.0558  1.4495
  610MOL0     H82295   8.770   2.181   2.817 -0.4083  2.7163  0.4515
  610MOL0     H82296   8.800   2.309   2.701  1.4452  0.2069  0.1565
  610MOL0     H82297   8.667   2.034   2.644  0.6682 -0.1608 -0.3063
  610MOL0     H82298   8.578   2.182   2.708 -0.0193  3.4821 -2.5194
  610MOL0     H82299   8.719   2.121   2.439 -0.0139 -0.3458  0.1370
  610MOL0     H82300   8.689   2.284   2.488  0.2533 -0.2811 -0.0495
  610MOL0     H82301   8.526   2.011   2.335 -1.0704  0.6857 -0.2351
  610MOL0     H82302   8.287   1.950   2.225 -0.1037  1.5142 -1.5730
  610MOL0     H82303   8.158   1.959   2.342  0.4958  0.1366  0.8240
  610MOL0     H82304   8.223   2.144   2.113  1.9934 -0.7501  1.6973
  610MOL0     H82305   8.140   2.220   2.250 -1.8362  0.0666  0.8605
  610MOL0     H82306   7.965   2.157   2.108 -0.0894  0.6678  1.9104
  610MOL0     H82307   7.981   2.025   2.237  0.9170 -3.4908 -0.5995
  610MOL0     H82308   8.090   1.892   2.092  0.0013  0.5609 -0.0585
  610MOL0     H82309   8.098   2.003   1.960 -3.1190 -1.3658 -1.5430
  610MOL0     H82310   7.687   1.842   2.049  0.1639 -0.8679  1.4015
  610MOL0     H82311   7.514   1.516   1.955 -2.0884  1.5115 -0.5911
  610MOL0     H82312   7.552   1.528   2.129 -1.7548  1.5692  0.8889
  610MOL0     H82313   7.505   1.675   2.040  0.3417  0.7512  0.9870
  610MOL0     H82314   7.756   1.163   2.145  1.9050 -1.7303  0.5973
  610MOL0     H82315   7.773   0.925   2.140 -0.3565 -0.2707  0.6074
  610MOL0     H82316   7.747   0.708   2.098 -0.1544  1.2187  0.2649
  610MOL0     H82317   7.569   0.686   2.086 -0.8593 -3.0453 -3.7169
  610MOL0     H82318   7.699   0.475   2.062  1.5336  2.9325  0.2548
  610MOL0     H82319   7.565   0.518   1.955 -0.2274 -1.7438  0.3727
  610MOL0     H82320   7.705   0.539   1.773 -1.5986 -1.1775  0.3163
  610MOL0     H82321   7.758   0.399   1.846  3.1442 -0.3000  0.0419
  610MOL0     H82322   7.921   0.626   1.931  1.3766 -3.3614  2.7807
  610MOL0     H82323   7.955   0.462   1.896 -2.1870 -1.9702 -0.3841
  610MOL0     H82324   8.043   0.615   1.700 -0.0220 -0.7859 -3.5989
  610MOL0     H82325   7.882   0.650   1.662  0.5475  1.5899 -1.0013
  610MOL0     H82326   7.861   0.377   1.620  0.8098 -0.3936 -1.5226
  610MOL0     H82327   7.964   0.461   1.528 -2.6021  2.5896 -0.4776
  610MOL0     H82328   8.075   0.308   1.784  2.4038 -0.3299  0.6585
  610MOL0     H82329   8.167   0.365   1.644  0.6839 -2.8666 -1.0061
  610MOL0     H82330   7.952   0.149   1.630  0.5546 -1.7489  0.6581
  610MOL0     H82331   8.121   0.135   1.622  1.5108  2.6361  2.7211
  610MOL0     H82332   7.569   0.913   1.766  0.7113  0.8497 -0.6547
  610MOL0     H82333   7.586   1.163   1.750  1.4565 -1.4333 -1.1111
  610MOL0     H82334   8.032   1.518   1.891  2.7438  3.0050 -0.3408
  610MOL0     H82335   8.069   1.737   1.941 -0.2529 -1.7824 -0.6093
  610MOL0     H82336   9.611   1.945   2.604 -1.2416  1.4709  1.5908
  610MOL0     H82337   9.847   1.903   2.518 -0.6180 -0.7443 -2.9379
  610MOL0     H82338  10.274   2.341   2.334  0.2420  0.0144  1.0106
  610MOL0     H82339  10.502   2.312   2.291 -0.1444 -0.2462  0.2447
  610MOL0     H82340  10.663   2.220   2.160  2.9595  0.4664 -1.1533
  610MOL0     H82341  10.761   2.223   2.310 -0.4757 -0.7337  1.1156
  610MOL0     H82342  10.893   2.063   2.240  0.1248 -0.3800 -0.5785
  610MOL0     H82343  10.883   2.159   2.090 -1.9101  1.5831 -0.0564
  610MOL0     H82344  10.720   1.903   2.140  0.2282  1.2424  4.2324
  610MOL0     H82345  10.876   1.911   2.059 -0.2133 -0.9180  3.8797
  610MOL0     H82346  10.707   1.905   1.888  1.4920  0.2778 -0.8063
  610MOL0     H82347  10.776   2.065   1.886  1.0100 -1.9719 -0.9340
  610MOL0     H82348  10.376   2.167   1.991 -1.1071  0.4322 -1.6760
  610MOL0     H82349  10.464   1.894   2.345 -0.0865  0.1878  1.2696
  610MOL0     H82350  10.213   1.922   2.346  1.8623 -0.8729 -2.2027
  611MOL0     O82351   4.431   4.159   6.442  0.3817  0.1912  0.3176
  611MOL0     C82352   4.353   4.231   6.501 -0.3845  0.1459  1.4079
  611MOL0     O82353   4.361   4.271   6.627 -0.3123  0.1827  0.3252
  611MOL0     C82354   4.481   4.238   6.686  0.1886  0.5083 -0.2092
  611MOL0     C82355   4.570   4.340   6.720  0.9017 -0.6233 -0.3094
  611MOL0     C82356   4.699   4.311   6.782  0.1834  0.4417  0.1840
  611MOL0     C82357   4.734   4.169   6.799 -0.3192  0.0941  0.1905
  611MOL0     O82358   4.862   4.140   6.833 -0.6496 -1.0906  0.3779
  611MOL0     C82359   4.897   4.003   6.878 -0.3289 -0.7479  0.7920
  611MOL0     C82360   5.042   3.990   6.921 -0.2736  0.6466  0.6405
  611MOL0     C82361   5.158   4.020   6.810  0.3255 -0.0791 -0.1036
  611MOL0     C82362   5.295   4.043   6.865  0.8555  0.1502  0.2501
  611MOL0     C82363   5.313   4.188   6.914  0.3632 -0.6919  0.2559
  611MOL0     C82364   5.442   4.192   6.978  0.2593 -0.4692  0.2032
  611MOL0     C82365   5.480   4.311   7.061 -1.1228 -0.8009  0.0954
  611MOL0     C82366   5.583   4.286   7.170 -0.0781 -0.4865 -0.4226
  611MOL0     N82367   5.714   4.250   7.118 -0.3145  0.1683 -0.0266
  611MOL0     C82368   5.808   4.347   7.082  0.2853 -0.2640 -1.2059
  611MOL0     C82369   5.909   4.281   7.026 -0.3377  0.0701 -0.7324
  611MOL0     C82370   6.027   4.347   6.956  0.6316 -0.1891  0.0541
  611MOL0     C82371   5.970   4.445   6.847  0.7356  0.1541 -0.5906
  611MOL0     C82372   5.869   4.378   6.754 -0.0977 -0.3947  0.0571
  611MOL0     C82373   5.874   4.423   6.616 -0.2464  0.7302  0.5352
  611MOL0     O82374   5.864   4.570   6.580  0.2519  0.1165 -0.5223
  611MOL0     C82375   5.763   4.658   6.599  0.0272  0.0317 -0.3431
  611MOL0     C82376   5.788   4.793   6.575  1.1419 -0.1331  0.3179
  611MOL0     C82377   5.676   4.887   6.578  0.9187 -0.1972 -0.7428
  611MOL0     C82378   5.705   5.031   6.527  0.6365  0.3723  0.7721
  611MOL0     C82379   5.553   4.853   6.635  0.0403  0.7896  0.3658
  611MOL0     C82380   5.434   4.947   6.667 -0.5670  0.4679  0.6766
  611MOL0     O82381   5.317   4.889   6.734 -0.1744 -0.2271  0.2910
  611MOL0     C82382   5.203   4.963   6.729 -0.7445 -0.2973 -0.3269
  611MOL0     C82383   5.135   4.970   6.609  0.0498 -0.5103  0.5370
  611MOL0     C82384   4.997   5.013   6.594 -0.0386 -0.4515  0.2525
  611MOL0     C82385   4.937   5.060   6.712 -1.0190  0.3351  0.2722
  611MOL0     O82386   4.809   5.111   6.722  0.5871  0.0717  0.0819
  611MOL0     C82387   4.743   5.141   6.598 -0.3595  0.3887 -0.0995
  611MOL0     C82388   4.615   5.199   6.645  1.0300 -1.4253 -0.0262
  611MOL0     C82389   4.514   5.173   6.538  0.6871  0.6999  0.2807
  611MOL0     C82390   4.387   5.252   6.575 -0.3403  0.1037  0.3242
  611MOL0     C82391   4.297   5.191   6.686  0.0954  0.4314 -0.8195
  611MOL0     C82392   4.177   5.270   6.722 -0.2740  0.6202 -1.0263
  611MOL0     C82393   4.107   5.224   6.850  1.2801 -0.6752 -0.6480
  611MOL0     C82394   3.963   5.267   6.852 -0.0678 -0.2759  0.2612
  611MOL0    Cl82395   3.853   5.145   6.936 -0.1056 -0.0617 -0.4854
  611MOL0     C82396   5.001   5.043   6.841 -0.1868  0.3346 -0.6902
  611MOL0     C82397   5.135   4.991   6.846  0.4158 -0.3780 -0.1189
  611MOL0     O82398   5.441   5.069   6.630 -0.4597  0.2715 -0.1232
  611MOL0     C82399   5.537   4.719   6.677  0.1695  0.7239 -0.7800
  611MOL0     C82400   5.640   4.618   6.656  0.4077 -0.8960  0.7361
  611MOL0     N82401   5.882   4.143   7.025  0.1054  0.7929 -0.0611
  611MOL0     N82402   5.764   4.131   7.081  0.4399 -0.0997 -1.0176
  611MOL0     C82403   4.641   4.070   6.772 -0.0007 -0.0925 -0.8685
  611MOL0     C82404   4.517   4.108   6.719  0.8948 -0.5053  0.6165
  611MOL0     C82405   4.229   4.279   6.433 -0.1626  0.5363 -0.5735
  611MOL0     C82406   4.191   4.225   6.305 -0.1479  0.0277  0.8972
  611MOL0     C82407   4.084   4.272   6.242 -0.0578  0.1235  0.5275
  611MOL0     C82408   3.993   4.363   6.293 -0.2728 -0.8556 -0.2594
  611MOL0     O82409   3.880   4.393   6.214  0.4378  0.3690 -0.4802
  611MOL0     C82410   3.764   4.423   6.275  0.1745  0.3076  0.1217
  611MOL0     C82411   3.646   4.441   6.182 -1.2662 -0.4953  0.7945
  611MOL0     C82412   3.520   4.478   6.257 -0.3680  0.9403 -0.7435
  611MOL0     C82413   3.401   4.492   6.156  0.3680  0.4730  0.8995
  611MOL0     C82414   3.282   4.553   6.224  0.8358 -0.6760  0.1228
  611MOL0     C82415   3.193   4.623   6.276 -0.1081  0.4393 -0.1116
  611MOL0     C82416   4.016   4.415   6.424 -0.4043 -0.0947  0.1435
  611MOL0     C82417   4.132   4.371   6.495  0.5897  0.8352 -0.0455
  611MOL0     H82418   4.533   4.442   6.711  0.8946 -0.5901  0.1176
  611MOL0     H82419   4.766   4.392   6.809 -0.1870  0.3005  1.6223
  611MOL0     H82420   4.830   3.981   6.962  1.2134  0.1984  2.3138
  611MOL0     H82421   4.896   3.927   6.799 -1.9615 -1.2218  1.2298
  611MOL0     H82422   5.062   4.053   7.008 -0.0695 -0.2077  1.2191
  611MOL0     H82423   5.062   3.889   6.959  0.7088  0.1496 -1.1068
  611MOL0     H82424   5.158   3.923   6.760 -0.5727 -1.8598  3.0187
  611MOL0     H82425   5.133   4.099   6.739 -2.9047 -0.5260  0.3466
  611MOL0     H82426   5.316   3.974   6.948 -0.0361  2.1804  2.2621
  611MOL0     H82427   5.352   4.042   6.772  0.4060 -0.5020 -0.0253
  611MOL0     H82428   5.305   4.258   6.830  0.9121 -1.4910 -0.4758
  611MOL0     H82429   5.231   4.225   6.977 -1.4915 -1.2119 -1.7268
  611MOL0     H82430   5.466   4.099   7.030 -0.3073 -0.3517  0.6714
  611MOL0     H82431   5.519   4.192   6.900 -0.5812 -3.6404 -0.8141
  611MOL0     H82432   5.506   4.396   6.997 -1.7227 -1.3922 -0.9548
  611MOL0     H82433   5.383   4.346   7.097 -1.7107 -2.1792 -0.0851
  611MOL0     H82434   5.540   4.213   7.239 -2.3774  1.4105  0.3035
  611MOL0     H82435   5.589   4.377   7.231 -1.2497 -0.0640 -0.9092
  611MOL0     H82436   5.794   4.453   7.098  0.3224 -0.2789 -1.0748
  611MOL0     H82437   6.096   4.387   7.030  1.2478 -1.4608  0.1954
  611MOL0     H82438   6.093   4.279   6.901 -0.0013  0.0159 -0.9797
  611MOL0     H82439   6.056   4.500   6.809  1.6138 -0.1154  0.9334
  611MOL0     H82440   5.907   4.508   6.909 -2.3764 -0.8892 -2.4669
  611MOL0     H82441   5.769   4.402   6.790 -0.0763 -0.5299  0.2075
  611MOL0     H82442   5.872   4.269   6.757 -1.8323 -0.5914 -2.3179
  611MOL0     H82443   5.795   4.368   6.564  2.6911 -2.7529 -0.7739
  611MOL0     H82444   5.966   4.386   6.570 -0.3702  0.8792  0.1636
  611MOL0     H82445   5.887   4.828   6.545 -0.8643  4.0145 -2.3599
  611MOL0     H82446   5.798   5.029   6.470  2.0817 -1.2807  3.0148
  611MOL0     H82447   5.630   5.078   6.463  4.0553  4.1185 -0.8979
  611MOL0     H82448   5.710   5.095   6.615  2.3593  1.4261 -0.0338
  611MOL0     H82449   5.188   4.919   6.529  2.8245  2.1373  0.4914
  611MOL0     H82450   4.948   5.026   6.498  0.6081 -0.0897 -0.0399
  611MOL0     H82451   4.814   5.208   6.547  2.2921 -1.2907  1.1340
  611MOL0     H82452   4.735   5.053   6.533  2.2507 -1.9905  2.4965
  611MOL0     H82453   4.588   5.141   6.734 -0.6889  2.8988  2.5769
  611MOL0     H82454   4.620   5.305   6.674 -1.4572 -1.1083 -0.5742
  611MOL0     H82455   4.495   5.065   6.538 -2.1576  0.9999  3.9455
  611MOL0     H82456   4.542   5.209   6.439  0.7954  2.5967  0.9701
  611MOL0     H82457   4.411   5.355   6.603 -0.7713  0.7834 -1.6430
  611MOL0     H82458   4.337   5.259   6.478  0.4783  1.9205 -0.0147
  611MOL0     H82459   4.360   5.171   6.773 -2.8349 -0.7380  1.1773
  611MOL0     H82460   4.278   5.090   6.647  0.7823  0.9795 -2.7059
  611MOL0     H82461   4.203   5.373   6.747 -3.5520  1.0995  0.9726
  611MOL0     H82462   4.112   5.264   6.634  1.5046 -1.6145 -2.3078
  611MOL0     H82463   4.152   5.264   6.941 -1.6124  0.1221  0.5548
  611MOL0     H82464   4.103   5.115   6.856  0.2614 -0.7924 -2.4872
  611MOL0     H82465   3.917   5.275   6.753 -1.1289 -1.2627  0.6496
  611MOL0     H82466   3.958   5.365   6.901  0.0643 -0.5177  0.7684
  611MOL0     H82467   4.938   5.072   6.925 -2.8418 -2.6115 -1.4583
  611MOL0     H82468   5.161   4.970   6.949 -2.4416  0.7803  0.9363
  611MOL0     H82469   5.444   4.695   6.728  0.0364  2.8323  0.0932
  611MOL0     H82470   5.623   4.516   6.688  0.3056 -0.3763  2.4446
  611MOL0     H82471   4.658   3.963   6.783  3.9741  0.5411  0.6503
  611MOL0     H82472   4.446   4.027   6.701  0.6120 -0.3357  0.9418
  611MOL0     H82473   4.251   4.147   6.258 -0.2328  1.4850 -1.7727
  611MOL0     H82474   4.053   4.240   6.143  1.4504  0.8588 -0.2181
  611MOL0     H82475   3.735   4.353   6.355 -2.4012 -1.3984 -2.1300
  611MOL0     H82476   3.769   4.524   6.318 -2.3481  0.1163  1.0125
  611MOL0     H82477   3.635   4.357   6.113 -0.3216  0.1453 -0.1804
  611MOL0     H82478   3.676   4.518   6.111  0.2801 -1.2269  0.6184
  611MOL0     H82479   3.537   4.567   6.317  1.4846 -0.7531  1.4481
  611MOL0     H82480   3.486   4.394   6.320  0.8686  2.3164  1.9383
  611MOL0     H82481   3.374   4.400   6.102  0.8001  1.2398 -0.7128
  611MOL0     H82482   3.440   4.571   6.092 -1.9404  1.2692  0.3929
  611MOL0     H82483   3.116   4.689   6.312  0.3264  1.0627 -0.3113
  611MOL0     H82484   3.947   4.486   6.469 -0.9291  1.6911 -3.1264
  611MOL0     H82485   4.140   4.394   6.600 -3.0929  1.5199  0.2265
  612MOL0     O82486   1.528  10.123   3.025 -0.5740  0.2247  0.8019
  612MOL0     C82487   1.597  10.081   3.114 -0.1193  0.8526 -0.3974
  612MOL0     O82488   1.546  10.022   3.228 -0.3940  0.3650  0.0539
  612MOL0     C82489   1.418  10.037   3.261  0.2895  0.3479 -0.1715
  612MOL0     C82490   1.383  10.086   3.385 -0.2955  0.6004 -0.6353
  612MOL0     C82491   1.251  10.103   3.426  0.0266  0.1165  0.2229
  612MOL0     C82492   1.147  10.080   3.338 -0.3727  0.0215 -0.8753
  612MOL0     O82493   1.022  10.103   3.391 -0.5068 -0.8585  0.4661
  612MOL0     C82494   0.902  10.106   3.315  0.9780  0.0564 -0.2276
  612MOL0     C82495   0.827   9.976   3.331  0.0889  0.3936 -1.2123
  612MOL0     C82496   0.783   9.923   3.466 -0.0076 -0.3101 -0.1754
  612MOL0     C82497   0.668   9.828   3.464  1.2102 -0.1149 -0.5683
  612MOL0     C82498   0.709   9.680   3.433 -0.9139  0.8973  0.3575
  612MOL0     C82499   0.744   9.602   3.559  0.1578  0.4091  0.5777
  612MOL0     C82500   0.810   9.468   3.531 -0.0864  0.2843 -0.2827
  612MOL0     C82501   0.714   9.371   3.450 -0.0702 -0.4937 -0.2309
  612MOL0     N82502   0.578   9.362   3.512 -0.1305 -0.3096  0.1982
  612MOL0     C82503   0.566   9.316   3.635  0.6029  0.0647 -0.3972
  612MOL0     C82504   0.434   9.307   3.650  0.9682 -0.1288  0.4651
  612MOL0     C82505   0.370   9.278   3.777 -0.3083 -0.4005 -0.0566
  612MOL0     C82506   0.310   9.391   3.848 -0.2556 -0.7064 -0.4287
  612MOL0     C82507   0.408   9.499   3.905 -0.8474 -0.1813 -1.0867
  612MOL0     C82508   0.479   9.469   4.035  0.1741 -0.8355  0.9623
  612MOL0     O82509   0.588   9.554   4.048  0.4975 -0.2529  0.5355
  612MOL0     C82510   0.725   9.512   4.075 -0.4521 -0.0507  0.8608
  612MOL0     C82511   0.819   9.602   4.132 -0.1139  0.1298 -0.1558
  612MOL0     C82512   0.957   9.574   4.161 -0.1011 -0.5429  0.5228
  612MOL0     C82513   1.046   9.687   4.208  0.5271  0.0245  1.3222
  612MOL0     C82514   0.995   9.439   4.134  0.1023 -0.1440 -0.0417
  612MOL0     C82515   1.140   9.389   4.149  0.2393 -0.2415 -0.0571
  612MOL0     O82516   1.235   9.477   4.200  0.1494  0.9870 -0.1251
  612MOL0     C82517   1.358   9.425   4.247  0.6458  0.2029  0.9141
  612MOL0     C82518   1.373   9.305   4.323 -0.6649 -0.3633 -0.0856
  612MOL0     C82519   1.504   9.265   4.351  0.5117 -1.9016  0.4255
  612MOL0     C82520   1.615   9.355   4.329 -0.4295  0.9370 -1.2567
  612MOL0     O82521   1.746   9.328   4.355 -0.1132  0.1852  0.3417
  612MOL0     C82522   1.797   9.219   4.417  0.0520 -0.0062 -0.4123
  612MOL0     C82523   1.830   9.107   4.309  0.3728 -0.9812 -0.1346
  612MOL0     C82524   1.905   8.984   4.356  0.0301 -1.0738 -0.5063
  612MOL0     C82525   2.054   9.013   4.410  0.6550 -0.3200  0.1054
  612MOL0     C82526   2.140   9.078   4.298  0.0790  0.0500  0.3754
  612MOL0     C82527   2.275   9.133   4.359 -0.2162 -0.8153  0.0169
  612MOL0     C82528   2.347   9.246   4.291 -0.7044  0.0535  0.9344
  612MOL0     C82529   2.284   9.386   4.267  0.3293  0.5604 -0.1203
  612MOL0    Cl82530   2.237   9.479   4.417 -0.6944  0.1701  0.1760
  612MOL0     C82531   1.594   9.472   4.265 -0.1121 -0.5612 -0.8821
  612MOL0     C82532   1.464   9.508   4.216  0.0978  0.7043  0.6835
  612MOL0     O82533   1.167   9.279   4.109 -0.7679  0.2734  0.6863
  612MOL0     C82534   0.911   9.351   4.073 -0.3498  0.5841 -0.0018
  612MOL0     C82535   0.775   9.382   4.045  0.8378 -0.4230 -0.1947
  612MOL0     N82536   0.376   9.356   3.536  0.4700 -0.3507  0.7399
  612MOL0     N82537   0.464   9.400   3.456  0.6701  0.9769  0.5627
  612MOL0     C82538   1.173  10.024   3.212  0.9631 -1.0247  0.2840
  612MOL0     C82539   1.310  10.001   3.180 -0.2815 -0.1693 -0.5073
  612MOL0     C82540   1.742  10.086   3.111  0.3025 -0.4195 -0.5993
  612MOL0     C82541   1.830  10.048   3.220 -0.1406 -0.5669  0.4563
  612MOL0     C82542   1.966  10.046   3.196 -0.2793  0.3727 -0.4358
  612MOL0     C82543   2.024  10.102   3.089 -0.2426 -0.0240 -0.2050
  612MOL0     O82544   2.164  10.093   3.060 -0.2284 -0.4161 -0.3590
  612MOL0     C82545   2.256  10.052   3.160 -0.2520  0.1516 -0.7993
  612MOL0     C82546   2.397  10.083   3.095 -0.0548  0.1153 -0.4770
  612MOL0     C82547   2.506  10.063   3.193  0.1293 -1.0128 -0.8402
  612MOL0     C82548   2.512   9.917   3.251  0.7013  0.6177 -0.0984
  612MOL0     C82549   2.627   9.904   3.341 -0.8172  0.2462 -0.9138
  612MOL0     C82550   2.729   9.899   3.414  1.2596 -0.1333  0.4512
  612MOL0     C82551   1.942  10.151   2.985  0.3844  0.0193 -0.2145
  612MOL0     C82552   1.803  10.136   2.997  0.2196 -0.7104 -0.2834
  612MOL0     H82553   1.466  10.106   3.453  0.7713 -1.5709 -1.2058
  612MOL0     H82554   1.231  10.155   3.520  1.4300 -1.4589  1.4560
  612MOL0     H82555   0.843  10.190   3.352  2.6138 -0.1823  3.3237
  612MOL0     H82556   0.933  10.115   3.210  1.2299  1.5486 -0.0548
  612MOL0     H82557   0.732   9.996   3.280 -0.7392  0.9408  0.4661
  612MOL0     H82558   0.881   9.891   3.289  0.7506  0.4986 -0.6037
  612MOL0     H82559   0.865   9.867   3.512 -1.1225 -1.0374  0.9790
  612MOL0     H82560   0.760  10.014   3.523  1.9795  1.2898 -1.7447
  612MOL0     H82561   0.608   9.830   3.556  2.4301  0.0037  0.2472
  612MOL0     H82562   0.601   9.861   3.384  1.7868 -2.5030 -2.1416
  612MOL0     H82563   0.626   9.632   3.380 -0.4057  1.7559 -1.2650
  612MOL0     H82564   0.790   9.675   3.360 -2.8843 -3.0750 -1.8732
  612MOL0     H82565   0.818   9.655   3.620 -0.2556  0.9894  0.5801
  612MOL0     H82566   0.654   9.609   3.622 -0.4217 -0.7966 -0.0867
  612MOL0     H82567   0.907   9.482   3.483  1.2083  0.1247  2.1179
  612MOL0     H82568   0.832   9.412   3.623 -0.3219 -3.4447 -2.2674
  612MOL0     H82569   0.766   9.276   3.464  0.6052 -0.4017 -1.9132
  612MOL0     H82570   0.717   9.407   3.347  2.9269 -0.9771 -0.4181
  612MOL0     H82571   0.632   9.279   3.712  0.1395  3.6065  1.9362
  612MOL0     H82572   0.298   9.197   3.768  3.6734 -4.2058 -1.3732
  612MOL0     H82573   0.454   9.254   3.843  0.0205  0.8354 -0.0041
  612MOL0     H82574   0.253   9.344   3.929  2.8114 -2.2714  1.0041
  612MOL0     H82575   0.242   9.431   3.773  0.1434 -2.9693 -2.1035
  612MOL0     H82576   0.352   9.588   3.936 -0.4629  0.5324 -2.3844
  612MOL0     H82577   0.477   9.529   3.826 -1.5326  2.4696 -0.7614
  612MOL0     H82578   0.521   9.368   4.031 -0.2371 -0.9830 -1.9420
  612MOL0     H82579   0.414   9.464   4.123 -2.7711 -0.2512 -1.0480
  612MOL0     H82580   0.789   9.705   4.148 -0.3053 -0.0072  0.3900
  612MOL0     H82581   1.109   9.670   4.295  1.2137 -1.9207  0.4968
  612MOL0     H82582   1.112   9.718   4.126 -1.0462 -0.3979 -0.1491
  612MOL0     H82583   0.984   9.772   4.238 -1.0787 -1.2332  1.7262
  612MOL0     H82584   1.294   9.232   4.337 -1.0866  0.3197  1.1689
  612MOL0     H82585   1.514   9.161   4.382  2.1961 -1.9194 -0.0585
  612MOL0     H82586   1.892   9.237   4.468  1.3540 -0.5537 -2.5153
  612MOL0     H82587   1.722   9.186   4.490  0.1150 -1.6210 -1.0385
  612MOL0     H82588   1.736   9.075   4.265  2.6537 -3.3380 -3.8711
  612MOL0     H82589   1.876   9.153   4.221 -1.5723 -2.2495 -1.9117
  612MOL0     H82590   1.926   8.922   4.269 -0.8249  0.3851 -1.8148
  612MOL0     H82591   1.844   8.934   4.431  1.5687 -0.8520  0.9396
  612MOL0     H82592   2.047   9.072   4.502  3.5890  1.2520 -0.5524
  612MOL0     H82593   2.088   8.914   4.442 -1.6027 -1.1727  0.0764
  612MOL0     H82594   2.092   9.163   4.250 -1.2622 -2.3853 -2.9638
  612MOL0     H82595   2.153   9.003   4.219  5.1476 -0.2667  1.2238
  612MOL0     H82596   2.249   9.181   4.453  2.1813  1.8891 -0.5691
  612MOL0     H82597   2.341   9.046   4.369  0.4823 -0.0750  2.6016
  612MOL0     H82598   2.390   9.207   4.198  0.3087  3.4647 -0.1869
  612MOL0     H82599   2.431   9.280   4.353 -3.5183  3.4829  3.2891
  612MOL0     H82600   2.192   9.384   4.208  1.3230  3.4677 -1.9439
  612MOL0     H82601   2.353   9.444   4.205  1.8780 -1.1696 -0.1169
  612MOL0     H82602   1.683   9.533   4.253  0.8269 -1.3762  1.3739
  612MOL0     H82603   1.444   9.603   4.167  1.3042  2.6111  3.6430
  612MOL0     H82604   0.943   9.248   4.060 -0.6128  0.3108  1.4198
  612MOL0     H82605   0.703   9.304   4.020 -2.0925  1.7578  0.8794
  612MOL0     H82606   1.105   9.992   3.135  4.6784 -1.9438 -2.9388
  612MOL0     H82607   1.329   9.954   3.084 -0.2073 -0.6095 -0.2807
  612MOL0     H82608   1.784  10.018   3.314  0.1415 -1.3369  0.3535
  612MOL0     H82609   2.012   9.994   3.280 -2.5642 -0.1507  0.5779
  612MOL0     H82610   2.236  10.110   3.250 -2.7708 -2.6266  0.6063
  612MOL0     H82611   2.242   9.945   3.175  0.5732  0.2724  1.1470
  612MOL0     H82612   2.400  10.188   3.066  0.2351  1.4166  3.6823
  612MOL0     H82613   2.412  10.035   2.998 -0.7972 -0.9813 -0.0742
  612MOL0     H82614   2.503  10.134   3.276  2.1116 -3.2733  1.3304
  612MOL0     H82615   2.602  10.059   3.140 -1.1258 -1.0201 -3.2105
  612MOL0     H82616   2.517   9.845   3.168 -1.8201  0.3911 -0.1090
  612MOL0     H82617   2.424   9.904   3.314  2.2406 -2.5376  1.6672
  612MOL0     H82618   2.807   9.888   3.486 -0.4228 -0.5755  2.3000
  612MOL0     H82619   1.985  10.173   2.888 -0.1301 -2.2916 -1.0293
  612MOL0     H82620   1.743  10.167   2.912 -0.7554  6.4925  2.4017
  613MOL0     O82621   5.774   1.896   7.851  0.0721  0.0173  0.0204
  613MOL0     C82622   5.693   1.846   7.929 -0.1370 -0.5798  0.3857
  613MOL0     O82623   5.557   1.856   7.912 -0.6028 -0.3716  0.5062
  613MOL0     C82624   5.504   1.936   7.806  0.2318 -0.2638  0.5163
  613MOL0     C82625   5.465   2.066   7.829  0.7072 -0.7325 -0.1121
  613MOL0     C82626   5.410   2.139   7.724  0.2349  0.8328 -0.3850
  613MOL0     C82627   5.393   2.081   7.598  0.3911  0.6380  0.4076
  613MOL0     O82628   5.337   2.161   7.502 -0.3566 -0.3985  0.0689
  613MOL0     C82629   5.188   2.171   7.499  0.3319  0.0868  0.5701
  613MOL0     C82630   5.159   2.239   7.371 -0.4293 -0.1256 -0.3097
  613MOL0     C82631   5.011   2.244   7.347 -0.5066  1.0580 -0.3562
  613MOL0     C82632   4.990   2.301   7.207 -0.0885 -0.2744  1.0038
  613MOL0     C82633   5.045   2.449   7.209  0.5359 -0.3959 -0.2185
  613MOL0     C82634   4.972   2.534   7.099  0.4819  0.1864  0.0238
  613MOL0     C82635   4.985   2.514   6.955  0.2806 -1.5428 -0.0710
  613MOL0     C82636   5.136   2.512   6.925 -0.0493 -0.7684 -0.1283
  613MOL0     N82637   5.170   2.541   6.784 -0.2125 -0.6726 -0.0732
  613MOL0     C82638   5.149   2.669   6.732  0.1237  0.1907 -0.9350
  613MOL0     C82639   5.143   2.643   6.598 -0.0838 -1.4611  0.2579
  613MOL0     C82640   5.106   2.751   6.495 -0.2621 -0.0074  0.6073
  613MOL0     C82641   4.974   2.805   6.528 -0.0368  1.4014 -0.4467
  613MOL0     C82642   4.859   2.703   6.500  0.0478 -0.0771 -1.0689
  613MOL0     C82643   4.722   2.756   6.564  0.3826  0.6893 -0.6880
  613MOL0     O82644   4.704   2.687   6.683  0.2869  0.6605 -0.3610
  613MOL0     C82645   4.577   2.692   6.741 -0.5013 -0.6808 -0.0789
  613MOL0     C82646   4.560   2.631   6.869 -0.4920  0.9654  0.8025
  613MOL0     C82647   4.445   2.617   6.933 -0.0004  0.4224  0.3479
  613MOL0     C82648   4.447   2.545   7.061 -0.4335  0.1746 -0.5547
  613MOL0     C82649   4.325   2.675   6.877 -0.2010 -1.4965 -0.3892
  613MOL0     C82650   4.196   2.689   6.944 -0.2996  0.2061 -0.2107
  613MOL0     O82651   4.197   2.748   7.071 -0.0776  0.2822  0.0476
  613MOL0     C82652   4.076   2.732   7.141 -0.5182  0.0362 -0.6350
  613MOL0     C82653   4.063   2.633   7.239 -0.2591  0.4908 -0.9721
  613MOL0     C82654   3.930   2.616   7.299 -0.8445  0.5594 -0.0665
  613MOL0     C82655   3.830   2.709   7.270 -0.5932  0.8604 -0.0979
  613MOL0     O82656   3.709   2.714   7.330 -0.3501  0.4990  0.1478
  613MOL0     C82657   3.693   2.652   7.453 -1.0660 -0.1410 -0.2456
  613MOL0     C82658   3.587   2.726   7.537  0.3936  0.1152  0.3302
  613MOL0     C82659   3.443   2.736   7.483 -0.4957  0.9252 -0.2733
  613MOL0     C82660   3.368   2.602   7.467 -0.8094  0.1424 -1.0846
  613MOL0     C82661   3.237   2.621   7.380 -0.5087  0.0948  0.1984
  613MOL0     C82662   3.106   2.589   7.450  0.0145 -0.0597  0.7226
  613MOL0     C82663   3.073   2.693   7.566 -0.2715  0.3561 -0.1353
  613MOL0     C82664   2.941   2.673   7.628 -0.0625  0.3730  0.2647
  613MOL0    Cl82665   2.901   2.507   7.652  0.5051  0.0230  0.4106
  613MOL0     C82666   3.854   2.815   7.179 -0.4764 -0.0181  0.3980
  613MOL0     C82667   3.978   2.820   7.111  0.4556 -1.9747 -0.1927
  613MOL0     O82668   4.106   2.617   6.895  0.2157 -0.5151  0.0371
  613MOL0     C82669   4.341   2.750   6.751  0.2139  0.1797  0.4897
  613MOL0     C82670   4.464   2.758   6.687  0.0486 -1.0884 -1.1123
  613MOL0     N82671   5.158   2.515   6.568  0.1724  0.1179  0.4369
  613MOL0     N82672   5.182   2.453   6.684  0.6068  0.1999 -0.2450
  613MOL0     C82673   5.427   1.950   7.576 -0.0637  0.1439  0.4470
  613MOL0     C82674   5.487   1.881   7.684  0.8988  0.1450  0.0841
  613MOL0     C82675   5.743   1.766   8.033 -0.3145  0.4392 -0.3929
  613MOL0     C82676   5.869   1.708   8.017 -0.0945  0.2313  1.0879
  613MOL0     C82677   5.943   1.658   8.128  0.4189  0.2149 -0.4151
  613MOL0     C82678   5.875   1.632   8.249 -0.7845 -0.5344 -0.7267
  613MOL0     O82679   5.957   1.574   8.349  0.3490  0.2976  0.1696
  613MOL0     C82680   5.891   1.519   8.464  0.1284  0.3036  0.5997
  613MOL0     C82681   5.991   1.437   8.549  0.7251 -0.3332  0.4610
  613MOL0     C82682   5.923   1.388   8.670 -0.8866  0.3565  0.0480
  613MOL0     C82683   6.001   1.296   8.766 -0.3569  0.5166  0.3874
  613MOL0     C82684   6.062   1.181   8.696  0.8654 -0.2331 -0.4002
  613MOL0     C82685   6.112   1.106   8.621  0.4041  0.4814 -0.3583
  613MOL0     C82686   5.749   1.674   8.263  1.0518  0.4707  1.2452
  613MOL0     C82687   5.677   1.736   8.156  0.0826 -0.7613  0.2582
  613MOL0     H82688   5.467   2.108   7.929  1.0654  0.8001 -0.7460
  613MOL0     H82689   5.372   2.240   7.732  0.0655  0.7046  0.6471
  613MOL0     H82690   5.141   2.073   7.514 -2.6413  1.2044 -0.6966
  613MOL0     H82691   5.143   2.232   7.578 -1.8447 -1.1414  0.3639
  613MOL0     H82692   5.199   2.340   7.384 -0.0193  0.1507 -3.1910
  613MOL0     H82693   5.221   2.186   7.299 -0.1389  2.1652 -1.8298
  613MOL0     H82694   4.970   2.142   7.345  0.7158  0.5599 -2.1287
  613MOL0     H82695   4.956   2.300   7.423  0.8839  1.1110  0.6421
  613MOL0     H82696   5.053   2.265   7.125  1.9500  0.6204  2.1034
  613MOL0     H82697   4.884   2.288   7.184  0.2579 -0.3310 -0.7493
  613MOL0     H82698   5.029   2.494   7.308  2.6467 -1.5682  0.7239
  613MOL0     H82699   5.152   2.436   7.193  0.9280 -1.1175  2.4555
  613MOL0     H82700   4.866   2.531   7.124  0.2441  1.0809 -0.8048
  613MOL0     H82701   4.994   2.639   7.118 -0.2800  0.4171 -0.3237
  613MOL0     H82702   4.948   2.415   6.926 -3.3315  0.4040 -2.8595
  613MOL0     H82703   4.940   2.578   6.879  4.4390 -0.3907 -1.8599
  613MOL0     H82704   5.181   2.416   6.952  1.5771  0.1362  0.5124
  613MOL0     H82705   5.190   2.589   6.980 -0.2452 -1.0937  0.5336
  613MOL0     H82706   5.141   2.762   6.788  0.3443  0.1271 -0.8002
  613MOL0     H82707   5.173   2.838   6.497 -1.4022  1.0044 -1.3754
  613MOL0     H82708   5.118   2.712   6.394 -2.3273 -0.5996  0.5552
  613MOL0     H82709   4.952   2.900   6.480  2.4197  2.1543 -0.2417
  613MOL0     H82710   4.982   2.830   6.634  1.4001 -0.8729  0.0691
  613MOL0     H82711   4.889   2.611   6.552  0.5404 -0.2846 -1.7067
  613MOL0     H82712   4.853   2.691   6.392  3.2815 -0.6457 -1.2970
  613MOL0     H82713   4.639   2.743   6.494 -0.2410 -1.7504  0.3849
  613MOL0     H82714   4.726   2.863   6.587 -0.8068  0.9512 -1.5981
  613MOL0     H82715   4.654   2.587   6.902 -1.1641 -1.8899 -0.7986
  613MOL0     H82716   4.355   2.495   7.092 -0.2372  2.1797  4.0599
  613MOL0     H82717   4.523   2.467   7.059 -2.7250 -2.2783  1.2354
  613MOL0     H82718   4.471   2.609   7.146  1.6369 -1.1712 -0.0466
  613MOL0     H82719   4.141   2.564   7.268 -1.9290 -2.0454 -2.1021
  613MOL0     H82720   3.922   2.543   7.379 -3.3697  1.0598  0.2214
  613MOL0     H82721   3.664   2.548   7.438  1.0947 -0.7215 -0.7403
  613MOL0     H82722   3.787   2.644   7.509 -0.0511  0.1556 -1.8465
  613MOL0     H82723   3.606   2.664   7.625  3.0653  1.1058  0.5457
  613MOL0     H82724   3.627   2.827   7.550 -0.2266  0.1193  2.5191
  613MOL0     H82725   3.440   2.796   7.391  2.1935  0.7886 -0.5137
  613MOL0     H82726   3.391   2.789   7.564  0.8547 -1.8767  2.6535
  613MOL0     H82727   3.432   2.529   7.416 -0.8478  0.9944 -2.3732
  613MOL0     H82728   3.348   2.557   7.565 -2.4911  1.0547 -0.9826
  613MOL0     H82729   3.245   2.558   7.291  2.7676 -3.3074  2.6190
  613MOL0     H82730   3.239   2.727   7.351 -2.2404  0.3032  0.7199
  613MOL0     H82731   3.019   2.608   7.388  0.0947  1.3576  1.0115
  613MOL0     H82732   3.096   2.485   7.483 -4.6345  0.0920  0.4363
  613MOL0     H82733   3.083   2.798   7.536 -0.6520  0.0109 -1.5719
  613MOL0     H82734   3.150   2.679   7.642  0.3695 -2.2813 -1.1602
  613MOL0     H82735   2.864   2.715   7.562 -1.1197 -2.1478 -0.2189
  613MOL0     H82736   2.940   2.720   7.727  1.0477 -0.8735  0.8876
  613MOL0     H82737   3.778   2.885   7.145  1.0492  1.6010  0.2133
  613MOL0     H82738   3.990   2.896   7.034  2.7825  0.0657  1.9911
  613MOL0     H82739   4.261   2.808   6.707  2.5449  1.6845 -2.1079
  613MOL0     H82740   4.467   2.813   6.594 -2.5064 -0.7852 -1.0769
  613MOL0     H82741   5.426   1.915   7.474  0.6138 -1.0153  0.8162
  613MOL0     H82742   5.514   1.777   7.670 -1.4258 -0.5642  0.4662
  613MOL0     H82743   5.926   1.727   7.927  1.5384  1.2881  2.2847
  613MOL0     H82744   6.046   1.624   8.125  0.7348  1.1198 -0.1406
  613MOL0     H82745   5.859   1.599   8.531  0.2764  0.6938  0.2090
  613MOL0     H82746   5.805   1.455   8.444 -0.8420  1.1801  1.7812
  613MOL0     H82747   6.062   1.514   8.580 -1.8971  1.6130  2.1162
  613MOL0     H82748   6.030   1.354   8.489 -5.6917 -2.4206 -1.7496
  613MOL0     H82749   5.839   1.321   8.649  0.7876 -2.2558  1.1691
  613MOL0     H82750   5.883   1.469   8.731 -0.9694  1.0076 -0.8535
  613MOL0     H82751   5.932   1.261   8.843 -1.2254 -0.2010 -0.6869
  613MOL0     H82752   6.077   1.356   8.818  0.3569  0.7485 -0.8703
  613MOL0     H82753   6.154   1.034   8.552 -2.1798 -2.2273  0.6867
  613MOL0     H82754   5.696   1.643   8.353 -1.7565  0.6172 -0.2355
  613MOL0     H82755   5.577   1.774   8.174  0.4514 -0.7431  2.7578
  614MOL0     O82756   5.681   7.048   0.547 -0.2421 -0.4038 -0.0770
  614MOL0     C82757   5.724   7.110   0.642 -0.3625 -0.2985 -0.4098
  614MOL0     O82758   5.826   7.071   0.725  0.1624 -0.2239  0.4482
  614MOL0     C82759   5.913   6.958   0.707  0.1886  0.0621  0.0014
  614MOL0     C82760   6.013   6.952   0.802  0.1210 -0.0212 -0.8908
  614MOL0     C82761   6.106   6.843   0.793 -0.4894 -0.6970  0.0716
  614MOL0     C82762   6.097   6.742   0.701 -0.7545 -0.0296 -0.1460
  614MOL0     O82763   6.195   6.651   0.704  0.3858 -0.0389 -0.3959
  614MOL0     C82764   6.183   6.535   0.615  0.5906 -0.9515 -0.2386
  614MOL0     C82765   6.297   6.445   0.651 -1.1443  0.8910 -0.8147
  614MOL0     C82766   6.278   6.305   0.593 -0.1020 -0.0862 -0.1238
  614MOL0     C82767   6.322   6.312   0.447  0.1347  0.5730 -0.0905
  614MOL0     C82768   6.342   6.162   0.403 -0.7532  0.7587 -0.2186
  614MOL0     C82769   6.375   6.161   0.248 -0.1874  0.1619  0.1068
  614MOL0     C82770   6.379   6.022   0.197 -0.0976 -0.1142 -0.6049
  614MOL0     C82771   6.347   6.013   0.046 -0.2217  0.5342 -0.5430
  614MOL0     N82772   6.203   6.002   0.013  0.6851 -0.0054 -0.4342
  614MOL0     C82773   6.111   6.110   0.030 -0.2719 -0.1561  0.0027
  614MOL0     C82774   5.999   6.040   0.054  0.8183  0.2918  0.6196
  614MOL0     C82775   5.879   6.097   0.120 -0.5595 -0.3281 -0.2171
  614MOL0     C82776   5.862   6.035   0.254  1.3072 -0.6986  0.3888
  614MOL0     C82777   5.960   6.099   0.354  0.7015 -0.1221 -0.2480
  614MOL0     C82778   5.899   6.217   0.424  0.2630  0.2627 -0.1503
  614MOL0     O82779   5.867   6.326   0.338 -0.3025 -0.2720  0.3956
  614MOL0     C82780   5.760   6.419   0.356 -0.9658  0.2143  0.1236
  614MOL0     C82781   5.651   6.394   0.443 -0.0668  0.3838  0.2751
  614MOL0     C82782   5.556   6.489   0.467 -0.7386  0.3285 -0.8455
  614MOL0     C82783   5.452   6.436   0.564  1.0706  0.0430 -0.1156
  614MOL0     C82784   5.571   6.618   0.407 -0.0449 -0.4711 -0.6030
  614MOL0     C82785   5.470   6.725   0.432 -1.1763  0.5340 -0.8022
  614MOL0     O82786   5.468   6.834   0.347  0.3118  0.5339  0.3505
  614MOL0     C82787   5.394   6.944   0.376  0.6390  0.0600 -0.3825
  614MOL0     C82788   5.342   7.011   0.269  0.6232  0.0215 -0.3787
  614MOL0     C82789   5.260   7.127   0.289 -1.0364 -0.9933  0.1766
  614MOL0     C82790   5.240   7.181   0.411 -0.5262 -0.4164  0.1538
  614MOL0     O82791   5.153   7.286   0.443  0.4646 -0.1332  0.1721
  614MOL0     C82792   5.046   7.329   0.359  0.9809 -0.5091 -0.0874
  614MOL0     C82793   4.959   7.432   0.428 -0.1070 -0.6857  0.5088
  614MOL0     C82794   4.893   7.512   0.322  1.3659  0.2880  1.4500
  614MOL0     C82795   4.758   7.561   0.379  0.4599 -0.2943  0.5821
  614MOL0     C82796   4.637   7.469   0.391 -0.2157 -0.7546  0.1394
  614MOL0     C82797   4.520   7.549   0.452 -0.3221  0.2060 -0.0505
  614MOL0     C82798   4.407   7.452   0.495  0.0977 -0.7914 -0.0208
  614MOL0     C82799   4.287   7.526   0.550 -0.0730 -0.1392  0.5326
  614MOL0    Cl82800   4.161   7.398   0.599  0.6844 -0.0509 -0.0565
  614MOL0     C82801   5.305   7.118   0.520  0.3322 -0.5170  0.6701
  614MOL0     C82802   5.376   7.001   0.503  0.4022 -0.5464  0.5726
  614MOL0     O82803   5.406   6.720   0.535 -0.0389 -0.5414 -0.0404
  614MOL0     C82804   5.679   6.641   0.315  0.1933  0.5682  0.5753
  614MOL0     C82805   5.770   6.538   0.295  1.3264  0.2448  0.6506
  614MOL0     N82806   6.017   5.911   0.012 -0.0384  0.5564 -0.0745
  614MOL0     N82807   6.140   5.888  -0.012 -0.4391 -0.2678  0.3221
  614MOL0     C82808   5.987   6.750   0.609 -0.2727  0.3298  0.5833
  614MOL0     C82809   5.895   6.859   0.611 -0.3827 -0.2845 -0.3705
  614MOL0     C82810   5.663   7.244   0.654  0.2410  0.1872 -0.2654
  614MOL0     C82811   5.688   7.318   0.768  0.6410 -0.2710  0.1138
  614MOL0     C82812   5.647   7.448   0.778  1.0689 -0.1781 -0.7406
  614MOL0     C82813   5.559   7.504   0.671 -0.6461  0.2894 -0.1244
  614MOL0     O82814   5.512   7.622   0.698 -0.0228 -0.7988 -0.3415
  614MOL0     C82815   5.382   7.669   0.646 -0.6356 -0.8672 -0.0778
  614MOL0     C82816   5.361   7.803   0.719  0.3125 -0.1103  0.4477
  614MOL0     C82817   5.262   7.895   0.650  0.3520 -0.6089  0.1179
  614MOL0     C82818   5.116   7.834   0.648 -0.1839 -0.8098  0.6678
  614MOL0     C82819   5.061   7.857   0.521  0.2483  0.2050  1.0567
  614MOL0     C82820   5.011   7.846   0.408 -0.1972 -0.8425 -0.7892
  614MOL0     C82821   5.525   7.414   0.570 -0.0489 -1.0383 -0.3693
  614MOL0     C82822   5.573   7.286   0.561  0.2929 -0.0865 -0.3793
  614MOL0     H82823   6.015   7.026   0.882 -0.8707  1.6979 -2.3909
  614MOL0     H82824   6.190   6.844   0.862  0.4982 -2.1096 -1.0825
  614MOL0     H82825   6.089   6.478   0.616  0.4512 -0.7441 -1.0468
  614MOL0     H82826   6.201   6.560   0.511  2.6868  3.7405  1.0098
  614MOL0     H82827   6.395   6.485   0.625 -1.6674  0.8819 -3.0941
  614MOL0     H82828   6.302   6.428   0.758 -1.5394  3.6465 -0.2725
  614MOL0     H82829   6.341   6.227   0.639  0.6123 -0.1602 -1.1788
  614MOL0     H82830   6.175   6.273   0.606 -0.6288  1.6940  0.2846
  614MOL0     H82831   6.240   6.356   0.389 -3.7567 -1.6882  3.1962
  614MOL0     H82832   6.417   6.366   0.440  0.9499 -0.4128  2.3110
  614MOL0     H82833   6.427   6.119   0.457 -1.1095  0.1850 -0.1095
  614MOL0     H82834   6.257   6.095   0.418  0.6629 -0.5335  2.8279
  614MOL0     H82835   6.291   6.215   0.203  0.8169  1.6533 -0.0469
  614MOL0     H82836   6.460   6.226   0.226 -0.4162  0.1614 -0.8190
  614MOL0     H82837   6.485   6.000   0.212  0.1463  1.1781 -0.3510
  614MOL0     H82838   6.322   5.947   0.254 -2.3802  1.9342 -0.0500
  614MOL0     H82839   6.396   5.923   0.007  2.2381  0.1048  3.0559
  614MOL0     H82840   6.394   6.098  -0.004  1.4202  2.1762  3.4171
  614MOL0     H82841   6.129   6.215   0.047  0.0921 -0.1503 -0.3916
  614MOL0     H82842   5.890   6.205   0.137 -3.0639  0.1955 -1.4397
  614MOL0     H82843   5.786   6.084   0.063 -0.3374 -1.3763 -0.3536
  614MOL0     H82844   5.872   5.926   0.248 -2.3109 -1.1322 -0.0887
  614MOL0     H82845   5.760   6.048   0.290  1.2525 -0.6202  0.2122
  614MOL0     H82846   6.061   6.125   0.321  1.1367  1.3742  1.9898
  614MOL0     H82847   5.965   6.016   0.425 -3.3372  1.0508  1.7143
  614MOL0     H82848   5.967   6.246   0.504 -0.5951  0.0420  0.6764
  614MOL0     H82849   5.802   6.189   0.468  0.2656 -0.3107 -0.5027
  614MOL0     H82850   5.648   6.294   0.485 -0.5933 -1.1322 -3.0666
  614MOL0     H82851   5.351   6.476   0.550 -1.6552 -5.8784 -0.4409
  614MOL0     H82852   5.448   6.327   0.557 -1.0180  0.0096  0.7991
  614MOL0     H82853   5.478   6.464   0.667  3.4913 -3.4316  0.3906
  614MOL0     H82854   5.358   6.978   0.167  1.8959  1.5883 -0.7348
  614MOL0     H82855   5.205   7.162   0.203 -1.7015 -2.6438 -0.1051
  614MOL0     H82856   5.086   7.356   0.260  5.0013  0.0502  1.4903
  614MOL0     H82857   4.970   7.254   0.333 -0.2125  0.4881  0.4355
  614MOL0     H82858   4.893   7.383   0.501 -0.4996  0.5292  0.9837
  614MOL0     H82859   5.026   7.505   0.473 -0.0582  0.8549 -1.8579
  614MOL0     H82860   4.869   7.435   0.248 -0.4476  0.9800  1.2717
  614MOL0     H82861   4.949   7.598   0.284 -0.5323  0.8304 -0.3383
  614MOL0     H82862   4.786   7.590   0.481 -2.0971  0.9376  0.9936
  614MOL0     H82863   4.729   7.652   0.328  0.9296  0.5408  1.7610
  614MOL0     H82864   4.663   7.391   0.464 -0.5127 -1.1796 -0.2053
  614MOL0     H82865   4.616   7.414   0.299 -1.7131 -0.2853  0.1837
  614MOL0     H82866   4.557   7.596   0.544 -0.6321 -1.0583  0.7522
  614MOL0     H82867   4.480   7.624   0.384 -1.2546 -0.5500 -0.3692
  614MOL0     H82868   4.444   7.374   0.562  1.5322 -0.4429 -0.3668
  614MOL0     H82869   4.373   7.394   0.409 -0.2793 -0.4385 -0.1125
  614MOL0     H82870   4.254   7.592   0.469  0.8970 -0.8993 -0.5263
  614MOL0     H82871   4.310   7.580   0.642 -1.0938 -3.5478  3.0178
  614MOL0     H82872   5.294   7.137   0.627  0.8589 -0.6267  0.7463
  614MOL0     H82873   5.425   6.960   0.591  1.3338  0.0269  0.3341
  614MOL0     H82874   5.689   6.734   0.261  1.0268  0.1622 -0.0109
  614MOL0     H82875   5.854   6.554   0.229  0.4241 -4.9783 -2.2704
  614MOL0     H82876   5.962   6.666   0.544  0.8555  1.8761 -2.0190
  614MOL0     H82877   5.817   6.851   0.536  0.7885 -2.7565 -1.4488
  614MOL0     H82878   5.755   7.281   0.845 -0.0278  0.7216  1.2265
  614MOL0     H82879   5.672   7.518   0.857  0.6480 -1.4918  0.6055
  614MOL0     H82880   5.384   7.689   0.539 -1.5107 -3.2076 -0.5897
  614MOL0     H82881   5.307   7.595   0.676  0.8873 -1.3593  2.8594
  614MOL0     H82882   5.456   7.857   0.725  0.9535 -1.2672  1.2334
  614MOL0     H82883   5.332   7.789   0.824  2.0928  0.8046  1.1002
  614MOL0     H82884   5.313   7.908   0.554  1.8959 -0.5445  0.9149
  614MOL0     H82885   5.255   7.992   0.701  0.2072  1.2749 -3.1717
  614MOL0     H82886   5.048   7.884   0.718 -1.6052 -0.3097 -1.0154
  614MOL0     H82887   5.121   7.726   0.669 -2.7172 -0.8260  1.5320
  614MOL0     H82888   4.971   7.842   0.309 -3.3676  0.4300  0.2988
  614MOL0     H82889   5.444   7.446   0.505  1.2761 -0.3471 -1.7467
  614MOL0     H82890   5.549   7.236   0.467 -0.2432 -1.4698  0.4672
  615MOL0     O82891   8.653   8.417   6.003 -0.2341  0.1469  0.0694
  615MOL0     C82892   8.611   8.484   6.099 -0.5268  0.8388 -0.8096
  615MOL0     O82893   8.588   8.435   6.231 -0.3078 -0.3095  0.7723
  615MOL0     C82894   8.607   8.315   6.285  0.1534 -0.0087  1.3171
  615MOL0     C82895   8.650   8.202   6.208 -0.2504  0.2497  0.0377
  615MOL0     C82896   8.651   8.078   6.269 -0.1781  0.1268 -0.4423
  615MOL0     C82897   8.602   8.070   6.399 -0.6643 -0.2724  0.3094
  615MOL0     O82898   8.591   7.944   6.459  0.1211  0.3455  0.1015
  615MOL0     C82899   8.466   7.887   6.479 -0.0252 -0.1679 -0.2799
  615MOL0     C82900   8.477   7.734   6.509  1.1812 -0.5901 -0.6712
  615MOL0     C82901   8.535   7.696   6.645  0.5324  0.3589  0.1876
  615MOL0     C82902   8.553   7.541   6.636  0.0415 -0.4013 -0.5023
  615MOL0     C82903   8.600   7.478   6.762 -0.9806  0.1217  0.0269
  615MOL0     C82904   8.501   7.501   6.880  0.3664 -0.4472  0.2867
  615MOL0     C82905   8.518   7.412   7.006  0.2925 -0.1220 -0.0158
  615MOL0     C82906   8.513   7.263   6.971  0.4319 -0.2666 -0.9096
  615MOL0     N82907   8.384   7.211   6.915 -0.2963 -0.7215 -0.7619
  615MOL0     C82908   8.264   7.227   6.976 -1.2394  0.5429 -0.2997
  615MOL0     C82909   8.185   7.160   6.894 -0.1255  0.0361  0.2476
  615MOL0     C82910   8.046   7.115   6.922 -0.1362  0.3852 -0.2852
  615MOL0     C82911   7.933   7.141   6.823  0.1239  1.0012 -0.3189
  615MOL0     C82912   7.793   7.087   6.854 -0.5761  0.7111 -0.7563
  615MOL0     C82913   7.691   7.110   6.748 -0.6187 -0.1646 -0.1392
  615MOL0     O82914   7.689   7.009   6.656 -0.4100  0.2441  0.6636
  615MOL0     C82915   7.608   7.004   6.545 -0.7398  0.2093 -0.2902
  615MOL0     C82916   7.498   7.083   6.526 -0.6139  0.6868  0.0293
  615MOL0     C82917   7.420   7.058   6.410 -0.5781 -0.1118  0.0099
  615MOL0     C82918   7.288   7.126   6.390  0.9818 -0.4965  0.0006
  615MOL0     C82919   7.459   6.955   6.319 -0.0826 -0.3512 -0.3047
  615MOL0     C82920   7.378   6.922   6.196  0.0880  0.7808 -1.0217
  615MOL0     O82921   7.327   7.030   6.126  0.1810  0.1517  0.8657
  615MOL0     C82922   7.271   7.003   6.007 -0.5561  0.7574  0.5568
  615MOL0     C82923   7.129   6.986   5.994  0.2956  0.4515  0.0245
  615MOL0     C82924   7.073   6.982   5.867 -1.2304  0.3564 -0.7105
  615MOL0     C82925   7.155   6.987   5.755  0.2648 -0.5022 -0.4269
  615MOL0     O82926   7.077   6.983   5.643  0.3213  0.6201 -0.2503
  615MOL0     C82927   7.130   6.986   5.508  0.6194  0.1581 -0.5980
  615MOL0     C82928   7.058   7.087   5.426 -0.5189 -1.3905 -0.6278
  615MOL0     C82929   7.078   7.227   5.492 -0.0546  0.4023  0.3608
  615MOL0     C82930   7.211   7.300   5.447 -0.0509 -0.7593  0.1197
  615MOL0     C82931   7.298   7.366   5.548 -0.2384  0.4108 -0.0546
  615MOL0     C82932   7.215   7.472   5.626 -0.2122  0.9850  0.4793
  615MOL0     C82933   7.314   7.529   5.726  0.7207  1.1381  0.5564
  615MOL0     C82934   7.272   7.663   5.777 -0.2345 -0.0378 -0.5418
  615MOL0    Cl82935   7.267   7.789   5.645  0.1530 -0.0483  0.2528
  615MOL0     C82936   7.293   7.001   5.769 -0.9901  0.4688 -0.4690
  615MOL0     C82937   7.347   7.002   5.894  0.3471  0.3153  0.2740
  615MOL0     O82938   7.369   6.805   6.175 -0.0203 -0.1656  0.0427
  615MOL0     C82939   7.568   6.874   6.347 -0.3727  0.3218  0.1282
  615MOL0     C82940   7.637   6.896   6.462  0.2036 -0.1010  0.0422
  615MOL0     N82941   8.255   7.112   6.783 -0.6982 -1.0111  0.4014
  615MOL0     N82942   8.372   7.149   6.799  0.2905 -0.5915  0.1946
  615MOL0     C82943   8.559   8.178   6.468  0.2642 -0.6267 -0.2327
  615MOL0     C82944   8.571   8.313   6.422 -0.7995  1.3145  0.6835
  615MOL0     C82945   8.599   8.629   6.082  0.4421 -0.4666  0.6340
  615MOL0     C82946   8.613   8.686   5.956 -0.1350 -0.2833 -0.2752
  615MOL0     C82947   8.597   8.819   5.935  0.1275 -0.0848  0.5597
  615MOL0     C82948   8.572   8.905   6.038  0.4801 -1.2500  0.5743
  615MOL0     O82949   8.558   9.043   6.010  0.5430  0.4169 -0.4062
  615MOL0     C82950   8.464   9.118   6.083  1.5054  0.4707  0.6408
  615MOL0     C82951   8.434   9.246   6.003  1.0306 -0.1505  0.3931
  615MOL0     C82952   8.328   9.208   5.887  0.2109  0.4570  0.7294
  615MOL0     C82953   8.308   9.316   5.784 -0.0368  0.9490 -0.6798
  615MOL0     C82954   8.232   9.266   5.669  0.6620 -0.3672  0.1297
  615MOL0     C82955   8.162   9.228   5.576 -0.3565  0.2605  0.1410
  615MOL0     C82956   8.553   8.854   6.165 -0.9163 -0.8060  0.3277
  615MOL0     C82957   8.580   8.718   6.187  0.4290  0.2864 -0.3248
  615MOL0     H82958   8.668   8.201   6.101 -2.0390 -0.3636 -0.2941
  615MOL0     H82959   8.659   7.981   6.221 -3.8132  0.2452 -1.6041
  615MOL0     H82960   8.420   7.931   6.568  2.4904 -0.4814  1.2660
  615MOL0     H82961   8.412   7.904   6.385 -1.3121  2.3661  0.8298
  615MOL0     H82962   8.380   7.686   6.495  1.7757 -1.3319 -2.6006
  615MOL0     H82963   8.540   7.704   6.424 -1.5902  0.0387 -3.1264
  615MOL0     H82964   8.625   7.758   6.656 -2.0436  4.4579  0.2169
  615MOL0     H82965   8.466   7.720   6.726 -1.6030 -0.9006 -1.1681
  615MOL0     H82966   8.463   7.491   6.600 -0.2646  2.1165 -3.7069
  615MOL0     H82967   8.630   7.516   6.563  1.3158  1.1144  0.2400
  615MOL0     H82968   8.606   7.375   6.726 -1.2555 -0.2318  0.9622
  615MOL0     H82969   8.705   7.508   6.776 -0.6996 -1.0863  0.6359
  615MOL0     H82970   8.507   7.605   6.914 -3.6883  0.9704 -2.4926
  615MOL0     H82971   8.401   7.485   6.838  0.2806  1.0642 -0.1593
  615MOL0     H82972   8.615   7.432   7.051 -0.6762  1.0238  1.6729
  615MOL0     H82973   8.441   7.437   7.079 -2.5518 -1.8442 -2.1650
  615MOL0     H82974   8.544   7.214   7.064  0.3159  1.0918 -0.1209
  615MOL0     H82975   8.593   7.245   6.899  1.1709  0.7930 -0.3842
  615MOL0     H82976   8.253   7.264   7.077 -1.0922  0.8085 -0.3772
  615MOL0     H82977   8.052   7.007   6.934 -2.8531 -0.2603 -3.2684
  615MOL0     H82978   8.010   7.156   7.017 -2.2070 -1.0411 -0.3914
  615MOL0     H82979   7.954   7.078   6.736 -3.3207 -0.3521 -0.3229
  615MOL0     H82980   7.933   7.249   6.803  0.7315  1.3125  1.2179
  615MOL0     H82981   7.758   7.134   6.947 -1.5612 -0.5528 -0.4620
  615MOL0     H82982   7.796   6.979   6.870 -3.4368  0.6415 -0.1533
  615MOL0     H82983   7.701   7.208   6.700  0.2925 -0.1119  0.1302
  615MOL0     H82984   7.591   7.111   6.792 -1.1132 -2.2122 -1.1087
  615MOL0     H82985   7.460   7.158   6.595 -2.5886 -0.4152  0.2424
  615MOL0     H82986   7.208   7.061   6.353 -0.4227  1.5915 -0.8301
  615MOL0     H82987   7.256   7.185   6.477  0.1890  0.8203 -1.1354
  615MOL0     H82988   7.308   7.191   6.305  0.5574 -1.6011 -0.9600
  615MOL0     H82989   7.058   6.980   6.076 -0.7904 -0.3664 -0.9435
  615MOL0     H82990   6.966   6.967   5.858 -0.9971 -0.7670 -1.9191
  615MOL0     H82991   7.239   7.002   5.504  0.5024  0.7863 -2.8401
  615MOL0     H82992   7.105   6.898   5.449 -0.7786  0.8599 -1.1075
  615MOL0     H82993   7.095   7.088   5.323  1.9634 -0.2533  0.1955
  615MOL0     H82994   6.950   7.071   5.435 -0.4847 -1.4155 -0.2497
  615MOL0     H82995   7.067   7.217   5.601  2.9482 -1.4723  0.5917
  615MOL0     H82996   6.994   7.295   5.474  0.1735  0.9966  1.4144
  615MOL0     H82997   7.282   7.225   5.410  0.3711  0.1701 -1.0090
  615MOL0     H82998   7.189   7.364   5.362  1.4909  1.9375  1.6082
  615MOL0     H82999   7.385   7.411   5.500  0.2292 -0.4392 -0.0274
  615MOL0     H83000   7.332   7.301   5.629 -0.5487  2.0324  1.4475
  615MOL0     H83001   7.167   7.543   5.559  2.5993  3.5098  0.9087
  615MOL0     H83002   7.130   7.432   5.682 -1.7429  5.5504  1.8117
  615MOL0     H83003   7.417   7.531   5.690  1.0003  1.0883  1.3247
  615MOL0     H83004   7.325   7.457   5.808  0.4484 -2.4872 -2.3112
  615MOL0     H83005   7.347   7.690   5.851 -1.8710 -0.9697  1.5536
  615MOL0     H83006   7.179   7.654   5.834  0.8391  0.1884  1.3081
  615MOL0     H83007   7.348   7.017   5.677 -0.9822 -1.3251 -0.8219
  615MOL0     H83008   7.453   7.009   5.916  0.6743  2.2816 -1.5698
  615MOL0     H83009   7.612   6.796   6.285 -1.4706 -0.8685  0.7911
  615MOL0     H83010   7.726   6.835   6.480 -0.0970 -0.6552 -0.2979
  615MOL0     H83011   8.505   8.155   6.559 -1.3182 -0.2678 -1.0516
  615MOL0     H83012   8.533   8.393   6.485  1.1620  0.1105  3.6658
  615MOL0     H83013   8.634   8.623   5.871  0.3886 -1.3568  0.6287
  615MOL0     H83014   8.616   8.866   5.839 -1.9628  0.5409  0.4007
  615MOL0     H83015   8.378   9.052   6.098  3.1402 -1.5435  1.8345
  615MOL0     H83016   8.497   9.141   6.184  2.9832  1.0563  0.0618
  615MOL0     H83017   8.526   9.284   5.956 -0.2812  2.9346  0.0696
  615MOL0     H83018   8.395   9.317   6.077  1.2281 -0.0047  0.3573
  615MOL0     H83019   8.232   9.169   5.922 -0.0893 -0.4990 -1.0556
  615MOL0     H83020   8.374   9.130   5.826 -1.5919 -0.8662  1.0069
  615MOL0     H83021   8.407   9.356   5.757  1.0750  0.6194  2.5212
  615MOL0     H83022   8.247   9.394   5.831  2.1480  2.8862 -0.8465
  615MOL0     H83023   8.097   9.190   5.499 -0.3247 -4.2043  2.0349
  615MOL0     H83024   8.523   8.919   6.247 -0.2575 -1.8372  1.4110
  615MOL0     H83025   8.580   8.669   6.284 -0.9966 -0.1536 -0.5319
  616MOL0     O83026   4.090   9.624   2.617  0.8377 -0.2195  0.3537
  616MOL0     C83027   4.063   9.693   2.723 -0.0172  0.7294  0.4566
  616MOL0     O83028   4.002   9.813   2.728  0.1318  0.2375  0.1123
  616MOL0     C83029   4.002   9.883   2.609  0.5281 -0.2614  0.4103
  616MOL0     C83030   3.904   9.850   2.505 -0.9629 -0.5326 -0.9600
  616MOL0     C83031   3.904   9.924   2.377  0.1421 -0.7442 -0.8622
  616MOL0     C83032   3.987  10.031   2.361  0.1054  0.3659 -0.5004
  616MOL0     O83033   3.982  10.090   2.235  0.2330  0.0778 -0.4134
  616MOL0     C83034   4.018  10.222   2.208 -0.2793 -0.1794  0.0671
  616MOL0     C83035   4.094  10.226   2.073  0.4518  0.5010  0.7514
  616MOL0     C83036   4.219  10.133   2.059  0.5697  0.5529 -0.2314
  616MOL0     C83037   4.332  10.187   1.960  0.4941  0.4302  0.0823
  616MOL0     C83038   4.278  10.243   1.819 -0.0842 -0.6707  0.2427
  616MOL0     C83039   4.243  10.127   1.731 -0.1909 -0.6326 -0.0039
  616MOL0     C83040   4.148  10.163   1.609 -0.3154 -0.7197  0.4547
  616MOL0     C83041   4.096  10.051   1.521  0.1842  0.2568  0.5388
  616MOL0     N83042   4.186   9.930   1.514 -1.1698 -0.0184  1.3572
  616MOL0     C83043   4.305   9.949   1.444  1.3592  0.2248  0.4203
  616MOL0     C83044   4.347   9.816   1.427  0.1654  0.4567 -0.7909
  616MOL0     C83045   4.469   9.749   1.354  0.0986 -0.0141 -0.7266
  616MOL0     C83046   4.579   9.841   1.291 -0.3618 -0.0936 -0.1298
  616MOL0     C83047   4.709   9.758   1.263  0.2618  0.1001  0.2214
  616MOL0     C83048   4.783   9.690   1.377 -0.3862 -1.0241  0.0291
  616MOL0     O83049   4.779   9.752   1.510  0.0982  0.0415  0.2296
  616MOL0     C83050   4.826   9.885   1.516  0.1571 -0.0526 -0.4978
  616MOL0     C83051   4.745   9.963   1.594  0.4197 -1.1790  0.1654
  616MOL0     C83052   4.748  10.106   1.587  0.1850 -0.2687 -0.1130
  616MOL0     C83053   4.631  10.175   1.643  0.4553 -0.1167 -0.4093
  616MOL0     C83054   4.870  10.161   1.545  1.0257 -0.3658  0.2156
  616MOL0     C83055   4.919  10.302   1.562  0.5730  0.5241 -0.2247
  616MOL0     O83056   5.033  10.346   1.497 -0.4086  0.1475 -0.2193
  616MOL0     C83057   5.067  10.479   1.492  0.3276  0.4476 -0.9400
  616MOL0     C83058   5.198  10.518   1.485 -1.2803  0.0641 -1.1950
  616MOL0     C83059   5.237  10.644   1.480  0.8396  0.6729  0.3919
  616MOL0     C83060   5.142  10.742   1.466  0.2336 -0.0322  0.2324
  616MOL0     O83061   5.178  10.878   1.445 -0.5251  0.7236  0.0248
  616MOL0     C83062   5.317  10.929   1.473  0.5244 -0.2810 -0.7235
  616MOL0     C83063   5.394  10.912   1.342 -0.3573 -0.1326 -0.4408
  616MOL0     C83064   5.543  10.966   1.355  0.2900 -0.3620  0.4491
  616MOL0     C83065   5.628  10.874   1.444  0.9388  0.4136 -0.1670
  616MOL0     C83066   5.763  10.926   1.481 -0.3782  0.2828 -0.8514
  616MOL0     C83067   5.824  10.840   1.591 -0.0316 -0.4916 -0.5802
  616MOL0     C83068   5.974  10.866   1.617 -0.2247 -0.3877  0.1970
  616MOL0     C83069   6.004  11.002   1.681  0.1202  0.8160 -0.4364
  616MOL0    Cl83070   6.033  11.112   1.558 -0.0596 -0.2398  0.1960
  616MOL0     C83071   5.005  10.710   1.463  0.3269  0.6169 -0.4433
  616MOL0     C83072   4.966  10.577   1.479  0.5711  0.2869 -0.8156
  616MOL0     O83073   4.855  10.370   1.649 -0.4617  0.4427  0.0015
  616MOL0     C83074   4.953  10.074   1.477  0.8548 -0.3769  0.2493
  616MOL0     C83075   4.930   9.944   1.455 -0.8358  0.3725 -0.3910
  616MOL0     N83076   4.256   9.732   1.486  0.3249  0.1362 -0.2272
  616MOL0     N83077   4.157   9.800   1.535  0.1771  0.5281  0.1643
  616MOL0     C83078   4.078  10.064   2.465  0.7871  0.3367  0.2850
  616MOL0     C83079   4.086  10.000   2.592  0.1474  0.7430 -0.2340
  616MOL0     C83080   4.101   9.618   2.850  0.2961 -0.4921 -0.1101
  616MOL0     C83081   4.153   9.488   2.855  0.0984 -0.6192  0.2248
  616MOL0     C83082   4.204   9.433   2.965 -0.0596  0.2392 -0.0782
  616MOL0     C83083   4.203   9.507   3.085 -1.4315  0.7798 -0.5011
  616MOL0     O83084   4.239   9.475   3.218  0.4966 -0.2357 -0.2764
  616MOL0     C83085   4.313   9.356   3.230 -0.9867  0.1363 -0.1903
  616MOL0     C83086   4.384   9.343   3.371  0.3008 -0.5157  0.3541
  616MOL0     C83087   4.507   9.437   3.385 -0.0944  0.2611 -0.0841
  616MOL0     C83088   4.641   9.396   3.308  0.9038 -0.1061 -0.3598
  616MOL0     C83089   4.742   9.501   3.321  0.0470 -1.1407  0.4410
  616MOL0     C83090   4.828   9.580   3.354 -0.9083 -0.1749  0.2458
  616MOL0     C83091   4.156   9.634   3.085  0.3577 -0.9039 -0.0561
  616MOL0     C83092   4.098   9.699   2.971 -0.3109 -0.0512  0.0419
  616MOL0     H83093   3.842   9.765   2.531  3.2305 -3.6227  0.0480
  616MOL0     H83094   3.839   9.893   2.297 -0.6857 -0.4216 -0.3254
  616MOL0     H83095   3.933  10.291   2.209 -2.1761 -2.2233 -3.0251
  616MOL0     H83096   4.095  10.262   2.275 -0.3965 -0.6099  0.4623
  616MOL0     H83097   4.017  10.217   1.996 -0.1681  0.0907  1.4142
  616MOL0     H83098   4.146  10.322   2.074  0.2563  0.6401 -0.7536
  616MOL0     H83099   4.257  10.122   2.160  0.0177 -0.2014 -0.0906
  616MOL0     H83100   4.195  10.030   2.031  1.7707  0.6045 -1.5693
  616MOL0     H83101   4.392  10.262   2.012  0.2441  1.3428 -0.9115
  616MOL0     H83102   4.395  10.102   1.932  0.8504  0.8989 -0.5612
  616MOL0     H83103   4.191  10.309   1.825 -0.3975 -0.8873 -1.4046
  616MOL0     H83104   4.359  10.297   1.770 -0.2311 -2.5514 -2.2958
  616MOL0     H83105   4.339  10.100   1.686 -0.0179 -0.2121  0.1108
  616MOL0     H83106   4.191  10.047   1.784  0.3295  0.0416  1.5836
  616MOL0     H83107   4.059  10.220   1.639 -0.3911 -0.9279  0.6342
  616MOL0     H83108   4.209  10.225   1.543 -1.3941 -0.9510 -0.8023
  616MOL0     H83109   4.082  10.091   1.421  1.3554 -0.8105 -0.0836
  616MOL0     H83110   3.999  10.029   1.567 -1.0962  2.6012 -0.8354
  616MOL0     H83111   4.345  10.040   1.402  0.0156  0.7963  0.3403
  616MOL0     H83112   4.513   9.673   1.419  2.3599  2.1776  0.4851
  616MOL0     H83113   4.413   9.695   1.278 -0.8022 -0.5040  0.2496
  616MOL0     H83114   4.595   9.931   1.351 -0.8982 -0.4907  0.6269
  616MOL0     H83115   4.527   9.874   1.201 -0.6237 -0.4536 -0.1145
  616MOL0     H83116   4.776   9.837   1.226 -1.0517  1.9181  1.5571
  616MOL0     H83117   4.699   9.682   1.185  1.3215 -2.3357  2.3184
  616MOL0     H83118   4.887   9.666   1.354 -1.1944 -2.6238 -2.3346
  616MOL0     H83119   4.731   9.595   1.391 -1.7761 -0.3210 -0.2126
  616MOL0     H83120   4.673   9.903   1.648  1.4862 -2.8781 -0.2152
  616MOL0     H83121   4.635  10.190   1.751  0.2231  2.7879 -0.7162
  616MOL0     H83122   4.618  10.274   1.598 -0.1422 -0.6756 -1.5082
  616MOL0     H83123   4.541  10.117   1.622 -0.5398  1.8643 -2.0519
  616MOL0     H83124   5.266  10.433   1.480 -1.2022  0.1559 -1.7528
  616MOL0     H83125   5.344  10.664   1.476  0.9981  0.6409  2.9208
  616MOL0     H83126   5.304  11.033   1.506  1.3436 -0.4109  0.0444
  616MOL0     H83127   5.359  10.866   1.552  0.5399 -0.8917 -1.2147
  616MOL0     H83128   5.394  10.808   1.308  1.9559 -0.1775 -0.4943
  616MOL0     H83129   5.348  10.961   1.256  1.6458  1.6901 -0.5625
  616MOL0     H83130   5.546  11.067   1.396  1.6115 -0.4098  0.5182
  616MOL0     H83131   5.588  10.966   1.255  0.4472 -1.6389  0.5061
  616MOL0     H83132   5.574  10.850   1.536 -3.4119 -1.8976 -2.9720
  616MOL0     H83133   5.636  10.775   1.396 -1.0669 -0.0544  0.3956
  616MOL0     H83134   5.758  11.030   1.516 -2.2479 -0.1136  0.2205
  616MOL0     H83135   5.828  10.930   1.393  1.5303  1.0077  0.5071
  616MOL0     H83136   5.770  10.863   1.683 -0.9315 -0.2163 -1.1658
  616MOL0     H83137   5.792  10.736   1.581 -3.3918 -0.1045  3.3796
  616MOL0     H83138   6.040  10.853   1.530  3.8886  0.5031  2.9001
  616MOL0     H83139   6.001  10.790   1.691  1.0865  1.9472  2.2624
  616MOL0     H83140   6.093  10.999   1.744 -0.6259  0.1175  0.6124
  616MOL0     H83141   5.920  11.015   1.750 -2.5204  0.0066 -3.2691
  616MOL0     H83142   4.942  10.795   1.439 -1.3045 -0.2774  0.4942
  616MOL0     H83143   4.860  10.554   1.473  0.4312  1.2789 -3.4667
  616MOL0     H83144   5.054  10.097   1.444  1.6062 -1.3733  1.7579
  616MOL0     H83145   4.984   9.879   1.388 -3.3323 -1.4411 -0.7679
  616MOL0     H83146   4.142  10.149   2.444  0.2713  0.3266 -1.4277
  616MOL0     H83147   4.158  10.020   2.670 -0.3606  1.6978  0.0092
  616MOL0     H83148   4.159   9.430   2.763  0.6851 -0.0281 -0.1160
  616MOL0     H83149   4.237   9.329   2.961  2.6923  1.0128  0.1129
  616MOL0     H83150   4.242   9.274   3.219 -1.2860  0.5403 -1.4092
  616MOL0     H83151   4.373   9.341   3.140  1.7260 -0.8696  1.6439
  616MOL0     H83152   4.418   9.240   3.387  0.5347 -0.7020 -1.1846
  616MOL0     H83153   4.316   9.376   3.449  0.7844 -1.3282  1.1355
  616MOL0     H83154   4.523   9.450   3.493 -1.5105  2.1015 -0.0346
  616MOL0     H83155   4.476   9.539   3.358 -0.6744  1.2593  3.7372
  616MOL0     H83156   4.622   9.381   3.201  2.6072 -1.6274 -0.4915
  616MOL0     H83157   4.676   9.297   3.340 -1.7566 -1.1614 -0.5014
  616MOL0     H83158   4.906   9.649   3.381 -0.8000  0.2023 -0.9799
  616MOL0     H83159   4.153   9.689   3.178  0.3713 -0.0302 -0.5555
  616MOL0     H83160   4.060   9.800   2.968 -0.0375  0.0633  0.4257
  617MOL0     O83161   5.414   9.566  10.284  0.7473 -0.7277 -0.1831
  617MOL0     C83162   5.370   9.682  10.289  0.2667 -0.0261 -0.3228
  617MOL0     O83163   5.414   9.788  10.208  0.0691 -0.0549  0.2645
  617MOL0     C83164   5.518   9.783  10.116  1.0844  0.6735  0.3504
  617MOL0     C83165   5.562   9.912  10.077  0.1515 -0.6098  0.9462
  617MOL0     C83166   5.662   9.916   9.978  0.7416  0.6498  0.2277
  617MOL0     C83167   5.730   9.804   9.931 -0.3483 -0.0474 -0.7416
  617MOL0     O83168   5.842   9.807   9.842 -0.6279 -0.7368  0.7131
  617MOL0     C83169   5.903   9.930   9.800  0.4229 -0.7559 -0.9138
  617MOL0     C83170   6.016   9.903   9.698 -0.0690 -0.2140  0.5599
  617MOL0     C83171   6.036  10.026   9.602 -0.2234  0.1182 -1.3113
  617MOL0     C83172   6.166  10.013   9.522 -1.6644  0.1447 -0.1592
  617MOL0     C83173   6.173  10.130   9.420 -0.3349  0.9279  0.2005
  617MOL0     C83174   6.320  10.146   9.363  0.1841 -0.1207  0.6083
  617MOL0     C83175   6.361  10.040   9.253 -0.6536  0.0017  0.4966
  617MOL0     C83176   6.512  10.071   9.222 -0.3587  0.1987 -0.3173
  617MOL0     N83177   6.593  10.019   9.333  0.1853 -0.1206  0.1351
  617MOL0     C83178   6.618   9.884   9.356 -0.6917 -0.0388 -0.3731
  617MOL0     C83179   6.683   9.871   9.469  0.3439 -0.7612 -0.5281
  617MOL0     C83180   6.712   9.737   9.541 -0.3021 -0.0043 -0.2910
  617MOL0     C83181   6.592   9.644   9.557 -1.0892  0.1295 -0.0001
  617MOL0     C83182   6.488   9.706   9.647  0.8267 -0.0257  0.4929
  617MOL0     C83183   6.354   9.642   9.614  0.4783  0.6393 -0.0130
  617MOL0     O83184   6.292   9.681   9.493  0.0205  0.7587  0.0608
  617MOL0     C83185   6.168   9.629   9.457 -0.5528  0.8075  0.6509
  617MOL0     C83186   6.078   9.575   9.548 -0.2543  0.1503  0.0214
  617MOL0     C83187   5.948   9.535   9.516 -0.1474  0.1969  0.2243
  617MOL0     C83188   5.854   9.484   9.624  0.1108  0.6136 -0.4046
  617MOL0     C83189   5.906   9.546   9.378 -0.1235 -0.0108 -0.7898
  617MOL0     C83190   5.779   9.501   9.331  1.0064  0.4304  0.5063
  617MOL0     O83191   5.771   9.442   9.212 -0.3757 -0.3551 -0.0965
  617MOL0     C83192   5.656   9.396   9.156 -0.4316 -0.0321  0.6119
  617MOL0     C83193   5.517   9.387   9.198  0.5318 -0.0779  0.1060
  617MOL0     C83194   5.430   9.338   9.109  0.5254  0.0911 -0.4068
  617MOL0     C83195   5.471   9.293   8.979 -0.3458 -1.2464  0.3938
  617MOL0     O83196   5.392   9.273   8.870 -1.3308  0.3670 -0.0383
  617MOL0     C83197   5.271   9.340   8.862 -0.0308 -0.0060  0.7567
  617MOL0     C83198   5.255   9.379   8.719 -0.2018 -0.4206 -0.2275
  617MOL0     C83199   5.115   9.423   8.675  0.0168 -0.7477  0.3744
  617MOL0     C83200   5.067   9.538   8.753  1.1244 -0.5553 -0.1555
  617MOL0     C83201   4.966   9.625   8.678  0.8937  0.5369 -0.1707
  617MOL0     C83202   4.816   9.583   8.676 -0.4998  0.4401  0.1834
  617MOL0     C83203   4.747   9.677   8.567 -0.4186 -0.0116 -0.6464
  617MOL0     C83204   4.727   9.586   8.444  0.6398  0.3479  0.3695
  617MOL0    Cl83205   4.880   9.493   8.392  0.1106  0.3491  0.3617
  617MOL0     C83206   5.601   9.278   8.951 -0.3704  0.5455 -0.0309
  617MOL0     C83207   5.697   9.333   9.034  0.2802  0.0894  0.2345
  617MOL0     O83208   5.682   9.520   9.398 -0.6999 -0.0314  0.1569
  617MOL0     C83209   5.987   9.609   9.287 -0.1706 -0.2407 -0.2521
  617MOL0     C83210   6.116   9.649   9.326 -0.0222  0.0605  0.3629
  617MOL0     N83211   6.703   9.997   9.521 -0.2425 -0.3198 -0.1078
  617MOL0     N83212   6.653  10.088   9.441  0.1533 -0.1474 -0.3085
  617MOL0     C83213   5.678   9.681   9.961 -0.9264 -0.1309  0.6462
  617MOL0     C83214   5.562   9.668  10.042 -0.0780 -0.0762 -0.2936
  617MOL0     C83215   5.265   9.718  10.388 -0.1489 -0.1515  0.1854
  617MOL0     C83216   5.232   9.630  10.490 -0.5032  0.2090 -0.0938
  617MOL0     C83217   5.126   9.662  10.575 -0.0627  0.0812  0.1637
  617MOL0     C83218   5.061   9.789  10.576  0.0145 -0.1677  0.0635
  617MOL0     O83219   4.978   9.801  10.683 -0.0548 -0.3577 -0.0710
  617MOL0     C83220   4.862   9.890  10.661 -0.3961 -0.0847  0.1380
  617MOL0     C83221   4.750   9.846  10.759  0.1971  0.1269  0.0633
  617MOL0     C83222   4.799   9.872  10.904 -0.3009 -0.1746  0.7504
  617MOL0     C83223   4.701   9.835  11.015  0.8330  0.4928  0.5775
  617MOL0     C83224   4.638   9.711  10.990 -0.9492 -0.4934 -0.1854
  617MOL0     C83225   4.579   9.610  10.974 -0.7091  0.4753 -0.0878
  617MOL0     C83226   5.086   9.869  10.464 -0.2683 -0.3810  0.0428
  617MOL0     C83227   5.184   9.832  10.370 -0.5342 -0.8943 -0.3883
  617MOL0     H83228   5.526  10.005  10.119  0.4179 -0.0274 -0.0811
  617MOL0     H83229   5.680  10.015   9.937 -4.9798  1.5780 -0.9455
  617MOL0     H83230   5.826   9.993   9.753 -0.7373 -1.0485  0.5148
  617MOL0     H83231   5.944   9.992   9.880  1.0126  0.9098 -2.4223
  617MOL0     H83232   6.112   9.900   9.750  0.9930 -0.0953 -1.2759
  617MOL0     H83233   5.999   9.807   9.648 -1.4864  0.5191 -0.4517
  617MOL0     H83234   5.949  10.027   9.537  0.3956  1.4090 -2.1599
  617MOL0     H83235   6.035  10.115   9.667  2.4903 -2.1997  2.3332
  617MOL0     H83236   6.249  10.014   9.594  0.9541  0.5997 -2.9533
  617MOL0     H83237   6.158   9.911   9.481 -1.2157  0.5084 -1.1985
  617MOL0     H83238   6.095  10.115   9.344 -1.6631  1.0660  1.4873
  617MOL0     H83239   6.144  10.222   9.471  0.9352  0.3632  2.0105
  617MOL0     H83240   6.320  10.246   9.319 -0.4367  0.1925  1.3014
  617MOL0     H83241   6.389  10.139   9.447 -2.5800  2.6610  3.4084
  617MOL0     H83242   6.352   9.940   9.296 -0.4814  0.7047  2.2531
  617MOL0     H83243   6.298  10.060   9.167  0.3285 -0.0923 -0.2673
  617MOL0     H83244   6.524  10.179   9.210  0.6945  0.5409  2.9495
  617MOL0     H83245   6.538  10.026   9.126  4.7590 -1.7902  1.6615
  617MOL0     H83246   6.593   9.805   9.286 -0.5865  0.3645 -0.8673
  617MOL0     H83247   6.784   9.677   9.485  0.1568  0.0030  0.2833
  617MOL0     H83248   6.752   9.759   9.640  2.2155 -3.4479 -0.3483
  617MOL0     H83249   6.622   9.552   9.606 -1.4962  0.3668  0.7153
  617MOL0     H83250   6.550   9.625   9.458 -0.5903 -3.3955  0.3611
  617MOL0     H83251   6.474   9.814   9.632  1.1664  0.1688  1.4629
  617MOL0     H83252   6.511   9.701   9.754 -1.2854  2.7050  1.2139
  617MOL0     H83253   6.291   9.680   9.695 -1.8682 -2.6927 -0.0689
  617MOL0     H83254   6.362   9.533   9.613  3.1576  0.6335  3.7199
  617MOL0     H83255   6.115   9.571   9.650 -2.9234 -3.1565  1.0438
  617MOL0     H83256   5.906   9.431   9.705  1.4667  3.0920  0.4325
  617MOL0     H83257   5.797   9.561   9.675 -0.1893  0.1253  0.0140
  617MOL0     H83258   5.787   9.404   9.588  0.3564 -0.3805  1.2572
  617MOL0     H83259   5.489   9.418   9.298  3.0418  0.7562  0.6105
  617MOL0     H83260   5.327   9.342   9.143  0.2641 -2.5624 -0.7401
  617MOL0     H83261   5.185   9.283   8.902  1.0247 -1.3730  1.1711
  617MOL0     H83262   5.286   9.431   8.921 -0.9957  1.0565 -0.5774
  617MOL0     H83263   5.322   9.457   8.681  0.1605 -0.6312 -0.0267
  617MOL0     H83264   5.285   9.291   8.661 -1.1612 -0.6254 -0.4356
  617MOL0     H83265   5.048   9.337   8.680 -1.1503  0.2009  1.7736
  617MOL0     H83266   5.121   9.445   8.568 -1.9746 -3.2292 -0.3340
  617MOL0     H83267   5.015   9.497   8.840 -0.0234  1.0457 -0.0445
  617MOL0     H83268   5.149   9.608   8.772 -0.0308  0.8748 -0.2702
  617MOL0     H83269   5.000   9.647   8.576  1.0154  0.0326 -0.2391
  617MOL0     H83270   4.958   9.720   8.733 -2.7965  0.7036 -0.7468
  617MOL0     H83271   4.797   9.477   8.660 -1.6946  0.8441 -1.3997
  617MOL0     H83272   4.771   9.611   8.772  2.2046  1.4239  1.2704
  617MOL0     H83273   4.806   9.763   8.535  0.2386  1.3827  3.6198
  617MOL0     H83274   4.648   9.711   8.599 -0.7576  0.7947 -2.4583
  617MOL0     H83275   4.674   9.643   8.367  0.0460 -1.2214 -0.4480
  617MOL0     H83276   4.657   9.513   8.487 -0.3734  1.3021  0.3731
  617MOL0     H83277   5.638   9.237   8.858 -1.6107 -1.7818  0.4102
  617MOL0     H83278   5.803   9.320   9.011 -0.0595 -1.1985 -0.7064
  617MOL0     H83279   5.961   9.620   9.182 -0.7772 -0.2910 -0.1093
  617MOL0     H83280   6.173   9.685   9.241  0.9348 -2.7368 -0.2603
  617MOL0     H83281   5.730   9.596   9.916 -0.3328  1.4639 -1.9122
  617MOL0     H83282   5.522   9.570  10.067  2.7765 -1.2843 -0.0355
  617MOL0     H83283   5.285   9.536  10.497 -1.3666 -0.3216 -0.4808
  617MOL0     H83284   5.121   9.597  10.662  1.7457  1.9242  1.7400
  617MOL0     H83285   4.887   9.996  10.667  0.8256 -0.3997  1.0271
  617MOL0     H83286   4.819   9.869  10.563  0.9583  0.6879 -0.6417
  617MOL0     H83287   4.727   9.740  10.747  4.4290 -0.7206 -2.9757
  617MOL0     H83288   4.656   9.900  10.748 -1.4016 -2.5288  0.0793
  617MOL0     H83289   4.825   9.978  10.909  1.9337 -0.5879 -0.5998
  617MOL0     H83290   4.890   9.815  10.924  1.6145  1.4751 -2.4129
  617MOL0     H83291   4.625   9.914  11.010  2.0428  1.6206 -3.3236
  617MOL0     H83292   4.736   9.845  11.118 -1.8970 -3.5190  2.1721
  617MOL0     H83293   4.535   9.516  10.945 -3.0369  1.2040  0.8605
  617MOL0     H83294   5.030   9.961  10.446  2.9666  1.1561 -3.7663
  617MOL0     H83295   5.196   9.899  10.285 -1.6302  0.2870  0.3510
  618MOL0     O83296  11.206   0.058   5.246 -0.2222  0.1103  0.3835
  618MOL0     C83297  11.315   0.078   5.183  0.1816 -0.6339  0.0140
  618MOL0     O83298  11.428   0.011   5.210 -0.5341  0.0771 -0.2767
  618MOL0     C83299  11.426  -0.098   5.291 -0.0216  1.5889  1.0844
  618MOL0     C83300  11.329  -0.202   5.292  0.0778  0.3058 -0.5159
  618MOL0     C83301  11.352  -0.314   5.372 -0.6741  0.0421 -0.1125
  618MOL0     C83302  11.471  -0.338   5.445 -0.0643 -0.0366  0.8968
  618MOL0     O83303  11.492  -0.439   5.531  0.6751 -0.3695 -0.4083
  618MOL0     C83304  11.392  -0.534   5.563  0.7889  0.6939 -0.3552
  618MOL0     C83305  11.379  -0.629   5.444 -0.1091  0.5323 -0.0736
  618MOL0     C83306  11.515  -0.713   5.431  0.7638 -0.5281 -0.4139
  618MOL0     C83307  11.497  -0.866   5.452 -0.8039 -0.3610 -0.6671
  618MOL0     C83308  11.640  -0.927   5.435 -1.3128  0.1521  0.2767
  618MOL0     C83309  11.638  -1.080   5.427 -0.5297  0.8050 -0.0887
  618MOL0     C83310  11.632  -1.137   5.286  0.4994  0.5625 -0.4579
  618MOL0     C83311  11.593  -1.282   5.281  0.3775 -0.1012  0.3634
  618MOL0     N83312  11.608  -1.338   5.150  0.2621  0.3700  0.3977
  618MOL0     C83313  11.700  -1.426   5.111  0.2509  0.1529  0.7059
  618MOL0     C83314  11.681  -1.450   4.978  0.7149 -0.3070 -0.1718
  618MOL0     C83315  11.760  -1.540   4.882 -0.6882  0.7610  0.0902
  618MOL0     C83316  11.900  -1.490   4.840  0.9798 -0.2533  0.0795
  618MOL0     C83317  11.910  -1.343   4.821 -0.7619 -0.2506  0.1718
  618MOL0     C83318  12.046  -1.301   4.754  0.2538 -0.4325 -0.3757
  618MOL0     O83319  12.066  -1.158   4.791  1.0189 -0.1723  0.0820
  618MOL0     C83320  12.182  -1.103   4.740  0.0263 -0.1246  0.3535
  618MOL0     C83321  12.304  -1.167   4.777  0.8263 -0.1556  0.1882
  618MOL0     C83322  12.431  -1.118   4.726  0.1558 -0.8203 -1.1903
  618MOL0     C83323  12.552  -1.191   4.774  0.2736  0.6055  0.9642
  618MOL0     C83324  12.433  -1.004   4.638  0.1308  0.1370 -0.4610
  618MOL0     C83325  12.556  -0.951   4.573 -0.4768 -0.0698 -1.4996
  618MOL0     O83326  12.540  -0.845   4.482 -0.4396  0.8922  0.2290
  618MOL0     C83327  12.648  -0.795   4.413  0.7536 -0.0623 -0.9783
  618MOL0     C83328  12.745  -0.725   4.480  0.6954 -0.2430 -1.1191
  618MOL0     C83329  12.862  -0.682   4.419  0.0327 -0.0423  0.1367
  618MOL0     C83330  12.880  -0.709   4.277 -0.4519 -0.3280 -0.7572
  618MOL0     O83331  12.987  -0.667   4.199 -0.0066 -1.0353 -0.2939
  618MOL0     C83332  13.116  -0.650   4.265 -0.2793 -0.4935  0.2703
  618MOL0     C83333  13.232  -0.613   4.174  0.0326  0.5668  1.0636
  618MOL0     C83334  13.250  -0.723   4.069 -0.3363  0.4928 -0.3699
  618MOL0     C83335  13.396  -0.763   4.039  0.2530 -0.3475  0.1121
  618MOL0     C83336  13.453  -0.847   4.151  0.0405 -0.4343 -0.7548
  618MOL0     C83337  13.575  -0.926   4.106 -0.3759 -0.6714  0.0390
  618MOL0     C83338  13.627  -1.013   4.219 -0.2692 -1.8230  0.1872
  618MOL0     C83339  13.775  -0.981   4.252 -0.4160  0.2398 -0.1810
  618MOL0    Cl83340  13.809  -1.093   4.392  0.0377  0.0635  0.0146
  618MOL0     C83341  12.783  -0.789   4.213 -0.0748  0.2947  0.5904
  618MOL0     C83342  12.672  -0.831   4.278  0.7118 -0.0090  0.0646
  618MOL0     O83343  12.663  -0.989   4.609 -0.6102 -0.5102 -0.2337
  618MOL0     C83344  12.311  -0.947   4.601 -0.0354 -0.3603 -0.5796
  618MOL0     C83345  12.191  -0.992   4.658 -0.2564 -0.4493  0.4967
  618MOL0     N83346  11.558  -1.385   4.945 -0.2210 -0.4637  0.4301
  618MOL0     N83347  11.523  -1.315   5.045  0.2114 -0.7673 -0.1731
  618MOL0     C83348  11.578  -0.240   5.426  0.0597 -0.6271  0.1668
  618MOL0     C83349  11.549  -0.127   5.352 -0.3740 -0.3544 -0.5399
  618MOL0     C83350  11.297   0.175   5.078 -0.5668 -0.7111  0.2386
  618MOL0     C83351  11.198   0.279   5.075 -0.6415  0.6105  0.4961
  618MOL0     C83352  11.199   0.374   4.979  0.1113  0.2779  0.6172
  618MOL0     C83353  11.296   0.380   4.873 -1.2432 -0.4603 -0.0200
  618MOL0     O83354  11.298   0.481   4.776 -0.4526 -0.4351 -0.1067
  618MOL0     C83355  11.230   0.602   4.810 -1.3908  0.4522 -0.7769
  618MOL0     C83356  11.094   0.613   4.749  0.5111  0.1356  0.3548
  618MOL0     C83357  11.093   0.637   4.604  0.3406 -0.4427 -0.0745
  618MOL0     C83358  10.963   0.587   4.535 -0.0315 -0.0058  0.7124
  618MOL0     C83359  10.866   0.700   4.499 -0.9796  1.1112  0.1952
  618MOL0     C83360  10.784   0.789   4.503 -0.5829 -0.6372  0.6763
  618MOL0     C83361  11.389   0.276   4.871  0.1474 -0.5224  0.6972
  618MOL0     C83362  11.394   0.175   4.972  0.8581  0.4465 -0.5290
  618MOL0     H83363  11.233  -0.190   5.243 -0.0634 -3.9793 -1.7590
  618MOL0     H83364  11.266  -0.380   5.374 -0.9544  0.4189  0.7840
  618MOL0     H83365  11.424  -0.578   5.658  2.4304  1.6217 -0.4542
  618MOL0     H83366  11.306  -0.468   5.580  1.0613  0.9543  0.0503
  618MOL0     H83367  11.297  -0.695   5.473 -0.6121  1.7975  1.5426
  618MOL0     H83368  11.345  -0.570   5.359 -4.6488 -4.4786 -2.3373
  618MOL0     H83369  11.563  -0.681   5.338  0.2213  0.3262 -0.4139
  618MOL0     H83370  11.579  -0.679   5.513 -0.2094 -1.1505  0.6134
  618MOL0     H83371  11.454  -0.877   5.552  1.4975 -0.5308  0.3859
  618MOL0     H83372  11.429  -0.918   5.384 -0.7307  0.9020 -1.7692
  618MOL0     H83373  11.682  -0.882   5.344 -0.4938 -0.4673  0.3373
  618MOL0     H83374  11.702  -0.896   5.519 -0.6519 -3.4527  1.2700
  618MOL0     H83375  11.731  -1.118   5.471 -2.2830 -2.7189  0.9192
  618MOL0     H83376  11.553  -1.113   5.487 -0.3857 -0.4381 -0.5411
  618MOL0     H83377  11.562  -1.075   5.229  0.6333  1.1477  0.0035
  618MOL0     H83378  11.733  -1.124   5.245  0.1470  0.5811 -1.3392
  618MOL0     H83379  11.488  -1.306   5.306 -0.1881  2.2333  0.4198
  618MOL0     H83380  11.656  -1.337   5.352  2.7141 -0.8898 -2.1451
  618MOL0     H83381  11.767  -1.478   5.179 -1.9981 -1.1501  2.0431
  618MOL0     H83382  11.788  -1.637   4.924  2.0499  0.5647 -1.9340
  618MOL0     H83383  11.695  -1.548   4.795 -3.3888  0.5579  2.0157
  618MOL0     H83384  11.921  -1.539   4.744 -2.3374  0.9449 -1.4475
  618MOL0     H83385  11.965  -1.520   4.923 -0.5409 -1.0331  1.0389
  618MOL0     H83386  11.910  -1.292   4.918 -1.7493  0.7977 -0.3553
  618MOL0     H83387  11.819  -1.299   4.779 -0.2745 -1.1503 -1.9047
  618MOL0     H83388  12.036  -1.323   4.647 -2.7872 -0.0672 -0.2742
  618MOL0     H83389  12.127  -1.361   4.795 -0.4287 -1.1626 -0.0824
  618MOL0     H83390  12.283  -1.253   4.839 -1.5292  0.3439  0.1969
  618MOL0     H83391  12.530  -1.245   4.867  2.1536  1.1494  1.7701
  618MOL0     H83392  12.583  -1.265   4.700 -3.7596 -0.4308  0.0640
  618MOL0     H83393  12.637  -1.129   4.804  2.6195 -2.2709  0.6962
  618MOL0     H83394  12.724  -0.696   4.582 -1.1764  0.2716 -1.6060
  618MOL0     H83395  12.944  -0.632   4.469  0.5781 -2.5745  1.9898
  618MOL0     H83396  13.112  -0.579   4.347  1.6153 -2.0872  1.8458
  618MOL0     H83397  13.131  -0.749   4.309  1.8364 -0.6261 -0.5954
  618MOL0     H83398  13.212  -0.516   4.128 -3.0479 -0.3691  0.1505
  618MOL0     H83399  13.326  -0.609   4.229  0.6856  1.7729 -0.0891
  618MOL0     H83400  13.208  -0.693   3.973  0.0868  0.5417 -0.5434
  618MOL0     H83401  13.206  -0.818   4.102 -0.6211  0.0422 -1.9732
  618MOL0     H83402  13.384  -0.811   3.942 -1.9382  1.3162 -0.5087
  618MOL0     H83403  13.454  -0.672   4.022 -1.4774  0.8019  0.1243
  618MOL0     H83404  13.379  -0.923   4.177 -0.3989 -0.3468 -1.6945
  618MOL0     H83405  13.470  -0.780   4.235  1.1634 -0.8625 -0.6300
  618MOL0     H83406  13.538  -0.989   4.025 -3.3850 -1.5344  1.9345
  618MOL0     H83407  13.645  -0.852   4.065 -2.1199  0.6326 -0.6831
  618MOL0     H83408  13.638  -1.116   4.184 -1.0669 -1.3719 -1.4676
  618MOL0     H83409  13.557  -1.016   4.303 -3.5400 -2.7741 -2.3755
  618MOL0     H83410  13.797  -0.879   4.284 -1.0066  0.6578 -1.0773
  618MOL0     H83411  13.831  -1.014   4.164 -0.5809 -1.4681  0.3132
  618MOL0     H83412  12.796  -0.818   4.109 -0.3388  1.8140  0.1074
  618MOL0     H83413  12.604  -0.893   4.222 -2.4789  3.6805 -0.5947
  618MOL0     H83414  12.307  -0.868   4.526 -0.5670  0.7306  0.5639
  618MOL0     H83415  12.094  -0.949   4.639 -0.3527 -1.4923 -1.6832
  618MOL0     H83416  11.675  -0.253   5.473  2.4438  0.8858 -3.7979
  618MOL0     H83417  11.627  -0.054   5.335  1.0435 -1.7492 -0.1954
  618MOL0     H83418  11.137   0.281   5.164  0.7122  0.5199  1.4607
  618MOL0     H83419  11.127   0.455   4.989  0.2753  1.1094 -3.3105
  618MOL0     H83420  11.237   0.615   4.919  0.8524  2.5485 -1.0700
  618MOL0     H83421  11.291   0.688   4.779 -0.5032 -0.1642 -0.7707
  618MOL0     H83422  11.047   0.703   4.790  1.3915  1.0199 -0.5078
  618MOL0     H83423  11.038   0.524   4.779  2.5975 -1.0313  1.0103
  618MOL0     H83424  11.175   0.567   4.582  0.7273 -0.0385  0.0670
  618MOL0     H83425  11.129   0.732   4.563  0.4146 -0.2032  0.5370
  618MOL0     H83426  10.921   0.503   4.591  1.6170 -2.0454 -0.9059
  618MOL0     H83427  10.993   0.537   4.443  1.9407 -1.1425  1.8962
  618MOL0     H83428  10.706   0.862   4.508 -2.6795 -2.6772 -0.1254
  618MOL0     H83429  11.465   0.283   4.794 -1.6357  0.2484 -1.0842
  618MOL0     H83430  11.475   0.103   4.962 -0.4707 -1.9044  3.3177
  619MOL0     O83431   9.891   5.578   7.731  0.4900 -1.1236 -0.0511
  619MOL0     C83432   9.949   5.661   7.799  0.2242  0.5182 -0.5219
  619MOL0     O83433   9.881   5.757   7.872  0.0299 -0.4256  0.7533
  619MOL0     C83434   9.744   5.779   7.844  0.2897  0.2400 -0.0292
  619MOL0     C83435   9.628   5.691   7.841 -0.7289 -0.2474 -0.1801
  619MOL0     C83436   9.502   5.748   7.811 -0.6888 -0.1803  0.4174
  619MOL0     C83437   9.485   5.880   7.777  0.4192 -0.6409 -1.0962
  619MOL0     O83438   9.356   5.918   7.750 -0.4357 -0.0285  0.3359
  619MOL0     C83439   9.321   6.054   7.778  0.6615 -0.1584 -0.4045
  619MOL0     C83440   9.172   6.078   7.795  0.6610 -0.4493  0.4452
  619MOL0     C83441   9.106   5.989   7.897 -1.1274  0.7203 -0.5855
  619MOL0     C83442   8.954   6.021   7.903  0.5957  0.2202 -0.0190
  619MOL0     C83443   8.869   5.936   7.997 -0.0526 -0.7665 -0.3383
  619MOL0     C83444   8.867   5.790   7.944  0.2899 -0.8024 -0.9894
  619MOL0     C83445   8.772   5.704   8.026  0.2347  0.1680  1.1904
  619MOL0     C83446   8.763   5.553   7.988 -1.2979 -0.4515  0.4409
  619MOL0     N83447   8.672   5.480   8.078  0.1050  0.2571  0.1655
  619MOL0     C83448   8.704   5.393   8.172 -0.7185  0.5455  0.1619
  619MOL0     C83449   8.596   5.366   8.254 -0.1000  0.0322  0.2866
  619MOL0     C83450   8.577   5.259   8.354 -0.2900 -0.7169 -0.0752
  619MOL0     C83451   8.508   5.126   8.314 -0.3065 -0.0837  0.0175
  619MOL0     C83452   8.404   5.128   8.195 -0.3578 -0.4923  0.5268
  619MOL0     C83453   8.315   5.002   8.200  0.4416  0.0950  0.5675
  619MOL0     O83454   8.223   4.999   8.079 -0.4548  1.1674  0.8743
  619MOL0     C83455   8.126   4.902   8.066 -0.5187  0.1255  0.6539
  619MOL0     C83456   8.091   4.809   8.161 -0.3264  1.4461 -0.0082
  619MOL0     C83457   7.991   4.713   8.126  0.8559 -0.1312  0.0945
  619MOL0     C83458   7.976   4.594   8.226  0.0012  0.2691 -0.1238
  619MOL0     C83459   7.916   4.717   8.005 -0.4488 -0.0928 -0.3283
  619MOL0     C83460   7.805   4.635   7.989  1.0316 -0.3476 -0.3852
  619MOL0     O83461   7.717   4.646   8.092  0.8308  0.6252 -0.3725
  619MOL0     C83462   7.606   4.565   8.097  0.0754  0.0826  0.4930
  619MOL0     C83463   7.586   4.483   8.203  0.0460 -0.3011 -0.6180
  619MOL0     C83464   7.464   4.415   8.230  0.3625  0.2922  0.6013
  619MOL0     C83465   7.348   4.436   8.155  0.4592 -0.3102 -0.3372
  619MOL0     O83466   7.232   4.367   8.187 -0.6799 -0.3453 -0.7097
  619MOL0     C83467   7.111   4.420   8.131  0.0431  0.2631 -0.0406
  619MOL0     C83468   6.994   4.334   8.179  0.9827  0.2476  0.8601
  619MOL0     C83469   6.851   4.385   8.151 -0.5015 -0.3132 -0.4545
  619MOL0     C83470   6.795   4.354   8.012 -0.1637  0.4903 -0.8751
  619MOL0     C83471   6.651   4.409   7.997  0.8217 -0.0092 -0.2165
  619MOL0     C83472   6.598   4.363   7.855  0.1202 -0.9190  0.0044
  619MOL0     C83473   6.458   4.414   7.824 -0.1063 -0.1981 -1.3316
  619MOL0     C83474   6.420   4.378   7.679  0.3710  0.3513 -0.8505
  619MOL0    Cl83475   6.246   4.386   7.648  0.0206 -0.2215  0.8343
  619MOL0     C83476   7.369   4.517   8.039  0.0136  0.5091 -0.7657
  619MOL0     C83477   7.489   4.583   8.011 -1.0131  1.1745 -0.1598
  619MOL0     O83478   7.781   4.567   7.882 -0.9079 -0.8279 -0.0313
  619MOL0     C83479   7.961   4.813   7.912  0.1176 -0.2125 -0.4223
  619MOL0     C83480   8.062   4.904   7.938  0.2812  0.0829 -0.3232
  619MOL0     N83481   8.509   5.465   8.221 -0.2785  0.6234  0.5459
  619MOL0     N83482   8.550   5.525   8.113 -0.0986 -1.0233  0.3126
  619MOL0     C83483   9.601   5.961   7.757  0.4828  0.4503  0.7003
  619MOL0     C83484   9.727   5.903   7.787  0.2611 -0.9488  0.0873
  619MOL0     C83485  10.096   5.653   7.816  0.6822 -0.0760  0.0712
  619MOL0     C83486  10.160   5.684   7.935  0.3980 -0.3969  0.3982
  619MOL0     C83487  10.294   5.667   7.950  0.2008  1.0529  0.3344
  619MOL0     C83488  10.382   5.621   7.843  0.5069 -0.0795 -0.1223
  619MOL0     O83489  10.517   5.602   7.852 -0.0228  0.7034  0.0630
  619MOL0     C83490  10.593   5.682   7.943  0.9314 -0.2241 -0.1385
  619MOL0     C83491  10.737   5.669   7.911 -0.1492 -0.5756 -0.1167
  619MOL0     C83492  10.769   5.688   7.754  0.7117 -0.0793  0.2553
  619MOL0     C83493  10.919   5.675   7.715  1.4995  0.2652 -0.0323
  619MOL0     C83494  10.991   5.770   7.795  0.0345  0.4787  0.6330
  619MOL0     C83495  11.052   5.849   7.853 -0.0922  0.2264 -0.5822
  619MOL0     C83496  10.319   5.593   7.726 -0.0206 -0.5737  0.1478
  619MOL0     C83497  10.176   5.601   7.712  0.1876 -0.6929  0.2193
  619MOL0     H83498   9.640   5.592   7.885 -0.0525  0.8824  2.3758
  619MOL0     H83499   9.408   5.695   7.800 -1.3904  0.9533  0.7599
  619MOL0     H83500   9.369   6.089   7.870  1.3957 -0.3094 -0.7296
  619MOL0     H83501   9.362   6.128   7.709  1.2005 -0.8881 -0.8748
  619MOL0     H83502   9.167   6.186   7.815  0.8712 -0.9511  3.6841
  619MOL0     H83503   9.123   6.057   7.700  0.7456 -2.9174  0.8964
  619MOL0     H83504   9.121   5.884   7.869 -2.9172 -0.5483  2.6779
  619MOL0     H83505   9.151   5.995   7.996  0.6374 -0.4901 -1.2693
  619MOL0     H83506   8.931   6.118   7.947 -2.5049  0.1252 -1.1600
  619MOL0     H83507   8.899   6.010   7.809  0.9298  1.5748 -0.3845
  619MOL0     H83508   8.908   5.952   8.098  0.3718  4.0020 -1.0275
  619MOL0     H83509   8.766   5.972   7.992 -0.4574 -2.0142 -1.5242
  619MOL0     H83510   8.830   5.788   7.842  0.5906  3.3091 -1.3201
  619MOL0     H83511   8.966   5.744   7.943  0.6057 -0.8056  4.1539
  619MOL0     H83512   8.788   5.716   8.134 -1.7935  0.7363  1.4668
  619MOL0     H83513   8.674   5.751   8.012 -0.0233 -0.3483  1.2480
  619MOL0     H83514   8.863   5.508   7.994 -1.4398 -0.6460  1.3776
  619MOL0     H83515   8.734   5.537   7.884  0.1518 -2.9592  0.3487
  619MOL0     H83516   8.799   5.341   8.176  0.8236  3.1834  0.1189
  619MOL0     H83517   8.673   5.236   8.401  0.8795 -0.8937 -2.4027
  619MOL0     H83518   8.524   5.291   8.444  3.1263 -2.0098  2.5813
  619MOL0     H83519   8.460   5.083   8.403  1.6370  0.7219  1.5277
  619MOL0     H83520   8.588   5.057   8.286 -0.7795 -0.5984 -0.0921
  619MOL0     H83521   8.452   5.132   8.097 -1.4676 -0.5078 -0.0280
  619MOL0     H83522   8.350   5.223   8.194  1.6476  0.7478  1.6289
  619MOL0     H83523   8.266   4.997   8.298 -2.1192 -1.2915 -0.6917
  619MOL0     H83524   8.375   4.914   8.179  1.2635  0.9803 -0.9288
  619MOL0     H83525   8.155   4.804   8.249  3.1437  2.1854 -2.2653
  619MOL0     H83526   7.926   4.638   8.313 -3.5911  0.7661 -2.2263
  619MOL0     H83527   7.915   4.509   8.194  0.1272 -0.0957  0.5994
  619MOL0     H83528   8.070   4.549   8.260 -0.7572  0.0504  1.8497
  619MOL0     H83529   7.666   4.455   8.271  0.3995 -5.3425 -2.6843
  619MOL0     H83530   7.458   4.356   8.321  0.3386  1.5156  1.4143
  619MOL0     H83531   7.099   4.527   8.149  3.4540  0.4695  1.7401
  619MOL0     H83532   7.112   4.417   8.022  1.5390  1.2838 -0.0795
  619MOL0     H83533   7.008   4.239   8.127 -1.9888 -1.5191  2.9280
  619MOL0     H83534   7.004   4.310   8.285  2.3630  1.4662  1.0384
  619MOL0     H83535   6.837   4.491   8.175 -0.7193 -0.2705 -0.7636
  619MOL0     H83536   6.792   4.326   8.221  0.8647  1.4784  2.3724
  619MOL0     H83537   6.856   4.406   7.938  2.2146 -2.3992 -1.1371
  619MOL0     H83538   6.789   4.247   7.988 -2.2433  0.1447  0.8567
  619MOL0     H83539   6.643   4.518   8.007  2.5160  0.1337 -0.2069
  619MOL0     H83540   6.595   4.366   8.080  1.6250  0.9316  0.8424
  619MOL0     H83541   6.662   4.401   7.775 -0.3081 -0.0619  0.0561
  619MOL0     H83542   6.587   4.254   7.849 -1.0286 -0.8042 -0.1610
  619MOL0     H83543   6.450   4.520   7.849  2.1437 -0.5314  1.2447
  619MOL0     H83544   6.398   4.362   7.899  0.3146  1.2810  0.0678
  619MOL0     H83545   6.440   4.271   7.675 -0.2278 -0.1357  3.7082
  619MOL0     H83546   6.479   4.430   7.603  0.0468  0.0754 -1.2903
  619MOL0     H83547   7.286   4.550   7.976 -0.7001  3.2680  1.4189
  619MOL0     H83548   7.500   4.644   7.922 -1.3359 -0.3488 -1.2810
  619MOL0     H83549   7.922   4.810   7.810  0.2437 -0.1760 -0.4725
  619MOL0     H83550   8.093   4.985   7.872 -3.7559 -0.5020 -3.3608
  619MOL0     H83551   9.595   6.057   7.707  1.4807 -0.5282 -1.3865
  619MOL0     H83552   9.814   5.960   7.757  0.0929 -0.4630  0.5154
  619MOL0     H83553  10.113   5.715   8.027 -0.6605 -1.3215  0.1815
  619MOL0     H83554  10.332   5.699   8.047  1.7487 -0.4079  0.2614
  619MOL0     H83555  10.566   5.787   7.933  1.0991 -0.1762 -0.0904
  619MOL0     H83556  10.567   5.635   8.038  0.7162 -1.8234 -0.9502
  619MOL0     H83557  10.776   5.568   7.926  1.5469  0.0645 -0.0029
  619MOL0     H83558  10.797   5.737   7.973  2.4454  0.7464 -3.7465
  619MOL0     H83559  10.731   5.788   7.730  0.0607 -0.1154  1.0875
  619MOL0     H83560  10.707   5.622   7.693 -0.9716  1.7341 -0.1300
  619MOL0     H83561  10.930   5.697   7.608 -3.5407  2.0672 -0.4363
  619MOL0     H83562  10.942   5.574   7.747 -0.9019 -0.5977 -0.8171
  619MOL0     H83563  11.095   5.931   7.907  2.9821 -0.3619 -1.9059
  619MOL0     H83564  10.370   5.553   7.639  0.1922 -0.6063  0.2888
  619MOL0     H83565  10.132   5.574   7.617  1.6581 -1.3582 -0.2957
  620MOL0     O83566   2.705   3.336   1.495 -0.6730 -0.1210 -0.1256
  620MOL0     C83567   2.684   3.215   1.491 -0.1313  0.0053 -0.0099
  620MOL0     O83568   2.704   3.140   1.375  0.5080  0.6781 -0.2338
  620MOL0     C83569   2.738   3.204   1.256 -0.5384 -0.4608 -0.4431
  620MOL0     C83570   2.863   3.172   1.202  0.0881  0.1281  0.1270
  620MOL0     C83571   2.913   3.239   1.096  0.2534 -1.0086  0.8828
  620MOL0     C83572   2.855   3.353   1.047  0.0982  0.1059 -0.3103
  620MOL0     O83573   2.905   3.413   0.932 -0.2071 -0.0789  0.1748
  620MOL0     C83574   3.034   3.468   0.946  0.1939  0.3878  0.4020
  620MOL0     C83575   3.056   3.624   0.915 -1.2952  0.1914 -1.1309
  620MOL0     C83576   2.965   3.730   0.982 -0.8535 -0.5161 -0.0656
  620MOL0     C83577   2.817   3.727   0.950  0.2429  0.6176  0.1598
  620MOL0     C83578   2.723   3.765   1.070 -0.6399  0.2586 -0.4065
  620MOL0     C83579   2.723   3.915   1.098  1.2450  1.2399  0.1744
  620MOL0     C83580   2.845   3.969   1.178  0.5760  0.3626  0.2237
  620MOL0     C83581   2.858   3.916   1.325 -0.1316  0.4479 -0.2658
  620MOL0     N83582   2.726   3.930   1.396  0.2103 -0.0380  0.5646
  620MOL0     C83583   2.638   3.832   1.438 -0.1840  0.0633  0.6284
  620MOL0     C83584   2.545   3.896   1.515 -0.5606  0.2539 -0.9151
  620MOL0     C83585   2.431   3.831   1.589 -0.1354  0.4225 -0.2777
  620MOL0     C83586   2.454   3.740   1.708  0.2080 -0.1400  0.2024
  620MOL0     C83587   2.333   3.700   1.787 -0.3631 -0.3480 -0.5878
  620MOL0     C83588   2.254   3.593   1.704 -0.4878  0.1774 -0.8609
  620MOL0     O83589   2.304   3.466   1.711 -0.4631  0.5235  0.5077
  620MOL0     C83590   2.243   3.374   1.789  0.1009  0.8612  1.0624
  620MOL0     C83591   2.247   3.241   1.759  0.3184  0.4479  0.2806
  620MOL0     C83592   2.180   3.142   1.818 -0.2611  0.8576 -1.5035
  620MOL0     C83593   2.201   2.995   1.765 -0.6639  0.0753  0.2382
  620MOL0     C83594   2.111   3.161   1.933  0.3343 -0.5284 -1.1296
  620MOL0     C83595   2.049   3.056   2.024  0.0330 -0.4856 -1.0176
  620MOL0     O83596   1.966   3.098   2.126  0.0365 -0.1308 -0.9620
  620MOL0     C83597   1.952   3.018   2.237  0.7453 -0.0634 -0.1484
  620MOL0     C83598   1.866   2.913   2.255  0.1619  0.0053  0.0728
  620MOL0     C83599   1.860   2.835   2.378 -0.3120 -1.2022  0.4147
  620MOL0     C83600   1.939   2.873   2.488  0.4459 -0.2345  0.0011
  620MOL0     O83601   1.922   2.802   2.605  0.2555  0.6109 -0.5281
  620MOL0     C83602   2.022   2.813   2.711  0.6875 -0.1790 -0.3292
  620MOL0     C83603   2.164   2.760   2.689  0.5217 -0.5475  0.0801
  620MOL0     C83604   2.262   2.762   2.817 -0.5320 -0.9353  0.1601
  620MOL0     C83605   2.389   2.688   2.767  0.1910 -0.1608  0.2015
  620MOL0     C83606   2.480   2.645   2.887 -0.3325 -0.2414  0.2857
  620MOL0     C83607   2.623   2.618   2.839 -0.7634  0.1962 -0.4222
  620MOL0     C83608   2.647   2.484   2.758 -0.2592 -0.9141 -0.2612
  620MOL0     C83609   2.634   2.353   2.828  0.8547 -0.7440  0.6293
  620MOL0    Cl83610   2.736   2.341   2.975 -0.0646  0.0273  0.2563
  620MOL0     C83611   2.012   2.991   2.481  1.1267 -0.5340  0.2291
  620MOL0     C83612   2.017   3.055   2.350 -0.0506 -0.1567 -0.3510
  620MOL0     O83613   2.064   2.936   1.995 -0.3787  0.6541 -0.3208
  620MOL0     C83614   2.104   3.298   1.974 -0.3558 -1.1934 -0.7972
  620MOL0     C83615   2.172   3.404   1.905 -0.0449  0.1833  0.0613
  620MOL0     N83616   2.574   4.034   1.513  0.7651  0.3826 -0.3183
  620MOL0     N83617   2.684   4.051   1.442  0.5206 -0.0258  0.7633
  620MOL0     C83618   2.728   3.386   1.090 -0.2736  0.3666 -0.2939
  620MOL0     C83619   2.662   3.309   1.192  0.2914 -1.0291 -0.5043
  620MOL0     C83620   2.638   3.154   1.616 -0.4570  0.2277 -0.3690
  620MOL0     C83621   2.686   3.020   1.634  0.0642 -0.0460 -0.4292
  620MOL0     C83622   2.658   2.957   1.757  0.3357 -0.0725 -1.7037
  620MOL0     C83623   2.596   3.026   1.862 -1.6707  0.2762 -0.8479
  620MOL0     O83624   2.567   2.962   1.983  0.5805 -1.1091 -0.5418
  620MOL0     C83625   2.559   2.818   1.978 -0.5257 -0.6574  0.0409
  620MOL0     C83626   2.502   2.766   2.106  0.5524  0.1756  0.0718
  620MOL0     C83627   2.350   2.794   2.121  0.5709  0.2188  0.5177
  620MOL0     C83628   2.299   2.786   2.270 -0.2026  0.4362 -0.0928
  620MOL0     C83629   2.330   2.656   2.339 -0.6135  0.5978 -0.7351
  620MOL0     C83630   2.374   2.563   2.397 -0.2197  1.0490 -0.4996
  620MOL0     C83631   2.546   3.163   1.837 -1.1945 -0.9438 -0.1454
  620MOL0     C83632   2.574   3.231   1.713  0.1431  0.4812  1.2974
  620MOL0     H83633   2.924   3.091   1.240  1.2422 -0.2312 -2.2936
  620MOL0     H83634   3.006   3.197   1.059  0.1915 -0.9616  0.6701
  620MOL0     H83635   3.083   3.437   1.038  2.2197 -2.1913 -1.3759
  620MOL0     H83636   3.094   3.412   0.873 -2.6253 -2.2658 -0.1051
  620MOL0     H83637   3.161   3.634   0.947 -0.2056 -0.9092 -4.0563
  620MOL0     H83638   3.062   3.632   0.806  0.0400  1.5476 -0.9971
  620MOL0     H83639   2.977   3.721   1.090 -2.2041  0.3828  0.1878
  620MOL0     H83640   2.998   3.831   0.960 -1.1557 -0.3477  0.2431
  620MOL0     H83641   2.801   3.786   0.859  1.4010  2.8481  1.3321
  620MOL0     H83642   2.792   3.624   0.925  2.2836  0.3523 -0.9943
  620MOL0     H83643   2.622   3.730   1.047 -0.2033 -2.7423  1.6424
  620MOL0     H83644   2.744   3.708   1.161  0.9059 -1.2212 -1.6282
  620MOL0     H83645   2.720   3.966   1.000 -1.2532 -0.3724 -0.6788
  620MOL0     H83646   2.631   3.944   1.149  0.1532 -0.8570 -0.4968
  620MOL0     H83647   2.940   3.949   1.127  0.6569  0.6667  0.2561
  620MOL0     H83648   2.837   4.078   1.184 -0.3644  0.3590 -0.6223
  620MOL0     H83649   2.927   3.982   1.378  1.5435 -2.2100  1.0539
  620MOL0     H83650   2.895   3.813   1.334 -0.4217  0.0619 -2.6475
  620MOL0     H83651   2.655   3.725   1.441  1.0134  0.2346  0.4426
  620MOL0     H83652   2.345   3.892   1.620 -0.2039 -0.2011  0.8356
  620MOL0     H83653   2.394   3.769   1.507 -1.6276 -0.1271  0.7715
  620MOL0     H83654   2.522   3.784   1.782  1.8191 -0.1409 -1.2185
  620MOL0     H83655   2.498   3.643   1.683 -0.6805 -0.5200  0.0679
  620MOL0     H83656   2.274   3.788   1.813  1.9590  1.1071 -0.0701
  620MOL0     H83657   2.370   3.662   1.883 -0.6833  3.5497  1.2466
  620MOL0     H83658   2.244   3.620   1.599 -0.4607 -0.8461 -1.1344
  620MOL0     H83659   2.151   3.602   1.738  0.1004  0.6124  0.9797
  620MOL0     H83660   2.301   3.210   1.670  0.4548 -1.8328  1.0967
  620MOL0     H83661   2.250   2.929   1.837 -0.6344  1.0863  1.1579
  620MOL0     H83662   2.108   2.950   1.729  0.2858  0.3833 -2.9104
  620MOL0     H83663   2.271   2.997   1.680 -1.3974 -0.8908 -0.4146
  620MOL0     H83664   1.795   2.904   2.173 -1.2484 -0.0214  1.2545
  620MOL0     H83665   1.785   2.756   2.383  1.6706 -3.1625  0.4158
  620MOL0     H83666   2.025   2.911   2.760  1.1120 -1.2917  2.0193
  620MOL0     H83667   1.988   2.752   2.796  1.1971 -0.6303 -0.4440
  620MOL0     H83668   2.160   2.655   2.657 -0.2783 -0.2611 -0.8123
  620MOL0     H83669   2.223   2.816   2.615  2.0204  0.0559  1.6814
  620MOL0     H83670   2.215   2.714   2.903 -0.9619  1.1800  1.1678
  620MOL0     H83671   2.277   2.864   2.854  4.3298 -0.6173 -1.8832
  620MOL0     H83672   2.361   2.588   2.733 -0.2397  0.2846 -0.7976
  620MOL0     H83673   2.445   2.736   2.685  1.0029 -3.0141 -1.0371
  620MOL0     H83674   2.447   2.552   2.934  0.9647 -0.3308  1.0678
  620MOL0     H83675   2.476   2.728   2.958 -4.8251  0.3961 -0.4189
  620MOL0     H83676   2.649   2.690   2.761  2.4808 -1.1251 -0.7160
  620MOL0     H83677   2.698   2.605   2.917  0.6225 -0.6156 -1.8330
  620MOL0     H83678   2.749   2.497   2.720  0.1876  1.2125  1.4290
  620MOL0     H83679   2.568   2.468   2.685 -0.7955  2.0928 -0.4448
  620MOL0     H83680   2.640   2.269   2.759 -0.0239 -0.0978 -0.2549
  620MOL0     H83681   2.533   2.334   2.868  1.0029 -2.6036  0.2177
  620MOL0     H83682   2.078   3.018   2.563  0.2902  4.9800 -0.5286
  620MOL0     H83683   2.070   3.149   2.341 -4.0337  2.2499 -1.2910
  620MOL0     H83684   2.053   3.328   2.065 -0.9072 -1.8157 -0.8906
  620MOL0     H83685   2.179   3.506   1.943 -0.5812  0.3762 -0.3446
  620MOL0     H83686   2.680   3.475   1.050  1.5189  1.8377  0.6799
  620MOL0     H83687   2.569   3.347   1.234  0.3069 -2.1851  0.6263
  620MOL0     H83688   2.739   2.964   1.558  0.3688 -0.2684 -0.0582
  620MOL0     H83689   2.700   2.860   1.783  0.5315  1.1795  4.0418
  620MOL0     H83690   2.495   2.783   1.896 -0.2775  0.0943 -0.4944
  620MOL0     H83691   2.660   2.781   1.962 -0.2188  1.0238 -2.5738
  620MOL0     H83692   2.559   2.812   2.187  0.5286 -1.5371  1.1108
  620MOL0     H83693   2.517   2.658   2.105 -2.7013 -0.3621  0.3574
  620MOL0     H83694   2.300   2.721   2.058 -0.2869  2.8410 -2.0599
  620MOL0     H83695   2.325   2.889   2.072  0.4104  0.1253  0.4192
  620MOL0     H83696   2.191   2.803   2.267 -0.5696 -1.7609 -1.1965
  620MOL0     H83697   2.345   2.866   2.329  2.9184  1.8771 -3.9906
  620MOL0     H83698   2.409   2.473   2.444  0.2469 -0.6969 -3.8834
  620MOL0     H83699   2.515   3.228   1.918  0.4911  3.0785 -2.4083
  620MOL0     H83700   2.543   3.332   1.686  1.2759  0.4780 -0.1369
  621MOL0     O83701   3.121   7.686   2.460 -0.4803 -0.2011 -0.3316
  621MOL0     C83702   3.034   7.763   2.513  0.7395  1.1625  0.2878
  621MOL0     O83703   2.899   7.737   2.503  0.2433 -0.0925  0.5186
  621MOL0     C83704   2.866   7.630   2.427 -0.5369  0.3290  0.5135
  621MOL0     C83705   2.859   7.628   2.293 -0.4186 -0.5003 -0.8527
  621MOL0     C83706   2.806   7.518   2.225  0.2028 -0.3022  0.2114
  621MOL0     C83707   2.752   7.408   2.295  1.0847  0.5699  0.3176
  621MOL0     O83708   2.709   7.297   2.232 -0.5969  0.0515  0.4631
  621MOL0     C83709   2.661   7.315   2.103 -0.7829  0.1763  0.1805
  621MOL0     C83710   2.564   7.198   2.077 -0.0228  0.2715  0.4039
  621MOL0     C83711   2.443   7.199   2.173  0.1142 -0.1979  0.1197
  621MOL0     C83712   2.334   7.104   2.140  0.2363 -0.0209 -0.5324
  621MOL0     C83713   2.228   7.085   2.252  0.9002 -0.1629  0.8761
  621MOL0     C83714   2.148   7.220   2.252 -0.3482 -0.2505 -0.3164
  621MOL0     C83715   2.008   7.207   2.328  0.2427  0.0885 -0.1788
  621MOL0     C83716   1.889   7.286   2.265  0.5757 -0.4482  0.3647
  621MOL0     N83717   1.893   7.431   2.283  0.7764  0.7860  0.1030
  621MOL0     C83718   1.963   7.518   2.207 -0.6251  0.2063  0.5762
  621MOL0     C83719   1.952   7.636   2.267 -0.7236 -0.5848 -0.1487
  621MOL0     C83720   2.009   7.764   2.208 -0.3324 -0.0730  0.3130
  621MOL0     C83721   2.165   7.786   2.239  0.1305  0.1981 -0.4708
  621MOL0     C83722   2.187   7.836   2.378  0.0129 -0.0626 -0.0577
  621MOL0     C83723   2.188   7.727   2.500  0.7622 -0.1816  1.0228
  621MOL0     O83724   2.275   7.622   2.459  0.9458  1.2956 -0.1839
  621MOL0     C83725   2.262   7.496   2.529 -0.9037 -0.2951 -0.0249
  621MOL0     C83726   2.164   7.478   2.626 -0.1692  0.4005  0.3037
  621MOL0     C83727   2.150   7.357   2.695  0.4125  0.6217 -0.8413
  621MOL0     C83728   2.032   7.357   2.789  0.6701  0.1109  0.0964
  621MOL0     C83729   2.246   7.250   2.667  0.0172 -0.5720 -0.3761
  621MOL0     C83730   2.228   7.112   2.707 -0.2470 -0.0917 -0.2915
  621MOL0     O83731   2.117   7.091   2.776  0.5898 -0.6357  0.0387
  621MOL0     C83732   2.070   6.964   2.783 -1.2658  0.5933 -0.1832
  621MOL0     C83733   2.013   6.881   2.680  0.2302  0.1462  0.2540
  621MOL0     C83734   1.965   6.750   2.705  0.3425  0.3445 -0.1763
  621MOL0     C83735   1.980   6.682   2.830  0.1282 -1.0278  0.0025
  621MOL0     O83736   1.957   6.554   2.859  0.0403  0.1929  0.5438
  621MOL0     C83737   1.858   6.488   2.781  0.5828  0.3129  0.6771
  621MOL0     C83738   1.819   6.350   2.817 -0.1928 -0.3420  0.5491
  621MOL0     C83739   1.815   6.335   2.965 -0.5778 -0.5428  0.7732
  621MOL0     C83740   1.942   6.263   3.012  0.7987  0.5242 -0.5410
  621MOL0     C83741   1.936   6.258   3.170 -0.6698  0.2574  1.0471
  621MOL0     C83742   2.046   6.143   3.207  0.1940  0.1059  0.0049
  621MOL0     C83743   2.036   6.125   3.365 -0.0887  0.0994  0.2205
  621MOL0     C83744   2.150   6.042   3.420  0.0623  1.5569  0.2124
  621MOL0    Cl83745   2.306   6.133   3.389  0.0925  0.1882  0.5628
  621MOL0     C83746   2.036   6.766   2.931  0.5452 -0.1416 -0.3323
  621MOL0     C83747   2.077   6.898   2.909 -0.1104 -0.5340  1.0370
  621MOL0     O83748   2.322   7.030   2.691  0.0684 -0.1088  0.0559
  621MOL0     C83749   2.341   7.274   2.566  0.4664 -0.4517  0.8127
  621MOL0     C83750   2.353   7.395   2.495 -0.3070 -0.0937  0.6665
  621MOL0     N83751   1.854   7.618   2.370 -0.2475  0.1190 -0.0928
  621MOL0     N83752   1.823   7.495   2.382 -0.5390 -0.6729 -0.3171
  621MOL0     C83753   2.759   7.411   2.438 -0.0740 -0.4430  0.1604
  621MOL0     C83754   2.808   7.526   2.498 -0.2932  0.0463  0.3181
  621MOL0     C83755   3.077   7.881   2.597  0.4361 -0.4229 -0.1300
  621MOL0     C83756   2.983   7.978   2.645  0.3211 -0.7006 -1.0218
  621MOL0     C83757   3.013   8.083   2.734 -0.4531 -1.5301  0.1287
  621MOL0     C83758   3.148   8.116   2.757  0.5331 -0.2083 -1.1442
  621MOL0     O83759   3.185   8.226   2.837  0.0698  0.0211 -0.2942
  621MOL0     C83760   3.090   8.284   2.921  0.1944  0.1308 -0.4748
  621MOL0     C83761   3.170   8.379   3.013 -0.2637 -0.9267 -0.0295
  621MOL0     C83762   3.246   8.308   3.129  0.0565 -0.7269 -0.4208
  621MOL0     C83763   3.383   8.230   3.094  0.6343 -0.3563  0.3908
  621MOL0     C83764   3.471   8.330   3.034 -0.9828  0.8861  0.3707
  621MOL0     C83765   3.525   8.430   3.002  0.4662  0.6942  0.5252
  621MOL0     C83766   3.243   8.035   2.708 -0.6173 -0.7487  0.0189
  621MOL0     C83767   3.209   7.922   2.635 -0.0091  1.4991 -0.1425
  621MOL0     H83768   2.907   7.718   2.257  0.6801 -0.2963  0.9928
  621MOL0     H83769   2.801   7.528   2.117 -1.8497 -0.6205  0.2328
  621MOL0     H83770   2.610   7.410   2.084  1.1233  1.2088 -0.0246
  621MOL0     H83771   2.745   7.296   2.035 -1.0335 -2.0298  0.3991
  621MOL0     H83772   2.526   7.215   1.975 -0.1202 -0.5598  0.2938
  621MOL0     H83773   2.620   7.104   2.064  1.4932  1.5308 -4.2164
  621MOL0     H83774   2.483   7.195   2.275 -2.0913 -0.2662  1.0300
  621MOL0     H83775   2.400   7.299   2.174 -1.7381 -0.9571  0.4690
  621MOL0     H83776   2.276   7.132   2.051 -1.6278  0.8469  0.8671
  621MOL0     H83777   2.371   7.003   2.121 -2.9378 -0.8340 -3.3450
  621MOL0     H83778   2.169   6.996   2.228 -1.8110  1.9049 -0.6450
  621MOL0     H83779   2.271   7.084   2.353  1.1053 -0.9810  0.7916
  621MOL0     H83780   2.206   7.302   2.296 -2.0054  0.1962  1.1349
  621MOL0     H83781   2.119   7.254   2.152 -0.5744  3.5868  0.9005
  621MOL0     H83782   1.982   7.101   2.331 -1.5391  0.5155  0.8486
  621MOL0     H83783   2.013   7.237   2.433 -0.3621 -0.6368  0.0641
  621MOL0     H83784   1.798   7.239   2.304  0.5424 -0.7507 -0.0704
  621MOL0     H83785   1.880   7.258   2.160 -0.2347  1.6021 -0.1488
  621MOL0     H83786   2.011   7.504   2.110 -1.8469  3.5104 -0.6453
  621MOL0     H83787   1.980   7.766   2.102 -1.4633 -0.1429  0.6068
  621MOL0     H83788   1.944   7.839   2.254 -1.1351 -1.1889  1.0494
  621MOL0     H83789   2.208   7.845   2.158 -0.2177 -0.8508 -1.4348
  621MOL0     H83790   2.224   7.694   2.230 -1.8481 -0.9835 -2.0355
  621MOL0     H83791   2.104   7.903   2.399 -1.5841 -1.5253 -1.4460
  621MOL0     H83792   2.283   7.887   2.389  2.1632 -4.1442  4.3791
  621MOL0     H83793   2.083   7.706   2.522  1.1790 -2.1241  1.3014
  621MOL0     H83794   2.221   7.785   2.588 -0.7858  3.1132 -0.3891
  621MOL0     H83795   2.104   7.563   2.658  2.0797  1.5560  1.7704
  621MOL0     H83796   1.998   7.459   2.804  1.6205  0.0745  3.0719
  621MOL0     H83797   1.953   7.289   2.757  1.0912 -0.2255 -0.2457
  621MOL0     H83798   2.063   7.325   2.889 -1.0355  0.3266  0.7261
  621MOL0     H83799   2.024   6.922   2.580 -0.1680  2.3876  1.0459
  621MOL0     H83800   1.931   6.699   2.615  1.2943 -0.1195 -0.2836
  621MOL0     H83801   1.767   6.549   2.785 -0.6444 -1.4732  1.6240
  621MOL0     H83802   1.883   6.495   2.675 -1.1377  1.5068  0.2933
  621MOL0     H83803   1.721   6.323   2.776 -0.3646 -0.3375  0.9537
  621MOL0     H83804   1.889   6.277   2.774 -0.0479  0.3275 -0.3824
  621MOL0     H83805   1.732   6.266   2.982 -0.0111 -1.6926 -0.8500
  621MOL0     H83806   1.799   6.431   3.014  0.5316 -0.0415  0.1919
  621MOL0     H83807   1.930   6.164   2.967  1.3223  0.4630 -0.5474
  621MOL0     H83808   2.037   6.309   2.986  0.7606 -0.1383 -1.9348
  621MOL0     H83809   1.845   6.219   3.216  0.6238 -0.1279  3.4352
  621MOL0     H83810   1.946   6.360   3.208 -2.4838  1.8708 -2.3791
  621MOL0     H83811   2.015   6.047   3.166  1.0563 -0.3871  0.4691
  621MOL0     H83812   2.143   6.178   3.172 -0.5213  0.2107 -2.0027
  621MOL0     H83813   1.945   6.068   3.387  0.4359 -0.6097  0.5735
  621MOL0     H83814   2.036   6.225   3.410  2.3036 -1.0128  2.9914
  621MOL0     H83815   2.166   5.942   3.378 -3.9873  0.6866  0.2962
  621MOL0     H83816   2.129   6.037   3.527 -0.4651 -0.5845  0.0514
  621MOL0     H83817   2.048   6.734   3.034  0.5568  4.4516  1.3638
  621MOL0     H83818   2.110   6.953   2.997  0.8636 -1.8382  1.5134
  621MOL0     H83819   2.412   7.198   2.534  0.4167 -0.3672  0.5004
  621MOL0     H83820   2.433   7.407   2.423  1.3436 -0.9950  2.2617
  621MOL0     H83821   2.733   7.328   2.503  1.6301  1.0957  3.0248
  621MOL0     H83822   2.804   7.534   2.607 -1.3420  0.4153  0.2633
  621MOL0     H83823   2.878   7.959   2.626 -0.4201  2.4002 -0.5709
  621MOL0     H83824   2.923   8.139   2.754 -0.6876 -1.4913 -0.9362
  621MOL0     H83825   3.016   8.339   2.862 -0.9057  1.2334  1.7932
  621MOL0     H83826   3.042   8.208   2.985  3.3322 -0.1910  1.7243
  621MOL0     H83827   3.090   8.440   3.054 -0.4950  1.0994 -3.1951
  621MOL0     H83828   3.230   8.449   2.954 -2.0383 -0.2631 -1.0995
  621MOL0     H83829   3.186   8.231   3.179 -1.2863 -0.3838 -1.4282
  621MOL0     H83830   3.275   8.378   3.207  1.6933 -0.6880 -1.0220
  621MOL0     H83831   3.365   8.154   3.017  1.7978  0.0535 -0.3133
  621MOL0     H83832   3.420   8.184   3.185  1.3633 -1.5022 -0.4526
  621MOL0     H83833   3.555   8.531   2.984  2.0185  0.4376  1.4992
  621MOL0     H83834   3.348   8.055   2.720 -0.9239  2.0898 -1.1745
  621MOL0     H83835   3.290   7.866   2.590 -2.6890 -0.4634 -2.9079
  622MOL0     O83836   5.567   8.586   3.195  0.6020  0.0732  0.1420
  622MOL0     C83837   5.539   8.697   3.147 -0.3850 -0.1594  0.5988
  622MOL0     O83838   5.630   8.801   3.119 -0.2006  0.0213  0.3191
  622MOL0     C83839   5.755   8.806   3.179  0.0035 -0.6418 -0.1132
  622MOL0     C83840   5.805   8.938   3.203  0.1059 -0.0759  0.2060
  622MOL0     C83841   5.937   8.949   3.242 -0.1020 -0.2198  0.7651
  622MOL0     C83842   6.023   8.837   3.258 -0.1288 -0.4707  0.2059
  622MOL0     O83843   6.146   8.868   3.301  0.6027  0.4622  0.3659
  622MOL0     C83844   6.176   8.810   3.427  0.6163 -0.2380 -0.0970
  622MOL0     C83845   6.268   8.903   3.501 -0.2098  0.3840 -0.2619
  622MOL0     C83846   6.252   9.064   3.489 -0.3225 -0.2099 -0.3152
  622MOL0     C83847   6.116   9.094   3.542  0.0367 -0.7875  0.5701
  622MOL0     C83848   6.082   9.244   3.536  1.0843  1.2260  0.5753
  622MOL0     C83849   6.150   9.328   3.648  0.1499 -0.0360  0.4322
  622MOL0     C83850   6.080   9.463   3.667 -0.6744 -0.0508  1.4764
  622MOL0     C83851   5.954   9.457   3.756  0.3728 -0.2234 -0.0522
  622MOL0     N83852   5.892   9.594   3.749  0.0159 -0.2032 -0.2561
  622MOL0     C83853   5.949   9.711   3.802  0.1219  1.1028 -0.7830
  622MOL0     C83854   5.859   9.810   3.779 -1.0467  0.5709  0.5417
  622MOL0     C83855   5.877   9.963   3.790 -0.9510  0.8246  0.4396
  622MOL0     C83856   5.953  10.012   3.657  0.7767  0.1440 -0.1436
  622MOL0     C83857   5.847  10.040   3.552  0.1993 -0.0409 -0.7210
  622MOL0     C83858   5.920  10.063   3.424 -0.1229 -0.2516 -0.3808
  622MOL0     O83859   5.969  10.196   3.423  0.0469 -0.9716 -0.8263
  622MOL0     C83860   6.064  10.219   3.325  0.5220 -0.4735  0.2674
  622MOL0     C83861   6.153  10.321   3.344  0.4947 -0.0373 -0.0739
  622MOL0     C83862   6.257  10.354   3.260 -0.2753 -0.4072 -0.2170
  622MOL0     C83863   6.346  10.467   3.313  0.4028  0.6830  0.0803
  622MOL0     C83864   6.280  10.282   3.143 -0.3312  0.0706 -0.0749
  622MOL0     C83865   6.399  10.299   3.050 -0.0881 -0.3910  0.2179
  622MOL0     O83866   6.408  10.190   2.957  0.0715  0.7583 -0.5044
  622MOL0     C83867   6.518  10.217   2.879 -1.1262  0.4530  0.0495
  622MOL0     C83868   6.654  10.202   2.915  0.3701 -0.6998  0.2269
  622MOL0     C83869   6.749  10.229   2.816 -0.2392  0.3726  0.5273
  622MOL0     C83870   6.720  10.275   2.686  0.6781  0.3393 -0.5608
  622MOL0     O83871   6.812  10.301   2.589 -0.3583 -0.3623 -0.2406
  622MOL0     C83872   6.946  10.341   2.623 -0.7927 -0.7151 -0.4512
  622MOL0     C83873   6.948  10.450   2.734  0.7203 -0.5120 -0.0783
  622MOL0     C83874   6.859  10.566   2.686  0.1094  0.6451 -0.1237
  622MOL0     C83875   6.877  10.705   2.754  0.1575  0.4952 -0.0875
  622MOL0     C83876   6.859  10.719   2.907 -0.0037 -0.6529 -0.7335
  622MOL0     C83877   6.831  10.871   2.952 -0.8743 -1.0063  0.5059
  622MOL0     C83878   6.757  10.859   3.088 -0.9495  0.2274 -1.0664
  622MOL0     C83879   6.724  11.003   3.138  0.2586 -0.2831 -0.1648
  622MOL0    Cl83880   6.876  11.107   3.134 -0.4294  0.2492  0.0003
  622MOL0     C83881   6.586  10.285   2.651 -0.9909  0.1510  0.1489
  622MOL0     C83882   6.491  10.248   2.741  0.8224  0.3624 -0.9148
  622MOL0     O83883   6.476  10.396   3.058 -0.7339 -0.3819 -0.0342
  622MOL0     C83884   6.192  10.172   3.129 -0.3357  0.2884 -0.4140
  622MOL0     C83885   6.094  10.135   3.219  0.3474 -0.7110 -0.5065
  622MOL0     N83886   5.755   9.746   3.699 -0.8023 -0.3743 -0.1782
  622MOL0     N83887   5.777   9.618   3.687  0.0475 -0.1050  0.5229
  622MOL0     C83888   5.980   8.713   3.230  0.8088 -0.5405 -0.4422
  622MOL0     C83889   5.849   8.699   3.190 -0.5970 -0.1601  0.7218
  622MOL0     C83890   5.399   8.712   3.110  0.0192 -0.3534  0.0167
  622MOL0     C83891   5.349   8.810   3.015 -0.6879 -0.0492 -0.2928
  622MOL0     C83892   5.216   8.829   2.992  0.1417 -0.3985  0.4328
  622MOL0     C83893   5.119   8.749   3.043  0.5092 -0.4192  0.5728
  622MOL0     O83894   4.991   8.767   3.002  0.0945 -0.1431  0.1997
  622MOL0     C83895   4.880   8.673   3.047 -0.2110 -0.4547  0.0828
  622MOL0     C83896   4.748   8.736   3.018  0.7199  0.4638  1.0754
  622MOL0     C83897   4.629   8.634   3.015  0.4939  0.2149 -0.4119
  622MOL0     C83898   4.552   8.650   2.876  0.2316 -0.0326 -0.8157
  622MOL0     C83899   4.643   8.622   2.762 -0.4304 -0.3580 -0.9997
  622MOL0     C83900   4.733   8.598   2.678 -0.1011 -0.0177 -0.2690
  622MOL0     C83901   5.158   8.646   3.130  0.0934  0.4849 -0.3634
  622MOL0     C83902   5.296   8.624   3.157  0.7754 -0.2095  0.0841
  622MOL0     H83903   5.750   9.031   3.196  0.1325 -0.0316  0.5885
  622MOL0     H83904   5.976   9.048   3.265  0.7615 -0.0537 -1.2293
  622MOL0     H83905   6.093   8.800   3.497  0.6791  2.2281  0.4156
  622MOL0     H83906   6.226   8.713   3.415  2.3434  0.5181  0.5753
  622MOL0     H83907   6.266   8.886   3.609  1.5396  3.1452  0.3346
  622MOL0     H83908   6.365   8.869   3.463  0.6414  1.4003  0.8906
  622MOL0     H83909   6.326   9.105   3.558  1.2800 -1.7575 -1.0224
  622MOL0     H83910   6.276   9.107   3.392 -3.2496  1.2132 -0.5074
  622MOL0     H83911   6.039   9.040   3.487  0.9920 -0.1376 -1.5102
  622MOL0     H83912   6.119   9.068   3.648  3.2799  2.0315  1.3716
  622MOL0     H83913   6.105   9.284   3.437 -2.5376  1.3217 -0.3437
  622MOL0     H83914   5.973   9.249   3.535  1.0027 -0.1348 -0.7845
  622MOL0     H83915   6.153   9.273   3.743 -1.8267 -0.8722  0.0477
  622MOL0     H83916   6.250   9.349   3.609 -0.1416  2.1282  0.7415
  622MOL0     H83917   6.147   9.524   3.728  0.0207 -0.9897  1.6840
  622MOL0     H83918   6.051   9.505   3.570 -1.3857 -1.5720  0.9982
  622MOL0     H83919   5.988   9.422   3.853  1.1411  0.7249  0.0268
  622MOL0     H83920   5.882   9.385   3.715 -1.8856  1.7103  0.2821
  622MOL0     H83921   6.042   9.700   3.856 -1.7863 -1.4624  2.3152
  622MOL0     H83922   5.787  10.021   3.815  0.6113  1.6058  5.3702
  622MOL0     H83923   5.942   9.980   3.876 -0.3070 -0.9972  0.3502
  622MOL0     H83924   6.027   9.938   3.626 -0.5989 -1.2035 -0.3146
  622MOL0     H83925   6.009  10.105   3.676 -0.2030  0.9585 -1.0915
  622MOL0     H83926   5.795  10.131   3.583  2.6702  2.3198 -2.9187
  622MOL0     H83927   5.769   9.964   3.545 -1.6949  1.4791  1.9311
  622MOL0     H83928   5.848  10.033   3.347 -2.5484  1.2997  1.1339
  622MOL0     H83929   6.005   9.996   3.410  0.5298  1.0104 -3.0143
  622MOL0     H83930   6.146  10.372   3.439 -0.3141 -0.2168 -0.0291
  622MOL0     H83931   6.333  10.553   3.247  1.4959 -0.7601 -2.1682
  622MOL0     H83932   6.320  10.496   3.415 -2.3374 -1.7723  0.2272
  622MOL0     H83933   6.447  10.428   3.324  0.1265 -0.3722 -0.8814
  622MOL0     H83934   6.687  10.167   3.012  0.5067 -1.4842 -0.0873
  622MOL0     H83935   6.853  10.210   2.841 -0.2495 -1.4547 -0.5746
  622MOL0     H83936   7.003  10.251   2.646  2.9984  1.5744 -0.1122
  622MOL0     H83937   7.001  10.372   2.534 -0.1071 -1.8342 -0.4396
  622MOL0     H83938   6.930  10.409   2.833  1.4927 -1.0900 -0.1666
  622MOL0     H83939   7.047  10.496   2.733  0.7357 -0.5429  0.1890
  622MOL0     H83940   6.756  10.536   2.710  0.6365  0.3974  2.0222
  622MOL0     H83941   6.869  10.572   2.577 -1.2926  0.5577 -0.2821
  622MOL0     H83942   6.983  10.723   2.731  0.0282 -0.2305 -1.3370
  622MOL0     H83943   6.810  10.779   2.711  0.4016  0.5220 -0.4241
  622MOL0     H83944   6.936  10.685   2.978 -2.0761  2.1112  3.2417
  622MOL0     H83945   6.765  10.671   2.934  0.1645 -0.6863 -0.1947
  622MOL0     H83946   6.930  10.918   2.962  0.0229 -3.0294  1.7591
  622MOL0     H83947   6.776  10.931   2.879 -1.7191 -1.3899  0.8160
  622MOL0     H83948   6.827  10.810   3.156  0.9034  0.7201 -2.5222
  622MOL0     H83949   6.667  10.797   3.086 -0.8086 -0.2103  1.6464
  622MOL0     H83950   6.679  10.993   3.237  0.9821 -2.5608 -0.0079
  622MOL0     H83951   6.645  11.034   3.069 -1.7308  0.5743  2.3400
  622MOL0     H83952   6.566  10.307   2.547  2.5999  0.2841 -0.6500
  622MOL0     H83953   6.387  10.244   2.708  0.6899 -0.8864 -0.3866
  622MOL0     H83954   6.222  10.102   3.051 -1.1210 -1.7543  1.0315
  622MOL0     H83955   6.036  10.045   3.199 -2.0314  0.8271 -0.8960
  622MOL0     H83956   6.046   8.627   3.230 -0.1844 -1.3646 -2.7533
  622MOL0     H83957   5.813   8.609   3.141 -2.3682 -0.3687  2.2969
  622MOL0     H83958   5.416   8.866   2.951  1.9907 -2.5670  0.0897
  622MOL0     H83959   5.181   8.891   2.910 -0.8083 -2.3403 -0.6987
  622MOL0     H83960   4.903   8.582   2.990  2.9339  0.1014  0.3213
  622MOL0     H83961   4.890   8.645   3.152 -1.8641 -1.5804 -0.0030
  622MOL0     H83962   4.759   8.785   2.921  1.1401  0.2950  1.0357
  622MOL0     H83963   4.726   8.812   3.094  2.9244  0.4668  1.7818
  622MOL0     H83964   4.570   8.656   3.104  4.3901  2.4007  1.9246
  622MOL0     H83965   4.663   8.531   3.033 -1.9308 -0.4101  1.0862
  622MOL0     H83966   4.520   8.754   2.881  2.4601  0.6793 -0.2020
  622MOL0     H83967   4.462   8.588   2.875 -0.7433  1.2577  1.1343
  622MOL0     H83968   4.799   8.566   2.601  0.8465  3.3360 -1.0013
  622MOL0     H83969   5.079   8.595   3.185  0.3531 -2.9621 -2.8957
  622MOL0     H83970   5.315   8.538   3.219 -4.2370 -2.5944 -1.1673
  623MOL0     O83971   9.523   0.365  10.034 -0.4086 -0.0399  0.0720
  623MOL0     C83972   9.613   0.432  10.086 -0.6781  1.1561  0.0985
  623MOL0     O83973   9.740   0.385  10.128  0.0251  0.2835  0.8245
  623MOL0     C83974   9.768   0.257  10.109 -0.7687 -0.2948 -0.8228
  623MOL0     C83975   9.706   0.149  10.165  1.0070  0.2502  0.5091
  623MOL0     C83976   9.765   0.018  10.169  0.2100  0.6715 -0.1197
  623MOL0     C83977   9.895   0.013  10.115 -0.1657  0.4029  0.0370
  623MOL0     O83978   9.967  -0.106  10.143 -0.0753 -0.8745  0.5600
  623MOL0     C83979  10.111  -0.110  10.138  0.4398 -0.2098  0.0043
  623MOL0     C83980  10.153  -0.258  10.135  0.6003 -0.4085  0.2576
  623MOL0     C83981  10.123  -0.323  10.273 -0.7419  0.9637 -0.1775
  623MOL0     C83982  10.203  -0.451  10.292  0.8051 -0.2085 -0.1022
  623MOL0     C83983  10.176  -0.524  10.428  0.5209  0.3537 -0.2653
  623MOL0     C83984  10.208  -0.451  10.543 -0.0285  0.6070 -1.2119
  623MOL0     C83985  10.215  -0.537  10.671  0.4112  0.0688  0.1860
  623MOL0     C83986  10.285  -0.470  10.793  0.1186  0.0735 -0.0352
  623MOL0     N83987  10.205  -0.352  10.839  0.5788  0.5982  0.5013
  623MOL0     C83988  10.093  -0.350  10.921 -0.0028  0.5079  0.4149
  623MOL0     C83989  10.072  -0.221  10.950  0.5629 -0.0780  0.1723
  623MOL0     C83990   9.983  -0.178  11.063 -0.1534 -0.0745  0.6724
  623MOL0     C83991  10.042  -0.219  11.195 -0.1588 -0.4022  0.3269
  623MOL0     C83992   9.974  -0.151  11.319  0.2129 -0.5176  0.4286
  623MOL0     C83993  10.044  -0.029  11.376  0.1795 -0.0320 -0.2400
  623MOL0     O83994  10.135  -0.081  11.474 -0.4587 -0.2536 -0.0394
  623MOL0     C83995  10.214   0.009  11.540  0.1504  0.4213 -0.0032
  623MOL0     C83996  10.298  -0.049  11.636 -0.2059  1.2263 -0.8419
  623MOL0     C83997  10.376   0.016  11.732 -0.6833  0.9221 -0.3872
  623MOL0     C83998  10.454  -0.064  11.835 -0.2022  0.7796 -0.1845
  623MOL0     C83999  10.386   0.160  11.708  0.8621 -0.1004 -0.6522
  623MOL0     C84000  10.473   0.249  11.789  0.2405 -0.3369  0.0317
  623MOL0     O84001  10.455   0.388  11.768  0.4458  0.2408  0.4237
  623MOL0     C84002  10.551   0.472  11.816  0.2327  0.4432 -0.7361
  623MOL0     C84003  10.685   0.487  11.775  1.2293 -0.1855 -0.4189
  623MOL0     C84004  10.765   0.592  11.820  0.8603  0.0711  0.1710
  623MOL0     C84005  10.712   0.696  11.897  0.2920  0.6094 -0.0009
  623MOL0     O84006  10.777   0.811  11.932  0.3266  0.1055 -0.5129
  623MOL0     C84007  10.899   0.856  11.868  0.3884  0.4843  0.8613
  623MOL0     C84008  10.873   0.885  11.721 -0.1419 -0.4377  0.1171
  623MOL0     C84009  10.990   0.964  11.660 -0.4209 -0.1015 -0.3331
  623MOL0     C84010  10.965   1.032  11.521 -0.3698 -0.2629  0.5107
  623MOL0     C84011  11.080   0.994  11.425 -0.9172 -0.3116 -0.4051
  623MOL0     C84012  11.070   1.071  11.290 -0.4160  0.4720  0.7694
  623MOL0     C84013  11.146   0.996  11.175 -0.4092  0.9720  1.2070
  623MOL0     C84014  11.181   1.089  11.057  0.0830 -0.2366 -0.8673
  623MOL0    Cl84015  11.323   1.186  11.098  0.6171  0.4737 -0.2902
  623MOL0     C84016  10.581   0.674  11.949  0.0745  0.2854 -0.1469
  623MOL0     C84017  10.505   0.563  11.909  0.8015 -0.6132 -0.3773
  623MOL0     O84018  10.552   0.202  11.868  0.3439 -0.1096  0.8490
  623MOL0     C84019  10.297   0.220  11.611 -0.1353 -0.0593  1.1834
  623MOL0     C84020  10.222   0.145  11.519  0.3417  0.1718 -0.1098
  623MOL0     N84021  10.174  -0.158  10.883  0.1516 -0.0426  0.4362
  623MOL0     N84022  10.248  -0.231  10.806  0.4840  0.8458 -0.3859
  623MOL0     C84023   9.946   0.121  10.038  0.4657  0.8548 -0.0396
  623MOL0     C84024   9.891   0.244  10.044  1.8437 -0.7317  0.7467
  623MOL0     C84025   9.576   0.575  10.112 -0.6317 -0.1502  0.3262
  623MOL0     C84026   9.677   0.675  10.116 -0.6925  0.8366  0.4073
  623MOL0     C84027   9.638   0.809  10.132 -0.2268  0.5979 -0.2404
  623MOL0     C84028   9.503   0.842  10.137 -0.3728  0.3512 -0.4111
  623MOL0     O84029   9.475   0.973  10.152  0.0019 -0.2147  0.1414
  623MOL0     C84030   9.346   1.010  10.191  0.2032 -0.0824  0.2134
  623MOL0     C84031   9.350   1.165  10.224  0.3399  0.2513 -0.0025
  623MOL0     C84032   9.282   1.240  10.105  0.2320 -0.7090  0.2889
  623MOL0     C84033   9.304   1.394  10.114 -0.9072  0.1012  0.0783
  623MOL0     C84034   9.205   1.437  10.207  0.5966 -0.0547 -0.5128
  623MOL0     C84035   9.121   1.454  10.296 -0.6316 -0.3968  0.7682
  623MOL0     C84036   9.404   0.741  10.144  0.0420  0.0702  0.1620
  623MOL0     C84037   9.439   0.610  10.130 -1.0874  0.2942  0.6744
  623MOL0     H84038   9.605   0.165  10.200 -0.0432 -0.6016 -1.9267
  623MOL0     H84039   9.724  -0.064  10.226  3.4272 -1.9578 -1.2676
  623MOL0     H84040  10.151  -0.060  10.049  2.1513  1.7216  1.7748
  623MOL0     H84041  10.157  -0.064  10.226 -0.7242  1.3881 -0.1835
  623MOL0     H84042  10.085  -0.312  10.067 -0.6572 -0.2425  1.3503
  623MOL0     H84043  10.257  -0.275  10.108  0.3546 -1.1565 -0.2769
  623MOL0     H84044  10.156  -0.255  10.352 -1.7596  0.7794  0.4175
  623MOL0     H84045  10.018  -0.351  10.287  0.0567 -0.5047  4.5010
  623MOL0     H84046  10.166  -0.523  10.219 -0.5662 -0.8920  1.1978
  623MOL0     H84047  10.311  -0.433  10.282  0.8354 -1.0943 -1.7535
  623MOL0     H84048  10.069  -0.541  10.439  0.6116 -1.2210 -1.4933
  623MOL0     H84049  10.213  -0.626  10.437 -0.5993 -0.3532 -2.7615
  623MOL0     H84050  10.307  -0.408  10.530 -0.1805  0.8642 -1.5368
  623MOL0     H84051  10.132  -0.376  10.565  0.1174  0.0956  1.3761
  623MOL0     H84052  10.116  -0.570  10.704  0.5686 -3.3500 -2.1395
  623MOL0     H84053  10.261  -0.634  10.648 -1.8295 -1.0556  0.1885
  623MOL0     H84054  10.387  -0.438  10.773  0.4759  0.0695  1.6422
  623MOL0     H84055  10.287  -0.554  10.863 -0.1684 -1.7709 -2.1338
  623MOL0     H84056  10.037  -0.440  10.946 -2.1191  0.5905 -3.3634
  623MOL0     H84057   9.964  -0.070  11.064 -2.1364 -0.3470  2.7295
  623MOL0     H84058   9.888  -0.232  11.051 -0.1718  0.3086 -1.3439
  623MOL0     H84059  10.149  -0.193  11.196  0.1430 -1.5963  0.9959
  623MOL0     H84060  10.045  -0.328  11.200  1.5502 -0.3388  4.6712
  623MOL0     H84061   9.952  -0.222  11.399 -1.2788 -1.0464 -0.3992
  623MOL0     H84062   9.876  -0.112  11.289 -0.6606 -3.1675 -0.4231
  623MOL0     H84063   9.971   0.027  11.434 -1.0383 -2.1657  0.4051
  623MOL0     H84064  10.089   0.041  11.305 -0.1419 -0.0744 -0.4879
  623MOL0     H84065  10.285  -0.155  11.652 -0.0410  1.1634 -1.1173
  623MOL0     H84066  10.426  -0.018  11.930 -2.9492 -2.1469  0.6175
  623MOL0     H84067  10.428  -0.170  11.842  1.5774  0.3864  1.0882
  623MOL0     H84068  10.562  -0.063  11.820 -0.4733  1.3174 -2.3651
  623MOL0     H84069  10.743   0.415  11.718  1.8587  0.3899 -0.5145
  623MOL0     H84070  10.870   0.587  11.795  0.4330  1.4965 -2.1891
  623MOL0     H84071  10.913   0.956  11.911  0.9316  0.2656  1.2052
  623MOL0     H84072  10.987   0.791  11.877 -0.0157 -0.2125 -0.0292
  623MOL0     H84073  10.857   0.802  11.651 -1.8030  1.5385 -2.0389
  623MOL0     H84074  10.785   0.950  11.718  1.4227  1.9266  2.1753
  623MOL0     H84075  11.068   0.890  11.640 -2.1067 -2.5321  1.3902
  623MOL0     H84076  11.039   1.024  11.737 -1.9395 -1.0051  1.4389
  623MOL0     H84077  10.866   1.004  11.483 -1.0669 -0.1494  2.1687
  623MOL0     H84078  10.967   1.141  11.529  1.3618  0.1335 -3.1020
  623MOL0     H84079  11.061   0.887  11.421 -1.8531 -0.3693  2.7341
  623MOL0     H84080  11.179   1.011  11.468  0.5402 -0.9200 -3.2949
  623MOL0     H84081  10.970   1.086  11.248  0.3215  2.5459 -0.4151
  623MOL0     H84082  11.122   1.167  11.294  0.1599  0.7205 -4.8816
  623MOL0     H84083  11.079   0.922  11.130 -0.3055 -0.2301  2.9375
  623MOL0     H84084  11.232   0.944  11.216 -1.1584 -1.0030  0.4105
  623MOL0     H84085  11.092   1.152  11.042 -1.0977 -1.8555 -0.9772
  623MOL0     H84086  11.199   1.039  10.962  0.6436 -1.0963 -0.3132
  623MOL0     H84087  10.533   0.743  12.017  0.4007  2.2908 -1.8384
  623MOL0     H84088  10.401   0.558  11.937  0.2815  0.8701 -1.8442
  623MOL0     H84089  10.284   0.327  11.609 -3.4996 -0.2995 -2.5441
  623MOL0     H84090  10.159   0.194  11.445  0.2975 -0.7682 -0.7081
  623MOL0     H84091  10.048   0.118  10.001  0.3931  2.8577 -0.5305
  623MOL0     H84092   9.943   0.333  10.011  1.5062 -0.9890 -0.5151
  623MOL0     H84093   9.782   0.648  10.112  0.1461  3.1082  3.6786
  623MOL0     H84094   9.716   0.885  10.132 -0.4417  0.8790  1.7116
  623MOL0     H84095   9.281   0.982  10.108  3.3877 -1.6852 -1.9790
  623MOL0     H84096   9.327   0.963  10.288  3.0895 -1.1226  0.3889
  623MOL0     H84097   9.451   1.207  10.235 -1.0690  4.5868 -1.6061
  623MOL0     H84098   9.306   1.199  10.318 -1.1227  1.7451 -1.1755
  623MOL0     H84099   9.178   1.210  10.092  0.0919 -0.9627  1.8278
  623MOL0     H84100   9.331   1.197  10.017 -4.3114 -1.0576 -2.3456
  623MOL0     H84101   9.284   1.443  10.018  0.2735 -1.9940 -1.3208
  623MOL0     H84102   9.406   1.408  10.152 -0.1216 -3.3733 -0.4177
  623MOL0     H84103   9.048   1.476  10.371 -1.8818 -3.6697  0.6764
  623MOL0     H84104   9.298   0.766  10.151  0.1231  0.0348  2.3569
  623MOL0     H84105   9.363   0.534  10.130 -2.7758  1.8207  3.4737
  624MOL0     O84106   3.808   4.202   2.102 -1.0614  0.4604  0.6449
  624MOL0     C84107   3.897   4.279   2.143 -0.0115 -0.2686 -1.2748
  624MOL0     O84108   4.002   4.319   2.072  0.4365  0.2781 -0.6583
  624MOL0     C84109   4.006   4.310   1.931 -0.8107 -0.9266  0.4526
  624MOL0     C84110   3.904   4.259   1.844 -0.2599 -0.1587 -0.5753
  624MOL0     C84111   3.921   4.265   1.703 -0.4736 -0.4651 -0.7749
  624MOL0     C84112   4.041   4.317   1.643 -0.6139 -0.2727  0.3959
  624MOL0     O84113   4.050   4.299   1.505 -0.7102  0.2404  0.6883
  624MOL0     C84114   4.185   4.295   1.453  0.2165  0.3287  0.2113
  624MOL0     C84115   4.189   4.304   1.298 -0.7282 -0.4663 -0.7868
  624MOL0     C84116   4.327   4.291   1.228  1.0963 -0.2943 -0.4028
  624MOL0     C84117   4.335   4.282   1.077  0.5443 -0.2842  0.2471
  624MOL0     C84118   4.332   4.145   1.011  0.3469  0.3684 -0.0488
  624MOL0     C84119   4.336   4.149   0.861  0.2462 -0.2124 -0.0514
  624MOL0     C84120   4.316   4.004   0.799  0.3144  0.1054 -0.5710
  624MOL0     C84121   4.439   3.911   0.839 -0.5824  0.6643  0.0033
  624MOL0     N84122   4.450   3.789   0.753  0.2346 -1.2742 -0.3771
  624MOL0     C84123   4.501   3.788   0.621  0.7681 -0.2918 -0.5303
  624MOL0     C84124   4.525   3.656   0.593  0.5649 -1.1259  0.1309
  624MOL0     C84125   4.597   3.616   0.465  0.0919 -0.3088 -0.2996
  624MOL0     C84126   4.549   3.492   0.384 -0.4636  0.5441 -0.1730
  624MOL0     C84127   4.540   3.500   0.229 -1.1747  0.1443 -0.3573
  624MOL0     C84128   4.447   3.613   0.179 -0.2787 -1.2088 -0.9849
  624MOL0     O84129   4.310   3.583   0.232  0.3075 -0.0595 -0.7604
  624MOL0     C84130   4.254   3.684   0.302  0.6206 -0.6953  0.8166
  624MOL0     C84131   4.204   3.790   0.234  0.5465  0.4415 -0.4488
  624MOL0     C84132   4.143   3.895   0.301 -0.2264 -0.1776  0.0016
  624MOL0     C84133   4.082   4.005   0.224  0.6030  0.1948 -0.1474
  624MOL0     C84134   4.128   3.887   0.449  0.5979  0.9831 -0.2802
  624MOL0     C84135   4.062   3.999   0.528 -0.6067  0.1077 -0.0181
  624MOL0     O84136   4.016   3.965   0.656 -0.0529 -0.1319  0.0641
  624MOL0     C84137   3.963   4.061   0.736 -1.0088  0.9398  0.1639
  624MOL0     C84138   3.990   4.200   0.750 -0.1304 -0.8381 -0.5459
  624MOL0     C84139   3.939   4.277   0.854 -0.8337  0.1972 -0.3488
  624MOL0     C84140   3.864   4.214   0.947  0.1239  0.0691 -0.6511
  624MOL0     O84141   3.806   4.278   1.052 -0.0973  0.7188 -0.0792
  624MOL0     C84142   3.833   4.412   1.069  0.3925  0.3305 -0.1083
  624MOL0     C84143   3.757   4.475   1.188  0.4807 -0.1848 -0.3771
  624MOL0     C84144   3.769   4.628   1.188  0.9895  0.2728  0.2715
  624MOL0     C84145   3.912   4.674   1.217  1.0465 -0.0754  0.0297
  624MOL0     C84146   3.989   4.706   1.088 -0.0643  0.3966  0.2344
  624MOL0     C84147   4.140   4.676   1.098 -0.2494 -0.5290  0.8286
  624MOL0     C84148   4.210   4.779   1.186 -0.5139 -0.7382 -0.0572
  624MOL0     C84149   4.365   4.745   1.200 -0.6787  0.6787  0.2780
  624MOL0    Cl84150   4.453   4.860   1.297 -0.2268 -0.1807 -0.0222
  624MOL0     C84151   3.832   4.080   0.941  0.7104 -0.6135  0.2899
  624MOL0     C84152   3.877   4.010   0.832 -0.3907  0.8719 -0.6678
  624MOL0     O84153   4.051   4.110   0.482 -0.3642  0.5750  0.6600
  624MOL0     C84154   4.178   3.771   0.517 -0.2546  0.1973  0.6348
  624MOL0     C84155   4.240   3.667   0.439  0.0399 -0.6487  1.0711
  624MOL0     N84156   4.508   3.581   0.708 -1.1254  0.0613 -0.0481
  624MOL0     N84157   4.461   3.659   0.803  0.0659  0.1406 -0.0698
  624MOL0     C84158   4.144   4.356   1.727 -0.6461  0.2781  0.8138
  624MOL0     C84159   4.124   4.354   1.865 -1.0658 -0.0047  0.7019
  624MOL0     C84160   3.894   4.316   2.290 -0.4807 -0.7256 -0.5574
  624MOL0     C84161   3.766   4.337   2.346 -0.0766  0.7728  0.3682
  624MOL0     C84162   3.757   4.353   2.482  0.3744  0.3929  0.5868
  624MOL0     C84163   3.869   4.378   2.567  0.2179  0.9352 -0.4218
  624MOL0     O84164   3.861   4.400   2.702 -0.8408 -0.3277  0.4164
  624MOL0     C84165   3.823   4.540   2.715  0.5041 -0.1249  0.3752
  624MOL0     C84166   3.836   4.599   2.855  1.5599 -0.6445  0.0245
  624MOL0     C84167   3.987   4.619   2.898  0.5689 -0.1073  0.3068
  624MOL0     C84168   4.017   4.676   3.046  1.4735  0.9877  0.5179
  624MOL0     C84169   3.960   4.584   3.147 -0.0936 -0.3509 -0.1290
  624MOL0     C84170   3.910   4.519   3.247  1.1470  1.5970  0.7082
  624MOL0     C84171   3.990   4.362   2.505  0.2118  0.3460 -1.0252
  624MOL0     C84172   4.009   4.323   2.375  0.0562 -0.0540 -0.4787
  624MOL0     H84173   3.805   4.229   1.877 -1.2766  1.9749 -1.4926
  624MOL0     H84174   3.845   4.223   1.637 -2.3515  0.7172  0.5543
  624MOL0     H84175   4.256   4.370   1.490  1.5110  0.1902 -1.7988
  624MOL0     H84176   4.227   4.198   1.480  0.3424  0.4581  0.4856
  624MOL0     H84177   4.119   4.233   1.255  0.0341 -1.1370 -0.9436
  624MOL0     H84178   4.158   4.403   1.264  0.5472 -0.3801 -1.7902
  624MOL0     H84179   4.382   4.377   1.267 -1.7442  2.0201 -1.0993
  624MOL0     H84180   4.391   4.211   1.265 -0.7999 -1.5401  0.3481
  624MOL0     H84181   4.252   4.342   1.040 -0.9766 -2.0940  0.5831
  624MOL0     H84182   4.436   4.318   1.052  0.2611 -0.1179 -0.6620
  624MOL0     H84183   4.415   4.083   1.047  0.5639  0.1971 -0.8138
  624MOL0     H84184   4.236   4.097   1.032  1.5416 -0.8410  3.3830
  624MOL0     H84185   4.244   4.199   0.828  0.6936  0.4210 -0.3596
  624MOL0     H84186   4.416   4.213   0.823 -0.4992  2.7656  2.9358
  624MOL0     H84187   4.221   3.962   0.834  0.7917  0.3475  1.1055
  624MOL0     H84188   4.324   4.008   0.690  1.7556 -2.0411 -0.5987
  624MOL0     H84189   4.424   3.887   0.944  0.4692  0.5996  0.1446
  624MOL0     H84190   4.534   3.964   0.831 -0.2131  0.2373  1.4189
  624MOL0     H84191   4.514   3.873   0.555 -2.0466 -0.8499 -1.9423
  624MOL0     H84192   4.594   3.705   0.402 -0.0078  0.5431  0.8679
  624MOL0     H84193   4.702   3.601   0.491  0.2276 -1.4316 -1.3854
  624MOL0     H84194   4.453   3.464   0.428 -0.4786  1.9840  0.7907
  624MOL0     H84195   4.615   3.407   0.399 -0.7237  0.3649 -0.0434
  624MOL0     H84196   4.504   3.405   0.189  0.4310 -0.2182 -1.0118
  624MOL0     H84197   4.642   3.511   0.191 -1.7199 -0.8423 -2.2259
  624MOL0     H84198   4.449   3.620   0.070 -1.4675 -1.7944 -1.0622
  624MOL0     H84199   4.485   3.704   0.226 -1.5650 -1.2170  0.1667
  624MOL0     H84200   4.227   3.795   0.128 -1.9129 -1.9062 -1.2095
  624MOL0     H84201   3.974   4.003   0.234 -0.0799 -0.1553 -5.1620
  624MOL0     H84202   4.127   4.099   0.257  0.2239 -0.2456  1.7258
  624MOL0     H84203   4.111   3.980   0.122 -1.5166 -4.0112  0.0695
  624MOL0     H84204   4.053   4.247   0.676 -3.5292  2.6381 -1.5488
  624MOL0     H84205   3.958   4.384   0.859 -0.4491  0.1977 -1.5616
  624MOL0     H84206   3.942   4.425   1.075  0.1553  2.1913  4.9803
  624MOL0     H84207   3.795   4.457   0.977 -0.0008  0.5859  0.1804
  624MOL0     H84208   3.651   4.447   1.193 -0.0918  1.8486 -0.3180
  624MOL0     H84209   3.805   4.447   1.282 -0.2915  2.5089  0.9106
  624MOL0     H84210   3.698   4.671   1.259  1.2567  0.0101  0.7068
  624MOL0     H84211   3.733   4.672   1.095 -0.3387 -1.5429 -0.1304
  624MOL0     H84212   3.905   4.763   1.279 -0.4363 -0.1710  0.0274
  624MOL0     H84213   3.962   4.605   1.286 -0.9374 -1.1802  0.4500
  624MOL0     H84214   3.975   4.811   1.059  1.8608  1.4207  2.6529
  624MOL0     H84215   3.967   4.644   1.001  1.0273 -1.8138  1.4601
  624MOL0     H84216   4.152   4.572   1.130 -1.0742 -0.7632  0.4172
  624MOL0     H84217   4.174   4.681   0.994 -1.0956  1.0162  0.5996
  624MOL0     H84218   4.155   4.790   1.280  0.1110  0.1795  0.2183
  624MOL0     H84219   4.203   4.878   1.140 -5.2278 -1.5596 -1.7049
  624MOL0     H84220   4.396   4.739   1.095 -1.0693 -0.8983  0.2284
  624MOL0     H84221   4.375   4.641   1.233 -5.2003  0.2829  1.0758
  624MOL0     H84222   3.760   4.030   1.005 -1.2469 -0.2609 -1.5644
  624MOL0     H84223   3.861   3.902   0.835  0.8650  0.6877  2.2380
  624MOL0     H84224   4.175   3.752   0.624 -1.6356  0.3742  0.6551
  624MOL0     H84225   4.274   3.575   0.484  1.2099 -0.7364  0.0425
  624MOL0     H84226   4.233   4.406   1.690  0.0335 -0.7566  0.9939
  624MOL0     H84227   4.195   4.407   1.928 -2.6316  2.6114  0.3952
  624MOL0     H84228   3.683   4.324   2.276  1.5060  0.1038 -1.4869
  624MOL0     H84229   3.665   4.351   2.539 -1.0699 -0.2588 -1.6434
  624MOL0     H84230   3.879   4.608   2.649  0.0313  1.4069  1.5030
  624MOL0     H84231   3.718   4.539   2.684 -0.1757 -4.8575  2.0268
  624MOL0     H84232   3.786   4.542   2.935  1.8856 -1.9670 -0.6780
  624MOL0     H84233   3.793   4.699   2.859  5.3284  1.1421  3.7617
  624MOL0     H84234   4.045   4.689   2.836  1.2783 -0.6987  0.2871
  624MOL0     H84235   4.032   4.519   2.896  1.5898  0.2427  2.8562
  624MOL0     H84236   3.975   4.777   3.046  1.0085  0.8119 -0.5673
  624MOL0     H84237   4.123   4.687   3.072  0.9585  3.0581  1.9097
  624MOL0     H84238   3.872   4.463   3.330  3.4596  1.0745  1.5083
  624MOL0     H84239   4.075   4.362   2.573 -0.5204  1.5411 -0.0585
  624MOL0     H84240   4.109   4.300   2.340 -1.3195 -2.4378 -3.1618
  625MOL0     O84241   3.912   7.844   7.570  0.3823  0.2975 -0.0377
  625MOL0     C84242   3.867   7.828   7.458 -0.1587  0.5221 -0.4304
  625MOL0     O84243   3.801   7.924   7.377  0.4608  0.5435  0.4671
  625MOL0     C84244   3.818   8.055   7.421 -1.1288  0.2620 -0.4128
  625MOL0     C84245   3.721   8.128   7.493 -0.2054  0.3546  0.2620
  625MOL0     C84246   3.747   8.250   7.551 -0.6128 -0.4881  1.1880
  625MOL0     C84247   3.877   8.309   7.539 -0.8498  0.5151  0.7415
  625MOL0     O84248   3.914   8.432   7.589 -0.1750  0.6066  0.1595
  625MOL0     C84249   3.807   8.513   7.644  1.7027 -1.7763  0.3398
  625MOL0     C84250   3.879   8.632   7.701  0.0440  0.5060 -0.1379
  625MOL0     C84251   3.791   8.712   7.799  0.5997  0.2538  0.2337
  625MOL0     C84252   3.834   8.856   7.809 -0.2237  0.4635 -0.3458
  625MOL0     C84253   3.974   8.874   7.861  0.4046 -0.7434 -0.1452
  625MOL0     C84254   3.995   9.027   7.897 -0.4518  0.4527  0.5840
  625MOL0     C84255   4.122   9.034   7.991  0.2126 -0.3483  0.5960
  625MOL0     C84256   4.187   9.175   7.994  0.5352  0.1579  0.7253
  625MOL0     N84257   4.316   9.164   8.056  0.4714  0.7303 -0.4667
  625MOL0     C84258   4.375   9.271   8.128  0.3073 -0.3870  0.4205
  625MOL0     C84259   4.502   9.233   8.143 -0.4043  0.1721 -0.8217
  625MOL0     C84260   4.602   9.332   8.192 -0.1044  0.4059  0.6369
  625MOL0     C84261   4.600   9.469   8.117 -0.3952  0.1992 -0.4184
  625MOL0     C84262   4.637   9.464   7.975  0.0161 -0.3482  0.3946
  625MOL0     C84263   4.749   9.567   7.940 -0.4992 -0.5316  0.3648
  625MOL0     O84264   4.758   9.577   7.806  0.2182 -0.2788 -0.4086
  625MOL0     C84265   4.829   9.689   7.758 -0.1254  0.8587 -0.4514
  625MOL0     C84266   4.907   9.769   7.845  0.7106 -0.6067  0.6762
  625MOL0     C84267   4.973   9.879   7.786 -1.0481 -0.2712 -0.2930
  625MOL0     C84268   5.041   9.976   7.885  1.0938  0.7064 -0.1266
  625MOL0     C84269   4.976   9.907   7.647  0.2121 -0.2318  0.9296
  625MOL0     C84270   5.034  10.027   7.571 -0.4757 -0.1082  0.3919
  625MOL0     O84271   4.994  10.049   7.436  0.0132  0.9921 -0.2730
  625MOL0     C84272   5.050  10.148   7.367 -0.6789 -0.6151  0.9933
  625MOL0     C84273   5.114  10.106   7.245  0.5884  0.3631  0.3808
  625MOL0     C84274   5.181  10.195   7.168 -0.1689 -0.0676  0.3528
  625MOL0     C84275   5.170  10.336   7.188  0.2812 -0.1184 -0.3508
  625MOL0     O84276   5.236  10.426   7.110 -0.3341 -0.1418 -0.4344
  625MOL0     C84277   5.312  10.374   6.997 -0.6795 -0.4887 -0.5224
  625MOL0     C84278   5.425  10.461   6.942 -0.2516 -0.4372  0.0941
  625MOL0     C84279   5.463  10.411   6.797  0.5308  0.4602 -0.2509
  625MOL0     C84280   5.606  10.454   6.766  0.0388 -0.6310 -0.1304
  625MOL0     C84281   5.634  10.460   6.621 -0.0679 -0.8828  0.2891
  625MOL0     C84282   5.774  10.483   6.592 -0.6520 -1.0149  0.3464
  625MOL0     C84283   5.799  10.510   6.433  0.3104  0.1407 -0.3571
  625MOL0     C84284   5.946  10.500   6.390 -0.1384 -0.3572  0.1327
  625MOL0    Cl84285   6.011  10.330   6.435 -0.0974  0.1367  0.3833
  625MOL0     C84286   5.103  10.377   7.301  0.1911 -0.0840  0.2738
  625MOL0     C84287   5.040  10.285   7.397 -0.4156  0.4203  1.4116
  625MOL0     O84288   5.113  10.104   7.627 -0.2638  0.3515  0.2664
  625MOL0     C84289   4.900   9.821   7.571  0.0873  0.2443 -0.6210
  625MOL0     C84290   4.827   9.711   7.622 -0.1010 -0.3037 -0.5233
  625MOL0     N84291   4.525   9.110   8.081 -0.2138  0.6145  0.0077
  625MOL0     N84292   4.409   9.067   8.031  0.0363 -0.0420  0.6993
  625MOL0     C84293   3.971   8.246   7.451  0.7075 -0.0244  0.0055
  625MOL0     C84294   3.945   8.115   7.403 -0.1377 -0.2896  0.4206
  625MOL0     C84295   3.853   7.687   7.400  0.5244 -0.0761  0.1025
  625MOL0     C84296   3.906   7.572   7.465  0.1059 -0.3032 -0.5768
  625MOL0     C84297   3.899   7.442   7.408 -0.7631  0.5082 -0.6490
  625MOL0     C84298   3.828   7.419   7.290  0.8833  0.3594  1.2864
  625MOL0     O84299   3.834   7.305   7.223 -0.0426  0.3970 -0.0843
  625MOL0     C84300   3.885   7.187   7.281  0.1725  0.8818  0.4288
  625MOL0     C84301   3.800   7.119   7.388  0.4039 -0.3734 -0.1949
  625MOL0     C84302   3.672   7.065   7.320  0.2675  0.1977 -0.6665
  625MOL0     C84303   3.694   6.923   7.283 -0.3411 -0.4583  0.4900
  625MOL0     C84304   3.580   6.867   7.213 -0.5298  0.3895 -0.4410
  625MOL0     C84305   3.488   6.843   7.138  0.3556  0.6972 -0.1492
  625MOL0     C84306   3.769   7.532   7.234  0.2267 -0.3690 -0.3403
  625MOL0     C84307   3.793   7.666   7.283  0.2346  0.5573  0.6206
  625MOL0     H84308   3.629   8.081   7.526 -0.2679  0.2107 -0.1079
  625MOL0     H84309   3.671   8.284   7.621 -1.9913 -0.9376 -0.0487
  625MOL0     H84310   3.735   8.554   7.573  1.1808  1.1450  2.3867
  625MOL0     H84311   3.758   8.468   7.731 -1.9112  2.9429  1.1761
  625MOL0     H84312   3.965   8.596   7.758  0.1779 -0.1334 -0.7207
  625MOL0     H84313   3.917   8.693   7.619 -0.4080 -1.3873 -1.8453
  625MOL0     H84314   3.690   8.710   7.757  1.0298 -0.5437 -0.8143
  625MOL0     H84315   3.781   8.656   7.893  0.5152 -0.5754 -0.2649
  625MOL0     H84316   3.827   8.903   7.711 -1.9048  0.8110 -0.0788
  625MOL0     H84317   3.768   8.903   7.882 -1.8439 -2.9520  0.5611
  625MOL0     H84318   3.987   8.815   7.952 -1.0499  0.1420  0.6707
  625MOL0     H84319   4.050   8.840   7.790  0.7127  0.8583 -0.6256
  625MOL0     H84320   4.023   9.084   7.808  2.4366 -1.0818  0.3949
  625MOL0     H84321   3.914   9.084   7.943 -0.8730  0.0859  0.3074
  625MOL0     H84322   4.094   9.004   8.093 -0.9001  3.0533  1.3997
  625MOL0     H84323   4.191   8.964   7.943  1.3755  1.5868 -0.6812
  625MOL0     H84324   4.134   9.244   8.060  4.6168  0.6251  3.9221
  625MOL0     H84325   4.183   9.212   7.891 -1.3141 -0.8957  0.3697
  625MOL0     H84326   4.319   9.359   8.156 -0.9574 -0.9323 -0.2983
  625MOL0     H84327   4.578   9.375   8.289 -1.4416  0.0387  0.4931
  625MOL0     H84328   4.704   9.297   8.211 -0.0246  0.8128  0.9802
  625MOL0     H84329   4.662   9.539   8.174 -0.6939 -0.0880  0.2651
  625MOL0     H84330   4.500   9.508   8.134 -0.7656 -0.0523 -1.8508
  625MOL0     H84331   4.559   9.472   7.898 -0.7789 -0.7616  1.1424
  625MOL0     H84332   4.671   9.364   7.948 -0.2194 -0.0726 -1.0220
  625MOL0     H84333   4.842   9.528   7.983 -0.2451  1.5196  1.8753
  625MOL0     H84334   4.723   9.668   7.974 -0.8075 -0.1507 -0.9590
  625MOL0     H84335   4.905   9.770   7.953  4.2523 -0.8448  0.8654
  625MOL0     H84336   5.139   9.996   7.840  1.9603 -3.5516 -0.5581
  625MOL0     H84337   4.975  10.062   7.896  2.5665  1.5706  4.1297
  625MOL0     H84338   5.046   9.946   7.991 -1.0099  1.6552  0.2983
  625MOL0     H84339   5.115   9.999   7.223 -1.1398  0.9214 -3.2883
  625MOL0     H84340   5.228  10.138   7.088  1.2005 -3.1142  3.1007
  625MOL0     H84341   5.373  10.288   7.024  1.2259  0.8844 -0.2825
  625MOL0     H84342   5.238  10.367   6.916  0.6021  0.3465 -1.8241
  625MOL0     H84343   5.398  10.567   6.942  0.3942 -0.2381  1.8092
  625MOL0     H84344   5.518  10.456   7.001 -0.1605 -1.9548 -0.1445
  625MOL0     H84345   5.396  10.458   6.725 -1.0010 -0.6075  0.4212
  625MOL0     H84346   5.453  10.303   6.782 -0.4420  0.2458  1.6860
  625MOL0     H84347   5.616  10.557   6.803  3.4553 -0.8172 -0.2221
  625MOL0     H84348   5.685  10.397   6.816  1.7750  1.4453 -0.3476
  625MOL0     H84349   5.580  10.548   6.587 -1.0813 -1.4308  0.4410
  625MOL0     H84350   5.583  10.389   6.556 -0.8230  3.2951 -4.2565
  625MOL0     H84351   5.804  10.571   6.650 -0.5005 -1.7618  1.4450
  625MOL0     H84352   5.838  10.407   6.639 -2.0800 -2.5451 -0.1144
  625MOL0     H84353   5.750  10.604   6.406 -2.0397 -0.1465  2.3956
  625MOL0     H84354   5.738  10.440   6.375  1.2236 -0.4808 -0.5909
  625MOL0     H84355   5.999  10.576   6.448 -1.9857  1.4338 -0.3949
  625MOL0     H84356   5.948  10.516   6.281  0.4857  0.1702  0.2130
  625MOL0     H84357   5.091  10.485   7.308  2.0551  0.1554  0.3187
  625MOL0     H84358   4.972  10.316   7.476 -0.9889 -1.4624  1.7004
  625MOL0     H84359   4.899   9.815   7.463 -0.4714 -0.1332 -0.5990
  625MOL0     H84360   4.762   9.642   7.569 -2.1492  0.1513  1.2631
  625MOL0     H84361   4.069   8.292   7.453  0.3866  0.9485 -2.8379
  625MOL0     H84362   4.012   8.065   7.334 -0.6163 -2.2785  1.3457
  625MOL0     H84363   3.952   7.591   7.561 -2.4219  1.7791  0.3530
  625MOL0     H84364   3.952   7.363   7.460 -0.8860  0.6831 -0.2492
  625MOL0     H84365   3.904   7.106   7.209  2.8439 -0.2328  2.2203
  625MOL0     H84366   3.986   7.211   7.316  1.5597 -3.2667 -0.1874
  625MOL0     H84367   3.782   7.186   7.472  2.2927 -1.3015  1.0161
  625MOL0     H84368   3.862   7.039   7.429  1.2146  0.9743  1.3137
  625MOL0     H84369   3.643   7.129   7.236 -0.6926  1.0103  0.2440
  625MOL0     H84370   3.591   7.080   7.392  0.3231  0.3774 -0.6420
  625MOL0     H84371   3.703   6.866   7.376 -1.0037  0.6759  1.2735
  625MOL0     H84372   3.783   6.925   7.221 -1.4458 -0.4152 -1.1533
  625MOL0     H84373   3.406   6.810   7.077  0.5045  0.7992 -0.4075
  625MOL0     H84374   3.727   7.523   7.135 -2.7348  2.5580  0.4589
  625MOL0     H84375   3.763   7.751   7.223 -2.1458 -0.3998  0.3525
  626MOL0     O84376   6.806   9.864   4.204 -0.1153  0.3462 -0.3984
  626MOL0     C84377   6.858   9.789   4.291  0.7013 -0.2928  0.6182
  626MOL0     O84378   6.950   9.823   4.386  0.7627  1.2756 -0.1864
  626MOL0     C84379   6.965   9.960   4.404 -0.9345 -0.0589 -0.6445
  626MOL0     C84380   7.074  10.037   4.351  1.0337 -0.2999  0.7631
  626MOL0     C84381   7.098  10.172   4.390  0.7883  0.8985  0.9054
  626MOL0     C84382   7.018  10.220   4.491  0.2568  0.5499 -0.0820
  626MOL0     O84383   7.039  10.342   4.534 -0.3508 -0.2644 -0.2669
  626MOL0     C84384   7.038  10.362   4.679  0.0663  0.0633 -0.4165
  626MOL0     C84385   7.106  10.491   4.712 -0.4558  0.2690  0.7798
  626MOL0     C84386   7.054  10.555   4.836  0.0045  0.5613  0.1180
  626MOL0     C84387   6.912  10.611   4.827  0.0408 -0.3846  0.2359
  626MOL0     C84388   6.863  10.677   4.956  0.0979  0.2254  0.6616
  626MOL0     C84389   6.730  10.756   4.938 -0.0036  1.1248 -0.6618
  626MOL0     C84390   6.612  10.666   4.920 -0.9952  0.7155 -0.6223
  626MOL0     C84391   6.484  10.751   4.934 -0.2853 -0.7108  0.1387
  626MOL0     N84392   6.360  10.668   4.938  0.3842  0.5489 -0.4195
  626MOL0     C84393   6.263  10.644   4.839 -1.5313  0.3085  0.2657
  626MOL0     C84394   6.181  10.544   4.890 -0.1637  0.3076 -0.8551
  626MOL0     C84395   6.070  10.472   4.813  0.0341 -0.0733  0.0254
  626MOL0     C84396   5.955  10.564   4.803  0.0485 -0.4321  0.6624
  626MOL0     C84397   5.849  10.502   4.704 -0.3787  0.4599  0.7303
  626MOL0     C84398   5.737  10.610   4.685 -0.7383  0.3837  0.7967
  626MOL0     O84399   5.669  10.617   4.810  0.4064 -0.1915 -0.6343
  626MOL0     C84400   5.546  10.549   4.815 -0.1929 -0.0105  0.0943
  626MOL0     C84401   5.437  10.633   4.814  0.8987  0.4520  1.2745
  626MOL0     C84402   5.308  10.580   4.819 -1.0964  0.6576  0.0003
  626MOL0     C84403   5.199  10.670   4.803 -0.0558 -0.9950 -0.2049
  626MOL0     C84404   5.289  10.435   4.826 -0.1539  0.4514  0.4236
  626MOL0     C84405   5.156  10.365   4.794  0.1715 -0.9969  0.2549
  626MOL0     O84406   5.062  10.436   4.736 -0.6571 -0.3790 -0.0401
  626MOL0     C84407   4.939  10.388   4.704 -1.0533  0.1448  0.7816
  626MOL0     C84408   4.830  10.474   4.692  0.9428 -0.6310 -0.0213
  626MOL0     C84409   4.706  10.420   4.662  0.7883  0.1404  0.7704
  626MOL0     C84410   4.693  10.292   4.610  0.4633 -0.0399  0.2611
  626MOL0     O84411   4.580  10.225   4.578  1.4789 -0.1339  0.5334
  626MOL0     C84412   4.444  10.286   4.589 -0.7931 -0.1933 -0.1606
  626MOL0     C84413   4.396  10.344   4.457  0.0597  1.3210  1.0408
  626MOL0     C84414   4.348  10.234   4.367  0.7374  0.9492  0.1562
  626MOL0     C84415   4.368  10.266   4.213 -0.0830 -0.7860 -0.0558
  626MOL0     C84416   4.379  10.140   4.125 -0.2851  0.2615 -0.1563
  626MOL0     C84417   4.512  10.062   4.155 -0.0940 -1.0178 -0.9594
  626MOL0     C84418   4.638  10.130   4.099  0.3656 -0.1679  0.4223
  626MOL0     C84419   4.761  10.051   4.133  0.6043  0.1205 -0.3082
  626MOL0    Cl84420   4.829  10.087   4.296 -0.8493 -0.0967  0.3744
  626MOL0     C84421   4.812  10.221   4.594  0.7499 -0.1537 -0.8854
  626MOL0     C84422   4.930  10.265   4.635  0.1756 -0.5842  0.1590
  626MOL0     O84423   5.149  10.247   4.834  0.4278 -0.2366  1.0174
  626MOL0     C84424   5.408  10.354   4.831  0.6134  0.4588 -0.6879
  626MOL0     C84425   5.534  10.412   4.821 -0.2409  0.3209  0.1051
  626MOL0     N84426   6.234  10.511   5.019 -0.0247 -0.0808 -0.2087
  626MOL0     N84427   6.333  10.585   5.045  0.2908 -0.4686  0.1609
  626MOL0     C84428   6.907  10.152   4.536 -0.4518  0.6116  0.1027
  626MOL0     C84429   6.876  10.026   4.485 -0.3823  0.4127  0.1232
  626MOL0     C84430   6.781   9.660   4.317 -0.7992 -0.3773 -0.4233
  626MOL0     C84431   6.694   9.608   4.215 -0.4677 -0.1131 -0.1467
  626MOL0     C84432   6.632   9.480   4.231 -1.6930  0.6687 -0.5067
  626MOL0     C84433   6.649   9.403   4.353 -0.1758 -0.2367 -0.0604
  626MOL0     O84434   6.588   9.283   4.379 -0.0734 -0.4166  0.0907
  626MOL0     C84435   6.494   9.237   4.282  1.3626 -0.2456  0.3917
  626MOL0     C84436   6.410   9.126   4.349 -0.1938 -0.2227 -0.0248
  626MOL0     C84437   6.350   9.030   4.247 -0.4286  0.2839  0.4409
  626MOL0     C84438   6.255   8.930   4.312  1.2589 -0.6747  0.1439
  626MOL0     C84439   6.196   8.839   4.220  0.7577 -0.6931  0.2984
  626MOL0     C84440   6.144   8.761   4.139 -0.6884  1.0260 -0.0965
  626MOL0     C84441   6.723   9.459   4.460 -0.7801 -1.0637  0.4291
  626MOL0     C84442   6.791   9.586   4.442 -0.2116 -0.0058  0.8615
  626MOL0     H84443   7.145   9.995   4.280 -0.7258 -0.7059 -0.8547
  626MOL0     H84444   7.183  10.232   4.356  0.8827  1.7565  2.5429
  626MOL0     H84445   6.939  10.365   4.726 -0.2000  1.1800 -1.0076
  626MOL0     H84446   7.095  10.283   4.730  1.8783  1.8359  0.4701
  626MOL0     H84447   7.207  10.451   4.718 -0.4445 -0.0863 -1.1700
  626MOL0     H84448   7.102  10.561   4.627 -1.5867  2.2646  2.3957
  626MOL0     H84449   7.059  10.490   4.924 -2.4568 -0.1189 -0.1594
  626MOL0     H84450   7.119  10.639   4.862 -2.3232  1.7157  2.7628
  626MOL0     H84451   6.911  10.678   4.741  1.0726  1.2575  1.4505
  626MOL0     H84452   6.843  10.529   4.802 -0.5530  0.1529  0.0609
  626MOL0     H84453   6.840  10.600   5.030 -1.8794 -0.0761 -0.2067
  626MOL0     H84454   6.934  10.753   4.989 -0.9282  2.2882 -1.5408
  626MOL0     H84455   6.713  10.814   5.030 -4.1668 -1.4827  0.4941
  626MOL0     H84456   6.739  10.827   4.855  4.9000  2.5827  0.7900
  626MOL0     H84457   6.616  10.622   4.820 -1.6321 -1.1863  0.1336
  626MOL0     H84458   6.601  10.592   5.000 -1.3854  1.3209 -0.1111
  626MOL0     H84459   6.481  10.825   4.854 -0.6959  2.1891  2.6522
  626MOL0     H84460   6.482  10.812   5.025  1.7524  0.9514 -0.8420
  626MOL0     H84461   6.262  10.690   4.740  0.1257  1.1161  0.5903
  626MOL0     H84462   6.109  10.460   4.711 -0.2975  2.2398 -0.4328
  626MOL0     H84463   6.051  10.378   4.865 -2.3069  1.6088  2.4675
  626MOL0     H84464   5.989  10.663   4.771 -1.8202  0.1259  0.3032
  626MOL0     H84465   5.917  10.578   4.905 -1.0401 -1.9625  0.5012
  626MOL0     H84466   5.804  10.412   4.746 -0.8576  0.9492  1.2855
  626MOL0     H84467   5.898  10.473   4.611  1.6190 -0.8382  2.1012
  626MOL0     H84468   5.675  10.578   4.601  0.4382  0.3207 -0.0770
  626MOL0     H84469   5.781  10.708   4.665 -3.1737  1.9158  2.3637
  626MOL0     H84470   5.441  10.741   4.801 -0.1587  0.3926  0.3118
  626MOL0     H84471   5.143  10.670   4.709 -3.1479 -1.6342  1.5094
  626MOL0     H84472   5.123  10.628   4.869 -0.7242 -1.8589 -1.4848
  626MOL0     H84473   5.217  10.770   4.842  1.2168 -1.2661 -0.0417
  626MOL0     H84474   4.835  10.581   4.708 -2.9541 -0.1631 -0.8388
  626MOL0     H84475   4.616  10.481   4.655 -1.4832 -3.1277 -3.7480
  626MOL0     H84476   4.370  10.219   4.635  0.6882 -1.4754  0.4563
  626MOL0     H84477   4.445  10.379   4.647  3.4035 -0.0736 -0.1014
  626MOL0     H84478   4.318  10.420   4.465  0.0642  1.4122  0.3299
  626MOL0     H84479   4.478  10.389   4.401 -1.4433  2.0914 -0.6713
  626MOL0     H84480   4.241  10.224   4.386  0.2018  5.4617  0.4478
  626MOL0     H84481   4.395  10.138   4.392  1.4128  0.9663 -0.9381
  626MOL0     H84482   4.276  10.314   4.180 -0.1746 -0.9342 -0.0161
  626MOL0     H84483   4.443  10.343   4.193 -0.7407 -0.1952 -0.3048
  626MOL0     H84484   4.369  10.168   4.020 -2.6086  0.2016 -0.0013
  626MOL0     H84485   4.298  10.073   4.157  1.1283 -0.7744  1.4525
  626MOL0     H84486   4.531  10.038   4.260  1.5181 -0.4449 -1.1001
  626MOL0     H84487   4.498   9.969   4.099  0.7342 -0.0745 -2.8269
  626MOL0     H84488   4.651  10.233   4.135 -1.0620  0.6238 -1.1631
  626MOL0     H84489   4.638  10.148   3.991 -3.5009  1.7277  0.5673
  626MOL0     H84490   4.833  10.060   4.051  0.0289 -2.7087 -1.2210
  626MOL0     H84491   4.731   9.946   4.139 -1.8664  0.8578  2.3415
  626MOL0     H84492   4.810  10.124   4.547  1.4348 -0.0859 -1.0595
  626MOL0     H84493   5.022  10.210   4.626  1.0486 -0.2828  4.6305
  626MOL0     H84494   5.387  10.248   4.845 -3.9516  1.2556  0.1460
  626MOL0     H84495   5.624  10.351   4.827  0.5074  1.4499  0.8991
  626MOL0     H84496   6.833  10.188   4.608 -0.6704 -0.7309  0.5832
  626MOL0     H84497   6.793   9.973   4.531 -0.6837 -0.2933 -1.1881
  626MOL0     H84498   6.676   9.673   4.130  2.2363  2.1596  0.8719
  626MOL0     H84499   6.579   9.436   4.147 -0.2962 -2.1784 -0.0199
  626MOL0     H84500   6.427   9.318   4.255  0.6043 -0.8561  0.4153
  626MOL0     H84501   6.547   9.187   4.200 -3.0663 -1.7063 -1.8916
  626MOL0     H84502   6.329   9.178   4.402  1.4719  1.3720  1.0644
  626MOL0     H84503   6.481   9.091   4.425  2.1225 -1.8664 -2.7381
  626MOL0     H84504   6.428   8.989   4.181 -2.5080 -0.9801 -1.3467
  626MOL0     H84505   6.283   9.095   4.191 -1.4718 -1.8417 -0.9209
  626MOL0     H84506   6.187   8.993   4.368  0.7636  1.0248 -2.2029
  626MOL0     H84507   6.307   8.863   4.381 -0.3424  0.9512  3.1132
  626MOL0     H84508   6.114   8.680   4.075  2.5659 -1.0741  0.8034
  626MOL0     H84509   6.741   9.406   4.553 -2.9733 -2.4991  0.1117
  626MOL0     H84510   6.847   9.642   4.516 -2.9364  1.8021  1.7337
  627MOL0     O84511   7.563   7.328  11.419 -0.3328 -1.4415  0.5549
  627MOL0     C84512   7.554   7.449  11.400 -0.2693  0.7393  1.1151
  627MOL0     O84513   7.655   7.544  11.405  0.3374  0.4426 -0.2079
  627MOL0     C84514   7.794   7.505  11.412 -0.9086 -0.7046 -0.3180
  627MOL0     C84515   7.872   7.572  11.506  0.6055  1.1068 -0.2657
  627MOL0     C84516   8.010   7.551  11.499  0.0961  0.2908  0.0069
  627MOL0     C84517   8.071   7.475  11.400 -0.3396  0.6145  0.0111
  627MOL0     O84518   8.212   7.459  11.410  0.1460 -0.2823  0.1010
  627MOL0     C84519   8.275   7.374  11.312 -0.7556 -1.1052 -0.5201
  627MOL0     C84520   8.419   7.419  11.305 -0.1027 -0.0270 -0.1394
  627MOL0     C84521   8.460   7.417  11.156 -0.4601  0.5036  0.7252
  627MOL0     C84522   8.605   7.391  11.143 -0.8584 -0.4965 -0.2965
  627MOL0     C84523   8.650   7.391  10.993  0.6417  0.2219  0.3963
  627MOL0     C84524   8.637   7.537  10.939  0.4023  0.9271  0.0529
  627MOL0     C84525   8.655   7.550  10.785  1.3187  0.7208 -0.3087
  627MOL0     C84526   8.624   7.694  10.735  0.1092  0.1375 -0.2479
  627MOL0     N84527   8.740   7.784  10.756 -0.1677  0.2773  0.5297
  627MOL0     C84528   8.782   7.837  10.869 -0.2265  0.2940 -0.5853
  627MOL0     C84529   8.892   7.909  10.838  0.1796  0.3696  1.4705
  627MOL0     C84530   8.978   7.983  10.940 -0.3420  0.0628 -0.8923
  627MOL0     C84531   8.943   8.133  10.957 -0.2022  0.9831 -0.2758
  627MOL0     C84532   8.797   8.143  10.987 -0.4097 -0.3981 -0.0060
  627MOL0     C84533   8.757   8.286  11.019  0.4008  0.7469 -0.2143
  627MOL0     O84534   8.800   8.316  11.160  0.2777 -0.4528  0.1091
  627MOL0     C84535   8.869   8.435  11.163 -0.0125  0.5421  0.2929
  627MOL0     C84536   9.007   8.428  11.208 -0.5653  0.0423 -0.5602
  627MOL0     C84537   9.076   8.547  11.236 -0.6548 -0.2927  0.2868
  627MOL0     C84538   9.208   8.539  11.302 -0.8890 -1.1985 -0.4551
  627MOL0     C84539   9.027   8.680  11.198 -0.5988 -0.0936  0.7783
  627MOL0     C84540   9.085   8.812  11.233  0.5857 -0.0081 -1.3612
  627MOL0     O84541   9.199   8.822  11.308  0.9356  0.0903 -0.8110
  627MOL0     C84542   9.271   8.938  11.300 -0.8182 -0.1469 -0.7629
  627MOL0     C84543   9.239   9.063  11.334  0.8630 -0.0124 -0.4151
  627MOL0     C84544   9.322   9.170  11.294  0.9868  0.0108  0.0009
  627MOL0     C84545   9.434   9.154  11.220  0.3223  0.5227  0.6345
  627MOL0     O84546   9.495   9.268  11.172  0.3084  0.0112 -0.0384
  627MOL0     C84547   9.611   9.264  11.090  0.2757  0.1699 -0.4728
  627MOL0     C84548   9.660   9.407  11.060  0.4323  0.6209  0.4619
  627MOL0     C84549   9.560   9.481  10.968 -0.4731  0.1989 -0.5830
  627MOL0     C84550   9.546   9.427  10.827  0.7373 -0.4573 -0.8671
  627MOL0     C84551   9.430   9.488  10.749  0.0251 -0.2881  0.0324
  627MOL0     C84552   9.381   9.392  10.638  0.9415  0.5062 -0.1265
  627MOL0     C84553   9.289   9.457  10.534  0.4150  1.3757 -0.1359
  627MOL0     C84554   9.258   9.353  10.420  0.6564 -0.6710  0.3873
  627MOL0    Cl84555   9.156   9.445  10.297  0.3239  0.1876 -0.5082
  627MOL0     C84556   9.472   9.027  11.195  1.3196  0.6847 -0.5862
  627MOL0     C84557   9.392   8.918  11.238 -0.2148  0.7433 -0.4453
  627MOL0     O84558   9.011   8.906  11.211 -0.0286 -0.4153 -0.4956
  627MOL0     C84559   8.904   8.671  11.131  0.3511 -0.1730 -0.4350
  627MOL0     C84560   8.824   8.561  11.108 -0.3761 -0.4098 -0.5504
  627MOL0     N84561   8.920   7.903  10.709 -0.0075  0.1327  0.4589
  627MOL0     N84562   8.829   7.827  10.653 -0.4237 -0.6585  0.2814
  627MOL0     C84563   7.991   7.391  11.320 -0.5433 -1.1918  0.4935
  627MOL0     C84564   7.850   7.416  11.321  0.6624  0.2194 -0.0907
  627MOL0     C84565   7.419   7.490  11.361 -0.4071 -0.2276  0.4190
  627MOL0     C84566   7.327   7.398  11.304 -0.3945 -0.1785 -0.8686
  627MOL0     C84567   7.200   7.443  11.264 -0.3488 -0.3869  0.5458
  627MOL0     C84568   7.164   7.580  11.250  0.5034  0.3954  0.3484
  627MOL0     O84569   7.046   7.626  11.206 -0.0239 -0.7923 -0.5059
  627MOL0     C84570   6.935   7.542  11.209  0.9363  0.6744  0.4265
  627MOL0     C84571   6.802   7.613  11.220 -0.0878  0.0196 -0.0119
  627MOL0     C84572   6.795   7.694  11.349 -0.1151  0.2039  0.2508
  627MOL0     C84573   6.662   7.767  11.368  0.0341  0.4480 -0.5984
  627MOL0     C84574   6.649   7.815  11.510 -0.0755 -0.8616 -0.0918
  627MOL0     C84575   6.646   7.855  11.623 -0.4019  1.3410 -0.3198
  627MOL0     C84576   7.268   7.674  11.296 -0.1625  0.6172  0.1323
  627MOL0     C84577   7.383   7.632  11.364 -1.2398 -0.6955 -1.5230
  627MOL0     H84578   7.817   7.619  11.587  1.6721  0.5349  0.8103
  627MOL0     H84579   8.058   7.603  11.581  2.1345 -2.0713  0.4312
  627MOL0     H84580   8.266   7.274  11.356  3.6190 -0.8417  1.3883
  627MOL0     H84581   8.229   7.378  11.212 -1.6666 -1.8971 -0.1536
  627MOL0     H84582   8.449   7.515  11.348  2.4512 -0.0445 -1.6846
  627MOL0     H84583   8.472   7.339  11.357 -2.6028 -0.6786  1.5788
  627MOL0     H84584   8.408   7.350  11.088  0.4243 -0.3962  0.9150
  627MOL0     H84585   8.445   7.523  11.134 -2.3285  0.4042  1.3927
  627MOL0     H84586   8.662   7.459  11.207 -0.8868 -1.9438  1.3438
  627MOL0     H84587   8.616   7.293  11.191 -1.1289  0.2951  1.4639
  627MOL0     H84588   8.751   7.350  10.986  0.5346 -0.0980  0.6903
  627MOL0     H84589   8.588   7.333  10.923 -1.2424  2.0566  0.4544
  627MOL0     H84590   8.535   7.572  10.959  0.4818 -0.1106  2.7872
  627MOL0     H84591   8.708   7.598  10.996 -0.5131  0.1741  2.1060
  627MOL0     H84592   8.753   7.527  10.741  1.2328  2.9813 -1.8567
  627MOL0     H84593   8.589   7.481  10.733  0.0074  0.9912  0.9237
  627MOL0     H84594   8.528   7.729  10.773 -0.9015 -0.0970 -2.4370
  627MOL0     H84595   8.604   7.686  10.628  2.8390 -1.1423 -0.7486
  627MOL0     H84596   8.736   7.835  10.967  0.5385  3.0521 -0.0904
  627MOL0     H84597   8.983   7.933  11.037 -0.7388 -3.2562 -2.4401
  627MOL0     H84598   9.085   7.970  10.921 -0.2285  0.9226 -0.8507
  627MOL0     H84599   8.972   8.175  10.861  0.4900  1.1204 -0.0165
  627MOL0     H84600   9.002   8.182  11.036  1.0987  2.6117 -2.1745
  627MOL0     H84601   8.760   8.074  11.063 -0.9692 -0.2572 -0.1484
  627MOL0     H84602   8.739   8.114  10.899  0.1687  2.2733 -1.4051
  627MOL0     H84603   8.649   8.288  11.000 -0.0747 -3.8000  0.8748
  627MOL0     H84604   8.809   8.342  10.941 -2.0672  0.5264 -2.1360
  627MOL0     H84605   9.050   8.332  11.232  0.3951  0.7586  0.7184
  627MOL0     H84606   9.289   8.606  11.271  0.8638 -2.3964  1.2820
  627MOL0     H84607   9.188   8.545  11.409 -1.2357 -1.0547 -0.5264
  627MOL0     H84608   9.252   8.440  11.285 -2.7331 -2.1881  0.2336
  627MOL0     H84609   9.148   9.086  11.389  1.4086  0.2980  0.3772
  627MOL0     H84610   9.278   9.267  11.313 -2.5761 -0.5950 -3.7253
  627MOL0     H84611   9.696   9.213  11.137  0.7190  0.7079 -0.6927
  627MOL0     H84612   9.564   9.211  11.006 -3.4512  2.0004  0.2547
  627MOL0     H84613   9.683   9.457  11.154  2.7344 -0.5601  0.6076
  627MOL0     H84614   9.754   9.394  11.006  0.9508  2.0949  0.9679
  627MOL0     H84615   9.581   9.587  10.985 -3.1620  0.6726  0.2262
  627MOL0     H84616   9.466   9.473  11.022  0.6305 -1.5362  1.2375
  627MOL0     H84617   9.640   9.459  10.781  2.0618 -0.8473  1.3879
  627MOL0     H84618   9.550   9.318  10.827 -2.0889 -0.6717 -3.1665
  627MOL0     H84619   9.477   9.573  10.697 -1.8789  0.7012 -0.1603
  627MOL0     H84620   9.343   9.522  10.805  0.2477 -0.4530  0.4799
  627MOL0     H84621   9.462   9.353  10.576 -1.7020 -2.4372 -2.0818
  627MOL0     H84622   9.328   9.309  10.685  0.7774 -0.2664 -1.6050
  627MOL0     H84623   9.337   9.542  10.485 -0.2040  1.4576 -0.6154
  627MOL0     H84624   9.196   9.489  10.582  0.1881  1.1504 -0.4146
  627MOL0     H84625   9.199   9.269  10.460  0.2639 -0.1680  0.8901
  627MOL0     H84626   9.349   9.313  10.373 -0.8229 -1.0365 -2.3535
  627MOL0     H84627   9.559   9.004  11.134  2.3759  0.3175  0.9900
  627MOL0     H84628   9.423   8.818  11.210  3.0139  1.9930 -1.9908
  627MOL0     H84629   8.870   8.769  11.098  1.0775  1.0810  2.3061
  627MOL0     H84630   8.732   8.586  11.057  0.5111  1.3518 -1.3972
  627MOL0     H84631   8.032   7.322  11.247 -0.8413 -0.5979 -0.2492
  627MOL0     H84632   7.788   7.372  11.244  1.0528  1.2122 -0.9884
  627MOL0     H84633   7.353   7.293  11.295 -0.8797 -0.4196  0.3633
  627MOL0     H84634   7.126   7.369  11.237 -2.0752  1.4958 -0.1438
  627MOL0     H84635   6.930   7.482  11.117 -3.2272  1.1360  0.1870
  627MOL0     H84636   6.953   7.476  11.295 -1.6159  2.7652  2.7293
  627MOL0     H84637   6.719   7.542  11.228 -1.0309  1.2173  1.4161
  627MOL0     H84638   6.798   7.680  11.134 -0.6239 -0.9956 -0.7906
  627MOL0     H84639   6.874   7.769  11.340 -0.1622  0.3048  0.6556
  627MOL0     H84640   6.825   7.627  11.430  1.5484  0.5296 -0.0566
  627MOL0     H84641   6.584   7.696  11.340 -0.5535  1.8441 -2.7850
  627MOL0     H84642   6.668   7.844  11.290  4.4452  0.9612 -0.0121
  627MOL0     H84643   6.637   7.879  11.727  3.2911 -1.3717  0.8334
  627MOL0     H84644   7.235   7.777  11.285 -1.2825  0.4368  1.4311
  627MOL0     H84645   7.450   7.699  11.417 -1.2874 -0.4258 -1.7992
  628MOL0     O84646   1.741   2.565   0.025 -0.9796 -0.1305  0.3903
  628MOL0     C84647   1.784   2.658   0.099 -0.2525 -0.0065  0.1212
  628MOL0     O84648   1.715   2.714   0.206  0.0369  0.3004  0.3654
  628MOL0     C84649   1.603   2.647   0.249  0.6976  0.1011  0.2640
  628MOL0     C84650   1.611   2.508   0.282 -0.1195  0.5228 -0.3990
  628MOL0     C84651   1.502   2.431   0.327 -0.3189 -1.0285 -0.1154
  628MOL0     C84652   1.379   2.497   0.330 -0.0061 -0.1584  0.1397
  628MOL0     O84653   1.265   2.436   0.375  0.4260  0.9432 -0.2286
  628MOL0     C84654   1.281   2.388   0.511  0.7696  0.5392 -1.2727
  628MOL0     C84655   1.284   2.226   0.522 -0.3572  0.2301 -0.2048
  628MOL0     C84656   1.361   2.189   0.639 -0.7790 -0.5729 -0.0981
  628MOL0     C84657   1.409   2.045   0.645 -0.1739  0.5749 -0.3824
  628MOL0     C84658   1.507   2.005   0.762 -0.7770  0.2333 -0.9254
  628MOL0     C84659   1.578   1.871   0.742  0.3286  0.5658 -0.3920
  628MOL0     C84660   1.495   1.743   0.736  0.3212 -0.2787 -0.5861
  628MOL0     C84661   1.443   1.680   0.873 -0.4118  0.7428  0.7351
  628MOL0     N84662   1.539   1.664   0.988  0.7676 -0.0814  0.1561
  628MOL0     C84663   1.641   1.579   0.978 -0.6034 -0.2710  0.0022
  628MOL0     C84664   1.728   1.620   1.075  0.2182 -0.4667  0.9168
  628MOL0     C84665   1.868   1.566   1.111 -0.4331  0.0288 -0.2545
  628MOL0     C84666   1.958   1.524   0.995  0.7474 -1.2843 -1.0153
  628MOL0     C84667   1.978   1.645   0.893  0.3243 -0.1283  0.8328
  628MOL0     C84668   2.066   1.597   0.770  0.5060 -0.2482 -0.1036
  628MOL0     O84669   2.090   1.693   0.666 -0.1927  0.1666 -0.5645
  628MOL0     C84670   2.010   1.690   0.559  0.0570  0.5307 -0.7844
  628MOL0     C84671   1.876   1.645   0.549  0.6923 -0.6681 -1.0387
  628MOL0     C84672   1.803   1.671   0.428  0.8576  1.0616  0.2598
  628MOL0     C84673   1.659   1.625   0.428  0.1199 -0.2942 -0.1618
  628MOL0     C84674   1.872   1.711   0.306  0.7576  0.5856 -0.8019
  628MOL0     C84675   1.821   1.718   0.167 -0.6572  0.6905 -0.8333
  628MOL0     O84676   1.904   1.793   0.077  0.1526  0.3871  0.2452
  628MOL0     C84677   1.864   1.818  -0.056  0.7860 -0.3502  0.3973
  628MOL0     C84678   1.947   1.912  -0.111 -0.5048 -0.0264  0.8724
  628MOL0     C84679   1.908   1.964  -0.234 -0.3726  0.2093  0.3497
  628MOL0     C84680   1.803   1.915  -0.306  0.0430  0.0916  0.6284
  628MOL0     O84681   1.780   1.968  -0.433  0.2495 -0.3652 -0.2616
  628MOL0     C84682   1.653   2.032  -0.447  0.3205  0.0981  0.4775
  628MOL0     C84683   1.645   2.101  -0.582  0.2296  0.5793 -0.5418
  628MOL0     C84684   1.513   2.168  -0.620  0.6174 -0.2044  1.1451
  628MOL0     C84685   1.412   2.071  -0.681  0.7067  0.1360 -0.5075
  628MOL0     C84686   1.297   2.141  -0.740  0.0895  0.3560 -0.1728
  628MOL0     C84687   1.209   2.192  -0.630 -0.4239 -0.6785  0.1630
  628MOL0     C84688   1.091   2.259  -0.695 -0.1765 -0.6440  0.4998
  628MOL0     C84689   1.121   2.396  -0.770 -0.2240  0.5283 -0.5069
  628MOL0    Cl84690   1.268   2.477  -0.715  0.1399 -0.3490  0.2712
  628MOL0     C84691   1.739   1.798  -0.256  0.1021 -0.1607  0.1743
  628MOL0     C84692   1.757   1.747  -0.134 -1.0775 -0.1739 -0.2164
  628MOL0     O84693   1.706   1.691   0.148  0.3479  0.9310 -0.0019
  628MOL0     C84694   2.001   1.756   0.330 -0.4925 -0.1047  0.5503
  628MOL0     C84695   2.070   1.745   0.450  0.1479  0.3422 -0.9290
  628MOL0     N84696   1.678   1.724   1.153  0.1292 -0.3497  0.6841
  628MOL0     N84697   1.563   1.745   1.098 -0.6127  0.2614 -0.2306
  628MOL0     C84698   1.368   2.627   0.285 -0.2179  0.0695 -0.0970
  628MOL0     C84699   1.475   2.704   0.249  0.1389 -0.5384 -0.0022
  628MOL0     C84700   1.895   2.738   0.042 -0.4196  0.0440 -0.2007
  628MOL0     C84701   1.981   2.688  -0.065  0.8633 -0.4187 -0.1180
  628MOL0     C84702   2.073   2.778  -0.126  1.0819 -0.0556 -0.2470
  628MOL0     C84703   2.099   2.900  -0.072  0.7726  0.3929  0.4355
  628MOL0     O84704   2.206   2.978  -0.115 -0.4969  0.2216  0.0547
  628MOL0     C84705   2.249   2.957  -0.247 -0.5361  0.6470 -0.5442
  628MOL0     C84706   2.344   3.061  -0.289 -0.1090  0.3371  0.3083
  628MOL0     C84707   2.483   3.052  -0.224  0.4048  0.2600  0.4624
  628MOL0     C84708   2.585   3.149  -0.268 -0.2980 -0.3685 -0.5271
  628MOL0     C84709   2.624   3.136  -0.409 -0.7153  0.1894  0.0727
  628MOL0     C84710   2.661   3.133  -0.520  0.4741  0.8087 -0.4627
  628MOL0     C84711   2.030   2.947   0.033  0.1295  1.2969  0.5655
  628MOL0     C84712   1.922   2.869   0.081 -0.8886 -0.3897 -0.6812
  628MOL0     H84713   1.706   2.454   0.279 -0.3475  0.0885  0.1357
  628MOL0     H84714   1.506   2.325   0.348  0.8605 -0.9807 -0.0476
  628MOL0     H84715   1.364   2.433   0.566  0.6991  0.2066 -0.8938
  628MOL0     H84716   1.195   2.413   0.573  0.5756 -0.5717 -1.0893
  628MOL0     H84717   1.186   2.180   0.526  0.2149 -1.4551 -2.9939
  628MOL0     H84718   1.334   2.181   0.435 -1.8788 -1.2982 -0.3250
  628MOL0     H84719   1.457   2.241   0.636  1.7808 -4.7478 -3.5735
  628MOL0     H84720   1.308   2.197   0.735 -1.1406  2.5560 -0.4673
  628MOL0     H84721   1.323   1.978   0.650 -0.3311  0.8719  1.2297
  628MOL0     H84722   1.459   2.031   0.549 -2.5426 -0.7113 -1.5338
  628MOL0     H84723   1.584   2.082   0.774 -1.3470  0.5244  1.3605
  628MOL0     H84724   1.446   2.016   0.853  0.9772 -0.2319  0.3735
  628MOL0     H84725   1.623   1.891   0.645  1.8354  1.8687  0.5355
  628MOL0     H84726   1.655   1.856   0.818  2.0493  0.3173 -2.1140
  628MOL0     H84727   1.414   1.755   0.663  0.4529  3.1349 -0.3124
  628MOL0     H84728   1.567   1.667   0.706  0.6430 -0.5631  0.8192
  628MOL0     H84729   1.407   1.579   0.852 -1.3697  1.2640 -0.2489
  628MOL0     H84730   1.364   1.744   0.913 -1.4595  1.2173 -1.8952
  628MOL0     H84731   1.653   1.499   0.906 -0.1851 -1.3193  1.1905
  628MOL0     H84732   1.925   1.636   1.174  0.4677 -1.5063  0.7050
  628MOL0     H84733   1.860   1.480   1.178  0.3745  1.3294  1.6302
  628MOL0     H84734   1.911   1.437   0.947 -0.2292 -1.3393 -0.0139
  628MOL0     H84735   2.051   1.503   1.049  2.4986  1.9962 -2.4649
  628MOL0     H84736   2.021   1.736   0.936  0.9344 -0.8796  1.8463
  628MOL0     H84737   1.878   1.666   0.854 -0.1446  3.2011  3.4214
  628MOL0     H84738   2.018   1.511   0.724 -0.5126 -0.2450  0.8982
  628MOL0     H84739   2.164   1.577   0.816 -0.5306  2.3934  3.7932
  628MOL0     H84740   1.832   1.600   0.636  1.5235  0.3860 -0.0322
  628MOL0     H84741   1.587   1.705   0.406 -2.5582 -2.8329 -1.2328
  628MOL0     H84742   1.643   1.549   0.352  0.4045  2.0432 -2.7031
  628MOL0     H84743   1.647   1.571   0.523  0.5123  0.1344  0.1383
  628MOL0     H84744   2.031   1.963  -0.065  1.1431 -1.4719 -0.3793
  628MOL0     H84745   1.961   2.048  -0.277  2.3482 -0.9693  1.1992
  628MOL0     H84746   1.566   1.970  -0.423  0.9208 -2.7273 -3.7143
  628MOL0     H84747   1.645   2.120  -0.381  0.9716  2.4666 -2.3904
  628MOL0     H84748   1.733   2.164  -0.592  1.0463 -0.4975 -0.3743
  628MOL0     H84749   1.683   2.035  -0.661  0.3203  0.3869 -0.3401
  628MOL0     H84750   1.539   2.245  -0.694 -0.8171  0.8191  1.6554
  628MOL0     H84751   1.470   2.214  -0.531  1.4628 -1.0188  1.9955
  628MOL0     H84752   1.462   2.010  -0.757  5.7250  0.8841  1.7997
  628MOL0     H84753   1.369   2.011  -0.600  0.0841  1.6067  0.2848
  628MOL0     H84754   1.234   2.073  -0.799 -1.6857  2.2275 -0.5365
  628MOL0     H84755   1.327   2.225  -0.803  1.0688  2.5144  2.9130
  628MOL0     H84756   1.161   2.110  -0.576  2.8461 -1.2719  2.5035
  628MOL0     H84757   1.251   2.261  -0.556 -0.1072 -0.8161  0.1119
  628MOL0     H84758   1.009   2.285  -0.627 -0.0737  1.2880 -0.0494
  628MOL0     H84759   1.043   2.191  -0.767  0.1035  3.0926 -3.6496
  628MOL0     H84760   1.030   2.453  -0.749 -1.5987 -2.1530  1.3948
  628MOL0     H84761   1.135   2.384  -0.878  1.4775  1.4863 -0.4287
  628MOL0     H84762   1.662   1.763  -0.324  1.5687  2.5597 -3.1701
  628MOL0     H84763   1.704   1.666  -0.085  0.0267 -0.8041 -0.0332
  628MOL0     H84764   2.053   1.808   0.250  0.5164 -2.5425 -0.4851
  628MOL0     H84765   2.170   1.779   0.478 -0.0294 -0.5922  1.0594
  628MOL0     H84766   1.270   2.670   0.266 -0.3165  0.6882  1.6388
  628MOL0     H84767   1.472   2.812   0.241  3.5400 -0.0600  2.7188
  628MOL0     H84768   1.962   2.593  -0.114  1.3303  0.1009 -1.3491
  628MOL0     H84769   2.124   2.745  -0.215 -1.0797  2.9319 -2.8268
  628MOL0     H84770   2.303   2.862  -0.255  2.4786  2.2818 -1.0301
  628MOL0     H84771   2.160   2.945  -0.310 -2.6521 -1.0962  2.5073
  628MOL0     H84772   2.308   3.164  -0.279  0.4768  0.6218 -0.4115
  628MOL0     H84773   2.358   3.049  -0.396  2.8427 -1.0623  0.7555
  628MOL0     H84774   2.525   2.951  -0.226 -0.4595 -0.1904 -3.3728
  628MOL0     H84775   2.477   3.079  -0.118  0.8412 -0.3654  0.6530
  628MOL0     H84776   2.673   3.134  -0.205 -0.7147  1.2455  0.5169
  628MOL0     H84777   2.558   3.252  -0.242  3.9092  1.6267 -2.9180
  628MOL0     H84778   2.689   3.138  -0.623 -1.4094 -0.5236 -1.0871
  628MOL0     H84779   2.054   3.045   0.073 -0.3911  2.9456 -2.7694
  628MOL0     H84780   1.880   2.908   0.174 -1.7764 -3.3445  0.2676
  629MOL0     O84781   2.028   3.299   7.296 -0.2455  0.0008  0.4616
  629MOL0     C84782   1.936   3.222   7.325 -0.4982  0.6490 -0.2089
  629MOL0     O84783   1.874   3.221   7.441 -0.0290  0.0025  0.0264
  629MOL0     C84784   1.888   3.314   7.539  0.1990  0.3184  0.5309
  629MOL0     C84785   2.009   3.385   7.574  0.3680 -0.9723  0.0136
  629MOL0     C84786   2.021   3.483   7.676  0.1710  0.3954 -0.0959
  629MOL0     C84787   1.900   3.510   7.746  0.6170 -0.6912  0.2740
  629MOL0     O84788   1.906   3.587   7.859 -1.3610  0.6081 -0.6377
  629MOL0     C84789   1.919   3.509   7.977 -1.0292  0.9967 -0.3485
  629MOL0     C84790   1.788   3.553   8.061  0.1270  0.3415  0.9907
  629MOL0     C84791   1.793   3.495   8.206  0.0849 -0.7311 -0.8556
  629MOL0     C84792   1.766   3.339   8.218 -0.0989 -0.0608 -0.0651
  629MOL0     C84793   1.624   3.316   8.258 -0.8836  0.2707  0.0259
  629MOL0     C84794   1.527   3.327   8.147 -0.7808 -0.4395 -0.1842
  629MOL0     C84795   1.390   3.271   8.195 -0.6343  0.0196  0.2553
  629MOL0     C84796   1.359   3.117   8.166  0.0055 -0.2824  0.3112
  629MOL0     N84797   1.227   3.076   8.213 -0.4555  0.0520 -0.7015
  629MOL0     C84798   1.101   3.097   8.166 -0.1980  0.2418 -0.2628
  629MOL0     C84799   1.022   3.028   8.253 -0.3474 -0.0748 -0.0421
  629MOL0     C84800   0.874   3.026   8.247  0.1251  0.8890  1.1156
  629MOL0     C84801   0.809   2.896   8.212  0.0024  0.0491 -0.5629
  629MOL0     C84802   0.657   2.916   8.205  0.3752  0.7510  0.2952
  629MOL0     C84803   0.598   2.894   8.338 -0.2580 -0.1478  0.0375
  629MOL0     O84804   0.600   2.763   8.392 -0.5018 -0.4560  0.1180
  629MOL0     C84805   0.491   2.686   8.364  0.0148  0.4828  0.2452
  629MOL0     C84806   0.408   2.693   8.248 -0.7036 -0.1244  0.7316
  629MOL0     C84807   0.297   2.613   8.230  0.3627  0.9947 -0.5441
  629MOL0     C84808   0.212   2.634   8.107 -0.1055  0.7888  0.0473
  629MOL0     C84809   0.262   2.518   8.333 -0.3799 -0.5414  0.7639
  629MOL0     C84810   0.164   2.410   8.326 -0.1550 -0.6817 -0.2209
  629MOL0     O84811   0.122   2.361   8.453 -0.2694 -0.1226  0.4979
  629MOL0     C84812   0.018   2.273   8.455  0.0846 -0.4840 -0.2497
  629MOL0     C84813  -0.107   2.295   8.384  0.3755 -0.6216 -0.1092
  629MOL0     C84814  -0.209   2.201   8.399  0.6855  1.3390 -0.8190
  629MOL0     C84815  -0.194   2.085   8.471 -0.1720 -0.2370 -0.3229
  629MOL0     O84816  -0.306   2.004   8.481  0.4018  0.0996 -0.0180
  629MOL0     C84817  -0.313   1.881   8.562 -0.5797 -0.3276 -0.2469
  629MOL0     C84818  -0.219   1.766   8.513 -0.0610  0.3891  0.3198
  629MOL0     C84819  -0.271   1.720   8.376  0.1552 -0.9762  0.2588
  629MOL0     C84820  -0.176   1.618   8.314 -1.2155  0.0280  0.2433
  629MOL0     C84821  -0.217   1.565   8.176 -0.1596 -1.0501  0.4630
  629MOL0     C84822  -0.122   1.456   8.122 -0.1311 -0.0453 -0.6045
  629MOL0     C84823  -0.171   1.404   7.988  1.1052  0.1741  0.0358
  629MOL0     C84824  -0.076   1.300   7.938  0.0493 -0.0987  0.3024
  629MOL0    Cl84825  -0.118   1.264   7.767  0.4134 -0.0327  0.0276
  629MOL0     C84826  -0.080   2.065   8.536 -0.0814 -0.0717  0.2599
  629MOL0     C84827   0.026   2.153   8.536  0.9602  0.4011  0.5449
  629MOL0     O84828   0.117   2.368   8.221  0.3844 -0.4658  0.0315
  629MOL0     C84829   0.335   2.519   8.456 -1.0410  0.4636  1.0253
  629MOL0     C84830   0.453   2.594   8.458  0.0053 -0.4805 -0.6620
  629MOL0     N84831   1.102   2.982   8.354 -0.1448  0.0029 -0.3330
  629MOL0     N84832   1.224   3.029   8.340 -0.1788 -0.1009 -0.7029
  629MOL0     C84833   1.778   3.449   7.707  0.5099 -0.3460 -0.4430
  629MOL0     C84834   1.772   3.345   7.612  0.2041  0.0542 -0.3072
  629MOL0     C84835   1.888   3.135   7.224  0.3865  0.0547  1.3274
  629MOL0     C84836   1.846   3.007   7.254 -0.1680  0.5524  0.4890
  629MOL0     C84837   1.794   2.923   7.150  0.2055 -0.1373  0.1177
  629MOL0     C84838   1.784   2.970   7.022 -0.1771  0.2429 -0.4020
  629MOL0     O84839   1.724   2.905   6.918 -0.3997  0.8135 -0.3261
  629MOL0     C84840   1.667   2.779   6.930  0.2500 -0.9236 -0.9530
  629MOL0     C84841   1.742   2.670   6.855  1.0131  0.4919  0.2785
  629MOL0     C84842   1.890   2.662   6.871 -0.5193 -0.7354 -0.0190
  629MOL0     C84843   1.950   2.625   7.007 -0.9034  0.4055  0.6318
  629MOL0     C84844   1.915   2.481   7.053 -0.2137 -0.9177 -0.7876
  629MOL0     C84845   1.881   2.370   7.088 -0.5375 -0.1990  0.7159
  629MOL0     C84846   1.835   3.091   6.985 -0.3782 -0.2912 -0.9543
  629MOL0     C84847   1.880   3.170   7.087  0.2739  0.0600 -0.2229
  629MOL0     H84848   2.105   3.363   7.529  1.3732  2.5278  0.1413
  629MOL0     H84849   2.118   3.523   7.702  0.2130  1.1420 -1.3535
  629MOL0     H84850   1.921   3.403   7.951  1.2618  0.3844  1.9811
  629MOL0     H84851   2.010   3.532   8.034 -0.0581 -1.6825 -0.6426
  629MOL0     H84852   1.790   3.662   8.068 -0.2475  0.5111 -0.9682
  629MOL0     H84853   1.700   3.536   7.999  2.0927  0.2467 -2.0022
  629MOL0     H84854   1.881   3.536   8.256 -0.3235  0.0333 -0.7539
  629MOL0     H84855   1.710   3.534   8.265  0.8344 -1.0450  0.4382
  629MOL0     H84856   1.796   3.285   8.128  1.4849  1.0548 -0.2615
  629MOL0     H84857   1.819   3.300   8.306  0.2118 -1.3225 -0.7935
  629MOL0     H84858   1.614   3.214   8.294  1.0961 -0.9744 -2.6302
  629MOL0     H84859   1.606   3.386   8.340  5.3347 -1.0020  3.1235
  629MOL0     H84860   1.515   3.432   8.115  0.1832 -0.0879  0.5518
  629MOL0     H84861   1.564   3.270   8.061 -1.7520 -3.4698  1.2888
  629MOL0     H84862   1.390   3.288   8.303  2.3529 -1.4171  0.5658
  629MOL0     H84863   1.307   3.333   8.159  0.3149  2.0118  1.3499
  629MOL0     H84864   1.434   3.050   8.210  0.2999 -0.7742 -0.8829
  629MOL0     H84865   1.360   3.112   8.056  0.0973  1.2339  0.2266
  629MOL0     H84866   1.066   3.142   8.074 -2.4094 -1.7196 -0.4842
  629MOL0     H84867   0.833   3.058   8.344  0.5612 -0.5416  1.8021
  629MOL0     H84868   0.847   3.104   8.175 -3.3830 -1.4304 -0.3313
  629MOL0     H84869   0.830   2.820   8.288 -0.2836  0.2072 -0.3232
  629MOL0     H84870   0.850   2.854   8.120  1.3907  0.5306 -0.1809
  629MOL0     H84871   0.615   2.847   8.131  1.0684 -0.2551  0.8137
  629MOL0     H84872   0.628   3.015   8.171 -0.2082  0.8441  1.0312
  629MOL0     H84873   0.495   2.933   8.343  0.3862  1.5179  2.2745
  629MOL0     H84874   0.648   2.947   8.419 -0.5308 -1.1134  0.8543
  629MOL0     H84875   0.429   2.767   8.171  3.9224 -1.5685  0.3285
  629MOL0     H84876   0.234   2.558   8.031 -1.8209  0.2755  0.0265
  629MOL0     H84877   0.111   2.640   8.149 -0.0135  2.8131  0.0726
  629MOL0     H84878   0.234   2.728   8.056  4.3082  1.0262  1.9033
  629MOL0     H84879  -0.124   2.377   8.315  0.2290  0.1246  0.7900
  629MOL0     H84880  -0.301   2.219   8.345 -0.8327  0.1668  1.2385
  629MOL0     H84881  -0.277   1.900   8.664  1.0579 -2.1872 -0.4135
  629MOL0     H84882  -0.417   1.848   8.573 -1.2328  1.3174 -1.0901
  629MOL0     H84883  -0.115   1.796   8.502 -0.3192  0.6664 -1.8026
  629MOL0     H84884  -0.216   1.681   8.582  0.1155  0.4466  0.3848
  629MOL0     H84885  -0.265   1.807   8.309 -0.9975 -1.5990 -0.6832
  629MOL0     H84886  -0.371   1.680   8.391 -0.2943  0.7815  2.3937
  629MOL0     H84887  -0.072   1.652   8.307 -0.9457 -0.4866  1.4739
  629MOL0     H84888  -0.183   1.531   8.381 -0.6728 -0.1289  0.1011
  629MOL0     H84889  -0.199   1.642   8.101  3.4326 -0.4223  1.7787
  629MOL0     H84890  -0.321   1.531   8.168 -1.5876  2.5867  1.4122
  629MOL0     H84891  -0.024   1.504   8.121 -0.1209 -0.0065  0.4760
  629MOL0     H84892  -0.115   1.381   8.202 -1.7209  1.1980  0.8000
  629MOL0     H84893  -0.167   1.485   7.914  2.2348  1.5027  1.4820
  629MOL0     H84894  -0.274   1.368   7.988  0.7568  1.0831 -1.3121
  629MOL0     H84895  -0.074   1.207   7.995 -2.1378  0.1064  0.8027
  629MOL0     H84896   0.024   1.343   7.924 -0.2197 -0.3199 -3.1994
  629MOL0     H84897  -0.061   1.985   8.607  1.2867  1.6869  1.9942
  629MOL0     H84898   0.111   2.136   8.602  2.9859  3.7213 -0.9510
  629MOL0     H84899   0.301   2.477   8.550  2.0629  0.2586  2.1572
  629MOL0     H84900   0.524   2.574   8.538  0.0252 -3.9312 -1.3669
  629MOL0     H84901   1.681   3.453   7.756  1.3574 -2.5062  1.6453
  629MOL0     H84902   1.682   3.288   7.589  0.7943 -0.0503 -2.6103
  629MOL0     H84903   1.853   2.975   7.358  0.4890  1.4218  0.7227
  629MOL0     H84904   1.761   2.830   7.195  3.4973 -0.7415  1.5544
  629MOL0     H84905   1.666   2.742   7.033  0.8171 -1.4511 -1.1311
  629MOL0     H84906   1.560   2.793   6.914  0.1060  2.8032  1.9920
  629MOL0     H84907   1.730   2.672   6.746 -0.2624 -2.1711  0.2713
  629MOL0     H84908   1.698   2.578   6.896 -0.7160  0.0195 -2.3776
  629MOL0     H84909   1.940   2.757   6.849  0.1369 -0.8130  1.0653
  629MOL0     H84910   1.923   2.582   6.805  3.3075  2.3589 -2.3247
  629MOL0     H84911   1.907   2.703   7.069  0.5492  3.0782 -1.5033
  629MOL0     H84912   2.055   2.654   7.020 -1.3185  2.7152 -0.7009
  629MOL0     H84913   1.855   2.269   7.112 -0.9290 -0.3252 -0.2190
  629MOL0     H84914   1.826   3.129   6.883  2.5468 -1.2049 -1.6394
  629MOL0     H84915   1.914   3.270   7.061 -0.5360 -0.1539 -2.2433
  630MOL0     O84916   7.506   5.515   5.353 -0.0694  0.0738 -0.5380
  630MOL0     C84917   7.465   5.628   5.378 -0.0779 -0.4494  0.0201
  630MOL0     O84918   7.532   5.717   5.461  0.7264 -0.6194  0.8296
  630MOL0     C84919   7.645   5.668   5.511 -0.0608  0.3931  0.6137
  630MOL0     C84920   7.635   5.630   5.646  0.9468  0.0231 -0.2995
  630MOL0     C84921   7.751   5.605   5.720 -0.7478  0.3131 -1.0237
  630MOL0     C84922   7.876   5.619   5.658  0.3278 -0.3942  0.0266
  630MOL0     O84923   7.996   5.583   5.714  0.2615  0.3213  0.3340
  630MOL0     C84924   8.010   5.581   5.860  0.3451 -0.2258  0.8887
  630MOL0     C84925   8.154   5.554   5.893 -0.5388  0.4481 -0.1299
  630MOL0     C84926   8.200   5.415   5.856 -0.6012 -0.6455 -0.5592
  630MOL0     C84927   8.342   5.395   5.922  0.1354  0.3225  0.1818
  630MOL0     C84928   8.450   5.498   5.880 -0.2466  0.6416  0.1698
  630MOL0     C84929   8.493   5.491   5.733 -1.1296  0.3341  0.0470
  630MOL0     C84930   8.620   5.564   5.700  0.1665  0.5441  0.4238
  630MOL0     C84931   8.748   5.486   5.757  0.0023 -0.0921  0.4028
  630MOL0     N84932   8.871   5.537   5.694  0.0367  0.6995 -0.1483
  630MOL0     C84933   8.931   5.656   5.713  0.7087 -0.7648  0.5809
  630MOL0     C84934   9.025   5.667   5.616  0.4575  0.1431  0.0587
  630MOL0     C84935   9.125   5.778   5.592 -0.0570 -0.7739  0.2841
  630MOL0     C84936   9.088   5.872   5.477 -0.2460 -0.1543  0.6321
  630MOL0     C84937   9.210   5.950   5.429 -0.0128 -0.5899  0.3078
  630MOL0     C84938   9.257   6.054   5.534  0.7186 -0.5154  0.2439
  630MOL0     O84939   9.374   6.121   5.491  0.1218 -0.4983 -0.1642
  630MOL0     C84940   9.429   6.224   5.569  0.5186 -0.4320  0.7581
  630MOL0     C84941   9.357   6.313   5.640  0.0494  0.8907 -0.2288
  630MOL0     C84942   9.409   6.431   5.695 -0.5558  0.1362  0.0174
  630MOL0     C84943   9.316   6.500   5.790 -0.6336 -0.5892  0.1135
  630MOL0     C84944   9.553   6.454   5.678 -0.9693 -0.3725 -0.4046
  630MOL0     C84945   9.631   6.557   5.729 -0.0523  0.1266 -0.3881
  630MOL0     O84946   9.760   6.526   5.757  0.3047  0.5111 -0.3511
  630MOL0     C84947   9.839   6.585   5.848 -0.0155  0.1308 -0.3320
  630MOL0     C84948   9.798   6.636   5.974 -0.7659 -0.1994 -0.1925
  630MOL0     C84949   9.900   6.666   6.064  0.0260  0.2810 -0.5347
  630MOL0     C84950  10.036   6.642   6.038  0.1986  0.4220 -0.3197
  630MOL0     O84951  10.117   6.669   6.140 -0.0453  0.8090  0.5836
  630MOL0     C84952  10.261   6.688   6.123 -0.6966 -0.4140  0.3194
  630MOL0     C84953  10.319   6.708   6.262 -0.1060 -0.7238  0.2472
  630MOL0     C84954  10.274   6.847   6.318 -0.2510  0.3447 -0.5190
  630MOL0     C84955  10.371   6.858   6.440 -0.1436  0.4647  0.0437
  630MOL0     C84956  10.374   7.002   6.500 -0.0291  0.4946 -0.1677
  630MOL0     C84957  10.243   7.051   6.540 -0.0684 -0.2937 -0.3011
  630MOL0     C84958  10.186   6.985   6.660  0.6040 -0.5428  0.0841
  630MOL0     C84959  10.032   7.027   6.683 -1.0972 -0.2081 -0.1343
  630MOL0    Cl84960   9.930   6.967   6.545 -0.0661 -0.4668 -0.3621
  630MOL0     C84961  10.072   6.594   5.906 -0.2535  0.5213  0.5789
  630MOL0     C84962   9.974   6.573   5.812 -0.0434  0.3276 -0.1573
  630MOL0     O84963   9.564   6.653   5.776  0.0204  0.5049  0.0517
  630MOL0     C84964   9.622   6.365   5.589  0.2845 -0.0168 -0.5488
  630MOL0     C84965   9.565   6.254   5.531  0.5365  0.7674 -0.6176
  630MOL0     N84966   9.010   5.551   5.542 -0.0762  1.1585 -0.6603
  630MOL0     N84967   8.919   5.477   5.590  0.1356  0.1801  0.3095
  630MOL0     C84968   7.879   5.635   5.519 -0.5061  0.4226 -0.1558
  630MOL0     C84969   7.771   5.667   5.444  0.0967 -0.0863  0.4769
  630MOL0     C84970   7.338   5.665   5.320  1.4373 -0.4514 -0.6817
  630MOL0     C84971   7.259   5.577   5.244 -0.3601  0.0681 -0.7482
  630MOL0     C84972   7.149   5.631   5.176  0.0640 -0.0801  0.2148
  630MOL0     C84973   7.124   5.763   5.164 -0.4200 -0.1916  0.1887
  630MOL0     O84974   7.030   5.798   5.077  0.0346  0.0159  0.2157
  630MOL0     C84975   6.982   5.934   5.078 -0.1420  0.1069  0.3507
  630MOL0     C84976   6.875   5.957   4.969 -0.0177 -0.3033  0.7890
  630MOL0     C84977   6.740   5.926   5.026 -0.6591 -0.4537  0.6568
  630MOL0     C84978   6.636   5.903   4.919 -0.3116 -0.2448 -0.3520
  630MOL0     C84979   6.610   6.023   4.836  0.0017 -0.1528 -0.4155
  630MOL0     C84980   6.581   6.128   4.766 -0.0920  0.0343 -0.5380
  630MOL0     C84981   7.196   5.855   5.239 -1.1876  0.6600 -0.5326
  630MOL0     C84982   7.297   5.805   5.323 -0.9312  0.4925 -0.1277
  630MOL0     H84983   7.539   5.622   5.696  1.7141  1.2375  1.4763
  630MOL0     H84984   7.741   5.583   5.826  2.2928 -0.4983 -0.8347
  630MOL0     H84985   7.975   5.678   5.896 -0.1455 -0.1575  0.2401
  630MOL0     H84986   7.946   5.509   5.910 -2.9721  2.5038  0.9136
  630MOL0     H84987   8.219   5.615   5.829  2.2172 -0.9429  1.1429
  630MOL0     H84988   8.185   5.587   5.993  4.9176  1.4191 -1.8029
  630MOL0     H84989   8.127   5.350   5.904 -2.2404  3.7884  3.7776
  630MOL0     H84990   8.194   5.403   5.747 -2.3528 -0.7149 -0.4826
  630MOL0     H84991   8.328   5.408   6.030 -1.8488  1.8533 -0.2080
  630MOL0     H84992   8.378   5.297   5.889  0.3445  1.5019 -3.4668
  630MOL0     H84993   8.406   5.595   5.908 -1.0368 -0.6406  3.9763
  630MOL0     H84994   8.533   5.486   5.951 -0.0605 -3.0644 -0.4812
  630MOL0     H84995   8.515   5.390   5.699 -2.9430  0.5134 -1.8606
  630MOL0     H84996   8.405   5.525   5.677 -1.4445 -1.2443 -0.4497
  630MOL0     H84997   8.635   5.569   5.592  2.4871 -0.8520  0.6161
  630MOL0     H84998   8.617   5.666   5.739  2.7657  0.7833  0.1677
  630MOL0     H84999   8.741   5.377   5.746  2.3441 -0.1553 -1.4688
  630MOL0     H85000   8.756   5.495   5.865  1.8647  3.6563  0.1058
  630MOL0     H85001   8.906   5.727   5.790  1.2714  0.6187 -0.4771
  630MOL0     H85002   9.120   5.841   5.681  2.0030 -0.4633  0.2503
  630MOL0     H85003   9.225   5.735   5.578  0.5539  0.7894 -0.4437
  630MOL0     H85004   9.019   5.950   5.510  1.0105  0.1695  2.6697
  630MOL0     H85005   9.045   5.807   5.400  0.7186 -0.9103  0.7083
  630MOL0     H85006   9.200   6.010   5.338  2.4608 -2.9316 -1.7024
  630MOL0     H85007   9.293   5.883   5.404 -0.0241 -0.3957 -0.2618
  630MOL0     H85008   9.264   6.006   5.631 -3.0205  0.5444  1.1952
  630MOL0     H85009   9.186   6.137   5.540  2.7989  1.3701  0.3399
  630MOL0     H85010   9.258   6.273   5.661  1.5335 -3.0342  0.2312
  630MOL0     H85011   9.246   6.434   5.842 -3.0822  1.2354 -0.6528
  630MOL0     H85012   9.360   6.562   5.869 -0.9053  0.4642 -0.5430
  630MOL0     H85013   9.244   6.568   5.743 -0.0220 -0.4435 -0.6217
  630MOL0     H85014   9.693   6.641   5.999 -0.6721  0.1438  0.1498
  630MOL0     H85015   9.878   6.711   6.160 -1.8253  2.0255 -1.6842
  630MOL0     H85016  10.292   6.587   6.093 -0.6199 -0.4943  0.6731
  630MOL0     H85017  10.304   6.756   6.049 -0.9002  0.2069  0.7684
  630MOL0     H85018  10.277   6.635   6.332  0.8675  0.1533  1.8306
  630MOL0     H85019  10.427   6.692   6.261 -0.0202 -0.6578 -3.0796
  630MOL0     H85020  10.168   6.855   6.342  0.2116  2.6644  1.0416
  630MOL0     H85021  10.306   6.921   6.244 -1.0750  0.8524 -0.3756
  630MOL0     H85022  10.346   6.792   6.523  5.0897 -1.2191  0.6407
  630MOL0     H85023  10.475   6.833   6.419 -0.5010 -2.8180  1.5670
  630MOL0     H85024  10.417   7.056   6.415  0.3506 -3.7965 -3.0783
  630MOL0     H85025  10.448   7.009   6.580 -1.6070 -2.3961  1.7206
  630MOL0     H85026  10.262   7.154   6.572  3.1674 -0.4375 -1.4024
  630MOL0     H85027  10.168   7.054   6.461 -0.2041 -2.7040 -0.3404
  630MOL0     H85028  10.251   7.003   6.746  3.4988 -1.5063 -1.7844
  630MOL0     H85029  10.192   6.876   6.648 -2.6905 -0.7510 -0.8223
  630MOL0     H85030  10.037   7.132   6.713 -0.6994 -0.3553  0.3401
  630MOL0     H85031  10.012   6.971   6.775  2.6632 -2.7673 -0.6200
  630MOL0     H85032  10.172   6.569   5.872 -0.1819 -0.7636  1.6425
  630MOL0     H85033   9.991   6.545   5.709  1.2211  1.6675 -0.3551
  630MOL0     H85034   9.723   6.391   5.558  0.2767  0.4996 -0.1531
  630MOL0     H85035   9.619   6.187   5.465 -0.7395  0.5077 -1.4363
  630MOL0     H85036   7.981   5.635   5.480 -0.3400  0.5691  0.2735
  630MOL0     H85037   7.777   5.697   5.340 -3.0914 -3.3820 -0.9191
  630MOL0     H85038   7.292   5.473   5.254  0.2396  0.2808 -0.4505
  630MOL0     H85039   7.089   5.552   5.131  2.8122 -0.1901 -3.7048
  630MOL0     H85040   6.943   5.964   5.175  0.2867  2.7519 -0.2043
  630MOL0     H85041   7.065   6.000   5.049 -0.3162  0.8406  1.4971
  630MOL0     H85042   6.901   5.894   4.883 -2.0395 -0.2455  0.0758
  630MOL0     H85043   6.878   6.061   4.934  0.3815 -1.3522 -2.7614
  630MOL0     H85044   6.706   6.008   5.090 -0.9615  1.8439 -2.2374
  630MOL0     H85045   6.746   5.836   5.088 -1.8531  1.1457  3.2735
  630MOL0     H85046   6.544   5.862   4.962 -0.1050 -0.8385 -0.4655
  630MOL0     H85047   6.669   5.824   4.850  2.3340 -0.9683  1.5562
  630MOL0     H85048   6.541   6.212   4.713  2.9049  0.2263 -2.7532
  630MOL0     H85049   7.170   5.959   5.252  0.0001  0.7863  1.1821
  630MOL0     H85050   7.353   5.875   5.384  2.5512 -0.2180 -2.2133
  631MOL0     O85051   0.081   7.408  10.592  0.6281  0.3973  0.1505
  631MOL0     C85052  -0.011   7.452  10.525  0.9540 -0.4581  0.2801
  631MOL0     O85053   0.001   7.495  10.389 -0.1749  0.6507  0.2186
  631MOL0     C85054   0.122   7.494  10.337 -0.4971 -0.0669  0.4834
  631MOL0     C85055   0.218   7.593  10.371  0.6341  0.6762  0.3730
  631MOL0     C85056   0.340   7.593  10.306 -0.5752  0.2895  1.2291
  631MOL0     C85057   0.370   7.500  10.200 -0.2543 -0.8962 -0.3507
  631MOL0     O85058   0.475   7.493  10.117 -0.1766  0.3011 -0.3089
  631MOL0     C85059   0.572   7.594  10.145 -0.0500 -0.5677  0.7000
  631MOL0     C85060   0.694   7.575  10.059 -0.6029 -0.2554 -0.2309
  631MOL0     C85061   0.831   7.614  10.123  0.3806  0.1987 -0.0476
  631MOL0     C85062   0.944   7.612  10.027 -0.6253  0.5320  0.3791
  631MOL0     C85063   1.078   7.649  10.093  0.5010 -0.8383  0.1604
  631MOL0     C85064   1.198   7.618   9.997  0.0525 -0.1367  0.6344
  631MOL0     C85065   1.334   7.649  10.058  0.3979 -0.4540 -0.2535
  631MOL0     C85066   1.395   7.778  10.011  0.4490 -0.0705  0.2021
  631MOL0     N85067   1.532   7.801  10.053  0.3755 -0.2433  0.5341
  631MOL0     C85068   1.615   7.897   9.995 -0.7643  0.4621  0.9922
  631MOL0     C85069   1.731   7.900  10.066 -0.4088 -0.7058 -0.0890
  631MOL0     C85070   1.860   7.979  10.043 -0.7744 -0.3573  0.4027
  631MOL0     C85071   1.849   8.114   9.958 -0.1355  0.0425  0.3766
  631MOL0     C85072   1.799   8.243  10.019  0.1247 -0.0932  1.0955
  631MOL0     C85073   1.674   8.228  10.088  0.7428  0.4115 -0.1377
  631MOL0     O85074   1.565   8.206   9.993  0.2565 -0.4089 -0.0876
  631MOL0     C85075   1.442   8.140  10.025  0.7808  0.6540  0.5877
  631MOL0     C85076   1.345   8.135   9.929 -0.1185 -0.9867  0.1900
  631MOL0     C85077   1.215   8.106   9.964  0.1523 -0.1084  0.1421
  631MOL0     C85078   1.119   8.091   9.844 -0.0373  0.2743  0.3952
  631MOL0     C85079   1.175   8.079  10.092  0.8327 -0.4028 -0.3286
  631MOL0     C85080   1.030   8.060  10.132  0.5867  0.0475 -0.9811
  631MOL0     O85081   0.931   8.122  10.062  0.0146  0.2737  0.1850
  631MOL0     C85082   0.804   8.081  10.085 -0.3132 -0.3571  0.1368
  631MOL0     C85083   0.730   8.123  10.192 -0.4999  0.7837  0.2950
  631MOL0     C85084   0.599   8.079  10.197  1.0355  0.4273 -0.7253
  631MOL0     C85085   0.543   7.990  10.103 -1.1494  0.0221  0.0619
  631MOL0     O85086   0.412   7.958  10.106 -0.4677  0.1284 -0.4462
  631MOL0     C85087   0.337   8.071  10.068  0.0614  0.0979  0.2618
  631MOL0     C85088   0.195   8.070  10.121 -0.3391 -0.9255  0.0063
  631MOL0     C85089   0.105   7.958  10.065  0.5168  0.2291 -0.2464
  631MOL0     C85090  -0.021   7.931  10.148 -0.1236  1.0059 -0.0901
  631MOL0     C85091  -0.087   7.791  10.116  0.0896  0.1414 -0.3483
  631MOL0     C85092  -0.196   7.768  10.219 -0.3194  0.5773 -0.0915
  631MOL0     C85093  -0.291   7.650  10.167 -0.4968 -0.3920  0.1558
  631MOL0     C85094  -0.224   7.516  10.135 -0.0657 -0.3745 -0.2126
  631MOL0    Cl85095  -0.127   7.510   9.982  0.2642  0.3401 -0.0976
  631MOL0     C85096   0.616   7.948   9.996 -0.0114 -0.4650 -0.3394
  631MOL0     C85097   0.750   7.994   9.991  0.1736  0.0264 -0.5140
  631MOL0     O85098   1.013   7.989  10.228  0.4854 -0.1201 -0.4150
  631MOL0     C85099   1.268   8.078  10.190  0.6524 -0.3818  1.5415
  631MOL0     C85100   1.402   8.111  10.159  0.9900 -0.3513  0.2415
  631MOL0     N85101   1.720   7.804  10.159  0.3841 -0.2290 -0.4238
  631MOL0     N85102   1.601   7.756  10.159 -0.1872 -0.2299  1.0378
  631MOL0     C85103   0.270   7.411  10.158  0.5077 -0.6397 -0.3792
  631MOL0     C85104   0.149   7.404  10.232  0.0124 -0.7378  0.2021
  631MOL0     C85105  -0.139   7.476  10.590 -0.0220  0.5141  0.7954
  631MOL0     C85106  -0.245   7.526  10.511 -0.3003  0.2970 -0.5848
  631MOL0     C85107  -0.363   7.565  10.570 -0.1690 -0.1126 -0.5042
  631MOL0     C85108  -0.391   7.562  10.708  0.3991 -0.7981  0.3362
  631MOL0     O85109  -0.514   7.611  10.747  0.3162 -0.1324 -0.2908
  631MOL0     C85110  -0.544   7.585  10.884 -0.5514 -0.1782 -0.8335
  631MOL0     C85111  -0.693   7.602  10.911  0.8612 -0.4057  0.2038
  631MOL0     C85112  -0.719   7.601  11.058  0.4193 -0.8500  0.3327
  631MOL0     C85113  -0.880   7.594  11.081  0.4497  0.4387 -0.2021
  631MOL0     C85114  -0.933   7.729  11.046  0.2385 -0.4441 -0.3808
  631MOL0     C85115  -0.985   7.832  11.007 -0.8312  0.6162 -0.3516
  631MOL0     C85116  -0.283   7.512  10.787  1.0536  0.0348  0.7047
  631MOL0     C85117  -0.167   7.461  10.729 -1.3489 -0.7335 -0.8657
  631MOL0     H85118   0.187   7.666  10.445  0.3936  0.4111  0.5383
  631MOL0     H85119   0.411   7.669  10.338 -3.4657  2.1571  3.8547
  631MOL0     H85120   0.521   7.689  10.130 -2.1886 -1.8852 -1.0988
  631MOL0     H85121   0.602   7.605  10.249 -2.6429 -0.2097  1.4850
  631MOL0     H85122   0.690   7.467  10.039 -3.1914 -0.5958  1.6519
  631MOL0     H85123   0.692   7.637   9.969  0.9420 -2.3236 -1.8043
  631MOL0     H85124   0.830   7.713  10.171 -3.9815  0.2197  0.1827
  631MOL0     H85125   0.855   7.538  10.198  1.2955 -1.6520 -2.0978
  631MOL0     H85126   0.965   7.513   9.984  1.2944  0.7687  0.6830
  631MOL0     H85127   0.927   7.690   9.951  0.0657  4.1100  3.6068
  631MOL0     H85128   1.086   7.756  10.114 -2.6908 -0.7641  1.6503
  631MOL0     H85129   1.079   7.597  10.189  0.9357  2.4804  2.1336
  631MOL0     H85130   1.198   7.511   9.975 -0.2896 -0.2874  1.3423
  631MOL0     H85131   1.183   7.677   9.907 -3.0706  0.8158  1.6314
  631MOL0     H85132   1.329   7.657  10.167 -1.1847  0.1777 -0.3561
  631MOL0     H85133   1.402   7.572  10.019 -0.3843 -0.3320 -1.9389
  631MOL0     H85134   1.325   7.850  10.055 -1.2788 -1.4754 -0.1200
  631MOL0     H85135   1.392   7.789   9.902  0.2132  0.2236  0.2361
  631MOL0     H85136   1.597   7.946   9.900 -1.3204 -1.5924 -0.0330
  631MOL0     H85137   1.919   7.989  10.134  0.8297 -1.0828 -0.5193
  631MOL0     H85138   1.923   7.925   9.973  2.2326 -0.6261  3.1033
  631MOL0     H85139   1.790   8.103   9.866  0.1498 -0.3527  0.2369
  631MOL0     H85140   1.951   8.144   9.934  0.3490 -1.8995 -0.1801
  631MOL0     H85141   1.785   8.311   9.934 -0.1130 -0.5119  0.7985
  631MOL0     H85142   1.879   8.283  10.082  1.2017 -0.5851  0.0589
  631MOL0     H85143   1.645   8.312  10.152  1.9196  0.1198  0.8046
  631MOL0     H85144   1.674   8.141  10.154 -0.7625 -0.1373 -0.8007
  631MOL0     H85145   1.386   8.164   9.833  1.5530 -0.1936  1.1106
  631MOL0     H85146   1.046   8.172   9.845  0.9310  1.2263 -1.1105
  631MOL0     H85147   1.164   8.117   9.748 -1.0604 -0.9010 -0.4219
  631MOL0     H85148   1.067   7.995   9.840  3.1508 -1.6364  1.0125
  631MOL0     H85149   0.766   8.179  10.278 -1.6471 -0.6540  1.7515
  631MOL0     H85150   0.531   8.101  10.279 -1.2682 -2.2098 -1.7457
  631MOL0     H85151   0.374   8.169  10.099 -2.1367 -0.5779  6.4788
  631MOL0     H85152   0.326   8.060   9.960 -1.1374 -2.2618  0.5398
  631MOL0     H85153   0.208   8.054  10.228  2.1832  1.7383  0.2227
  631MOL0     H85154   0.157   8.171  10.104  1.2537  0.2417  2.7227
  631MOL0     H85155   0.154   7.861  10.055 -2.9897 -1.6864 -0.1490
  631MOL0     H85156   0.073   7.992   9.965  1.0861 -0.7059 -0.7541
  631MOL0     H85157   0.007   7.936  10.253  2.1911  0.3460 -0.6071
  631MOL0     H85158  -0.101   8.003  10.127 -1.6910 -1.4964 -3.7636
  631MOL0     H85159  -0.009   7.715  10.120  1.0822  1.2039  2.0718
  631MOL0     H85160  -0.130   7.785  10.015  0.1314  0.4555 -0.3856
  631MOL0     H85161  -0.136   7.732  10.304 -0.7287 -0.8793 -0.4003
  631MOL0     H85162  -0.248   7.855  10.258  1.5506  1.1750  1.2130
  631MOL0     H85163  -0.353   7.671  10.079  0.4852 -3.4056 -1.4125
  631MOL0     H85164  -0.365   7.621  10.242 -0.5933 -3.5677 -1.0237
  631MOL0     H85165  -0.303   7.441  10.131  0.2176 -0.6534 -3.7205
  631MOL0     H85166  -0.167   7.489  10.225 -0.4503 -0.3359  0.0425
  631MOL0     H85167   0.571   7.867   9.939  3.6246 -1.0330 -2.7290
  631MOL0     H85168   0.807   7.958   9.906  0.6745 -1.6406  0.4659
  631MOL0     H85169   1.243   8.045  10.291 -0.4060  0.2511  1.4964
  631MOL0     H85170   1.479   8.119  10.234 -0.2798  2.5831  1.3814
  631MOL0     H85171   0.295   7.344  10.076  0.1749 -0.3312 -0.7342
  631MOL0     H85172   0.073   7.332  10.202 -3.5040  2.8963 -0.5480
  631MOL0     H85173  -0.242   7.549  10.405  0.2499 -1.6397 -1.0457
  631MOL0     H85174  -0.434   7.613  10.502  0.2908  1.9282  0.3831
  631MOL0     H85175  -0.503   7.490  10.919 -0.2309  0.1303 -0.3597
  631MOL0     H85176  -0.501   7.672  10.936  1.5832 -0.6945 -1.6614
  631MOL0     H85177  -0.733   7.518  10.853 -0.2237 -1.3986  2.3058
  631MOL0     H85178  -0.712   7.704  10.876  1.8820 -1.5942 -4.6102
  631MOL0     H85179  -0.676   7.691  11.103 -1.1888  0.8423 -1.3516
  631MOL0     H85180  -0.657   7.522  11.103 -0.6418 -3.7086 -2.8182
  631MOL0     H85181  -0.910   7.556  11.179  4.4976 -2.3241  0.2022
  631MOL0     H85182  -0.926   7.531  11.004  0.4252  1.1906 -0.8208
  631MOL0     H85183  -1.024   7.920  10.960  0.8406  1.8249  0.4332
  631MOL0     H85184  -0.284   7.517  10.895 -0.5042  1.6460  0.6656
  631MOL0     H85185  -0.086   7.432  10.795  0.4043  2.9456 -1.1743
  632MOL0     O85186   2.240   5.787   5.686 -0.3740 -0.0399  0.3227
  632MOL0     C85187   2.249   5.687   5.757  0.4874 -0.0370 -0.7003
  632MOL0     O85188   2.242   5.557   5.714  0.3261  0.2732  0.0462
  632MOL0     C85189   2.230   5.518   5.585  0.2445 -0.1097  1.2538
  632MOL0     C85190   2.145   5.575   5.495 -0.0174  0.6171 -0.6401
  632MOL0     C85191   2.135   5.531   5.361 -0.4986  0.0273  1.0962
  632MOL0     C85192   2.200   5.415   5.327 -0.7212  0.4202  0.8013
  632MOL0     O85193   2.198   5.363   5.195 -0.2922 -0.3320 -0.3018
  632MOL0     C85194   2.079   5.382   5.110 -0.9338 -0.4712 -0.8353
  632MOL0     C85195   2.116   5.347   4.965 -0.6792 -0.6651  0.1607
  632MOL0     C85196   2.257   5.414   4.924  0.1289 -0.8651  0.2098
  632MOL0     C85197   2.259   5.441   4.776 -0.0362  0.9132  0.0649
  632MOL0     C85198   2.254   5.301   4.698  0.4431 -0.0587 -0.0137
  632MOL0     C85199   2.383   5.230   4.711 -1.6799 -0.6706 -0.3227
  632MOL0     C85200   2.392   5.109   4.615  0.2740 -0.4125 -0.3891
  632MOL0     C85201   2.439   5.140   4.474 -0.4071  0.7470 -0.1596
  632MOL0     N85202   2.346   5.214   4.392  0.1722  0.7644 -1.0043
  632MOL0     C85203   2.213   5.204   4.389 -1.5572 -0.0574  0.2927
  632MOL0     C85204   2.176   5.294   4.301  0.0942  0.5976  0.0519
  632MOL0     C85205   2.039   5.334   4.258 -0.0577  0.5580 -0.1574
  632MOL0     C85206   1.992   5.255   4.134 -0.3794 -0.0025 -0.0852
  632MOL0     C85207   1.839   5.281   4.112 -0.0264  0.3674 -0.4729
  632MOL0     C85208   1.799   5.427   4.077  0.0998 -0.2150 -0.8248
  632MOL0     O85209   1.883   5.449   3.968 -0.3463 -0.4178 -0.2571
  632MOL0     C85210   1.851   5.535   3.868  0.4598  0.1712  0.0090
  632MOL0     C85211   1.957   5.574   3.787  0.4036  1.0951 -0.5949
  632MOL0     C85212   1.938   5.649   3.672 -0.2364  0.2114 -0.0825
  632MOL0     C85213   2.064   5.687   3.601 -0.4290  0.8903 -0.5397
  632MOL0     C85214   1.809   5.663   3.619 -0.0522  0.6377  0.0407
  632MOL0     C85215   1.793   5.745   3.502  0.3122 -0.4144 -0.2154
  632MOL0     O85216   1.695   5.699   3.407 -0.5806 -0.6370 -0.4228
  632MOL0     C85217   1.657   5.789   3.305 -0.0551 -0.1165  0.1622
  632MOL0     C85218   1.523   5.788   3.271  0.1331 -0.5910  0.1529
  632MOL0     C85219   1.467   5.880   3.175  0.6602  0.1695 -0.7219
  632MOL0     C85220   1.555   5.965   3.110 -0.2930 -0.0284  0.2064
  632MOL0     O85221   1.531   6.063   3.015  0.4083  0.1213  0.5402
  632MOL0     C85222   1.408   6.058   2.949  0.3283 -0.0629 -0.0415
  632MOL0     C85223   1.381   6.185   2.862 -1.1484 -0.9054  0.2148
  632MOL0     C85224   1.362   6.323   2.933 -0.5692  0.3850 -0.5332
  632MOL0     C85225   1.369   6.436   2.832 -0.1918  0.2342 -0.0245
  632MOL0     C85226   1.330   6.569   2.881 -0.8467  0.1336 -0.4628
  632MOL0     C85227   1.451   6.639   2.952  0.2828 -1.1420 -0.8976
  632MOL0     C85228   1.406   6.787   2.974 -1.4400  0.2010  0.3814
  632MOL0     C85229   1.517   6.856   3.068  0.2883 -0.0481  0.6800
  632MOL0    Cl85230   1.687   6.855   2.986 -0.1596 -0.4307 -0.4179
  632MOL0     C85231   1.695   5.954   3.127  0.0496  0.3251 -0.0263
  632MOL0     C85232   1.745   5.873   3.229 -0.1308 -0.9240  0.1940
  632MOL0     O85233   1.841   5.858   3.508 -0.4115  0.1697  0.1833
  632MOL0     C85234   1.699   5.600   3.683  0.1356 -0.0096  0.6036
  632MOL0     C85235   1.720   5.549   3.811  0.2419 -0.6417 -0.7569
  632MOL0     N85236   2.284   5.344   4.243 -0.6182 -0.2606 -0.0892
  632MOL0     N85237   2.383   5.314   4.305 -0.3738  0.0068 -0.5389
  632MOL0     C85238   2.280   5.348   5.417 -0.5611  0.4141  0.2451
  632MOL0     C85239   2.290   5.398   5.544  0.1512  0.4818 -0.7634
  632MOL0     C85240   2.242   5.715   5.903 -0.0200  0.7538 -0.1302
  632MOL0     C85241   2.284   5.613   5.998 -0.3811  0.5939  0.8627
  632MOL0     C85242   2.272   5.623   6.130 -0.1031 -0.6965 -1.2143
  632MOL0     C85243   2.231   5.747   6.182 -0.2707 -0.2497  0.4930
  632MOL0     O85244   2.221   5.759   6.320  0.0210  0.5341 -0.0537
  632MOL0     C85245   2.189   5.892   6.372  0.1787  0.3023 -0.8473
  632MOL0     C85246   2.221   5.888   6.528 -0.3049 -0.3505 -0.1464
  632MOL0     C85247   2.201   5.748   6.595 -0.6114 -0.9604 -0.4378
  632MOL0     C85248   2.257   5.733   6.734 -0.7314 -0.2736  0.2052
  632MOL0     C85249   2.397   5.751   6.754  0.2538  0.2948  0.3170
  632MOL0     C85250   2.516   5.748   6.770  0.1296  0.4962 -0.6384
  632MOL0     C85251   2.179   5.848   6.096  0.6643 -0.8085 -0.7791
  632MOL0     C85252   2.189   5.833   5.962  0.3689  0.3597 -1.1471
  632MOL0     H85253   2.083   5.659   5.523 -1.1469 -0.9033  1.6951
  632MOL0     H85254   2.074   5.583   5.288 -0.4771 -0.2274  0.8979
  632MOL0     H85255   2.010   5.302   5.140 -0.8858 -0.6947 -1.3078
  632MOL0     H85256   2.034   5.480   5.131 -1.3252  0.0721 -3.7833
  632MOL0     H85257   2.113   5.237   4.960 -3.0930 -0.8447  3.1636
  632MOL0     H85258   2.033   5.391   4.910 -0.8829  0.3258  1.2264
  632MOL0     H85259   2.259   5.512   4.972 -1.4509  1.9130 -4.7087
  632MOL0     H85260   2.341   5.352   4.957  1.1088  0.0991 -0.4072
  632MOL0     H85261   2.167   5.497   4.758  0.3452  0.8776 -2.3562
  632MOL0     H85262   2.343   5.507   4.750 -0.5067  1.6952  0.4918
  632MOL0     H85263   2.168   5.240   4.725  1.1124 -0.9950  0.0487
  632MOL0     H85264   2.231   5.323   4.593 -1.9312 -2.5971 -0.1474
  632MOL0     H85265   2.465   5.296   4.680 -1.5991  0.8674  2.8320
  632MOL0     H85266   2.403   5.214   4.817  0.2477  2.5012 -0.0605
  632MOL0     H85267   2.456   5.025   4.646  0.0839 -0.5892 -0.4676
  632MOL0     H85268   2.287   5.078   4.613  0.5153 -1.3718  0.6419
  632MOL0     H85269   2.467   5.049   4.420  3.4870  2.4889 -1.4418
  632MOL0     H85270   2.528   5.202   4.461  0.0862 -0.3506 -2.6328
  632MOL0     H85271   2.151   5.136   4.446 -2.3366  0.8831  0.5921
  632MOL0     H85272   1.971   5.314   4.341  1.8239  0.9029  1.5620
  632MOL0     H85273   2.050   5.442   4.242  0.5807  0.7471  1.4205
  632MOL0     H85274   2.016   5.153   4.162 -0.5873  0.0508  0.2869
  632MOL0     H85275   2.057   5.270   4.047  1.4935 -0.8938  1.0909
  632MOL0     H85276   1.785   5.246   4.200 -1.0233 -0.4153 -1.3618
  632MOL0     H85277   1.822   5.223   4.021 -3.0299 -0.7140  0.6594
  632MOL0     H85278   1.823   5.500   4.155 -1.9150  0.3246 -0.6507
  632MOL0     H85279   1.691   5.432   4.057 -0.2117 -2.7497 -0.1301
  632MOL0     H85280   2.051   5.570   3.842 -0.8299  0.5746  1.6034
  632MOL0     H85281   2.148   5.643   3.656 -0.1353  0.7998 -1.0446
  632MOL0     H85282   2.064   5.629   3.508 -3.1482 -0.5044  0.2343
  632MOL0     H85283   2.078   5.794   3.586 -1.5193  1.2927  1.1340
  632MOL0     H85284   1.450   5.723   3.319  0.3980 -1.4427 -0.5774
  632MOL0     H85285   1.360   5.885   3.163  0.3203 -3.8057 -0.8446
  632MOL0     H85286   1.411   5.971   2.883  0.6028 -0.7458  0.8495
  632MOL0     H85287   1.323   6.043   3.015 -0.9859  1.7296 -1.2246
  632MOL0     H85288   1.473   6.200   2.805 -0.5399  3.8161  1.9967
  632MOL0     H85289   1.299   6.177   2.789  0.8494 -1.2329 -2.1014
  632MOL0     H85290   1.450   6.338   2.996 -0.6182  3.2666 -1.0204
  632MOL0     H85291   1.263   6.336   2.977 -2.4060 -0.5578 -3.9831
  632MOL0     H85292   1.472   6.450   2.796 -0.3038  1.7881  0.2150
  632MOL0     H85293   1.304   6.414   2.747 -0.4324 -2.4733  0.7679
  632MOL0     H85294   1.252   6.555   2.956 -1.3901 -0.9222 -1.1961
  632MOL0     H85295   1.279   6.628   2.805 -4.9680 -0.2444  1.7432
  632MOL0     H85296   1.467   6.595   3.051  0.4401 -0.6268 -0.6908
  632MOL0     H85297   1.538   6.627   2.886  0.7144 -0.4524 -0.4737
  632MOL0     H85298   1.309   6.789   3.025 -2.1880 -2.3087 -0.7871
  632MOL0     H85299   1.421   6.845   2.882 -0.1713  2.7721  2.1128
  632MOL0     H85300   1.522   6.806   3.166 -2.8419 -2.2732 -0.1582
  632MOL0     H85301   1.490   6.959   3.090  1.2975  1.3004 -3.5179
  632MOL0     H85302   1.750   6.025   3.066 -0.0254 -0.0709 -0.5556
  632MOL0     H85303   1.853   5.875   3.225 -0.1320 -1.9864 -1.2371
  632MOL0     H85304   1.599   5.599   3.642  0.4522  0.2893 -0.1957
  632MOL0     H85305   1.630   5.506   3.854  2.0262 -2.5979  1.2856
  632MOL0     H85306   2.341   5.261   5.396 -0.3619  0.4608  0.6127
  632MOL0     H85307   2.358   5.357   5.619 -0.4068 -2.7649 -1.8867
  632MOL0     H85308   2.325   5.522   5.956 -1.6119  0.2639  0.3370
  632MOL0     H85309   2.298   5.539   6.194 -2.3787  0.4534  1.4561
  632MOL0     H85310   2.266   5.962   6.336  2.0987 -0.5156  1.4058
  632MOL0     H85311   2.086   5.927   6.363  0.1503  0.5893  0.3971
  632MOL0     H85312   2.154   5.950   6.589 -0.1446 -1.3072  1.0346
  632MOL0     H85313   2.326   5.915   6.540  0.1410 -2.7993  2.6592
  632MOL0     H85314   2.250   5.671   6.535  0.8485  0.7621 -1.5541
  632MOL0     H85315   2.094   5.725   6.590 -1.6959  2.7566  1.9235
  632MOL0     H85316   2.226   5.635   6.772  2.1746 -1.1525  0.5579
  632MOL0     H85317   2.210   5.811   6.794  0.8412  0.7466  0.1672
  632MOL0     H85318   2.622   5.744   6.786  0.1775 -1.3385 -1.2195
  632MOL0     H85319   2.129   5.940   6.123  0.9494 -1.0609  0.6919
  632MOL0     H85320   2.157   5.921   5.906  0.6690  2.9365  2.3426
  633MOL0     O85321   0.788   2.245   4.281 -0.6036 -0.5394  0.5046
  633MOL0     C85322   0.842   2.310   4.366  0.3012 -0.4125  0.3553
  633MOL0     O85323   0.796   2.312   4.496  0.2453 -0.3088  0.1958
  633MOL0     C85324   0.697   2.218   4.530  0.5677 -0.3012  0.7499
  633MOL0     C85325   0.734   2.109   4.612 -0.1508 -0.1130 -0.0521
  633MOL0     C85326   0.646   2.022   4.678 -0.3883 -1.0640  0.3229
  633MOL0     C85327   0.513   2.029   4.640 -0.8920  0.7009 -0.0232
  633MOL0     O85328   0.425   1.926   4.677  0.1505 -1.3434 -0.5194
  633MOL0     C85329   0.450   1.855   4.794  0.4258  0.1414 -0.4311
  633MOL0     C85330   0.312   1.797   4.832 -0.3159  0.8761 -0.2073
  633MOL0     C85331   0.310   1.681   4.942  0.2352  0.1098  0.0773
  633MOL0     C85332   0.171   1.626   4.945  0.4229 -0.3779  0.1764
  633MOL0     C85333   0.152   1.503   5.049  0.5563  0.5239  0.0161
  633MOL0     C85334   0.005   1.445   5.034 -1.1939 -0.1487 -0.4596
  633MOL0     C85335  -0.038   1.370   4.908  0.6620  0.2669  0.2458
  633MOL0     C85336   0.051   1.251   4.888  0.5442 -0.6345  0.0283
  633MOL0     N85337  -0.020   1.145   4.808 -0.4910  0.1803 -0.7681
  633MOL0     C85338  -0.096   1.177   4.694  0.4360 -0.7118  0.6195
  633MOL0     C85339  -0.163   1.058   4.671  0.3531 -0.4331  0.4533
  633MOL0     C85340  -0.259   1.036   4.560  0.0746  0.3055  0.3911
  633MOL0     C85341  -0.363   1.148   4.558 -0.4579 -0.3705  0.2800
  633MOL0     C85342  -0.466   1.121   4.447  0.7121  0.4856 -0.4650
  633MOL0     C85343  -0.542   1.259   4.431 -1.0066 -0.2848  0.5807
  633MOL0     O85344  -0.630   1.264   4.318 -1.1025  0.2769  0.2407
  633MOL0     C85345  -0.734   1.181   4.319  0.0646  0.4295  0.0875
  633MOL0     C85346  -0.823   1.154   4.421 -0.3932  0.1843 -0.3346
  633MOL0     C85347  -0.948   1.095   4.402 -0.1530  0.4662 -0.8950
  633MOL0     C85348  -1.040   1.079   4.522 -0.3575  0.2667  0.4052
  633MOL0     C85349  -0.985   1.051   4.271 -1.3004 -0.1664  0.0982
  633MOL0     C85350  -1.094   0.961   4.238 -0.1669 -0.6491  0.4458
  633MOL0     O85351  -1.118   0.946   4.101 -0.4417 -0.3661  0.3241
  633MOL0     C85352  -1.235   0.876   4.068 -0.1112 -0.3848 -0.5384
  633MOL0     C85353  -1.354   0.946   4.052 -0.5074  0.3479  0.0718
  633MOL0     C85354  -1.469   0.879   4.004 -0.1430 -0.1774 -0.4991
  633MOL0     C85355  -1.462   0.742   3.973  0.7185 -0.9450 -0.5046
  633MOL0     O85356  -1.578   0.693   3.932 -0.2705 -0.0103  0.7216
  633MOL0     C85357  -1.574   0.574   3.843 -0.1168 -0.2958  0.5283
  633MOL0     C85358  -1.716   0.538   3.809 -0.8211 -0.2379  0.7829
  633MOL0     C85359  -1.722   0.398   3.749 -0.1123 -0.2111  0.5868
  633MOL0     C85360  -1.865   0.336   3.743  0.5778  0.2636 -0.0901
  633MOL0     C85361  -1.919   0.294   3.599  0.5950  0.3770 -0.3529
  633MOL0     C85362  -2.061   0.243   3.607 -0.8225 -0.3996 -0.5016
  633MOL0     C85363  -2.108   0.181   3.472  0.0985 -0.6755 -0.2170
  633MOL0     C85364  -2.048   0.048   3.445 -1.3404 -0.1958  0.2385
  633MOL0    Cl85365  -2.068  -0.083   3.561 -0.0203 -0.1718  0.3582
  633MOL0     C85366  -1.344   0.674   3.993  0.9880 -0.3078 -0.7337
  633MOL0     C85367  -1.229   0.744   4.038 -0.0221 -0.2038  0.1073
  633MOL0     O85368  -1.171   0.920   4.324 -0.7904 -0.5792  0.4333
  633MOL0     C85369  -0.888   1.076   4.168 -0.0936 -0.0913  0.7737
  633MOL0     C85370  -0.771   1.141   4.184 -0.3678  0.2382  1.0041
  633MOL0     N85371  -0.138   0.970   4.771  0.0647 -0.2767  0.9711
  633MOL0     N85372  -0.061   1.024   4.862  0.8955  0.3809 -0.6055
  633MOL0     C85373   0.468   2.129   4.551 -0.8332  0.0071 -0.3448
  633MOL0     C85374   0.556   2.228   4.501 -0.7154  0.5250 -0.0651
  633MOL0     C85375   0.960   2.391   4.342  1.3126  1.0950  0.1675
  633MOL0     C85376   1.042   2.439   4.444 -0.7529 -0.8088  0.8746
  633MOL0     C85377   1.132   2.541   4.412 -0.4291 -1.2386 -0.0841
  633MOL0     C85378   1.150   2.594   4.280 -0.3023  0.0345  0.7115
  633MOL0     O85379   1.243   2.687   4.261  0.1187 -0.4127  0.3906
  633MOL0     C85380   1.268   2.730   4.125 -1.2199  0.1032  0.4168
  633MOL0     C85381   1.377   2.850   4.121  0.3883  0.9393 -0.4302
  633MOL0     C85382   1.503   2.822   4.201  0.0881  0.1883 -0.0293
  633MOL0     C85383   1.617   2.918   4.195  0.5601 -0.8045  0.2399
  633MOL0     C85384   1.641   2.973   4.057  0.0806 -0.3756 -1.3732
  633MOL0     C85385   1.670   3.035   3.948  0.3803  0.4952 -0.1301
  633MOL0     C85386   1.081   2.528   4.176  0.5951 -0.1354 -0.2930
  633MOL0     C85387   0.981   2.427   4.206 -0.1921 -0.2119  1.2035
  633MOL0     H85388   0.841   2.110   4.632  0.0862 -0.4651 -1.2683
  633MOL0     H85389   0.692   1.950   4.745  1.6393  0.6829  0.9399
  633MOL0     H85390   0.517   1.773   4.767 -0.3480 -0.7045  0.1574
  633MOL0     H85391   0.491   1.916   4.875 -1.1208  4.3757 -2.5109
  633MOL0     H85392   0.241   1.877   4.855 -0.4270  0.1322  2.3702
  633MOL0     H85393   0.268   1.744   4.747 -0.7952 -2.0006  1.6566
  633MOL0     H85394   0.380   1.606   4.906  2.3722  2.0004  0.0602
  633MOL0     H85395   0.333   1.727   5.039  0.2544 -1.4794  0.8502
  633MOL0     H85396   0.110   1.716   4.961 -0.2575 -0.9563  0.9079
  633MOL0     H85397   0.132   1.579   4.854  0.2123 -1.4115  0.7830
  633MOL0     H85398   0.232   1.429   5.036  1.6491  1.6009  0.3355
  633MOL0     H85399   0.172   1.539   5.151  2.9693  2.9077 -1.1448
  633MOL0     H85400  -0.008   1.383   5.123  0.0531 -1.3562 -1.0742
  633MOL0     H85401  -0.064   1.529   5.043  1.8680  2.4446  0.8611
  633MOL0     H85402  -0.141   1.332   4.913  1.1962 -1.1792  3.7488
  633MOL0     H85403  -0.031   1.437   4.822  0.8357  0.8219  0.6886
  633MOL0     H85404   0.083   1.211   4.984  2.2454  0.2027 -0.1544
  633MOL0     H85405   0.143   1.278   4.835 -0.0702  2.8113  0.5290
  633MOL0     H85406  -0.114   1.273   4.645  1.2070  0.1071  1.8736
  633MOL0     H85407  -0.207   1.032   4.463 -0.9434  0.1178 -0.1617
  633MOL0     H85408  -0.308   0.939   4.572 -1.1034  0.7658 -0.4784
  633MOL0     H85409  -0.315   1.245   4.537 -1.9335 -0.0880 -2.1150
  633MOL0     H85410  -0.412   1.160   4.655  0.8914 -1.4060  1.1263
  633MOL0     H85411  -0.538   1.041   4.467 -1.8438  1.9289 -3.1302
  633MOL0     H85412  -0.409   1.103   4.356 -0.7014  1.1501 -1.5096
  633MOL0     H85413  -0.469   1.340   4.425 -1.6747  0.2277 -1.2242
  633MOL0     H85414  -0.597   1.285   4.522  1.8343 -0.1793  2.4060
  633MOL0     H85415  -0.806   1.175   4.526 -1.4486 -1.4553  0.2122
  633MOL0     H85416  -0.997   1.137   4.604 -1.4154 -1.4494  2.2507
  633MOL0     H85417  -1.139   1.123   4.508 -0.3778 -0.4498 -2.2162
  633MOL0     H85418  -1.048   0.975   4.554 -0.2434  0.4125  0.9234
  633MOL0     H85419  -1.357   1.052   4.077  0.4840  0.7734 -1.4624
  633MOL0     H85420  -1.556   0.939   3.978 -1.1910 -0.8021  1.3460
  633MOL0     H85421  -1.515   0.602   3.754  2.1467  0.1188  2.0697
  633MOL0     H85422  -1.523   0.488   3.888  0.6807  0.4910  1.1786
  633MOL0     H85423  -1.772   0.534   3.903 -2.9704 -2.7182 -0.4517
  633MOL0     H85424  -1.764   0.609   3.740  2.6436 -0.8724 -2.6401
  633MOL0     H85425  -1.649   0.334   3.800 -1.0734 -1.7573  0.1110
  633MOL0     H85426  -1.683   0.403   3.646 -0.8247  0.8478  0.3611
  633MOL0     H85427  -1.874   0.248   3.807 -1.2847  0.4063 -0.1148
  633MOL0     H85428  -1.943   0.388   3.800  1.7157 -1.0159  2.8369
  633MOL0     H85429  -1.873   0.204   3.558 -1.8617 -1.2769  0.3528
  633MOL0     H85430  -1.914   0.370   3.520 -0.6072 -0.0744 -0.8853
  633MOL0     H85431  -2.074   0.171   3.688  0.2378 -0.8064 -0.6707
  633MOL0     H85432  -2.114   0.336   3.625 -0.8093 -0.7483  1.5649
  633MOL0     H85433  -2.088   0.259   3.398 -1.1536 -0.6426 -0.5391
  633MOL0     H85434  -2.216   0.170   3.481 -0.1006  1.8102  1.4343
  633MOL0     H85435  -1.941   0.057   3.425 -1.0053 -2.1346  0.9768
  633MOL0     H85436  -2.091   0.008   3.352  0.0917 -2.8436  0.6095
  633MOL0     H85437  -1.337   0.570   3.963  3.1328 -0.3689 -0.2070
  633MOL0     H85438  -1.136   0.688   4.046  0.6916  0.7610 -1.1555
  633MOL0     H85439  -0.921   1.049   4.068  0.4053 -1.3272  0.9154
  633MOL0     H85440  -0.712   1.157   4.095 -1.1764  1.0762  0.5937
  633MOL0     H85441   0.366   2.117   4.516 -0.1709 -2.1617 -1.7811
  633MOL0     H85442   0.514   2.305   4.437  0.7667  2.0829  0.7406
  633MOL0     H85443   1.018   2.423   4.549  0.6718  0.9767  1.5335
  633MOL0     H85444   1.187   2.589   4.492  1.3040  1.9650 -2.9110
  633MOL0     H85445   1.309   2.647   4.067 -1.4944 -0.7255  1.3745
  633MOL0     H85446   1.181   2.771   4.073  0.4108  2.3596 -0.6884
  633MOL0     H85447   1.327   2.935   4.168  0.5087  1.4792 -1.2560
  633MOL0     H85448   1.397   2.882   4.018  1.9381  0.8675 -0.1677
  633MOL0     H85449   1.538   2.722   4.177 -0.4850  0.5143 -2.5372
  633MOL0     H85450   1.475   2.839   4.306 -0.8303  2.2682 -0.5462
  633MOL0     H85451   1.714   2.884   4.232  0.2191 -1.1785  0.8107
  633MOL0     H85452   1.582   3.004   4.253 -2.9570 -1.9352  0.0714
  633MOL0     H85453   1.681   3.075   3.849  2.2787  0.1187 -0.1223
  633MOL0     H85454   1.094   2.552   4.071  0.1786 -0.9924 -0.5525
  633MOL0     H85455   0.928   2.385   4.121  0.7397 -0.3549  0.6760
  634MOL0     O85456   2.301   6.133   1.601 -0.5032 -0.5549  0.0722
  634MOL0     C85457   2.282   6.253   1.642 -0.5852 -0.1848  0.3579
  634MOL0     O85458   2.272   6.299   1.776 -0.3311  0.1650  1.2149
  634MOL0     C85459   2.253   6.200   1.869  0.8607 -0.7576  0.6790
  634MOL0     C85460   2.330   6.219   1.988 -0.1522  0.2657 -0.0099
  634MOL0     C85461   2.309   6.136   2.102 -0.4344 -0.4813  0.6169
  634MOL0     C85462   2.210   6.036   2.098  0.6616  0.5225  0.7270
  634MOL0     O85463   2.167   5.960   2.197 -0.2000  0.2019  0.5440
  634MOL0     C85464   2.232   5.982   2.325 -0.4092  0.7078 -0.0483
  634MOL0     C85465   2.155   5.915   2.441  0.2701  0.2961 -0.2609
  634MOL0     C85466   2.191   5.766   2.459  0.6374  0.5748  1.1701
  634MOL0     C85467   2.176   5.674   2.333 -0.0278  0.2357 -0.8277
  634MOL0     C85468   2.189   5.519   2.361 -0.9485 -0.4702  0.0279
  634MOL0     C85469   2.195   5.435   2.236  0.6603 -0.1000  0.4386
  634MOL0     C85470   2.196   5.291   2.287 -0.5380  0.2394  0.1554
  634MOL0     C85471   2.208   5.185   2.176 -0.1980  0.4284  0.3587
  634MOL0     N85472   2.077   5.131   2.145 -0.7253 -0.0144 -0.0924
  634MOL0     C85473   2.042   4.995   2.160  0.2915 -0.6940 -0.0445
  634MOL0     C85474   1.912   4.990   2.143  0.4781  0.9501  0.3712
  634MOL0     C85475   1.831   4.863   2.144  0.3193  0.1326 -0.2588
  634MOL0     C85476   1.848   4.788   2.018 -1.0287  0.3591  0.0951
  634MOL0     C85477   1.792   4.654   2.052  0.4465 -0.4911 -0.7675
  634MOL0     C85478   1.802   4.566   1.933  0.1803  0.8584 -0.3573
  634MOL0     O85479   1.716   4.447   1.959  0.6547  0.1995  0.0499
  634MOL0     C85480   1.788   4.335   2.009  0.9582  0.4795 -0.1226
  634MOL0     C85481   1.733   4.259   2.116  0.1805 -0.0847 -0.4503
  634MOL0     C85482   1.791   4.146   2.173  0.2376 -0.5343 -0.2512
  634MOL0     C85483   1.715   4.096   2.290  0.2581  0.1569 -0.5065
  634MOL0     C85484   1.908   4.094   2.108 -0.2906 -0.4390  0.4118
  634MOL0     C85485   1.981   3.980   2.170  0.3945 -1.2520 -0.1332
  634MOL0     O85486   2.065   3.911   2.090 -0.4416  1.3102 -0.4102
  634MOL0     C85487   2.127   3.792   2.135 -1.1269 -0.7645 -0.5197
  634MOL0     C85488   2.049   3.686   2.183  0.0950 -0.0480 -0.4887
  634MOL0     C85489   2.107   3.564   2.215 -0.2286  0.2662 -0.1352
  634MOL0     C85490   2.248   3.547   2.228  0.1687  0.3366  1.2087
  634MOL0     O85491   2.303   3.426   2.249  0.3096  0.2317  0.6248
  634MOL0     C85492   2.428   3.401   2.189  1.0378 -0.4555 -0.0582
  634MOL0     C85493   2.471   3.251   2.210  0.2436 -0.4598  0.0983
  634MOL0     C85494   2.488   3.213   2.353  0.2923 -0.1563 -0.6592
  634MOL0     C85495   2.562   3.072   2.359 -0.0895  0.4226 -0.2487
  634MOL0     C85496   2.598   3.032   2.506  0.5425 -0.6191  0.3863
  634MOL0     C85497   2.669   2.899   2.529 -0.8997  0.1081  0.0037
  634MOL0     C85498   2.815   2.906   2.487 -0.2411 -0.0173  0.5685
  634MOL0     C85499   2.898   2.792   2.539  0.6786  0.9164  0.1882
  634MOL0    Cl85500   2.828   2.627   2.521 -0.0146 -0.0670 -0.3282
  634MOL0     C85501   2.321   3.662   2.207 -0.2170 -0.3623  0.1053
  634MOL0     C85502   2.266   3.781   2.155  0.4618 -0.0622  0.6815
  634MOL0     O85503   1.962   3.959   2.292  0.3228 -0.1154  1.0357
  634MOL0     C85504   1.956   4.148   1.989 -0.0978 -0.0032  0.6995
  634MOL0     C85505   1.900   4.271   1.940 -0.1015  0.1034 -0.3935
  634MOL0     N85506   1.862   5.117   2.121 -0.5997 -0.2042 -0.0778
  634MOL0     N85507   1.962   5.204   2.126 -0.6079 -0.0897  0.2261
  634MOL0     C85508   2.136   6.011   1.978  0.1712  0.0853  0.5013
  634MOL0     C85509   2.166   6.090   1.866  0.7389  0.9069  0.0260
  634MOL0     C85510   2.233   6.344   1.536 -0.4084  0.9259 -0.1458
  634MOL0     C85511   2.146   6.288   1.442  0.4276  0.0965  0.6760
  634MOL0     C85512   2.104   6.365   1.333  0.6906  0.5688  0.2143
  634MOL0     C85513   2.145   6.496   1.319 -0.0705  0.1618 -0.2112
  634MOL0     O85514   2.103   6.580   1.218  0.4509  0.5856  0.1176
  634MOL0     C85515   2.198   6.612   1.112 -0.2408  0.3037 -0.6164
  634MOL0     C85516   2.133   6.688   0.987 -1.0924  0.1161 -0.3409
  634MOL0     C85517   2.043   6.801   1.039  0.1485 -0.1350 -1.0865
  634MOL0     C85518   2.109   6.913   1.133 -0.2974 -0.0605  0.0877
  634MOL0     C85519   2.211   6.994   1.063 -0.0688  0.3388 -0.2208
  634MOL0     C85520   2.294   7.062   0.999 -0.3804 -0.2429  0.0084
  634MOL0     C85521   2.246   6.546   1.399  0.6530 -0.0223 -0.2565
  634MOL0     C85522   2.279   6.470   1.509 -0.7931  0.3696 -1.4592
  634MOL0     H85523   2.403   6.298   2.005  0.4971 -0.5753  1.3057
  634MOL0     H85524   2.374   6.154   2.187  5.1957  0.0627 -3.2768
  634MOL0     H85525   2.335   5.944   2.319  0.4871  2.9080  0.4078
  634MOL0     H85526   2.246   6.085   2.359  0.5940  0.8786 -0.9247
  634MOL0     H85527   2.175   5.967   2.535 -1.6190 -2.8270  2.0660
  634MOL0     H85528   2.046   5.921   2.426  0.3532  1.5319 -0.5112
  634MOL0     H85529   2.296   5.766   2.490  0.1001  2.0179  3.2044
  634MOL0     H85530   2.142   5.736   2.552 -1.5507  3.6618  1.1909
  634MOL0     H85531   2.086   5.699   2.275  0.2762 -0.7375 -1.7495
  634MOL0     H85532   2.259   5.698   2.266 -0.7036  1.1005 -1.3876
  634MOL0     H85533   2.269   5.506   2.434 -0.1415  4.7301  0.4917
  634MOL0     H85534   2.100   5.491   2.418 -2.3989  2.0518 -0.8203
  634MOL0     H85535   2.108   5.471   2.181  0.7508  1.0596  1.0225
  634MOL0     H85536   2.281   5.450   2.169 -0.6323  1.5047 -0.9330
  634MOL0     H85537   2.278   5.287   2.359  0.2963  2.7550 -0.5631
  634MOL0     H85538   2.112   5.277   2.356 -0.0445  0.5795  0.8426
  634MOL0     H85539   2.267   5.099   2.208 -0.8817 -2.0924 -4.2846
  634MOL0     H85540   2.251   5.225   2.084 -1.5065 -0.4122 -0.6591
  634MOL0     H85541   2.109   4.910   2.162  0.2080 -0.7485  0.6585
  634MOL0     H85542   1.867   4.798   2.225 -0.0141 -0.0519 -0.2583
  634MOL0     H85543   1.723   4.882   2.148  0.0931 -1.0433 -0.4426
  634MOL0     H85544   1.954   4.791   1.992 -1.2058 -1.3444 -0.9500
  634MOL0     H85545   1.789   4.835   1.939 -2.5934 -4.5194 -2.0411
  634MOL0     H85546   1.686   4.670   2.071  0.0728 -1.4830 -1.8700
  634MOL0     H85547   1.840   4.606   2.138 -2.0394 -2.5780 -0.4275
  634MOL0     H85548   1.905   4.545   1.903  0.4697 -0.1789  1.2359
  634MOL0     H85549   1.758   4.614   1.845  2.7334  2.9448 -0.5892
  634MOL0     H85550   1.641   4.298   2.159 -0.9193  1.1041 -3.6442
  634MOL0     H85551   1.758   4.142   2.379  4.4729  0.7825 -2.6379
  634MOL0     H85552   1.606   4.109   2.283 -0.1131 -3.0107 -2.7904
  634MOL0     H85553   1.723   3.989   2.308 -2.3926  0.1206  0.9488
  634MOL0     H85554   1.941   3.698   2.182  0.0597  0.8152  2.5834
  634MOL0     H85555   2.036   3.482   2.228 -2.5993  1.9013 -1.8480
  634MOL0     H85556   2.435   3.437   2.086  3.9694  4.2539  1.4822
  634MOL0     H85557   2.495   3.459   2.253 -2.0020  1.3605  1.7615
  634MOL0     H85558   2.415   3.173   2.158 -0.4440 -0.3746  0.6920
  634MOL0     H85559   2.569   3.240   2.162  0.6750 -1.8419  1.2328
  634MOL0     H85560   2.384   3.198   2.384 -0.2769 -0.2401 -2.4594
  634MOL0     H85561   2.534   3.292   2.412 -1.2183 -1.9863  3.3615
  634MOL0     H85562   2.513   2.994   2.301 -0.3996  0.8710 -0.5930
  634MOL0     H85563   2.661   3.093   2.318  1.4632  1.8562  3.6672
  634MOL0     H85564   2.503   3.035   2.560  0.4540 -3.3748  0.5381
  634MOL0     H85565   2.658   3.113   2.548  0.6142 -0.4362 -0.0544
  634MOL0     H85566   2.665   2.895   2.638  1.6213  1.2519  0.2320
  634MOL0     H85567   2.619   2.815   2.481  0.4256 -1.1463  0.7283
  634MOL0     H85568   2.862   3.001   2.513 -0.1254 -0.8492  3.7622
  634MOL0     H85569   2.816   2.905   2.377 -1.3481 -0.0737  0.5499
  634MOL0     H85570   2.934   2.808   2.641  3.0112 -1.2558 -0.1683
  634MOL0     H85571   2.984   2.794   2.471  1.0779 -0.0435  0.6424
  634MOL0     H85572   2.430   3.666   2.208 -0.0158 -3.5339  0.0710
  634MOL0     H85573   2.322   3.870   2.128 -0.8937  0.4341 -0.6950
  634MOL0     H85574   2.028   4.099   1.924 -1.0444 -0.8231  0.2310
  634MOL0     H85575   1.935   4.330   1.856 -2.2380 -0.1863 -1.5613
  634MOL0     H85576   2.052   5.943   1.982  0.4369 -0.2427  3.9827
  634MOL0     H85577   2.120   6.053   1.775  0.9187 -0.2758  0.3952
  634MOL0     H85578   2.111   6.185   1.442  1.0328 -0.2164 -2.6715
  634MOL0     H85579   2.048   6.319   1.252  2.5256  0.4576 -1.0325
  634MOL0     H85580   2.270   6.682   1.154 -1.8849  1.2065  0.8190
  634MOL0     H85581   2.259   6.529   1.076  0.0135  0.9667 -1.7810
  634MOL0     H85582   2.075   6.609   0.938  0.5884 -2.5408  1.7071
  634MOL0     H85583   2.205   6.721   0.911 -2.5495  0.7479 -1.5212
  634MOL0     H85584   1.959   6.754   1.091  2.4854 -2.8504  0.5797
  634MOL0     H85585   1.996   6.848   0.953  0.2646  0.9674 -0.5704
  634MOL0     H85586   2.165   6.877   1.220  0.0870 -2.7413 -1.1639
  634MOL0     H85587   2.027   6.982   1.154 -1.3706 -0.0962 -3.3636
  634MOL0     H85588   2.363   7.112   0.934  0.0194 -0.4802  0.2525
  634MOL0     H85589   2.283   6.646   1.384 -1.9995  0.7789 -2.0132
  634MOL0     H85590   2.352   6.509   1.580 -1.5049 -3.0521  1.4604
  635MOL0     O85591   8.342   7.649   9.644 -0.4473 -0.3316 -0.5050
  635MOL0     C85592   8.434   7.703   9.703  0.1591  0.6231  0.1636
  635MOL0     O85593   8.563   7.698   9.661  0.0501 -0.2827 -0.5055
  635MOL0     C85594   8.611   7.614   9.566 -0.6219  1.1123 -0.7913
  635MOL0     C85595   8.725   7.638   9.497  0.3962 -0.4697 -0.6680
  635MOL0     C85596   8.783   7.539   9.419 -0.2724  0.2147 -1.1334
  635MOL0     C85597   8.731   7.416   9.400  0.4284  0.0352  0.4767
  635MOL0     O85598   8.814   7.321   9.333  0.1104 -0.4229  0.0550
  635MOL0     C85599   8.805   7.188   9.375 -0.0064  0.5474  0.0512
  635MOL0     C85600   8.902   7.108   9.292 -0.0368 -0.0711  0.6586
  635MOL0     C85601   9.026   7.164   9.225  0.5280 -0.3039 -0.3987
  635MOL0     C85602   9.101   7.056   9.144 -0.6283  0.6311  0.7220
  635MOL0     C85603   9.239   7.112   9.118 -0.9193 -0.0477 -0.9084
  635MOL0     C85604   9.322   7.159   9.245 -0.1232 -0.5865  0.0464
  635MOL0     C85605   9.321   7.062   9.364  0.4814  0.0552  0.4564
  635MOL0     C85606   9.410   6.938   9.318 -0.0986 -0.6445  0.5206
  635MOL0     N85607   9.415   6.829   9.411 -0.1912 -0.0234 -0.9394
  635MOL0     C85608   9.440   6.705   9.371 -0.6814 -0.4047 -0.5476
  635MOL0     C85609   9.445   6.629   9.488 -0.0645 -0.3975  0.6161
  635MOL0     C85610   9.495   6.495   9.509  0.1356  0.1864 -1.0696
  635MOL0     C85611   9.420   6.411   9.613  0.6870 -0.1164 -0.7310
  635MOL0     C85612   9.511   6.308   9.690 -0.2116  0.1469 -0.9910
  635MOL0     C85613   9.612   6.242   9.592 -0.3801  0.3393  0.0418
  635MOL0     O85614   9.684   6.137   9.657  0.0440 -0.1347 -0.4998
  635MOL0     C85615   9.756   6.050   9.581  0.8332  0.2487  0.7956
  635MOL0     C85616   9.809   5.930   9.642 -0.4760 -0.3379  0.9249
  635MOL0     C85617   9.874   5.833   9.561 -0.9324  0.0592  0.5903
  635MOL0     C85618   9.933   5.712   9.623  0.7649 -0.3342  0.2422
  635MOL0     C85619   9.860   5.836   9.419 -0.0567 -0.0815 -0.5911
  635MOL0     C85620   9.889   5.722   9.329  0.1204 -0.1651 -0.4308
  635MOL0     O85621   9.831   5.736   9.208 -0.5653  0.4250  0.6321
  635MOL0     C85622   9.844   5.640   9.108  0.0008  0.2508 -0.2327
  635MOL0     C85623   9.728   5.628   9.030 -0.7273 -0.3591  1.0881
  635MOL0     C85624   9.723   5.539   8.925  0.8378  0.8025  0.7110
  635MOL0     C85625   9.823   5.456   8.891 -0.8935  0.6309 -0.6029
  635MOL0     O85626   9.806   5.359   8.793 -0.4167 -0.3000  0.2010
  635MOL0     C85627   9.899   5.252   8.787 -0.3701 -0.0177 -0.1370
  635MOL0     C85628  10.010   5.286   8.691  0.6996 -0.2153  0.2004
  635MOL0     C85629   9.955   5.297   8.545 -0.3944  0.6123 -0.3866
  635MOL0     C85630  10.063   5.336   8.447 -0.2032  1.1605 -0.0769
  635MOL0     C85631  10.007   5.368   8.305  0.2466 -0.1285  0.2832
  635MOL0     C85632   9.942   5.253   8.223 -0.7142  0.6903  0.3277
  635MOL0     C85633   9.824   5.294   8.130 -0.2225  0.2198 -0.6184
  635MOL0     C85634   9.883   5.380   8.020 -0.2387 -0.7236  0.0093
  635MOL0    Cl85635   9.985   5.261   7.930  0.2861  0.1363  0.0008
  635MOL0     C85636   9.944   5.470   8.968  0.0967  0.0657  0.0629
  635MOL0     C85637   9.953   5.558   9.077 -0.7246  0.6309  0.1193
  635MOL0     O85638   9.968   5.628   9.364  0.3238 -1.5298  0.1698
  635MOL0     C85639   9.813   5.957   9.364 -0.3172 -0.3428  0.9385
  635MOL0     C85640   9.757   6.053   9.442 -0.3643 -0.3040  0.4980
  635MOL0     N85641   9.405   6.705   9.591  0.3794 -0.2592  0.4998
  635MOL0     N85642   9.380   6.819   9.539  0.6405 -0.8765  0.0014
  635MOL0     C85643   8.612   7.390   9.463 -0.8542 -0.1756 -0.1651
  635MOL0     C85644   8.556   7.482   9.550  0.6335 -0.3332 -0.0658
  635MOL0     C85645   8.407   7.782   9.822 -0.5540  0.0788 -0.0006
  635MOL0     C85646   8.277   7.838   9.838 -1.2126  0.9471  0.3518
  635MOL0     C85647   8.247   7.925   9.939  0.1630  0.7286 -0.4230
  635MOL0     C85648   8.336   7.945  10.042 -0.3997  0.8117  0.0947
  635MOL0     O85649   8.334   8.026  10.155  0.6736  0.2560 -0.4724
  635MOL0     C85650   8.214   8.105  10.176 -0.0232  0.8758  0.5589
  635MOL0     C85651   8.179   8.088  10.320  0.2283 -0.3574  0.4969
  635MOL0     C85652   8.047   8.155  10.361 -0.7468  0.6244 -0.3692
  635MOL0     C85653   8.020   8.155  10.508 -0.4143  0.2043 -0.4662
  635MOL0     C85654   7.894   8.216  10.523 -0.3838  0.2577 -0.4196
  635MOL0     C85655   7.780   8.259  10.528 -0.5663 -0.6296 -0.1977
  635MOL0     C85656   8.459   7.879  10.034 -0.3985  1.1342 -0.1654
  635MOL0     C85657   8.496   7.802   9.926 -0.6294 -0.2254  0.7781
  635MOL0     H85658   8.765   7.738   9.511 -2.1767  0.4887  0.5418
  635MOL0     H85659   8.877   7.569   9.374  1.1076 -1.1007  0.7438
  635MOL0     H85660   8.837   7.170   9.478 -0.2936 -2.7049 -0.3090
  635MOL0     H85661   8.706   7.142   9.362  0.8820 -0.9640 -2.0202
  635MOL0     H85662   8.929   7.017   9.347  0.5913  0.4056  1.1543
  635MOL0     H85663   8.841   7.067   9.211 -2.1709  1.5472  1.3455
  635MOL0     H85664   8.988   7.239   9.154  0.3439 -0.0283 -0.0104
  635MOL0     H85665   9.085   7.219   9.299  0.8541 -1.4532  0.2130
  635MOL0     H85666   9.102   6.966   9.206  0.6362 -3.5184 -4.6205
  635MOL0     H85667   9.051   7.032   9.050 -1.0970 -1.4968  1.4570
  635MOL0     H85668   9.285   7.029   9.063  0.5198 -0.5727  0.9710
  635MOL0     H85669   9.238   7.210   9.070 -1.4385  0.1344 -0.5355
  635MOL0     H85670   9.425   7.188   9.223 -0.5440  0.6967 -0.3517
  635MOL0     H85671   9.275   7.253   9.275 -1.4735 -0.7501 -1.3966
  635MOL0     H85672   9.367   7.102   9.455  0.0531  4.4026 -1.0191
  635MOL0     H85673   9.220   7.034   9.394  0.1388 -0.2775 -0.9511
  635MOL0     H85674   9.514   6.971   9.321  0.1067 -1.3276  2.3337
  635MOL0     H85675   9.379   6.899   9.221 -0.3377  2.5911 -0.8063
  635MOL0     H85676   9.448   6.672   9.268  0.8815  1.0854 -0.9306
  635MOL0     H85677   9.497   6.449   9.409  0.0578  0.4081 -1.1731
  635MOL0     H85678   9.597   6.515   9.543  0.4131  0.8680 -2.2399
  635MOL0     H85679   9.351   6.347   9.558  2.8110 -2.1870 -1.1114
  635MOL0     H85680   9.377   6.473   9.693  0.9403 -0.2834 -0.4654
  635MOL0     H85681   9.439   6.240   9.738  0.8174  0.7208  1.5077
  635MOL0     H85682   9.568   6.350   9.773 -1.6823 -0.3150  0.3111
  635MOL0     H85683   9.678   6.323   9.560 -2.0855  1.6805 -0.3006
  635MOL0     H85684   9.561   6.185   9.513 -1.2798 -0.8682  1.4372
  635MOL0     H85685   9.806   5.909   9.749 -0.2678 -0.6376  0.8731
  635MOL0     H85686   9.938   5.735   9.729  1.5221  2.0898 -0.2668
  635MOL0     H85687   9.878   5.620   9.604  3.3709 -2.1911  1.0880
  635MOL0     H85688  10.032   5.690   9.582  0.2237  0.1019 -1.3666
  635MOL0     H85689   9.640   5.689   9.049 -1.2583 -0.3108 -1.1575
  635MOL0     H85690   9.631   5.536   8.869  0.5936 -1.9817  1.1166
  635MOL0     H85691   9.938   5.210   8.881 -2.7016 -1.6884  0.1768
  635MOL0     H85692   9.832   5.174   8.751 -1.0418  0.5023 -0.0321
  635MOL0     H85693  10.048   5.387   8.712 -0.8978  0.6113 -0.6350
  635MOL0     H85694  10.093   5.216   8.689  0.7462 -0.1587 -1.2464
  635MOL0     H85695   9.877   5.373   8.539 -3.1536 -2.0550 -1.0474
  635MOL0     H85696   9.898   5.208   8.518 -3.1382  0.7797  3.8766
  635MOL0     H85697  10.123   5.424   8.475  2.8270 -0.0609 -2.1258
  635MOL0     H85698  10.132   5.252   8.434  0.0396  1.1417  1.1908
  635MOL0     H85699  10.081   5.425   8.249  3.0796 -1.1682  2.7449
  635MOL0     H85700   9.928   5.443   8.316 -0.7366 -0.9798 -0.6527
  635MOL0     H85701  10.008   5.173   8.187 -1.3242 -0.0428  0.8032
  635MOL0     H85702   9.892   5.192   8.299  1.4569 -3.0615 -0.9618
  635MOL0     H85703   9.761   5.355   8.195  1.4855  1.0604  0.3182
  635MOL0     H85704   9.782   5.198   8.099  4.3898 -2.5150  0.5661
  635MOL0     H85705   9.945   5.465   8.051 -0.0801 -1.1184  0.8047
  635MOL0     H85706   9.805   5.427   7.959 -1.5409  1.6150  3.1988
  635MOL0     H85707  10.041   5.424   8.949  0.0656 -0.6449  1.4648
  635MOL0     H85708  10.048   5.566   9.130 -0.0036 -2.5913 -0.5244
  635MOL0     H85709   9.806   5.960   9.256 -3.8542 -1.6070  1.0099
  635MOL0     H85710   9.707   6.137   9.393  0.6968  0.1523  0.1588
  635MOL0     H85711   8.578   7.289   9.446 -0.1928 -0.5736  0.8204
  635MOL0     H85712   8.466   7.453   9.603 -0.5368  0.6978 -1.3985
  635MOL0     H85713   8.192   7.814   9.774 -3.0375  1.7789  2.3488
  635MOL0     H85714   8.150   7.972   9.932 -0.2706 -0.1838 -0.7541
  635MOL0     H85715   8.231   8.211  10.155 -1.7379  1.5773  2.4081
  635MOL0     H85716   8.126   8.068  10.120  0.7869  2.0269 -1.5880
  635MOL0     H85717   8.253   8.143  10.379  1.3449 -1.0882 -0.1993
  635MOL0     H85718   8.178   7.983  10.349 -3.4987 -0.3686  0.8057
  635MOL0     H85719   7.963   8.093  10.329 -0.7956  0.2612  0.4478
  635MOL0     H85720   8.042   8.255  10.318 -0.9202  1.5286  1.6510
  635MOL0     H85721   8.094   8.224  10.552 -0.8756 -0.0632  0.7841
  635MOL0     H85722   8.020   8.054  10.548 -1.1400  0.1791 -0.5174
  635MOL0     H85723   7.680   8.293  10.542 -0.7015 -0.4857 -1.4416
  635MOL0     H85724   8.529   7.892  10.115 -0.8305  0.2447  0.3637
  635MOL0     H85725   8.587   7.742   9.924  0.6838  1.6484 -1.8747
  636MOL0     O85726   6.570   8.145   2.519  0.0727  0.6944  0.5086
  636MOL0     C85727   6.456   8.139   2.575  0.6452  0.4375  0.8448
  636MOL0     O85728   6.424   8.051   2.669  0.3260  0.1078  0.5464
  636MOL0     C85729   6.516   7.967   2.727 -0.1973  0.2241  0.8150
  636MOL0     C85730   6.638   7.917   2.671  0.1825 -0.4903  0.1653
  636MOL0     C85731   6.724   7.853   2.753 -0.6955  0.1040 -0.8845
  636MOL0     C85732   6.689   7.818   2.883 -0.6260  0.4928 -0.6383
  636MOL0     O85733   6.783   7.747   2.963 -0.2913  0.6194  0.0991
  636MOL0     C85734   6.760   7.715   3.103 -0.3569 -0.0186 -0.2831
  636MOL0     C85735   6.832   7.822   3.183 -0.6764  0.3571 -0.3362
  636MOL0     C85736   6.889   7.778   3.321 -0.2303 -0.1853 -0.1474
  636MOL0     C85737   6.770   7.752   3.415  0.3452  0.6813  0.8350
  636MOL0     C85738   6.815   7.671   3.533 -0.3906  0.3652 -0.4853
  636MOL0     C85739   6.686   7.651   3.626 -1.2581 -0.5766 -0.7153
  636MOL0     C85740   6.714   7.558   3.741 -0.2988  0.7740 -0.3599
  636MOL0     C85741   6.632   7.594   3.860  0.3983 -0.0991  1.0107
  636MOL0     N85742   6.640   7.489   3.956  0.5261  0.6039 -1.0777
  636MOL0     C85743   6.686   7.353   3.949  0.2699  0.2868  0.6991
  636MOL0     C85744   6.717   7.319   4.076  0.1414 -0.4137  0.6490
  636MOL0     C85745   6.780   7.185   4.114 -0.6535 -0.7433  0.8782
  636MOL0     C85746   6.683   7.102   4.205 -0.3664 -0.5089  0.9682
  636MOL0     C85747   6.742   6.961   4.240 -0.8555  0.1451 -0.0426
  636MOL0     C85748   6.638   6.862   4.292  0.3327  0.2886 -0.2095
  636MOL0     O85749   6.566   6.901   4.399 -0.7362 -0.2148 -0.4171
  636MOL0     C85750   6.524   6.796   4.471  0.7859 -1.1972  0.1739
  636MOL0     C85751   6.390   6.774   4.463  0.3343 -0.1908  0.0226
  636MOL0     C85752   6.321   6.687   4.551  0.0659  0.0772 -0.0864
  636MOL0     C85753   6.172   6.664   4.529  0.4545  0.0894  0.6721
  636MOL0     C85754   6.398   6.602   4.636  0.2653  0.1332 -0.1525
  636MOL0     C85755   6.339   6.513   4.730 -0.2847  0.0428 -0.7328
  636MOL0     O85756   6.218   6.544   4.784  1.0235 -0.2014  1.0709
  636MOL0     C85757   6.158   6.462   4.874 -0.3657 -0.8533 -0.1510
  636MOL0     C85758   6.136   6.513   5.004 -0.4547  0.3649  0.4606
  636MOL0     C85759   6.058   6.438   5.091 -0.0389 -0.9599  0.2131
  636MOL0     C85760   5.999   6.311   5.065  0.1296 -0.6309 -0.2120
  636MOL0     O85761   5.917   6.243   5.148  0.1969 -0.5835 -0.6686
  636MOL0     C85762   5.937   6.254   5.287  0.6259 -0.7220 -1.2430
  636MOL0     C85763   5.806   6.207   5.351 -0.0848 -1.2254 -0.3037
  636MOL0     C85764   5.695   6.315   5.342 -0.1795 -0.5712  0.7354
  636MOL0     C85765   5.584   6.275   5.437 -0.3552 -0.3273  0.2200
  636MOL0     C85766   5.490   6.386   5.470 -0.2400  0.7489  0.0717
  636MOL0     C85767   5.386   6.348   5.579 -0.8185  0.4558  0.1545
  636MOL0     C85768   5.328   6.473   5.644 -0.8178 -0.9822  0.1508
  636MOL0     C85769   5.233   6.566   5.561 -0.1217 -0.5188 -0.4501
  636MOL0    Cl85770   5.087   6.478   5.502  0.0733 -0.1639  0.1463
  636MOL0     C85771   6.025   6.255   4.940  0.5080  0.7589  0.0236
  636MOL0     C85772   6.110   6.332   4.847  0.4309 -0.3144  0.2991
  636MOL0     O85773   6.409   6.422   4.778  0.4132  0.9872  0.9158
  636MOL0     C85774   6.538   6.619   4.642  0.3269  0.1093 -0.3467
  636MOL0     C85775   6.595   6.723   4.573  0.4275  0.5971 -0.6037
  636MOL0     N85776   6.698   7.430   4.150  0.4008  0.4259  0.0886
  636MOL0     N85777   6.650   7.523   4.082 -0.5092 -0.0754 -0.1597
  636MOL0     C85778   6.565   7.856   2.939  0.2210 -0.2596 -1.0907
  636MOL0     C85779   6.480   7.919   2.850 -0.3333  0.3524  0.5262
  636MOL0     C85780   6.378   8.262   2.562  0.6135 -0.2333 -1.0613
  636MOL0     C85781   6.407   8.358   2.464  0.3378  0.7073 -0.1255
  636MOL0     C85782   6.348   8.482   2.459 -0.3982  0.0176 -0.6771
  636MOL0     C85783   6.248   8.508   2.555 -0.4995  0.0284  1.0137
  636MOL0     O85784   6.190   8.634   2.533  0.2935  0.1627  0.5633
  636MOL0     C85785   6.117   8.685   2.649  0.0663 -0.0445  0.9078
  636MOL0     C85786   6.135   8.839   2.654  0.4078 -0.0298 -0.0152
  636MOL0     C85787   6.033   8.894   2.752  0.0842 -0.3558 -0.7043
  636MOL0     C85788   5.900   8.933   2.691  0.3037 -0.4939 -0.2986
  636MOL0     C85789   5.813   8.966   2.803  0.0967 -0.8638 -0.0688
  636MOL0     C85790   5.742   8.992   2.895  0.3268 -0.4176 -0.4691
  636MOL0     C85791   6.199   8.412   2.644 -0.0405 -0.3872  0.5906
  636MOL0     C85792   6.274   8.297   2.656 -0.2025 -0.0014  0.4061
  636MOL0     H85793   6.673   7.925   2.569  0.5464 -0.2688  0.3087
  636MOL0     H85794   6.823   7.827   2.717 -1.6289 -0.5656 -3.0953
  636MOL0     H85795   6.657   7.698   3.137  0.9167 -1.4863  3.2597
  636MOL0     H85796   6.819   7.624   3.115 -0.1811 -0.2329 -2.4405
  636MOL0     H85797   6.924   7.858   3.136 -0.1919 -0.1336  0.2228
  636MOL0     H85798   6.768   7.911   3.186 -3.1181 -1.2410 -1.1320
  636MOL0     H85799   6.953   7.690   3.310 -1.5528 -1.1295 -0.6619
  636MOL0     H85800   6.943   7.863   3.364 -1.8217  0.9506 -0.2926
  636MOL0     H85801   6.728   7.848   3.447 -0.4429  0.2505  1.1309
  636MOL0     H85802   6.697   7.686   3.369  1.6417 -0.3587  0.2122
  636MOL0     H85803   6.843   7.570   3.504 -0.7351 -0.3627  1.5676
  636MOL0     H85804   6.895   7.724   3.586 -1.5583 -1.5074  3.4956
  636MOL0     H85805   6.647   7.749   3.655 -0.8079 -0.2524 -1.1861
  636MOL0     H85806   6.615   7.601   3.560  1.9302 -1.1658 -4.0442
  636MOL0     H85807   6.697   7.456   3.705  1.5447 -0.6605  2.4285
  636MOL0     H85808   6.817   7.564   3.777 -0.6131 -1.1410  0.9688
  636MOL0     H85809   6.530   7.600   3.822  1.3108  1.5128 -1.4688
  636MOL0     H85810   6.652   7.696   3.896 -0.4379  2.5405 -4.8875
  636MOL0     H85811   6.694   7.297   3.857 -2.6852  0.8329  0.0237
  636MOL0     H85812   6.794   7.127   4.023  1.0480  2.2619 -0.9507
  636MOL0     H85813   6.874   7.188   4.170  0.1141  0.1167 -0.4054
  636MOL0     H85814   6.594   7.092   4.142 -1.3218 -0.2712  2.2190
  636MOL0     H85815   6.657   7.154   4.298  1.2088  1.7258  0.2320
  636MOL0     H85816   6.809   6.982   4.323 -1.3408 -0.0018  0.3952
  636MOL0     H85817   6.787   6.929   4.146 -0.6298  2.3097 -0.7105
  636MOL0     H85818   6.690   6.771   4.322 -1.9922 -0.5482  1.6005
  636MOL0     H85819   6.565   6.846   4.212 -3.2694  1.7720  2.5140
  636MOL0     H85820   6.330   6.824   4.387  1.2409 -2.1725 -2.1285
  636MOL0     H85821   6.141   6.566   4.492  1.2166 -0.5150  1.6016
  636MOL0     H85822   6.112   6.687   4.618  1.5601  0.4287  1.3459
  636MOL0     H85823   6.141   6.742   4.459 -0.6458  1.1959  2.2893
  636MOL0     H85824   6.180   6.609   5.026  2.3332 -0.0502 -2.5959
  636MOL0     H85825   6.024   6.478   5.186  0.1958  0.5217 -0.3003
  636MOL0     H85826   6.019   6.185   5.312  0.8459  0.7690  2.6883
  636MOL0     H85827   5.954   6.351   5.333 -2.1319 -1.4787  1.6786
  636MOL0     H85828   5.768   6.122   5.294 -1.8633 -0.6791  0.0173
  636MOL0     H85829   5.828   6.189   5.457 -0.1342  1.1465  0.1681
  636MOL0     H85830   5.659   6.317   5.239  1.0825 -1.8587  0.2457
  636MOL0     H85831   5.727   6.419   5.356 -4.1410  1.2139 -1.5483
  636MOL0     H85832   5.533   6.180   5.417 -0.6234 -0.6714  2.3693
  636MOL0     H85833   5.636   6.257   5.531  0.5850 -1.0232 -0.4047
  636MOL0     H85834   5.435   6.424   5.383  0.3653  2.6004  0.4607
  636MOL0     H85835   5.542   6.473   5.511 -0.3931  0.6508  0.4812
  636MOL0     H85836   5.310   6.280   5.541 -0.9574  1.6027 -1.7470
  636MOL0     H85837   5.436   6.295   5.660  0.6556  1.4948 -0.0277
  636MOL0     H85838   5.413   6.531   5.679  0.6159 -0.4671 -3.7146
  636MOL0     H85839   5.276   6.430   5.730 -1.5791  0.6839  0.5610
  636MOL0     H85840   5.285   6.614   5.477 -1.1878  0.2408 -0.6931
  636MOL0     H85841   5.199   6.643   5.631 -1.2385 -1.7897  0.4552
  636MOL0     H85842   5.981   6.159   4.916  0.6566  1.2834 -2.6622
  636MOL0     H85843   6.124   6.288   4.749 -3.5038 -0.1954 -0.4726
  636MOL0     H85844   6.601   6.561   4.709 -0.4676  0.9958  1.2344
  636MOL0     H85845   6.691   6.765   4.603  1.4645 -1.4605 -0.8749
  636MOL0     H85846   6.525   7.823   3.034  1.1758 -5.0409 -2.0827
  636MOL0     H85847   6.377   7.933   2.880 -0.3195  1.3389  0.1363
  636MOL0     H85848   6.486   8.329   2.394  2.2212 -1.0120  2.4955
  636MOL0     H85849   6.382   8.558   2.389  0.1607  2.3287  1.9345
  636MOL0     H85850   6.012   8.657   2.636  0.0659  1.1821 -3.2608
  636MOL0     H85851   6.145   8.640   2.744 -3.0615 -0.6933  1.6270
  636MOL0     H85852   6.113   8.885   2.557 -0.2209 -1.0981 -0.3942
  636MOL0     H85853   6.235   8.864   2.689  0.1127  1.7805 -0.3293
  636MOL0     H85854   6.080   8.985   2.792  1.4419 -1.6840  0.8381
  636MOL0     H85855   6.028   8.828   2.839  3.0043  0.3363  0.1023
  636MOL0     H85856   5.860   8.842   2.644  1.9811 -0.5983 -1.5982
  636MOL0     H85857   5.910   9.017   2.621 -2.4853  0.8499  0.7386
  636MOL0     H85858   5.676   9.007   2.978  0.1083  1.0192 -0.8749
  636MOL0     H85859   6.117   8.427   2.713 -0.6691 -1.9511  0.2358
  636MOL0     H85860   6.255   8.243   2.748  2.0629  0.4767  1.2305
  637MOL0     O85861   1.682   4.461   3.754 -0.6694 -0.8689  0.0850
  637MOL0     C85862   1.746   4.556   3.708 -1.3092  0.2373 -0.2321
  637MOL0     O85863   1.697   4.679   3.672  0.0239 -0.0409  0.0690
  637MOL0     C85864   1.567   4.693   3.682 -0.4755  0.3018  0.1979
  637MOL0     C85865   1.482   4.620   3.603  0.4537 -0.0503  0.5022
  637MOL0     C85866   1.340   4.637   3.618  0.3974 -0.9565 -1.1934
  637MOL0     C85867   1.300   4.722   3.717 -0.2685  0.7562  1.1755
  637MOL0     O85868   1.168   4.743   3.723 -0.1109 -0.1541 -0.4049
  637MOL0     C85869   1.099   4.795   3.610  0.3344 -0.4607 -0.1056
  637MOL0     C85870   1.091   4.958   3.607  0.5861 -0.7699 -0.7023
  637MOL0     C85871   1.068   5.020   3.742  0.3960  0.3734 -0.1873
  637MOL0     C85872   0.916   4.994   3.778  0.6062 -0.0324 -0.6057
  637MOL0     C85873   0.881   5.041   3.912  0.3451 -0.7783  0.1485
  637MOL0     C85874   0.732   5.044   3.921  0.1538 -0.4075  0.2149
  637MOL0     C85875   0.679   5.118   4.047 -0.4309  0.0713  1.4018
  637MOL0     C85876   0.528   5.123   4.050 -0.1948  0.4179  0.5108
  637MOL0     N85877   0.479   4.991   4.070  0.1278 -0.0147  0.3383
  637MOL0     C85878   0.455   4.913   4.184  0.1488  0.3799 -0.1551
  637MOL0     C85879   0.413   4.795   4.142  0.1978 -0.3025  0.1026
  637MOL0     C85880   0.363   4.670   4.213 -1.5118  0.4795  1.4022
  637MOL0     C85881   0.215   4.673   4.225  0.2599  0.5838 -0.5582
  637MOL0     C85882   0.125   4.663   4.105  0.1119 -0.0494  0.5751
  637MOL0     C85883  -0.024   4.627   4.118  0.1692 -0.0266 -0.0881
  637MOL0     O85884  -0.085   4.679   4.240  0.6553  0.3357  0.5441
  637MOL0     C85885  -0.223   4.662   4.257 -0.5009 -0.7620 -0.3874
  637MOL0     C85886  -0.319   4.630   4.165  1.1320 -0.0871  0.0414
  637MOL0     C85887  -0.463   4.652   4.180  0.1148 -0.0877  0.1307
  637MOL0     C85888  -0.544   4.626   4.059  0.2405  0.3786 -0.1971
  637MOL0     C85889  -0.514   4.687   4.306 -0.4688  0.1158 -0.2115
  637MOL0     C85890  -0.664   4.685   4.343 -0.5334 -0.1584  0.2140
  637MOL0     O85891  -0.690   4.718   4.471 -0.1399 -0.3058 -0.0197
  637MOL0     C85892  -0.827   4.713   4.510 -0.0548  0.9427 -0.4458
  637MOL0     C85893  -0.943   4.741   4.433  0.3450 -0.0089 -0.0996
  637MOL0     C85894  -1.078   4.706   4.479  0.0726 -0.4120  1.0104
  637MOL0     C85895  -1.100   4.675   4.614 -0.1676  0.5979 -0.3269
  637MOL0     O85896  -1.217   4.668   4.690 -0.1171 -0.6416 -0.6315
  637MOL0     C85897  -1.329   4.677   4.606  0.3144  0.2153 -0.2330
  637MOL0     C85898  -1.461   4.679   4.699  0.5147 -0.6797  0.2727
  637MOL0     C85899  -1.458   4.774   4.816 -0.3167  0.4227  0.7461
  637MOL0     C85900  -1.601   4.793   4.865 -0.1438  0.0868  0.5986
  637MOL0     C85901  -1.605   4.904   4.971  0.5116 -0.0800  0.0170
  637MOL0     C85902  -1.530   4.863   5.096 -0.2934  0.7032 -0.2428
  637MOL0     C85903  -1.558   4.974   5.208  0.2136 -0.1881  0.2770
  637MOL0     C85904  -1.456   4.959   5.320 -0.2273  0.4689 -0.4643
  637MOL0    Cl85905  -1.486   4.826   5.443  0.0186 -0.0790 -0.1817
  637MOL0     C85906  -0.985   4.671   4.688  0.1877 -0.1427 -0.1634
  637MOL0     C85907  -0.855   4.692   4.646 -0.0074 -1.1301 -0.6937
  637MOL0     O85908  -0.747   4.632   4.266  0.3739  0.3472  0.0821
  637MOL0     C85909  -0.415   4.713   4.407  0.3372 -0.7859 -0.9431
  637MOL0     C85910  -0.272   4.701   4.384 -0.0638 -0.2922 -0.9550
  637MOL0     N85911   0.416   4.799   4.005 -0.2572 -0.0930 -0.0424
  637MOL0     N85912   0.458   4.915   3.962 -0.3899  0.2519  0.2914
  637MOL0     C85913   1.386   4.797   3.801 -0.4354 -0.1014  0.6670
  637MOL0     C85914   1.521   4.781   3.771  0.1945 -0.4557  0.0676
  637MOL0     C85915   1.883   4.525   3.682 -0.4471 -0.4492 -0.0561
  637MOL0     C85916   1.951   4.434   3.760 -0.0020  0.7209 -0.4417
  637MOL0     C85917   2.095   4.428   3.763 -0.3177  0.4038 -0.3358
  637MOL0     C85918   2.172   4.504   3.682 -0.3860  0.8033  0.1960
  637MOL0     O85919   2.302   4.465   3.684 -0.4177  0.3786 -0.3663
  637MOL0     C85920   2.401   4.534   3.597  0.0590 -0.1470  0.0056
  637MOL0     C85921   2.380   4.483   3.446  0.2313 -0.5464  0.2666
  637MOL0     C85922   2.464   4.536   3.335 -0.0647 -0.6694  0.1770
  637MOL0     C85923   2.539   4.669   3.362  0.4279 -0.7588 -0.8568
  637MOL0     C85924   2.436   4.775   3.374 -0.8633  0.0004 -0.2493
  637MOL0     C85925   2.356   4.869   3.395 -0.3062  0.3082 -0.7815
  637MOL0     C85926   2.110   4.594   3.605  0.0954 -0.2207 -0.5201
  637MOL0     C85927   1.969   4.605   3.603 -0.2369 -0.1470  0.4059
  637MOL0     H85928   1.511   4.555   3.522  4.1014 -1.5692  2.7995
  637MOL0     H85929   1.264   4.580   3.565  1.0811 -2.3659 -0.7036
  637MOL0     H85930   1.134   4.750   3.517 -1.4156 -0.3187 -0.8684
  637MOL0     H85931   0.997   4.759   3.629  1.6467 -3.7126  1.5681
  637MOL0     H85932   1.183   5.007   3.575  0.6062 -1.1602 -1.2484
  637MOL0     H85933   1.009   4.992   3.544 -1.4768  2.3216  3.1944
  637MOL0     H85934   1.133   4.971   3.816  0.7841  0.2789 -0.5915
  637MOL0     H85935   1.094   5.127   3.743 -0.0258  0.4819  1.2150
  637MOL0     H85936   0.854   5.051   3.707 -1.0178  1.6907  2.0170
  637MOL0     H85937   0.887   4.889   3.772 -1.3123  0.1542  2.7834
  637MOL0     H85938   0.929   4.960   3.969 -2.1811 -5.7346 -3.8761
  637MOL0     H85939   0.928   5.138   3.931  0.1035 -1.1491  3.0045
  637MOL0     H85940   0.688   5.090   3.832 -2.2120 -2.0641  0.4195
  637MOL0     H85941   0.694   4.941   3.923 -3.8864  0.8820  0.4397
  637MOL0     H85942   0.723   5.066   4.133  1.4807 -1.4109 -0.3512
  637MOL0     H85943   0.712   5.222   4.041  2.7678 -0.7793  1.9582
  637MOL0     H85944   0.485   5.170   3.961 -3.0366 -1.4502  0.7598
  637MOL0     H85945   0.502   5.184   4.137  0.7386  0.3371  0.8612
  637MOL0     H85946   0.458   4.938   4.290  0.3258  2.9775 -0.7065
  637MOL0     H85947   0.397   4.584   4.153  0.3269  2.0733  0.0288
  637MOL0     H85948   0.394   4.668   4.318  1.4748  0.1219  0.6102
  637MOL0     H85949   0.201   4.761   4.288 -0.2029 -0.8126  1.3816
  637MOL0     H85950   0.201   4.585   4.289 -0.7325  2.0991  1.3950
  637MOL0     H85951   0.169   4.586   4.041  1.5929  1.3265 -0.1356
  637MOL0     H85952   0.123   4.752   4.041  1.6195 -1.6561 -1.9185
  637MOL0     H85953  -0.027   4.521   4.142  0.4916  0.1874  0.9586
  637MOL0     H85954  -0.080   4.650   4.027 -1.0904  0.2312  0.7235
  637MOL0     H85955  -0.291   4.605   4.063  3.3425  2.0827  0.0163
  637MOL0     H85956  -0.614   4.709   4.050 -1.4938 -0.6767  2.3750
  637MOL0     H85957  -0.492   4.602   3.965 -1.5264 -1.1100 -0.8597
  637MOL0     H85958  -0.610   4.542   4.085  1.2876  0.1812  2.0080
  637MOL0     H85959  -0.955   4.765   4.328 -1.4226 -0.2748  0.0027
  637MOL0     H85960  -1.155   4.742   4.412  1.4681  0.5560 -0.1600
  637MOL0     H85961  -1.318   4.763   4.539  0.0961  0.6193  0.2407
  637MOL0     H85962  -1.330   4.587   4.544  1.0544  0.0773 -0.0472
  637MOL0     H85963  -1.542   4.696   4.629 -1.3352 -1.6299  2.0665
  637MOL0     H85964  -1.485   4.585   4.750 -1.8475 -1.4035 -2.0182
  637MOL0     H85965  -1.420   4.871   4.783 -0.0328  0.4652  1.1893
  637MOL0     H85966  -1.396   4.746   4.902 -1.0448  2.6227  2.0768
  637MOL0     H85967  -1.669   4.808   4.781 -0.2641 -0.2393  0.6368
  637MOL0     H85968  -1.618   4.696   4.913  0.6230  0.6177  2.0146
  637MOL0     H85969  -1.708   4.916   5.007  0.5905  2.0866 -0.3708
  637MOL0     H85970  -1.562   4.995   4.930  4.1253 -0.8263  1.7128
  637MOL0     H85971  -1.552   4.764   5.136 -0.0136 -0.7331 -3.3841
  637MOL0     H85972  -1.428   4.870   5.057 -0.0198 -1.6080 -0.0337
  637MOL0     H85973  -1.661   4.963   5.243 -0.2993 -0.9375 -1.3967
  637MOL0     H85974  -1.539   5.076   5.175  1.3313 -0.6032 -0.3935
  637MOL0     H85975  -1.456   5.054   5.374 -2.0105 -1.4941  3.3734
  637MOL0     H85976  -1.358   4.945   5.273 -0.4531  2.3144 -1.5803
  637MOL0     H85977  -1.005   4.654   4.794 -0.9508  0.2580 -0.3046
  637MOL0     H85978  -0.773   4.678   4.715 -1.7136 -0.4018  1.6210
  637MOL0     H85979  -0.442   4.748   4.506  0.3165  1.0523 -1.5634
  637MOL0     H85980  -0.196   4.736   4.453 -1.9471  1.3155  0.3989
  637MOL0     H85981   1.357   4.856   3.887 -1.2078  1.0217 -0.3330
  637MOL0     H85982   1.599   4.837   3.820  0.9760 -1.3922 -0.0636
  637MOL0     H85983   1.904   4.349   3.807  0.3499 -2.0257 -4.5596
  637MOL0     H85984   2.133   4.350   3.829 -0.4284  1.2290  0.7336
  637MOL0     H85985   2.393   4.643   3.603  0.7092 -0.1105  0.3259
  637MOL0     H85986   2.496   4.512   3.648  1.5502 -0.9856 -2.8821
  637MOL0     H85987   2.276   4.509   3.424 -0.3170 -1.8819  1.1700
  637MOL0     H85988   2.390   4.374   3.437  1.7866 -0.3162 -1.2569
  637MOL0     H85989   2.395   4.547   3.250  2.0825 -1.9225 -1.8627
  637MOL0     H85990   2.535   4.459   3.304 -2.4836 -2.5899 -0.8975
  637MOL0     H85991   2.603   4.699   3.278  0.3097 -0.7580 -0.9458
  637MOL0     H85992   2.594   4.659   3.456 -1.1276  1.4436  0.3575
  637MOL0     H85993   2.290   4.953   3.403 -0.2745  0.2200  0.6316
  637MOL0     H85994   2.172   4.651   3.536  1.6286 -0.3138  0.6940
  637MOL0     H85995   1.933   4.691   3.548 -1.6432  1.2141  3.2310
  638MOL0     O85996   0.403   2.613   7.794  0.4825  0.1806 -0.0802
  638MOL0     C85997   0.513   2.587   7.842 -0.7027 -0.4688  0.7705
  638MOL0     O85998   0.569   2.459   7.865 -1.2829 -1.1036 -0.6985
  638MOL0     C85999   0.480   2.355   7.851  0.6076 -0.1593 -0.1636
  638MOL0     C86000   0.376   2.332   7.944 -0.2713  0.1227 -0.2209
  638MOL0     C86001   0.268   2.239   7.919 -0.5485 -0.0627 -0.7864
  638MOL0     C86002   0.266   2.175   7.792  0.1032  1.2304 -0.0621
  638MOL0     O86003   0.151   2.099   7.763  0.0551  0.1558  0.3400
  638MOL0     C86004   0.156   2.002   7.661  0.0725 -0.0203  0.6540
  638MOL0     C86005   0.138   2.048   7.514  0.6447  0.5433 -0.0486
  638MOL0     C86006  -0.004   2.095   7.478  0.4553 -1.2056  0.2902
  638MOL0     C86007  -0.004   2.168   7.338  0.0027  0.7597  0.2258
  638MOL0     C86008  -0.100   2.104   7.237 -0.1928 -0.2595  0.9786
  638MOL0     C86009  -0.246   2.101   7.286 -1.0424  0.1050  0.2749
  638MOL0     C86010  -0.312   2.238   7.263  0.2825  0.8450  0.1144
  638MOL0     C86011  -0.397   2.281   7.380  0.0408 -0.2991 -0.1600
  638MOL0     N86012  -0.334   2.280   7.508 -0.2678  0.3795  0.4410
  638MOL0     C86013  -0.269   2.388   7.556  0.7239 -0.1930  0.0387
  638MOL0     C86014  -0.245   2.367   7.678  0.1857 -0.3696 -0.0581
  638MOL0     C86015  -0.169   2.470   7.758  0.3213  1.1891 -0.7209
  638MOL0     C86016  -0.023   2.438   7.759  0.3080 -0.1259 -0.7809
  638MOL0     C86017   0.046   2.462   7.626  0.5120  0.7105 -0.0084
  638MOL0     C86018   0.112   2.595   7.606  0.4252 -0.1954 -0.0683
  638MOL0     O86019   0.029   2.714   7.585  0.0180 -0.7804 -0.0635
  638MOL0     C86020  -0.066   2.690   7.489 -0.2014 -0.7864  0.2647
  638MOL0     C86021  -0.180   2.757   7.498  0.0911 -0.4511  0.2186
  638MOL0     C86022  -0.286   2.747   7.405 -0.1514  0.7962 -0.2011
  638MOL0     C86023  -0.418   2.809   7.428  0.6428 -0.2751  0.2778
  638MOL0     C86024  -0.263   2.669   7.292  0.3628 -0.3921  0.7016
  638MOL0     C86025  -0.367   2.654   7.175  0.4671 -0.1206 -0.2213
  638MOL0     O86026  -0.490   2.716   7.186  0.1694  0.2053 -0.5918
  638MOL0     C86027  -0.585   2.734   7.081 -0.3867  0.6867  0.1512
  638MOL0     C86028  -0.598   2.854   7.006  0.2006  0.1757 -0.3384
  638MOL0     C86029  -0.700   2.866   6.910 -0.4211 -0.9378  0.2923
  638MOL0     C86030  -0.784   2.756   6.881  0.2430 -1.1105  0.3073
  638MOL0     O86031  -0.880   2.762   6.784 -0.9057  0.1138 -0.6636
  638MOL0     C86032  -0.813   2.756   6.660  0.5113 -0.0416  0.2350
  638MOL0     C86033  -0.920   2.695   6.567 -1.1132 -0.4261  0.4960
  638MOL0     C86034  -0.848   2.641   6.445 -0.4426 -0.7781  0.8307
  638MOL0     C86035  -0.930   2.605   6.322  0.8024  0.2902 -0.2896
  638MOL0     C86036  -1.055   2.517   6.333  0.7303 -0.0787 -0.5307
  638MOL0     C86037  -1.084   2.466   6.194  0.2193 -0.0599 -0.1866
  638MOL0     C86038  -1.222   2.403   6.207 -0.0301  0.2360 -0.7827
  638MOL0     C86039  -1.225   2.294   6.098  0.4397 -0.2519 -0.9188
  638MOL0    Cl86040  -1.402   2.232   6.093 -0.5909  0.1822  0.1058
  638MOL0     C86041  -0.766   2.645   6.962 -0.1165  1.5647  0.2045
  638MOL0     C86042  -0.665   2.625   7.055  0.3805  0.2319  0.3832
  638MOL0     O86043  -0.328   2.601   7.073 -0.4649  0.3669 -0.2112
  638MOL0     C86044  -0.139   2.608   7.271  0.3278 -0.3003 -0.1325
  638MOL0     C86045  -0.042   2.618   7.369 -0.4090 -0.5674 -0.3622
  638MOL0     N86046  -0.288   2.239   7.709 -0.0034  0.1120  0.0928
  638MOL0     N86047  -0.339   2.181   7.603  0.3438  0.5414  0.3575
  638MOL0     C86048   0.379   2.187   7.703  0.4927  0.2440 -0.1118
  638MOL0     C86049   0.487   2.274   7.739 -0.0203 -0.5260  1.6774
  638MOL0     C86050   0.622   2.694   7.852 -0.1445 -0.2973  0.7279
  638MOL0     C86051   0.582   2.830   7.844  0.7514  0.4328  0.8962
  638MOL0     C86052   0.682   2.921   7.847  0.6954 -0.2076 -0.4047
  638MOL0     C86053   0.810   2.880   7.886  1.0821  0.5097  0.2211
  638MOL0     O86054   0.888   2.984   7.908  0.1522 -0.8931 -0.2890
  638MOL0     C86055   0.993   3.025   7.810  0.1172  0.2992  0.2494
  638MOL0     C86056   0.931   3.094   7.678  0.2767 -0.3110 -0.2422
  638MOL0     C86057   1.034   3.140   7.559 -0.0269  0.3215 -0.4073
  638MOL0     C86058   0.959   3.191   7.439  0.0698 -0.5694 -0.6965
  638MOL0     C86059   1.033   3.295   7.366  0.1466  1.1513 -0.8676
  638MOL0     C86060   1.093   3.363   7.285 -0.1605 -0.0140  0.6051
  638MOL0     C86061   0.851   2.746   7.898  0.7263  0.1549 -0.3301
  638MOL0     C86062   0.753   2.654   7.878 -1.3185  0.8996 -0.2966
  638MOL0     H86063   0.362   2.389   8.036 -1.5623  0.5270 -0.6466
  638MOL0     H86064   0.177   2.249   7.976 -0.6427 -0.6166 -0.8376
  638MOL0     H86065   0.237   1.930   7.678 -0.8006 -0.4232  3.7361
  638MOL0     H86066   0.064   1.943   7.666 -1.0768  1.1039 -3.3523
  638MOL0     H86067   0.216   2.120   7.485 -0.7873  1.4566 -1.8957
  638MOL0     H86068   0.157   1.952   7.466 -0.4054  0.1503  0.2889
  638MOL0     H86069  -0.059   2.001   7.471  0.4971 -1.5067  3.0014
  638MOL0     H86070  -0.056   2.150   7.557  1.7497 -0.2896  0.5384
  638MOL0     H86071  -0.021   2.275   7.352  2.2063  1.2983 -0.7121
  638MOL0     H86072   0.097   2.156   7.297  0.5088 -2.2586  2.0501
  638MOL0     H86073  -0.089   2.157   7.141  0.1229 -0.8002  0.7099
  638MOL0     H86074  -0.068   2.002   7.215 -0.6277 -0.2921  0.4669
  638MOL0     H86075  -0.313   2.027   7.242 -1.7165 -1.3083  3.3669
  638MOL0     H86076  -0.243   2.075   7.392 -2.1350 -0.6474  0.1439
  638MOL0     H86077  -0.236   2.315   7.246 -0.2552  1.6457  1.1851
  638MOL0     H86078  -0.378   2.233   7.175  0.9008  2.2402 -0.4657
  638MOL0     H86079  -0.477   2.207   7.387 -1.6577  1.5110  0.5836
  638MOL0     H86080  -0.450   2.375   7.366 -1.6243 -1.1794 -0.0456
  638MOL0     H86081  -0.241   2.478   7.502  0.7579 -0.5304 -0.5112
  638MOL0     H86082  -0.196   2.571   7.726 -7.7991 -0.1719 -0.4095
  638MOL0     H86083  -0.201   2.478   7.862  1.7424  2.4961 -0.3473
  638MOL0     H86084  -0.012   2.334   7.791 -1.8281 -0.2444 -0.3356
  638MOL0     H86085   0.026   2.504   7.831 -0.2142  1.0818 -1.4989
  638MOL0     H86086  -0.013   2.436   7.537 -1.5275  0.3113  1.3863
  638MOL0     H86087   0.126   2.387   7.627 -1.8881 -2.0866 -0.6673
  638MOL0     H86088   0.186   2.578   7.526 -0.3609 -2.3824 -0.3863
  638MOL0     H86089   0.160   2.615   7.702 -2.4361  0.7171  1.2850
  638MOL0     H86090  -0.205   2.812   7.588 -2.2049 -0.2546 -0.4924
  638MOL0     H86091  -0.435   2.889   7.357  2.5092  0.6802  0.8278
  638MOL0     H86092  -0.494   2.730   7.433  1.8342 -1.4621  0.2630
  638MOL0     H86093  -0.419   2.863   7.524  0.9047 -1.4815  0.9847
  638MOL0     H86094  -0.542   2.940   7.041 -0.4395 -0.5905  2.9647
  638MOL0     H86095  -0.701   2.961   6.858  1.7558 -0.8460  0.2999
  638MOL0     H86096  -0.783   2.853   6.618 -0.0106 -0.9468 -2.4203
  638MOL0     H86097  -0.724   2.694   6.671  0.7001  0.0121 -0.8221
  638MOL0     H86098  -0.980   2.614   6.608 -2.1622  0.4648  0.7800
  638MOL0     H86099  -0.990   2.775   6.541  0.3321  0.0364 -2.3071
  638MOL0     H86100  -0.793   2.551   6.474 -0.8618 -0.8621  1.3703
  638MOL0     H86101  -0.779   2.719   6.412 -3.5544  2.7961  2.0581
  638MOL0     H86102  -0.951   2.703   6.276  1.5912  0.9157  0.6487
  638MOL0     H86103  -0.864   2.555   6.250  0.2246 -1.5798  0.4347
  638MOL0     H86104  -1.144   2.559   6.381  0.3607 -3.6952  2.3325
  638MOL0     H86105  -1.023   2.438   6.400 -0.1944  0.6342  0.7942
  638MOL0     H86106  -1.092   2.539   6.112  2.7966  1.5024  0.8207
  638MOL0     H86107  -1.006   2.396   6.163 -0.4467  0.3439 -3.0969
  638MOL0     H86108  -1.294   2.485   6.206  0.8521  1.0224 -0.7701
  638MOL0     H86109  -1.235   2.354   6.304  0.2016  3.0054  0.7503
  638MOL0     H86110  -1.148   2.222   6.129 -0.8535 -2.4592 -2.4868
  638MOL0     H86111  -1.206   2.331   5.997  1.6229 -0.1035 -0.6497
  638MOL0     H86112  -0.825   2.555   6.949  1.0571  0.8673 -0.5750
  638MOL0     H86113  -0.655   2.528   7.102  2.4104  0.6638  0.9208
  638MOL0     H86114  -0.117   2.541   7.188 -0.6681  0.6690 -1.2193
  638MOL0     H86115   0.056   2.574   7.352 -0.4700 -0.9010  0.1078
  638MOL0     H86116   0.396   2.143   7.605 -1.0760 -0.5930 -0.0418
  638MOL0     H86117   0.559   2.307   7.665 -0.2509 -1.5220  0.9888
  638MOL0     H86118   0.479   2.863   7.832  0.6760  0.4903  1.6171
  638MOL0     H86119   0.659   3.023   7.821  5.0367  1.1643  0.3710
  638MOL0     H86120   1.064   3.097   7.851  2.6241 -2.1468  0.4919
  638MOL0     H86121   1.059   2.942   7.785  2.2714  1.5017  1.6810
  638MOL0     H86122   0.883   3.188   7.708  0.6697 -0.4371  0.8298
  638MOL0     H86123   0.849   3.029   7.648 -1.0459  0.4884  1.4254
  638MOL0     H86124   1.096   3.058   7.521 -1.2363 -1.0675  0.5036
  638MOL0     H86125   1.107   3.199   7.615 -1.3590 -3.4956  6.5285
  638MOL0     H86126   0.857   3.218   7.469  0.8585  2.0837 -0.1284
  638MOL0     H86127   0.940   3.108   7.371 -1.2004 -0.9411  0.0580
  638MOL0     H86128   1.147   3.409   7.205  1.2389 -0.4086  1.2909
  638MOL0     H86129   0.952   2.719   7.927  0.5306 -0.4460 -0.1854
  638MOL0     H86130   0.778   2.549   7.888  1.6073  1.4666 -0.7746
  639MOL0     O86131   4.915   7.156   0.613  0.2644 -0.4431  0.3070
  639MOL0     C86132   4.923   7.034   0.593 -0.7050  0.6294  0.1551
  639MOL0     O86133   4.848   6.966   0.499 -0.1400  0.3728  0.2835
  639MOL0     C86134   4.748   7.036   0.434  0.0476  0.2417  0.7803
  639MOL0     C86135   4.784   7.071   0.303 -0.3983  0.5100 -0.1239
  639MOL0     C86136   4.692   7.128   0.217  0.1175  0.4820 -0.5711
  639MOL0     C86137   4.562   7.153   0.252 -0.3572  0.8972  0.0982
  639MOL0     O86138   4.483   7.218   0.168  0.2756 -0.0303  0.6011
  639MOL0     C86139   4.373   7.154   0.086 -1.5568 -0.5156  0.7292
  639MOL0     C86140   4.318   7.275   0.001  0.1732 -0.4301  0.0816
  639MOL0     C86141   4.242   7.380   0.103 -0.3686 -1.0468 -0.0722
  639MOL0     C86142   4.167   7.497   0.043  0.3172 -0.2257  0.5930
  639MOL0     C86143   4.058   7.463  -0.062 -0.4415 -0.7185 -0.4047
  639MOL0     C86144   4.029   7.587  -0.159  0.3656 -0.7890 -0.0264
  639MOL0     C86145   3.955   7.548  -0.291 -0.2863  0.0647  0.8415
  639MOL0     C86146   4.017   7.614  -0.420 -1.0101  0.8242  0.5825
  639MOL0     N86147   4.148   7.550  -0.459 -0.6897 -0.6149  0.0146
  639MOL0     C86148   4.148   7.429  -0.523  1.1011  0.5621 -0.1905
  639MOL0     C86149   4.271   7.393  -0.551 -0.0483  0.1345  0.0581
  639MOL0     C86150   4.332   7.271  -0.622  0.7573 -0.6152  0.4935
  639MOL0     C86151   4.263   7.139  -0.568 -0.0782  0.2598  0.5585
  639MOL0     C86152   4.359   7.027  -0.606  0.0885  0.3181  0.5371
  639MOL0     C86153   4.283   6.897  -0.591 -0.6722 -0.1577  0.0001
  639MOL0     O86154   4.373   6.807  -0.658 -0.9114  0.1918  0.3687
  639MOL0     C86155   4.421   6.706  -0.571 -0.6204 -0.0888  0.3846
  639MOL0     C86156   4.380   6.569  -0.580  1.2284 -0.0101 -0.0353
  639MOL0     C86157   4.424   6.471  -0.488  0.1242 -0.8585 -0.8004
  639MOL0     C86158   4.343   6.337  -0.465  0.0481 -0.8687 -0.4184
  639MOL0     C86159   4.527   6.501  -0.398  0.0022 -0.2938  0.3348
  639MOL0     C86160   4.588   6.405  -0.304 -0.2044  0.1371  0.0134
  639MOL0     O86161   4.657   6.460  -0.198 -1.0992 -0.6301  0.9385
  639MOL0     C86162   4.661   6.394  -0.082  1.2343  0.3719 -0.6106
  639MOL0     C86163   4.555   6.320  -0.023  0.1793 -0.1147  0.3589
  639MOL0     C86164   4.576   6.263   0.109 -0.2428 -0.2290  0.1350
  639MOL0     C86165   4.707   6.262   0.165 -1.1817  0.3020 -0.1268
  639MOL0     O86166   4.750   6.211   0.296 -0.3900  0.0194 -0.3357
  639MOL0     C86167   4.846   6.100   0.277 -0.2638  0.1265 -0.0800
  639MOL0     C86168   4.844   6.020   0.413  1.1440 -0.4905  0.3530
  639MOL0     C86169   4.731   5.912   0.408 -0.6911 -0.3777  0.1389
  639MOL0     C86170   4.604   5.960   0.489 -0.6461  0.1648  0.3656
  639MOL0     C86171   4.474   5.897   0.446 -0.1548 -0.1604 -0.4630
  639MOL0     C86172   4.372   5.943   0.549  0.1003 -0.6990  0.4747
  639MOL0     C86173   4.227   5.898   0.524 -1.1516 -0.8021 -0.1519
  639MOL0     C86174   4.115   5.955   0.613 -0.7875  0.2747 -0.1648
  639MOL0    Cl86175   4.084   6.142   0.597 -0.4176 -0.1482 -0.0638
  639MOL0     C86176   4.805   6.335   0.098  0.7638 -0.7505  0.2544
  639MOL0     C86177   4.778   6.407  -0.016 -0.0234  0.1021 -0.1287
  639MOL0     O86178   4.593   6.280  -0.323 -0.0973  0.1458  0.0618
  639MOL0     C86179   4.580   6.632  -0.395 -0.1874  0.3666 -0.3926
  639MOL0     C86180   4.521   6.731  -0.475  0.1183 -0.9302  0.0194
  639MOL0     N86181   4.347   7.492  -0.505 -1.2450  0.2206 -0.1666
  639MOL0     N86182   4.277   7.583  -0.437  0.0429  0.8068 -0.1505
  639MOL0     C86183   4.518   7.112   0.380  0.1148  0.6562 -0.8636
  639MOL0     C86184   4.614   7.049   0.476  0.2760 -0.2160  0.5426
  639MOL0     C86185   5.008   6.951   0.682  0.6652 -0.4503  0.7796
  639MOL0     C86186   5.037   6.995   0.813 -1.5178 -0.8076 -0.2376
  639MOL0     C86187   5.130   6.915   0.902  0.0949  0.2885 -0.2256
  639MOL0     C86188   5.185   6.799   0.850  0.2153  0.6056  0.4091
  639MOL0     O86189   5.262   6.710   0.926 -0.3162 -0.7184 -0.1095
  639MOL0     C86190   5.346   6.765   1.025  0.0725  0.2127 -0.6925
  639MOL0     C86191   5.469   6.826   0.967  0.2058  0.6928  0.2296
  639MOL0     C86192   5.540   6.720   0.877 -0.0439  0.1465 -0.6360
  639MOL0     C86193   5.689   6.743   0.845  0.1145  0.1162 -0.2593
  639MOL0     C86194   5.770   6.734   0.964 -0.6211 -0.7632 -0.4630
  639MOL0     C86195   5.843   6.719   1.060 -1.0158 -0.0157  0.6690
  639MOL0     C86196   5.162   6.766   0.715 -0.2545  1.1548 -0.4561
  639MOL0     C86197   5.076   6.835   0.626 -0.3782 -0.4814  0.0974
  639MOL0     H86198   4.884   7.038   0.276 -0.3592  1.2579 -0.9499
  639MOL0     H86199   4.715   7.169   0.119 -1.6183  2.5974 -0.1603
  639MOL0     H86200   4.413   7.083   0.013 -1.4131 -0.0216  0.3190
  639MOL0     H86201   4.312   7.098   0.156 -0.5249  2.5690  4.4399
  639MOL0     H86202   4.394   7.330  -0.055 -0.0789  0.0601  0.2123
  639MOL0     H86203   4.247   7.234  -0.071  0.7682 -0.6619 -0.3809
  639MOL0     H86204   4.161   7.332   0.160 -1.0743  0.8990  0.6380
  639MOL0     H86205   4.307   7.411   0.185 -1.3800 -0.4431  0.5283
  639MOL0     H86206   4.118   7.546   0.127 -0.0459  1.0845 -0.3524
  639MOL0     H86207   4.233   7.570  -0.003 -2.2538 -0.1133 -3.3950
  639MOL0     H86208   4.086   7.377  -0.124 -1.7048 -1.4797  0.0492
  639MOL0     H86209   3.967   7.437  -0.008 -0.9359  1.6055 -0.0252
  639MOL0     H86210   3.967   7.659  -0.106  1.4292  0.0449  0.1084
  639MOL0     H86211   4.127   7.631  -0.179 -0.5115  0.2077 -2.4880
  639MOL0     H86212   3.968   7.442  -0.317 -2.4825  0.4443 -2.4980
  639MOL0     H86213   3.848   7.570  -0.291 -0.0679  1.1433  0.4638
  639MOL0     H86214   4.026   7.722  -0.408 -0.0369  0.8382 -0.1082
  639MOL0     H86215   3.945   7.597  -0.500  0.0762  0.1708 -0.2933
  639MOL0     H86216   4.054   7.381  -0.545 -0.0631  1.9084  1.5837
  639MOL0     H86217   4.328   7.278  -0.731 -0.8560  1.3443  0.6051
  639MOL0     H86218   4.437   7.281  -0.596  0.6555  3.7964  0.0728
  639MOL0     H86219   4.172   7.132  -0.628  0.7745 -2.5856 -0.5568
  639MOL0     H86220   4.256   7.151  -0.460  2.3992 -1.6130  1.0416
  639MOL0     H86221   4.454   7.030  -0.552 -0.0377  1.7781  0.7221
  639MOL0     H86222   4.387   7.029  -0.711 -0.5565 -0.4160  0.3429
  639MOL0     H86223   4.178   6.888  -0.620 -0.3475  0.5880 -1.4840
  639MOL0     H86224   4.293   6.878  -0.484 -1.0067 -0.2358  0.0177
  639MOL0     H86225   4.298   6.552  -0.649  0.1889  2.3317  0.5441
  639MOL0     H86226   4.405   6.247  -0.473 -1.6855 -2.2535  0.9449
  639MOL0     H86227   4.291   6.336  -0.369 -1.4887 -0.6603 -1.2052
  639MOL0     H86228   4.264   6.332  -0.541  0.3158  2.9440 -1.1677
  639MOL0     H86229   4.459   6.314  -0.074 -0.3803 -2.3161  1.5513
  639MOL0     H86230   4.484   6.241   0.163 -1.6313 -1.7157 -2.6083
  639MOL0     H86231   4.819   6.029   0.198 -4.6261  2.4002 -0.9446
  639MOL0     H86232   4.941   6.144   0.246 -0.3352 -1.5311 -3.0452
  639MOL0     H86233   4.930   5.957   0.433  0.7550 -0.5164  2.1787
  639MOL0     H86234   4.831   6.090   0.496  1.0290  0.4854 -0.4625
  639MOL0     H86235   4.767   5.831   0.473 -0.3724  2.0105  3.1582
  639MOL0     H86236   4.707   5.872   0.309  1.2614 -4.0463  0.9559
  639MOL0     H86237   4.624   5.951   0.596  0.7844 -0.4157  0.0734
  639MOL0     H86238   4.596   6.065   0.459  1.3332  0.2613 -0.0283
  639MOL0     H86239   4.477   5.787   0.441  2.0097 -0.2284  0.8771
  639MOL0     H86240   4.442   5.947   0.354  2.0335  0.7946 -0.7549
  639MOL0     H86241   4.394   5.917   0.653  1.3245  0.5143  0.5454
  639MOL0     H86242   4.383   6.051   0.546 -0.7724 -0.6109 -0.0111
  639MOL0     H86243   4.226   5.789   0.522  1.9308 -1.1577  4.0313
  639MOL0     H86244   4.204   5.930   0.422 -4.9588  1.5733  1.2359
  639MOL0     H86245   4.146   5.931   0.715 -1.3212  1.8137  0.3848
  639MOL0     H86246   4.026   5.892   0.596  0.5178 -1.8762  0.5447
  639MOL0     H86247   4.904   6.339   0.142  0.9745 -1.4663 -0.1390
  639MOL0     H86248   4.860   6.468  -0.052 -0.1054 -0.1871 -0.8215
  639MOL0     H86249   4.671   6.643  -0.338 -0.6272 -0.7952  0.5606
  639MOL0     H86250   4.542   6.838  -0.471 -2.6318 -0.3595  1.3784
  639MOL0     H86251   4.413   7.121   0.406  0.1780  0.2656 -0.4609
  639MOL0     H86252   4.586   7.007   0.572  0.3844  0.7111  0.9964
  639MOL0     H86253   4.995   7.082   0.863  1.7762  0.1639  1.0879
  639MOL0     H86254   5.144   6.929   1.008  2.1501 -4.6024  0.3903
  639MOL0     H86255   5.289   6.833   1.090  1.3384 -0.1108  0.8096
  639MOL0     H86256   5.376   6.685   1.093 -0.4851 -1.7945 -2.6829
  639MOL0     H86257   5.535   6.848   1.051 -0.4513  1.9694  0.4370
  639MOL0     H86258   5.451   6.918   0.911  3.3170  1.8347  0.9392
  639MOL0     H86259   5.482   6.708   0.785  3.8515 -2.3843 -3.0908
  639MOL0     H86260   5.535   6.622   0.925 -4.0360 -0.0045 -1.0723
  639MOL0     H86261   5.683   6.845   0.806  0.7901 -0.1147 -0.9866
  639MOL0     H86262   5.713   6.673   0.765 -1.6366 -1.1136  0.2296
  639MOL0     H86263   5.918   6.694   1.132  0.4892  2.7437  0.2090
  639MOL0     H86264   5.207   6.670   0.692 -0.5188  0.4394  1.8095
  639MOL0     H86265   5.064   6.807   0.522 -3.0563 -0.2314  0.2736
  640MOL0     O86266   7.824   1.036   8.859  0.3642 -0.2725  0.1542
  640MOL0     C86267   7.740   1.099   8.925 -0.3019  0.1399  0.4363
  640MOL0     O86268   7.754   1.131   9.055  0.1702 -0.1845 -0.0988
  640MOL0     C86269   7.871   1.075   9.106  0.6062 -0.1517 -0.0265
  640MOL0     C86270   8.004   1.113   9.069  1.1132  0.2138 -0.2424
  640MOL0     C86271   8.113   1.051   9.133 -0.8648 -0.9753  1.0576
  640MOL0     C86272   8.101   0.957   9.230  0.6774 -0.5193  0.0626
  640MOL0     O86273   8.214   0.911   9.295 -0.0964 -0.0772 -0.6833
  640MOL0     C86274   8.198   0.784   9.369 -0.5260 -0.2724  1.1888
  640MOL0     C86275   8.343   0.734   9.396  1.1436  0.6888 -0.1185
  640MOL0     C86276   8.350   0.582   9.427 -0.6726 -0.2108 -0.0161
  640MOL0     C86277   8.498   0.546   9.429 -0.5834 -0.0027  0.5106
  640MOL0     C86278   8.524   0.392   9.455 -0.0982  0.3993 -0.2278
  640MOL0     C86279   8.675   0.374   9.457 -0.5377 -0.5995 -0.5643
  640MOL0     C86280   8.720   0.231   9.423  0.0987  0.8446 -0.0517
  640MOL0     C86281   8.870   0.212   9.403 -0.3678  0.3148  0.1684
  640MOL0     N86282   8.916   0.098   9.327 -0.6092 -0.0708  0.4116
  640MOL0     C86283   8.924   0.096   9.191  0.1649 -0.5200 -0.3571
  640MOL0     C86284   9.005  -0.014   9.159 -0.2798  0.6352  0.3185
  640MOL0     C86285   9.032  -0.049   9.012  0.0733 -0.0017 -0.5418
  640MOL0     C86286   9.174  -0.054   8.976  0.0076  0.2720  0.2106
  640MOL0     C86287   9.248  -0.158   9.058  0.1863  0.0180 -0.0307
  640MOL0     C86288   9.385  -0.187   9.013 -0.5050  0.4166  0.3317
  640MOL0     O86289   9.474  -0.077   9.014 -0.0956  0.4876 -0.1636
  640MOL0     C86290   9.604  -0.093   8.963  0.1122  0.1479  0.1589
  640MOL0     C86291   9.673  -0.214   8.952  0.0938 -0.1527 -0.4327
  640MOL0     C86292   9.809  -0.222   8.917  0.1079 -0.9811  1.0185
  640MOL0     C86293   9.884  -0.357   8.919 -0.3151 -0.0575 -0.4199
  640MOL0     C86294   9.875  -0.100   8.880 -0.3286  0.9744  0.3100
  640MOL0     C86295  10.018  -0.089   8.849 -0.0598 -0.4057  0.2587
  640MOL0     O86296  10.111  -0.015   8.929  0.8718  0.1377  0.0026
  640MOL0     C86297  10.247  -0.019   8.912  0.7209  0.2066  0.8731
  640MOL0     C86298  10.321  -0.131   8.854 -1.3099 -0.1774  0.0985
  640MOL0     C86299  10.463  -0.132   8.862 -0.2732 -0.2185  0.1530
  640MOL0     C86300  10.531  -0.028   8.923 -0.3063  0.0514 -0.0719
  640MOL0     O86301  10.666  -0.018   8.934 -0.2253  0.2722 -0.7722
  640MOL0     C86302  10.737  -0.136   8.972 -0.2273  0.3518  0.1759
  640MOL0     C86303  10.879  -0.075   8.996  0.0672  1.3130  0.9745
  640MOL0     C86304  10.991  -0.175   9.035  0.7494  0.6642  0.4414
  640MOL0     C86305  11.130  -0.105   9.080  0.9813 -0.6237 -0.8543
  640MOL0     C86306  11.175   0.000   8.973 -1.0392 -0.6615 -0.1596
  640MOL0     C86307  11.304   0.071   9.024  0.4126  0.8281  0.3616
  640MOL0     C86308  11.430  -0.025   9.025 -0.2187 -0.5903 -0.0691
  640MOL0     C86309  11.569   0.019   9.070 -1.2596 -0.1953 -0.6748
  640MOL0    Cl86310  11.625   0.151   8.955 -0.6217  0.1151 -0.0354
  640MOL0     C86311  10.454   0.074   8.978 -0.2320 -0.1789 -0.5578
  640MOL0     C86312  10.321   0.085   8.966 -0.2250 -0.5071  0.8683
  640MOL0     O86313  10.056  -0.141   8.739 -0.0295  0.2732  1.0706
  640MOL0     C86314   9.806   0.018   8.904  0.2245 -1.0256  0.4188
  640MOL0     C86315   9.675   0.021   8.955 -0.3667 -0.9444 -0.4543
  640MOL0     N86316   9.029  -0.083   9.281  0.1562 -0.4166  0.2123
  640MOL0     N86317   8.986  -0.004   9.376  0.4059  0.3401  0.2027
  640MOL0     C86318   7.970   0.921   9.265 -1.3325  0.1505  0.5706
  640MOL0     C86319   7.862   0.982   9.211  0.1393 -0.0703  0.1969
  640MOL0     C86320   7.620   1.148   8.855  0.8584  0.4320 -0.4268
  640MOL0     C86321   7.511   1.210   8.922  0.1296  1.4361 -0.5685
  640MOL0     C86322   7.386   1.248   8.859 -0.1525  0.4115 -0.7476
  640MOL0     C86323   7.387   1.242   8.716 -1.1771  0.0343 -0.0628
  640MOL0     O86324   7.293   1.280   8.634  0.6334  0.5874  0.4064
  640MOL0     C86325   7.163   1.305   8.682  0.1188  0.7454 -0.0545
  640MOL0     C86326   7.062   1.306   8.561  0.2370 -0.0621 -0.2124
  640MOL0     C86327   6.998   1.171   8.529  0.0985 -0.1186  0.6877
  640MOL0     C86328   6.922   1.175   8.388 -0.1188  0.2675 -0.4388
  640MOL0     C86329   6.791   1.230   8.411  0.3272 -0.2792  0.5091
  640MOL0     C86330   6.685   1.278   8.418  0.5256 -0.4163 -0.8675
  640MOL0     C86331   7.506   1.208   8.650 -1.8964 -0.1337 -0.2918
  640MOL0     C86332   7.620   1.158   8.716 -0.6199 -0.3216  0.8002
  640MOL0     H86333   8.016   1.185   8.989  1.3235  1.3786  0.8070
  640MOL0     H86334   8.212   1.085   9.103  0.8447 -1.5817  5.2947
  640MOL0     H86335   8.159   0.800   9.470 -1.1345 -2.5336  1.3550
  640MOL0     H86336   8.133   0.716   9.314 -1.8528  2.5866 -1.0741
  640MOL0     H86337   8.404   0.749   9.306 -0.1090  0.0454 -1.0990
  640MOL0     H86338   8.395   0.781   9.480 -0.3396  0.6304  0.8540
  640MOL0     H86339   8.310   0.557   9.526 -1.0177 -0.9802 -0.3442
  640MOL0     H86340   8.302   0.525   9.348 -1.2919 -0.0510  0.2366
  640MOL0     H86341   8.561   0.573   9.344 -1.2665 -2.3761 -0.8212
  640MOL0     H86342   8.547   0.605   9.508 -2.7369  1.2833  0.9618
  640MOL0     H86343   8.501   0.365   9.559  2.0211  1.4630  0.5810
  640MOL0     H86344   8.478   0.335   9.374 -1.5131  0.6438  0.3789
  640MOL0     H86345   8.712   0.441   9.380  0.1671 -1.3211 -0.8707
  640MOL0     H86346   8.718   0.395   9.556 -0.3436  0.7551 -0.9195
  640MOL0     H86347   8.693   0.155   9.497 -4.0817  1.7504 -0.4238
  640MOL0     H86348   8.660   0.211   9.334 -0.3370  0.7818  0.2513
  640MOL0     H86349   8.902   0.216   9.507 -1.7258 -0.1853  0.6339
  640MOL0     H86350   8.933   0.289   9.359 -0.1632 -0.4131 -0.8623
  640MOL0     H86351   8.888   0.174   9.125 -1.0425 -1.2197 -0.5456
  640MOL0     H86352   8.987  -0.144   8.985  2.5252 -1.4682  0.2052
  640MOL0     H86353   8.976   0.027   8.958  0.8566  1.4368  0.5801
  640MOL0     H86354   9.229   0.040   8.987  2.1156 -1.1098  2.6488
  640MOL0     H86355   9.187  -0.085   8.872 -2.0462 -1.2315  0.3442
  640MOL0     H86356   9.185  -0.247   9.049  0.5938 -0.7904  3.6194
  640MOL0     H86357   9.253  -0.143   9.166 -0.1191 -0.5683  0.0686
  640MOL0     H86358   9.389  -0.229   8.912  1.0998  1.3550 -0.0359
  640MOL0     H86359   9.426  -0.270   9.072  1.2731  0.7353 -0.3720
  640MOL0     H86360   9.627  -0.307   8.986 -0.3404  0.5786  1.0930
  640MOL0     H86361   9.859  -0.418   8.832 -0.5215 -0.1186 -0.3178
  640MOL0     H86362   9.989  -0.334   8.904 -1.0422  2.1280 -2.9153
  640MOL0     H86363   9.856  -0.416   9.007 -0.7045 -0.7212 -0.9823
  640MOL0     H86364  10.277  -0.217   8.803  0.9799 -0.4238 -1.6160
  640MOL0     H86365  10.520  -0.208   8.810  0.8063  1.9943 -2.0855
  640MOL0     H86366  10.680  -0.184   9.051 -4.0762 -1.5074 -3.3601
  640MOL0     H86367  10.745  -0.195   8.879 -1.2133  1.4517 -0.6244
  640MOL0     H86368  10.897  -0.024   8.901 -3.1335  4.2278  1.7233
  640MOL0     H86369  10.879  -0.007   9.082  3.0625  1.2773  1.1093
  640MOL0     H86370  11.018  -0.243   8.954 -1.0584 -0.2027  0.5243
  640MOL0     H86371  10.959  -0.226   9.126 -1.1374  3.6909  1.6463
  640MOL0     H86372  11.101  -0.047   9.168 -2.3858 -2.2524 -0.7616
  640MOL0     H86373  11.207  -0.180   9.101  2.7757  1.1816 -0.5998
  640MOL0     H86374  11.092   0.068   8.953 -1.3765 -1.5087 -1.8949
  640MOL0     H86375  11.204  -0.052   8.881 -0.9078  0.4867 -0.7814
  640MOL0     H86376  11.318   0.159   8.960  1.4511 -0.1337 -0.7745
  640MOL0     H86377  11.285   0.110   9.125 -3.9778  1.5787 -0.5632
  640MOL0     H86378  11.437  -0.079   8.931  0.4092 -1.5021  0.4911
  640MOL0     H86379  11.403  -0.104   9.096 -0.8904 -1.2402 -1.0261
  640MOL0     H86380  11.640  -0.064   9.080 -1.0229  0.2591  2.5302
  640MOL0     H86381  11.578   0.067   9.168  3.4483  0.3057 -1.1485
  640MOL0     H86382  10.504   0.147   9.042  2.9652 -2.2300 -0.4937
  640MOL0     H86383  10.274   0.170   9.015  0.9331  0.7358 -0.0729
  640MOL0     H86384   9.859   0.113   8.900 -1.8189  0.1684 -0.2055
  640MOL0     H86385   9.630   0.115   8.983  0.2581 -1.6119  3.2872
  640MOL0     H86386   7.948   0.839   9.333  0.8807 -1.6150 -0.7110
  640MOL0     H86387   7.760   0.954   9.237 -0.8064  1.5381 -1.4843
  640MOL0     H86388   7.518   1.213   9.031 -2.2529 -2.6603 -0.0744
  640MOL0     H86389   7.299   1.282   8.914  1.9643  0.2316  3.0804
  640MOL0     H86390   7.119   1.253   8.767  0.6248  1.1641  0.4745
  640MOL0     H86391   7.164   1.411   8.710 -0.0492  0.7799 -0.1769
  640MOL0     H86392   7.110   1.370   8.487 -0.6693  2.5978  1.3868
  640MOL0     H86393   6.976   1.368   8.587 -2.8812 -2.8838 -2.8991
  640MOL0     H86394   6.933   1.123   8.602 -1.2726 -1.3197 -1.2352
  640MOL0     H86395   7.081   1.101   8.515  0.8849  1.2795 -2.6943
  640MOL0     H86396   6.903   1.073   8.353  4.2292  0.1372 -3.2231
  640MOL0     H86397   6.979   1.229   8.313 -3.4603  3.6191 -0.8688
  640MOL0     H86398   6.585   1.315   8.411  1.1042  2.0215  1.7744
  640MOL0     H86399   7.511   1.231   8.544 -1.2090  2.1706  0.1843
  640MOL0     H86400   7.712   1.138   8.663 -0.2338  3.6545 -0.3690
  641MOL0     O86401   6.211   1.373   4.264 -0.6040  0.1159  0.0196
  641MOL0     C86402   6.289   1.286   4.219  0.5208  0.5332 -0.0831
  641MOL0     O86403   6.251   1.160   4.176  0.3335 -0.4012  0.8092
  641MOL0     C86404   6.107   1.145   4.186  0.5492  0.3231 -0.3143
  641MOL0     C86405   6.018   1.163   4.086 -0.5875 -0.6100  0.4446
  641MOL0     C86406   5.882   1.148   4.110  0.0918  0.0583 -0.2430
  641MOL0     C86407   5.830   1.108   4.241 -0.4255  0.0531  0.8559
  641MOL0     O86408   5.697   1.100   4.256 -0.5784  0.2477  0.0165
  641MOL0     C86409   5.648   1.031   4.369 -0.0295  1.0375  0.0639
  641MOL0     C86410   5.496   1.006   4.349  0.3408  0.1900 -1.2339
  641MOL0     C86411   5.406   1.140   4.337 -0.0103  0.9294 -0.1667
  641MOL0     C86412   5.256   1.104   4.319 -0.6691 -0.0788 -0.2478
  641MOL0     C86413   5.183   1.213   4.238  0.4392 -0.0822  0.0238
  641MOL0     C86414   5.042   1.158   4.214  0.6177  0.0260  1.5340
  641MOL0     C86415   4.947   1.187   4.335 -0.1831 -0.3877 -0.0786
  641MOL0     C86416   4.927   1.335   4.358 -0.2323  0.4338  0.4118
  641MOL0     N86417   4.867   1.401   4.239 -0.2408 -0.7503  0.8312
  641MOL0     C86418   4.924   1.501   4.164 -0.5372 -0.2663  0.1463
  641MOL0     C86419   4.827   1.561   4.091 -0.2822 -0.1271 -0.6399
  641MOL0     C86420   4.841   1.674   3.990 -0.4796 -0.1737  0.0987
  641MOL0     C86421   4.877   1.630   3.850  0.7412  0.9543 -0.3378
  641MOL0     C86422   4.802   1.521   3.784 -0.4948  0.2100  0.4416
  641MOL0     C86423   4.656   1.558   3.773  0.5992  0.1984 -0.1111
  641MOL0     O86424   4.632   1.650   3.666 -0.5466  0.3347 -0.5702
  641MOL0     C86425   4.530   1.747   3.675 -0.2085 -0.2010  0.3222
  641MOL0     C86426   4.480   1.809   3.786 -0.1561  1.0184 -0.5758
  641MOL0     C86427   4.380   1.915   3.777 -0.2105  0.2001 -0.2714
  641MOL0     C86428   4.340   2.012   3.890 -0.5031 -0.3041 -0.0502
  641MOL0     C86429   4.337   1.948   3.647 -1.2741  1.2449  0.6500
  641MOL0     C86430   4.239   2.058   3.620 -0.3100  0.0017  0.2109
  641MOL0     O86431   4.271   2.151   3.516 -0.5347 -0.1726 -1.0426
  641MOL0     C86432   4.178   2.261   3.511 -0.0995 -0.2054 -0.5106
  641MOL0     C86433   4.068   2.246   3.438  1.2677 -1.1196  0.7896
  641MOL0     C86434   3.979   2.354   3.437 -0.3743 -0.2537  0.1753
  641MOL0     C86435   4.009   2.476   3.502 -0.1273 -0.3797  1.2083
  641MOL0     O86436   3.908   2.568   3.492  0.2293  0.1911 -0.9425
  641MOL0     C86437   3.904   2.681   3.573  0.2827  0.9666 -0.0416
  641MOL0     C86438   3.771   2.748   3.539  1.2068 -0.1309  0.0902
  641MOL0     C86439   3.735   2.864   3.631 -0.3923  0.6668 -0.7151
  641MOL0     C86440   3.624   2.946   3.563 -0.1081  1.1278 -0.2600
  641MOL0     C86441   3.597   3.073   3.629  0.8816  0.1146  0.2066
  641MOL0     C86442   3.531   3.089   3.763  0.6679 -0.5872 -0.6069
  641MOL0     C86443   3.529   3.242   3.798 -0.0614 -0.9200  0.1469
  641MOL0     C86444   3.394   3.305   3.750 -0.3042  0.1243 -0.2852
  641MOL0    Cl86445   3.266   3.261   3.865 -0.2541  0.4984  0.1412
  641MOL0     C86446   4.130   2.499   3.565 -0.2441  1.5860 -0.4080
  641MOL0     C86447   4.213   2.383   3.571 -0.7282 -0.0435 -0.1485
  641MOL0     O86448   4.143   2.057   3.690  0.3322 -0.4862  0.8665
  641MOL0     C86449   4.375   1.871   3.536 -0.8137 -0.0766 -0.2470
  641MOL0     C86450   4.471   1.776   3.552 -0.1602  0.2808 -0.3283
  641MOL0     N86451   4.705   1.495   4.118 -0.5271  0.4974 -0.5794
  641MOL0     N86452   4.732   1.400   4.203 -0.7987 -0.7623  0.1023
  641MOL0     C86453   5.922   1.086   4.344  0.2202  0.1748 -0.2820
  641MOL0     C86454   6.060   1.115   4.310  0.7350 -0.1382 -0.0745
  641MOL0     C86455   6.432   1.305   4.215  0.8953  1.4634 -0.7738
  641MOL0     C86456   6.486   1.424   4.259 -0.2803 -0.2837 -0.7023
  641MOL0     C86457   6.624   1.451   4.238  0.0350  0.6409  0.4865
  641MOL0     C86458   6.700   1.358   4.174 -0.3290 -0.7011  0.6347
  641MOL0     O86459   6.833   1.398   4.154 -0.1088  0.3176  0.3243
  641MOL0     C86460   6.934   1.296   4.154 -0.5914 -0.5750 -0.3928
  641MOL0     C86461   7.028   1.329   4.049 -0.3442 -0.7311 -0.1894
  641MOL0     C86462   6.975   1.341   3.903 -0.7558 -0.4383 -0.5103
  641MOL0     C86463   6.952   1.208   3.835  0.2251 -0.0008  0.8246
  641MOL0     C86464   7.078   1.173   3.764 -0.3814  0.1246  0.9877
  641MOL0     C86465   7.189   1.155   3.711 -0.4994  0.1042  0.7936
  641MOL0     C86466   6.656   1.246   4.121  0.2822  0.4230 -0.0108
  641MOL0     C86467   6.517   1.211   4.139 -0.0486 -0.4368 -1.3867
  641MOL0     H86468   6.044   1.194   3.986  0.0608  2.4808  1.4500
  641MOL0     H86469   5.820   1.170   4.024  0.7983 -2.2927 -1.4237
  641MOL0     H86470   5.684   0.928   4.373  0.4092  1.1687 -0.4093
  641MOL0     H86471   5.661   1.081   4.466  0.2245  0.3552  0.3898
  641MOL0     H86472   5.466   0.939   4.268 -2.9937  0.6919 -0.5844
  641MOL0     H86473   5.450   0.956   4.435  2.2749 -0.8754 -0.7803
  641MOL0     H86474   5.425   1.192   4.432  3.2453  0.6150 -0.5438
  641MOL0     H86475   5.447   1.196   4.253  0.7643  0.1665 -0.3100
  641MOL0     H86476   5.253   1.006   4.272 -0.0544  0.2829 -1.0555
  641MOL0     H86477   5.212   1.088   4.418  0.3522 -1.3201  0.0323
  641MOL0     H86478   5.185   1.305   4.297  2.4236  3.6129 -5.0157
  641MOL0     H86479   5.218   1.234   4.136 -2.3073 -3.4497 -1.8539
  641MOL0     H86480   5.004   1.221   4.132  0.3424 -1.7732  0.2220
  641MOL0     H86481   5.026   1.062   4.165  0.0583  0.3468  1.0666
  641MOL0     H86482   4.858   1.124   4.327 -0.9691  0.2210  2.6991
  641MOL0     H86483   4.983   1.147   4.430 -3.6210  1.4594  2.2576
  641MOL0     H86484   5.015   1.390   4.393  0.2111  0.1365 -0.2232
  641MOL0     H86485   4.860   1.343   4.444  0.4970  0.4773  0.9899
  641MOL0     H86486   5.028   1.529   4.154 -1.1564  1.4184 -3.4551
  641MOL0     H86487   4.747   1.729   3.979 -0.4204  0.7875  3.2112
  641MOL0     H86488   4.911   1.751   4.023 -1.7610  0.9179  0.3550
  641MOL0     H86489   4.981   1.600   3.837  0.4889  0.5255 -1.5586
  641MOL0     H86490   4.855   1.722   3.795 -2.1800  1.1692  0.9703
  641MOL0     H86491   4.812   1.422   3.828 -0.3952  0.2901  0.5990
  641MOL0     H86492   4.848   1.505   3.686 -1.3342  1.1238 -0.1318
  641MOL0     H86493   4.633   1.604   3.870  2.7666  0.6869  0.2216
  641MOL0     H86494   4.598   1.466   3.758  2.6266 -1.0813 -0.3731
  641MOL0     H86495   4.523   1.789   3.883  2.3724 -1.1021 -2.0270
  641MOL0     H86496   4.425   2.024   3.958 -1.6052  5.1626  0.8326
  641MOL0     H86497   4.299   2.107   3.856  0.5417 -1.0669 -3.8545
  641MOL0     H86498   4.252   1.967   3.937 -1.0643 -0.2233 -1.0151
  641MOL0     H86499   4.045   2.156   3.381 -3.0189  0.9442 -1.1733
  641MOL0     H86500   3.884   2.357   3.385  0.3019 -0.7805 -1.1599
  641MOL0     H86501   3.893   2.652   3.677 -2.0175 -2.3230 -1.0395
  641MOL0     H86502   3.985   2.754   3.569 -0.4094  1.9315  2.1626
  641MOL0     H86503   3.784   2.784   3.437 -2.4050  1.9122  0.1868
  641MOL0     H86504   3.689   2.677   3.541  0.3816  0.7520 -1.1293
  641MOL0     H86505   3.813   2.939   3.644  0.7855  0.0315 -3.4188
  641MOL0     H86506   3.700   2.844   3.733  0.1536  2.3653 -0.1648
  641MOL0     H86507   3.639   2.957   3.456 -1.2582  0.0320 -0.5594
  641MOL0     H86508   3.526   2.897   3.568  0.0882  0.7905  4.0578
  641MOL0     H86509   3.523   3.123   3.565  0.3976 -1.4396 -0.4892
  641MOL0     H86510   3.687   3.134   3.612 -0.0935  1.0618 -2.1303
  641MOL0     H86511   3.437   3.033   3.754  0.0664  0.0872  1.1394
  641MOL0     H86512   3.589   3.045   3.844 -1.2148  0.0308  1.1575
  641MOL0     H86513   3.621   3.285   3.758 -0.5225  1.7229  1.6783
  641MOL0     H86514   3.536   3.231   3.906 -0.4984 -4.8824 -0.0814
  641MOL0     H86515   3.365   3.293   3.645 -0.8892  0.1187 -0.1270
  641MOL0     H86516   3.413   3.413   3.758  2.2966 -0.3599  1.2846
  641MOL0     H86517   4.155   2.597   3.604  1.4799  0.8947  0.2843
  641MOL0     H86518   4.303   2.402   3.628 -0.9657 -0.0330  0.2275
  641MOL0     H86519   4.350   1.913   3.439  2.5356  0.6017 -0.9375
  641MOL0     H86520   4.487   1.711   3.467 -0.2244 -2.2985  1.4970
  641MOL0     H86521   5.895   1.060   4.446  1.0463 -1.3380 -0.4186
  641MOL0     H86522   6.130   1.087   4.388  0.0384 -0.8603  0.3099
  641MOL0     H86523   6.428   1.499   4.312  1.3676 -0.7675  1.9381
  641MOL0     H86524   6.673   1.540   4.276 -0.9366  1.0759  0.7431
  641MOL0     H86525   6.990   1.298   4.248  1.5650  0.7226 -1.6226
  641MOL0     H86526   6.901   1.192   4.146  2.1584 -1.8297  2.4416
  641MOL0     H86527   7.114   1.263   4.051  0.2393 -0.0833 -1.9707
  641MOL0     H86528   7.069   1.428   4.070  0.9883 -1.7587  2.3826
  641MOL0     H86529   7.038   1.415   3.853 -0.5874  0.2070  0.6504
  641MOL0     H86530   6.879   1.392   3.898 -0.7723 -0.5766 -3.1458
  641MOL0     H86531   6.872   1.230   3.763 -0.2232  0.1183  1.3535
  641MOL0     H86532   6.925   1.130   3.907 -2.9966 -0.1143 -0.3608
  641MOL0     H86533   7.282   1.148   3.660 -0.8553 -1.3559  0.3261
  641MOL0     H86534   6.720   1.170   4.076  2.0623  1.5563  0.5142
  641MOL0     H86535   6.490   1.107   4.121  1.6993 -0.9633 -1.1975
  642MOL0     O86536   0.190   8.139   8.441 -0.6740  0.1233 -0.1993
  642MOL0     C86537   0.138   8.255   8.454 -0.0531  0.4819  0.2645
  642MOL0     O86538   0.158   8.356   8.371  0.3785 -1.1717 -0.3503
  642MOL0     C86539   0.275   8.362   8.296 -0.2126  1.3080  0.8669
  642MOL0     C86540   0.268   8.388   8.160  0.0919  0.1112  0.0437
  642MOL0     C86541   0.389   8.397   8.087  0.4782  0.0519 -0.0446
  642MOL0     C86542   0.516   8.377   8.140  1.2319  0.6287 -0.9752
  642MOL0     O86543   0.622   8.397   8.055  0.2956 -0.3588 -0.2485
  642MOL0     C86544   0.744   8.379   8.115 -0.5911 -0.3450 -0.0109
  642MOL0     C86545   0.861   8.417   8.021 -0.5210 -0.0383  0.7212
  642MOL0     C86546   0.852   8.370   7.871  0.6431  0.3247 -0.3354
  642MOL0     C86547   0.973   8.417   7.793  0.0378 -0.1179  0.4840
  642MOL0     C86548   1.102   8.330   7.802  0.4701 -0.0067 -0.2618
  642MOL0     C86549   1.219   8.398   7.726  0.2449  0.7040  0.3907
  642MOL0     C86550   1.352   8.322   7.760 -0.4221 -0.0681 -0.4332
  642MOL0     C86551   1.404   8.237   7.637  0.0884 -0.6714 -0.6201
  642MOL0     N86552   1.545   8.217   7.661 -1.1343 -0.8149 -0.3200
  642MOL0     C86553   1.603   8.131   7.753  0.6035 -0.0840 -0.1650
  642MOL0     C86554   1.732   8.161   7.747  0.1599  0.4991  0.1243
  642MOL0     C86555   1.845   8.102   7.823 -0.1841 -0.3574 -0.3905
  642MOL0     C86556   1.907   8.202   7.925 -0.1007  0.9647  0.1446
  642MOL0     C86557   1.998   8.304   7.857  0.2658 -0.3726  0.0899
  642MOL0     C86558   2.128   8.246   7.812 -0.5618 -0.2447 -0.8694
  642MOL0     O86559   2.198   8.343   7.730  0.4839 -0.5684 -0.2313
  642MOL0     C86560   2.290   8.421   7.786 -0.6814 -0.2779  0.3018
  642MOL0     C86561   2.377   8.482   7.698 -0.6434 -0.2919 -0.0447
  642MOL0     C86562   2.483   8.571   7.743  0.6996 -0.1361  0.6922
  642MOL0     C86563   2.565   8.639   7.638 -0.3583 -0.3186  0.3301
  642MOL0     C86564   2.497   8.590   7.885 -0.0971 -0.5862  0.7166
  642MOL0     C86565   2.587   8.697   7.939 -0.4833 -0.0286 -0.4516
  642MOL0     O86566   2.642   8.663   8.064 -0.0375  0.6215 -0.5173
  642MOL0     C86567   2.745   8.736   8.127  0.2200  0.3911  0.0069
  642MOL0     C86568   2.822   8.846   8.071 -0.5571 -0.4243  0.5675
  642MOL0     C86569   2.907   8.915   8.154 -0.0699  0.5319  0.1649
  642MOL0     C86570   2.921   8.878   8.289  0.6584  0.3935 -0.5427
  642MOL0     O86571   3.015   8.936   8.375  1.1292  0.6282  0.6581
  642MOL0     C86572   3.046   9.077   8.348  1.2310  0.9925 -0.3282
  642MOL0     C86573   3.115   9.145   8.472  0.0958 -0.4267  0.1978
  642MOL0     C86574   3.263   9.115   8.485 -0.7517  0.5336 -0.6549
  642MOL0     C86575   3.331   9.184   8.600  0.2169 -0.9108  0.4796
  642MOL0     C86576   3.483   9.192   8.578  0.0681  0.9440 -0.3978
  642MOL0     C86577   3.567   9.160   8.712  1.0165  0.5423  0.5307
  642MOL0     C86578   3.707   9.135   8.664 -0.0011  0.5164 -0.2784
  642MOL0     C86579   3.785   9.060   8.770  0.9217 -0.2707  0.9174
  642MOL0    Cl86580   3.762   9.137   8.939  0.0720 -0.3378 -0.6065
  642MOL0     C86581   2.852   8.772   8.342 -0.0511 -0.2121 -1.2095
  642MOL0     C86582   2.762   8.704   8.260 -0.3182 -0.2101  0.8665
  642MOL0     O86583   2.616   8.800   7.880  1.1456 -0.0148  1.3971
  642MOL0     C86584   2.415   8.517   7.973 -0.0766  0.0499 -0.4916
  642MOL0     C86585   2.319   8.430   7.928  0.5881 -0.6356  0.2579
  642MOL0     N86586   1.754   8.248   7.642 -0.3410  0.1618 -0.1640
  642MOL0     N86587   1.640   8.287   7.599  0.7935  0.0282  0.7944
  642MOL0     C86588   0.518   8.347   8.279 -0.2341 -0.3217 -0.0957
  642MOL0     C86589   0.401   8.347   8.361 -0.9988  0.2502  0.0952
  642MOL0     C86590   0.043   8.268   8.560  0.1887 -0.2326 -0.3546
  642MOL0     C86591   0.041   8.177   8.669  0.1211 -0.9324 -0.0161
  642MOL0     C86592  -0.059   8.183   8.767 -0.0407  0.0844 -0.2290
  642MOL0     C86593  -0.157   8.281   8.745  0.8898 -0.1176 -0.1217
  642MOL0     O86594  -0.258   8.288   8.837 -0.1092  0.2165 -0.3678
  642MOL0     C86595  -0.231   8.363   8.945  0.1284  0.5655 -0.4676
  642MOL0     C86596  -0.282   8.305   9.077  0.0650 -0.1851 -0.3692
  642MOL0     C86597  -0.430   8.340   9.097  0.0210 -0.1035 -0.4674
  642MOL0     C86598  -0.454   8.479   9.167 -0.4754 -0.5313 -0.0678
  642MOL0     C86599  -0.596   8.516   9.175 -0.0219  0.6750  0.7306
  642MOL0     C86600  -0.712   8.548   9.169  0.4437  0.3699 -0.4736
  642MOL0     C86601  -0.161   8.368   8.639 -0.5214  0.4905 -0.7400
  642MOL0     C86602  -0.059   8.357   8.545 -0.2547 -0.0815  0.1306
  642MOL0     H86603   0.175   8.403   8.106  0.3836 -2.1719 -1.2397
  642MOL0     H86604   0.384   8.429   7.984 -2.6324 -1.3851 -0.4646
  642MOL0     H86605   0.763   8.451   8.195  1.8516  2.8990 -3.1886
  642MOL0     H86606   0.754   8.276   8.151 -2.0438 -0.9167 -1.1405
  642MOL0     H86607   0.875   8.526   8.021  2.8700 -0.3581  0.2341
  642MOL0     H86608   0.944   8.363   8.066 -1.9461 -0.2634  3.2616
  642MOL0     H86609   0.847   8.262   7.856  1.2022  0.3051 -0.4026
  642MOL0     H86610   0.759   8.412   7.832  0.3662  1.4901  1.4393
  642MOL0     H86611   0.952   8.418   7.686 -1.1228  0.9919  0.7053
  642MOL0     H86612   0.999   8.520   7.820 -1.6962  0.4319  0.1838
  642MOL0     H86613   1.133   8.314   7.906  1.3319  0.7781 -0.3903
  642MOL0     H86614   1.081   8.233   7.757  1.3062  0.6284 -2.0691
  642MOL0     H86615   1.202   8.413   7.619  0.5554  1.7999  0.4864
  642MOL0     H86616   1.222   8.503   7.755  0.9986  0.8167 -0.0620
  642MOL0     H86617   1.426   8.400   7.780  0.0621 -0.2531 -1.4358
  642MOL0     H86618   1.333   8.271   7.855  0.3916  1.6430  0.6991
  642MOL0     H86619   1.387   8.295   7.546 -1.9549 -1.3157 -0.7014
  642MOL0     H86620   1.341   8.149   7.624 -0.3264 -0.5859  0.7053
  642MOL0     H86621   1.552   8.060   7.817 -2.6853  1.4190 -0.8770
  642MOL0     H86622   1.806   8.022   7.887 -3.2475  1.9809  0.9235
  642MOL0     H86623   1.917   8.066   7.749  2.5214  1.8943  0.9391
  642MOL0     H86624   1.955   8.141   8.002 -0.5275 -0.9063 -0.9972
  642MOL0     H86625   1.828   8.251   7.983  0.4206  1.8999  0.0781
  642MOL0     H86626   2.017   8.384   7.929 -5.0957  2.4560 -1.1104
  642MOL0     H86627   1.941   8.347   7.774 -1.6693 -5.0087 -1.2948
  642MOL0     H86628   2.108   8.153   7.758 -0.3864 -0.2208 -0.9771
  642MOL0     H86629   2.191   8.215   7.896 -0.2118 -0.3090 -1.1554
  642MOL0     H86630   2.380   8.462   7.591 -2.5966 -3.1394  0.3158
  642MOL0     H86631   2.540   8.744   7.619  1.2782  0.1439  0.5617
  642MOL0     H86632   2.669   8.659   7.666  1.2421 -0.3287 -4.5480
  642MOL0     H86633   2.562   8.581   7.545  1.2593  0.9565 -0.5758
  642MOL0     H86634   2.819   8.867   7.964  0.1835 -2.1095  0.1830
  642MOL0     H86635   2.973   8.995   8.127 -3.1591  3.8022  1.4753
  642MOL0     H86636   3.107   9.083   8.257  3.5467  0.4329  1.0998
  642MOL0     H86637   2.957   9.136   8.323  0.0197 -1.4101 -2.0840
  642MOL0     H86638   3.106   9.250   8.443  2.6696  0.4423  2.1875
  642MOL0     H86639   3.069   9.113   8.566 -0.2333  0.2388  0.2731
  642MOL0     H86640   3.313   9.158   8.398 -1.7698  1.8343 -0.6190
  642MOL0     H86641   3.286   9.008   8.492 -0.7142  0.5954  0.4886
  642MOL0     H86642   3.293   9.287   8.604  1.5222 -0.1813 -2.6793
  642MOL0     H86643   3.308   9.135   8.696 -2.7176 -0.3097  0.1860
  642MOL0     H86644   3.508   9.288   8.532 -1.2811 -0.1420 -3.7485
  642MOL0     H86645   3.504   9.109   8.510 -1.4118 -0.7135  1.0687
  642MOL0     H86646   3.562   9.245   8.782  2.1853  1.3541 -0.3284
  642MOL0     H86647   3.529   9.070   8.760  1.3477  1.2785  2.2635
  642MOL0     H86648   3.761   9.228   8.646  1.4036  0.1264  1.5984
  642MOL0     H86649   3.714   9.073   8.574 -3.0441  2.7511 -2.2683
  642MOL0     H86650   3.890   9.057   8.741  0.7919 -1.6308  0.5338
  642MOL0     H86651   3.754   8.955   8.767  0.1511 -0.0268  0.1876
  642MOL0     H86652   2.865   8.749   8.448  2.2168  0.8999 -1.1848
  642MOL0     H86653   2.698   8.624   8.296 -1.5029  0.8224  1.0980
  642MOL0     H86654   2.426   8.531   8.080  0.1906  1.0435 -0.6358
  642MOL0     H86655   2.260   8.384   8.007 -0.7566  0.1831 -0.2267
  642MOL0     H86656   0.611   8.320   8.326  1.1715 -2.9037 -3.8675
  642MOL0     H86657   0.421   8.342   8.468  0.8085  2.9144 -0.0072
  642MOL0     H86658   0.125   8.108   8.670  0.7866 -0.2213 -1.6781
  642MOL0     H86659  -0.055   8.118   8.854  0.8846  1.6651  0.9510
  642MOL0     H86660  -0.124   8.383   8.952 -0.1345  2.8804 -1.7662
  642MOL0     H86661  -0.277   8.461   8.924  0.7433  0.7090 -1.1778
  642MOL0     H86662  -0.217   8.347   9.154 -0.9055 -0.8805  0.8632
  642MOL0     H86663  -0.274   8.196   9.082  1.2498 -0.0737  0.5503
  642MOL0     H86664  -0.469   8.264   9.164  2.6810 -2.5915 -1.5133
  642MOL0     H86665  -0.492   8.330   9.007 -1.0602 -0.8531  0.3382
  642MOL0     H86666  -0.408   8.551   9.098 -1.7974  0.3994 -0.0225
  642MOL0     H86667  -0.406   8.487   9.265 -0.7181  0.1514 -0.0010
  642MOL0     H86668  -0.817   8.542   9.146  0.9779 -2.3613 -2.9317
  642MOL0     H86669  -0.241   8.442   8.635 -0.0860  1.0724  0.7282
  642MOL0     H86670  -0.062   8.408   8.449  2.2169 -2.3702 -1.2953
  643MOL0     O86671   6.291   6.012  10.109  0.5614  0.3263 -0.3729
  643MOL0     C86672   6.399   6.068  10.096 -0.7136  0.4618  0.6216
  643MOL0     O86673   6.507   6.061  10.184  0.2392  0.9047  0.5082
  643MOL0     C86674   6.501   5.962  10.286  1.0604 -0.1061  0.6308
  643MOL0     C86675   6.511   6.005  10.420  1.1502 -0.2183 -0.5632
  643MOL0     C86676   6.508   5.915  10.521  0.2580  0.3784 -0.0354
  643MOL0     C86677   6.487   5.777  10.495  0.0425 -0.1114 -0.6310
  643MOL0     O86678   6.476   5.689  10.595  0.3784 -0.1442 -0.0076
  643MOL0     C86679   6.559   5.695  10.719  0.4176 -0.0321 -0.9734
  643MOL0     C86680   6.697   5.645  10.670 -0.4805  1.6154 -0.6733
  643MOL0     C86681   6.687   5.492  10.626  0.0946 -0.6701 -0.1754
  643MOL0     C86682   6.811   5.458  10.539 -0.2332  0.2660  0.0615
  643MOL0     C86683   6.821   5.312  10.494 -1.0264  0.4981 -0.1288
  643MOL0     C86684   6.702   5.275  10.407 -0.5365  0.0584  0.9487
  643MOL0     C86685   6.724   5.153  10.313  0.8271 -0.6175 -0.1134
  643MOL0     C86686   6.703   5.021  10.386  0.3135 -0.2205  0.8938
  643MOL0     N86687   6.735   4.901  10.312  0.3367  0.5129  0.2969
  643MOL0     C86688   6.685   4.843  10.197 -0.4529  0.8395 -0.4183
  643MOL0     C86689   6.785   4.749  10.164 -0.7640 -0.9705 -0.2238
  643MOL0     C86690   6.791   4.666  10.040 -0.4688 -0.7884  0.0406
  643MOL0     C86691   6.665   4.580  10.020 -0.0590 -0.2269 -0.2371
  643MOL0     C86692   6.664   4.454  10.096 -0.4358  0.3015 -0.0882
  643MOL0     C86693   6.532   4.367  10.077 -0.6713 -0.5711 -0.1643
  643MOL0     O86694   6.414   4.446  10.119 -0.2556  1.0253 -0.6437
  643MOL0     C86695   6.291   4.396  10.076  0.0628  0.0283  0.0028
  643MOL0     C86696   6.267   4.282   9.990  0.0869  0.1727  0.2473
  643MOL0     C86697   6.138   4.248   9.955 -0.1760  0.6833 -0.6083
  643MOL0     C86698   6.132   4.122   9.868 -0.4309  0.4650  0.5097
  643MOL0     C86699   6.023   4.315  10.009  0.8357  0.4491  0.3111
  643MOL0     C86700   5.887   4.280   9.991 -0.0201  0.8021  0.3747
  643MOL0     O86701   5.799   4.307  10.089 -0.5376 -0.1468  0.1934
  643MOL0     C86702   5.674   4.249  10.083  0.1532 -0.5726 -0.6888
  643MOL0     C86703   5.663   4.109  10.074 -0.1628  0.4056 -0.2607
  643MOL0     C86704   5.538   4.042  10.075 -0.1109  0.2301 -1.5849
  643MOL0     C86705   5.423   4.119  10.075  0.1097 -1.1907 -0.1787
  643MOL0     O86706   5.301   4.076  10.029  0.1172 -0.3066 -0.0164
  643MOL0     C86707   5.276   3.937  10.042  0.4122  0.0668 -0.4831
  643MOL0     C86708   5.124   3.914  10.052 -0.1495  0.1320  0.7497
  643MOL0     C86709   5.059   4.005  10.148 -0.1888 -0.0569 -0.2474
  643MOL0     C86710   4.910   4.017  10.114 -0.6074 -0.3883  0.7527
  643MOL0     C86711   4.839   4.108  10.209 -0.4796 -0.2269 -0.8214
  643MOL0     C86712   4.916   4.244  10.221  0.1342 -0.7735 -1.3360
  643MOL0     C86713   4.824   4.333  10.299 -0.4041  0.3270  0.3274
  643MOL0     C86714   4.894   4.464  10.320  0.4769  0.3449 -0.9113
  643MOL0    Cl86715   4.791   4.568  10.424  0.1226  0.1674  0.1918
  643MOL0     C86716   5.433   4.258  10.108 -0.3971  0.1223 -1.0368
  643MOL0     C86717   5.556   4.320  10.122 -0.2196  0.3622 -0.6388
  643MOL0     O86718   5.855   4.224   9.886 -0.2395 -0.3035  0.0724
  643MOL0     C86719   6.054   4.427  10.084  0.2625 -0.9826 -0.0080
  643MOL0     C86720   6.177   4.466  10.128 -0.2615  0.4264 -0.3173
  643MOL0     N86721   6.874   4.742  10.271  0.8239  0.2776  0.0496
  643MOL0     N86722   6.839   4.824  10.359 -0.2368  0.0099 -0.2673
  643MOL0     C86723   6.466   5.732  10.371 -0.4030 -0.9421 -0.3785
  643MOL0     C86724   6.485   5.822  10.265 -0.2737 -0.8117 -0.1490
  643MOL0     C86725   6.424   6.160   9.983 -0.7461  0.8004  0.5349
  643MOL0     C86726   6.539   6.237   9.956 -0.4538 -0.1028 -0.0085
  643MOL0     C86727   6.548   6.320   9.842 -0.0681  0.1301 -0.4136
  643MOL0     C86728   6.433   6.343   9.769 -1.0056 -0.3727 -0.4107
  643MOL0     O86729   6.441   6.415   9.647 -0.1835  0.0398 -0.2381
  643MOL0     C86730   6.511   6.544   9.646 -0.1851  0.5459  0.2198
  643MOL0     C86731   6.457   6.641   9.749  0.0386  0.2593 -0.8688
  643MOL0     C86732   6.525   6.782   9.740  0.0386  0.0459  0.4598
  643MOL0     C86733   6.681   6.783   9.757 -0.2155  0.2722  0.6565
  643MOL0     C86734   6.732   6.715   9.872 -0.1378  1.0678 -0.1473
  643MOL0     C86735   6.779   6.661   9.975 -0.6266  0.1922 -0.2049
  643MOL0     C86736   6.315   6.276   9.789 -0.5634 -0.6953  0.1807
  643MOL0     C86737   6.312   6.192   9.903  0.6058  0.3473  0.3249
  643MOL0     H86738   6.528   6.110  10.439  1.0966 -0.4729  1.0193
  643MOL0     H86739   6.495   5.965  10.617 -1.7436  0.3892 -0.2538
  643MOL0     H86740   6.552   5.797  10.757 -0.2532 -0.7470  0.9243
  643MOL0     H86741   6.524   5.628  10.798  0.9052  1.9159  1.0016
  643MOL0     H86742   6.732   5.708  10.588  0.3125 -0.3780 -1.9310
  643MOL0     H86743   6.773   5.648  10.749  1.0205  1.5201 -2.0572
  643MOL0     H86744   6.681   5.432  10.717 -0.3136 -1.6569 -0.8432
  643MOL0     H86745   6.596   5.486  10.566 -0.3088  2.4136 -0.0701
  643MOL0     H86746   6.813   5.524  10.452  0.5796  0.7088  0.3989
  643MOL0     H86747   6.899   5.474  10.602  1.6765  0.1579 -2.4326
  643MOL0     H86748   6.921   5.293  10.453 -1.4484 -1.8170 -0.2326
  643MOL0     H86749   6.821   5.255  10.587 -1.8120 -1.2667 -1.1587
  643MOL0     H86750   6.629   5.263  10.487 -0.4015 -1.0410  0.9216
  643MOL0     H86751   6.666   5.355  10.341  0.2175 -2.1511 -2.4353
  643MOL0     H86752   6.661   5.156  10.224 -2.1913 -3.8847  1.6481
  643MOL0     H86753   6.824   5.169  10.272  1.2774 -1.4395  0.6214
  643MOL0     H86754   6.594   5.026  10.399  0.4083  1.7279  1.2744
  643MOL0     H86755   6.758   5.014  10.481  1.9681 -0.8495 -0.0666
  643MOL0     H86756   6.605   4.875  10.131 -0.1108  3.7467  0.4331
  643MOL0     H86757   6.804   4.728   9.951  0.0193  2.7966  2.3596
  643MOL0     H86758   6.882   4.606  10.035  0.3176  0.3674 -0.0577
  643MOL0     H86759   6.661   4.563   9.912 -1.5906  0.0213 -0.2418
  643MOL0     H86760   6.581   4.644  10.047  0.3044  2.0556 -3.9014
  643MOL0     H86761   6.680   4.466  10.204  1.0235  0.7886 -0.3383
  643MOL0     H86762   6.753   4.397  10.065  0.7284  3.1117 -2.3557
  643MOL0     H86763   6.538   4.271  10.130 -1.4182  0.4541  1.9060
  643MOL0     H86764   6.531   4.354   9.969 -0.0794  0.5829 -0.3250
  643MOL0     H86765   6.353   4.242   9.938  0.7630  2.7989 -0.8202
  643MOL0     H86766   6.236   4.090   9.855 -0.4767  0.1319  0.9502
  643MOL0     H86767   6.067   4.050   9.919  0.3349 -0.0431  0.8010
  643MOL0     H86768   6.095   4.154   9.770  0.1314  1.1162  0.5036
  643MOL0     H86769   5.758   4.056  10.086  0.5678  1.1011 -2.4495
  643MOL0     H86770   5.536   3.934  10.078 -0.0073  0.2374 -1.0773
  643MOL0     H86771   5.310   3.875   9.958 -1.3790 -3.9797  1.4692
  643MOL0     H86772   5.315   3.892  10.134 -1.4405  1.0870  0.8672
  643MOL0     H86773   5.088   3.939   9.952  2.3876 -0.4481 -0.4092
  643MOL0     H86774   5.114   3.812  10.090  1.1873  0.6015  2.5007
  643MOL0     H86775   5.111   4.100  10.163 -0.7558  0.7118 -2.5980
  643MOL0     H86776   5.049   3.956  10.245 -2.4724 -3.5812 -1.9992
  643MOL0     H86777   4.898   4.053  10.011 -1.8205  0.2578  1.1092
  643MOL0     H86778   4.868   3.916  10.114 -1.5230 -0.1742 -3.2375
  643MOL0     H86779   4.828   4.062  10.308  0.9233  2.8072  0.8634
  643MOL0     H86780   4.735   4.107  10.177 -1.5136 -0.6158  2.2306
  643MOL0     H86781   5.006   4.241  10.283 -1.6072 -0.4096  1.3783
  643MOL0     H86782   4.941   4.279  10.120  0.2704  0.8080 -0.7805
  643MOL0     H86783   4.818   4.293  10.401  0.6042 -1.0343 -0.1237
  643MOL0     H86784   4.731   4.344  10.243 -0.3468 -2.0707 -0.3306
  643MOL0     H86785   4.922   4.508  10.224 -1.4504 -0.3596 -1.8374
  643MOL0     H86786   4.986   4.445  10.376 -0.2196  0.0635  0.1731
  643MOL0     H86787   5.343   4.319  10.115  0.0167  0.5793  1.1468
  643MOL0     H86788   5.558   4.421  10.161 -0.7132 -0.3899  1.4972
  643MOL0     H86789   5.970   4.491  10.112  0.7691 -0.2140 -0.2278
  643MOL0     H86790   6.188   4.548  10.198 -3.2174  2.1708 -1.7086
  643MOL0     H86791   6.451   5.627  10.351 -4.0871 -0.3476 -1.5351
  643MOL0     H86792   6.491   5.782  10.164 -1.9769  2.7693 -1.8422
  643MOL0     H86793   6.628   6.228  10.018  2.3904 -2.0546 -3.9572
  643MOL0     H86794   6.635   6.382   9.822 -1.6708  3.3108  1.6213
  643MOL0     H86795   6.619   6.535   9.660 -0.4283  1.2527  3.3698
  643MOL0     H86796   6.492   6.595   9.551 -1.3509 -0.7261 -0.2458
  643MOL0     H86797   6.476   6.613   9.853  0.3903  1.7393 -0.5087
  643MOL0     H86798   6.350   6.655   9.736 -0.0369  2.3680  1.4351
  643MOL0     H86799   6.469   6.855   9.799  1.2369  0.4179  1.1754
  643MOL0     H86800   6.513   6.828   9.641 -0.7599  0.7340  0.8546
  643MOL0     H86801   6.724   6.883   9.771 -0.3259  0.3775  0.2424
  643MOL0     H86802   6.717   6.735   9.666 -3.4402  0.6934 -0.9611
  643MOL0     H86803   6.818   6.619  10.065 -2.5818  1.6710  1.4261
  643MOL0     H86804   6.240   6.289   9.711  0.3040  1.0798 -0.4087
  643MOL0     H86805   6.215   6.151   9.927  0.6840 -0.5666 -0.8747
  644MOL0     O86806   5.170   8.572   2.187 -0.4963 -0.5818 -0.5468
  644MOL0     C86807   5.089   8.520   2.110 -0.5236  1.0846  0.6491
  644MOL0     O86808   5.117   8.478   1.974 -0.6238  0.0682 -0.1945
  644MOL0     C86809   5.246   8.508   1.926 -0.1134  0.0302  0.1124
  644MOL0     C86810   5.338   8.410   1.882  0.4094  0.6651 -0.2034
  644MOL0     C86811   5.466   8.439   1.835 -0.6661  0.6777 -0.3429
  644MOL0     C86812   5.505   8.578   1.829 -0.9082  0.7387  0.8381
  644MOL0     O86813   5.633   8.606   1.789  0.3780 -0.2718  0.7219
  644MOL0     C86814   5.667   8.735   1.752 -0.2324  0.3594  1.3113
  644MOL0     C86815   5.782   8.718   1.666  0.8217 -0.4863  0.6019
  644MOL0     C86816   5.807   8.851   1.584  0.7439 -1.0747 -0.0272
  644MOL0     C86817   5.946   8.873   1.532  0.5050 -0.3972 -0.1230
  644MOL0     C86818   5.976   9.007   1.469 -0.1678  0.4450  0.2430
  644MOL0     C86819   5.902   9.042   1.338  0.6083 -0.0212  1.0320
  644MOL0     C86820   5.962   9.163   1.260 -0.4201  0.0985 -0.2659
  644MOL0     C86821   5.935   9.307   1.317  0.9274  0.4423  0.1151
  644MOL0     N86822   5.785   9.350   1.295 -0.3309  0.1244  0.8909
  644MOL0     C86823   5.691   9.303   1.208 -0.2140  0.0709 -0.7194
  644MOL0     C86824   5.587   9.385   1.214  0.4750  0.3468  0.1506
  644MOL0     C86825   5.463   9.360   1.143  0.6661 -0.7262  0.7626
  644MOL0     C86826   5.442   9.461   1.031  0.0714 -1.1365  0.4341
  644MOL0     C86827   5.295   9.477   0.966 -0.6258  0.2554 -0.5211
  644MOL0     C86828   5.185   9.470   1.067 -0.2421  0.1455 -0.0388
  644MOL0     O86829   5.057   9.474   1.009 -0.0985  0.4478 -0.1728
  644MOL0     C86830   4.942   9.435   1.085 -0.7173 -0.2571  0.5090
  644MOL0     C86831   4.942   9.405   1.220  0.0733  0.0809 -0.6960
  644MOL0     C86832   4.826   9.368   1.288 -0.3084  0.9284  0.6303
  644MOL0     C86833   4.850   9.328   1.423  0.4704 -0.0637  0.2140
  644MOL0     C86834   4.702   9.355   1.214 -0.1127 -0.0460  0.1173
  644MOL0     C86835   4.567   9.340   1.275 -0.6866 -1.0991  0.3436
  644MOL0     O86836   4.467   9.325   1.184 -0.1021 -0.2113 -0.3027
  644MOL0     C86837   4.334   9.344   1.199  0.9506  0.6372 -0.9581
  644MOL0     C86838   4.269   9.389   1.313  0.6018 -0.4976 -0.2075
  644MOL0     C86839   4.135   9.407   1.323  0.7995  0.0302  0.8898
  644MOL0     C86840   4.056   9.359   1.223 -0.3019  0.9357  0.6363
  644MOL0     O86841   3.917   9.344   1.227 -0.2764  0.2727 -0.0251
  644MOL0     C86842   3.839   9.366   1.341  0.3326 -0.4282 -0.8653
  644MOL0     C86843   3.734   9.261   1.359  0.1763  0.0418  0.3506
  644MOL0     C86844   3.617   9.285   1.261 -0.3882  0.7690  0.4473
  644MOL0     C86845   3.529   9.161   1.267 -0.0064 -1.1890  0.7989
  644MOL0     C86846   3.404   9.201   1.199  0.2616  0.9098 -0.6541
  644MOL0     C86847   3.403   9.136   1.053  0.4544 -0.5682  0.0961
  644MOL0     C86848   3.270   9.156   0.989 -0.4703  0.1352 -0.4055
  644MOL0     C86849   3.253   9.088   0.849  0.7530 -1.3133 -0.1533
  644MOL0    Cl86850   3.119   9.172   0.758  0.0282  0.0937  0.6620
  644MOL0     C86851   4.116   9.307   1.108 -0.2799 -0.1423  0.3257
  644MOL0     C86852   4.255   9.302   1.099 -0.0807 -0.3950  0.3348
  644MOL0     O86853   4.552   9.339   1.397 -0.2115 -0.1906  0.4737
  644MOL0     C86854   4.705   9.389   1.080 -0.1675  1.9844 -0.0910
  644MOL0     C86855   4.820   9.430   1.015 -0.2367  0.5593  0.1283
  644MOL0     N86856   5.624   9.484   1.316  0.3443  0.3247  0.3504
  644MOL0     N86857   5.738   9.458   1.364  0.7814  0.1844 -0.0775
  644MOL0     C86858   5.414   8.675   1.862 -1.1336 -0.2805  0.0062
  644MOL0     C86859   5.284   8.637   1.911  0.3506  0.1051  0.1051
  644MOL0     C86860   4.945   8.510   2.141  0.6649 -0.3622 -0.3253
  644MOL0     C86861   4.853   8.540   2.040  0.4015  0.8646  0.1017
  644MOL0     C86862   4.718   8.557   2.086 -0.9207  0.0832 -0.1503
  644MOL0     C86863   4.663   8.513   2.214 -1.2632 -0.1057  0.4857
  644MOL0     O86864   4.528   8.532   2.227  0.2305  1.0004  0.0919
  644MOL0     C86865   4.473   8.533   2.360  0.2320 -0.0391  0.0888
  644MOL0     C86866   4.322   8.516   2.349 -0.2655 -1.2349 -0.6920
  644MOL0     C86867   4.261   8.559   2.484  0.0879 -0.9279  0.3381
  644MOL0     C86868   4.109   8.523   2.493 -0.9756 -0.2463  0.4096
  644MOL0     C86869   4.063   8.587   2.624  0.5522 -0.3147  0.5106
  644MOL0     C86870   4.011   8.647   2.717 -0.9363 -0.5302  0.7155
  644MOL0     C86871   4.757   8.475   2.309 -0.1766  0.0787  0.1261
  644MOL0     C86872   4.892   8.476   2.274 -0.9897  0.1812 -0.3306
  644MOL0     H86873   5.302   8.308   1.885  1.9473 -0.0351 -2.6064
  644MOL0     H86874   5.538   8.362   1.811  0.8807  1.9681  0.0239
  644MOL0     H86875   5.580   8.762   1.691 -0.5480  0.0019  1.6058
  644MOL0     H86876   5.687   8.808   1.831  0.0301  0.6627  0.9744
  644MOL0     H86877   5.873   8.703   1.725  0.8779  0.9485  0.9036
  644MOL0     H86878   5.763   8.638   1.593 -2.4266  1.0207 -0.4121
  644MOL0     H86879   5.746   8.847   1.493  1.7467 -0.7598 -0.7316
  644MOL0     H86880   5.778   8.939   1.641  2.8161  2.1522 -3.5422
  644MOL0     H86881   6.001   8.871   1.626 -3.2062  3.5164  2.5173
  644MOL0     H86882   5.961   8.788   1.464 -0.1660  0.2951 -1.1761
  644MOL0     H86883   5.972   9.082   1.549 -1.0086 -0.3928  0.9986
  644MOL0     H86884   6.083   8.997   1.447 -0.8632 -3.8453 -2.2571
  644MOL0     H86885   5.892   8.955   1.272 -1.0400 -1.6657  3.3023
  644MOL0     H86886   5.799   9.059   1.370  0.2034 -0.1113 -0.1786
  644MOL0     H86887   6.067   9.131   1.264 -0.3715  0.3093  2.3919
  644MOL0     H86888   5.926   9.153   1.158 -0.0018 -1.0045 -0.3175
  644MOL0     H86889   6.011   9.372   1.272 -0.0258  1.1052 -0.5716
  644MOL0     H86890   5.959   9.324   1.423  2.1869 -2.4441  0.3656
  644MOL0     H86891   5.708   9.216   1.145  0.7023  2.7516 -4.5628
  644MOL0     H86892   5.449   9.258   1.106 -0.7900 -0.7310  1.2773
  644MOL0     H86893   5.391   9.379   1.222  2.8409  0.9967  2.4690
  644MOL0     H86894   5.508   9.444   0.945 -1.8295  1.7807 -1.7664
  644MOL0     H86895   5.461   9.557   1.079 -1.1778 -0.3618 -0.5689
  644MOL0     H86896   5.277   9.397   0.894  2.9450  0.1873 -1.5505
  644MOL0     H86897   5.296   9.564   0.900 -0.2065  0.5676 -0.1133
  644MOL0     H86898   5.199   9.561   1.126 -2.1867  0.3817  0.1288
  644MOL0     H86899   5.196   9.378   1.125 -1.8928  0.8207  1.4442
  644MOL0     H86900   5.035   9.414   1.276 -0.0040 -2.0953 -0.1349
  644MOL0     H86901   4.773   9.375   1.485 -2.1762 -3.4136 -0.2365
  644MOL0     H86902   4.826   9.221   1.427  4.1780 -1.2438 -3.2166
  644MOL0     H86903   4.947   9.353   1.465 -0.0366 -0.5298  1.7338
  644MOL0     H86904   4.335   9.414   1.395  1.5321  0.4802 -1.2159
  644MOL0     H86905   4.088   9.462   1.403 -0.0895  4.2714 -2.1787
  644MOL0     H86906   3.904   9.369   1.429  0.3926  3.2802 -0.8850
  644MOL0     H86907   3.788   9.463   1.336  0.5604 -0.3327 -1.4221
  644MOL0     H86908   3.774   9.162   1.338 -2.1633 -1.2690  1.7175
  644MOL0     H86909   3.696   9.266   1.461 -4.4551 -2.3498 -0.9897
  644MOL0     H86910   3.663   9.292   1.162  1.5521 -2.8291  0.9011
  644MOL0     H86911   3.580   9.380   1.299  0.5668  1.4034 -0.1625
  644MOL0     H86912   3.573   9.070   1.224  0.3993  0.7468 -3.2958
  644MOL0     H86913   3.510   9.133   1.371  0.4348 -3.1497  0.4026
  644MOL0     H86914   3.407   9.310   1.212  1.1767  0.7820  0.2747
  644MOL0     H86915   3.320   9.149   1.247  2.7711 -1.2060  1.7489
  644MOL0     H86916   3.481   9.176   0.987 -1.2964  0.8804 -1.1892
  644MOL0     H86917   3.424   9.029   1.052  1.0834 -0.4609  0.8228
  644MOL0     H86918   3.252   9.264   0.991  1.7639  0.5567  1.5639
  644MOL0     H86919   3.192   9.113   1.052 -1.6217  1.6374 -0.7613
  644MOL0     H86920   3.211   8.988   0.868 -0.0181 -1.0757 -0.5686
  644MOL0     H86921   3.346   9.089   0.792  0.4032  1.8248 -0.8523
  644MOL0     H86922   4.055   9.263   1.029  1.2704 -0.1865 -0.8890
  644MOL0     H86923   4.303   9.275   1.005 -1.6025  0.3587 -0.6931
  644MOL0     H86924   4.617   9.388   1.016 -0.3247 -1.2109  0.0035
  644MOL0     H86925   4.817   9.457   0.910  5.3070 -2.0265 -1.0678
  644MOL0     H86926   5.438   8.779   1.880 -4.7946  0.2845  2.7496
  644MOL0     H86927   5.226   8.726   1.931 -2.1949 -1.8929  2.3836
  644MOL0     H86928   4.888   8.568   1.941  2.0944 -2.1743 -0.2801
  644MOL0     H86929   4.651   8.573   2.003  0.0614 -0.0688 -0.9867
  644MOL0     H86930   4.506   8.445   2.418  1.7625 -0.7274 -1.7207
  644MOL0     H86931   4.503   8.620   2.419  0.5816  0.2760 -0.5416
  644MOL0     H86932   4.304   8.409   2.336 -2.2491 -0.8837 -1.2235
  644MOL0     H86933   4.290   8.570   2.259 -0.0201  3.1488  1.6180
  644MOL0     H86934   4.280   8.667   2.486  2.0311 -1.0288 -3.3328
  644MOL0     H86935   4.316   8.511   2.566  3.6326  2.3740  0.2051
  644MOL0     H86936   4.107   8.415   2.505 -0.5439 -0.4493 -1.0927
  644MOL0     H86937   4.043   8.544   2.409 -0.1284  2.5261  0.3200
  644MOL0     H86938   3.992   8.689   2.814  2.3648 -1.5248  1.9124
  644MOL0     H86939   4.739   8.437   2.410 -2.8236  0.1835 -0.2240
  644MOL0     H86940   4.961   8.433   2.345 -0.4749 -2.3146 -2.2251
  645MOL0     O86941   6.524   4.887   6.439  0.5489  0.4539 -0.7194
  645MOL0     C86942   6.607   4.972   6.423  0.3020 -0.3439  0.0088
  645MOL0     O86943   6.662   5.010   6.302  0.9316 -0.2141  0.3199
  645MOL0     C86944   6.636   4.945   6.181 -0.0370 -0.4197 -0.0607
  645MOL0     C86945   6.730   4.980   6.082  0.2239  0.3316  0.4632
  645MOL0     C86946   6.726   4.919   5.955  0.7974  0.4111  0.1952
  645MOL0     C86947   6.632   4.821   5.923  0.1070  0.1234 -0.4064
  645MOL0     O86948   6.619   4.754   5.804 -0.1249 -0.3069  0.4293
  645MOL0     C86949   6.628   4.842   5.699  0.3672  0.5150  0.0138
  645MOL0     C86950   6.616   4.769   5.568  0.1225  1.1040  0.0252
  645MOL0     C86951   6.479   4.701   5.529 -0.6379 -0.4612 -0.1412
  645MOL0     C86952   6.496   4.661   5.389  0.7629  0.1401  0.4582
  645MOL0     C86953   6.364   4.601   5.343 -0.0227 -0.0527 -0.3548
  645MOL0     C86954   6.377   4.526   5.209 -0.1665  0.6504 -0.5311
  645MOL0     C86955   6.258   4.529   5.119 -0.1347 -0.6834  0.1298
  645MOL0     C86956   6.124   4.491   5.182 -0.4235  0.1728 -0.3241
  645MOL0     N86957   6.016   4.468   5.087  0.8224 -0.6175  0.3054
  645MOL0     C86958   5.903   4.542   5.065 -0.0970 -0.1597  0.0431
  645MOL0     C86959   5.835   4.479   4.966 -0.0260 -0.0856 -0.4362
  645MOL0     C86960   5.711   4.531   4.885  0.7260  0.2012 -0.1046
  645MOL0     C86961   5.733   4.522   4.731 -0.0352  0.1701  0.6618
  645MOL0     C86962   5.615   4.593   4.666  0.3368  0.3101 -0.3842
  645MOL0     C86963   5.648   4.594   4.522 -0.1598 -0.1291  0.0833
  645MOL0     O86964   5.520   4.615   4.459  0.7599  0.1608  0.1216
  645MOL0     C86965   5.444   4.515   4.391 -0.7005  0.7739 -0.3193
  645MOL0     C86966   5.457   4.372   4.420 -0.8351 -0.1067 -0.1078
  645MOL0     C86967   5.396   4.279   4.339 -0.1178  0.1724 -0.0773
  645MOL0     C86968   5.424   4.131   4.376 -0.2806 -0.7743 -0.0811
  645MOL0     C86969   5.296   4.314   4.242  0.0599  0.4222  0.5544
  645MOL0     C86970   5.217   4.217   4.153 -0.2129  0.8283  0.3230
  645MOL0     O86971   5.098   4.269   4.114  0.8654 -0.1371  0.7221
  645MOL0     C86972   5.018   4.208   4.027 -0.0444 -2.0338  0.8363
  645MOL0     C86973   5.016   4.265   3.898  0.7899  0.2637 -0.3524
  645MOL0     C86974   4.925   4.208   3.806  0.5397  0.6168  0.0805
  645MOL0     C86975   4.861   4.086   3.828  0.3074  0.1021 -0.1129
  645MOL0     O86976   4.781   4.027   3.736 -0.3491  0.8027 -0.1337
  645MOL0     C86977   4.799   4.054   3.592  0.4371 -1.2017  0.6171
  645MOL0     C86978   4.714   3.959   3.509  0.5249  0.0297  0.0761
  645MOL0     C86979   4.570   4.007   3.499 -0.0689  0.7542 -0.5384
  645MOL0     C86980   4.488   3.905   3.419  0.3833 -0.4405  0.5656
  645MOL0     C86981   4.355   3.959   3.371  0.7950  0.1628  0.4170
  645MOL0     C86982   4.330   4.094   3.288 -0.9571  0.5070 -0.8046
  645MOL0     C86983   4.179   4.133   3.284  0.6674  0.2925 -0.0475
  645MOL0     C86984   4.143   4.270   3.218 -0.5331  0.7051  0.3240
  645MOL0    Cl86985   4.226   4.409   3.303  0.4895  0.0312  0.1180
  645MOL0     C86986   4.870   4.028   3.957 -0.0559  0.2529  0.7127
  645MOL0     C86987   4.948   4.091   4.059  0.9849  0.3330 -0.4412
  645MOL0     O86988   5.262   4.111   4.113  0.0218  0.4070  0.2261
  645MOL0     C86989   5.272   4.453   4.227 -0.1199  0.5130 -0.3566
  645MOL0     C86990   5.351   4.549   4.297 -0.0696  0.8448  0.2713
  645MOL0     N86991   5.911   4.370   4.920  0.2136 -0.5194 -0.4847
  645MOL0     N86992   6.018   4.366   4.993  0.3350  0.4248 -1.0447
  645MOL0     C86993   6.558   4.762   6.035  0.5549 -0.5704  0.4591
  645MOL0     C86994   6.560   4.831   6.164  0.4298  0.6680  1.3768
  645MOL0     C86995   6.629   5.052   6.541  0.4109 -0.3971  0.3986
  645MOL0     C86996   6.673   5.181   6.529 -0.2789 -0.6697 -0.1500
  645MOL0     C86997   6.706   5.250   6.646  0.6074 -0.3622 -0.8425
  645MOL0     C86998   6.701   5.198   6.780 -0.6336 -0.1760 -0.7712
  645MOL0     O86999   6.749   5.271   6.890 -0.3313  0.6024 -0.5005
  645MOL0     C87000   6.804   5.190   6.994 -0.4632  0.5326  0.1825
  645MOL0     C87001   6.891   5.268   7.096  0.0229 -0.4814  1.2614
  645MOL0     C87002   7.038   5.281   7.055  0.3751  0.2757 -0.2325
  645MOL0     C87003   7.049   5.342   6.921  0.9729  0.3114 -0.6446
  645MOL0     C87004   7.034   5.252   6.812  0.3571 -0.4408  0.1884
  645MOL0     C87005   7.022   5.165   6.732 -0.4034  0.0213  0.4836
  645MOL0     C87006   6.656   5.059   6.787 -0.2875 -0.8012 -0.5361
  645MOL0     C87007   6.616   4.998   6.669  0.9852  0.8025  0.6216
  645MOL0     H87008   6.805   5.058   6.096  0.6453  0.6819 -2.9364
  645MOL0     H87009   6.799   4.939   5.877  0.8783 -0.2706  0.0906
  645MOL0     H87010   6.539   4.905   5.707 -0.7423 -0.9515 -0.3864
  645MOL0     H87011   6.728   4.886   5.692  1.2028 -1.5306 -2.8132
  645MOL0     H87012   6.661   4.835   5.493  0.4779 -0.3349 -1.1033
  645MOL0     H87013   6.681   4.681   5.566 -1.2233  0.0825 -1.0581
  645MOL0     H87014   6.462   4.622   5.603 -1.1644  1.2048  1.6068
  645MOL0     H87015   6.400   4.776   5.545 -0.6356 -0.4755 -0.0580
  645MOL0     H87016   6.507   4.752   5.329  1.3866 -0.9668 -1.1725
  645MOL0     H87017   6.583   4.596   5.374 -0.1014 -1.0559  0.4752
  645MOL0     H87018   6.330   4.532   5.420 -0.2722 -0.8892 -1.1885
  645MOL0     H87019   6.296   4.684   5.322 -1.8211 -1.6789 -1.2922
  645MOL0     H87020   6.460   4.569   5.151  0.0014  0.8202 -0.1664
  645MOL0     H87021   6.398   4.425   5.244 -0.4048  1.2987  1.5839
  645MOL0     H87022   6.242   4.627   5.073 -1.7941 -0.5682  0.8799
  645MOL0     H87023   6.286   4.459   5.039  2.1806 -0.1763  0.4275
  645MOL0     H87024   6.098   4.557   5.266 -2.5016 -1.9174  0.7958
  645MOL0     H87025   6.135   4.392   5.227  1.6510  0.4057 -0.2254
  645MOL0     H87026   5.875   4.631   5.121 -0.0015 -0.8681  1.2383
  645MOL0     H87027   5.617   4.494   4.927  1.3884 -0.2781  0.9920
  645MOL0     H87028   5.707   4.639   4.903  1.7191  0.0160  1.3995
  645MOL0     H87029   5.740   4.423   4.684 -0.6691  1.5683 -2.6733
  645MOL0     H87030   5.821   4.584   4.714 -1.2004  1.8009  0.3426
  645MOL0     H87031   5.594   4.692   4.709 -0.3837  0.5052 -1.1415
  645MOL0     H87032   5.523   4.534   4.677 -0.8250  1.7672 -1.7386
  645MOL0     H87033   5.692   4.499   4.491  3.5759  2.0915 -2.0826
  645MOL0     H87034   5.716   4.670   4.483 -3.4696  2.8030 -0.4967
  645MOL0     H87035   5.526   4.347   4.500 -0.9969  1.8174  0.6964
  645MOL0     H87036   5.332   4.074   4.389  0.8693 -2.5302  0.9012
  645MOL0     H87037   5.476   4.081   4.293 -1.6752 -2.9634  0.2802
  645MOL0     H87038   5.484   4.124   4.468  2.0108 -1.3178 -1.5139
  645MOL0     H87039   5.081   4.350   3.884  0.3399  0.4822 -1.2077
  645MOL0     H87040   4.921   4.260   3.710 -1.2902  0.8623  0.2576
  645MOL0     H87041   4.763   4.155   3.569 -1.3376 -2.0140 -0.3743
  645MOL0     H87042   4.898   4.029   3.553  0.5606  0.8606 -0.5153
  645MOL0     H87043   4.757   3.942   3.410 -0.5846  0.7584 -0.5378
  645MOL0     H87044   4.725   3.861   3.558  0.3603 -0.0431 -0.0327
  645MOL0     H87045   4.565   4.108   3.458  0.4270  0.0209 -2.5206
  645MOL0     H87046   4.519   4.018   3.595  0.5096  1.9441 -0.3470
  645MOL0     H87047   4.547   3.894   3.328 -0.8593  1.2129 -0.4966
  645MOL0     H87048   4.468   3.807   3.465 -5.1392  0.7663  1.4450
  645MOL0     H87049   4.315   3.979   3.471  0.7474  1.2181  0.2066
  645MOL0     H87050   4.316   3.874   3.314 -0.5758  0.0076  1.5274
  645MOL0     H87051   4.386   4.177   3.332  0.7066 -0.5750 -0.7866
  645MOL0     H87052   4.381   4.078   3.193  0.7088 -1.0740  0.2775
  645MOL0     H87053   4.139   4.128   3.386 -0.6631  2.5747 -0.3741
  645MOL0     H87054   4.122   4.053   3.237  0.7930 -0.2570  0.7269
  645MOL0     H87055   4.035   4.266   3.203 -0.5694 -2.8318  0.5071
  645MOL0     H87056   4.186   4.262   3.117 -1.1787 -0.0234  0.1002
  645MOL0     H87057   4.822   3.933   3.978  1.8930 -1.1796 -0.8982
  645MOL0     H87058   4.969   4.051   4.158  1.2161 -1.2391 -1.0832
  645MOL0     H87059   5.202   4.479   4.148  1.8419 -1.1167 -2.7340
  645MOL0     H87060   5.340   4.653   4.268 -0.6045 -0.2642 -4.2272
  645MOL0     H87061   6.501   4.673   6.012 -1.4987  0.8194 -0.0628
  645MOL0     H87062   6.490   4.788   6.235 -0.9760 -0.8659 -0.7921
  645MOL0     H87063   6.681   5.225   6.430 -0.3099 -2.0742 -0.7926
  645MOL0     H87064   6.734   5.352   6.623 -1.6350 -0.0899 -2.7585
  645MOL0     H87065   6.717   5.154   7.049 -0.6650  0.4000 -0.2188
  645MOL0     H87066   6.863   5.106   6.957 -2.2395 -1.2726  1.2828
  645MOL0     H87067   6.890   5.212   7.190  0.0780 -0.2746  1.3866
  645MOL0     H87068   6.840   5.363   7.112 -0.0279 -0.4848  1.1280
  645MOL0     H87069   7.087   5.184   7.064  0.6889  0.5854  1.8718
  645MOL0     H87070   7.070   5.350   7.133 -3.0455 -0.0245  1.6246
  645MOL0     H87071   7.153   5.374   6.914  1.6827 -0.2647  3.8615
  645MOL0     H87072   6.988   5.432   6.912  2.4440  1.5724  1.2125
  645MOL0     H87073   6.998   5.092   6.656  0.7996  0.5188 -0.4184
  645MOL0     H87074   6.658   5.001   6.879 -1.2215  0.4992  0.3304
  645MOL0     H87075   6.576   4.897   6.664 -0.2835  1.3206 -2.6311
  646MOL0     O87076   4.593   4.003   9.873  0.2586 -0.0282  0.1531
  646MOL0     C87077   4.550   4.084   9.955  0.2200  0.5977  0.0019
  646MOL0     O87078   4.443   4.056  10.042 -0.8686 -0.1507  0.6096
  646MOL0     C87079   4.394   3.927  10.044 -0.2266  0.1531 -0.1034
  646MOL0     C87080   4.449   3.827  10.123 -0.4331 -0.6980  0.2812
  646MOL0     C87081   4.378   3.708  10.113 -0.0028  0.3242 -1.0691
  646MOL0     C87082   4.252   3.690  10.043 -0.3965  0.4137  0.4636
  646MOL0     O87083   4.166   3.589  10.052 -0.0581 -0.2149  0.3318
  646MOL0     C87084   4.183   3.488  10.155 -0.1607 -0.5601  0.0640
  646MOL0     C87085   4.063   3.393  10.154  0.2144 -1.0093  0.3173
  646MOL0     C87086   4.072   3.284  10.050 -0.6905  0.5860 -0.2162
  646MOL0     C87087   4.156   3.158  10.092  0.0021 -0.6020  0.1438
  646MOL0     C87088   4.150   3.043   9.993  0.4908 -0.2776 -0.1407
  646MOL0     C87089   4.248   2.929  10.035  0.0508  0.7661 -0.5305
  646MOL0     C87090   4.274   2.829   9.915  1.0992  1.5601  0.0374
  646MOL0     C87091   4.398   2.867   9.837  0.4617  0.5790 -0.3272
  646MOL0     N87092   4.439   2.780   9.728  0.5122 -0.1215  0.1252
  646MOL0     C87093   4.380   2.771   9.609  0.7209 -0.1349 -0.3887
  646MOL0     C87094   4.447   2.680   9.531 -1.1087  0.1894  0.3549
  646MOL0     C87095   4.406   2.624   9.400  0.2097 -0.4386  0.8328
  646MOL0     C87096   4.538   2.593   9.324  0.3228  1.1089  0.8394
  646MOL0     C87097   4.498   2.500   9.206 -0.1086 -0.6693  0.5001
  646MOL0     C87098   4.625   2.480   9.110  0.7893 -0.2957 -0.0041
  646MOL0     O87099   4.658   2.343   9.114 -0.0895  1.0773  0.2810
  646MOL0     C87100   4.791   2.310   9.101  0.2041 -0.3604 -0.1740
  646MOL0     C87101   4.856   2.232   9.202 -0.4810  0.5154  0.5188
  646MOL0     C87102   4.996   2.193   9.186  0.3301  0.1071 -0.1981
  646MOL0     C87103   5.042   2.097   9.296 -0.4547 -0.4766  1.4338
  646MOL0     C87104   5.065   2.227   9.063  0.8533 -0.7291 -0.1793
  646MOL0     C87105   5.202   2.179   9.044 -0.6693 -0.1654 -0.1405
  646MOL0     O87106   5.284   2.150   9.152 -0.3552 -0.2941 -0.2896
  646MOL0     C87107   5.394   2.068   9.134  0.8004 -0.4402 -0.2513
  646MOL0     C87108   5.386   1.935   9.182  0.2660  0.3737  0.0316
  646MOL0     C87109   5.503   1.847   9.173  0.1015 -1.1836  1.2700
  646MOL0     C87110   5.620   1.894   9.107  0.0259 -0.9107 -0.3037
  646MOL0     O87111   5.721   1.806   9.098 -0.0825  0.1866  0.1696
  646MOL0     C87112   5.769   1.788   8.961  0.0896 -0.4685  0.8322
  646MOL0     C87113   5.920   1.827   8.956 -0.4553  0.7743  0.3698
  646MOL0     C87114   5.977   1.796   8.817  0.3640 -0.3910  0.0311
  646MOL0     C87115   6.122   1.774   8.842 -0.3225  0.9306 -0.5629
  646MOL0     C87116   6.200   1.895   8.895  0.5553 -0.6220 -0.4494
  646MOL0     C87117   6.345   1.882   8.919 -0.7346  0.0687 -0.4341
  646MOL0     C87118   6.406   2.013   8.980 -0.0665  0.9668 -0.0453
  646MOL0     C87119   6.557   2.004   8.963  0.2394 -1.0239 -0.7643
  646MOL0    Cl87120   6.643   1.920   9.092  0.0990  0.1313 -0.3817
  646MOL0     C87121   5.631   2.026   9.059  0.8142 -0.4141 -0.3076
  646MOL0     C87122   5.526   2.110   9.086 -0.4083 -0.2715 -1.5868
  646MOL0     O87123   5.232   2.158   8.929  0.4850  1.0255  1.5380
  646MOL0     C87124   5.006   2.318   8.973  0.3586 -0.4243 -0.3782
  646MOL0     C87125   4.870   2.357   8.992 -0.1898  0.0356  0.4824
  646MOL0     N87126   4.548   2.634   9.612 -0.3606 -0.5545 -1.2402
  646MOL0     N87127   4.541   2.692   9.731  0.1320 -0.5381  0.2261
  646MOL0     C87128   4.220   3.791   9.959  0.0796  0.2783 -0.0472
  646MOL0     C87129   4.284   3.906   9.964  0.0820  0.1447 -0.2378
  646MOL0     C87130   4.604   4.217   9.954  0.2834  0.5009  0.4023
  646MOL0     C87131   4.529   4.329   9.999  0.1158 -0.2246  0.9774
  646MOL0     C87132   4.587   4.457  10.004  0.2614 -0.1278  0.4478
  646MOL0     C87133   4.708   4.483   9.941  0.0183 -0.9072 -0.2813
  646MOL0     O87134   4.763   4.609   9.935  0.0952  0.8598  0.1176
  646MOL0     C87135   4.784   4.663  10.069 -0.8730 -0.3010  0.7931
  646MOL0     C87136   4.758   4.818  10.061 -0.2523  0.0568 -0.8016
  646MOL0     C87137   4.604   4.851  10.061  0.1657 -0.1560 -0.2134
  646MOL0     C87138   4.583   4.997  10.076  0.9157 -0.5778  0.3377
  646MOL0     C87139   4.445   5.040  10.116  0.0101  0.5359  0.2723
  646MOL0     C87140   4.333   5.072  10.148 -1.0539 -0.2209  1.1292
  646MOL0     C87141   4.783   4.372   9.892  1.1625  0.7920  0.6201
  646MOL0     C87142   4.733   4.248   9.899  0.7790  0.6487 -0.4194
  646MOL0     H87143   4.533   3.830  10.192 -2.3511  2.2236  2.7790
  646MOL0     H87144   4.419   3.623  10.166 -0.6177  0.2294 -0.7293
  646MOL0     H87145   4.274   3.435  10.126 -0.8456 -0.6392 -2.1267
  646MOL0     H87146   4.194   3.526  10.257 -2.6664  1.5225 -0.3403
  646MOL0     H87147   4.049   3.360  10.257  0.9412 -0.3961  0.6227
  646MOL0     H87148   3.968   3.445  10.140  0.3669 -0.8973 -0.3693
  646MOL0     H87149   3.971   3.251  10.022 -1.5030  1.8164  1.1110
  646MOL0     H87150   4.112   3.344   9.968  0.3076  2.2070  1.3770
  646MOL0     H87151   4.260   3.190  10.101 -0.4366  1.5745 -1.5425
  646MOL0     H87152   4.133   3.117  10.190  2.4437 -2.2315  0.1228
  646MOL0     H87153   4.044   3.017   9.985 -0.2206  2.4666 -0.5936
  646MOL0     H87154   4.175   3.070   9.890  2.6355 -0.9731  0.1346
  646MOL0     H87155   4.345   2.975  10.056 -0.9788  2.0554  1.7723
  646MOL0     H87156   4.216   2.874  10.123  0.5689 -1.5788 -1.7155
  646MOL0     H87157   4.279   2.724   9.945  2.3881  2.4039  3.1751
  646MOL0     H87158   4.190   2.847   9.847  0.2140  1.3011  1.0461
  646MOL0     H87159   4.483   2.868   9.906  0.6899 -0.6290 -0.5732
  646MOL0     H87160   4.385   2.973   9.812 -0.1558  0.3713 -0.9085
  646MOL0     H87161   4.287   2.815   9.577 -1.0751 -1.7976  2.1362
  646MOL0     H87162   4.334   2.542   9.406 -1.8882  0.7946 -3.3603
  646MOL0     H87163   4.351   2.701   9.345 -2.2668 -2.6503  0.0145
  646MOL0     H87164   4.614   2.539   9.381  0.4608  0.2527 -0.1343
  646MOL0     H87165   4.573   2.689   9.284 -2.3633  1.3470 -1.1670
  646MOL0     H87166   4.421   2.558   9.156  1.9329  2.1607  0.4338
  646MOL0     H87167   4.464   2.401   9.240 -1.7080 -0.8908 -1.5678
  646MOL0     H87168   4.715   2.530   9.146 -0.4005  2.2477 -0.3269
  646MOL0     H87169   4.606   2.523   9.012  0.6234  0.7021  0.4457
  646MOL0     H87170   4.813   2.203   9.297  0.9423  0.1326  1.0584
  646MOL0     H87171   5.126   2.141   9.349  0.6539 -2.4188  1.3947
  646MOL0     H87172   4.966   2.074   9.372 -0.3703 -0.4211  1.5358
  646MOL0     H87173   5.073   2.002   9.250  0.1643  0.4502 -0.1237
  646MOL0     H87174   5.295   1.889   9.222  1.7688 -2.8060  0.1372
  646MOL0     H87175   5.489   1.748   9.215  2.6795 -1.9035  0.6013
  646MOL0     H87176   5.759   1.681   8.943 -4.4467 -0.3415  1.5495
  646MOL0     H87177   5.712   1.839   8.883  3.0283 -1.0433 -1.9070
  646MOL0     H87178   5.927   1.934   8.980 -1.5168  0.9512 -0.0380
  646MOL0     H87179   5.976   1.776   9.035  0.0614 -0.6173 -0.8423
  646MOL0     H87180   5.958   1.886   8.757  0.1472  0.3694  1.2199
  646MOL0     H87181   5.933   1.707   8.770 -0.3423 -0.7527  1.3433
  646MOL0     H87182   6.137   1.688   8.908 -0.9939 -0.5895 -2.2974
  646MOL0     H87183   6.173   1.737   8.753  0.2507 -0.2230  0.2209
  646MOL0     H87184   6.172   1.920   8.998  1.3040  0.4269 -0.4835
  646MOL0     H87185   6.177   1.990   8.846  0.3344  0.0774  0.9431
  646MOL0     H87186   6.357   1.802   8.994  1.5568 -1.5322 -2.3624
  646MOL0     H87187   6.398   1.859   8.826 -1.1822 -0.1103 -0.6457
  646MOL0     H87188   6.381   2.024   9.086 -0.1433 -0.7230  0.1413
  646MOL0     H87189   6.368   2.095   8.917 -1.6710 -0.1083 -0.5550
  646MOL0     H87190   6.598   2.105   8.965  1.0584 -1.3614 -0.1010
  646MOL0     H87191   6.590   1.963   8.866 -0.5660  2.2085 -2.5645
  646MOL0     H87192   5.722   2.055   9.007 -0.9784  2.2287 -2.2276
  646MOL0     H87193   5.559   2.209   9.056  3.4394 -0.2422  1.9229
  646MOL0     H87194   5.061   2.367   8.894 -0.6181  1.2243 -0.0846
  646MOL0     H87195   4.819   2.422   8.922  0.1593 -0.5866 -0.3639
  646MOL0     H87196   4.126   3.783   9.905 -0.8885  0.1904  1.5783
  646MOL0     H87197   4.259   3.986   9.895  1.4168  2.0010  1.3085
  646MOL0     H87198   4.425   4.320  10.028 -2.0552  0.6676 -5.1396
  646MOL0     H87199   4.523   4.540  10.033 -0.9271 -1.5063  1.9824
  646MOL0     H87200   4.741   4.608  10.153 -0.2699 -0.4751  0.9972
  646MOL0     H87201   4.893   4.663  10.083 -0.7807  1.3673  0.3667
  646MOL0     H87202   4.814   4.870   9.983  2.4755  1.6773  1.9601
  646MOL0     H87203   4.795   4.862  10.154 -1.6197 -1.5708  0.5866
  646MOL0     H87204   4.566   4.795  10.148  3.5920 -1.0674  0.8730
  646MOL0     H87205   4.568   4.813   9.965  0.9881 -1.5901  0.0065
  646MOL0     H87206   4.593   5.052   9.982 -1.9435  2.1110  1.4216
  646MOL0     H87207   4.660   5.026  10.149  0.7394  0.4537  0.1318
  646MOL0     H87208   4.234   5.103  10.176 -1.9267 -0.7235 -1.1454
  646MOL0     H87209   4.883   4.389   9.852  0.8551  0.5712 -0.2759
  646MOL0     H87210   4.797   4.175   9.850  0.4303  1.1874 -1.7060
  647MOL0     O87211   8.696   2.914   0.103  0.1777  0.0372 -0.3624
  647MOL0     C87212   8.750   2.959   0.204  0.6016  0.0984 -0.3170
  647MOL0     O87213   8.696   3.047   0.297  0.1801 -0.2190  0.1622
  647MOL0     C87214   8.610   3.130   0.248  0.4313  0.3822  0.9582
  647MOL0     C87215   8.630   3.207   0.135  0.6982  0.7991 -0.2602
  647MOL0     C87216   8.531   3.283   0.082  0.0379  0.5059  0.2548
  647MOL0     C87217   8.409   3.287   0.142 -0.0935  0.3912  0.2782
  647MOL0     O87218   8.308   3.368   0.106 -0.1207 -0.2547  0.6674
  647MOL0     C87219   8.302   3.420  -0.025  0.6305 -0.2035  0.5411
  647MOL0     C87220   8.188   3.524  -0.025 -0.9327  0.2755  0.9829
  647MOL0     C87221   8.057   3.456  -0.051 -0.0202 -0.2991  0.2110
  647MOL0     C87222   7.943   3.559  -0.026  1.0855 -0.6264  0.0258
  647MOL0     C87223   7.948   3.685  -0.122  0.2560 -0.4155  0.0178
  647MOL0     C87224   7.821   3.775  -0.093 -0.5331 -0.2171 -0.0844
  647MOL0     C87225   7.784   3.856  -0.217 -0.1598  0.7010  0.3080
  647MOL0     C87226   7.680   3.954  -0.177  1.2335 -0.2282 -1.2055
  647MOL0     N87227   7.638   4.031  -0.293  0.0148 -0.4179 -0.3649
  647MOL0     C87228   7.550   3.992  -0.392  0.7816  0.4820 -0.0985
  647MOL0     C87229   7.546   4.095  -0.474 -0.5802  0.4277 -0.3125
  647MOL0     C87230   7.455   4.116  -0.588 -0.4469 -0.1003 -0.5122
  647MOL0     C87231   7.385   4.263  -0.589  0.3800  0.2882 -0.0264
  647MOL0     C87232   7.343   4.328  -0.449  0.2307  0.1966  0.4259
  647MOL0     C87233   7.232   4.256  -0.370  0.2870 -0.2480  0.3211
  647MOL0     O87234   7.169   4.345  -0.278 -0.2043 -0.1854 -0.3019
  647MOL0     C87235   7.079   4.443  -0.321 -0.0168  1.4323 -1.1045
  647MOL0     C87236   6.994   4.434  -0.438  1.0219  0.3485 -0.2594
  647MOL0     C87237   6.919   4.550  -0.481  0.1800  0.4263  0.2573
  647MOL0     C87238   6.853   4.525  -0.621 -0.6848  0.2482  0.4535
  647MOL0     C87239   6.919   4.670  -0.400  0.6753  0.2791  0.3984
  647MOL0     C87240   6.832   4.785  -0.434  0.3344  0.0561  0.2564
  647MOL0     O87241   6.747   4.778  -0.539  0.9058  0.1549  0.9111
  647MOL0     C87242   6.678   4.882  -0.598 -0.3292 -0.0083  0.5111
  647MOL0     C87243   6.700   5.019  -0.576  0.2310  1.1333  0.4722
  647MOL0     C87244   6.617   5.118  -0.637 -0.6368 -0.9053  0.4117
  647MOL0     C87245   6.531   5.088  -0.735 -0.2271  0.3450  1.1899
  647MOL0     O87246   6.467   5.197  -0.797 -0.8158  0.1850  0.0652
  647MOL0     C87247   6.356   5.176  -0.879 -0.2133 -0.3705  0.4337
  647MOL0     C87248   6.293   5.317  -0.918  0.3088 -0.4753  0.3980
  647MOL0     C87249   6.176   5.290  -1.015  0.4003 -0.6242  0.3123
  647MOL0     C87250   6.136   5.414  -1.084 -0.3991 -0.6403  0.8681
  647MOL0     C87251   6.151   5.428  -1.243 -0.8475 -0.1010 -0.8004
  647MOL0     C87252   6.160   5.565  -1.298  0.4437  0.0203 -0.0903
  647MOL0     C87253   6.028   5.643  -1.273  0.1563  0.2000  0.0662
  647MOL0     C87254   5.943   5.658  -1.397 -0.0048  0.2531 -0.3250
  647MOL0    Cl87255   5.797   5.744  -1.354  0.3779 -0.0280  0.3389
  647MOL0     C87256   6.510   4.950  -0.762 -0.8844 -0.4671  0.3647
  647MOL0     C87257   6.581   4.848  -0.691 -0.1334 -0.7985  0.1986
  647MOL0     O87258   6.851   4.880  -0.364 -0.0898  0.2373 -0.1960
  647MOL0     C87259   6.987   4.662  -0.274 -0.5902  0.2656 -1.1516
  647MOL0     C87260   7.075   4.563  -0.243  0.3648 -0.2655  0.8695
  647MOL0     N87261   7.642   4.185  -0.437 -0.0275  0.1786 -0.1584
  647MOL0     N87262   7.696   4.154  -0.321  0.1078  0.0707 -0.1933
  647MOL0     C87263   8.379   3.202   0.248 -0.1528  0.1867 -0.8386
  647MOL0     C87264   8.483   3.128   0.304  0.3147  0.0281 -0.2352
  647MOL0     C87265   8.880   2.906   0.245  0.0233 -0.5265  0.4903
  647MOL0     C87266   8.937   2.802   0.167 -1.0132  0.1887  0.1308
  647MOL0     C87267   9.066   2.755   0.194 -0.4870  0.2869 -1.2294
  647MOL0     C87268   9.138   2.817   0.296  0.2191 -0.0719  0.6516
  647MOL0     O87269   9.270   2.774   0.327 -0.4371 -0.4306 -0.5365
  647MOL0     C87270   9.371   2.787   0.235  0.1191 -0.2635  0.8418
  647MOL0     C87271   9.418   2.646   0.171  0.4001 -0.7649  0.6565
  647MOL0     C87272   9.492   2.551   0.265  0.2598 -0.9035 -0.3148
  647MOL0     C87273   9.641   2.591   0.278 -0.0438  0.8072 -0.3788
  647MOL0     C87274   9.696   2.587   0.144 -0.1182 -0.1340 -0.6092
  647MOL0     C87275   9.735   2.589   0.027  0.3707  0.6679  0.1804
  647MOL0     C87276   9.082   2.914   0.384 -0.8693 -0.0853 -0.0583
  647MOL0     C87277   8.954   2.950   0.365 -0.7448 -0.3422  0.3704
  647MOL0     H87278   8.733   3.210   0.100  1.0277 -1.5590  0.2839
  647MOL0     H87279   8.562   3.363   0.016 -0.6247  1.4562  1.0705
  647MOL0     H87280   8.393   3.477  -0.044  1.8391 -1.7325  1.5150
  647MOL0     H87281   8.301   3.341  -0.100  0.4766 -1.6534  2.0069
  647MOL0     H87282   8.179   3.563   0.077 -1.4778  7.5421 -1.3150
  647MOL0     H87283   8.208   3.605  -0.096  0.0214  1.0497  2.0949
  647MOL0     H87284   8.045   3.416  -0.152  0.0430  1.0524 -0.3560
  647MOL0     H87285   8.042   3.377   0.022  2.9365 -1.5865 -0.4344
  647MOL0     H87286   7.853   3.499  -0.035 -0.4281  1.5608 -0.3696
  647MOL0     H87287   7.948   3.594   0.078  0.4285 -0.2378 -0.0658
  647MOL0     H87288   8.039   3.738  -0.094  0.7794 -1.2348 -0.1005
  647MOL0     H87289   7.952   3.655  -0.227 -2.6661  1.3015 -0.7074
  647MOL0     H87290   7.732   3.716  -0.070 -1.9053  2.3859  1.7125
  647MOL0     H87291   7.843   3.846  -0.013 -0.3712  1.1857 -1.3380
  647MOL0     H87292   7.875   3.909  -0.247  1.5239 -2.3349 -0.3843
  647MOL0     H87293   7.750   3.790  -0.297 -2.8037  0.6763  1.3528
  647MOL0     H87294   7.731   4.019  -0.106  1.2773 -2.9473  1.4672
  647MOL0     H87295   7.593   3.907  -0.131  0.0104  4.2573  1.6518
  647MOL0     H87296   7.494   3.900  -0.404 -0.1760  1.1585 -0.9783
  647MOL0     H87297   7.507   4.121  -0.684  0.3330  2.2653 -0.0315
  647MOL0     H87298   7.378   4.039  -0.585 -0.3829 -0.1384  1.2614
  647MOL0     H87299   7.306   4.262  -0.664  3.1108  2.4172 -3.2679
  647MOL0     H87300   7.449   4.345  -0.624 -2.5410  4.1500  2.8784
  647MOL0     H87301   7.296   4.425  -0.467 -2.5554 -1.1550 -0.2792
  647MOL0     H87302   7.434   4.346  -0.391  1.0834 -0.8975 -0.5285
  647MOL0     H87303   7.271   4.172  -0.312 -0.9732 -0.5417  0.7681
  647MOL0     H87304   7.163   4.219  -0.447  0.7138  3.4697 -2.1695
  647MOL0     H87305   7.009   4.348  -0.502  0.0381  1.4067 -1.9868
  647MOL0     H87306   6.890   4.427  -0.654 -1.3374 -0.0712  0.6586
  647MOL0     H87307   6.744   4.519  -0.626 -0.6254 -2.7020 -5.6349
  647MOL0     H87308   6.873   4.597  -0.701  0.1668  3.1333  3.0393
  647MOL0     H87309   6.783   5.043  -0.511  0.4588 -1.7562  1.3952
  647MOL0     H87310   6.624   5.225  -0.627 -0.3253 -0.8378 -0.4096
  647MOL0     H87311   6.393   5.117  -0.963  0.5540 -2.3952  2.1106
  647MOL0     H87312   6.284   5.108  -0.832 -0.7528  0.5098  0.9195
  647MOL0     H87313   6.250   5.359  -0.827 -0.5102  0.1997 -0.2736
  647MOL0     H87314   6.360   5.388  -0.966 -0.1955 -0.1652  0.1407
  647MOL0     H87315   6.091   5.261  -0.952 -2.9139  3.4939 -1.7753
  647MOL0     H87316   6.196   5.210  -1.087  5.3086 -0.1050  0.7520
  647MOL0     H87317   6.028   5.422  -1.073 -0.4875  1.4398 -0.8522
  647MOL0     H87318   6.175   5.504  -1.034  0.6473  1.5761 -3.4669
  647MOL0     H87319   6.066   5.377  -1.289 -1.7315  0.8147 -0.2026
  647MOL0     H87320   6.234   5.360  -1.265 -1.1863 -0.1587 -1.9393
  647MOL0     H87321   6.245   5.614  -1.249  1.7408 -2.2492  0.0625
  647MOL0     H87322   6.185   5.571  -1.405 -2.7890 -1.5334 -1.0651
  647MOL0     H87323   6.057   5.743  -1.238  0.9272 -0.6602  2.0239
  647MOL0     H87324   5.973   5.595  -1.192 -2.2894  1.0403 -0.9937
  647MOL0     H87325   5.925   5.559  -1.439  3.9643 -0.9746  0.4442
  647MOL0     H87326   5.987   5.713  -1.481 -1.2874  0.8242 -0.6454
  647MOL0     H87327   6.444   4.920  -0.844  0.5460 -3.6681  0.2265
  647MOL0     H87328   6.575   4.746  -0.727 -1.0493 -1.5253  2.2677
  647MOL0     H87329   7.001   4.750  -0.213  3.2072 -1.5453  0.9596
  647MOL0     H87330   7.133   4.568  -0.152 -0.2164  2.4406  1.1781
  647MOL0     H87331   8.273   3.212   0.265 -0.3079 -1.4383 -0.6982
  647MOL0     H87332   8.464   3.065   0.390  1.9281 -1.1847 -0.6981
  647MOL0     H87333   8.881   2.756   0.086 -0.5415 -0.1385 -0.0137
  647MOL0     H87334   9.114   2.685   0.127 -1.1673 -2.8745  1.3452
  647MOL0     H87335   9.338   2.864   0.165  0.2722 -0.8248  0.1442
  647MOL0     H87336   9.464   2.820   0.282 -0.0837  0.8538  0.4730
  647MOL0     H87337   9.471   2.665   0.077 -1.2521 -2.9049 -0.7968
  647MOL0     H87338   9.330   2.591   0.138  0.3631  0.2981 -1.2045
  647MOL0     H87339   9.485   2.445   0.236  1.3595 -1.2227  0.5213
  647MOL0     H87340   9.460   2.567   0.368 -1.4503 -2.0436 -0.6276
  647MOL0     H87341   9.709   2.528   0.335  0.8545  2.0793 -0.0170
  647MOL0     H87342   9.650   2.685   0.333  0.2133 -0.0023  0.9972
  647MOL0     H87343   9.771   2.596  -0.073  0.1004 -1.3743 -0.1101
  647MOL0     H87344   9.137   2.962   0.465  0.1546  2.0359 -1.8969
  647MOL0     H87345   8.923   3.032   0.430  0.8814  0.5342  0.1042
  648MOL0     O87346   4.442  10.251   5.886  0.3542 -0.2420 -1.0435
  648MOL0     C87347   4.542  10.173   5.879 -0.0487 -0.8182  0.6921
  648MOL0     O87348   4.535  10.040   5.915 -0.2733  0.3538 -0.0296
  648MOL0     C87349   4.412   9.983   5.947 -0.3048  0.1613 -0.4286
  648MOL0     C87350   4.294  10.022   5.883  0.5002 -0.0786 -0.1750
  648MOL0     C87351   4.175   9.960   5.938  0.2932  0.2245  1.0381
  648MOL0     C87352   4.166   9.865   6.040  0.1446  0.6353  0.9497
  648MOL0     O87353   4.040   9.825   6.092  0.3245 -0.9135 -0.7676
  648MOL0     C87354   4.039   9.738   6.210 -0.6263  0.3824 -0.2345
  648MOL0     C87355   3.898   9.740   6.261  0.3448  0.2200 -1.0715
  648MOL0     C87356   3.831   9.873   6.275 -0.8132  0.2630  0.6001
  648MOL0     C87357   3.875   9.952   6.402  0.7217 -0.1046 -0.4652
  648MOL0     C87358   3.804   9.918   6.528 -0.2110  0.2079 -0.1633
  648MOL0     C87359   3.817  10.021   6.646 -0.9638 -0.1175  0.5285
  648MOL0     C87360   3.959  10.077   6.667 -0.4956 -0.1785  0.7155
  648MOL0     C87361   4.062   9.971   6.697 -0.4708  0.7324 -0.2798
  648MOL0     N87362   4.182  10.028   6.763 -0.7223  0.2895  1.0454
  648MOL0     C87363   4.252  10.135   6.705 -0.7451 -0.6283  0.4706
  648MOL0     C87364   4.333  10.178   6.805 -0.4833  0.3894 -0.0144
  648MOL0     C87365   4.431  10.299   6.803  0.6135 -0.3472 -0.1788
  648MOL0     C87366   4.573  10.260   6.757 -0.1451 -0.5754  0.7795
  648MOL0     C87367   4.582  10.219   6.609  0.9809 -0.5260 -0.0411
  648MOL0     C87368   4.724  10.152   6.581  0.4686 -0.4772  0.1775
  648MOL0     O87369   4.835  10.246   6.592 -0.4307 -0.5457 -0.7644
  648MOL0     C87370   4.958  10.193   6.629  0.1742  0.2816  0.0756
  648MOL0     C87371   4.974  10.088   6.723  1.2522  0.1101 -0.5590
  648MOL0     C87372   5.096  10.037   6.763 -0.0532 -0.0684 -0.4497
  648MOL0     C87373   5.089   9.935   6.862 -0.1192 -0.4019  0.8410
  648MOL0     C87374   5.218  10.083   6.706 -0.2488 -0.1077  0.5313
  648MOL0     C87375   5.349  10.045   6.761  0.1377 -0.7130 -0.2447
  648MOL0     O87376   5.446  10.035   6.668 -0.3339 -0.4838 -0.3550
  648MOL0     C87377   5.573  10.029   6.708 -0.3124  0.6495 -0.3273
  648MOL0     C87378   5.626   9.958   6.819 -0.3951  0.1036 -0.8948
  648MOL0     C87379   5.764   9.934   6.829  0.5550  0.6725 -1.0206
  648MOL0     C87380   5.852   9.978   6.733 -0.5421 -1.0149  0.1011
  648MOL0     O87381   5.994   9.968   6.752  0.2243 -0.1680 -0.2206
  648MOL0     C87382   6.047   9.910   6.869  0.7183  0.2169  0.5127
  648MOL0     C87383   6.200   9.942   6.886  0.0480  0.6860 -0.3540
  648MOL0     C87384   6.286   9.936   6.753 -0.2798 -0.1330  0.0311
  648MOL0     C87385   6.436   9.973   6.770  0.9153 -0.2896  0.4124
  648MOL0     C87386   6.460  10.121   6.769 -0.4341 -0.5407 -0.4986
  648MOL0     C87387   6.611  10.128   6.756 -0.0838  0.5749 -0.7911
  648MOL0     C87388   6.672  10.264   6.757 -1.3654  0.1006 -0.1871
  648MOL0     C87389   6.821  10.253   6.715  0.7296 -0.5400 -0.6467
  648MOL0    Cl87390   6.830  10.221   6.549 -0.5649 -0.1648 -0.2544
  648MOL0     C87391   5.806  10.052   6.623  0.5359  1.1072  0.2093
  648MOL0     C87392   5.669  10.070   6.605  1.0613  0.2273  0.0908
  648MOL0     O87393   5.363  10.050   6.882  0.0978 -0.1110 -0.1753
  648MOL0     C87394   5.205  10.190   6.612 -0.4631 -0.4694 -0.4837
  648MOL0     C87395   5.076  10.230   6.561  0.3758 -0.5512 -0.1085
  648MOL0     N87396   4.333  10.090   6.906  0.0982 -0.1791  0.8930
  648MOL0     N87397   4.242   9.999   6.880 -0.1484 -0.2583  0.5237
  648MOL0     C87398   4.295   9.823   6.091  0.5773 -0.4950 -0.7550
  648MOL0     C87399   4.419   9.879   6.041 -0.1784  0.0628  0.0517
  648MOL0     C87400   4.671  10.239   5.828  0.1885 -0.1848 -0.7107
  648MOL0     C87401   4.668  10.363   5.769 -0.6387 -0.1009  0.4723
  648MOL0     C87402   4.793  10.422   5.735  0.3671 -0.1941  0.0691
  648MOL0     C87403   4.912  10.355   5.755 -0.0903 -0.1582 -0.0223
  648MOL0     O87404   5.023  10.431   5.750  0.0938  0.5904  0.5815
  648MOL0     C87405   5.100  10.439   5.627  0.4208 -0.2504 -0.3202
  648MOL0     C87406   5.209  10.332   5.634  0.5542  0.1541 -0.1030
  648MOL0     C87407   5.331  10.363   5.546  1.2011 -0.0597 -0.7373
  648MOL0     C87408   5.458  10.303   5.592 -0.1376  0.1287 -0.1167
  648MOL0     C87409   5.499  10.360   5.723  0.1165  0.3439  0.0375
  648MOL0     C87410   5.541  10.422   5.812  1.4540  0.5613  0.0968
  648MOL0     C87411   4.913  10.226   5.814 -0.2892  0.4147  0.9647
  648MOL0     C87412   4.797  10.176   5.862  1.3942  0.8815  0.1267
  648MOL0     H87413   4.299  10.100   5.808 -0.4033  1.0154  0.8592
  648MOL0     H87414   4.089   9.998   5.883  1.0851  2.1483  1.0646
  648MOL0     H87415   4.071   9.642   6.168 -0.2640 -0.1426  1.1976
  648MOL0     H87416   4.110   9.774   6.285  1.0346  1.3049 -2.1552
  648MOL0     H87417   3.838   9.683   6.190 -1.7559 -1.0621  1.5301
  648MOL0     H87418   3.895   9.693   6.360 -0.2632 -0.2277 -1.2994
  648MOL0     H87419   3.845   9.940   6.190 -1.8892  0.2759  0.4148
  648MOL0     H87420   3.723   9.855   6.277 -1.0969  1.4141 -1.4209
  648MOL0     H87421   3.982   9.931   6.401  0.2955 -2.7956 -2.2572
  648MOL0     H87422   3.864  10.058   6.378  1.3933  0.1019  0.1115
  648MOL0     H87423   3.697   9.902   6.514 -0.7691 -0.5211  3.8587
  648MOL0     H87424   3.838   9.819   6.562  0.2965  1.1899  2.3667
  648MOL0     H87425   3.752  10.103   6.618 -0.9789 -0.7973 -1.5879
  648MOL0     H87426   3.778   9.991   6.743 -1.2526  1.5840  0.9696
  648MOL0     H87427   4.000  10.126   6.578 -1.0302 -1.2031 -0.1159
  648MOL0     H87428   3.950  10.162   6.734 -0.5954  1.9012 -1.7824
  648MOL0     H87429   4.085   9.905   6.613 -0.1363  0.3675  0.0903
  648MOL0     H87430   4.011   9.908   6.770  2.7785 -0.6458  0.9951
  648MOL0     H87431   4.242  10.186   6.609  2.4326  0.4744  0.5951
  648MOL0     H87432   4.385  10.376   6.740  0.3583 -0.6202 -0.3288
  648MOL0     H87433   4.424  10.346   6.901  3.3426  1.8948 -0.9288
  648MOL0     H87434   4.604  10.180   6.825 -0.1034 -0.5274  0.8176
  648MOL0     H87435   4.647  10.340   6.767  0.9401 -1.3511 -0.5510
  648MOL0     H87436   4.574  10.307   6.546 -0.3009 -1.0633 -0.6807
  648MOL0     H87437   4.498  10.153   6.585  0.0027  0.2361  1.1369
  648MOL0     H87438   4.718  10.115   6.478 -2.1483  1.3314 -0.4139
  648MOL0     H87439   4.733  10.064   6.645 -2.3140 -1.5200 -0.7166
  648MOL0     H87440   4.881  10.051   6.763  0.8265 -2.3002 -3.4882
  648MOL0     H87441   5.135   9.961   6.958 -1.1138  0.7709  1.0199
  648MOL0     H87442   4.987   9.897   6.869 -0.3407  0.4025  2.3892
  648MOL0     H87443   5.150   9.855   6.819  0.5659  0.6261 -0.1684
  648MOL0     H87444   5.558   9.910   6.889  1.1939  4.1006  3.9758
  648MOL0     H87445   5.791   9.872   6.914 -1.6581  1.0777  0.0780
  648MOL0     H87446   5.999   9.956   6.955  2.9753 -3.1310  3.9076
  648MOL0     H87447   6.044   9.800   6.870  1.2473  0.1871 -0.0806
  648MOL0     H87448   6.207  10.044   6.925  3.6020  0.3814  0.1740
  648MOL0     H87449   6.250   9.863   6.942  0.6389 -1.6769 -3.9004
  648MOL0     H87450   6.243   9.996   6.672  1.1154  0.9863  0.0668
  648MOL0     H87451   6.274   9.830   6.727  2.3988 -0.7113  0.7827
  648MOL0     H87452   6.475   9.933   6.864  0.7243  0.1354  0.6735
  648MOL0     H87453   6.484   9.908   6.695  0.2303 -0.9764  0.5516
  648MOL0     H87454   6.435  10.161   6.867  0.8194 -2.3958  0.6425
  648MOL0     H87455   6.418  10.176   6.684  0.8273 -0.8321 -1.3383
  648MOL0     H87456   6.669  10.057   6.817  2.1187  0.0163 -3.3455
  648MOL0     H87457   6.618  10.088   6.655 -1.2057 -1.8721  0.0212
  648MOL0     H87458   6.655  10.301   6.858 -3.9811  0.2353 -0.6087
  648MOL0     H87459   6.643  10.344   6.688  0.9374 -0.4673 -1.9273
  648MOL0     H87460   6.869  10.174   6.773  0.2504 -0.3460  0.0324
  648MOL0     H87461   6.875  10.343   6.745  0.7801 -1.6200  2.9940
  648MOL0     H87462   5.882  10.101   6.563  1.5447 -1.8868 -1.1716
  648MOL0     H87463   5.634  10.128   6.519  0.6844  3.0786  2.0196
  648MOL0     H87464   5.295  10.237   6.574  0.0119 -0.0607  1.0782
  648MOL0     H87465   5.090  10.304   6.482  1.1474 -0.5501  0.0210
  648MOL0     H87466   4.302   9.757   6.178  0.1062  1.3915  0.7786
  648MOL0     H87467   4.509   9.840   6.089 -0.1462  0.4599  0.3171
  648MOL0     H87468   4.580  10.424   5.748 -0.4560 -0.3032 -0.9941
  648MOL0     H87469   4.803  10.526   5.705  0.4701  1.4008  4.8786
  648MOL0     H87470   5.028  10.426   5.546  0.1582 -2.6920  0.2367
  648MOL0     H87471   5.146  10.535   5.601 -0.7447  0.1384 -1.0129
  648MOL0     H87472   5.169  10.237   5.599  0.3400 -0.5701  1.9921
  648MOL0     H87473   5.242  10.314   5.736  1.4117 -2.8648 -0.8042
  648MOL0     H87474   5.343  10.472   5.544  1.5731 -0.1059 -1.1894
  648MOL0     H87475   5.326  10.320   5.445 -0.8925 -0.0285 -0.6932
  648MOL0     H87476   5.539  10.306   5.519 -0.1351  1.9292 -0.0729
  648MOL0     H87477   5.447  10.195   5.608  2.2218 -0.7252 -3.2254
  648MOL0     H87478   5.585  10.468   5.899 -0.6111  3.3500 -0.2045
  648MOL0     H87479   5.009  10.177   5.826 -0.6654 -0.1587  1.7237
  648MOL0     H87480   4.789  10.079   5.909 -3.2654 -0.1537 -2.1841
  649MOL0     O87481  11.141   9.340   7.609 -0.2246  0.3242  0.6140
  649MOL0     C87482  11.054   9.426   7.622  0.3534  0.1940 -0.2206
  649MOL0     O87483  11.064   9.561   7.595 -0.0600  0.1995  0.2865
  649MOL0     C87484  11.182   9.607   7.541  0.4734  0.3553 -0.1582
  649MOL0     C87485  11.298   9.624   7.612 -0.5937  0.3650 -0.1036
  649MOL0     C87486  11.416   9.653   7.544  0.6180  0.1676  1.2318
  649MOL0     C87487  11.423   9.679   7.412 -0.8179  0.1579  0.3603
  649MOL0     O87488  11.542   9.702   7.358 -0.5425 -0.6685 -0.1834
  649MOL0     C87489  11.583   9.667   7.228  0.9432  0.1429 -0.4061
  649MOL0     C87490  11.727   9.633   7.228  0.2706  0.2685 -0.6398
  649MOL0     C87491  11.826   9.750   7.273  0.2320 -0.7164 -0.2603
  649MOL0     C87492  11.977   9.714   7.272 -0.4477  0.3525  0.2723
  649MOL0     C87493  12.071   9.806   7.346 -0.2102 -0.5614 -0.4477
  649MOL0     C87494  12.076   9.949   7.277 -0.6531  0.2279 -0.2696
  649MOL0     C87495  12.174  10.044   7.370 -0.0971 -0.0886  0.5209
  649MOL0     C87496  12.164  10.197   7.328 -0.3839 -0.2259  0.8741
  649MOL0     N87497  12.255  10.288   7.398  0.6854 -0.0525 -0.2656
  649MOL0     C87498  12.332  10.383   7.345  0.0130 -0.5933  0.1948
  649MOL0     C87499  12.392  10.452   7.445  0.9333 -0.2623  0.1330
  649MOL0     C87500  12.459  10.591   7.420  0.2123  0.2141 -0.3836
  649MOL0     C87501  12.603  10.593   7.460 -0.4758  0.4621  0.7766
  649MOL0     C87502  12.697  10.501   7.382 -0.1841  0.4818  1.6056
  649MOL0     C87503  12.717  10.525   7.238  0.5509  0.5112  0.6905
  649MOL0     O87504  12.785  10.410   7.189 -0.1164 -0.3282  0.6428
  649MOL0     C87505  12.798  10.395   7.053  0.3281 -0.9069  0.0661
  649MOL0     C87506  12.738  10.480   6.950 -0.6900 -0.1495  0.8382
  649MOL0     C87507  12.749  10.449   6.812 -0.8220  0.4091  0.3178
  649MOL0     C87508  12.670  10.537   6.714 -0.3696 -0.1739  0.6064
  649MOL0     C87509  12.814  10.329   6.775  0.7089  0.2192 -0.4959
  649MOL0     C87510  12.833  10.279   6.635 -0.1519 -0.1006  0.9201
  649MOL0     O87511  12.932  10.182   6.616 -0.1955  0.0812  0.2267
  649MOL0     C87512  12.995  10.153   6.490 -0.0984  0.2844  0.6764
  649MOL0     C87513  13.059  10.030   6.467  0.0968  0.0371  0.9808
  649MOL0     C87514  13.122   9.999   6.346  0.1971 -0.1032  0.2180
  649MOL0     C87515  13.129  10.089   6.237  1.0969  0.6682  0.1034
  649MOL0     O87516  13.185  10.033   6.121  0.5329 -0.1392 -0.0195
  649MOL0     C87517  13.121  10.078   6.003  0.2122  0.2714  0.8032
  649MOL0     C87518  13.205  10.180   5.913 -0.0115  0.4234  0.4736
  649MOL0     C87519  13.313  10.115   5.819 -0.3744  0.3832 -0.3218
  649MOL0     C87520  13.406  10.212   5.747 -0.2699 -0.1949 -0.6013
  649MOL0     C87521  13.534  10.137   5.689  0.1810  0.8346  0.4464
  649MOL0     C87522  13.511  10.078   5.553  1.1524 -0.1754  1.2283
  649MOL0     C87523  13.638  10.003   5.502 -0.9405  0.4570 -0.4406
  649MOL0     C87524  13.620   9.917   5.380 -0.0829 -0.3731 -0.3577
  649MOL0    Cl87525  13.784   9.892   5.305  0.5336  0.0117  0.1174
  649MOL0     C87526  13.071  10.211   6.259 -0.0668 -0.2260  0.5615
  649MOL0     C87527  13.000  10.240   6.386 -0.1891 -0.1675  0.7316
  649MOL0     O87528  12.761  10.323   6.543  0.0704 -0.7302 -0.3716
  649MOL0     C87529  12.885  10.257   6.879  0.1396 -0.5551  0.2842
  649MOL0     C87530  12.875  10.287   7.011 -1.2190  0.0256 -0.2253
  649MOL0     N87531  12.344  10.400   7.567  0.1201 -0.2086  0.4457
  649MOL0     N87532  12.254  10.312   7.530 -0.8530 -0.8436 -0.6997
  649MOL0     C87533  11.299   9.669   7.344  0.0835  0.3078 -0.3444
  649MOL0     C87534  11.182   9.640   7.405 -1.0731  1.1082 -1.3303
  649MOL0     C87535  10.923   9.381   7.674  0.1031 -0.1844  0.1539
  649MOL0     C87536  10.898   9.247   7.710  0.2156  0.0094  0.4055
  649MOL0     C87537  10.765   9.201   7.741 -1.1290  0.4401  1.3416
  649MOL0     C87538  10.669   9.298   7.768 -0.2834 -0.5149 -0.3452
  649MOL0     O87539  10.559   9.265   7.847  0.5181 -0.3657  0.3781
  649MOL0     C87540  10.459   9.365   7.854  1.1966 -0.0079  0.9898
  649MOL0     C87541  10.350   9.321   7.956  0.4583  0.4978  0.1906
  649MOL0     C87542  10.245   9.425   7.967  0.1311  0.7642 -0.7008
  649MOL0     C87543  10.145   9.425   7.845 -0.0934 -0.6698 -0.7707
  649MOL0     C87544  10.022   9.506   7.883 -0.5464 -0.3576 -0.2788
  649MOL0     C87545   9.928   9.559   7.937 -0.0504 -1.3628 -1.0107
  649MOL0     C87546  10.696   9.433   7.732 -0.3733 -0.2692  0.8661
  649MOL0     C87547  10.821   9.473   7.679 -0.4316 -0.1369  0.0291
  649MOL0     H87548  11.294   9.603   7.719 -1.6750  1.4467  0.0925
  649MOL0     H87549  11.510   9.666   7.597 -0.2897  0.2504  2.8682
  649MOL0     H87550  11.528   9.575   7.204 -1.1980  1.4686 -0.9462
  649MOL0     H87551  11.544   9.740   7.157 -0.7139  0.3146  0.6217
  649MOL0     H87552  11.750   9.549   7.294 -1.7276  1.3293  1.5686
  649MOL0     H87553  11.761   9.607   7.127  3.1071  1.4785 -0.0701
  649MOL0     H87554  11.813   9.826   7.195  0.2531 -0.5101 -0.0623
  649MOL0     H87555  11.783   9.790   7.365  0.5194 -1.3327  0.1473
  649MOL0     H87556  11.992   9.610   7.303  0.4197  0.3162 -0.2352
  649MOL0     H87557  12.003   9.708   7.166  3.0643 -3.6068  1.0856
  649MOL0     H87558  12.033   9.833   7.445  1.7097 -0.4400  0.3031
  649MOL0     H87559  12.169   9.758   7.349  0.3334  0.3796 -1.9909
  649MOL0     H87560  12.089   9.943   7.169  1.9242  1.0924 -0.0782
  649MOL0     H87561  11.975   9.988   7.290 -0.6487 -0.4994  2.6597
  649MOL0     H87562  12.145  10.030   7.475 -3.2623  0.3471 -0.1741
  649MOL0     H87563  12.279  10.015   7.369 -0.5341 -1.7938  0.9476
  649MOL0     H87564  12.060  10.229   7.340 -0.4862  0.7422 -1.9833
  649MOL0     H87565  12.200  10.205   7.225 -1.5526 -3.5924  0.0844
  649MOL0     H87566  12.353  10.389   7.238  0.9212  0.3813  0.4079
  649MOL0     H87567  12.438  10.627   7.318 -1.7412  1.3224  0.3562
  649MOL0     H87568  12.406  10.650   7.496 -0.4227  1.3918 -1.6730
  649MOL0     H87569  12.604  10.560   7.564  2.5732  0.3449  0.7924
  649MOL0     H87570  12.648  10.693   7.464 -2.1403  1.2453  0.8910
  649MOL0     H87571  12.676  10.397   7.406 -0.0348 -0.1923 -0.9198
  649MOL0     H87572  12.798  10.527   7.415 -1.2197  1.8026  4.0095
  649MOL0     H87573  12.774  10.618   7.233 -1.4976  1.9399  2.0892
  649MOL0     H87574  12.622  10.542   7.186  1.1318 -1.9952 -1.3412
  649MOL0     H87575  12.687  10.574   6.970  0.9668  0.6992  1.2326
  649MOL0     H87576  12.585  10.477   6.682  1.9834 -2.5254 -1.7373
  649MOL0     H87577  12.635  10.631   6.757 -1.0599 -0.2639  0.2490
  649MOL0     H87578  12.732  10.562   6.627 -0.2817 -0.2094  0.6587
  649MOL0     H87579  13.078   9.966   6.552 -0.8000 -0.0157  1.1587
  649MOL0     H87580  13.169   9.902   6.333  0.3898  0.0137  0.0293
  649MOL0     H87581  13.093   9.990   5.943 -3.5949 -1.0418  4.0528
  649MOL0     H87582  13.025  10.126   6.022 -1.1131 -1.7969 -0.2507
  649MOL0     H87583  13.137  10.234   5.846  0.4002 -1.4009 -1.5481
  649MOL0     H87584  13.261  10.240   5.985  0.6733 -0.2308  0.4964
  649MOL0     H87585  13.261  10.051   5.747  0.6549  1.8368 -2.4781
  649MOL0     H87586  13.377  10.043   5.871  0.0800 -0.3660 -1.8692
  649MOL0     H87587  13.356  10.267   5.667  0.5194  0.0048 -0.9646
  649MOL0     H87588  13.449  10.288   5.814  0.8908 -2.0665  0.8835
  649MOL0     H87589  13.579  10.066   5.759 -1.8999  2.1021  3.2389
  649MOL0     H87590  13.615  10.209   5.672  1.5267 -0.7932 -0.3683
  649MOL0     H87591  13.423  10.015   5.570 -0.5884  1.7390 -0.2116
  649MOL0     H87592  13.470  10.146   5.478 -1.8858  0.8286  3.5924
  649MOL0     H87593  13.681   9.954   5.590 -0.0060 -0.1421 -1.2015
  649MOL0     H87594  13.716  10.077   5.480 -1.1804  0.6957 -0.4865
  649MOL0     H87595  13.553   9.972   5.314 -1.7333 -0.8089  0.8905
  649MOL0     H87596  13.566   9.824   5.400  1.3561 -1.3895 -0.9720
  649MOL0     H87597  13.077  10.275   6.172 -1.8267 -0.3698  0.2979
  649MOL0     H87598  12.954  10.337   6.392  3.3105  1.6521  0.9244
  649MOL0     H87599  12.955  10.179   6.850  1.6156  0.6935  0.3447
  649MOL0     H87600  12.919  10.226   7.089 -2.0917  3.3220  3.1719
  649MOL0     H87601  11.301   9.685   7.237 -1.0128 -3.0765 -0.9804
  649MOL0     H87602  11.091   9.624   7.349 -0.2767 -0.1326 -2.3509
  649MOL0     H87603  10.980   9.177   7.695  0.4226  0.2432  0.4247
  649MOL0     H87604  10.737   9.099   7.764 -2.1134  0.8981  2.2250
  649MOL0     H87605  10.497   9.461   7.890 -2.0671  1.6753  0.3501
  649MOL0     H87606  10.411   9.380   7.757 -1.4366 -4.1074  1.4191
  649MOL0     H87607  10.391   9.310   8.057  0.5771 -2.4907 -0.0726
  649MOL0     H87608  10.310   9.219   7.945  0.0687  0.8082 -1.7876
  649MOL0     H87609  10.307   9.515   7.966  2.4613 -0.6496  1.7868
  649MOL0     H87610  10.193   9.421   8.063  2.9660 -0.7357  0.9313
  649MOL0     H87611  10.112   9.324   7.820 -0.2337 -0.5747 -0.9723
  649MOL0     H87612  10.193   9.467   7.756 -0.6464  0.3149 -0.6233
  649MOL0     H87613   9.842   9.607   7.979  1.8381  0.2377  1.3111
  649MOL0     H87614  10.637   9.521   7.756  2.5246  1.5594  1.7693
  649MOL0     H87615  10.838   9.578   7.657  0.0219  0.3561  2.4159
  650MOL0     O87616   7.368   1.936   4.477  0.1597 -0.0766 -0.5007
  650MOL0     C87617   7.384   1.817   4.511  0.4207  1.6779  1.3237
  650MOL0     O87618   7.296   1.717   4.498 -0.2000 -0.7364  0.3372
  650MOL0     C87619   7.182   1.722   4.423 -0.8328 -0.4141 -1.0914
  650MOL0     C87620   7.087   1.623   4.442  0.8793  0.3406 -0.9872
  650MOL0     C87621   6.954   1.626   4.386  0.1915  0.0475  0.1919
  650MOL0     C87622   6.932   1.716   4.276  0.8121 -0.4071 -0.1877
  650MOL0     O87623   6.825   1.707   4.199  0.1952 -0.6322  0.7091
  650MOL0     C87624   6.780   1.810   4.110 -0.7294  0.7077 -0.2863
  650MOL0     C87625   6.640   1.765   4.055  0.3912  0.1647  0.1525
  650MOL0     C87626   6.553   1.865   3.983  1.2884 -0.3443 -0.1734
  650MOL0     C87627   6.447   1.783   3.904 -0.4368  0.5631 -0.7149
  650MOL0     C87628   6.353   1.690   3.989 -0.1266 -0.1538  1.1902
  650MOL0     C87629   6.236   1.630   3.907  0.1531  0.0880 -0.2715
  650MOL0     C87630   6.118   1.728   3.862 -0.1629  0.3054 -0.1269
  650MOL0     C87631   6.105   1.721   3.708 -0.2592 -0.0736 -0.8637
  650MOL0     N87632   5.997   1.812   3.677 -0.1672 -0.3142  0.0534
  650MOL0     C87633   5.883   1.775   3.605  0.7205 -0.1334  0.1682
  650MOL0     C87634   5.807   1.880   3.613  0.3648 -0.8000 -0.3792
  650MOL0     C87635   5.675   1.884   3.549  0.5489  0.1374  0.7036
  650MOL0     C87636   5.690   1.952   3.416  1.2043 -0.0711  0.3061
  650MOL0     C87637   5.670   2.109   3.435  0.0145 -0.0901 -0.0417
  650MOL0     C87638   5.661   2.187   3.304  0.1406 -0.2671 -0.2270
  650MOL0     O87639   5.657   2.326   3.323  0.1900  0.2165  0.2945
  650MOL0     C87640   5.775   2.388   3.348 -0.2723 -0.0084  0.0327
  650MOL0     C87641   5.905   2.347   3.322  0.1441 -0.1362 -0.7208
  650MOL0     C87642   6.008   2.433   3.350 -0.4006 -0.4041 -0.5849
  650MOL0     C87643   6.143   2.384   3.322  0.1329  0.8369  0.0011
  650MOL0     C87644   5.984   2.555   3.424 -0.7902  0.1674 -0.0282
  650MOL0     C87645   6.096   2.652   3.451 -0.0295  0.0964 -0.1288
  650MOL0     O87646   6.062   2.787   3.450 -0.3016 -0.0787 -0.1739
  650MOL0     C87647   6.147   2.897   3.458  1.1380  0.9390 -0.2174
  650MOL0     C87648   6.270   2.910   3.520  0.3800  0.2911  0.5831
  650MOL0     C87649   6.340   3.030   3.519  0.4267  0.4892  1.4805
  650MOL0     C87650   6.301   3.141   3.435  0.1681 -1.0219  0.1446
  650MOL0     O87651   6.384   3.249   3.438  0.3510 -0.3429 -0.3806
  650MOL0     C87652   6.490   3.252   3.338 -0.3703  0.2188  0.0468
  650MOL0     C87653   6.591   3.368   3.345  0.1582  0.0730  0.4634
  650MOL0     C87654   6.521   3.510   3.364 -0.2521  0.6162  0.3626
  650MOL0     C87655   6.630   3.619   3.350 -0.6919  0.4276 -0.1575
  650MOL0     C87656   6.565   3.763   3.340  0.6063  0.5519 -0.3627
  650MOL0     C87657   6.553   3.803   3.195  0.0554 -0.2645 -0.7373
  650MOL0     C87658   6.521   3.948   3.184 -0.4087 -0.0002  0.0024
  650MOL0     C87659   6.532   3.997   3.040 -0.2473 -0.6321  0.7855
  650MOL0    Cl87660   6.489   4.168   3.017 -0.2370  0.2800 -0.2252
  650MOL0     C87661   6.180   3.122   3.365 -0.0311 -0.4287  0.3030
  650MOL0     C87662   6.106   3.009   3.376  0.8912 -0.1777 -0.2553
  650MOL0     O87663   6.201   2.608   3.504  0.2701  0.8585  0.4500
  650MOL0     C87664   5.853   2.591   3.449 -0.5392 -0.6115  0.0888
  650MOL0     C87665   5.750   2.515   3.409  0.6058 -0.3175  0.6082
  650MOL0     N87666   5.875   1.986   3.677  0.0956 -0.1817  0.4376
  650MOL0     N87667   5.992   1.944   3.715 -0.7906 -0.8278 -0.9273
  650MOL0     C87668   7.027   1.819   4.253 -0.6827  0.8098 -0.6318
  650MOL0     C87669   7.141   1.824   4.332 -1.6075 -0.1086  0.1294
  650MOL0     C87670   7.502   1.784   4.595  0.5113 -0.5899 -0.4295
  650MOL0     C87671   7.600   1.882   4.626  0.7112  0.3807 -0.8164
  650MOL0     C87672   7.721   1.844   4.669  0.0666  0.4320  0.9379
  650MOL0     C87673   7.760   1.718   4.709 -0.5610  0.6933 -0.2758
  650MOL0     O87674   7.881   1.683   4.761 -0.0259 -0.5732 -0.8844
  650MOL0     C87675   7.983   1.783   4.753  0.5077 -0.2808  0.2337
  650MOL0     C87676   8.121   1.725   4.782  0.0678 -0.3294 -0.8416
  650MOL0     C87677   8.151   1.708   4.930  0.0532  0.0395 -1.0662
  650MOL0     C87678   8.300   1.715   4.982  0.4757 -0.7855  0.4596
  650MOL0     C87679   8.367   1.837   4.963 -0.0862  0.6033  0.2294
  650MOL0     C87680   8.430   1.937   4.931 -0.1486 -0.4441  0.3068
  650MOL0     C87681   7.662   1.617   4.688 -0.0378  0.3381 -0.4620
  650MOL0     C87682   7.533   1.654   4.633 -0.5131 -0.1387 -0.0339
  650MOL0     H87683   7.111   1.542   4.509  0.8934  0.5625 -0.7196
  650MOL0     H87684   6.889   1.540   4.403  1.9661 -1.4552 -0.3480
  650MOL0     H87685   6.774   1.906   4.163  3.7316  0.6595  0.6843
  650MOL0     H87686   6.842   1.825   4.021  2.1191 -3.9240  0.5607
  650MOL0     H87687   6.649   1.675   3.993  0.9577  1.0713 -1.1004
  650MOL0     H87688   6.579   1.731   4.140 -0.9801  0.4060 -0.6999
  650MOL0     H87689   6.497   1.936   4.044  0.8916  0.9693 -1.9837
  650MOL0     H87690   6.608   1.928   3.912 -1.9802  3.8859  0.6078
  650MOL0     H87691   6.386   1.853   3.845  2.0572  2.3035 -1.4043
  650MOL0     H87692   6.492   1.713   3.833 -1.9321 -2.2425  0.9237
  650MOL0     H87693   6.403   1.597   4.018 -3.4126 -2.2645  0.7058
  650MOL0     H87694   6.312   1.750   4.071  0.1831  0.9137  0.5865
  650MOL0     H87695   6.260   1.568   3.820 -0.1135 -0.2283 -0.1206
  650MOL0     H87696   6.190   1.555   3.973  1.3133 -1.9336 -1.6544
  650MOL0     H87697   6.024   1.697   3.909 -1.0841  1.3646 -1.2037
  650MOL0     H87698   6.140   1.828   3.899  3.2688 -1.7409  4.3650
  650MOL0     H87699   6.078   1.620   3.676 -1.1505 -1.5645  3.8259
  650MOL0     H87700   6.194   1.759   3.657 -0.0430 -1.2456 -1.4046
  650MOL0     H87701   5.861   1.683   3.551  0.5897  0.0654 -0.1152
  650MOL0     H87702   5.637   1.785   3.521  1.4505  0.0579 -0.3427
  650MOL0     H87703   5.599   1.939   3.605  0.1553  2.8363 -2.1858
  650MOL0     H87704   5.618   1.907   3.348 -1.7594 -1.2374  3.8706
  650MOL0     H87705   5.788   1.937   3.370  1.0063 -0.2706 -0.0493
  650MOL0     H87706   5.751   2.156   3.492  2.6517 -1.2226 -2.6203
  650MOL0     H87707   5.574   2.122   3.486 -1.6606  1.7300 -3.3514
  650MOL0     H87708   5.574   2.149   3.250 -0.1045 -1.2200  0.7960
  650MOL0     H87709   5.744   2.154   3.239 -0.6913 -0.4422 -1.2265
  650MOL0     H87710   5.926   2.250   3.277 -0.0254 -0.6258  0.2312
  650MOL0     H87711   6.206   2.468   3.292 -0.4994  1.8584  1.4174
  650MOL0     H87712   6.183   2.343   3.415  1.5728  3.9974  0.9382
  650MOL0     H87713   6.149   2.316   3.237 -3.1169 -0.6096  0.7736
  650MOL0     H87714   6.307   2.827   3.580  1.9049  0.8963  0.5072
  650MOL0     H87715   6.420   3.051   3.589 -0.0148  1.6705  1.6644
  650MOL0     H87716   6.541   3.155   3.327  0.7950  1.0425 -2.6977
  650MOL0     H87717   6.459   3.264   3.234 -0.1542  1.2974  0.1002
  650MOL0     H87718   6.657   3.340   3.428  1.6432  1.9285 -0.0323
  650MOL0     H87719   6.663   3.363   3.263  0.2291  1.5955  0.4012
  650MOL0     H87720   6.481   3.516   3.466  1.8137 -0.5203  1.3267
  650MOL0     H87721   6.447   3.512   3.284 -0.5753 -1.6326  0.5343
  650MOL0     H87722   6.698   3.617   3.436  2.5544 -0.5147 -2.5342
  650MOL0     H87723   6.699   3.598   3.268  0.8441  1.7181  0.7282
  650MOL0     H87724   6.632   3.831   3.394  0.8476 -1.3171  1.8622
  650MOL0     H87725   6.465   3.756   3.385 -0.6489  2.9661 -2.5346
  650MOL0     H87726   6.650   3.797   3.145  0.1540 -1.1963 -0.4601
  650MOL0     H87727   6.476   3.746   3.142 -0.7904 -0.3928  0.5738
  650MOL0     H87728   6.597   3.998   3.247 -0.3832 -2.3023  1.9394
  650MOL0     H87729   6.421   3.954   3.226 -0.5168 -1.2249 -0.0493
  650MOL0     H87730   6.455   3.941   2.986 -0.3224 -1.8676  2.1122
  650MOL0     H87731   6.629   3.982   2.993  0.0877  2.5589  0.2612
  650MOL0     H87732   6.149   3.208   3.307  2.0883  0.5272  0.5049
  650MOL0     H87733   6.009   3.006   3.327  0.0541  2.5041  1.0084
  650MOL0     H87734   5.848   2.694   3.482  0.6059 -0.3440 -0.4972
  650MOL0     H87735   5.650   2.557   3.420 -0.0870 -0.5202 -3.4495
  650MOL0     H87736   7.018   1.898   4.179  2.4911 -0.9266 -3.1640
  650MOL0     H87737   7.222   1.891   4.306  1.0335 -3.6098 -1.5813
  650MOL0     H87738   7.600   1.983   4.587  2.0198  0.2476 -1.2100
  650MOL0     H87739   7.792   1.923   4.692  0.1195  0.5748  0.3078
  650MOL0     H87740   7.984   1.819   4.650  0.8643 -4.2456 -1.3357
  650MOL0     H87741   7.952   1.858   4.827  0.9997 -0.9022  1.0942
  650MOL0     H87742   8.201   1.779   4.730  2.3103 -1.4538  1.2722
  650MOL0     H87743   8.134   1.627   4.736 -0.7256  0.0315 -1.8800
  650MOL0     H87744   8.111   1.609   4.953 -3.0920  1.4845  0.3079
  650MOL0     H87745   8.081   1.771   4.986 -1.2306 -0.5198 -1.9855
  650MOL0     H87746   8.365   1.629   4.963 -0.3697 -1.5623  0.9901
  650MOL0     H87747   8.287   1.710   5.090 -0.4550  0.7434  0.4452
  650MOL0     H87748   8.502   2.015   4.916 -1.0221  0.3738  0.2598
  650MOL0     H87749   7.685   1.512   4.706 -0.6975  0.0217 -1.3555
  650MOL0     H87750   7.465   1.573   4.607  0.5709 -1.0469 -0.1496
  651MOL0     O87751   8.756   7.994   1.390 -0.7075 -0.3015  0.5163
  651MOL0     C87752   8.863   7.973   1.329  0.0939 -0.7691 -0.2873
  651MOL0     O87753   8.939   7.857   1.345  0.0621  0.6985 -0.4714
  651MOL0     C87754   8.881   7.765   1.434 -0.8881 -0.1107  0.6571
  651MOL0     C87755   8.817   7.650   1.397  0.3486  1.1798  0.6142
  651MOL0     C87756   8.756   7.561   1.491  0.1287  0.4250 -0.0642
  651MOL0     C87757   8.763   7.593   1.626 -0.2798 -0.2312  0.2972
  651MOL0     O87758   8.703   7.517   1.725 -0.2128  0.1677  0.3316
  651MOL0     C87759   8.588   7.592   1.769  0.6853  0.9127 -0.0275
  651MOL0     C87760   8.473   7.498   1.782 -0.4572  0.1120  0.0478
  651MOL0     C87761   8.346   7.573   1.830  0.7588  0.1003  0.5617
  651MOL0     C87762   8.235   7.469   1.845  0.6578  0.5154 -0.4651
  651MOL0     C87763   8.103   7.530   1.906  0.5670 -0.9599 -0.2320
  651MOL0     C87764   8.041   7.652   1.829 -1.2096 -0.0743  0.9124
  651MOL0     C87765   7.911   7.697   1.897 -0.5877  0.9942  0.8290
  651MOL0     C87766   7.809   7.577   1.915 -0.0013  0.6577  0.3932
  651MOL0     N87767   7.672   7.626   1.931  0.1382  0.0703  0.2434
  651MOL0     C87768   7.631   7.761   1.914 -0.4724 -0.0237 -0.3962
  651MOL0     C87769   7.499   7.763   1.940  0.0450  0.0488  0.0118
  651MOL0     C87770   7.416   7.887   1.901  0.7195 -0.0367  0.5240
  651MOL0     C87771   7.276   7.888   1.969  0.1784 -0.7866  0.8620
  651MOL0     C87772   7.211   8.025   1.951  0.6349 -0.6436 -0.8606
  651MOL0     C87773   7.113   8.046   2.068  0.0966  0.2053  0.0703
  651MOL0     O87774   7.030   8.157   2.063  0.1889  0.2885  0.6304
  651MOL0     C87775   7.076   8.283   2.032 -0.1828 -0.5105  0.2962
  651MOL0     C87776   7.033   8.343   1.918 -0.0792 -0.2821 -0.6859
  651MOL0     C87777   7.077   8.470   1.875  0.9648 -0.0643  0.5981
  651MOL0     C87778   7.026   8.505   1.737 -0.0095  0.5536  0.1097
  651MOL0     C87779   7.157   8.552   1.957 -0.6594 -0.1798 -0.5277
  651MOL0     C87780   7.184   8.692   1.952 -0.9074 -0.6036 -0.5451
  651MOL0     O87781   7.259   8.746   2.057 -0.4999 -0.5021  0.1972
  651MOL0     C87782   7.290   8.877   2.062 -0.9594  0.4293 -0.2735
  651MOL0     C87783   7.187   8.976   2.078 -0.5706 -0.6500 -0.0255
  651MOL0     C87784   7.221   9.106   2.112 -0.6952  0.2933 -0.0660
  651MOL0     C87785   7.360   9.141   2.130  0.0161 -0.5684 -0.1609
  651MOL0     O87786   7.396   9.263   2.180 -0.2650 -0.3805  1.0383
  651MOL0     C87787   7.360   9.371   2.099  0.8301 -1.0292  0.4571
  651MOL0     C87788   7.440   9.494   2.119 -0.8605  0.4775 -0.1160
  651MOL0     C87789   7.472   9.522   2.261 -0.2678 -0.4843 -0.3087
  651MOL0     C87790   7.498   9.671   2.278  0.0206 -0.1524 -0.0023
  651MOL0     C87791   7.374   9.760   2.297  0.6099  0.0102  0.2436
  651MOL0     C87792   7.308   9.772   2.440  0.5255 -0.0024 -0.6116
  651MOL0     C87793   7.187   9.868   2.442 -0.3233  0.4988 -0.2832
  651MOL0     C87794   7.147   9.899   2.596  0.3528 -0.4182 -0.1656
  651MOL0    Cl87795   7.262  10.015   2.664 -0.1644  0.1809  0.1585
  651MOL0     C87796   7.462   9.046   2.128 -0.8192 -0.9837 -0.1125
  651MOL0     C87797   7.428   8.916   2.080  0.2120  0.0422  0.5434
  651MOL0     O87798   7.132   8.764   1.864 -0.5819  0.6686 -0.0942
  651MOL0     C87799   7.201   8.488   2.072 -0.5030  0.5439 -0.4068
  651MOL0     C87800   7.168   8.358   2.114  0.1266  0.0408  1.1867
  651MOL0     N87801   7.450   7.635   1.959  0.1109  0.2529  0.4236
  651MOL0     N87802   7.555   7.553   1.950  0.2951  0.4203 -0.4569
  651MOL0     C87803   8.846   7.700   1.662  0.2073  0.3206  0.4554
  651MOL0     C87804   8.896   7.795   1.569  0.5118 -0.1303  0.4470
  651MOL0     C87805   8.911   8.084   1.238 -0.5778  0.1132  0.7113
  651MOL0     C87806   9.008   8.053   1.134  0.4895 -0.2062  0.6063
  651MOL0     C87807   9.045   8.156   1.048 -0.3077 -0.3052  0.3363
  651MOL0     C87808   8.992   8.287   1.053  0.6911 -0.3568 -0.8169
  651MOL0     O87809   9.042   8.383   0.979  0.0956  0.5747  0.1818
  651MOL0     C87810   9.134   8.361   0.867  0.2379 -0.0542  0.0642
  651MOL0     C87811   9.159   8.484   0.785  0.2867  0.2467  0.0920
  651MOL0     C87812   9.191   8.613   0.860 -0.1373 -0.3531 -0.7140
  651MOL0     C87813   9.328   8.621   0.925  0.7104 -0.4767  0.3900
  651MOL0     C87814   9.428   8.609   0.820 -0.1829 -0.1108  0.3846
  651MOL0     C87815   9.521   8.613   0.738  0.1003 -0.2469  0.3127
  651MOL0     C87816   8.896   8.310   1.149  0.2159 -0.5175  0.1286
  651MOL0     C87817   8.858   8.213   1.241  0.0243 -0.3789  0.3776
  651MOL0     H87818   8.814   7.635   1.289 -0.2095 -0.6202  0.8447
  651MOL0     H87819   8.713   7.463   1.475  0.3163  0.2702  0.3544
  651MOL0     H87820   8.616   7.629   1.868 -1.9838  1.0246  0.7444
  651MOL0     H87821   8.548   7.673   1.708 -1.8715  2.4386  3.3627
  651MOL0     H87822   8.454   7.451   1.685 -1.7112  1.0638 -0.1947
  651MOL0     H87823   8.515   7.417   1.842  2.2333  0.0433 -1.7752
  651MOL0     H87824   8.370   7.627   1.922 -0.8025  0.6731  0.6631
  651MOL0     H87825   8.306   7.643   1.756 -0.2057 -2.3702 -1.3992
  651MOL0     H87826   8.214   7.428   1.745  1.0379 -1.2249  0.1348
  651MOL0     H87827   8.268   7.384   1.906  3.6112 -0.6100 -3.3207
  651MOL0     H87828   8.037   7.442   1.910  1.6150 -1.8111 -0.9154
  651MOL0     H87829   8.114   7.560   2.010 -1.0687 -3.3890  0.7381
  651MOL0     H87830   8.116   7.730   1.814 -0.2209 -1.3350 -1.1914
  651MOL0     H87831   8.013   7.616   1.729 -2.9407 -0.6575  1.5604
  651MOL0     H87832   7.923   7.759   1.986 -2.2499  2.2710  0.2156
  651MOL0     H87833   7.873   7.765   1.820  2.5012  1.3435 -0.5635
  651MOL0     H87834   7.844   7.516   1.998  0.8990  0.7571  0.0962
  651MOL0     H87835   7.809   7.516   1.824 -1.3565  1.3662 -0.1130
  651MOL0     H87836   7.695   7.844   1.887  0.7642 -0.1534  1.8638
  651MOL0     H87837   7.481   7.973   1.922  2.9012 -0.5628 -3.1386
  651MOL0     H87838   7.401   7.885   1.792  1.0063 -1.4364  0.4833
  651MOL0     H87839   7.295   7.860   2.072  0.0858 -1.2851  0.7432
  651MOL0     H87840   7.209   7.813   1.927 -0.8897  0.6862 -0.2067
  651MOL0     H87841   7.157   8.012   1.857  0.3258 -3.0532 -0.4218
  651MOL0     H87842   7.273   8.114   1.948  2.0416 -1.4389  1.5944
  651MOL0     H87843   7.167   8.040   2.163 -0.1263 -0.2192  0.1704
  651MOL0     H87844   7.039   7.966   2.073 -0.4493  0.7575  1.1378
  651MOL0     H87845   6.959   8.286   1.864 -0.7697 -0.5805  0.5304
  651MOL0     H87846   7.071   8.436   1.664 -3.8076 -0.6070 -1.3961
  651MOL0     H87847   6.918   8.500   1.746  0.0259 -1.6756 -0.0969
  651MOL0     H87848   7.057   8.606   1.709  0.6078 -0.2231 -2.2213
  651MOL0     H87849   7.082   8.948   2.065 -0.2005 -1.6684 -1.0083
  651MOL0     H87850   7.146   9.185   2.111 -1.9101 -0.6815 -4.1220
  651MOL0     H87851   7.358   9.349   1.992 -1.2923 -0.1662  0.2678
  651MOL0     H87852   7.256   9.391   2.129  0.9637 -1.1607  1.0175
  651MOL0     H87853   7.530   9.468   2.063 -0.9759  0.6381 -0.3827
  651MOL0     H87854   7.400   9.584   2.072 -0.1459  0.5571 -0.5833
  651MOL0     H87855   7.558   9.463   2.293 -1.1679 -1.2587  0.8006
  651MOL0     H87856   7.393   9.482   2.327  1.6398 -1.1835  1.6815
  651MOL0     H87857   7.560   9.687   2.366 -1.2332  1.0924  0.6790
  651MOL0     H87858   7.550   9.709   2.190  0.2623 -1.3485 -0.3953
  651MOL0     H87859   7.300   9.731   2.222 -1.2525 -0.4949  2.1739
  651MOL0     H87860   7.401   9.864   2.277 -0.3177  0.2715  0.2874
  651MOL0     H87861   7.271   9.673   2.469 -3.2888  0.6986 -2.4293
  651MOL0     H87862   7.379   9.806   2.515  0.2232 -1.7334  0.5226
  651MOL0     H87863   7.096   9.826   2.398 -2.5348  3.1261  1.4606
  651MOL0     H87864   7.202   9.953   2.374 -2.8681 -0.8073 -2.6825
  651MOL0     H87865   7.132   9.810   2.656  0.8820 -0.6072 -0.3063
  651MOL0     H87866   7.048   9.941   2.580  0.3952 -1.1209 -2.8571
  651MOL0     H87867   7.563   9.080   2.152 -0.5662 -0.7189 -1.4435
  651MOL0     H87868   7.500   8.835   2.069 -1.1367 -1.0374 -0.7916
  651MOL0     H87869   7.269   8.537   2.142  0.6480 -0.2099 -0.9531
  651MOL0     H87870   7.187   8.315   2.211 -1.3747  1.3990  2.1481
  651MOL0     H87871   8.871   7.697   1.768  0.2419  1.1894  0.4741
  651MOL0     H87872   8.951   7.886   1.589 -0.5428  0.6913 -0.2669
  651MOL0     H87873   9.050   7.953   1.120  2.0259  0.1962  1.9374
  651MOL0     H87874   9.127   8.143   0.978  1.3356 -1.8297  2.4109
  651MOL0     H87875   9.235   8.343   0.905  0.2736  2.1380  1.1480
  651MOL0     H87876   9.085   8.287   0.802 -0.3484  0.0323  0.4019
  651MOL0     H87877   9.061   8.498   0.739  0.3772  1.0175  0.1223
  651MOL0     H87878   9.230   8.464   0.704  2.8243  1.9029  1.7713
  651MOL0     H87879   9.118   8.642   0.936  3.4895  3.2913  1.8269
  651MOL0     H87880   9.181   8.695   0.787  0.8791  1.6564  1.2616
  651MOL0     H87881   9.337   8.543   1.001 -0.6235  0.3784  1.4680
  651MOL0     H87882   9.341   8.721   0.965 -0.4501  0.0242 -0.4192
  651MOL0     H87883   9.586   8.609   0.653 -1.4693  2.1123 -1.1114
  651MOL0     H87884   8.853   8.410   1.149 -2.4766 -1.5794  1.1086
  651MOL0     H87885   8.795   8.239   1.326  2.6892  2.5174  1.6941
  652MOL0     O87886   5.231   4.384   8.975  0.3931  0.4439  0.3910
  652MOL0     C87887   5.203   4.498   8.966  0.6424  0.0118 -0.4360
  652MOL0     O87888   5.174   4.570   8.854 -0.3558 -0.0253  1.0942
  652MOL0     C87889   5.175   4.517   8.727  0.2336 -0.9009  0.8008
  652MOL0     C87890   5.215   4.608   8.621  0.6039 -0.5533 -0.2013
  652MOL0     C87891   5.204   4.580   8.493 -0.1693  0.3503 -0.0250
  652MOL0     C87892   5.140   4.460   8.451 -0.2562  0.0876 -0.5323
  652MOL0     O87893   5.119   4.416   8.330  0.3246  0.2692  0.1059
  652MOL0     C87894   5.130   4.504   8.217  0.1620  0.0418  0.5697
  652MOL0     C87895   5.005   4.592   8.192  0.8732  0.1000  1.2617
  652MOL0     C87896   4.866   4.514   8.212 -0.3082 -0.4744  0.7368
  652MOL0     C87897   4.741   4.592   8.165 -0.1324 -0.1901  0.2256
  652MOL0     C87898   4.635   4.580   8.268 -0.0701  0.7377  0.3639
  652MOL0     C87899   4.512   4.642   8.211  0.5857  0.3601 -0.2673
  652MOL0     C87900   4.416   4.706   8.310  0.6819 -0.0364 -0.5151
  652MOL0     C87901   4.272   4.700   8.259  0.6076 -0.9394 -0.1238
  652MOL0     N87902   4.253   4.743   8.120 -0.2926  0.4745 -0.3496
  652MOL0     C87903   4.288   4.867   8.074  0.6615 -0.0918 -1.0658
  652MOL0     C87904   4.248   4.858   7.942 -0.2763 -0.3622 -0.1469
  652MOL0     C87905   4.262   4.969   7.848  0.0879  0.2110  0.5284
  652MOL0     C87906   4.221   4.943   7.705  0.3250 -0.0621  0.9189
  652MOL0     C87907   4.236   5.061   7.603 -0.0349  0.2996  0.4364
  652MOL0     C87908   4.381   5.102   7.559  0.2313 -0.4906  0.4624
  652MOL0     O87909   4.459   5.156   7.674 -0.1725  0.0520 -0.2236
  652MOL0     C87910   4.600   5.142   7.668  0.0619  0.0934  0.8763
  652MOL0     C87911   4.673   5.108   7.539  0.0829  0.0269  0.3406
  652MOL0     C87912   4.807   5.106   7.530 -0.0480 -0.1101  0.6544
  652MOL0     C87913   4.863   5.080   7.395 -0.7186  0.5285  0.3980
  652MOL0     C87914   4.889   5.129   7.644  0.4055 -0.2422  1.3705
  652MOL0     C87915   5.032   5.111   7.663  0.9355  0.3010  0.0354
  652MOL0     O87916   5.075   5.104   7.793  0.1509 -0.0243 -0.2341
  652MOL0     C87917   5.202   5.082   7.828  0.1526  0.2013 -0.4622
  652MOL0     C87918   5.296   5.182   7.799  0.7820  0.6684  0.2092
  652MOL0     C87919   5.425   5.157   7.841 -0.5017 -0.0188 -0.0338
  652MOL0     C87920   5.468   5.042   7.917  0.5722  1.0937  0.2834
  652MOL0     O87921   5.605   5.030   7.950  1.0715  0.0794 -0.9980
  652MOL0     C87922   5.634   4.894   7.988 -0.6934 -0.0824  0.0520
  652MOL0     C87923   5.781   4.871   8.017 -0.1985  1.2673  0.4798
  652MOL0     C87924   5.883   4.922   7.914 -0.2148  0.6926  0.3196
  652MOL0     C87925   5.935   4.817   7.817 -0.2666  0.3821  0.2122
  652MOL0     C87926   6.074   4.846   7.759 -0.2497 -0.0491 -0.1965
  652MOL0     C87927   6.116   4.727   7.667 -0.2137 -0.2612 -0.3060
  652MOL0     C87928   6.241   4.770   7.595 -0.2521 -0.2365  0.1336
  652MOL0     C87929   6.277   4.689   7.472  0.3396 -0.4896  0.3760
  652MOL0    Cl87930   6.456   4.669   7.448  0.4308  0.4263 -0.0090
  652MOL0     C87931   5.369   4.952   7.939 -0.5980  0.2394 -0.5886
  652MOL0     C87932   5.239   4.971   7.898 -0.5951  0.0558 -0.3049
  652MOL0     O87933   5.104   5.104   7.565 -0.5105 -0.2068  0.4191
  652MOL0     C87934   4.814   5.167   7.757 -0.5226 -0.1069  0.3536
  652MOL0     C87935   4.681   5.175   7.773  0.1328  0.2591 -0.3395
  652MOL0     N87936   4.195   4.734   7.917 -0.0946  0.0914  0.1178
  652MOL0     N87937   4.203   4.661   8.023  0.0841 -0.0368 -0.1659
  652MOL0     C87938   5.095   4.372   8.552 -1.0513  0.2272 -0.3180
  652MOL0     C87939   5.117   4.399   8.686  0.0663  0.8078 -0.0229
  652MOL0     C87940   5.206   4.585   9.089 -0.6563  0.9727  0.1837
  652MOL0     C87941   5.174   4.532   9.206  0.4160 -0.0861 -0.6173
  652MOL0     C87942   5.202   4.597   9.329 -0.0444 -1.3970  0.1664
  652MOL0     C87943   5.251   4.725   9.332  0.2459 -0.1517 -0.3622
  652MOL0     O87944   5.264   4.790   9.451  0.5158 -0.6683 -0.2325
  652MOL0     C87945   5.273   4.933   9.448 -0.2964  0.0586 -0.0656
  652MOL0     C87946   5.218   4.994   9.575  0.1374  0.1563 -0.6598
  652MOL0     C87947   5.069   4.966   9.597 -0.7613  0.0032  0.2876
  652MOL0     C87948   5.025   4.999   9.745 -0.1594 -0.5217  0.4247
  652MOL0     C87949   4.884   5.040   9.755  0.1702  0.0603  0.8780
  652MOL0     C87950   4.765   5.071   9.765  1.0558 -0.0205  0.1051
  652MOL0     C87951   5.289   4.775   9.205 -0.2501 -0.3331 -0.3644
  652MOL0     C87952   5.265   4.707   9.086 -0.5009 -0.1041  0.4745
  652MOL0     H87953   5.259   4.704   8.647 -1.0563  0.2279 -0.1478
  652MOL0     H87954   5.242   4.655   8.424 -1.8879 -1.4952 -3.1470
  652MOL0     H87955   5.220   4.566   8.221  1.6201 -2.0388  1.6225
  652MOL0     H87956   5.140   4.438   8.130 -0.3738 -1.7731  1.8259
  652MOL0     H87957   5.006   4.686   8.248  1.5161  1.4569 -0.8778
  652MOL0     H87958   5.006   4.626   8.088 -0.5190  1.6167  1.6980
  652MOL0     H87959   4.861   4.425   8.149 -2.8007  0.7147 -0.9194
  652MOL0     H87960   4.855   4.482   8.316 -1.6307 -0.6399  0.5628
  652MOL0     H87961   4.774   4.696   8.157 -1.9090  0.4034  0.0417
  652MOL0     H87962   4.706   4.557   8.067 -0.4155  2.7387 -0.8126
  652MOL0     H87963   4.619   4.475   8.293  1.8039 -0.0020 -1.3037
  652MOL0     H87964   4.667   4.629   8.361  0.8924  2.2562 -0.7221
  652MOL0     H87965   4.545   4.727   8.150  2.5474  0.2990  0.6525
  652MOL0     H87966   4.461   4.566   8.151  0.5585 -0.0388  0.2541
  652MOL0     H87967   4.424   4.650   8.403 -2.0340 -0.5048 -0.4732
  652MOL0     H87968   4.453   4.808   8.326 -1.1361  0.5487  0.2921
  652MOL0     H87969   4.210   4.766   8.319  0.6916  1.4412 -2.4450
  652MOL0     H87970   4.254   4.595   8.282 -0.1080 -0.6147  0.8705
  652MOL0     H87971   4.338   4.946   8.129  0.3253 -1.6762  1.6773
  652MOL0     H87972   4.220   5.058   7.895 -0.0048 -0.0905  1.0224
  652MOL0     H87973   4.369   4.987   7.832 -0.3653  0.7027 -2.6990
  652MOL0     H87974   4.124   4.895   7.718  0.5313 -0.9129 -0.4411
  652MOL0     H87975   4.265   4.853   7.661 -0.9873 -1.1481  1.7817
  652MOL0     H87976   4.180   5.141   7.653 -1.0662 -0.8131  1.1414
  652MOL0     H87977   4.187   5.031   7.510  0.5731 -2.5043  0.9117
  652MOL0     H87978   4.365   5.184   7.489  1.6764 -0.4712  0.1361
  652MOL0     H87979   4.431   5.015   7.516 -0.6039 -2.2416  2.7849
  652MOL0     H87980   4.623   5.087   7.446  1.6722 -3.3154  0.0780
  652MOL0     H87981   4.940   5.003   7.387  1.9906  3.2352 -2.5091
  652MOL0     H87982   4.785   5.045   7.326  0.4884  0.5020 -1.0019
  652MOL0     H87983   4.898   5.172   7.348  1.0282  0.0759  0.7565
  652MOL0     H87984   5.272   5.271   7.741  1.5914 -0.2924 -1.6926
  652MOL0     H87985   5.503   5.223   7.804  0.3926 -0.4597  0.9829
  652MOL0     H87986   5.574   4.853   8.070  0.3472 -2.3267 -0.2536
  652MOL0     H87987   5.604   4.833   7.903  0.4905  0.0651 -0.4909
  652MOL0     H87988   5.800   4.925   8.111  2.0596 -0.7009  1.2487
  652MOL0     H87989   5.795   4.767   8.048 -0.7218  1.4731  1.4739
  652MOL0     H87990   5.963   4.972   7.970 -0.0035 -1.5415  2.1991
  652MOL0     H87991   5.837   5.002   7.856  0.9381  0.8250 -0.4529
  652MOL0     H87992   5.949   4.726   7.875  2.9700 -0.4738 -1.6669
  652MOL0     H87993   5.863   4.801   7.736  1.9663 -0.4406 -1.7492
  652MOL0     H87994   6.146   4.881   7.834  0.9717  3.5307 -2.7637
  652MOL0     H87995   6.062   4.936   7.697 -0.4136 -0.4526 -0.7580
  652MOL0     H87996   6.139   4.641   7.731  0.0910 -1.3631 -1.8204
  652MOL0     H87997   6.042   4.688   7.596 -0.4143 -2.7435  1.1600
  652MOL0     H87998   6.325   4.746   7.662  1.4435  0.9732 -1.4390
  652MOL0     H87999   6.234   4.877   7.577 -3.1510  0.1187  2.6301
  652MOL0     H88000   6.236   4.741   7.385 -1.6386 -3.0187 -0.3409
  652MOL0     H88001   6.228   4.591   7.482  0.5595 -0.6779 -0.4018
  652MOL0     H88002   5.372   4.861   7.998 -0.5873 -0.3590 -1.4828
  652MOL0     H88003   5.174   4.889   7.928 -1.3443  0.3855 -0.9795
  652MOL0     H88004   4.869   5.199   7.845  0.1445  3.4750 -1.1776
  652MOL0     H88005   4.627   5.204   7.862 -1.8586  0.9145 -1.7147
  652MOL0     H88006   5.058   4.277   8.515  1.3101 -0.1628 -1.8739
  652MOL0     H88007   5.069   4.324   8.749  1.6554  1.1481  1.6735
  652MOL0     H88008   5.148   4.427   9.194 -0.6875  0.3870 -2.7396
  652MOL0     H88009   5.173   4.552   9.423 -1.3960  0.9085  0.9090
  652MOL0     H88010   5.379   4.957   9.435  0.3843 -1.4611  2.0510
  652MOL0     H88011   5.212   4.971   9.366  2.1190 -0.1124 -2.0694
  652MOL0     H88012   5.239   5.101   9.568  0.5939  0.1982  0.9166
  652MOL0     H88013   5.270   4.968   9.667 -1.3104  0.7403  0.3556
  652MOL0     H88014   5.059   4.857   9.595  0.8652 -0.1647 -1.3720
  652MOL0     H88015   5.011   5.018   9.520 -0.2256  0.7867  0.4048
  652MOL0     H88016   5.084   5.086   9.776  1.7452 -1.0680 -1.4184
  652MOL0     H88017   5.038   4.920   9.820 -0.7280 -0.7153  0.3223
  652MOL0     H88018   4.661   5.096   9.770  1.0060 -0.0054 -0.8271
  652MOL0     H88019   5.338   4.871   9.195  0.4702 -0.5903  0.5780
  652MOL0     H88020   5.312   4.752   8.999  0.3932 -1.2321  0.3355
  653MOL0     O88021   9.735   9.517   0.835 -0.6678  0.3896 -0.0889
  653MOL0     C88022   9.679   9.485   0.945 -0.9944 -0.8543 -0.5328
  653MOL0     O88023   9.633   9.367   0.977  0.5653 -0.2931 -0.0087
  653MOL0     C88024   9.572   9.284   0.884  0.0804  0.0964 -0.4366
  653MOL0     C88025   9.546   9.307   0.743 -0.1519  0.4224 -0.9396
  653MOL0     C88026   9.481   9.212   0.673  0.7342 -0.3844  0.1437
  653MOL0     C88027   9.452   9.080   0.722  0.0156 -0.0288  0.3594
  653MOL0     O88028   9.407   8.971   0.641  0.1505 -0.0498 -0.8690
  653MOL0     C88029   9.322   9.004   0.526 -0.1880  0.8982  0.3596
  653MOL0     C88030   9.280   8.870   0.461  0.5387 -0.3317 -0.0547
  653MOL0     C88031   9.211   8.900   0.327  0.6230 -1.0701 -0.1399
  653MOL0     C88032   9.104   8.800   0.306  0.3771  1.0259  0.4662
  653MOL0     C88033   9.021   8.807   0.172  0.0028  0.4997 -0.4355
  653MOL0     C88034   8.929   8.684   0.147 -0.4902  0.3335  0.0116
  653MOL0     C88035   8.792   8.721   0.086 -0.0631  0.6728 -0.8229
  653MOL0     C88036   8.717   8.590   0.074 -0.5512  0.2019  0.2832
  653MOL0     N88037   8.595   8.594  -0.001 -0.4878 -0.0357 -0.2776
  653MOL0     C88038   8.556   8.653  -0.120  0.1443 -1.5710  0.8584
  653MOL0     C88039   8.436   8.609  -0.144  0.8084  0.1956  0.0308
  653MOL0     C88040   8.338   8.678  -0.234 -0.1662 -0.0830 -0.2771
  653MOL0     C88041   8.241   8.758  -0.165 -0.0780 -0.1951  0.4690
  653MOL0     C88042   8.284   8.875  -0.077 -0.1696  0.8605  0.6543
  653MOL0     C88043   8.332   9.002  -0.147  0.0024  0.7703  0.7986
  653MOL0     O88044   8.473   8.970  -0.184  0.8627 -0.2021  0.0085
  653MOL0     C88045   8.571   9.026  -0.107  0.4283  0.1565  0.9366
  653MOL0     C88046   8.557   9.080   0.021  0.3498 -0.4841  0.8768
  653MOL0     C88047   8.669   9.153   0.080 -0.4779  0.0938  0.8307
  653MOL0     C88048   8.652   9.219   0.213  0.5182 -0.5567 -0.5032
  653MOL0     C88049   8.799   9.158   0.015  1.0186 -0.6000 -0.3954
  653MOL0     C88050   8.912   9.233   0.063 -0.7990  0.4441 -1.1478
  653MOL0     O88051   8.945   9.221   0.197  0.1436  0.0876  0.2253
  653MOL0     C88052   9.031   9.314   0.254 -0.1113  0.2861 -0.8630
  653MOL0     C88053   8.983   9.407   0.348 -1.3752  0.4034 -0.6793
  653MOL0     C88054   9.067   9.493   0.420 -1.2049 -0.5143 -0.5033
  653MOL0     C88055   9.207   9.496   0.404  1.1821 -0.4807  0.4789
  653MOL0     O88056   9.281   9.579   0.484 -0.7510  0.1964 -0.0343
  653MOL0     C88057   9.424   9.591   0.467  0.2531 -0.3959 -0.0785
  653MOL0     C88058   9.482   9.697   0.558  0.3419 -0.4401  1.0644
  653MOL0     C88059   9.633   9.695   0.558 -1.3528  0.6541 -0.1694
  653MOL0     C88060   9.696   9.729   0.422 -0.4120 -0.2337  0.2400
  653MOL0     C88061   9.848   9.731   0.452 -0.2337  0.3225 -0.1404
  653MOL0     C88062   9.943   9.752   0.327 -0.2758  0.5304  0.6024
  653MOL0     C88063   9.904   9.888   0.266  0.4411 -0.3101 -0.2762
  653MOL0     C88064   9.997   9.940   0.159 -0.5310  0.4612  0.4204
  653MOL0    Cl88065   9.904  10.066   0.070 -0.0357 -0.6137 -0.0154
  653MOL0     C88066   9.258   9.410   0.299  0.9779 -0.6780  1.1596
  653MOL0     C88067   9.167   9.323   0.225  0.1382 -0.1696  0.6398
  653MOL0     O88068   8.966   9.301  -0.025 -0.5848 -0.9362  0.0232
  653MOL0     C88069   8.799   9.093  -0.107  0.0916  0.7811  1.0992
  653MOL0     C88070   8.690   9.029  -0.167  0.0153  0.2109 -0.2534
  653MOL0     N88071   8.391   8.524  -0.041  0.3163 -0.0843 -0.0485
  653MOL0     N88072   8.492   8.514   0.040 -0.3014 -0.4200  0.0573
  653MOL0     C88073   9.464   9.068   0.863  0.1425 -0.5279 -0.1366
  653MOL0     C88074   9.535   9.167   0.944  0.0833  0.3501 -0.5300
  653MOL0     C88075   9.705   9.586   1.059 -0.2112  0.4247 -0.9707
  653MOL0     C88076   9.676   9.556   1.196 -0.3417  0.2768  0.2490
  653MOL0     C88077   9.704   9.646   1.291  0.3749 -0.0322  1.1604
  653MOL0     C88078   9.760   9.769   1.264 -0.1288 -0.2059 -1.2445
  653MOL0     O88079   9.775   9.871   1.359  0.5562 -0.2951  0.1082
  653MOL0     C88080   9.766   9.837   1.500 -0.0114 -0.7771  0.5418
  653MOL0     C88081   9.895   9.788   1.561  0.4412 -1.2245  0.0726
  653MOL0     C88082   9.991   9.902   1.596 -0.2200  0.3526 -0.1235
  653MOL0     C88083  10.071   9.870   1.721  0.1216  0.5249 -0.2099
  653MOL0     C88084  10.176   9.966   1.746 -0.0192  0.5343 -0.0248
  653MOL0     C88085  10.280  10.022   1.755  0.3488 -0.2060  1.0321
  653MOL0     C88086   9.787   9.800   1.132  0.3152  0.0714 -0.2338
  653MOL0     C88087   9.759   9.714   1.030 -0.5471 -0.2553  1.4469
  653MOL0     H88088   9.571   9.403   0.698 -0.7870 -0.5171 -3.4456
  653MOL0     H88089   9.434   9.239   0.579  0.9977 -1.7283 -0.4036
  653MOL0     H88090   9.235   9.068   0.539  1.4666  3.2590  0.4472
  653MOL0     H88091   9.378   9.051   0.444 -1.3738  1.5656 -0.0841
  653MOL0     H88092   9.363   8.804   0.435 -2.0913 -2.8055 -3.0446
  653MOL0     H88093   9.215   8.812   0.527  1.1587 -0.6102  0.3263
  653MOL0     H88094   9.158   8.995   0.333  1.7262 -0.5504  3.5732
  653MOL0     H88095   9.280   8.901   0.242 -1.0381  0.3857 -1.5645
  653MOL0     H88096   9.145   8.698   0.308 -2.9463 -0.4560  0.0497
  653MOL0     H88097   9.044   8.811   0.397  0.4934 -0.0782  0.6955
  653MOL0     H88098   8.955   8.894   0.172  0.0134  0.5521 -2.2080
  653MOL0     H88099   9.080   8.829   0.082 -1.9459 -1.2496 -2.2652
  653MOL0     H88100   8.984   8.618   0.080 -0.5725  2.9714 -2.8651
  653MOL0     H88101   8.920   8.639   0.246  0.3095  2.1227  0.9492
  653MOL0     H88102   8.734   8.786   0.151 -0.2633 -2.3548  2.2595
  653MOL0     H88103   8.816   8.750  -0.017  2.5623  0.9881 -0.1937
  653MOL0     H88104   8.702   8.570   0.180 -1.6450 -2.0141 -0.2348
  653MOL0     H88105   8.782   8.515   0.027 -1.2779 -2.4853  3.1638
  653MOL0     H88106   8.594   8.739  -0.175 -1.4380  0.8161  3.2926
  653MOL0     H88107   8.403   8.734  -0.302  1.0492  0.6351  1.4280
  653MOL0     H88108   8.290   8.596  -0.289 -0.0428 -1.2479  1.2948
  653MOL0     H88109   8.178   8.692  -0.105  0.8688 -1.6617 -0.1013
  653MOL0     H88110   8.179   8.799  -0.246 -0.9020  0.0147  1.1939
  653MOL0     H88111   8.347   8.841   0.006  0.2400 -1.4106 -0.5106
  653MOL0     H88112   8.190   8.909  -0.033 -0.3375  1.9011 -0.4545
  653MOL0     H88113   8.325   9.084  -0.075  0.3478  2.2900 -0.8294
  653MOL0     H88114   8.276   9.023  -0.238  0.5467 -0.1431  0.2443
  653MOL0     H88115   8.460   9.078   0.070 -0.0909  1.9748  0.2413
  653MOL0     H88116   8.706   9.167   0.293 -0.4627 -1.1573 -0.2164
  653MOL0     H88117   8.666   9.328   0.221  2.0142 -0.4478 -3.2587
  653MOL0     H88118   8.548   9.200   0.240  0.7917  1.2001  2.1939
  653MOL0     H88119   8.876   9.401   0.366 -1.2114 -4.3609 -0.0296
  653MOL0     H88120   9.023   9.567   0.486 -1.1556  1.1075 -2.2268
  653MOL0     H88121   9.466   9.491   0.484  0.7768 -0.1286  0.2003
  653MOL0     H88122   9.447   9.616   0.363  0.4703 -2.2897 -0.5270
  653MOL0     H88123   9.450   9.798   0.530 -1.0886 -1.7475 -2.7390
  653MOL0     H88124   9.444   9.669   0.656 -1.2575 -2.3670 -0.0308
  653MOL0     H88125   9.667   9.592   0.572  1.0704  1.2866 -0.8946
  653MOL0     H88126   9.678   9.761   0.633 -3.4482  3.3770 -1.1238
  653MOL0     H88127   9.670   9.658   0.343 -2.4244 -0.2217  0.8440
  653MOL0     H88128   9.673   9.830   0.386 -1.6859 -1.0178 -1.2375
  653MOL0     H88129   9.886   9.646   0.508  0.9576  0.4105 -0.7740
  653MOL0     H88130   9.869   9.817   0.517 -0.1555 -1.2938  2.0933
  653MOL0     H88131  10.044   9.755   0.368 -0.8359  0.4445  2.0639
  653MOL0     H88132   9.925   9.673   0.253 -0.9425 -0.8851  2.1949
  653MOL0     H88133   9.899   9.953   0.353 -0.3203 -1.4002  0.5192
  653MOL0     H88134   9.808   9.879   0.215  1.2273 -1.5932 -1.6400
  653MOL0     H88135  10.017   9.859   0.089  1.4821  0.1930  1.2515
  653MOL0     H88136  10.083   9.982   0.213  1.2523  1.2081 -2.7560
  653MOL0     H88137   9.362   9.402   0.269  0.4078 -0.5544 -1.0844
  653MOL0     H88138   9.210   9.270   0.140 -0.9681  0.0906 -0.1006
  653MOL0     H88139   8.891   9.109  -0.161 -0.0482  0.4086  0.7431
  653MOL0     H88140   8.700   8.993  -0.270 -4.8894 -0.2525 -0.8195
  653MOL0     H88141   9.438   8.970   0.901  2.2318 -0.3266  2.0119
  653MOL0     H88142   9.563   9.139   1.045  3.3355  1.7291 -0.9387
  653MOL0     H88143   9.644   9.458   1.229 -4.5480  0.7527 -1.7867
  653MOL0     H88144   9.668   9.608   1.386  0.4059 -2.4570  0.2694
  653MOL0     H88145   9.719   9.917   1.558 -0.2716 -0.5647  0.0460
  653MOL0     H88146   9.685   9.765   1.517  0.0008 -0.5580  1.6433
  653MOL0     H88147   9.950   9.720   1.495  3.9442  1.5543 -0.1899
  653MOL0     H88148   9.867   9.743   1.656  0.8399 -0.5546  0.5148
  653MOL0     H88149   9.940   9.997   1.614  1.0103  1.3843 -1.8444
  653MOL0     H88150  10.066   9.906   1.516  0.2345 -0.2727  0.2597
  653MOL0     H88151  10.122   9.777   1.692  0.9469  1.5371 -2.2183
  653MOL0     H88152  10.014   9.854   1.813  1.8801 -0.5148  0.7535
  653MOL0     H88153  10.379  10.063   1.762 -0.7809  3.0182 -0.0096
  653MOL0     H88154   9.819   9.901   1.109  0.2867  0.1742  0.1580
  653MOL0     H88155   9.781   9.737   0.927  2.9547 -1.1739  1.8494
  654MOL0     O88156   5.595   5.015   2.419 -0.0851  0.8642  0.4716
  654MOL0     C88157   5.589   5.121   2.355 -0.8188  0.4454 -0.4299
  654MOL0     O88158   5.696   5.204   2.343 -0.1790  0.3854  0.2796
  654MOL0     C88159   5.811   5.185   2.409 -0.3950  0.4133  0.2168
  654MOL0     C88160   5.880   5.067   2.405 -0.0861  0.2038  0.1106
  654MOL0     C88161   6.008   5.050   2.466 -0.1472  0.0780  0.5733
  654MOL0     C88162   6.058   5.151   2.550  0.1045  0.0449 -1.1318
  654MOL0     O88163   6.164   5.117   2.630 -0.4091  0.1639  0.3218
  654MOL0     C88164   6.239   5.230   2.673 -0.6533 -0.1544  0.7003
  654MOL0     C88165   6.371   5.189   2.717 -0.9879  0.1325  0.2899
  654MOL0     C88166   6.454   5.128   2.594  0.7081  0.8610 -0.2445
  654MOL0     C88167   6.563   5.033   2.662 -0.1806  0.0204  0.6196
  654MOL0     C88168   6.676   4.987   2.568  0.7102  0.4528  0.1444
  654MOL0     C88169   6.802   4.945   2.635  0.9497 -0.0020  0.0789
  654MOL0     C88170   6.912   4.905   2.547 -0.8992  0.9851  0.0608
  654MOL0     C88171   7.019   4.817   2.612 -1.0016  0.2913  0.1928
  654MOL0     N88172   7.138   4.787   2.521  0.0312 -0.0980 -0.5219
  654MOL0     C88173   7.216   4.871   2.461  0.5812 -0.5292  0.3658
  654MOL0     C88174   7.266   4.799   2.361 -0.4695  0.0452 -1.1510
  654MOL0     C88175   7.353   4.860   2.252 -1.2789 -0.9819  0.8601
  654MOL0     C88176   7.508   4.863   2.294  0.6427  0.0569  0.4875
  654MOL0     C88177   7.567   4.720   2.285 -0.0799 -0.6776  0.3658
  654MOL0     C88178   7.626   4.663   2.417 -0.4445  0.4637 -0.3857
  654MOL0     O88179   7.721   4.564   2.371 -0.1776  0.1448 -0.4845
  654MOL0     C88180   7.686   4.435   2.361  0.2047 -1.3048  0.8611
  654MOL0     C88181   7.784   4.355   2.307  0.0448 -0.6031 -0.3574
  654MOL0     C88182   7.765   4.221   2.276 -0.8138 -0.2028  0.1858
  654MOL0     C88183   7.876   4.158   2.188  0.3912  0.2517  0.5632
  654MOL0     C88184   7.640   4.159   2.297 -1.0991  0.3692 -1.0309
  654MOL0     C88185   7.611   4.017   2.248  0.4333 -0.1408 -0.0662
  654MOL0     O88186   7.654   3.985   2.120 -0.1152 -0.0116  0.3126
  654MOL0     C88187   7.646   3.853   2.068 -0.8394 -0.1459 -0.1430
  654MOL0     C88188   7.533   3.779   2.079  0.2191 -0.0948 -0.7511
  654MOL0     C88189   7.524   3.648   2.022  0.1956 -1.0813 -0.5376
  654MOL0     C88190   7.634   3.589   1.964  0.1047 -0.4827 -0.4362
  654MOL0     O88191   7.625   3.460   1.925 -0.2530  0.6388 -0.4116
  654MOL0     C88192   7.740   3.390   1.879 -0.2167  0.3733 -0.4391
  654MOL0     C88193   7.716   3.238   1.862  0.0289  0.2033 -0.7118
  654MOL0     C88194   7.714   3.161   1.996  0.3712 -1.2727  0.5087
  654MOL0     C88195   7.851   3.134   2.071  0.1053 -0.1493 -0.8950
  654MOL0     C88196   7.965   3.108   1.971  0.1453 -0.5557  0.2411
  654MOL0     C88197   8.097   3.080   2.050  0.6213  0.7222 -0.7829
  654MOL0     C88198   8.210   3.071   1.950 -0.7102  0.3509 -0.1397
  654MOL0     C88199   8.339   3.022   2.016  1.6746  0.3571 -0.0932
  654MOL0    Cl88200   8.427   3.158   2.081 -0.1013  0.3571  0.1989
  654MOL0     C88201   7.749   3.660   1.964  0.7568  0.1326 -0.0260
  654MOL0     C88202   7.762   3.790   2.020  0.5031  0.0825  1.5690
  654MOL0     O88203   7.552   3.947   2.331  0.1230 -0.1277 -0.0009
  654MOL0     C88204   7.541   4.236   2.354 -0.6246  0.6981  0.2606
  654MOL0     C88205   7.560   4.372   2.379  0.6860  0.9556 -0.3004
  654MOL0     N88206   7.225   4.669   2.367 -0.4842 -0.2968 -0.0246
  654MOL0     N88207   7.152   4.662   2.467 -0.2152  0.5584 -0.4586
  654MOL0     C88208   5.986   5.271   2.558  0.5353 -0.9608  0.1236
  654MOL0     C88209   5.866   5.286   2.489 -0.1641 -0.5811 -0.0047
  654MOL0     C88210   5.463   5.165   2.305  0.2452 -0.5256  0.2639
  654MOL0     C88211   5.355   5.081   2.301  0.4811 -0.5056 -0.9211
  654MOL0     C88212   5.238   5.113   2.230  0.8192 -0.2860 -0.1185
  654MOL0     C88213   5.221   5.231   2.159  0.2265  0.6222  0.1485
  654MOL0     O88214   5.098   5.267   2.095 -0.3237  0.2670  0.1852
  654MOL0     C88215   5.086   5.208   1.967 -0.6070  0.0211  0.4193
  654MOL0     C88216   5.006   5.293   1.869 -0.1371 -1.2854 -0.4818
  654MOL0     C88217   5.058   5.442   1.866 -0.9244 -0.3570  0.5369
  654MOL0     C88218   5.191   5.448   1.786  0.2599  0.6235 -0.9997
  654MOL0     C88219   5.170   5.425   1.639 -0.0256 -0.4388  0.6036
  654MOL0     C88220   5.167   5.423   1.515 -0.2244 -0.2591  0.8156
  654MOL0     C88221   5.333   5.316   2.161  0.2411 -0.0260  0.8096
  654MOL0     C88222   5.456   5.283   2.231 -0.1114 -0.7307 -0.6248
  654MOL0     H88223   5.844   4.986   2.343  0.8309 -0.1896  0.0754
  654MOL0     H88224   6.059   4.958   2.440  0.9318  1.2071 -1.6773
  654MOL0     H88225   6.237   5.306   2.594 -1.9891 -0.8536  0.0058
  654MOL0     H88226   6.185   5.252   2.765 -0.1933 -1.9303  1.4194
  654MOL0     H88227   6.427   5.279   2.744 -1.5475  0.3493  0.7558
  654MOL0     H88228   6.375   5.116   2.798 -0.9576 -0.4431 -0.2283
  654MOL0     H88229   6.394   5.074   2.519 -0.2691  2.5892 -0.7536
  654MOL0     H88230   6.513   5.199   2.536  3.0755 -0.8160 -0.0197
  654MOL0     H88231   6.606   5.095   2.741  0.3798  0.7374 -0.2240
  654MOL0     H88232   6.514   4.950   2.714  3.0489 -1.9824  0.6948
  654MOL0     H88233   6.634   4.900   2.517 -1.2877 -0.2115  2.6611
  654MOL0     H88234   6.705   5.058   2.491 -2.2799 -1.7262 -3.3247
  654MOL0     H88235   6.837   5.027   2.698  0.2464  1.1813 -1.0008
  654MOL0     H88236   6.769   4.863   2.699 -0.6593  1.4791  1.2299
  654MOL0     H88237   6.878   4.852   2.457  0.0863  2.5061 -1.2569
  654MOL0     H88238   6.962   4.992   2.504 -1.6842  3.0925  3.1240
  654MOL0     H88239   6.978   4.719   2.640 -2.7012  0.9923  0.2663
  654MOL0     H88240   7.048   4.878   2.698 -2.8395  2.6534 -0.7560
  654MOL0     H88241   7.221   4.976   2.487 -0.9551 -0.4353  0.3758
  654MOL0     H88242   7.339   4.810   2.156 -1.5777  1.7931 -0.6304
  654MOL0     H88243   7.315   4.962   2.245 -4.0878 -2.0587 -1.4618
  654MOL0     H88244   7.525   4.907   2.393 -1.7363 -0.5095  1.2042
  654MOL0     H88245   7.563   4.918   2.217  1.6620  0.5657  1.5498
  654MOL0     H88246   7.643   4.721   2.206  2.2808 -0.3107  2.5243
  654MOL0     H88247   7.485   4.659   2.247  0.1174 -1.1231  0.6542
  654MOL0     H88248   7.556   4.621   2.490  4.1195 -0.5500  4.0569
  654MOL0     H88249   7.675   4.742   2.476  0.8180  1.3807 -2.5517
  654MOL0     H88250   7.883   4.398   2.294  0.5683 -2.1057 -1.6759
  654MOL0     H88251   7.965   4.220   2.198 -0.4455  1.5105  0.3907
  654MOL0     H88252   7.907   4.054   2.205 -1.2983 -0.1786  1.2659
  654MOL0     H88253   7.851   4.158   2.081  2.7410 -2.3801 -0.1157
  654MOL0     H88254   7.451   3.829   2.131  0.9955 -2.0301  2.6415
  654MOL0     H88255   7.430   3.593   2.016 -1.8387  1.8548  1.2476
  654MOL0     H88256   7.760   3.429   1.779 -1.8095  0.7766 -0.6256
  654MOL0     H88257   7.820   3.410   1.951 -0.2187  1.3006 -0.6789
  654MOL0     H88258   7.615   3.232   1.820 -0.7012 -0.4844  1.0844
  654MOL0     H88259   7.790   3.193   1.794 -1.4378 -1.5404 -1.2402
  654MOL0     H88260   7.669   3.067   1.962 -2.2322  1.0237 -2.9815
  654MOL0     H88261   7.634   3.197   2.062 -1.5915  2.4476 -3.4219
  654MOL0     H88262   7.875   3.218   2.137  0.9818 -2.2320  1.6256
  654MOL0     H88263   7.843   3.043   2.130  2.3902  0.6488  0.8020
  654MOL0     H88264   7.988   3.194   1.907  2.8023 -2.4017 -1.4925
  654MOL0     H88265   7.942   3.029   1.900  1.1344  1.0055 -1.9416
  654MOL0     H88266   8.105   3.161   2.124 -2.6499 -0.8944  1.5965
  654MOL0     H88267   8.083   2.988   2.106 -1.2124  0.2269 -1.9400
  654MOL0     H88268   8.233   3.174   1.921  2.5451  0.7509  3.1199
  654MOL0     H88269   8.196   3.010   1.861  2.7370 -0.7333 -0.0464
  654MOL0     H88270   8.406   2.976   1.942  3.8710 -0.7368  2.4309
  654MOL0     H88271   8.326   2.946   2.092  0.9117 -0.7422 -1.2871
  654MOL0     H88272   7.841   3.632   1.914  1.0908  0.4693  0.3818
  654MOL0     H88273   7.852   3.849   2.031 -1.0610  3.2371 -0.6590
  654MOL0     H88274   7.439   4.199   2.367 -0.1257 -0.5939  0.6848
  654MOL0     H88275   7.476   4.423   2.424  0.4079  0.8029 -0.6403
  654MOL0     H88276   6.008   5.364   2.610  0.4851 -1.2525  0.6705
  654MOL0     H88277   5.822   5.385   2.496 -3.5200 -2.0886  2.4949
  654MOL0     H88278   5.359   4.984   2.348 -0.1158 -1.0284 -1.9145
  654MOL0     H88279   5.157   5.044   2.249  0.6340 -0.6215 -1.9633
  654MOL0     H88280   5.184   5.199   1.919 -0.4702  0.3834  0.6258
  654MOL0     H88281   5.042   5.108   1.966  0.3519 -0.4296 -1.3693
  654MOL0     H88282   4.901   5.301   1.899 -0.1820 -1.5304 -0.5744
  654MOL0     H88283   5.005   5.260   1.765 -1.5265  4.4821 -2.6841
  654MOL0     H88284   5.075   5.479   1.968 -0.7200  1.2069 -0.0505
  654MOL0     H88285   4.979   5.503   1.823 -0.8834  0.5091  1.6467
  654MOL0     H88286   5.249   5.372   1.840 -1.1844  0.4372  0.3808
  654MOL0     H88287   5.233   5.546   1.809  1.6672 -0.6787  2.9073
  654MOL0     H88288   5.162   5.432   1.408 -1.6557  1.7038  0.9945
  654MOL0     H88289   5.320   5.415   2.118  1.3794 -0.1342  0.1698
  654MOL0     H88290   5.543   5.347   2.229  0.1147 -0.8882  1.5278
  655MOL0     O88291   4.363   1.678   7.269  0.3394 -1.0789 -0.1686
  655MOL0     C88292   4.348   1.554   7.268  0.1229 -0.7490  0.1885
  655MOL0     O88293   4.241   1.498   7.211  0.5299  0.2622 -0.0705
  655MOL0     C88294   4.127   1.560   7.176 -0.3246 -0.4525 -0.2972
  655MOL0     C88295   4.066   1.513   7.064 -0.2692  0.0692  0.1696
  655MOL0     C88296   3.945   1.569   7.032 -0.8130  0.1929  0.2770
  655MOL0     C88297   3.884   1.660   7.115  1.4309  0.4148  0.2914
  655MOL0     O88298   3.761   1.717   7.071 -0.9025 -0.1902  0.4385
  655MOL0     C88299   3.683   1.628   6.995  0.8378  0.4357 -0.9457
  655MOL0     C88300   3.529   1.657   6.988 -0.0911 -0.5247 -0.5497
  655MOL0     C88301   3.451   1.637   7.120 -0.1449  0.3600 -0.1421
  655MOL0     C88302   3.476   1.757   7.225  1.3040 -1.2690 -0.1519
  655MOL0     C88303   3.432   1.723   7.378  0.2028 -0.3577  0.5560
  655MOL0     C88304   3.279   1.717   7.394 -0.3412  0.8544 -0.2762
  655MOL0     C88305   3.243   1.677   7.536 -0.1421 -0.9576  0.2085
  655MOL0     C88306   3.340   1.565   7.591  0.1779  0.2431  0.4351
  655MOL0     N88307   3.282   1.494   7.709 -0.6172  0.8324  0.3776
  655MOL0     C88308   3.177   1.403   7.705  0.0225  0.4394  0.6021
  655MOL0     C88309   3.127   1.387   7.831  0.2349  0.4060  0.7674
  655MOL0     C88310   3.034   1.277   7.876  0.8306  0.4397  0.6102
  655MOL0     C88311   2.951   1.315   8.001  0.4261  0.3331  0.3124
  655MOL0     C88312   2.956   1.211   8.106 -0.6571 -0.3542 -0.2328
  655MOL0     C88313   2.892   1.082   8.068  0.1165 -0.3807  0.6290
  655MOL0     O88314   2.746   1.099   8.053 -0.0732 -0.2415  0.3378
  655MOL0     C88315   2.666   0.982   8.055 -0.5981  0.3107 -0.2982
  655MOL0     C88316   2.714   0.857   8.051  0.3985  0.6797  0.0914
  655MOL0     C88317   2.619   0.750   8.037 -0.3350  0.3109  0.6997
  655MOL0     C88318   2.685   0.615   8.036 -0.7800  0.3433  0.7706
  655MOL0     C88319   2.482   0.777   8.025 -1.3048  0.6006  0.3610
  655MOL0     C88320   2.381   0.665   7.990  0.0937 -0.4517 -0.6052
  655MOL0     O88321   2.316   0.593   8.086 -0.0332  0.1600 -0.4620
  655MOL0     C88322   2.237   0.486   8.053 -0.1904 -0.0592  0.6352
  655MOL0     C88323   2.096   0.501   8.044  0.7587  1.4303 -0.2738
  655MOL0     C88324   2.013   0.389   8.010 -1.0963 -0.6885  0.0439
  655MOL0     C88325   2.074   0.257   7.995 -0.5082 -0.1384  0.2806
  655MOL0     O88326   2.005   0.151   7.964 -0.0616  1.1461  0.2275
  655MOL0     C88327   1.872   0.166   7.919  0.6816  1.0179  0.6341
  655MOL0     C88328   1.824   0.034   7.875 -0.3813 -0.4747  0.9311
  655MOL0     C88329   1.674   0.031   7.871 -0.0861 -0.4413  0.2935
  655MOL0     C88330   1.612  -0.100   7.842 -0.3778  0.0382  0.1054
  655MOL0     C88331   1.458  -0.111   7.878 -0.0981 -0.5579 -0.3527
  655MOL0     C88332   1.373  -0.011   7.809  0.0217 -0.2897  0.2880
  655MOL0     C88333   1.308  -0.080   7.684 -0.5682  0.1216 -0.0042
  655MOL0     C88334   1.233   0.032   7.610  0.0503  0.8933 -0.0362
  655MOL0    Cl88335   1.077   0.063   7.681 -0.3427 -0.0818 -0.0790
  655MOL0     C88336   2.216   0.247   7.998 -0.5268 -0.2415  0.0027
  655MOL0     C88337   2.293   0.365   8.026 -0.1064  0.5610  0.3112
  655MOL0     O88338   2.363   0.650   7.877  0.1261 -0.2747  0.7812
  655MOL0     C88339   2.437   0.911   8.035 -0.0073  0.6360  0.2170
  655MOL0     C88340   2.531   1.011   8.059  0.1689 -1.1373  0.7059
  655MOL0     N88341   3.190   1.480   7.912  0.0654  0.2205  1.1731
  655MOL0     N88342   3.272   1.548   7.837 -0.1510 -0.4896 -0.3607
  655MOL0     C88343   3.935   1.705   7.236  0.5894  0.2934  0.1972
  655MOL0     C88344   4.061   1.647   7.262  0.3139 -0.2443 -0.2529
  655MOL0     C88345   4.443   1.463   7.320 -0.4781  0.2892 -0.0196
  655MOL0     C88346   4.536   1.508   7.412  0.2399  0.1590  0.1194
  655MOL0     C88347   4.622   1.419   7.468  0.1904 -0.2097 -0.2183
  655MOL0     C88348   4.618   1.278   7.445 -0.1134 -0.6469 -0.3802
  655MOL0     O88349   4.703   1.189   7.507  0.9796  0.6039  0.3425
  655MOL0     C88350   4.842   1.208   7.474  0.2633  0.0077  0.1111
  655MOL0     C88351   4.938   1.108   7.539  0.3808  0.0378  0.2047
  655MOL0     C88352   4.941   0.970   7.484 -0.4269  0.4844 -0.0079
  655MOL0     C88353   5.066   0.883   7.542  0.3535 -0.2232 -0.5677
  655MOL0     C88354   5.085   0.757   7.474  0.1147 -0.2834  0.5972
  655MOL0     C88355   5.109   0.647   7.422 -0.3469  0.1884  0.2374
  655MOL0     C88356   4.529   1.238   7.349 -0.3867  0.4363 -0.6742
  655MOL0     C88357   4.442   1.325   7.289  0.2655 -0.9568 -0.4278
  655MOL0     H88358   4.125   1.454   6.995  0.8149  1.8439 -0.4932
  655MOL0     H88359   3.919   1.528   6.934 -0.6024  0.4525  0.1133
  655MOL0     H88360   3.713   1.626   6.890  2.7219 -1.5446 -0.4542
  655MOL0     H88361   3.694   1.527   7.037  0.0033 -1.0983 -4.0464
  655MOL0     H88362   3.520   1.763   6.965  0.9039 -0.3831 -0.3663
  655MOL0     H88363   3.472   1.604   6.912 -1.2237 -1.6935  1.0466
  655MOL0     H88364   3.344   1.621   7.100  0.0729 -1.5628  0.0120
  655MOL0     H88365   3.479   1.550   7.180 -2.8193  1.0770  2.4439
  655MOL0     H88366   3.583   1.783   7.225  1.0311  0.0616  2.2226
  655MOL0     H88367   3.426   1.848   7.192 -1.1578 -2.1406  1.0043
  655MOL0     H88368   3.476   1.624   7.394  2.2967  0.2632 -0.9867
  655MOL0     H88369   3.474   1.793   7.450 -1.4045 -1.7172  2.9520
  655MOL0     H88370   3.234   1.814   7.369  0.3469  2.0513  2.7318
  655MOL0     H88371   3.240   1.639   7.328 -1.9523  1.2055  0.2279
  655MOL0     H88372   3.256   1.764   7.600  0.9071 -2.1337  1.6838
  655MOL0     H88373   3.135   1.675   7.552 -0.0996  1.2479  1.0441
  655MOL0     H88374   3.430   1.604   7.639 -0.2619  1.4785  0.2751
  655MOL0     H88375   3.370   1.486   7.522  1.1429 -0.9345  2.1060
  655MOL0     H88376   3.157   1.357   7.609  3.3103  1.0223 -0.4994
  655MOL0     H88377   2.973   1.256   7.788  3.9263 -1.4904 -1.2925
  655MOL0     H88378   3.092   1.185   7.892  0.4098  0.1224  0.3171
  655MOL0     H88379   2.843   1.316   7.980  0.0153 -5.0123  0.9229
  655MOL0     H88380   2.974   1.417   8.036 -2.7398  0.9824  0.8847
  655MOL0     H88381   2.886   1.237   8.187 -3.0005 -0.3433 -2.1578
  655MOL0     H88382   3.054   1.201   8.153  0.3311  3.2829 -1.2174
  655MOL0     H88383   2.927   1.009   8.142  0.2315  1.2636  2.2981
  655MOL0     H88384   2.925   1.051   7.969 -1.7541  0.0614 -0.1644
  655MOL0     H88385   2.815   0.822   8.068  1.7339  2.0001 -3.9767
  655MOL0     H88386   2.764   0.610   7.960  0.0266  0.7672  1.5712
  655MOL0     H88387   2.730   0.586   8.131  3.0010  0.2076 -0.8435
  655MOL0     H88388   2.613   0.539   8.005  2.2753 -1.3883 -2.9440
  655MOL0     H88389   2.048   0.596   8.062 -2.0919 -0.2450  1.7456
  655MOL0     H88390   1.906   0.395   7.993 -0.7975  0.9331 -1.6121
  655MOL0     H88391   1.819   0.200   8.008 -1.2139 -3.0074  1.3003
  655MOL0     H88392   1.860   0.241   7.840  3.2023 -1.6230 -2.6119
  655MOL0     H88393   1.872  -0.009   7.787  1.0612 -1.5733  2.1805
  655MOL0     H88394   1.860  -0.038   7.950  3.8896 -1.6038 -1.8643
  655MOL0     H88395   1.632   0.103   7.800  0.2142 -0.1744  0.3852
  655MOL0     H88396   1.638   0.067   7.967 -2.9035  2.0214 -1.5158
  655MOL0     H88397   1.641  -0.141   7.745  2.0978  0.0251  0.7972
  655MOL0     H88398   1.656  -0.173   7.910  2.3453  0.1064 -1.4432
  655MOL0     H88399   1.454  -0.090   7.985 -2.1136 -1.6175 -0.1763
  655MOL0     H88400   1.413  -0.210   7.866  0.4554 -0.9065  0.4133
  655MOL0     H88401   1.293   0.025   7.873  0.1785 -2.5719  1.8937
  655MOL0     H88402   1.430   0.076   7.776  2.1672 -2.1376 -1.2001
  655MOL0     H88403   1.248  -0.159   7.730  1.4807 -1.1701  0.5845
  655MOL0     H88404   1.373  -0.134   7.614 -1.2765 -1.1934  0.2966
  655MOL0     H88405   1.215   0.013   7.503  1.8200  2.9463 -0.7686
  655MOL0     H88406   1.300   0.117   7.615 -0.2645  1.0622  2.1323
  655MOL0     H88407   2.261   0.155   7.962  1.2820 -0.1777  1.9519
  655MOL0     H88408   2.399   0.350   8.010  0.0159  2.8035 -1.6374
  655MOL0     H88409   2.332   0.936   8.035  0.2701  2.3764  3.7097
  655MOL0     H88410   2.512   1.117   8.073  0.9645 -0.8198 -0.5441
  655MOL0     H88411   3.884   1.773   7.304  0.7351 -2.8225  3.7820
  655MOL0     H88412   4.109   1.665   7.358 -0.6403  0.4751  0.1085
  655MOL0     H88413   4.535   1.613   7.441  0.6992  1.7797 -4.7919
  655MOL0     H88414   4.692   1.465   7.538  0.6384  0.7752 -1.2835
  655MOL0     H88415   4.848   1.212   7.365 -3.1339  0.8543 -0.1703
  655MOL0     H88416   4.877   1.300   7.522  1.2171 -0.5850  0.5691
  655MOL0     H88417   4.929   1.102   7.648  1.7402 -0.2786  0.3161
  655MOL0     H88418   5.038   1.151   7.533 -0.5209  2.0549 -1.5224
  655MOL0     H88419   4.951   0.973   7.375 -5.5065 -0.0569 -0.7098
  655MOL0     H88420   4.852   0.910   7.504 -0.4809  0.4106 -0.4630
  655MOL0     H88421   5.070   0.878   7.651  1.5086  2.5658 -0.4033
  655MOL0     H88422   5.149   0.948   7.515 -1.1769  1.5909 -1.1166
  655MOL0     H88423   5.140   0.551   7.385 -1.6842  0.5692 -2.0832
  655MOL0     H88424   4.530   1.141   7.301  1.9949  0.8081 -1.4778
  655MOL0     H88425   4.369   1.282   7.221 -2.4421 -0.1191  1.7358
  656MOL0     O88426  10.773   1.732   4.911 -0.3420 -0.0773  0.3001
  656MOL0     C88427  10.782   1.770   5.026  0.9203  0.5961  0.0925
  656MOL0     O88428  10.717   1.719   5.131 -0.1223  0.6937  0.4194
  656MOL0     C88429  10.602   1.636   5.114  0.5284  0.0931 -0.2499
  656MOL0     C88430  10.592   1.534   5.210 -0.3379  0.2086  0.3277
  656MOL0     C88431  10.491   1.434   5.212  0.0889 -0.0279  0.8180
  656MOL0     C88432  10.395   1.444   5.111  0.2050  0.6438  0.0210
  656MOL0     O88433  10.302   1.330   5.110 -0.7427  0.2017 -0.9932
  656MOL0     C88434  10.162   1.366   5.091 -0.2946  0.2456 -0.0901
  656MOL0     C88435  10.122   1.319   4.956  0.2995 -0.5902  1.2690
  656MOL0     C88436  10.099   1.167   4.940  0.1548 -0.4855 -0.0080
  656MOL0     C88437  10.028   1.118   4.812  0.1124 -0.9055  0.5190
  656MOL0     C88438   9.944   0.990   4.832  0.1528  0.1227 -0.1577
  656MOL0     C88439   9.887   0.911   4.709 -0.1155 -0.0741 -0.7777
  656MOL0     C88440   9.983   0.886   4.592  0.1975  0.7634  0.2870
  656MOL0     C88441   9.953   0.781   4.491  0.3140  0.1317  0.7568
  656MOL0     N88442   9.812   0.789   4.433 -0.4194  0.8110 -0.9627
  656MOL0     C88443   9.791   0.772   4.300  0.8753  0.1004 -0.0719
  656MOL0     C88444   9.660   0.735   4.280  0.4891  0.9861 -0.4124
  656MOL0     C88445   9.600   0.705   4.151 -0.3887 -0.1172 -0.1330
  656MOL0     C88446   9.446   0.702   4.143 -0.0929 -0.3901  0.8862
  656MOL0     C88447   9.409   0.649   3.999  0.1589  0.2720 -0.4517
  656MOL0     C88448   9.264   0.674   3.985  0.7676 -0.0979 -0.0776
  656MOL0     O88449   9.216   0.625   3.867 -0.0828  0.0273  0.5624
  656MOL0     C88450   9.079   0.628   3.836 -0.4164 -0.0180 -0.7177
  656MOL0     C88451   8.986   0.671   3.939 -0.9021  0.8813 -0.1232
  656MOL0     C88452   8.848   0.676   3.914 -0.5961  1.0632 -0.1340
  656MOL0     C88453   8.764   0.753   4.010  0.4402 -0.6984  0.6433
  656MOL0     C88454   8.797   0.622   3.794  0.4763  0.6187  0.3066
  656MOL0     C88455   8.656   0.638   3.746  0.3701 -0.1141 -0.4676
  656MOL0     O88456   8.596   0.761   3.745 -0.5454 -0.4804 -0.4313
  656MOL0     C88457   8.468   0.770   3.685  0.0496  0.1566 -0.6820
  656MOL0     C88458   8.359   0.686   3.730 -0.3521  0.1946 -0.6663
  656MOL0     C88459   8.238   0.701   3.670  0.5774  0.4862 -0.2615
  656MOL0     C88460   8.217   0.785   3.556 -0.7378  0.5657  0.6944
  656MOL0     O88461   8.103   0.818   3.498  0.5844  0.1515  0.2200
  656MOL0     C88462   7.988   0.763   3.555  0.5042 -0.1422  0.7902
  656MOL0     C88463   7.868   0.815   3.486  0.3932 -0.4777  0.2536
  656MOL0     C88464   7.851   0.967   3.445 -0.7265  0.0200 -0.1263
  656MOL0     C88465   7.865   1.071   3.553 -0.7021 -0.4230 -0.3481
  656MOL0     C88466   7.823   1.214   3.522  0.1506  0.2831 -1.1864
  656MOL0     C88467   7.688   1.216   3.442 -0.3865 -0.8821  0.2587
  656MOL0     C88468   7.646   1.362   3.442  0.4000  0.0781 -0.1817
  656MOL0     C88469   7.567   1.389   3.564  0.2297 -0.6207  0.0504
  656MOL0    Cl88470   7.526   1.566   3.567 -0.6617 -0.2739  0.3988
  656MOL0     C88471   8.335   0.851   3.506  0.4066 -0.4718 -0.2815
  656MOL0     C88472   8.453   0.842   3.571  0.1309 -0.4312 -0.5108
  656MOL0     O88473   8.615   0.546   3.683  0.1188 -0.6610  0.2711
  656MOL0     C88474   8.889   0.569   3.698 -0.3856  0.0771  0.3264
  656MOL0     C88475   9.026   0.568   3.724  0.1228 -0.0665  0.1869
  656MOL0     N88476   9.609   0.740   4.405  0.3466  1.0091 -0.1698
  656MOL0     N88477   9.692   0.773   4.494  0.2270 -0.2072  0.2069
  656MOL0     C88478  10.404   1.541   5.005  0.3689  0.3133 -0.2096
  656MOL0     C88479  10.512   1.632   5.011 -0.4180  0.3757 -0.0415
  656MOL0     C88480  10.863   1.891   5.046 -0.4741 -0.4671  0.4232
  656MOL0     C88481  10.886   1.935   5.179 -0.1607  0.1206 -0.3554
  656MOL0     C88482  10.958   2.051   5.200  0.4395  0.3892 -0.4191
  656MOL0     C88483  11.021   2.116   5.093 -0.8221 -0.1113  0.7236
  656MOL0     O88484  11.112   2.221   5.104 -0.0143 -0.3263 -0.1207
  656MOL0     C88485  11.167   2.243   5.232  0.4138 -0.6365 -0.2055
  656MOL0     C88486  11.279   2.344   5.212 -1.1126  0.3634 -0.5342
  656MOL0     C88487  11.264   2.493   5.241 -0.1709  0.6727 -0.0522
  656MOL0     C88488  11.342   2.580   5.144 -0.0770 -0.0097 -0.8572
  656MOL0     C88489  11.485   2.561   5.149  0.2629  0.3007  0.0510
  656MOL0     C88490  11.609   2.548   5.155  0.3813  0.5245 -0.0160
  656MOL0     C88491  10.985   2.076   4.960  0.2401  0.3352  0.2311
  656MOL0     C88492  10.907   1.965   4.935  0.2773 -0.4369 -0.3190
  656MOL0     H88493  10.675   1.517   5.278 -1.3890 -2.2761  1.0727
  656MOL0     H88494  10.502   1.350   5.280  1.2474 -1.3966 -0.9660
  656MOL0     H88495  10.093   1.314   5.159  0.2062 -3.1671 -1.9876
  656MOL0     H88496  10.154   1.474   5.104 -1.9052  0.4271 -2.0849
  656MOL0     H88497  10.027   1.371   4.949 -1.0280 -2.4328  4.0338
  656MOL0     H88498  10.190   1.361   4.881 -2.0497  1.0834 -0.0600
  656MOL0     H88499  10.194   1.114   4.952  0.7454  0.0353 -1.9303
  656MOL0     H88500  10.037   1.145   5.027  2.8954 -4.0249  1.2875
  656MOL0     H88501   9.965   1.200   4.776  0.5024 -0.1555  1.5067
  656MOL0     H88502  10.105   1.096   4.738 -1.6857  0.6941 -1.9855
  656MOL0     H88503  10.021   0.923   4.871 -3.4645 -3.5770  1.2509
  656MOL0     H88504   9.876   1.016   4.913  4.3960  2.8877  2.9365
  656MOL0     H88505   9.872   0.811   4.750  1.7155 -0.3297 -0.6592
  656MOL0     H88506   9.785   0.943   4.683  0.3037  1.2616 -0.8891
  656MOL0     H88507   9.998   0.983   4.543  0.1660  0.4274 -0.3912
  656MOL0     H88508  10.076   0.848   4.635  0.0365 -0.4702 -0.4327
  656MOL0     H88509   9.968   0.680   4.531 -1.7172 -0.4107  0.2427
  656MOL0     H88510  10.031   0.799   4.416  0.7654 -0.0193  1.1863
  656MOL0     H88511   9.862   0.787   4.220 -0.1528  2.5111 -0.6522
  656MOL0     H88512   9.642   0.776   4.080 -0.2834 -0.6543 -0.6198
  656MOL0     H88513   9.637   0.612   4.106 -1.4629 -0.5281 -0.2000
  656MOL0     H88514   9.407   0.803   4.157  2.2524  0.7682 -0.3318
  656MOL0     H88515   9.390   0.636   4.210  0.2368 -1.6257 -0.0021
  656MOL0     H88516   9.420   0.540   3.988  2.8553  0.4858 -0.5530
  656MOL0     H88517   9.475   0.695   3.925  1.5083 -1.4389 -0.3759
  656MOL0     H88518   9.247   0.782   3.986 -1.7878 -0.4464  0.9545
  656MOL0     H88519   9.215   0.644   4.078  3.8256  0.6583  1.9203
  656MOL0     H88520   9.027   0.704   4.034 -0.2143 -0.8938  0.2435
  656MOL0     H88521   8.814   0.749   4.107 -2.4906 -0.7270  2.2870
  656MOL0     H88522   8.755   0.857   3.975 -0.7501 -0.8317  0.5071
  656MOL0     H88523   8.663   0.712   4.014 -0.7946  2.1885  2.0018
  656MOL0     H88524   8.368   0.615   3.812  0.0373 -0.8667 -1.5895
  656MOL0     H88525   8.156   0.638   3.704 -0.1920  2.1318  1.0366
  656MOL0     H88526   7.974   0.654   3.550 -2.7893  0.1000  2.4349
  656MOL0     H88527   7.984   0.787   3.662  0.8995 -0.5368  0.9007
  656MOL0     H88528   7.864   0.763   3.390 -1.0219  1.4081 -0.7666
  656MOL0     H88529   7.783   0.790   3.550  1.1497 -1.4018  0.9130
  656MOL0     H88530   7.754   0.978   3.395 -1.0360  1.4846  0.7414
  656MOL0     H88531   7.926   0.987   3.368  1.7091  1.8294  2.4998
  656MOL0     H88532   7.808   1.041   3.641 -0.6818 -2.3823 -0.9553
  656MOL0     H88533   7.971   1.077   3.580 -0.6604  3.4254 -0.7640
  656MOL0     H88534   7.892   1.267   3.457 -2.2991  4.1977 -0.9566
  656MOL0     H88535   7.805   1.272   3.613 -3.2222 -2.2512  0.0003
  656MOL0     H88536   7.709   1.179   3.341  2.6664 -1.4507  0.9870
  656MOL0     H88537   7.618   1.158   3.504 -0.6178 -1.5124 -0.5795
  656MOL0     H88538   7.595   1.378   3.347  0.9530 -1.3075 -0.7427
  656MOL0     H88539   7.734   1.426   3.435 -0.2947  0.8892 -2.1182
  656MOL0     H88540   7.613   1.363   3.660 -0.1373 -1.3173  0.0426
  656MOL0     H88541   7.478   1.326   3.553 -0.5259  0.5566 -0.8622
  656MOL0     H88542   8.325   0.919   3.422  0.4380 -1.1475 -0.8390
  656MOL0     H88543   8.535   0.900   3.529 -1.3684  1.8203 -0.5209
  656MOL0     H88544   8.855   0.533   3.602  0.8286  0.2506 -0.1894
  656MOL0     H88545   9.091   0.520   3.652 -0.9376 -2.2257  0.5930
  656MOL0     H88546  10.328   1.543   4.927 -0.9029  0.4633  0.9953
  656MOL0     H88547  10.520   1.711   4.937  0.2571  1.8332  1.5340
  656MOL0     H88548  10.843   1.879   5.261 -2.4467  2.0315 -0.1414
  656MOL0     H88549  10.993   2.079   5.299  2.8621 -0.7162 -0.8881
  656MOL0     H88550  11.093   2.284   5.301  0.1053 -2.3187  0.5071
  656MOL0     H88551  11.199   2.146   5.272 -0.0322 -1.0136 -0.7496
  656MOL0     H88552  11.313   2.343   5.107  1.3442  0.2550  0.1865
  656MOL0     H88553  11.367   2.305   5.265 -1.3872  2.0904  1.3134
  656MOL0     H88554  11.294   2.523   5.343  2.2654 -2.2871  0.2297
  656MOL0     H88555  11.159   2.516   5.218  0.5513  1.3815 -3.0276
  656MOL0     H88556  11.318   2.684   5.169 -0.1744 -0.7986  2.7671
  656MOL0     H88557  11.313   2.568   5.039  1.2368  1.9717 -1.5077
  656MOL0     H88558  11.714   2.530   5.171  0.9755  0.9782 -2.8983
  656MOL0     H88559  11.029   2.137   4.881 -2.4318  2.5763  0.3083
  656MOL0     H88560  10.875   1.935   4.836 -3.9899 -5.2065  2.0501
  657MOL0     O88561   1.542   3.175   0.026 -0.2712  0.4158  0.6365
  657MOL0     C88562   1.600   3.134  -0.074 -0.4422  0.1925  0.2849
  657MOL0     O88563   1.576   3.012  -0.137 -0.9226  1.0725  0.1673
  657MOL0     C88564   1.468   2.928  -0.106  0.2682  0.4482  0.9996
  657MOL0     C88565   1.493   2.793  -0.097  0.2116  0.2536  0.4229
  657MOL0     C88566   1.389   2.703  -0.055 -1.1338  0.0344 -0.7404
  657MOL0     C88567   1.256   2.755  -0.030 -0.3118  0.0726 -0.4529
  657MOL0     O88568   1.168   2.662   0.012  0.0848  0.4028  0.4769
  657MOL0     C88569   1.042   2.699   0.049  1.0530  0.0382 -0.0209
  657MOL0     C88570   0.958   2.576   0.072  0.1619  0.3698 -0.0500
  657MOL0     C88571   0.988   2.477   0.185 -0.7637  0.3884 -0.2510
  657MOL0     C88572   0.870   2.383   0.207 -0.5383 -0.1318  0.5936
  657MOL0     C88573   0.899   2.301   0.332 -0.8436  0.1712 -0.0814
  657MOL0     C88574   0.974   2.171   0.297 -0.6144  0.1911  0.2503
  657MOL0     C88575   0.959   2.061   0.401 -0.2712 -1.0049  0.0899
  657MOL0     C88576   0.970   1.917   0.346 -0.7494 -0.0964  0.6939
  657MOL0     N88577   1.104   1.879   0.305 -0.8965  0.3885 -0.8826
  657MOL0     C88578   1.187   1.942   0.211  0.4225 -0.0154  0.7892
  657MOL0     C88579   1.303   1.879   0.214 -0.5286 -0.0268 -0.7332
  657MOL0     C88580   1.434   1.900   0.142 -0.1974  0.1267 -0.5956
  657MOL0     C88581   1.459   2.044   0.107 -0.2746 -0.4913  0.6216
  657MOL0     C88582   1.568   2.049  -0.001  0.6221 -0.0393 -0.1695
  657MOL0     C88583   1.627   2.194   0.002  0.6500  1.0313  0.5144
  657MOL0     O88584   1.689   2.220   0.128  0.4222  0.0512  0.7431
  657MOL0     C88585   1.822   2.202   0.132 -0.7286  1.4207 -0.5935
  657MOL0     C88586   1.922   2.253   0.048  0.3056  0.2174 -0.5563
  657MOL0     C88587   2.062   2.235   0.074  0.2368  0.2967  0.2488
  657MOL0     C88588   2.168   2.311  -0.015 -0.3251 -0.7584 -0.8776
  657MOL0     C88589   2.110   2.147   0.176 -0.1703 -0.1647  0.6921
  657MOL0     C88590   2.251   2.107   0.197  0.1527 -0.6577 -1.5704
  657MOL0     O88591   2.271   2.021   0.296  0.5780  0.1042 -0.0958
  657MOL0     C88592   2.381   1.942   0.292  0.8196  0.1050  0.7909
  657MOL0     C88593   2.462   1.951   0.399 -0.1962  0.2101 -0.4360
  657MOL0     C88594   2.588   1.887   0.385  0.0506  0.4408  1.1254
  657MOL0     C88595   2.616   1.791   0.282 -0.3649  1.0022  0.8024
  657MOL0     O88596   2.733   1.711   0.284  0.7216  0.2045 -0.1459
  657MOL0     C88597   2.853   1.775   0.324  0.0435  0.2013 -1.1864
  657MOL0     C88598   2.939   1.783   0.198  0.0520  0.2761  0.0723
  657MOL0     C88599   3.061   1.873   0.233  0.9346 -1.1493 -0.3421
  657MOL0     C88600   3.136   1.896   0.100 -0.3795 -0.7131  0.5983
  657MOL0     C88601   3.245   2.002   0.116 -0.1404 -0.6230 -0.9309
  657MOL0     C88602   3.306   2.043  -0.008 -0.1721 -0.0445 -0.0415
  657MOL0     C88603   3.412   1.934  -0.048 -0.5261 -0.0556 -0.0033
  657MOL0     C88604   3.524   2.004  -0.130 -1.3975 -0.0678 -0.7172
  657MOL0    Cl88605   3.612   1.888  -0.221 -0.0202 -0.2021 -0.1234
  657MOL0     C88606   2.524   1.772   0.182 -0.0557 -0.0082  0.1063
  657MOL0     C88607   2.407   1.847   0.192 -0.5333  0.3341 -0.1220
  657MOL0     O88608   2.339   2.138   0.118  0.1777 -1.0600  0.0973
  657MOL0     C88609   2.011   2.110   0.260  0.9555  0.3647  0.0998
  657MOL0     C88610   1.871   2.135   0.247 -0.5266  0.3042  1.1176
  657MOL0     N88611   1.298   1.784   0.310  0.2655 -0.6918  0.0129
  657MOL0     N88612   1.177   1.784   0.363  0.0400 -0.4668  0.3324
  657MOL0     C88613   1.225   2.890  -0.052  0.0970 -0.0136  0.1026
  657MOL0     C88614   1.335   2.975  -0.084  0.1469 -0.6501  0.9310
  657MOL0     C88615   1.727   3.199  -0.116 -0.7380 -0.2306 -0.2418
  657MOL0     C88616   1.771   3.193  -0.252 -0.5098  0.1540  0.4007
  657MOL0     C88617   1.889   3.251  -0.290 -0.6579 -0.4505  0.5073
  657MOL0     C88618   1.974   3.309  -0.199  0.1282  0.6588 -0.0734
  657MOL0     O88619   2.101   3.372  -0.232  0.6057 -0.1412 -0.6254
  657MOL0     C88620   2.134   3.385  -0.376 -0.2450 -0.5496  1.1150
  657MOL0     C88621   2.270   3.446  -0.378  0.3353 -0.8681 -0.2743
  657MOL0     C88622   2.366   3.400  -0.493 -0.5541  0.5932  0.3337
  657MOL0     C88623   2.504   3.470  -0.492 -0.0234  0.0335 -0.4442
  657MOL0     C88624   2.504   3.601  -0.559 -0.1094 -0.5657 -0.3519
  657MOL0     C88625   2.476   3.700  -0.623  0.3265  0.1170 -0.5976
  657MOL0     C88626   1.927   3.321  -0.067 -0.3570  0.1258  0.0370
  657MOL0     C88627   1.813   3.257  -0.021  0.0172 -0.5947 -0.6331
  657MOL0     H88628   1.593   2.750  -0.102 -1.4875 -4.6631  2.0163
  657MOL0     H88629   1.421   2.601  -0.040 -0.5524  0.1197 -1.3411
  657MOL0     H88630   1.043   2.763   0.137 -1.7456  0.0601  0.0946
  657MOL0     H88631   0.993   2.745  -0.037  0.5379  1.9115  1.2252
  657MOL0     H88632   0.856   2.610   0.093  0.4176  1.4296 -0.4670
  657MOL0     H88633   0.963   2.528  -0.026  0.9141  4.9775 -2.5806
  657MOL0     H88634   1.081   2.426   0.156 -0.1186  2.2487 -1.5839
  657MOL0     H88635   1.008   2.517   0.285 -1.2581  2.7808 -1.0441
  657MOL0     H88636   0.775   2.429   0.235  0.5646  0.7438  3.2432
  657MOL0     H88637   0.846   2.328   0.116 -1.6482 -0.2167  0.9245
  657MOL0     H88638   0.956   2.346   0.414 -0.8103 -1.8705  1.0733
  657MOL0     H88639   0.801   2.279   0.376 -0.7937 -1.8142 -0.8372
  657MOL0     H88640   0.937   2.120   0.208 -1.3273 -1.7378  1.5659
  657MOL0     H88641   1.080   2.194   0.293 -0.6746  0.3199 -0.7833
  657MOL0     H88642   1.022   2.084   0.488  1.1123 -0.4933 -0.9995
  657MOL0     H88643   0.855   2.065   0.432 -0.7701  1.5690 -1.5867
  657MOL0     H88644   0.895   1.913   0.266 -2.5358 -0.2418  2.3008
  657MOL0     H88645   0.932   1.849   0.423 -0.7429  1.4737  2.1392
  657MOL0     H88646   1.151   2.017   0.142 -3.0752 -0.7259  1.6549
  657MOL0     H88647   1.515   1.874   0.211 -1.2098  1.2201  1.0900
  657MOL0     H88648   1.433   1.835   0.054 -0.0640  1.5538 -1.6949
  657MOL0     H88649   1.490   2.100   0.196  0.3241 -1.4501  1.0306
  657MOL0     H88650   1.373   2.101   0.069  0.9572  0.4359 -0.9201
  657MOL0     H88651   1.536   2.023  -0.102  1.4329 -1.5348 -0.0644
  657MOL0     H88652   1.643   1.973   0.022 -1.1954 -1.4907  1.3054
  657MOL0     H88653   1.544   2.259  -0.027 -0.8293 -0.9866 -0.0422
  657MOL0     H88654   1.699   2.195  -0.081  0.3581  0.5952  0.2521
  657MOL0     H88655   1.892   2.325  -0.028 -1.6826 -0.2376 -0.2490
  657MOL0     H88656   2.120   2.391  -0.073  0.1616  0.3051  0.1418
  657MOL0     H88657   2.248   2.361   0.040 -0.8454  2.2990 -2.6385
  657MOL0     H88658   2.219   2.243  -0.083  1.9882  0.3296 -0.3278
  657MOL0     H88659   2.441   2.006   0.490 -0.1673  4.3849 -2.6721
  657MOL0     H88660   2.666   1.912   0.456  0.5410 -0.1847  0.8168
  657MOL0     H88661   2.849   1.873   0.372 -3.3103 -0.4056  0.0455
  657MOL0     H88662   2.906   1.708   0.393 -0.5064  0.1820 -0.7808
  657MOL0     H88663   2.979   1.685   0.170 -0.3423 -0.0986  0.7696
  657MOL0     H88664   2.888   1.825   0.111 -0.3105  2.6628  1.3424
  657MOL0     H88665   3.128   1.837   0.312 -0.2601 -1.0838  0.7345
  657MOL0     H88666   3.020   1.970   0.263 -2.9895 -1.9797 -2.3934
  657MOL0     H88667   3.192   1.809   0.066  1.9470  1.6380 -2.0662
  657MOL0     H88668   3.065   1.930   0.024  0.5970  1.0009  0.4055
  657MOL0     H88669   3.327   1.965   0.178  0.6019  1.4449 -0.5684
  657MOL0     H88670   3.208   2.090   0.171  1.6410 -1.2029  1.3389
  657MOL0     H88671   3.245   2.079  -0.092 -0.1896  0.5382  0.2135
  657MOL0     H88672   3.356   2.137   0.019 -1.9964  0.9941 -0.1170
  657MOL0     H88673   3.363   1.866  -0.118  1.0108 -0.8253 -0.3743
  657MOL0     H88674   3.447   1.869   0.032 -1.1272 -0.4338 -0.0396
  657MOL0     H88675   3.577   2.049  -0.046 -1.9991 -3.2355  1.5534
  657MOL0     H88676   3.488   2.071  -0.209 -1.3976 -1.1391 -1.6495
  657MOL0     H88677   2.540   1.703   0.100  0.8291 -0.0978  0.3423
  657MOL0     H88678   2.338   1.841   0.108 -0.5925 -1.3281  0.0015
  657MOL0     H88679   2.040   2.039   0.337 -1.4888  0.6869  1.3921
  657MOL0     H88680   1.798   2.096   0.316  0.7266  0.4200  2.5586
  657MOL0     H88681   1.126   2.933  -0.042  0.0745 -0.5056  2.8230
  657MOL0     H88682   1.321   3.077  -0.120  1.3986 -1.1987 -1.2289
  657MOL0     H88683   1.699   3.143  -0.316 -1.0181  1.2087  0.1244
  657MOL0     H88684   1.918   3.242  -0.394 -2.2086 -1.9718  0.1536
  657MOL0     H88685   2.146   3.284  -0.416  0.0904 -0.1104  0.0655
  657MOL0     H88686   2.061   3.444  -0.432  0.7785 -0.2862  0.0203
  657MOL0     H88687   2.334   3.418  -0.293 -2.7884  1.0515  2.9923
  657MOL0     H88688   2.262   3.555  -0.376  0.4553 -0.8686  1.4067
  657MOL0     H88689   2.317   3.422  -0.589  0.2887 -4.9205 -1.7058
  657MOL0     H88690   2.395   3.295  -0.482  4.4016  1.9317  2.9419
  657MOL0     H88691   2.582   3.409  -0.538 -0.5747 -0.8004 -0.3019
  657MOL0     H88692   2.528   3.483  -0.386  0.7916 -2.3446 -0.2726
  657MOL0     H88693   2.452   3.781  -0.689  1.2314  0.5672 -0.3920
  657MOL0     H88694   1.994   3.382  -0.007  1.5038 -0.2170 -1.5658
  657MOL0     H88695   1.788   3.256   0.085 -0.1460 -3.3509 -0.6102
  658MOL0     O88696  10.423   4.818   6.623 -0.2834 -0.3445  0.4770
  658MOL0     C88697  10.335   4.897   6.663 -0.6146  0.3342 -0.1451
  658MOL0     O88698  10.205   4.905   6.624  0.1261  0.3968  0.0274
  658MOL0     C88699  10.160   4.832   6.517  0.5743  0.9516 -0.5739
  658MOL0     C88700  10.213   4.702   6.490  0.6221  1.1390 -0.1762
  658MOL0     C88701  10.164   4.625   6.372 -0.8463 -0.3203 -0.5530
  658MOL0     C88702  10.059   4.680   6.292 -0.3130  0.1038 -1.3761
  658MOL0     O88703   9.998   4.610   6.198 -0.3384  0.5036  0.2361
  658MOL0     C88704   9.858   4.576   6.213 -0.9576 -0.4162 -0.6509
  658MOL0     C88705   9.836   4.427   6.257  0.3415  0.0357 -0.2961
  658MOL0     C88706   9.700   4.410   6.331 -0.3883  0.5871  0.7214
  658MOL0     C88707   9.579   4.452   6.246 -0.1998  0.6384 -0.6576
  658MOL0     C88708   9.444   4.435   6.324  0.2549 -0.0628  0.3145
  658MOL0     C88709   9.422   4.536   6.441 -0.6099  0.4873  0.9421
  658MOL0     C88710   9.456   4.484   6.579 -0.0688 -0.3488 -0.3492
  658MOL0     C88711   9.371   4.549   6.680 -0.4141 -1.0636  0.0203
  658MOL0     N88712   9.403   4.497   6.816 -0.0584  0.2154 -0.6438
  658MOL0     C88713   9.507   4.541   6.892  0.1454  0.8339  0.7070
  658MOL0     C88714   9.481   4.472   7.008 -0.1337  0.6161 -0.1477
  658MOL0     C88715   9.554   4.471   7.136 -0.5567  0.5423  0.0001
  658MOL0     C88716   9.481   4.545   7.246  0.9101 -0.1540 -0.2546
  658MOL0     C88717   9.388   4.449   7.326 -0.9488  0.0131  0.7565
  658MOL0     C88718   9.329   4.535   7.442  0.2899  0.2259 -0.5516
  658MOL0     O88719   9.270   4.431   7.525 -0.3116 -0.2576 -0.3529
  658MOL0     C88720   9.138   4.423   7.519  0.2076 -1.1734 -1.3296
  658MOL0     C88721   9.075   4.451   7.641  0.0673 -1.0256  0.3096
  658MOL0     C88722   8.939   4.456   7.659 -0.0901  0.5438  0.0138
  658MOL0     C88723   8.890   4.529   7.784  0.2190 -0.1268 -0.3944
  658MOL0     C88724   8.857   4.404   7.555 -0.1173 -0.6307 -0.4005
  658MOL0     C88725   8.710   4.405   7.554 -0.1810  0.9818  0.3386
  658MOL0     O88726   8.655   4.346   7.438  0.7610  0.4297 -0.3154
  658MOL0     C88727   8.531   4.288   7.439 -0.6117 -0.4460 -0.1692
  658MOL0     C88728   8.458   4.239   7.556 -0.7616  0.3272 -0.6926
  658MOL0     C88729   8.333   4.174   7.535  0.4358  0.2879 -0.0058
  658MOL0     C88730   8.274   4.171   7.409  0.2345 -0.3383  0.8435
  658MOL0     O88731   8.153   4.112   7.393 -0.1997  0.1661  0.7356
  658MOL0     C88732   8.057   4.124   7.501  0.1370  0.0800  0.4377
  658MOL0     C88733   7.921   4.074   7.451 -0.4940  1.3888 -0.1708
  658MOL0     C88734   7.813   4.054   7.551  0.4593 -0.2339 -0.6134
  658MOL0     C88735   7.768   4.184   7.622  0.2268 -1.1229 -0.1147
  658MOL0     C88736   7.656   4.159   7.732  0.4364 -0.4925 -0.3223
  658MOL0     C88737   7.508   4.197   7.685 -0.2504 -0.0765  0.0656
  658MOL0     C88738   7.409   4.260   7.774 -0.4773  0.4516 -0.1169
  658MOL0     C88739   7.326   4.166   7.861 -0.3416 -0.0596  0.2652
  658MOL0    Cl88740   7.443   4.084   7.962 -0.1324 -0.1920  0.4347
  658MOL0     C88741   8.332   4.236   7.297  0.1718 -0.0341  0.0315
  658MOL0     C88742   8.458   4.286   7.309 -0.5754 -0.0146  0.6794
  658MOL0     O88743   8.649   4.434   7.654 -0.3048  0.8827 -0.0767
  658MOL0     C88744   8.923   4.365   7.438  0.6928 -0.2949  0.5172
  658MOL0     C88745   9.061   4.375   7.416 -0.3863  0.3234 -0.1836
  658MOL0     N88746   9.362   4.405   7.001 -0.4308 -0.1245  0.0944
  658MOL0     N88747   9.309   4.430   6.889 -0.3422 -0.8232 -0.1783
  658MOL0     C88748  10.017   4.814   6.325  0.3148  0.0852  0.6233
  658MOL0     C88749  10.061   4.889   6.431 -0.4183  0.2278 -0.1277
  658MOL0     C88750  10.380   4.997   6.771 -0.6542 -0.1814 -0.1037
  658MOL0     C88751  10.319   5.123   6.797  0.1798  0.8178  0.6531
  658MOL0     C88752  10.344   5.194   6.914  0.4088  0.4166 -0.3259
  658MOL0     C88753  10.452   5.162   6.999  0.5468 -0.4526  0.3153
  658MOL0     O88754  10.483   5.220   7.124 -0.6749  0.6208 -0.0475
  658MOL0     C88755  10.405   5.329   7.164  1.2842 -0.5459 -0.9541
  658MOL0     C88756  10.453   5.373   7.303  0.5263 -0.7088 -0.1952
  658MOL0     C88757  10.610   5.400   7.303  0.0102  0.4280 -0.9013
  658MOL0     C88758  10.647   5.493   7.431 -0.8906  0.0561 -0.1326
  658MOL0     C88759  10.771   5.567   7.398  0.3639  0.1098 -1.5242
  658MOL0     C88760  10.870   5.630   7.374  0.0431  0.1179  0.4005
  658MOL0     C88761  10.527   5.053   6.954  0.8446  0.4063 -0.8208
  658MOL0     C88762  10.489   4.970   6.849 -0.1804  0.7072  0.2582
  658MOL0     H88763  10.294   4.655   6.545 -1.0519 -2.1097 -0.2427
  658MOL0     H88764  10.208   4.528   6.356 -0.5510 -0.3302  0.2534
  658MOL0     H88765   9.808   4.629   6.294  0.2049 -1.5348  0.8536
  658MOL0     H88766   9.798   4.599   6.125 -0.6031 -0.3024 -0.8662
  658MOL0     H88767   9.844   4.359   6.172  0.2929  0.2739 -0.4904
  658MOL0     H88768   9.915   4.400   6.328 -0.6626  0.6974  1.1235
  658MOL0     H88769   9.694   4.305   6.359 -2.0761  0.3608 -0.3570
  658MOL0     H88770   9.717   4.461   6.427  0.3882 -1.0417  1.4807
  658MOL0     H88771   9.587   4.557   6.217  0.3003  0.4281 -1.3024
  658MOL0     H88772   9.572   4.391   6.156  0.7919 -2.5897  1.2866
  658MOL0     H88773   9.355   4.446   6.260 -0.6484 -4.1654  0.6251
  658MOL0     H88774   9.431   4.331   6.354 -1.8004 -0.3998 -1.4646
  658MOL0     H88775   9.475   4.630   6.424 -2.0004  1.2272  0.4969
  658MOL0     H88776   9.317   4.568   6.444 -0.5590  0.5913  1.9716
  658MOL0     H88777   9.430   4.378   6.580 -2.5979  0.2258  0.1019
  658MOL0     H88778   9.562   4.488   6.609 -0.4077  0.7826  0.7839
  658MOL0     H88779   9.267   4.533   6.651  0.0429  1.5124 -3.8159
  658MOL0     H88780   9.384   4.658   6.688  0.0121 -1.2455  2.6869
  658MOL0     H88781   9.590   4.606   6.871  0.8402 -0.0181  0.7510
  658MOL0     H88782   9.574   4.366   7.159 -0.0460  0.9381  1.4244
  658MOL0     H88783   9.644   4.528   7.108 -1.2911  1.2183 -1.0684
  658MOL0     H88784   9.421   4.629   7.209  0.1052 -0.1248  1.0714
  658MOL0     H88785   9.566   4.589   7.299  2.1741 -1.5914 -0.9955
  658MOL0     H88786   9.439   4.364   7.372  0.6428  1.5232  1.9309
  658MOL0     H88787   9.309   4.416   7.258  0.3042  0.1715 -0.8678
  658MOL0     H88788   9.258   4.610   7.405 -1.4041 -1.6957 -1.4070
  658MOL0     H88789   9.402   4.591   7.501 -0.1293  0.6866 -0.4630
  658MOL0     H88790   9.139   4.495   7.717  2.0343 -0.6213 -1.4859
  658MOL0     H88791   8.971   4.567   7.846  0.9668 -1.1780 -0.7090
  658MOL0     H88792   8.818   4.608   7.761 -0.9587 -0.4752  1.7627
  658MOL0     H88793   8.826   4.460   7.840 -0.8996 -1.2738 -2.8973
  658MOL0     H88794   8.502   4.247   7.655 -1.7671  0.6149 -0.2568
  658MOL0     H88795   8.282   4.145   7.626  3.3658  0.9308  1.9690
  658MOL0     H88796   8.087   4.044   7.569 -0.5090 -0.7623 -0.2546
  658MOL0     H88797   8.064   4.228   7.536  2.8678  1.2785 -3.0222
  658MOL0     H88798   7.878   4.140   7.375  0.4345  0.6690 -1.3599
  658MOL0     H88799   7.927   3.983   7.391 -2.7239  0.9549  0.1727
  658MOL0     H88800   7.838   3.975   7.623 -0.6403 -0.5065 -0.5098
  658MOL0     H88801   7.719   4.018   7.508 -0.2982  2.3139 -1.2340
  658MOL0     H88802   7.857   4.233   7.661  0.5235 -1.6048 -0.1735
  658MOL0     H88803   7.730   4.257   7.551 -0.7318 -2.0736 -0.6171
  658MOL0     H88804   7.678   4.229   7.813  0.0323 -0.2909 -0.3864
  658MOL0     H88805   7.674   4.061   7.778  0.3394 -0.3162  0.0895
  658MOL0     H88806   7.517   4.269   7.603 -0.6653  0.5096  0.5271
  658MOL0     H88807   7.449   4.116   7.644  0.8624 -0.5771 -0.6014
  658MOL0     H88808   7.330   4.316   7.723 -3.6385 -2.8672  0.7139
  658MOL0     H88809   7.456   4.332   7.841 -2.8206  0.2676  1.8872
  658MOL0     H88810   7.276   4.088   7.803 -3.2714  0.5465  1.7761
  658MOL0     H88811   7.244   4.220   7.909 -1.5079 -0.2667 -1.4078
  658MOL0     H88812   8.269   4.239   7.208  0.8314  4.1380 -0.4694
  658MOL0     H88813   8.500   4.334   7.221 -0.6012  0.7393  1.0707
  658MOL0     H88814   8.880   4.303   7.360  3.2136 -4.2887  1.9884
  658MOL0     H88815   9.096   4.343   7.319 -1.7139 -0.4946 -0.4185
  658MOL0     H88816   9.952   4.857   6.249  1.0315 -0.3454 -0.2532
  658MOL0     H88817  10.031   4.992   6.442  0.3287  0.3503  0.9391
  658MOL0     H88818  10.231   5.143   6.736 -0.4007 -3.8370 -0.4292
  658MOL0     H88819  10.293   5.284   6.948  1.9606 -0.3287  4.8450
  658MOL0     H88820  10.412   5.420   7.104 -0.0880  0.8261  0.8630
  658MOL0     H88821  10.300   5.300   7.175  1.7541 -2.2962 -0.7343
  658MOL0     H88822  10.427   5.308   7.386  1.4366  0.3242  0.9487
  658MOL0     H88823  10.415   5.475   7.320  1.8839 -0.2985  0.5380
  658MOL0     H88824  10.614   5.463   7.214 -0.3762 -0.3137 -1.4507
  658MOL0     H88825  10.675   5.313   7.290 -1.2141 -0.1206 -4.6041
  658MOL0     H88826  10.664   5.434   7.522 -1.8948 -1.2515 -0.7566
  658MOL0     H88827  10.568   5.566   7.450 -1.2039  0.1179 -1.5881
  658MOL0     H88828  10.955   5.692   7.353 -0.3921  0.6603  0.1873
  658MOL0     H88829  10.623   5.033   7.001  0.6434  0.6634 -0.2922
  658MOL0     H88830  10.543   4.878   6.834  3.2222  2.6095 -0.1809
  659MOL0     O88831   0.510   7.140   6.755 -0.5739  0.4289 -0.5341
  659MOL0     C88832   0.432   7.040   6.761  0.4471  0.0252  0.8110
  659MOL0     O88833   0.297   7.037   6.788 -0.7180  0.2491 -0.3458
  659MOL0     C88834   0.234   7.139   6.847  0.3224 -0.4915  0.2868
  659MOL0     C88835   0.095   7.124   6.828 -0.2267  0.0494 -0.4640
  659MOL0     C88836   0.003   7.211   6.889  0.1964  0.0495  0.5118
  659MOL0     C88837   0.054   7.316   6.970  0.7687  0.6820 -0.7810
  659MOL0     O88838  -0.022   7.416   7.033  0.2505  0.1970 -0.8599
  659MOL0     C88839  -0.146   7.443   6.982  0.6982 -0.4481  0.3305
  659MOL0     C88840  -0.225   7.565   7.035 -0.9681 -0.4408  0.0621
  659MOL0     C88841  -0.203   7.698   6.967 -0.4054  1.0317 -1.2086
  659MOL0     C88842  -0.292   7.821   7.026 -0.0524 -0.1956  0.6969
  659MOL0     C88843  -0.244   7.964   6.988  0.2837 -0.8190  0.0254
  659MOL0     C88844  -0.371   8.057   6.969 -0.9305  0.4679  1.1300
  659MOL0     C88845  -0.346   8.208   6.948  0.2895  0.5695 -0.6322
  659MOL0     C88846  -0.334   8.248   6.801 -0.1411  0.9691  1.2473
  659MOL0     N88847  -0.466   8.282   6.737  0.5333 -0.4473  0.0305
  659MOL0     C88848  -0.577   8.202   6.735  0.0612  0.0040  0.8488
  659MOL0     C88849  -0.673   8.276   6.668  0.5061  0.7697  0.8219
  659MOL0     C88850  -0.816   8.226   6.627  0.7691  0.1700  0.1416
  659MOL0     C88851  -0.913   8.221   6.753 -0.6636 -0.0331 -0.3709
  659MOL0     C88852  -0.938   8.360   6.788  0.8108  0.0617 -1.0934
  659MOL0     C88853  -1.045   8.420   6.692  0.0806  0.7959  0.4116
  659MOL0     O88854  -1.172   8.349   6.682  0.3658  0.2359  0.3161
  659MOL0     C88855  -1.280   8.399   6.747  0.9738  0.7544 -0.9913
  659MOL0     C88856  -1.407   8.357   6.700  1.4238  0.3074 -0.0018
  659MOL0     C88857  -1.527   8.404   6.754  0.2768 -0.2432  0.5273
  659MOL0     C88858  -1.664   8.366   6.709  0.8324  0.4195  0.4879
  659MOL0     C88859  -1.520   8.501   6.855  0.3762  0.2090  0.0171
  659MOL0     C88860  -1.632   8.568   6.902 -0.7343 -0.1887 -0.6849
  659MOL0     O88861  -1.718   8.613   6.810 -0.0911 -0.6900  0.3951
  659MOL0     C88862  -1.834   8.684   6.846  0.3369  0.5491 -0.3461
  659MOL0     C88863  -1.922   8.623   6.942 -0.5054 -0.7598 -0.9699
  659MOL0     C88864  -2.039   8.682   6.972  0.2888 -0.2603 -0.7100
  659MOL0     C88865  -2.073   8.810   6.920  0.4406  0.7133  1.0832
  659MOL0     O88866  -2.184   8.878   6.949 -0.1595  0.3141  0.0353
  659MOL0     C88867  -2.285   8.808   7.025 -0.5443  0.1583  0.1789
  659MOL0     C88868  -2.421   8.878   7.024  0.4116 -0.1286  0.2475
  659MOL0     C88869  -2.418   9.017   7.084 -0.0177 -0.3053  0.0139
  659MOL0     C88870  -2.395   9.024   7.238 -0.2323  0.1696 -0.0467
  659MOL0     C88871  -2.431   9.160   7.291 -0.6113  0.7808  0.5865
  659MOL0     C88872  -2.325   9.266   7.267 -0.2811 -0.1532  0.3290
  659MOL0     C88873  -2.351   9.397   7.330  0.1863  0.0033 -0.5176
  659MOL0     C88874  -2.378   9.510   7.238  0.0046  0.2501 -0.0483
  659MOL0    Cl88875  -2.519   9.495   7.138 -0.1388  0.0640 -0.1085
  659MOL0     C88876  -1.990   8.864   6.823 -0.6618  0.1019 -0.6048
  659MOL0     C88877  -1.871   8.798   6.781  0.3823 -0.0430 -0.7253
  659MOL0     O88878  -1.631   8.590   7.024  0.7459  0.3604  0.3965
  659MOL0     C88879  -1.401   8.540   6.899 -0.1310 -0.4022 -0.5648
  659MOL0     C88880  -1.279   8.505   6.849  0.8648  0.0023 -0.0330
  659MOL0     N88881  -0.617   8.397   6.634  0.5050 -0.9928 -0.2213
  659MOL0     N88882  -0.493   8.405   6.681  0.0845  0.5074 -0.3975
  659MOL0     C88883   0.193   7.327   6.985  0.1511  1.6130  0.3277
  659MOL0     C88884   0.280   7.239   6.927 -0.5258 -1.0496  0.2402
  659MOL0     C88885   0.494   6.910   6.741 -0.1485 -0.0022  0.8983
  659MOL0     C88886   0.629   6.893   6.779 -0.4089  0.5828  0.5760
  659MOL0     C88887   0.687   6.765   6.776  0.0825  0.7092 -0.4951
  659MOL0     C88888   0.608   6.654   6.750  0.9545  0.7205 -0.4033
  659MOL0     O88889   0.664   6.528   6.751 -0.7033  0.4866 -0.3186
  659MOL0     C88890   0.652   6.458   6.875  0.0859  0.2539 -0.3732
  659MOL0     C88891   0.717   6.322   6.871 -0.5375 -0.6466  0.5916
  659MOL0     C88892   0.852   6.330   6.798 -0.2467  0.8340 -0.4034
  659MOL0     C88893   0.925   6.188   6.818  1.0747 -0.3788  0.1445
  659MOL0     C88894   1.060   6.210   6.763 -0.0807 -0.4141 -0.3748
  659MOL0     C88895   1.157   6.209   6.689  0.5889  0.4125  0.4831
  659MOL0     C88896   0.471   6.674   6.717 -0.2917  0.6578 -0.0513
  659MOL0     C88897   0.413   6.801   6.709 -0.2979  0.1338  0.0502
  659MOL0     H88898   0.046   7.055   6.760 -0.5260  1.4928 -1.7826
  659MOL0     H88899  -0.103   7.203   6.866  1.0017 -4.8850 -3.1166
  659MOL0     H88900  -0.130   7.465   6.876 -0.7322  2.6148  0.6653
  659MOL0     H88901  -0.210   7.355   6.995 -1.4686  0.6060 -2.2283
  659MOL0     H88902  -0.331   7.539   7.037 -2.0313  3.3244  0.5515
  659MOL0     H88903  -0.195   7.580   7.139  2.2406  0.1648 -0.8272
  659MOL0     H88904  -0.097   7.726   6.973  0.1899 -0.4035 -3.5888
  659MOL0     H88905  -0.228   7.692   6.860 -4.1805 -0.2015 -0.3868
  659MOL0     H88906  -0.395   7.801   6.995  0.1715  0.7070 -0.7102
  659MOL0     H88907  -0.307   7.814   7.134  0.1891  0.6172  0.7928
  659MOL0     H88908  -0.188   7.989   7.078 -1.7815 -2.3113  1.8547
  659MOL0     H88909  -0.176   7.968   6.903  0.6560  2.6755  0.3646
  659MOL0     H88910  -0.422   8.026   6.877  0.7809  1.9023 -0.3844
  659MOL0     H88911  -0.437   8.040   7.055 -1.0393 -3.0230  0.5170
  659MOL0     H88912  -0.434   8.265   6.978  0.3540  0.7658 -0.8167
  659MOL0     H88913  -0.259   8.233   7.010 -0.4473 -1.6815  1.4985
  659MOL0     H88914  -0.299   8.167   6.735 -2.0401  2.1027 -1.3403
  659MOL0     H88915  -0.262   8.329   6.788 -1.4975  2.1769  1.0235
  659MOL0     H88916  -0.584   8.102   6.775  4.0948  0.0215  2.0268
  659MOL0     H88917  -0.849   8.304   6.558  3.2191  2.1680  1.0750
  659MOL0     H88918  -0.815   8.126   6.582 -0.8547  0.6942 -1.1379
  659MOL0     H88919  -0.861   8.172   6.836 -2.0514  0.9807  1.1598
  659MOL0     H88920  -0.999   8.157   6.733  0.9662 -2.5948  0.3076
  659MOL0     H88921  -0.851   8.426   6.790  0.2432  0.8115 -0.9071
  659MOL0     H88922  -0.983   8.351   6.888  0.4965 -3.7218 -1.4223
  659MOL0     H88923  -1.015   8.415   6.586  1.2851  0.6328  0.7467
  659MOL0     H88924  -1.059   8.527   6.710 -3.6125  0.7672 -1.2317
  659MOL0     H88925  -1.421   8.283   6.622  1.0921  0.1968  0.1626
  659MOL0     H88926  -1.662   8.267   6.661 -1.8682 -0.7284  2.4759
  659MOL0     H88927  -1.723   8.359   6.801  1.9777  1.0177  1.2921
  659MOL0     H88928  -1.702   8.439   6.637 -1.5497  0.1139  1.3361
  659MOL0     H88929  -1.896   8.535   7.000  0.3944 -1.2551 -2.0747
  659MOL0     H88930  -2.092   8.648   7.061  1.7059  1.3914  0.8513
  659MOL0     H88931  -2.298   8.702   7.003  3.3205 -0.2028 -1.1387
  659MOL0     H88932  -2.248   8.805   7.128 -4.4833 -1.2318  1.7741
  659MOL0     H88933  -2.453   8.881   6.920 -2.1508  2.1174  0.9985
  659MOL0     H88934  -2.486   8.811   7.082  0.5628  0.8029  1.5520
  659MOL0     H88935  -2.511   9.064   7.052  0.3901  1.3771  1.1657
  659MOL0     H88936  -2.338   9.073   7.034  1.8480 -0.2803  2.7908
  659MOL0     H88937  -2.459   8.947   7.281  0.0820  1.3247  2.6656
  659MOL0     H88938  -2.292   9.002   7.267  0.0337  1.3132 -0.0820
  659MOL0     H88939  -2.445   9.150   7.399 -1.1814 -4.8413  0.2741
  659MOL0     H88940  -2.531   9.190   7.258 -1.6418 -1.7754  1.1401
  659MOL0     H88941  -2.229   9.233   7.307 -0.3893  1.0046  1.6126
  659MOL0     H88942  -2.317   9.289   7.160  1.9060  1.3815  0.7611
  659MOL0     H88943  -2.264   9.422   7.392 -0.3478  0.6335 -0.0045
  659MOL0     H88944  -2.432   9.380   7.401 -0.1560  0.7031 -0.7324
  659MOL0     H88945  -2.297   9.525   7.167  0.6250 -1.8881  0.1359
  659MOL0     H88946  -2.386   9.602   7.297 -1.9459 -0.2754  0.5786
  659MOL0     H88947  -2.021   8.960   6.784 -1.4167  0.8152  1.6177
  659MOL0     H88948  -1.820   8.837   6.694 -0.4253  0.2579 -1.0789
  659MOL0     H88949  -1.395   8.598   6.991  1.3898 -1.0144 -0.2585
  659MOL0     H88950  -1.188   8.522   6.905 -0.0184 -0.1888  1.5118
  659MOL0     H88951   0.227   7.406   7.050  1.0423  1.0872  0.5197
  659MOL0     H88952   0.384   7.256   6.952  0.9500 -2.5003 -4.0026
  659MOL0     H88953   0.691   6.976   6.812 -0.4485  0.4554  0.9724
  659MOL0     H88954   0.789   6.750   6.808 -0.0071 -0.5002 -0.7153
  659MOL0     H88955   0.710   6.508   6.953  0.2248  2.8075 -1.9925
  659MOL0     H88956   0.550   6.451   6.915 -0.2069  3.2411 -0.3254
  659MOL0     H88957   0.653   6.257   6.810  1.1891 -3.2308  1.3656
  659MOL0     H88958   0.727   6.274   6.969 -2.2313  1.1319  1.7229
  659MOL0     H88959   0.909   6.409   6.848 -1.1949  1.8623 -0.8928
  659MOL0     H88960   0.847   6.351   6.691 -2.8699 -0.2192 -0.5505
  659MOL0     H88961   0.875   6.105   6.766  0.3136 -0.8558  1.5880
  659MOL0     H88962   0.935   6.173   6.925  0.2411 -1.2362  0.1093
  659MOL0     H88963   1.227   6.235   6.612  2.0803 -0.8494  1.3402
  659MOL0     H88964   0.409   6.592   6.682  0.5977  0.3461 -0.9419
  659MOL0     H88965   0.310   6.801   6.678 -0.2566 -2.1355 -0.2160
  660MOL0     O88966   5.446   1.490   0.300 -0.7544 -0.0281  0.3742
  660MOL0     C88967   5.506   1.387   0.256  0.0090  0.5449  0.1380
  660MOL0     O88968   5.448   1.258   0.239 -0.3899  0.1998 -1.2362
  660MOL0     C88969   5.316   1.234   0.280 -0.6846 -0.4857  0.5176
  660MOL0     C88970   5.255   1.290   0.393  0.2417 -0.5137  0.3695
  660MOL0     C88971   5.127   1.240   0.441  0.6171  0.3517  0.4576
  660MOL0     C88972   5.067   1.139   0.368  0.1771  0.9368  0.7889
  660MOL0     O88973   4.954   1.072   0.415  0.0027  0.7338  0.9616
  660MOL0     C88974   4.859   1.154   0.483 -0.3965 -0.2326 -0.8658
  660MOL0     C88975   4.719   1.087   0.484  0.7289 -0.3212 -0.7672
  660MOL0     C88976   4.629   1.157   0.579  0.1532 -0.4196 -0.3494
  660MOL0     C88977   4.489   1.100   0.607  1.0433 -0.0551  0.5792
  660MOL0     C88978   4.396   1.190   0.682 -0.2224  0.0936 -0.3360
  660MOL0     C88979   4.472   1.234   0.809  0.4182  0.3057  0.7869
  660MOL0     C88980   4.374   1.297   0.908 -0.4650  0.2830  0.6810
  660MOL0     C88981   4.306   1.428   0.862 -0.8230 -0.8024 -0.2850
  660MOL0     N88982   4.176   1.428   0.923 -0.4810 -0.6237 -0.1601
  660MOL0     C88983   4.142   1.461   1.052 -0.3091 -1.1987  0.6902
  660MOL0     C88984   4.014   1.428   1.066  0.0500 -0.2297 -0.4973
  660MOL0     C88985   3.943   1.461   1.204  0.3064 -0.5571 -0.4486
  660MOL0     C88986   3.941   1.620   1.237 -0.1057  1.0913  0.3742
  660MOL0     C88987   3.842   1.683   1.141 -0.6629 -1.2215  0.0260
  660MOL0     C88988   3.783   1.809   1.203  0.1734 -0.1806 -0.7804
  660MOL0     O88989   3.685   1.780   1.307 -0.6086 -0.2348 -0.3053
  660MOL0     C88990   3.551   1.789   1.290  0.6432 -0.2134 -0.2873
  660MOL0     C88991   3.472   1.764   1.179 -0.5120 -0.0313  0.0556
  660MOL0     C88992   3.334   1.735   1.187  0.1795 -0.2323 -0.5355
  660MOL0     C88993   3.251   1.717   1.061  0.5315  0.3456 -0.2039
  660MOL0     C88994   3.265   1.745   1.309 -0.0024  0.8794 -0.0344
  660MOL0     C88995   3.123   1.724   1.327  0.2117 -0.2855 -1.5380
  660MOL0     O88996   3.060   1.609   1.282  0.1297 -0.8902  0.1805
  660MOL0     C88997   2.926   1.620   1.263 -0.2961 -0.3148 -0.8353
  660MOL0     C88998   2.879   1.676   1.138  0.1232  0.6477 -1.0739
  660MOL0     C88999   2.743   1.708   1.118 -0.7203 -0.1847  0.9807
  660MOL0     C89000   2.645   1.668   1.207 -0.6740 -0.0415 -0.0037
  660MOL0     O89001   2.510   1.675   1.182  0.3865 -0.0825  0.3397
  660MOL0     C89002   2.460   1.812   1.203  0.8569  0.3902  1.1206
  660MOL0     C89003   2.316   1.827   1.155 -0.3898  0.7437  0.6138
  660MOL0     C89004   2.220   1.733   1.228  0.6787 -0.6207 -0.7761
  660MOL0     C89005   2.174   1.804   1.365  0.4437  0.1634  0.4084
  660MOL0     C89006   2.082   1.710   1.438 -0.0126 -0.9679 -0.7498
  660MOL0     C89007   2.056   1.757   1.597 -0.7249 -0.2085  0.1259
  660MOL0     C89008   2.183   1.738   1.683 -0.7064  0.3808 -0.4737
  660MOL0     C89009   2.168   1.740   1.835  0.9811  0.1805  0.4988
  660MOL0    Cl89010   2.061   1.886   1.873 -0.0341 -0.0383 -0.0964
  660MOL0     C89011   2.693   1.609   1.322  0.3875  0.0725 -0.1043
  660MOL0     C89012   2.830   1.593   1.354  0.8054 -0.5789  0.5189
  660MOL0     O89013   3.067   1.816   1.390 -0.7386 -0.0308  0.3626
  660MOL0     C89014   3.344   1.781   1.417 -0.7751 -0.2146 -0.3638
  660MOL0     C89015   3.485   1.804   1.410  0.4204  0.1770 -0.5590
  660MOL0     N89016   3.964   1.372   0.950  0.3454  0.3436 -0.3733
  660MOL0     N89017   4.064   1.366   0.860 -0.8068  0.1935 -0.2245
  660MOL0     C89018   5.124   1.093   0.250 -0.2213  0.0359  0.0275
  660MOL0     C89019   5.251   1.140   0.212 -0.3188  0.1259  0.5487
  660MOL0     C89020   5.641   1.405   0.198  0.2548  0.7987  0.1748
  660MOL0     C89021   5.710   1.291   0.145 -0.3285  0.5418  0.5243
  660MOL0     C89022   5.840   1.301   0.106 -0.2584 -0.2128 -0.5849
  660MOL0     C89023   5.909   1.431   0.095  0.3474  0.3277  0.2850
  660MOL0     O89024   6.029   1.451   0.034 -0.5532  0.0804 -0.2101
  660MOL0     C89025   6.106   1.335  -0.016  0.0625  0.5368  0.4886
  660MOL0     C89026   6.236   1.377  -0.082 -0.1289  0.8963  0.2344
  660MOL0     C89027   6.348   1.266  -0.085 -0.3773 -0.3541 -0.2418
  660MOL0     C89028   6.449   1.299  -0.197 -1.5407 -0.3630  0.5446
  660MOL0     C89029   6.556   1.202  -0.195  0.7637 -0.4033  0.0123
  660MOL0     C89030   6.652   1.136  -0.187 -0.0926 -0.0278  0.2672
  660MOL0     C89031   5.836   1.538   0.127  1.1982 -0.2080 -0.5873
  660MOL0     C89032   5.699   1.530   0.185 -0.3319 -0.3498  0.0304
  660MOL0     H89033   5.315   1.361   0.449  0.2867  0.5612 -0.9982
  660MOL0     H89034   5.082   1.269   0.535 -3.6787 -1.4597 -0.8071
  660MOL0     H89035   4.889   1.183   0.585 -2.1855  0.6535 -0.5500
  660MOL0     H89036   4.850   1.245   0.422  0.7043 -0.5348 -1.5167
  660MOL0     H89037   4.669   1.087   0.387 -2.9891 -2.0699  0.9656
  660MOL0     H89038   4.736   0.981   0.505  0.5894 -0.5341 -1.6602
  660MOL0     H89039   4.686   1.154   0.672 -0.4744 -0.8605  0.0336
  660MOL0     H89040   4.619   1.262   0.551 -2.9874  0.0457  1.8883
  660MOL0     H89041   4.458   1.083   0.503 -0.9903  4.4990  0.2099
  660MOL0     H89042   4.504   1.006   0.661  2.4486  0.7668  1.6730
  660MOL0     H89043   4.379   1.281   0.623  0.6006 -0.4635 -1.4911
  660MOL0     H89044   4.307   1.129   0.701 -0.2696  0.1211 -0.4685
  660MOL0     H89045   4.516   1.146   0.857 -3.0148 -1.8248  0.4137
  660MOL0     H89046   4.541   1.309   0.769 -1.9697  1.3831 -1.6073
  660MOL0     H89047   4.301   1.220   0.933 -0.7651 -0.1885 -1.4646
  660MOL0     H89048   4.422   1.324   1.002  4.8356 -0.1293 -1.5432
  660MOL0     H89049   4.295   1.436   0.753 -0.1229  0.3410 -0.2834
  660MOL0     H89050   4.367   1.515   0.885 -2.9606  1.2426 -1.9003
  660MOL0     H89051   4.207   1.496   1.131  1.7495 -3.0948 -0.0602
  660MOL0     H89052   3.838   1.429   1.200 -0.7020  1.9858  2.2240
  660MOL0     H89053   4.002   1.414   1.283  2.9865  3.1238  0.0032
  660MOL0     H89054   4.039   1.665   1.220  0.6737 -0.6488  0.0269
  660MOL0     H89055   3.907   1.635   1.339 -3.5678  0.0503 -0.4825
  660MOL0     H89056   3.767   1.617   1.096  0.8650 -1.6368 -2.0441
  660MOL0     H89057   3.903   1.707   1.054  1.1675 -2.5201  0.8714
  660MOL0     H89058   3.735   1.865   1.122  0.8555 -1.6373 -2.2354
  660MOL0     H89059   3.862   1.876   1.239 -1.4978  1.4527 -0.0093
  660MOL0     H89060   3.521   1.760   1.083 -0.1165 -3.1120  0.2592
  660MOL0     H89061   3.317   1.716   0.974  1.2694  0.9486  0.3376
  660MOL0     H89062   3.205   1.617   1.060 -3.4353  1.9490  1.3248
  660MOL0     H89063   3.173   1.793   1.064  0.0029 -0.2184  1.2362
  660MOL0     H89064   2.957   1.697   1.065  0.7822 -0.1481 -0.6186
  660MOL0     H89065   2.718   1.734   1.015  0.7135 -0.3705  0.5611
  660MOL0     H89066   2.442   1.842   1.307 -1.2407  1.4606  0.5206
  660MOL0     H89067   2.520   1.894   1.163 -2.1338  1.7254 -0.9882
  660MOL0     H89068   2.279   1.929   1.165  0.4400  1.1177  0.0594
  660MOL0     H89069   2.330   1.797   1.051  0.1241 -3.4759  1.7190
  660MOL0     H89070   2.255   1.630   1.243  0.6180 -0.5514 -0.1356
  660MOL0     H89071   2.135   1.719   1.160  0.4397 -1.3214 -0.3396
  660MOL0     H89072   2.265   1.827   1.421 -1.3201 -1.3825  4.3103
  660MOL0     H89073   2.121   1.896   1.340 -0.7089 -1.5356 -4.5996
  660MOL0     H89074   2.130   1.612   1.443  1.2219 -0.3767 -0.5863
  660MOL0     H89075   1.996   1.709   1.370  0.9453  0.8860 -2.0536
  660MOL0     H89076   2.046   1.866   1.592  0.3905 -0.1121 -0.5674
  660MOL0     H89077   1.960   1.720   1.631 -1.2348  1.4699  0.6225
  660MOL0     H89078   2.248   1.822   1.654 -1.0158  0.2110 -1.7076
  660MOL0     H89079   2.236   1.645   1.662  1.5056  0.3991  3.8931
  660MOL0     H89080   2.264   1.753   1.885 -0.6922  4.8266  3.1786
  660MOL0     H89081   2.138   1.644   1.879  1.1104 -0.8536 -1.5806
  660MOL0     H89082   2.627   1.561   1.393  0.9324  2.0294  1.8383
  660MOL0     H89083   2.866   1.538   1.440  1.6429  1.2984  1.4333
  660MOL0     H89084   3.296   1.792   1.514 -1.3183  0.7436 -0.7233
  660MOL0     H89085   3.543   1.843   1.493  0.3355  1.2049 -0.9693
  660MOL0     H89086   5.073   1.021   0.187  0.1578  1.2290 -1.7346
  660MOL0     H89087   5.312   1.105   0.129 -0.8176  4.7675 -2.1200
  660MOL0     H89088   5.660   1.195   0.143 -0.5144  0.5163  3.0195
  660MOL0     H89089   5.891   1.212   0.071 -0.2603 -0.0776 -0.9310
  660MOL0     H89090   6.120   1.273   0.073 -0.5232 -1.5397 -0.7998
  660MOL0     H89091   6.055   1.272  -0.090  1.2351  0.2298 -0.0886
  660MOL0     H89092   6.280   1.467  -0.037  2.1119 -0.2880  0.5725
  660MOL0     H89093   6.212   1.401  -0.186 -0.2214  0.0155  0.0467
  660MOL0     H89094   6.311   1.168  -0.114 -1.4063  0.3307 -1.3313
  660MOL0     H89095   6.400   1.259   0.011 -1.4572 -0.5324  0.3398
  660MOL0     H89096   6.484   1.402  -0.182  0.2885 -0.4371 -2.3813
  660MOL0     H89097   6.403   1.292  -0.296 -0.4387  1.4038 -0.1460
  660MOL0     H89098   6.742   1.078  -0.180  1.8303  2.4703 -1.6074
  660MOL0     H89099   5.868   1.639   0.101  1.2709 -0.3219 -0.9498
  660MOL0     H89100   5.658   1.630   0.202  0.6427  0.2429 -0.9845
  661MOL0     O89101   7.199   4.798   8.204 -0.6129 -0.7037 -0.4555
  661MOL0     C89102   7.254   4.880   8.279  0.0004 -0.1480 -0.9313
  661MOL0     O89103   7.240   5.023   8.269 -0.7348  0.1614 -0.1055
  661MOL0     C89104   7.158   5.080   8.185  0.3553 -0.2763  0.1706
  661MOL0     C89105   7.204   5.201   8.134  0.8847  0.2824 -0.7215
  661MOL0     C89106   7.136   5.265   8.026  0.0198 -0.1934  0.5880
  661MOL0     C89107   7.007   5.218   7.982  0.9024  0.6294 -0.1880
  661MOL0     O89108   6.940   5.295   7.886  0.3458 -0.5747  0.2638
  661MOL0     C89109   6.907   5.214   7.771  0.1765  0.1773 -0.5752
  661MOL0     C89110   6.885   5.299   7.644  0.5646  0.6649 -0.5654
  661MOL0     C89111   6.743   5.358   7.628  0.3410  0.0739  0.7177
  661MOL0     C89112   6.727   5.468   7.524  0.5965 -0.1018 -0.5111
  661MOL0     C89113   6.595   5.548   7.553 -0.0601  0.5379 -0.3981
  661MOL0     C89114   6.546   5.619   7.427  0.0735 -0.1327 -1.3772
  661MOL0     C89115   6.411   5.680   7.459  0.7330 -0.0585  0.1918
  661MOL0     C89116   6.287   5.584   7.453  1.1991 -0.0906  0.3889
  661MOL0     N89117   6.177   5.630   7.536 -1.2319  1.1002 -0.3544
  661MOL0     C89118   6.214   5.646   7.671  0.0175  0.1528  0.2975
  661MOL0     C89119   6.101   5.693   7.724 -0.2584  0.1577 -0.4576
  661MOL0     C89120   6.099   5.746   7.865  0.0047  0.0037 -0.1522
  661MOL0     C89121   6.069   5.631   7.967  0.0933 -0.3795  1.3816
  661MOL0     C89122   5.918   5.575   7.954 -0.3535  0.1165  0.7776
  661MOL0     C89123   5.819   5.677   7.994 -0.1527 -0.7674  0.3697
  661MOL0     O89124   5.685   5.623   7.994  0.5875 -0.2670 -0.7377
  661MOL0     C89125   5.611   5.618   7.885  0.1963 -0.1142  0.1632
  661MOL0     C89126   5.661   5.639   7.759  0.2268  0.5813  0.0339
  661MOL0     C89127   5.561   5.624   7.659 -0.2766  0.1186 -0.8951
  661MOL0     C89128   5.611   5.656   7.516  1.0160 -0.1812 -0.1775
  661MOL0     C89129   5.425   5.581   7.687  0.0863 -0.1425 -0.3712
  661MOL0     C89130   5.311   5.562   7.584 -0.6790  0.5492 -0.3934
  661MOL0     O89131   5.183   5.570   7.627  0.0113 -0.3708  0.3658
  661MOL0     C89132   5.082   5.561   7.535  0.2881 -0.3338  0.0117
  661MOL0     C89133   5.048   5.663   7.447  0.0086 -0.3232  1.0679
  661MOL0     C89134   4.930   5.652   7.368 -0.2997  0.6167 -0.2091
  661MOL0     C89135   4.839   5.544   7.382  0.7252 -0.6022  0.1368
  661MOL0     O89136   4.717   5.557   7.306 -0.3136  0.1334  0.0409
  661MOL0     C89137   4.651   5.447   7.273 -0.1638  0.8065 -0.1131
  661MOL0     C89138   4.553   5.462   7.149 -0.9108 -0.1901  0.5060
  661MOL0     C89139   4.478   5.333   7.123 -0.6397  0.9064 -0.0353
  661MOL0     C89140   4.347   5.323   7.205 -0.1404 -0.0515 -0.5559
  661MOL0     C89141   4.293   5.180   7.190 -0.2469  0.4007 -0.0827
  661MOL0     C89142   4.149   5.168   7.243  0.7875 -0.0719 -0.3065
  661MOL0     C89143   4.085   5.028   7.205  0.0210 -0.1267  0.2350
  661MOL0     C89144   3.944   5.035   7.261  0.0961 -0.0299  0.0494
  661MOL0    Cl89145   3.939   5.031   7.442 -0.2175  0.1781  0.2365
  661MOL0     C89146   4.880   5.437   7.464  0.4941 -0.1174 -0.1568
  661MOL0     C89147   4.997   5.454   7.549 -0.4225  1.0258  0.3281
  661MOL0     O89148   5.345   5.527   7.470  0.0990 -0.3669 -0.1057
  661MOL0     C89149   5.382   5.555   7.809  0.1907  0.1299 -1.1747
  661MOL0     C89150   5.480   5.581   7.913 -0.1414 -0.1867  0.4801
  661MOL0     N89151   5.996   5.693   7.636 -0.5276  0.3451 -1.1386
  661MOL0     N89152   6.045   5.653   7.524  0.1409  0.7632  0.2905
  661MOL0     C89153   6.950   5.114   8.052 -0.3181 -0.0864 -0.3337
  661MOL0     C89154   7.028   5.035   8.142  0.3821 -0.6874  0.5273
  661MOL0     C89155   7.341   4.834   8.393  0.8148  0.1033 -0.6875
  661MOL0     C89156   7.354   4.700   8.418 -0.1201 -0.2122 -0.4591
  661MOL0     C89157   7.422   4.643   8.526 -0.3296 -0.7910 -0.1590
  661MOL0     C89158   7.494   4.730   8.604  1.1522  0.6591  0.2389
  661MOL0     O89159   7.576   4.661   8.697  0.8182 -0.5262  0.2819
  661MOL0     C89160   7.697   4.735   8.742 -1.0955 -0.0726 -0.4319
  661MOL0     C89161   7.817   4.689   8.664 -0.2550 -0.1042  0.9600
  661MOL0     C89162   7.955   4.733   8.712  0.0027 -0.2541  0.0632
  661MOL0     C89163   7.997   4.679   8.850  0.1548 -0.9361  0.4148
  661MOL0     C89164   8.141   4.708   8.871 -0.3424  0.3910  0.8813
  661MOL0     C89165   8.261   4.732   8.878 -0.5702  0.8265  0.4079
  661MOL0     C89166   7.488   4.862   8.577  0.3692  0.6197  0.4938
  661MOL0     C89167   7.407   4.922   8.475  0.5401 -0.1597  0.3121
  661MOL0     H89168   7.292   5.260   8.155  0.4044  1.6820 -2.3884
  661MOL0     H89169   7.173   5.360   7.988 -0.8092  1.3796  3.3729
  661MOL0     H89170   6.980   5.133   7.764  0.4357  0.1596  1.6527
  661MOL0     H89171   6.811   5.164   7.788  0.7233 -0.9583 -0.7749
  661MOL0     H89172   6.963   5.373   7.622  0.4633  0.5979 -1.1539
  661MOL0     H89173   6.904   5.224   7.566 -0.3720  0.1486 -0.3117
  661MOL0     H89174   6.678   5.274   7.599 -1.7653  0.7710  3.0765
  661MOL0     H89175   6.697   5.395   7.719 -1.0932 -0.3961  0.2104
  661MOL0     H89176   6.812   5.536   7.536 -0.6420  1.0185  4.7000
  661MOL0     H89177   6.721   5.435   7.420 -0.9084  0.4347 -0.6053
  661MOL0     H89178   6.515   5.481   7.585  0.7575 -0.2563 -0.0082
  661MOL0     H89179   6.607   5.612   7.641 -1.9350 -0.5557  0.7118
  661MOL0     H89180   6.620   5.691   7.391 -2.2149  3.5189  0.5886
  661MOL0     H89181   6.527   5.549   7.345 -0.4198 -0.1345 -1.2619
  661MOL0     H89182   6.417   5.726   7.558  0.5197 -0.6877  0.5049
  661MOL0     H89183   6.397   5.758   7.383 -1.6807  2.6797  3.1757
  661MOL0     H89184   6.322   5.482   7.473  0.9554  0.3187  3.2108
  661MOL0     H89185   6.259   5.569   7.348  0.9702  2.0570  0.1097
  661MOL0     H89186   6.304   5.631   7.730 -0.7244 -0.6934  1.2463
  661MOL0     H89187   6.198   5.768   7.903 -1.3881  1.2260  3.1035
  661MOL0     H89188   6.027   5.828   7.873  1.4834  1.3380 -0.1844
  661MOL0     H89189   6.096   5.650   8.071  2.8192  0.8652  0.5256
  661MOL0     H89190   6.144   5.553   7.951 -0.5726 -0.5947 -1.0558
  661MOL0     H89191   5.909   5.485   8.015  1.3970  0.3255  1.3868
  661MOL0     H89192   5.906   5.545   7.850 -0.4973  1.2564  0.4463
  661MOL0     H89193   5.830   5.767   7.934  1.8886  0.1609  1.9969
  661MOL0     H89194   5.853   5.714   8.091  0.6412 -0.3961 -0.0348
  661MOL0     H89195   5.764   5.669   7.741  0.3421 -1.0183 -2.3789
  661MOL0     H89196   5.558   5.746   7.485 -2.1871 -2.0403 -0.6128
  661MOL0     H89197   5.718   5.659   7.497  0.3701  0.5019 -4.9204
  661MOL0     H89198   5.585   5.573   7.450 -0.9076 -2.7258  3.4092
  661MOL0     H89199   5.107   5.752   7.428  0.8800 -1.1731 -0.3427
  661MOL0     H89200   4.905   5.731   7.297  1.2301  1.1187 -0.2256
  661MOL0     H89201   4.717   5.364   7.247 -2.1918 -0.4653 -1.4325
  661MOL0     H89202   4.591   5.423   7.361  0.6997 -2.0886 -0.2138
  661MOL0     H89203   4.485   5.547   7.162 -1.3645 -0.0684 -1.9742
  661MOL0     H89204   4.615   5.476   7.060  2.0288 -0.3673  2.3838
  661MOL0     H89205   4.544   5.252   7.156 -0.3239  1.1144 -0.1533
  661MOL0     H89206   4.445   5.319   7.019 -1.4860  0.0056  0.3401
  661MOL0     H89207   4.364   5.350   7.309 -0.7036 -1.3585 -0.1047
  661MOL0     H89208   4.274   5.391   7.161  0.6770  1.3673  0.2025
  661MOL0     H89209   4.360   5.109   7.239  2.4704  3.3379  0.8119
  661MOL0     H89210   4.287   5.150   7.085 -0.3430 -2.1185  0.5794
  661MOL0     H89211   4.154   5.178   7.352  0.4167  1.8612 -0.4420
  661MOL0     H89212   4.090   5.249   7.199 -0.5749 -0.2475  1.0994
  661MOL0     H89213   4.149   4.954   7.253 -1.6689 -2.7407 -1.2972
  661MOL0     H89214   4.095   5.008   7.098  1.2126  0.7984  0.1607
  661MOL0     H89215   3.882   4.957   7.216  0.4338  0.2192 -0.8676
  661MOL0     H89216   3.910   5.133   7.227  1.5411  0.8704  1.0286
  661MOL0     H89217   4.815   5.352   7.482  1.5822 -0.4531  2.6154
  661MOL0     H89218   5.017   5.371   7.616 -3.0697 -1.3041 -1.5356
  661MOL0     H89219   5.280   5.523   7.830  0.2449 -1.7825 -3.3520
  661MOL0     H89220   5.444   5.576   8.016  0.8456  2.2445  1.0076
  661MOL0     H89221   6.847   5.082   8.040 -1.4971  3.4379 -0.8032
  661MOL0     H89222   6.969   4.946   8.163 -2.7337  0.8130 -1.2281
  661MOL0     H89223   7.305   4.635   8.346  1.1114  1.3916 -2.9176
  661MOL0     H89224   7.450   4.539   8.531 -0.3504 -0.8946 -1.7237
  661MOL0     H89225   7.674   4.841   8.743 -0.6243  0.0390 -0.9727
  661MOL0     H89226   7.714   4.708   8.847 -3.0600 -0.6789 -0.2330
  661MOL0     H89227   7.809   4.729   8.562  1.1862  2.4246  1.7368
  661MOL0     H89228   7.820   4.580   8.658  1.0439  0.0138 -2.7969
  661MOL0     H89229   7.954   4.842   8.713  1.6621 -0.1733  2.7781
  661MOL0     H89230   8.025   4.694   8.638 -1.6933 -1.3263 -1.0637
  661MOL0     H89231   7.990   4.571   8.837 -0.2134 -0.7785 -0.7694
  661MOL0     H89232   7.931   4.720   8.927 -0.6270  0.2530 -0.8380
  661MOL0     H89233   8.367   4.751   8.874 -0.2906 -0.0935  2.2949
  661MOL0     H89234   7.523   4.939   8.646 -3.2873  0.4548  2.7732
  661MOL0     H89235   7.415   5.026   8.446 -1.1668  0.0958  0.6673
  662MOL0     O89236   0.335  10.998   9.228 -0.0888  0.4002  0.7142
  662MOL0     C89237   0.303  11.058   9.126  0.2752  0.0696  0.6237
  662MOL0     O89238   0.190  11.043   9.056 -0.4458 -1.3576  0.1288
  662MOL0     C89239   0.089  10.948   9.083  0.0235 -0.1745  0.2242
  662MOL0     C89240  -0.028  10.973   9.020  0.3999  0.3920  0.3876
  662MOL0     C89241  -0.127  10.883   9.033  0.3390  0.5351 -0.3845
  662MOL0     C89242  -0.114  10.768   9.109  0.2710 -0.5564 -0.2514
  662MOL0     O89243  -0.235  10.696   9.117 -0.4789  0.0529 -0.5510
  662MOL0     C89244  -0.223  10.558   9.150  0.1741 -0.1579 -0.2671
  662MOL0     C89245  -0.193  10.471   9.023  0.2589 -0.4668 -0.1906
  662MOL0     C89246  -0.281  10.511   8.907  0.2096  0.4707 -0.7642
  662MOL0     C89247  -0.432  10.489   8.911 -0.2407 -0.6669 -0.6040
  662MOL0     C89248  -0.481  10.425   8.775  0.0902 -0.3822 -0.6107
  662MOL0     C89249  -0.620  10.453   8.732  0.8923  0.9576 -0.6544
  662MOL0     C89250  -0.730  10.424   8.840  0.5781 -0.3657 -0.2724
  662MOL0     C89251  -0.857  10.518   8.814 -0.1898  0.7738  1.1843
  662MOL0     N89252  -0.905  10.502   8.675  0.1549  0.2905  0.7489
  662MOL0     C89253  -0.944  10.386   8.611  0.2002 -0.3025 -0.3088
  662MOL0     C89254  -0.992  10.430   8.496  0.5050  1.0429 -0.6886
  662MOL0     C89255  -1.057  10.347   8.381  0.5543 -0.1247  0.0459
  662MOL0     C89256  -1.136  10.210   8.416  0.0364  0.2265  0.4887
  662MOL0     C89257  -1.087  10.094   8.330  0.3210 -0.5744  0.1197
  662MOL0     C89258  -0.955  10.031   8.387 -0.5750 -0.5296  0.0689
  662MOL0     O89259  -0.844  10.123   8.361  0.4614  0.5319  0.2091
  662MOL0     C89260  -0.717  10.083   8.399 -0.4555  0.3949  0.5422
  662MOL0     C89261  -0.620  10.185   8.403  0.3027 -0.1722 -0.1733
  662MOL0     C89262  -0.486  10.157   8.429 -0.1556  0.5613 -0.4619
  662MOL0     C89263  -0.390  10.269   8.404  0.2576  0.8290  0.5814
  662MOL0     C89264  -0.445  10.028   8.455 -0.4084 -0.2614  0.8151
  662MOL0     C89265  -0.308   9.989   8.500 -0.8215 -0.3072 -0.3057
  662MOL0     O89266  -0.213  10.087   8.522 -0.0998  0.6029  0.1247
  662MOL0     C89267  -0.104  10.053   8.602 -0.3713 -0.2541 -0.0852
  662MOL0     C89268  -0.093  10.122   8.726  0.1274  0.8552  0.0823
  662MOL0     C89269  -0.001  10.087   8.820 -0.0855 -0.0325 -0.5986
  662MOL0     C89270   0.107  10.002   8.798  0.7731  0.1191  0.2378
  662MOL0     O89271   0.199   9.996   8.898 -0.4400  0.4134  0.6572
  662MOL0     C89272   0.300   9.895   8.875 -0.2022 -0.0695 -0.2287
  662MOL0     C89273   0.381   9.865   9.004  0.4724  0.2361 -0.2028
  662MOL0     C89274   0.497   9.778   8.975 -0.6680 -0.5008 -0.4683
  662MOL0     C89275   0.529   9.690   9.094 -0.7174  0.1672 -0.2609
  662MOL0     C89276   0.670   9.630   9.072 -0.5952 -0.1939  0.8775
  662MOL0     C89277   0.678   9.509   8.974  1.5395  0.0178  0.0783
  662MOL0     C89278   0.817   9.459   8.952 -0.0249 -0.5555  0.5141
  662MOL0     C89279   0.817   9.316   8.892 -0.1596 -0.2617 -0.3650
  662MOL0    Cl89280   0.972   9.238   8.915  0.1454 -0.1459 -0.0848
  662MOL0     C89281   0.097   9.937   8.667 -0.0798  0.2796 -0.1416
  662MOL0     C89282  -0.006   9.958   8.577 -0.0763 -0.1271  0.6445
  662MOL0     O89283  -0.289   9.865   8.505  0.1278 -1.0764 -0.1867
  662MOL0     C89284  -0.548   9.924   8.449  0.4221 -0.1385  0.0332
  662MOL0     C89285  -0.673   9.960   8.425 -0.5119 -0.3790 -0.5513
  662MOL0     N89286  -0.999  10.563   8.490  0.4158  0.1145 -0.0487
  662MOL0     N89287  -0.948  10.607   8.602 -0.5152  0.7097  0.5290
  662MOL0     C89288   0.009  10.733   9.169  1.3913  0.4478  0.6116
  662MOL0     C89289   0.110  10.827   9.147 -0.2965  0.4185  0.1991
  662MOL0     C89290   0.397  11.165   9.088  0.9249 -0.1675 -0.1680
  662MOL0     C89291   0.482  11.212   9.182 -0.3295 -0.0584 -0.1666
  662MOL0     C89292   0.558  11.325   9.150 -0.5332  0.1933 -0.1962
  662MOL0     C89293   0.544  11.384   9.024 -0.3389  0.1174 -0.5085
  662MOL0     O89294   0.635  11.478   9.001 -0.5528 -0.1474 -0.8285
  662MOL0     C89295   0.586  11.612   9.000 -0.1633  0.1448 -0.6810
  662MOL0     C89296   0.689  11.699   8.937 -0.8514 -1.0302  0.0306
  662MOL0     C89297   0.688  11.703   8.784  1.2677  0.0502  0.2726
  662MOL0     C89298   0.793  11.802   8.718 -0.1297 -0.7353 -0.0078
  662MOL0     C89299   0.746  11.940   8.744 -0.3139  0.9267 -0.0298
  662MOL0     C89300   0.732  12.057   8.781  0.3430  0.2692  1.1809
  662MOL0     C89301   0.469  11.331   8.920 -0.1500  0.9496 -0.4360
  662MOL0     C89302   0.381  11.226   8.955  0.1067  0.5978 -0.1250
  662MOL0     H89303  -0.036  11.074   8.981 -3.0386  0.7503  1.6425
  662MOL0     H89304  -0.217  10.903   8.974 -0.0603  1.0218  0.3644
  662MOL0     H89305  -0.148  10.531   9.225 -1.6406 -2.1268  0.9571
  662MOL0     H89306  -0.321  10.525   9.186 -1.1728  3.2399 -0.5120
  662MOL0     H89307  -0.091  10.496   8.992 -0.1822  2.8332  0.6560
  662MOL0     H89308  -0.183  10.364   9.041 -0.8099 -0.6279 -0.4652
  662MOL0     H89309  -0.265  10.619   8.893  1.9634  0.4021  0.4244
  662MOL0     H89310  -0.236  10.461   8.821  0.8263  1.1943 -0.8764
  662MOL0     H89311  -0.457  10.415   8.988 -2.2511 -0.5541 -1.0799
  662MOL0     H89312  -0.479  10.585   8.935 -1.9072 -1.3999 -0.7922
  662MOL0     H89313  -0.416  10.473   8.701  1.7234 -0.4104  0.7500
  662MOL0     H89314  -0.461  10.318   8.764  1.1977 -0.6761  2.9174
  662MOL0     H89315  -0.635  10.554   8.691 -2.4027  0.9039  0.1662
  662MOL0     H89316  -0.634  10.386   8.647  0.0986  0.4277 -0.1145
  662MOL0     H89317  -0.771  10.323   8.832  2.0075 -1.3710  3.1604
  662MOL0     H89318  -0.692  10.440   8.941  1.1655 -1.0017 -0.3833
  662MOL0     H89319  -0.832  10.625   8.817 -3.3860  1.9413 -2.9264
  662MOL0     H89320  -0.939  10.497   8.883 -0.4475 -2.0097  0.1655
  662MOL0     H89321  -0.934  10.287   8.655 -0.2007  1.1560  3.4140
  662MOL0     H89322  -1.128  10.409   8.328 -0.8529 -1.1275  0.6948
  662MOL0     H89323  -0.971  10.318   8.319  0.7689 -1.5143  0.9353
  662MOL0     H89324  -1.239  10.234   8.387 -0.4810  1.8238  3.2431
  662MOL0     H89325  -1.134  10.170   8.518 -3.2131 -1.9544 -0.1555
  662MOL0     H89326  -1.086  10.119   8.223 -0.4390  2.4938  0.7273
  662MOL0     H89327  -1.157  10.012   8.344  0.6446 -0.8043  0.4159
  662MOL0     H89328  -0.935   9.936   8.337 -1.1573 -2.1587  2.7173
  662MOL0     H89329  -0.967  10.019   8.495 -1.2286 -0.3316  0.0226
  662MOL0     H89330  -0.662  10.284   8.387  0.5842  0.0262  0.2923
  662MOL0     H89331  -0.305  10.240   8.341  1.0841  2.0756  1.0680
  662MOL0     H89332  -0.426  10.360   8.355  0.7661  0.4977 -0.4421
  662MOL0     H89333  -0.351  10.316   8.494 -2.0509  3.3690  0.3943
  662MOL0     H89334  -0.173  10.189   8.755  0.2933  1.4576 -0.8233
  662MOL0     H89335   0.005  10.151   8.908 -0.8324  1.4362 -1.5910
  662MOL0     H89336   0.248   9.803   8.847 -1.9638  0.5691  0.8379
  662MOL0     H89337   0.354   9.917   8.783 -1.5619  1.0033 -0.7939
  662MOL0     H89338   0.432   9.951   9.048  0.2859 -0.3758  1.2659
  662MOL0     H89339   0.318   9.834   9.087  5.0782 -0.1145  3.5965
  662MOL0     H89340   0.576   9.843   8.935 -0.4609 -1.2662 -1.3419
  662MOL0     H89341   0.475   9.700   8.901 -0.3585 -2.9318  1.8807
  662MOL0     H89342   0.547   9.747   9.185  1.4226 -1.5423  0.4562
  662MOL0     H89343   0.457   9.612   9.123  0.1724 -0.2320  0.9557
  662MOL0     H89344   0.697   9.584   9.167  0.0956  1.6407  1.6125
  662MOL0     H89345   0.746   9.707   9.053  1.4930 -1.7593  2.3857
  662MOL0     H89346   0.613   9.426   9.003  1.7410 -0.3498 -0.5040
  662MOL0     H89347   0.644   9.527   8.872  2.3345 -1.7227 -0.5433
  662MOL0     H89348   0.871   9.473   9.047 -2.3415  1.6556  1.6132
  662MOL0     H89349   0.871   9.521   8.880  0.4827  1.4580  2.4778
  662MOL0     H89350   0.782   9.318   8.789 -2.9313 -1.0221  0.4682
  662MOL0     H89351   0.745   9.258   8.949  1.1294 -1.1180  0.4435
  662MOL0     H89352   0.174   9.862   8.654  0.0173  0.2540  0.5516
  662MOL0     H89353  -0.016   9.923   8.474 -1.2416 -0.7972  0.9648
  662MOL0     H89354  -0.520   9.820   8.452  2.5272  0.3268 -1.3345
  662MOL0     H89355  -0.742   9.882   8.394 -0.3793 -0.4716 -0.6111
  662MOL0     H89356   0.034  10.641   9.220  2.0837  0.3291  0.0748
  662MOL0     H89357   0.207  10.803   9.189 -1.5906 -2.2897  1.8624
  662MOL0     H89358   0.482  11.164   9.280  1.8337 -1.3110 -0.7122
  662MOL0     H89359   0.638  11.361   9.214 -0.0574  3.4962 -2.4045
  662MOL0     H89360   0.488  11.616   8.950 -1.0941 -4.0589  0.4696
  662MOL0     H89361   0.582  11.624   9.109 -0.4290 -0.9762 -0.5578
  662MOL0     H89362   0.789  11.662   8.959  0.1897  2.8208  2.6867
  662MOL0     H89363   0.677  11.796   8.986 -0.8054 -1.8927  1.8258
  662MOL0     H89364   0.587  11.727   8.750  1.1619  0.0590  0.5876
  662MOL0     H89365   0.724  11.610   8.740  1.4362  0.9347 -1.5404
  662MOL0     H89366   0.802  11.786   8.610  0.8550  2.5848 -0.5143
  662MOL0     H89367   0.895  11.785   8.754  0.2070 -0.6290 -0.8930
  662MOL0     H89368   0.708  12.153   8.821 -1.8824  0.2560  0.0604
  662MOL0     H89369   0.483  11.374   8.821 -1.6055  2.7395  0.1026
  662MOL0     H89370   0.310  11.180   8.888 -1.9853 -0.9293  2.9122
  663MOL0     O89371   7.758   7.043   9.477  0.7836  0.1743  0.1061
  663MOL0     C89372   7.678   6.953   9.490 -0.9434  0.4239  0.0314
  663MOL0     O89373   7.555   6.960   9.554  1.1530 -0.6413 -0.0979
  663MOL0     C89374   7.514   7.084   9.610 -0.2872 -0.1812 -0.4403
  663MOL0     C89375   7.603   7.176   9.671 -1.4913 -0.7749 -0.0280
  663MOL0     C89376   7.565   7.300   9.722 -0.3965 -0.0184  1.3183
  663MOL0     C89377   7.427   7.330   9.712 -0.6769  0.2546  0.2013
  663MOL0     O89378   7.371   7.445   9.754 -0.5474  0.0432 -0.1177
  663MOL0     C89379   7.457   7.542   9.822  0.8961  0.7683  0.2753
  663MOL0     C89380   7.381   7.672   9.790  0.1260 -0.0929 -0.4587
  663MOL0     C89381   7.251   7.683   9.863 -0.1056  0.4593  0.4164
  663MOL0     C89382   7.178   7.813   9.833  0.4946  0.1505  0.6355
  663MOL0     C89383   7.025   7.793   9.836 -0.9447  0.8197  0.9807
  663MOL0     C89384   6.972   7.928   9.808  0.5968 -0.6079  1.1066
  663MOL0     C89385   6.824   7.934   9.833  0.1528 -0.7390  0.7225
  663MOL0     C89386   6.766   8.069   9.805  0.5965 -0.1115  0.2806
  663MOL0     N89387   6.621   8.087   9.798  0.5623 -0.8993 -0.0653
  663MOL0     C89388   6.531   8.043   9.893  0.0855 -0.7359 -0.2251
  663MOL0     C89389   6.411   8.083   9.847  0.1936  0.1795 -0.1117
  663MOL0     C89390   6.276   8.051   9.900 -0.3448  0.5824  0.1292
  663MOL0     C89391   6.213   8.177   9.964 -0.6313 -0.8527 -0.3804
  663MOL0     C89392   6.141   8.269   9.865 -1.5257 -0.1303  0.0234
  663MOL0     C89393   5.991   8.281   9.862 -0.6949  0.5767 -0.2614
  663MOL0     O89394   5.943   8.303   9.997  0.6555  0.2620 -0.1658
  663MOL0     C89395   5.815   8.268  10.026  0.2996 -0.5546 -0.2928
  663MOL0     C89396   5.764   8.291  10.151 -0.4682  0.6689  0.6473
  663MOL0     C89397   5.622   8.270  10.175  0.0673  0.6674 -0.5126
  663MOL0     C89398   5.583   8.314  10.309  0.2523  0.1290  0.6747
  663MOL0     C89399   5.538   8.208  10.079 -0.0382 -0.1071 -0.2876
  663MOL0     C89400   5.386   8.162  10.099  0.2136 -0.5907 -0.1278
  663MOL0     O89401   5.308   8.129   9.987 -0.5320 -0.1683 -0.2224
  663MOL0     C89402   5.173   8.129  10.008 -0.1471 -0.6153 -0.1289
  663MOL0     C89403   5.097   8.237   9.960  0.2577  0.1141 -0.3601
  663MOL0     C89404   4.959   8.247   9.980 -0.2732  0.2170 -0.4045
  663MOL0     C89405   4.884   8.144  10.033 -0.3028  1.1335 -0.1158
  663MOL0     O89406   4.743   8.141  10.051 -0.1448 -0.2203 -0.9918
  663MOL0     C89407   4.678   8.260   9.993 -0.1914 -0.3597 -0.4016
  663MOL0     C89408   4.534   8.212  10.005 -0.2828 -1.5486  0.7853
  663MOL0     C89409   4.445   8.285   9.894  0.1580  0.2656 -0.5700
  663MOL0     C89410   4.457   8.225   9.747 -0.1327  0.2536 -0.2544
  663MOL0     C89411   4.359   8.284   9.643  0.3248 -0.5324  0.1872
  663MOL0     C89412   4.210   8.268   9.677 -0.6586 -0.5158  0.3531
  663MOL0     C89413   4.115   8.322   9.559  0.6851 -1.0697  0.6714
  663MOL0     C89414   3.965   8.319   9.601 -0.0036 -0.3057 -0.1636
  663MOL0    Cl89415   3.851   8.410   9.487 -0.1172  0.2036  0.1409
  663MOL0     C89416   4.957   8.038  10.086  0.1886  0.0889 -0.0555
  663MOL0     C89417   5.099   8.040  10.087 -0.3381 -0.4297 -0.4830
  663MOL0     O89418   5.346   8.161  10.216  0.0137  0.1527  0.2207
  663MOL0     C89419   5.593   8.177   9.961  0.1284 -0.3889  0.0376
  663MOL0     C89420   5.727   8.207   9.937  0.0950  0.5728 -0.1362
  663MOL0     N89421   6.435   8.149   9.719  0.8484  1.1353  0.2038
  663MOL0     N89422   6.558   8.157   9.700 -0.2069 -0.7477  0.2477
  663MOL0     C89423   7.336   7.242   9.651  0.5775  0.6141  0.2235
  663MOL0     C89424   7.383   7.122   9.605 -0.9581  0.9733 -0.5328
  663MOL0     C89425   7.707   6.831   9.411 -0.7348  0.4835  0.5145
  663MOL0     C89426   7.776   6.840   9.285 -0.0026 -0.1514  1.1999
  663MOL0     C89427   7.802   6.733   9.207 -0.4460  1.0656 -0.5178
  663MOL0     C89428   7.770   6.601   9.256  0.0263 -0.3501  0.6469
  663MOL0     O89429   7.796   6.485   9.177  0.0636  0.2028 -0.7703
  663MOL0     C89430   7.906   6.502   9.086  0.3903  0.6865  0.5960
  663MOL0     C89431   7.956   6.371   9.026  0.3320  0.5121 -1.0494
  663MOL0     C89432   8.074   6.414   8.915  0.4055 -0.5725 -0.2995
  663MOL0     C89433   8.208   6.420   8.994  0.3828  0.1248 -0.2913
  663MOL0     C89434   8.303   6.480   8.910 -0.5561 -0.1334  0.4540
  663MOL0     C89435   8.401   6.533   8.850  0.7440  0.9534 -0.3955
  663MOL0     C89436   7.701   6.590   9.376 -0.3541 -0.2761 -0.0372
  663MOL0     C89437   7.665   6.703   9.457 -0.7612  0.4148  0.3389
  663MOL0     H89438   7.706   7.142   9.678 -1.4240 -0.7565 -0.8040
  663MOL0     H89439   7.647   7.358   9.762  0.8491 -2.0008  1.8267
  663MOL0     H89440   7.474   7.524   9.928  3.2232  2.1269  0.2075
  663MOL0     H89441   7.560   7.549   9.784  0.1778 -0.5756 -2.1463
  663MOL0     H89442   7.444   7.751   9.830  1.0960 -2.5996  3.5859
  663MOL0     H89443   7.359   7.687   9.684 -2.0871  2.3902  0.2467
  663MOL0     H89444   7.200   7.594   9.825  0.0610  0.9133 -0.9316
  663MOL0     H89445   7.251   7.673   9.972  3.0938 -2.6244  0.2954
  663MOL0     H89446   7.203   7.881   9.915 -1.2783  0.2335  1.1533
  663MOL0     H89447   7.203   7.843   9.731 -3.0664 -2.4932 -1.2781
  663MOL0     H89448   6.993   7.714   9.768 -2.9628  0.1615  2.5826
  663MOL0     H89449   7.002   7.743   9.931  0.5520 -0.8611  0.5137
  663MOL0     H89450   7.000   8.010   9.876  1.6831 -0.5785  0.6264
  663MOL0     H89451   6.980   7.952   9.702  1.9287  0.0973  1.3483
  663MOL0     H89452   6.774   7.869   9.761 -3.2063  1.5719  0.6974
  663MOL0     H89453   6.801   7.902   9.936 -0.5476  1.2165  1.2299
  663MOL0     H89454   6.806   8.110   9.712 -2.0186  0.8284 -0.5056
  663MOL0     H89455   6.811   8.142   9.873  2.2659 -0.4039 -0.4482
  663MOL0     H89456   6.561   7.989   9.982  0.0314  1.7810  1.4164
  663MOL0     H89457   6.207   8.011   9.824 -0.4951  1.1458 -0.0366
  663MOL0     H89458   6.290   7.977   9.980  1.1050  2.5785  1.8217
  663MOL0     H89459   6.296   8.225  10.015 -0.5461 -1.7110  0.3303
  663MOL0     H89460   6.139   8.140  10.036  0.0926  0.4064  1.0590
  663MOL0     H89461   6.172   8.232   9.767  4.3533 -0.2410  1.5161
  663MOL0     H89462   6.190   8.366   9.873 -3.4510  0.7236  3.5326
  663MOL0     H89463   5.967   8.181   9.826 -0.0829 -0.3411  1.7201
  663MOL0     H89464   5.952   8.351   9.787  3.3789  0.6576 -2.5850
  663MOL0     H89465   5.836   8.320  10.227 -0.8109 -2.1960  2.1913
  663MOL0     H89466   5.661   8.371  10.361  2.9747 -3.4877  0.9658
  663MOL0     H89467   5.488   8.366  10.301 -0.0618 -0.3041  1.5477
  663MOL0     H89468   5.562   8.224  10.367 -1.1335 -1.3887 -2.0074
  663MOL0     H89469   5.155   8.310   9.905 -1.1912  0.5573 -1.3761
  663MOL0     H89470   4.911   8.342   9.958 -0.5407 -0.3435 -2.4997
  663MOL0     H89471   4.688   8.356  10.044 -0.9032  1.6942 -3.8184
  663MOL0     H89472   4.712   8.278   9.891  0.4657 -0.0437 -0.1353
  663MOL0     H89473   4.529   8.104   9.991  1.9100 -2.0538  3.0757
  663MOL0     H89474   4.492   8.239  10.102 -0.6449  0.9634  0.0104
  663MOL0     H89475   4.456   8.393   9.908  0.1651  0.1029  0.8245
  663MOL0     H89476   4.339   8.273   9.918  0.3155  2.5223  1.6516
  663MOL0     H89477   4.557   8.250   9.710  0.8847 -0.1815  1.9952
  663MOL0     H89478   4.457   8.116   9.736  0.4290  0.3779 -1.7295
  663MOL0     H89479   4.373   8.213   9.561 -1.7080 -3.2343  2.0168
  663MOL0     H89480   4.387   8.389   9.635 -0.2837 -0.4014 -0.2265
  663MOL0     H89481   4.183   8.163   9.693  1.8651 -1.6759 -2.1602
  663MOL0     H89482   4.184   8.327   9.765  2.4756  2.4334 -0.4880
  663MOL0     H89483   4.117   8.258   9.470 -1.3860 -0.8622  0.4330
  663MOL0     H89484   4.142   8.426   9.540 -0.5905 -0.6142  1.2691
  663MOL0     H89485   3.949   8.359   9.702 -1.0979 -0.7942 -0.1263
  663MOL0     H89486   3.943   8.213   9.617  2.8859 -0.9288  0.3036
  663MOL0     H89487   4.899   7.962  10.138 -1.7198  1.7058  0.3436
  663MOL0     H89488   5.145   7.973  10.159  0.0404 -1.0398 -1.2777
  663MOL0     H89489   5.545   8.131   9.875  2.6105 -1.7208 -0.7316
  663MOL0     H89490   5.765   8.185   9.838  1.2047  0.7280  0.2367
  663MOL0     H89491   7.231   7.264   9.666  0.7308 -0.6570  4.3815
  663MOL0     H89492   7.323   7.044   9.560 -0.9466  2.4050 -3.2388
  663MOL0     H89493   7.808   6.936   9.245  0.9192 -0.8205  0.3001
  663MOL0     H89494   7.854   6.751   9.113 -1.4630  2.0070 -0.9291
  663MOL0     H89495   7.878   6.572   9.006 -1.1085 -0.6983 -0.1562
  663MOL0     H89496   7.991   6.535   9.146  1.2009 -1.3632  0.6552
  663MOL0     H89497   7.872   6.318   8.980 -0.1518  0.5532 -0.2328
  663MOL0     H89498   7.981   6.297   9.102 -1.1230  0.1728 -0.8609
  663MOL0     H89499   8.059   6.513   8.871 -1.3018  1.5601  4.3673
  663MOL0     H89500   8.079   6.338   8.836  0.2025 -0.5784 -0.3064
  663MOL0     H89501   8.234   6.321   9.031 -0.0983  1.3664  3.9075
  663MOL0     H89502   8.193   6.467   9.092 -1.2972 -2.6294  0.9159
  663MOL0     H89503   8.487   6.577   8.803  1.2436  0.1353 -0.2678
  663MOL0     H89504   7.673   6.489   9.403 -0.6753 -0.1274  0.1944
  663MOL0     H89505   7.602   6.696   9.545  1.1273 -0.6581  1.6674
  664MOL0     O89506   4.312  10.945   0.552 -0.0373  0.3586 -0.3317
  664MOL0     C89507   4.427  10.906   0.579 -0.3340  0.3271 -0.3962
  664MOL0     O89508   4.456  10.780   0.604  0.4837  0.2039 -0.6766
  664MOL0     C89509   4.350  10.693   0.610 -0.2038 -0.3616 -1.0873
  664MOL0     C89510   4.320  10.621   0.497 -0.4941 -0.0675 -0.9358
  664MOL0     C89511   4.213  10.532   0.506  0.6090  0.5416  0.3380
  664MOL0     C89512   4.131  10.506   0.617  0.1783 -0.5711 -0.3238
  664MOL0     O89513   4.038  10.409   0.623  0.0805 -0.4897  0.5278
  664MOL0     C89514   3.953  10.381   0.501 -0.2729 -0.0007  0.8152
  664MOL0     C89515   3.872  10.502   0.449 -0.3233 -0.6720 -0.1595
  664MOL0     C89516   3.733  10.503   0.507 -0.4082  0.2811 -0.0944
  664MOL0     C89517   3.645  10.619   0.463 -0.5588 -0.4112  0.1377
  664MOL0     C89518   3.552  10.598   0.342  0.0885  0.3084 -0.8937
  664MOL0     C89519   3.625  10.628   0.207 -0.9052 -0.8071 -0.0155
  664MOL0     C89520   3.536  10.624   0.091 -0.4201 -1.1330  0.0550
  664MOL0     C89521   3.494  10.482   0.051 -0.5803  0.1293 -0.3180
  664MOL0     N89522   3.392  10.459  -0.057  0.3413  0.3475 -0.0432
  664MOL0     C89523   3.378  10.346  -0.131 -0.7529 -0.2201 -1.3436
  664MOL0     C89524   3.257  10.354  -0.194 -0.2358  0.4396 -0.0512
  664MOL0     C89525   3.189  10.243  -0.272  0.0364 -0.4662  0.2358
  664MOL0     C89526   3.149  10.270  -0.412 -0.1780  0.0777  0.1399
  664MOL0     C89527   3.268  10.221  -0.501  0.3274 -0.6762  1.0182
  664MOL0     C89528   3.394  10.307  -0.485  0.0517 -0.4274 -0.5684
  664MOL0     O89529   3.509  10.236  -0.433  0.5114  0.5664 -0.0967
  664MOL0     C89530   3.625  10.298  -0.409 -1.0620  0.0063  0.6281
  664MOL0     C89531   3.657  10.433  -0.397 -0.5695 -0.5400 -0.7453
  664MOL0     C89532   3.782  10.494  -0.388  0.5392  0.2992 -0.1488
  664MOL0     C89533   3.787  10.631  -0.329 -1.0379 -0.4723  0.6017
  664MOL0     C89534   3.893  10.409  -0.409  0.0515 -0.0395 -0.5983
  664MOL0     C89535   4.030  10.467  -0.421  1.2152  0.4460 -0.7573
  664MOL0     O89536   4.070  10.590  -0.360  1.2108  0.5307  0.1684
  664MOL0     C89537   4.188  10.648  -0.375 -0.7411 -0.2180  0.2704
  664MOL0     C89538   4.250  10.656  -0.500 -0.5952  0.1231 -0.0283
  664MOL0     C89539   4.373  10.726  -0.522  0.4150  0.0647  0.1248
  664MOL0     C89540   4.438  10.788  -0.413  0.6587 -0.1100 -0.1567
  664MOL0     O89541   4.561  10.842  -0.426  0.1070 -0.4642  0.1510
  664MOL0     C89542   4.593  10.890  -0.559 -0.7021  0.6766  0.7125
  664MOL0     C89543   4.724  10.967  -0.549 -0.1097  0.1869  0.5352
  664MOL0     C89544   4.701  11.099  -0.476 -0.0064 -0.5623  0.3367
  664MOL0     C89545   4.727  11.215  -0.578 -0.2692 -0.0814  0.4622
  664MOL0     C89546   4.741  11.362  -0.515  0.4733  0.5452 -0.2140
  664MOL0     C89547   4.789  11.451  -0.634  0.6588 -0.1364  1.1379
  664MOL0     C89548   4.823  11.595  -0.597 -0.0996  0.6392  0.0013
  664MOL0     C89549   4.831  11.666  -0.738 -0.6399  0.2537 -0.4234
  664MOL0    Cl89550   4.895  11.833  -0.701  0.4407 -0.0753 -0.1110
  664MOL0     C89551   4.379  10.776  -0.289 -0.8087 -0.8117  0.5618
  664MOL0     C89552   4.254  10.709  -0.267 -0.1947  0.9479  0.1954
  664MOL0     O89553   4.111  10.383  -0.454 -0.4775 -0.6447  0.1494
  664MOL0     C89554   3.867  10.274  -0.419 -0.6955 -1.1353 -0.3037
  664MOL0     C89555   3.740  10.220  -0.417  0.1098  0.4229  0.2326
  664MOL0     N89556   3.207  10.473  -0.174 -0.6760  0.6608 -0.1647
  664MOL0     N89557   3.288  10.532  -0.087  0.4267  1.2625 -0.1964
  664MOL0     C89558   4.177  10.575   0.736  0.3478  0.0247  0.1457
  664MOL0     C89559   4.285  10.659   0.731  0.1518 -0.0859  0.6909
  664MOL0     C89560   4.532  11.006   0.620  0.3423  1.1076 -0.8850
  664MOL0     C89561   4.657  10.958   0.639 -0.3645  0.4679 -0.6454
  664MOL0     C89562   4.767  11.036   0.677 -0.5740 -0.1068  0.7606
  664MOL0     C89563   4.745  11.170   0.700  0.2186 -0.8393 -0.5855
  664MOL0     O89564   4.863  11.241   0.712 -0.3034 -0.6203 -0.2869
  664MOL0     C89565   4.858  11.381   0.669 -0.2074 -0.0763 -0.2631
  664MOL0     C89566   4.851  11.415   0.517  0.4856 -0.3388  0.0886
  664MOL0     C89567   4.982  11.372   0.443 -1.1477  0.8725  0.0401
  664MOL0     C89568   4.960  11.351   0.295  0.0935  0.1283 -0.4674
  664MOL0     C89569   5.095  11.360   0.233  0.8136  0.4182 -0.7711
  664MOL0     C89570   5.209  11.353   0.191 -0.5711 -0.7075  0.1316
  664MOL0     C89571   4.616  11.218   0.676  0.9830  0.0228 -0.7877
  664MOL0     C89572   4.509  11.143   0.635  1.0148 -0.0344  0.3153
  664MOL0     H89573   4.376  10.643   0.407  2.2067  1.7618  0.9941
  664MOL0     H89574   4.196  10.484   0.410  0.1869  3.2185 -1.0536
  664MOL0     H89575   4.026  10.355   0.424  1.0136  1.1542  1.5883
  664MOL0     H89576   3.888  10.293   0.510 -1.6555  0.7895 -0.8889
  664MOL0     H89577   3.924  10.594   0.479 -2.4945 -0.1750  2.5637
  664MOL0     H89578   3.867  10.499   0.340  2.5751 -2.2686 -0.3552
  664MOL0     H89579   3.686  10.406   0.488  1.4633 -0.4740 -1.1356
  664MOL0     H89580   3.745  10.524   0.613 -1.2941  1.9968 -0.2874
  664MOL0     H89581   3.579  10.648   0.544  1.4695 -0.9604  2.0888
  664MOL0     H89582   3.701  10.713   0.458 -1.2795  0.2619  2.8933
  664MOL0     H89583   3.507  10.500   0.352 -0.6824  0.5368 -1.9891
  664MOL0     H89584   3.471  10.669   0.357 -1.7224 -1.5562 -1.4962
  664MOL0     H89585   3.669  10.728   0.208  0.6553 -1.4403 -1.5443
  664MOL0     H89586   3.707  10.556   0.200  0.2826  0.2652  2.0115
  664MOL0     H89587   3.447  10.685   0.106 -0.3363 -1.0369  0.1616
  664MOL0     H89588   3.583  10.673   0.005 -0.0632  1.3254  1.5545
  664MOL0     H89589   3.445  10.433   0.136 -2.1150 -0.7767 -1.6613
  664MOL0     H89590   3.578  10.424   0.012 -0.8794 -0.1591 -0.5430
  664MOL0     H89591   3.452  10.266  -0.123 -0.6860 -0.0368  0.2852
  664MOL0     H89592   3.265  10.164  -0.274 -0.1836 -0.8858  3.1716
  664MOL0     H89593   3.103  10.215  -0.210 -0.2153 -0.0452  0.0768
  664MOL0     H89594   3.132  10.377  -0.420  2.4089  0.4841 -0.9411
  664MOL0     H89595   3.062  10.211  -0.444 -0.2539  0.8661 -1.1577
  664MOL0     H89596   3.244  10.224  -0.608  1.1025  0.7874  0.8668
  664MOL0     H89597   3.287  10.115  -0.482 -3.4516 -1.1445  3.2272
  664MOL0     H89598   3.371  10.385  -0.412 -1.8356 -0.8075 -0.6979
  664MOL0     H89599   3.418  10.348  -0.583  2.5004  0.2634  0.2417
  664MOL0     H89600   3.572  10.500  -0.386 -0.2240 -0.2656  0.3843
  664MOL0     H89601   3.692  10.674  -0.294 -0.5774  1.9151 -0.8656
  664MOL0     H89602   3.842  10.636  -0.235 -0.7549 -0.7611  0.4542
  664MOL0     H89603   3.823  10.698  -0.408 -0.1275  0.0006  1.3965
  664MOL0     H89604   4.215  10.606  -0.589  1.4142 -0.1180 -0.7498
  664MOL0     H89605   4.403  10.715  -0.626  0.1680  3.1739 -0.3807
  664MOL0     H89606   4.609  10.810  -0.632 -0.1999 -0.1320  1.6777
  664MOL0     H89607   4.518  10.953  -0.607 -1.0409 -1.9686 -2.5998
  664MOL0     H89608   4.798  10.914  -0.488  0.6433  3.3794  2.6552
  664MOL0     H89609   4.766  10.976  -0.649  0.6408  4.7431  1.0376
  664MOL0     H89610   4.764  11.116  -0.388 -1.0205  1.4467  0.7385
  664MOL0     H89611   4.598  11.101  -0.438 -0.1513  0.3587 -0.0877
  664MOL0     H89612   4.826  11.198  -0.622  0.3109  1.5974  1.0365
  664MOL0     H89613   4.654  11.212  -0.660  0.4936 -2.4303 -0.2061
  664MOL0     H89614   4.812  11.370  -0.433 -1.5398 -1.0891  1.8034
  664MOL0     H89615   4.640  11.398  -0.494 -0.4973 -1.6358 -0.8576
  664MOL0     H89616   4.877  11.412  -0.686  0.3344  3.0627 -2.2507
  664MOL0     H89617   4.709  11.461  -0.708  2.6871  2.2849 -0.8933
  664MOL0     H89618   4.916  11.594  -0.540 -1.2583 -0.4701  1.9721
  664MOL0     H89619   4.738  11.635  -0.541  1.4756  0.6057  2.5817
  664MOL0     H89620   4.728  11.671  -0.773 -0.7812 -0.9240 -0.2372
  664MOL0     H89621   4.900  11.616  -0.807 -0.1098 -0.7770  0.7984
  664MOL0     H89622   4.432  10.817  -0.204 -0.1860 -0.6379  0.0901
  664MOL0     H89623   4.218  10.694  -0.165  4.4615 -4.0657  1.5839
  664MOL0     H89624   3.941  10.195  -0.418 -1.0560 -1.5865 -2.8156
  664MOL0     H89625   3.735  10.112  -0.425  2.6379  0.0743  2.0869
  664MOL0     H89626   4.143  10.543   0.834  0.8493 -2.8119 -0.5245
  664MOL0     H89627   4.318  10.706   0.823 -0.6799 -2.3492  2.2233
  664MOL0     H89628   4.681  10.856   0.610  0.1145  0.9712 -2.0936
  664MOL0     H89629   4.865  10.992   0.691 -0.1246  0.3662 -0.7038
  664MOL0     H89630   4.771  11.426   0.718  0.5905 -2.8540  4.3055
  664MOL0     H89631   4.948  11.425   0.713  0.5279 -1.7158 -0.0530
  664MOL0     H89632   4.825  11.515   0.482  1.7323 -1.1507 -3.6995
  664MOL0     H89633   4.765  11.352   0.490 -0.1391  0.2229  0.7240
  664MOL0     H89634   5.009  11.272   0.479 -2.5390 -0.0664 -1.3479
  664MOL0     H89635   5.064  11.444   0.451  0.5712 -1.0420  0.6992
  664MOL0     H89636   4.894  11.429   0.257  0.1618  0.2035 -0.4354
  664MOL0     H89637   4.911  11.255   0.281  2.9002 -2.7195  5.4380
  664MOL0     H89638   5.304  11.326   0.150 -1.4488 -1.8540 -1.2177
  664MOL0     H89639   4.592  11.322   0.696  3.7557  0.3060  1.6579
  664MOL0     H89640   4.411  11.183   0.609  0.9267 -1.1776 -1.2564
  665MOL0     O89641  10.280   8.000  10.780 -0.8087 -0.0575 -1.2422
  665MOL0     C89642  10.234   8.110  10.747  0.3728  0.2926  0.2981
  665MOL0     O89643  10.162   8.203  10.826  0.1739  0.5937  0.3510
  665MOL0     C89644  10.142   8.184  10.963 -0.4038 -0.7583  0.2059
  665MOL0     C89645  10.246   8.166  11.051 -0.3307  0.2993  0.6764
  665MOL0     C89646  10.215   8.130  11.189  0.0122  0.2379  0.2113
  665MOL0     C89647  10.093   8.152  11.244 -0.0902  0.1330 -1.3663
  665MOL0     O89648  10.071   8.131  11.375  0.2818 -0.1458  0.6156
  665MOL0     C89649   9.944   8.078  11.427  0.2712 -0.0410 -0.6535
  665MOL0     C89650   9.952   7.936  11.474 -0.0180 -0.2720 -0.2050
  665MOL0     C89651   9.827   7.900  11.567 -0.1307  0.0527  0.2518
  665MOL0     C89652   9.835   7.762  11.620  0.1502  0.4085  0.4060
  665MOL0     C89653   9.691   7.695  11.646  0.3848 -0.1025  0.3216
  665MOL0     C89654   9.696   7.542  11.665 -0.5179  0.1011 -0.4914
  665MOL0     C89655   9.800   7.493  11.780  0.5444 -0.5031 -0.4284
  665MOL0     C89656   9.779   7.345  11.793  0.0478 -0.3178  0.3140
  665MOL0     N89657   9.877   7.290  11.896  0.2305  0.0238 -0.1747
  665MOL0     C89658   9.847   7.270  12.031  0.1447 -0.5150  0.3022
  665MOL0     C89659   9.956   7.214  12.093  0.0123  0.6089  0.4485
  665MOL0     C89660   9.966   7.184  12.236 -0.2006  0.3732  0.3884
  665MOL0     C89661   9.867   7.075  12.270  0.0949 -0.2991  0.0463
  665MOL0     C89662   9.907   6.925  12.241  0.3696 -0.6053 -0.8629
  665MOL0     C89663   9.918   6.889  12.094  0.6745 -1.1856 -0.4265
  665MOL0     O89664   9.798   6.930  12.032  0.4097  0.2817 -0.2337
  665MOL0     C89665   9.751   6.881  11.913  0.2880 -0.2455  0.1308
  665MOL0     C89666   9.647   6.951  11.860  0.4557 -0.5958 -0.2304
  665MOL0     C89667   9.598   6.920  11.729 -0.6592 -0.5597 -0.4406
  665MOL0     C89668   9.506   7.020  11.670  0.2374  0.1503  0.4761
  665MOL0     C89669   9.640   6.804  11.660 -0.4715 -1.2973 -0.5113
  665MOL0     C89670   9.588   6.751  11.538  0.9609  0.6651  0.9122
  665MOL0     O89671   9.667   6.692  11.449  0.3668 -0.3054  0.5124
  665MOL0     C89672   9.599   6.635  11.338 -0.5119  0.0838 -0.5840
  665MOL0     C89673   9.625   6.499  11.309 -0.0239  0.0366 -0.3612
  665MOL0     C89674   9.580   6.452  11.184  0.1422  0.2830  0.3704
  665MOL0     C89675   9.504   6.527  11.094  0.2539  0.8648 -0.8156
  665MOL0     O89676   9.450   6.452  10.995 -0.2900 -0.1662 -0.2422
  665MOL0     C89677   9.375   6.515  10.892 -0.7886 -0.5811  0.1970
  665MOL0     C89678   9.333   6.402  10.797 -0.2640 -0.9459 -0.3837
  665MOL0     C89679   9.314   6.451  10.651  1.1658  0.9198 -0.4023
  665MOL0     C89680   9.265   6.339  10.553  0.4103 -0.5109  0.0527
  665MOL0     C89681   9.275   6.396  10.415  0.4861  0.2208  0.8813
  665MOL0     C89682   9.422   6.381  10.357  0.0593 -0.5009  0.1246
  665MOL0     C89683   9.427   6.411  10.209  0.4348 -0.0628  0.2912
  665MOL0     C89684   9.422   6.558  10.177 -0.0700  0.1574  0.3000
  665MOL0    Cl89685   9.463   6.561  10.007  0.2168 -0.1401  0.1623
  665MOL0     C89686   9.480   6.657  11.133 -0.1649  0.7042 -0.1103
  665MOL0     C89687   9.526   6.718  11.247  0.0089  0.4747 -0.6594
  665MOL0     O89688   9.464   6.765  11.522 -0.9470 -0.0787  0.0972
  665MOL0     C89689   9.749   6.741  11.714  0.7256  0.8828 -0.7150
  665MOL0     C89690   9.807   6.781  11.835  0.4918  0.2377 -0.0521
  665MOL0     N89691  10.054   7.202  11.997 -0.3279 -0.2785  0.4921
  665MOL0     N89692  10.010   7.251  11.876 -1.2094  0.0585  0.3066
  665MOL0     C89693   9.987   8.189  11.156 -0.0940  0.9979  0.5567
  665MOL0     C89694  10.012   8.197  11.021 -0.9508  0.1610 -0.0837
  665MOL0     C89695  10.238   8.134  10.602  0.4157 -1.0960 -0.1403
  665MOL0     C89696  10.305   8.059  10.512  0.6638  1.1560  0.1346
  665MOL0     C89697  10.312   8.079  10.373  0.1096  0.8730 -0.1938
  665MOL0     C89698  10.227   8.169  10.317  0.1894  0.8224 -0.3204
  665MOL0     O89699  10.218   8.195  10.180 -0.0331 -0.1820  0.0547
  665MOL0     C89700  10.308   8.134  10.078 -0.3498 -0.4711 -0.3597
  665MOL0     C89701  10.242   8.007  10.019  0.0138 -0.5918 -0.7313
  665MOL0     C89702  10.131   8.047   9.916 -0.3007 -0.5401  0.7687
  665MOL0     C89703  10.046   7.923   9.876  0.4868  0.0109  0.5312
  665MOL0     C89704   9.934   7.954   9.789 -0.5069  0.7519 -0.7332
  665MOL0     C89705   9.858   7.967   9.705  0.7189 -1.1553  0.7229
  665MOL0     C89706  10.147   8.251  10.400 -0.0882 -0.0079 -0.8285
  665MOL0     C89707  10.150   8.229  10.540 -0.5297 -0.1733  0.1672
  665MOL0     H89708  10.350   8.161  11.018 -0.5760 -0.0274 -0.0713
  665MOL0     H89709  10.307   8.103  11.239 -0.5559 -1.6198  0.3254
  665MOL0     H89710   9.920   8.137  11.516  2.7916 -1.6716  1.2439
  665MOL0     H89711   9.858   8.090  11.360 -2.0387  4.7361  2.6603
  665MOL0     H89712   9.943   7.880  11.381  0.5038 -0.7199  0.0097
  665MOL0     H89713  10.042   7.913  11.532 -0.9640 -1.3048  0.9131
  665MOL0     H89714   9.820   7.968  11.652  4.0532 -0.2752  1.0693
  665MOL0     H89715   9.732   7.906  11.511 -1.0823  0.8503  1.8730
  665MOL0     H89716   9.893   7.694  11.557 -3.0820 -0.1977 -2.1368
  665MOL0     H89717   9.877   7.774  11.721  0.8586 -1.5742  0.3991
  665MOL0     H89718   9.640   7.748  11.727  0.6353  3.2659 -1.5550
  665MOL0     H89719   9.629   7.728  11.562  1.8195 -1.6549 -1.4266
  665MOL0     H89720   9.595   7.506  11.684 -0.3924  0.7797  1.7429
  665MOL0     H89721   9.729   7.493  11.573  0.5773 -0.6726  0.2817
  665MOL0     H89722   9.900   7.508  11.738  0.6882  1.2101  0.4510
  665MOL0     H89723   9.786   7.537  11.879  1.5037  0.8817 -0.8646
  665MOL0     H89724   9.800   7.284  11.705  0.0938 -2.1082  1.5092
  665MOL0     H89725   9.677   7.323  11.826 -1.1780 -0.4984 -3.2160
  665MOL0     H89726   9.753   7.294  12.080  0.1973  0.5376 -0.0906
  665MOL0     H89727  10.067   7.145  12.247  0.1475  0.9473 -0.6421
  665MOL0     H89728   9.961   7.276  12.296 -0.1123 -0.2621  1.3900
  665MOL0     H89729   9.764   7.097  12.239 -0.2925 -1.4281  0.4639
  665MOL0     H89730   9.862   7.081  12.379 -0.9498 -0.7649  0.0426
  665MOL0     H89731   9.822   6.875  12.289 -0.1274  0.6459 -0.3873
  665MOL0     H89732   9.992   6.886  12.299 -1.5413 -2.6938  0.7129
  665MOL0     H89733   9.931   6.780  12.094  0.2207 -1.3370  2.9505
  665MOL0     H89734   9.999   6.941  12.041  0.3851  1.9697  1.9586
  665MOL0     H89735   9.603   7.029  11.921 -0.7682 -1.7798  0.4698
  665MOL0     H89736   9.507   7.006  11.561 -1.2984 -4.5786  0.8619
  665MOL0     H89737   9.402   6.994  11.691 -0.2946 -0.4375 -2.3709
  665MOL0     H89738   9.529   7.124  11.694  1.5747  0.0945 -0.4277
  665MOL0     H89739   9.669   6.431  11.382  1.4784  3.4194  2.1418
  665MOL0     H89740   9.591   6.349  11.154  1.2374  1.6568 -4.8974
  665MOL0     H89741   9.299   6.571  10.947 -0.0348 -0.5133  1.2153
  665MOL0     H89742   9.435   6.591  10.841 -1.0923 -1.1345 -1.0170
  665MOL0     H89743   9.409   6.324  10.803  0.7589 -0.1958 -2.4787
  665MOL0     H89744   9.240   6.360  10.837 -0.0061  0.2861  1.6950
  665MOL0     H89745   9.414   6.483  10.620  1.6842  0.5088  0.7839
  665MOL0     H89746   9.244   6.535  10.647 -2.6845 -2.0149  0.0504
  665MOL0     H89747   9.329   6.250  10.558 -0.3930 -1.0868  0.4733
  665MOL0     H89748   9.163   6.320  10.589  0.2404  4.0646  2.8611
  665MOL0     H89749   9.254   6.503  10.414 -0.0101  0.1319 -0.5206
  665MOL0     H89750   9.209   6.337  10.351 -1.1087  2.2878  0.4859
  665MOL0     H89751   9.498   6.448  10.399 -2.8483  4.5097 -1.7296
  665MOL0     H89752   9.448   6.275  10.357  0.9350 -0.3080 -1.1094
  665MOL0     H89753   9.349   6.354  10.156  0.3970  0.8413 -0.6507
  665MOL0     H89754   9.527   6.379  10.179  0.9724  1.1481  0.7463
  665MOL0     H89755   9.492   6.607  10.245 -1.8640  0.7654  1.7998
  665MOL0     H89756   9.321   6.597  10.192  0.1965  0.5436  1.1363
  665MOL0     H89757   9.412   6.723  11.079  1.0219  1.4242 -0.7757
  665MOL0     H89758   9.528   6.823  11.277  0.8550 -0.0288  1.2031
  665MOL0     H89759   9.793   6.651  11.671 -2.8433 -1.2449 -0.2820
  665MOL0     H89760   9.871   6.706  11.881 -4.0238 -1.6152  4.0467
  665MOL0     H89761   9.889   8.217  11.194  0.5835  1.0794  2.3090
  665MOL0     H89762   9.927   8.215  10.955  0.0944 -0.3150 -1.5953
  665MOL0     H89763  10.379   7.983  10.539  1.9587  1.0033 -3.2610
  665MOL0     H89764  10.384   8.012  10.327 -0.5435 -1.1712  1.6231
  665MOL0     H89765  10.334   8.207  10.001 -1.9575  1.8866  1.1575
  665MOL0     H89766  10.401   8.108  10.130  1.4906  0.1703 -3.1412
  665MOL0     H89767  10.201   7.961  10.110 -1.2013 -2.5366 -2.2098
  665MOL0     H89768  10.310   7.942   9.964  0.7731 -0.2460 -0.2180
  665MOL0     H89769  10.164   8.090   9.821 -3.8352  0.8687  0.0229
  665MOL0     H89770  10.067   8.125   9.957 -0.8403 -0.2938 -0.4920
  665MOL0     H89771  10.012   7.868   9.964 -0.9589  0.1731  0.0956
  665MOL0     H89772  10.111   7.858   9.818 -0.6081 -0.7714  0.1445
  665MOL0     H89773   9.786   7.981   9.627  0.5206 -2.8626  0.5571
  665MOL0     H89774  10.078   8.324  10.358  0.5593  1.6533  0.9000
  665MOL0     H89775  10.075   8.279  10.601 -0.7186  0.8579 -0.8840
  666MOL0     O89776   5.097   1.342   7.394  0.0926  0.6357  0.6248
  666MOL0     C89777   5.167   1.303   7.300  0.1700  0.2485  0.3800
  666MOL0     O89778   5.125   1.281   7.171 -0.8229 -0.3481 -0.2959
  666MOL0     C89779   5.008   1.332   7.123  0.1979  0.6784  0.2251
  666MOL0     C89780   4.956   1.265   7.009 -0.9998 -0.1385 -0.8499
  666MOL0     C89781   4.841   1.309   6.943  0.0910 -0.1588  0.5206
  666MOL0     C89782   4.768   1.411   6.991  0.2259 -0.2085 -0.8514
  666MOL0     O89783   4.639   1.424   6.937 -0.7052 -0.4307  1.0637
  666MOL0     C89784   4.566   1.545   6.965  0.0120 -0.7036  0.2175
  666MOL0     C89785   4.442   1.535   6.875 -0.1521  0.4167 -0.0417
  666MOL0     C89786   4.388   1.678   6.841  0.1177 -0.5452  1.1464
  666MOL0     C89787   4.287   1.680   6.727 -0.4908  0.2558 -0.5306
  666MOL0     C89788   4.285   1.791   6.626 -0.5822 -0.7980 -0.3516
  666MOL0     C89789   4.190   1.763   6.510  0.3220  0.1267  0.3102
  666MOL0     C89790   4.171   1.895   6.428  0.0053  0.4072 -0.4074
  666MOL0     C89791   4.025   1.939   6.389 -0.8321  0.3413  0.1768
  666MOL0     N89792   4.022   2.050   6.301  0.1184  0.6319  0.0629
  666MOL0     C89793   4.088   2.059   6.176 -0.4326  0.4842  0.8043
  666MOL0     C89794   4.037   2.172   6.118 -0.2438 -0.0200 -0.9495
  666MOL0     C89795   4.060   2.229   5.986  0.0228 -0.4025  0.2324
  666MOL0     C89796   4.192   2.299   5.975 -1.0288 -0.6121 -0.3291
  666MOL0     C89797   4.214   2.415   6.073  0.5910  0.0948 -0.6258
  666MOL0     C89798   4.100   2.513   6.100  0.2049  0.3163  0.5309
  666MOL0     O89799   4.079   2.589   5.975 -0.2409  0.3277 -0.0892
  666MOL0     C89800   3.968   2.664   5.952  0.6730  0.6706  0.0457
  666MOL0     C89801   3.886   2.710   6.055  0.1565  0.9107  0.1996
  666MOL0     C89802   3.758   2.774   6.031 -0.5590 -0.4985 -1.0254
  666MOL0     C89803   3.681   2.833   6.149  0.4705  0.6832 -0.2549
  666MOL0     C89804   3.716   2.773   5.897 -0.6248  0.0060  0.0518
  666MOL0     C89805   3.590   2.825   5.849 -0.5482  1.1533 -0.8389
  666MOL0     O89806   3.585   2.869   5.716  0.3679  0.3528  0.5088
  666MOL0     C89807   3.460   2.873   5.660 -0.5396 -0.1513 -0.4480
  666MOL0     C89808   3.390   2.752   5.634  0.2407  0.0280  0.1209
  666MOL0     C89809   3.274   2.749   5.555  0.5180 -0.8801  0.4716
  666MOL0     C89810   3.222   2.876   5.513 -0.8197  0.0241 -0.6596
  666MOL0     O89811   3.105   2.860   5.441 -0.0438 -1.1000 -0.3772
  666MOL0     C89812   3.014   2.979   5.426 -0.1045 -0.0435 -0.0837
  666MOL0     C89813   2.892   2.971   5.326 -0.9970  0.1389 -0.5834
  666MOL0     C89814   2.796   2.850   5.358 -0.0907 -0.0097 -0.6415
  666MOL0     C89815   2.683   2.876   5.463 -1.3017 -0.3525  1.0635
  666MOL0     C89816   2.587   2.747   5.466  0.6783 -0.7465  0.1900
  666MOL0     C89817   2.486   2.744   5.572  0.6172  0.1396  0.0708
  666MOL0     C89818   2.387   2.628   5.564 -0.4335 -0.2532  0.8060
  666MOL0     C89819   2.292   2.639   5.444  0.6269  0.0660  0.3499
  666MOL0    Cl89820   2.163   2.751   5.483  0.2541 -0.6006 -0.5135
  666MOL0     C89821   3.288   2.998   5.549  0.6726 -0.8981  0.4107
  666MOL0     C89822   3.414   2.995   5.612  1.2316  0.1095 -0.2949
  666MOL0     O89823   3.499   2.832   5.930  0.6212 -0.2801 -0.2578
  666MOL0     C89824   3.813   2.738   5.791  0.6133 -0.6941  0.0779
  666MOL0     C89825   3.934   2.687   5.821 -0.5872  0.2473 -0.3048
  666MOL0     N89826   3.941   2.219   6.208  0.3719 -0.3233  0.4200
  666MOL0     N89827   3.925   2.143   6.309  0.6230  0.0118  0.0037
  666MOL0     C89828   4.814   1.486   7.112 -0.1589  0.9302  0.3488
  666MOL0     C89829   4.939   1.443   7.174  0.4110 -0.3313  0.5632
  666MOL0     C89830   5.304   1.275   7.339  0.6133  0.6074 -0.1586
  666MOL0     C89831   5.390   1.238   7.245  0.1453  0.4905  0.7560
  666MOL0     C89832   5.513   1.189   7.271 -0.1097 -0.9260 -0.2544
  666MOL0     C89833   5.559   1.169   7.402  0.1781  0.1424 -0.1146
  666MOL0     O89834   5.676   1.114   7.441  0.7395  0.5491  0.3555
  666MOL0     C89835   5.789   1.128   7.344 -0.5839 -0.5141 -0.7416
  666MOL0     C89836   5.914   1.075   7.419 -0.8138 -0.0551 -0.9447
  666MOL0     C89837   5.936   0.921   7.388  0.3033  0.4670  0.5741
  666MOL0     C89838   5.808   0.835   7.391  0.3147  0.3378  0.5070
  666MOL0     C89839   5.833   0.694   7.358  0.6337  0.2686  0.8585
  666MOL0     C89840   5.854   0.571   7.345 -0.5111 -1.0840 -0.4403
  666MOL0     C89841   5.468   1.209   7.503 -0.6047 -0.0927  0.3012
  666MOL0     C89842   5.342   1.255   7.473 -0.2353  0.4193  0.5457
  666MOL0     H89843   5.015   1.179   6.981 -0.6154 -0.2292  0.1819
  666MOL0     H89844   4.800   1.241   6.870 -0.7962  0.0162  0.8398
  666MOL0     H89845   4.535   1.549   7.070  0.0585 -0.3680  0.2177
  666MOL0     H89846   4.623   1.633   6.936 -0.6053 -0.0626  0.9145
  666MOL0     H89847   4.465   1.477   6.785 -2.7591 -0.6172 -0.1319
  666MOL0     H89848   4.366   1.480   6.931  1.4250 -0.4839  1.3032
  666MOL0     H89849   4.343   1.719   6.932  3.1932 -0.4954  2.7852
  666MOL0     H89850   4.474   1.736   6.807 -1.0714  0.9355  0.5196
  666MOL0     H89851   4.312   1.589   6.672 -1.4905 -1.3722  1.5724
  666MOL0     H89852   4.185   1.661   6.762 -0.2151  1.0285  0.7257
  666MOL0     H89853   4.248   1.882   6.675 -0.3671 -2.2284  2.7584
  666MOL0     H89854   4.388   1.807   6.593  0.5067 -0.1162  2.9566
  666MOL0     H89855   4.238   1.681   6.456  2.3896  0.5912  1.3308
  666MOL0     H89856   4.089   1.737   6.541 -0.7559  2.3884 -0.9955
  666MOL0     H89857   4.228   1.980   6.466  1.3120 -0.0052 -1.3699
  666MOL0     H89858   4.230   1.868   6.340 -0.4932  0.1524 -0.6690
  666MOL0     H89859   3.957   1.954   6.473 -2.8842  1.6512 -1.6073
  666MOL0     H89860   3.983   1.850   6.341 -0.7640  1.0103 -1.1530
  666MOL0     H89861   4.150   1.988   6.122 -3.2350 -1.5588  0.0476
  666MOL0     H89862   4.059   2.148   5.913  2.1136 -0.6262  0.4069
  666MOL0     H89863   3.981   2.304   5.974  0.6111  0.2346  0.2782
  666MOL0     H89864   4.204   2.349   5.878  2.2283  0.4233  0.4960
  666MOL0     H89865   4.276   2.230   5.982 -2.0427 -1.8474 -0.1043
  666MOL0     H89866   4.305   2.470   6.045  0.9255  1.7015  3.0423
  666MOL0     H89867   4.231   2.359   6.165  2.7705 -0.1609 -1.1162
  666MOL0     H89868   4.122   2.584   6.180  0.4437  0.5472  0.2639
  666MOL0     H89869   4.004   2.468   6.127  2.1148 -2.4918  3.4924
  666MOL0     H89870   3.922   2.704   6.157  0.1184 -1.2079  0.1309
  666MOL0     H89871   3.643   2.935   6.136 -0.9341  0.0158 -1.7450
  666MOL0     H89872   3.589   2.778   6.170 -0.7569  3.2830  1.7588
  666MOL0     H89873   3.748   2.825   6.235  2.3640  2.0387 -1.5024
  666MOL0     H89874   3.438   2.665   5.679  0.0613 -0.8858 -1.3993
  666MOL0     H89875   3.228   2.656   5.525 -1.5686  0.7046 -1.7305
  666MOL0     H89876   2.966   3.001   5.521  1.6499 -1.6232  1.2436
  666MOL0     H89877   3.071   3.071   5.412 -0.8363  0.3781 -0.3362
  666MOL0     H89878   2.838   3.066   5.331  1.1186  1.4153 -0.8145
  666MOL0     H89879   2.935   2.968   5.225 -0.4618 -1.8459 -0.3424
  666MOL0     H89880   2.866   2.769   5.382  1.8691  1.9935  0.8617
  666MOL0     H89881   2.746   2.826   5.264  2.5267 -2.9101 -1.4592
  666MOL0     H89882   2.722   2.873   5.565 -0.5297  1.0091  0.8332
  666MOL0     H89883   2.636   2.974   5.452 -1.7528 -0.6421  0.3428
  666MOL0     H89884   2.645   2.655   5.477 -0.2801 -1.2107  1.5699
  666MOL0     H89885   2.526   2.753   5.375 -1.0904  1.8627  1.3988
  666MOL0     H89886   2.538   2.731   5.668  2.4399  0.3889 -0.8410
  666MOL0     H89887   2.430   2.838   5.571  2.5315  1.3673 -2.0948
  666MOL0     H89888   2.327   2.618   5.655 -1.7481  0.9162  0.1068
  666MOL0     H89889   2.453   2.541   5.560  2.3292  1.7442 -1.6268
  666MOL0     H89890   2.240   2.544   5.430  0.4293 -0.0009  1.4280
  666MOL0     H89891   2.346   2.665   5.352  1.2038  0.9099  0.9094
  666MOL0     H89892   3.260   3.094   5.507  1.8435  0.0981  1.7840
  666MOL0     H89893   3.468   3.090   5.612  1.7252 -0.1675 -0.0650
  666MOL0     H89894   3.782   2.761   5.689 -0.1917 -0.2637  0.4164
  666MOL0     H89895   3.999   2.671   5.735  0.0513  0.5338  0.1145
  666MOL0     H89896   4.747   1.558   7.159  0.3794  1.5407  0.1892
  666MOL0     H89897   4.968   1.492   7.266 -0.5118  0.8808  0.2264
  666MOL0     H89898   5.365   1.253   7.140  1.7257 -1.4621  0.0157
  666MOL0     H89899   5.581   1.172   7.188  2.3291  1.6993  1.0420
  666MOL0     H89900   5.763   1.076   7.251  0.1017 -1.6167 -0.3392
  666MOL0     H89901   5.793   1.233   7.314 -1.8507 -0.0054  0.7188
  666MOL0     H89902   5.910   1.086   7.528  0.9270  0.7582 -0.9216
  666MOL0     H89903   6.011   1.114   7.385  0.1825 -2.8872 -1.5742
  666MOL0     H89904   6.014   0.883   7.454  1.9057  0.0225 -1.4867
  666MOL0     H89905   5.980   0.918   7.288 -1.6150 -1.1828 -0.3050
  666MOL0     H89906   5.731   0.857   7.317 -0.0595 -0.0834  0.7686
  666MOL0     H89907   5.760   0.832   7.489  1.0557  0.8260  0.8984
  666MOL0     H89908   5.877   0.468   7.328 -1.3886 -1.4159  0.3457
  666MOL0     H89909   5.496   1.206   7.608 -1.0927  2.8755  0.5819
  666MOL0     H89910   5.283   1.287   7.559 -0.5767 -0.1958  0.5515
  667MOL0     O89911   8.720  10.745   6.353 -0.6802 -0.7255  0.5256
  667MOL0     C89912   8.819  10.702   6.306  0.0674  0.1035  0.8757
  667MOL0     O89913   8.949  10.717   6.359  0.0590  0.5316  0.3121
  667MOL0     C89914   8.971  10.816   6.453  0.4270  0.8526 -0.4108
  667MOL0     C89915   8.968  10.952   6.418 -0.4856 -0.1315 -0.0975
  667MOL0     C89916   8.993  11.047   6.514 -0.1251  0.6441 -0.4970
  667MOL0     C89917   8.994  11.009   6.642  0.0495 -0.2216  0.5764
  667MOL0     O89918   8.991  11.107   6.740  0.0057 -0.1243  0.2426
  667MOL0     C89919   9.110  11.184   6.755 -0.1390 -0.3162 -0.3064
  667MOL0     C89920   9.175  11.175   6.898  0.2118  0.5902  0.6041
  667MOL0     C89921   9.307  11.098   6.917 -0.3094  0.9290  0.3236
  667MOL0     C89922   9.316  11.056   7.065  1.0134  0.7910 -0.3138
  667MOL0     C89923   9.450  11.099   7.134 -0.1199  0.2199 -0.3195
  667MOL0     C89924   9.429  11.083   7.285  0.9695  0.5667  0.3441
  667MOL0     C89925   9.551  11.129   7.360 -0.8325 -0.8036 -0.0635
  667MOL0     C89926   9.504  11.142   7.508  0.3964 -0.0438  0.3860
  667MOL0     N89927   9.428  11.265   7.557 -0.6236 -0.8960  0.0643
  667MOL0     C89928   9.422  11.393   7.496 -0.6214  1.2807  0.5944
  667MOL0     C89929   9.351  11.464   7.583  0.4667 -0.5766 -0.2755
  667MOL0     C89930   9.325  11.607   7.576  0.4638 -0.0251 -0.0646
  667MOL0     C89931   9.365  11.682   7.706  0.4377  0.3904 -1.2220
  667MOL0     C89932   9.521  11.699   7.731  0.3583 -0.0131 -0.0523
  667MOL0     C89933   9.624  11.592   7.691 -0.6403 -1.0044 -0.3481
  667MOL0     O89934   9.668  11.591   7.560 -0.0901 -1.1235  0.7516
  667MOL0     C89935   9.743  11.486   7.505  0.4577  0.5724  0.1234
  667MOL0     C89936   9.807  11.375   7.575  0.7366 -0.4036 -0.0204
  667MOL0     C89937   9.874  11.270   7.507  1.1715 -0.7180 -0.5404
  667MOL0     C89938   9.929  11.160   7.595  0.0500 -0.1338  0.3456
  667MOL0     C89939   9.882  11.281   7.367 -0.7502 -0.2112 -0.4063
  667MOL0     C89940   9.952  11.181   7.290 -0.3772 -0.0372 -0.4275
  667MOL0     O89941   9.904  11.052   7.301  0.3721 -0.3277 -0.0597
  667MOL0     C89942   9.924  10.979   7.196 -1.5035  0.6127  0.6950
  667MOL0     C89943   9.846  10.990   7.082  0.0472 -0.7761  1.3056
  667MOL0     C89944   9.848  10.890   6.984 -0.5881 -0.0793  0.0584
  667MOL0     C89945   9.928  10.776   6.995 -0.0585 -0.6864  0.1032
  667MOL0     O89946   9.917  10.666   6.911 -0.5914 -0.2122  0.2413
  667MOL0     C89947   9.809  10.650   6.809  0.5696  0.1985  0.4386
  667MOL0     C89948   9.863  10.559   6.697  0.0376 -0.0924  0.2522
  667MOL0     C89949   9.961  10.636   6.602 -0.1820  0.5222 -0.2558
  667MOL0     C89950  10.022  10.542   6.496 -0.3367 -0.9834  0.4218
  667MOL0     C89951  10.126  10.616   6.409 -0.0535  0.7663 -0.8717
  667MOL0     C89952  10.049  10.738   6.350  0.2228  0.2830 -0.0047
  667MOL0     C89953  10.127  10.801   6.222 -0.4178 -0.1103 -0.0670
  667MOL0     C89954  10.041  10.907   6.144 -0.0268  0.6094  0.2712
  667MOL0    Cl89955   9.932  10.818   6.051 -0.0762  0.6144  0.6129
  667MOL0     C89956  10.024  10.772   7.102 -0.0684  0.0149 -0.3486
  667MOL0     C89957  10.015  10.869   7.203  0.0535  0.9892  0.9630
  667MOL0     O89958  10.041  11.218   7.215  0.0610 -0.7383  0.1658
  667MOL0     C89959   9.823  11.384   7.293 -0.0196  1.0436 -0.3126
  667MOL0     C89960   9.744  11.478   7.364  0.3807  0.0638 -0.6262
  667MOL0     N89961   9.311  11.387   7.687 -0.6595  0.4411 -0.4506
  667MOL0     N89962   9.344  11.268   7.658  0.0416 -0.1883  0.0189
  667MOL0     C89963   8.993  10.877   6.687  0.0387 -0.8764  0.2905
  667MOL0     C89964   8.987  10.773   6.588  0.0204  0.0355  0.0568
  667MOL0     C89965   8.821  10.638   6.173  0.2275 -0.6627  0.1062
  667MOL0     C89966   8.938  10.566   6.134  0.7052 -0.4098  0.2925
  667MOL0     C89967   8.948  10.489   6.016  1.0282 -0.3361 -1.0785
  667MOL0     C89968   8.830  10.488   5.935 -0.2281  0.0389  0.1813
  667MOL0     O89969   8.853  10.419   5.817 -0.1220 -0.4776  0.6642
  667MOL0     C89970   8.744  10.424   5.720 -0.7745  0.2738 -0.0985
  667MOL0     C89971   8.785  10.342   5.605 -0.3408 -0.8979  0.9656
  667MOL0     C89972   8.766  10.190   5.628  0.5160 -1.1064 -0.4707
  667MOL0     C89973   8.842  10.125   5.517  0.3209 -0.2822  0.0532
  667MOL0     C89974   8.833   9.977   5.522  0.8714 -0.5354 -0.8137
  667MOL0     C89975   8.812   9.857   5.513 -0.1004 -0.3714  0.0603
  667MOL0     C89976   8.715  10.571   5.961 -0.8154 -0.3726 -0.2900
  667MOL0     C89977   8.709  10.637   6.085 -0.2220 -1.2354  0.2885
  667MOL0     H89978   8.945  10.990   6.319 -0.6108 -0.5171 -0.2191
  667MOL0     H89979   8.999  11.153   6.491 -2.6172  1.2776  1.3033
  667MOL0     H89980   9.188  11.133   6.698 -0.4805 -1.4838  0.2462
  667MOL0     H89981   9.094  11.289   6.728 -3.3225 -0.0583  1.9781
  667MOL0     H89982   9.185  11.276   6.941  1.4403  1.2033 -1.0305
  667MOL0     H89983   9.102  11.112   6.950  0.0808 -1.3928 -1.8230
  667MOL0     H89984   9.302  11.000   6.870 -1.0400  0.1455  1.9663
  667MOL0     H89985   9.398  11.147   6.883  1.3034 -2.3147 -0.3785
  667MOL0     H89986   9.233  11.101   7.119 -0.4705  1.0050 -2.6179
  667MOL0     H89987   9.305  10.947   7.073  2.6356  0.7034  1.4714
  667MOL0     H89988   9.538  11.046   7.098 -0.3070 -0.3215  0.0019
  667MOL0     H89989   9.466  11.206   7.115  3.3445  0.3444  2.3477
  667MOL0     H89990   9.341  11.137   7.323 -1.0004 -2.1267 -0.1453
  667MOL0     H89991   9.428  10.977   7.309  0.5693  0.7780  1.3346
  667MOL0     H89992   9.640  11.066   7.359  0.3103  0.5502  3.2599
  667MOL0     H89993   9.586  11.227   7.326  0.1974 -1.3565 -0.6246
  667MOL0     H89994   9.599  11.140   7.563  0.5898  0.5618  0.0879
  667MOL0     H89995   9.440  11.057   7.532 -0.8091  1.1288  1.4909
  667MOL0     H89996   9.455  11.422   7.396 -0.5598 -0.7316 -0.0119
  667MOL0     H89997   9.365  11.648   7.483 -0.2103  2.0358  0.4956
  667MOL0     H89998   9.217  11.616   7.565  0.4373 -0.4198 -0.1442
  667MOL0     H89999   9.328  11.634   7.797 -1.3552  1.1195 -1.5206
  667MOL0     H90000   9.313  11.778   7.699  0.1489  0.2288 -1.2771
  667MOL0     H90001   9.520  11.704   7.841 -1.7565  0.9793 -0.0540
  667MOL0     H90002   9.551  11.797   7.692 -0.6594  0.4078  0.1851
  667MOL0     H90003   9.582  11.492   7.701  0.7317 -2.1050 -3.9382
  667MOL0     H90004   9.712  11.604   7.754  2.3093 -2.9234 -3.7389
  667MOL0     H90005   9.814  11.360   7.683  1.6175  1.7731  0.2908
  667MOL0     H90006   9.845  11.122   7.654 -0.4086  2.4675  1.5108
  667MOL0     H90007   9.972  11.081   7.533  0.0679 -0.7279  1.1041
  667MOL0     H90008  10.004  11.190   7.669 -0.1654 -0.5670  0.7443
  667MOL0     H90009   9.784  11.079   7.074  1.9928  0.5432 -0.1219
  667MOL0     H90010   9.775  10.900   6.905  1.1806  1.4497 -1.4812
  667MOL0     H90011   9.719  10.610   6.855  0.3558  0.1437 -0.0211
  667MOL0     H90012   9.791  10.752   6.774  3.6383  0.7046 -0.0146
  667MOL0     H90013   9.910  10.473   6.745  0.9937  1.3697  2.0811
  667MOL0     H90014   9.774  10.521   6.647 -0.0205 -0.6369  0.7578
  667MOL0     H90015  10.041  10.669   6.669 -0.9161 -1.1278  1.5369
  667MOL0     H90016   9.917  10.730   6.567  0.7135  1.7880  1.8045
  667MOL0     H90017  10.067  10.452   6.538 -0.0608 -0.7789  0.5683
  667MOL0     H90018   9.942  10.511   6.429 -0.8368  0.9451  0.0470
  667MOL0     H90019  10.174  10.554   6.333  0.4915 -0.1801  0.2145
  667MOL0     H90020  10.199  10.647   6.485 -0.6178 -0.7466  0.3267
  667MOL0     H90021   9.952  10.710   6.308 -0.7106  2.2398  0.7345
  667MOL0     H90022  10.028  10.817   6.422 -0.6739 -1.0004  1.1944
  667MOL0     H90023  10.157  10.720   6.154  1.6252 -0.1071  0.7565
  667MOL0     H90024  10.214  10.851   6.265  0.3572 -2.7621  1.7117
  667MOL0     H90025  10.103  10.973   6.083  0.9513 -0.1517  0.4171
  667MOL0     H90026   9.991  10.967   6.220 -1.9098  0.5690 -0.8793
  667MOL0     H90027  10.093  10.689   7.096 -1.4345 -1.0452 -4.4811
  667MOL0     H90028  10.068  10.848   7.296 -2.4830 -0.6478  2.1534
  667MOL0     H90029   9.839  11.391   7.186 -3.1867  1.8712 -0.8281
  667MOL0     H90030   9.701  11.563   7.312  2.4382  0.3950 -1.9064
  667MOL0     H90031   9.000  10.845   6.790 -0.6084 -3.2474 -0.3560
  667MOL0     H90032   8.983  10.668   6.613  4.4646  0.1788  2.3276
  667MOL0     H90033   9.032  10.550   6.185  2.2283 -0.7161 -2.4694
  667MOL0     H90034   9.037  10.427   6.005  2.0537  0.6599  0.9650
  667MOL0     H90035   8.656  10.376   5.764  0.0615  0.0889  1.4469
  667MOL0     H90036   8.728  10.531   5.708 -0.3504  0.9236  3.8291
  667MOL0     H90037   8.886  10.368   5.571 -0.9098  3.3423  1.9996
  667MOL0     H90038   8.724  10.371   5.519 -2.9363 -2.5514  2.1311
  667MOL0     H90039   8.664  10.158   5.607 -0.6195  2.3791 -0.8618
  667MOL0     H90040   8.782  10.152   5.729 -2.4864  2.2131  1.4728
  667MOL0     H90041   8.947  10.155   5.526  0.3729 -0.8075  1.4223
  667MOL0     H90042   8.798  10.155   5.422 -2.6086 -0.9978  1.0705
  667MOL0     H90043   8.773   9.758   5.500 -2.0616  0.5657 -1.8128
  667MOL0     H90044   8.627  10.569   5.898 -1.1334 -0.3602  0.1506
  667MOL0     H90045   8.623  10.695   6.118  0.6473  1.9045 -2.3676
  668MOL0     O90046   0.325   9.980   2.647  0.0634  0.1834 -0.2756
  668MOL0     C90047   0.276  10.054   2.560  0.4211  0.2463 -1.6021
  668MOL0     O90048   0.338  10.089   2.445 -0.7091  0.3095  0.5588
  668MOL0     C90049   0.474  10.041   2.431  0.8631  0.4075 -0.5532
  668MOL0     C90050   0.505   9.937   2.344  0.8045 -0.6192 -0.5789
  668MOL0     C90051   0.645   9.896   2.334  0.6047 -0.3133 -0.5666
  668MOL0     C90052   0.746   9.982   2.392  0.0735 -0.0100  0.5072
  668MOL0     O90053   0.884   9.952   2.377 -0.3387  0.0507 -0.0642
  668MOL0     C90054   0.918   9.809   2.346 -0.3766 -0.1969  0.1079
  668MOL0     C90055   0.881   9.710   2.460 -1.0556  0.4015 -0.5035
  668MOL0     C90056   0.891   9.574   2.387 -0.1914  0.1327  0.6075
  668MOL0     C90057   0.888   9.447   2.474 -0.0118 -0.9505  0.2799
  668MOL0     C90058   0.740   9.410   2.484 -0.0676 -0.3074  1.0982
  668MOL0     C90059   0.701   9.283   2.409  0.3101  0.0227  0.0394
  668MOL0     C90060   0.591   9.188   2.466 -0.6376 -0.4909 -0.1990
  668MOL0     C90061   0.635   9.113   2.590  0.2056 -0.3483  0.5449
  668MOL0     N90062   0.760   9.038   2.585  0.2240  0.3641 -0.0357
  668MOL0     C90063   0.784   8.906   2.559 -0.2737 -0.0812 -0.5680
  668MOL0     C90064   0.912   8.881   2.601  0.1065 -0.2787  0.2551
  668MOL0     C90065   0.996   8.765   2.584  0.2865  0.6355 -1.4527
  668MOL0     C90066   1.073   8.754   2.450  0.4573 -0.4487  0.6814
  668MOL0     C90067   1.136   8.609   2.432  0.2746  0.3852  0.5199
  668MOL0     C90068   1.211   8.587   2.300  0.0569 -0.6664 -0.3271
  668MOL0     O90069   1.307   8.486   2.321 -0.1441  0.1921 -0.8781
  668MOL0     C90070   1.431   8.503   2.382  0.4082 -0.3579 -0.5938
  668MOL0     C90071   1.472   8.620   2.442 -0.5295 -0.2602  0.3911
  668MOL0     C90072   1.596   8.629   2.500 -0.3666  0.5158  1.1566
  668MOL0     C90073   1.621   8.758   2.572 -0.3503 -0.3810  0.2759
  668MOL0     C90074   1.688   8.516   2.505  0.3089 -0.6628 -0.0953
  668MOL0     C90075   1.816   8.508   2.572 -0.2931  0.2734  0.5061
  668MOL0     O90076   1.899   8.416   2.519  0.0988 -1.2208  0.3222
  668MOL0     C90077   2.018   8.380   2.589  0.0391 -0.7190  0.0509
  668MOL0     C90078   2.121   8.465   2.629  0.0909  0.3596  1.0240
  668MOL0     C90079   2.234   8.416   2.683 -0.2848  1.0917 -0.3419
  668MOL0     C90080   2.256   8.278   2.687  0.7385  0.5686  1.1932
  668MOL0     O90081   2.376   8.232   2.719 -0.1370 -0.6834 -0.1724
  668MOL0     C90082   2.399   8.246   2.863 -0.3720 -0.3816  0.9335
  668MOL0     C90083   2.535   8.307   2.873 -0.1023  0.1727 -0.7657
  668MOL0     C90084   2.655   8.204   2.855  0.4893 -0.1770 -0.1714
  668MOL0     C90085   2.673   8.119   2.991 -0.7966 -0.1799  0.0524
  668MOL0     C90086   2.786   8.016   2.995 -0.3291 -0.1871 -0.2263
  668MOL0     C90087   2.783   7.922   3.115 -0.8715  0.8709  0.2114
  668MOL0     C90088   2.870   7.800   3.081  0.7340 -0.3583  0.2735
  668MOL0     C90089   2.879   7.695   3.190  0.1414  0.0235  1.0351
  668MOL0    Cl90090   2.733   7.587   3.184 -0.5729  0.5422  0.0007
  668MOL0     C90091   2.157   8.191   2.653  0.6462  0.4159  0.8929
  668MOL0     C90092   2.034   8.250   2.599  0.6112  0.4883 -0.1403
  668MOL0     O90093   1.838   8.566   2.675  1.1121 -0.3516 -0.3564
  668MOL0     C90094   1.639   8.400   2.447  0.1035 -0.3023  0.0477
  668MOL0     C90095   1.514   8.394   2.384 -0.0710 -0.3160 -1.0862
  668MOL0     N90096   0.957   9.010   2.656  0.0618 -0.0611  0.1088
  668MOL0     N90097   0.870   9.103   2.633  0.8119  0.8825  0.2229
  668MOL0     C90098   0.706  10.099   2.460  0.4405  0.3237  0.9723
  668MOL0     C90099   0.573  10.126   2.486  0.0682 -0.2317 -0.1408
  668MOL0     C90100   0.128  10.107   2.587 -0.1650  0.7442 -0.0324
  668MOL0     C90101   0.064  10.073   2.717 -0.3067 -0.4820  0.4477
  668MOL0     C90102  -0.066  10.110   2.739  0.8955 -0.1870 -0.1139
  668MOL0     C90103  -0.138  10.179   2.649 -0.6954  0.1600  0.9970
  668MOL0     O90104  -0.272  10.199   2.666 -0.0648  0.2174  0.1827
  668MOL0     C90105  -0.338  10.301   2.581  0.2079 -0.4586 -0.3225
  668MOL0     C90106  -0.462  10.348   2.653  0.8677 -0.0450  0.2009
  668MOL0     C90107  -0.527  10.458   2.563  0.2064 -0.1009  0.2808
  668MOL0     C90108  -0.668  10.496   2.601 -0.4268  0.5065  0.1200
  668MOL0     C90109  -0.749  10.374   2.598 -0.1361  0.3302 -1.5592
  668MOL0     C90110  -0.824  10.274   2.606 -0.2473 -0.8997  1.2464
  668MOL0     C90111  -0.075  10.213   2.524  1.3624  0.6066 -0.3278
  668MOL0     C90112   0.055  10.179   2.496  0.0211  0.4975 -0.3435
  668MOL0     H90113   0.416   9.889   2.306 -1.1352  1.8629  0.5669
  668MOL0     H90114   0.660   9.803   2.280 -2.7892 -1.0244 -0.5545
  668MOL0     H90115   0.867   9.774   2.256 -0.0034 -1.6476  0.4313
  668MOL0     H90116   1.024   9.796   2.325 -0.3227  0.0102  0.2416
  668MOL0     H90117   0.939   9.716   2.553 -0.6095 -1.5519 -0.6247
  668MOL0     H90118   0.781   9.720   2.502  0.0021  3.2660  1.6801
  668MOL0     H90119   0.816   9.571   2.308  1.1136 -2.5117 -0.6564
  668MOL0     H90120   0.979   9.571   2.322 -1.1871 -0.2022 -0.7744
  668MOL0     H90121   0.944   9.361   2.436 -0.0174  0.1288 -2.3793
  668MOL0     H90122   0.920   9.472   2.576 -0.5098  1.5111 -0.1068
  668MOL0     H90123   0.711   9.386   2.586  1.9264 -4.3444  0.9102
  668MOL0     H90124   0.682   9.490   2.437  2.0542 -1.5187 -4.3086
  668MOL0     H90125   0.686   9.325   2.309  1.9670 -2.7250 -1.5128
  668MOL0     H90126   0.787   9.217   2.391 -1.3224 -1.6517 -2.1870
  668MOL0     H90127   0.497   9.244   2.477 -0.7160 -0.2155 -2.0501
  668MOL0     H90128   0.574   9.109   2.393 -1.5470 -1.4292  0.9877
  668MOL0     H90129   0.553   9.043   2.610  1.0125 -0.9803  1.7471
  668MOL0     H90130   0.631   9.178   2.679  0.2271 -0.8139  0.8871
  668MOL0     H90131   0.710   8.845   2.508 -1.8688  1.4114 -0.1312
  668MOL0     H90132   1.071   8.761   2.663 -1.5497  1.1615  0.4036
  668MOL0     H90133   0.930   8.680   2.602 -1.4996  1.9771 -1.4153
  668MOL0     H90134   1.151   8.830   2.442  1.1203 -1.2290 -0.6460
  668MOL0     H90135   1.007   8.767   2.363  2.6074 -1.4018 -1.2200
  668MOL0     H90136   1.064   8.527   2.436  2.9495 -2.1908  0.1410
  668MOL0     H90137   1.206   8.587   2.514  2.0645  1.1973 -0.7234
  668MOL0     H90138   1.265   8.681   2.281  1.1964 -1.1297  0.5235
  668MOL0     H90139   1.150   8.562   2.213  3.5100  0.9638 -3.4666
  668MOL0     H90140   1.409   8.708   2.439  1.7299  1.4383 -0.8569
  668MOL0     H90141   1.721   8.784   2.537  0.0304 -2.8025 -0.6088
  668MOL0     H90142   1.544   8.831   2.543  1.5309  0.7767 -2.1265
  668MOL0     H90143   1.619   8.745   2.681 -1.4609 -0.3437  0.2737
  668MOL0     H90144   2.104   8.572   2.622  1.9167  0.7365  1.8354
  668MOL0     H90145   2.305   8.495   2.704  1.4270 -0.9359  2.2768
  668MOL0     H90146   2.326   8.296   2.927 -2.6056 -3.5626  1.1206
  668MOL0     H90147   2.400   8.147   2.909  2.4243  0.6245  3.3719
  668MOL0     H90148   2.550   8.391   2.804 -2.4173  1.4174  0.1179
  668MOL0     H90149   2.547   8.339   2.977  0.0912 -0.4626 -0.5939
  668MOL0     H90150   2.753   8.249   2.832  0.4273  1.3120  2.1706
  668MOL0     H90151   2.625   8.147   2.767 -2.1879 -1.0681  1.2244
  668MOL0     H90152   2.681   8.192   3.072 -4.9742  1.1309 -0.4667
  668MOL0     H90153   2.584   8.060   3.014 -0.0171 -1.4687 -0.1365
  668MOL0     H90154   2.885   8.063   2.987  0.8899 -2.4463  0.7926
  668MOL0     H90155   2.790   7.955   2.905  1.3536  1.4962 -1.3781
  668MOL0     H90156   2.833   7.984   3.190  1.1927  1.4732 -1.5690
  668MOL0     H90157   2.685   7.884   3.145  0.0039 -2.6815 -1.0188
  668MOL0     H90158   2.969   7.837   3.052  1.3101 -0.9789  1.3865
  668MOL0     H90159   2.835   7.750   2.990 -0.5204 -1.2008  1.1939
  668MOL0     H90160   2.872   7.745   3.287 -1.6699 -0.3949  1.1474
  668MOL0     H90161   2.972   7.637   3.193 -0.9516 -2.0011 -0.9575
  668MOL0     H90162   2.153   8.083   2.650 -0.0474  0.4568 -0.4066
  668MOL0     H90163   1.961   8.182   2.557  1.4991  0.1723 -1.2143
  668MOL0     H90164   1.695   8.307   2.442 -0.4079 -0.5768 -1.0354
  668MOL0     H90165   1.470   8.296   2.369  0.1984 -0.6993  0.4627
  668MOL0     H90166   0.779  10.176   2.486  0.2227  1.0972 -0.5545
  668MOL0     H90167   0.540  10.208   2.550  1.5191  0.4140 -0.1713
  668MOL0     H90168   0.129  10.016   2.783  0.2280 -1.8410 -1.1683
  668MOL0     H90169  -0.121  10.068   2.822  1.6673 -0.7715  0.1099
  668MOL0     H90170  -0.271  10.382   2.553 -0.8996  1.5623  2.3759
  668MOL0     H90171  -0.365  10.251   2.488 -2.2819  0.9222 -0.4166
  668MOL0     H90172  -0.435  10.393   2.748 -0.3653 -3.6167  2.4622
  668MOL0     H90173  -0.531  10.266   2.677  0.6438 -0.0161 -0.3328
  668MOL0     H90174  -0.519  10.406   2.467  1.7176 -1.4290  1.0758
  668MOL0     H90175  -0.463  10.542   2.535 -0.9947  0.5523 -0.5888
  668MOL0     H90176  -0.717  10.553   2.522 -2.2156  0.4690  1.1323
  668MOL0     H90177  -0.674  10.564   2.687 -1.5448  1.8042 -0.9325
  668MOL0     H90178  -0.897  10.197   2.593 -0.6719 -0.0742 -2.7525
  668MOL0     H90179  -0.145  10.254   2.452 -2.6245 -0.2520  2.6196
  668MOL0     H90180   0.093  10.206   2.398  0.1828  0.7295 -0.2189
  669MOL0     O90181   1.720   4.474   7.073  0.5858 -0.1132  0.2632
  669MOL0     C90182   1.700   4.591   7.093  0.4200  0.2437  0.5820
  669MOL0     O90183   1.726   4.698   7.008  0.1383 -0.4366 -0.2303
  669MOL0     C90184   1.810   4.677   6.909 -0.0547 -0.5215 -0.3126
  669MOL0     C90185   1.948   4.666   6.933 -0.2883  0.3267 -0.0442
  669MOL0     C90186   2.038   4.634   6.837 -0.3806  0.8449  0.3579
  669MOL0     C90187   1.998   4.615   6.698 -1.2772  0.5392 -0.1930
  669MOL0     O90188   2.080   4.573   6.596 -1.0099 -0.7971 -0.4153
  669MOL0     C90189   2.179   4.482   6.630 -0.0168 -0.0096 -0.4524
  669MOL0     C90190   2.210   4.381   6.517 -0.4099 -0.0299 -0.5627
  669MOL0     C90191   2.086   4.299   6.500 -0.5830  0.4081 -0.6354
  669MOL0     C90192   2.107   4.193   6.392 -0.8750  0.3878  0.0158
  669MOL0     C90193   1.989   4.117   6.341 -0.1901  0.4784  0.8023
  669MOL0     C90194   1.909   4.039   6.447  0.8180 -0.1579 -0.2411
  669MOL0     C90195   1.825   3.921   6.396  0.3840  0.2035 -0.4808
  669MOL0     C90196   1.900   3.804   6.347 -0.2493 -0.0558 -0.0100
  669MOL0     N90197   1.803   3.694   6.339  0.1701 -0.2758  0.6552
  669MOL0     C90198   1.697   3.686   6.254 -0.3703  0.5958  0.4165
  669MOL0     C90199   1.635   3.574   6.287 -0.2559  0.8361  0.1121
  669MOL0     C90200   1.517   3.500   6.213 -0.2261 -0.8800 -0.2862
  669MOL0     C90201   1.390   3.586   6.238 -0.5793  0.6195 -0.4894
  669MOL0     C90202   1.266   3.505   6.202  0.2490  0.9304 -0.2243
  669MOL0     C90203   1.137   3.571   6.238 -0.6478 -0.1402  0.3925
  669MOL0     O90204   1.111   3.685   6.144 -0.6930  0.4827  0.2885
  669MOL0     C90205   0.995   3.754   6.169  0.3997 -0.0799 -0.4500
  669MOL0     C90206   0.988   3.881   6.117  0.3154 -0.0792  0.3451
  669MOL0     C90207   0.873   3.966   6.140 -0.7217  0.7091 -0.0212
  669MOL0     C90208   0.873   4.101   6.068 -0.6137 -0.1919  0.7139
  669MOL0     C90209   0.758   3.912   6.205 -0.2674  0.6425 -0.1233
  669MOL0     C90210   0.623   3.968   6.215  0.8795 -0.2011 -0.3443
  669MOL0     O90211   0.515   3.905   6.275 -0.0178  0.7196 -0.2652
  669MOL0     C90212   0.386   3.939   6.253  0.3555  0.7658 -0.1693
  669MOL0     C90213   0.325   3.886   6.137  0.9475 -0.8956 -0.0429
  669MOL0     C90214   0.191   3.918   6.116 -0.6420 -0.2490  0.2392
  669MOL0     C90215   0.125   4.007   6.200  1.0210  0.0139 -0.2823
  669MOL0     O90216  -0.012   4.045   6.173  0.2652  0.4555 -0.3554
  669MOL0     C90217  -0.075   4.015   6.041  0.0235 -0.6950 -0.2664
  669MOL0     C90218  -0.024   4.112   5.931 -0.9628  0.1272 -0.0812
  669MOL0     C90219  -0.021   4.264   5.969 -0.6993 -0.0080  0.8225
  669MOL0     C90220  -0.164   4.329   5.958 -0.4068  0.4477  0.3551
  669MOL0     C90221  -0.173   4.460   6.038 -0.9829  0.2891 -0.0471
  669MOL0     C90222  -0.314   4.524   6.051 -0.4979 -0.0629  1.1678
  669MOL0     C90223  -0.320   4.623   6.160  0.8401 -0.3025 -1.0094
  669MOL0     C90224  -0.438   4.718   6.128  0.0482 -0.0370  0.0420
  669MOL0    Cl90225  -0.461   4.829   6.259 -0.0899 -0.0694  0.0540
  669MOL0     C90226   0.183   4.056   6.317 -1.2294  0.3461  0.3147
  669MOL0     C90227   0.317   4.015   6.340  0.2097 -0.0798  0.1299
  669MOL0     O90228   0.615   4.080   6.169 -0.0083 -0.1533  0.6118
  669MOL0     C90229   0.776   3.790   6.267  0.5643 -0.0616  0.4322
  669MOL0     C90230   0.891   3.708   6.250  0.1914 -0.0881 -0.2080
  669MOL0     N90231   1.694   3.515   6.401  0.7872 -0.0436 -0.0431
  669MOL0     N90232   1.794   3.593   6.425  0.6776 -0.1398  0.0441
  669MOL0     C90233   1.864   4.634   6.668  1.5482  0.1718  1.2856
  669MOL0     C90234   1.777   4.674   6.769 -0.1797 -0.1453 -0.1468
  669MOL0     C90235   1.663   4.621   7.228 -0.0512 -0.5199  0.1806
  669MOL0     C90236   1.718   4.735   7.296  0.1136  0.4990 -0.4946
  669MOL0     C90237   1.684   4.757   7.429 -0.0201 -0.3239 -0.0508
  669MOL0     C90238   1.594   4.683   7.502  0.4012  0.6299 -0.6929
  669MOL0     O90239   1.575   4.719   7.635 -0.0106 -0.0921  0.1451
  669MOL0     C90240   1.471   4.656   7.716  0.0049  0.5389 -0.6871
  669MOL0     C90241   1.328   4.703   7.698  0.5244  0.5719  1.0493
  669MOL0     C90242   1.232   4.605   7.771 -0.0448 -0.6611  0.1296
  669MOL0     C90243   1.238   4.605   7.923 -0.3891 -0.3297 -0.5322
  669MOL0     C90244   1.133   4.506   7.952 -0.2283 -0.7279  0.4412
  669MOL0     C90245   1.072   4.408   7.968 -0.5018  0.1023 -0.3183
  669MOL0     C90246   1.548   4.560   7.440 -0.3069  1.2257 -0.2431
  669MOL0     C90247   1.582   4.529   7.304 -0.5165 -0.0695 -0.0478
  669MOL0     H90248   1.987   4.671   7.034 -1.0907  1.2780  0.2335
  669MOL0     H90249   2.140   4.619   6.870 -0.1878  0.7531 -0.2531
  669MOL0     H90250   2.269   4.541   6.650 -1.7408  3.2378 -1.5849
  669MOL0     H90251   2.148   4.429   6.720 -0.1493  1.3750  0.3365
  669MOL0     H90252   2.221   4.433   6.421 -1.0431  0.1727 -0.5259
  669MOL0     H90253   2.294   4.316   6.546  1.0365  1.4464 -1.2763
  669MOL0     H90254   2.066   4.253   6.598  0.4666 -0.7823 -0.9553
  669MOL0     H90255   1.997   4.360   6.481 -1.6953 -0.5860  1.1045
  669MOL0     H90256   2.161   4.227   6.304 -1.2994 -3.8694 -2.1717
  669MOL0     H90257   2.175   4.120   6.437 -2.3516 -1.5428 -0.7003
  669MOL0     H90258   1.931   4.182   6.275  0.4280 -1.9484 -2.4619
  669MOL0     H90259   2.029   4.041   6.272  2.2099  1.8176  0.6225
  669MOL0     H90260   1.978   4.009   6.526 -0.2799  1.9066  1.5928
  669MOL0     H90261   1.845   4.113   6.494  0.6188 -0.0640 -0.6502
  669MOL0     H90262   1.769   3.893   6.486  0.2009  2.7568  0.2819
  669MOL0     H90263   1.750   3.958   6.326 -2.4037 -0.2564  2.0956
  669MOL0     H90264   1.974   3.771   6.420 -0.6241 -0.1945  0.3115
  669MOL0     H90265   1.953   3.823   6.254  2.7463 -2.3629  1.0577
  669MOL0     H90266   1.681   3.746   6.165  1.1286  1.2570  0.5664
  669MOL0     H90267   1.523   3.483   6.105 -0.6450  0.7613 -0.5871
  669MOL0     H90268   1.507   3.400   6.256 -0.9160 -1.0221 -0.7574
  669MOL0     H90269   1.396   3.671   6.170  2.4753 -0.8684 -2.2900
  669MOL0     H90270   1.382   3.619   6.342 -1.4689 -0.2122 -0.2766
  669MOL0     H90271   1.271   3.415   6.265 -0.5592  2.8694  2.7937
  669MOL0     H90272   1.256   3.473   6.098 -0.7162 -1.7244  0.5847
  669MOL0     H90273   1.141   3.607   6.342  0.6791 -2.4018  1.2050
  669MOL0     H90274   1.058   3.496   6.239 -0.2967 -0.7604  5.1646
  669MOL0     H90275   1.064   3.918   6.049 -2.5789  2.0994 -1.9443
  669MOL0     H90276   0.964   4.120   6.010 -0.7324 -1.7566 -0.0450
  669MOL0     H90277   0.789   4.110   5.999 -0.6628  0.9114  0.8917
  669MOL0     H90278   0.857   4.189   6.131  0.6773  0.1371  0.6068
  669MOL0     H90279   0.377   3.824   6.065  2.7533  1.3751 -0.8045
  669MOL0     H90280   0.149   3.857   6.037  0.1235  0.3045 -0.6039
  669MOL0     H90281  -0.068   3.909   6.013 -1.7931 -0.4779 -1.7327
  669MOL0     H90282  -0.176   4.047   6.066  0.3838  0.6848 -0.4585
  669MOL0     H90283   0.080   4.084   5.916 -1.0176  1.0017 -2.5145
  669MOL0     H90284  -0.095   4.098   5.848 -0.4015  1.2767 -0.7758
  669MOL0     H90285   0.049   4.314   5.901 -1.0666  0.0318  0.4744
  669MOL0     H90286   0.013   4.263   6.073 -1.5626 -3.8680  1.2407
  669MOL0     H90287  -0.192   4.349   5.854 -3.1651 -2.0868  0.4609
  669MOL0     H90288  -0.233   4.254   5.998  0.7122 -0.8045  0.0346
  669MOL0     H90289  -0.123   4.540   5.983  1.1544 -1.1083 -0.2370
  669MOL0     H90290  -0.132   4.453   6.139 -0.2088  0.2499 -0.3574
  669MOL0     H90291  -0.338   4.571   5.955  0.0018 -2.6536 -0.3256
  669MOL0     H90292  -0.387   4.443   6.067  0.3825 -0.7319  1.9067
  669MOL0     H90293  -0.232   4.687   6.166 -1.2836  2.8179 -0.4034
  669MOL0     H90294  -0.347   4.577   6.256  1.4818 -0.6878 -1.0117
  669MOL0     H90295  -0.534   4.667   6.124 -1.6956  2.9235  1.1806
  669MOL0     H90296  -0.418   4.763   6.030 -1.8789 -0.6425 -0.6803
  669MOL0     H90297   0.139   4.110   6.401 -2.0003  0.8568 -0.3948
  669MOL0     H90298   0.362   4.031   6.438 -0.4442 -2.9334  0.9826
  669MOL0     H90299   0.689   3.746   6.315  0.5369 -0.5789 -0.0760
  669MOL0     H90300   0.885   3.611   6.298  0.2702 -0.4087 -0.8418
  669MOL0     H90301   1.835   4.630   6.564  0.8227 -0.1850  1.4996
  669MOL0     H90302   1.672   4.697   6.754  0.1591  1.6745  0.0996
  669MOL0     H90303   1.799   4.789   7.250  1.7227 -1.4389 -0.0660
  669MOL0     H90304   1.731   4.840   7.480 -0.4121 -0.4782  0.5722
  669MOL0     H90305   1.495   4.550   7.704  1.9825  0.7958  0.5590
  669MOL0     H90306   1.492   4.674   7.822 -1.1994 -0.9839 -0.1364
  669MOL0     H90307   1.309   4.704   7.591  0.3108 -1.3517  1.0247
  669MOL0     H90308   1.323   4.806   7.733  0.5571  1.3738 -1.1845
  669MOL0     H90309   1.241   4.510   7.717  2.3752 -1.0568  1.1117
  669MOL0     H90310   1.132   4.640   7.741  0.2074  0.4705  0.5560
  669MOL0     H90311   1.214   4.700   7.972 -0.4736 -1.0543  0.9022
  669MOL0     H90312   1.339   4.572   7.947 -0.7983 -0.5279  1.0209
  669MOL0     H90313   1.031   4.319   8.010  2.6793 -1.2000  0.3601
  669MOL0     H90314   1.490   4.487   7.494  1.3936 -0.7369 -0.9560
  669MOL0     H90315   1.555   4.428   7.273 -0.0432 -1.4773  3.6562
  670MOL0     O90316   0.610   5.342   6.870  0.0292 -0.4028  0.5449
  670MOL0     C90317   0.703   5.295   6.804  0.9286 -0.0782 -0.0846
  670MOL0     O90318   0.798   5.212   6.852 -0.6517 -0.4763 -0.1295
  670MOL0     C90319   0.776   5.156   6.974  0.0818 -0.4045  0.7199
  670MOL0     C90320   0.891   5.123   7.052 -0.5611 -1.1235 -0.6566
  670MOL0     C90321   0.889   5.036   7.161  0.0608 -0.8831  0.3826
  670MOL0     C90322   0.764   4.987   7.211  0.1910  0.5437  0.3594
  670MOL0     O90323   0.763   4.918   7.331 -0.4733 -0.0552  0.3982
  670MOL0     C90324   0.846   4.966   7.441  0.3970  0.6032  0.5396
  670MOL0     C90325   0.940   4.859   7.489  1.0680 -0.6275 -0.3720
  670MOL0     C90326   1.005   4.904   7.610  0.5411  0.6552 -1.2251
  670MOL0     C90327   1.131   4.988   7.584  0.4932 -0.1438 -0.0990
  670MOL0     C90328   1.097   5.131   7.580 -0.1446 -0.0385 -1.1253
  670MOL0     C90329   1.222   5.218   7.600  0.4154 -0.3370 -0.3524
  670MOL0     C90330   1.180   5.363   7.603 -0.3511 -0.3570 -0.2199
  670MOL0     C90331   1.102   5.414   7.727  0.0378 -0.9665 -0.2023
  670MOL0     N90332   1.193   5.422   7.846  0.1860 -0.9882  0.4775
  670MOL0     C90333   1.210   5.326   7.941  0.4694  0.5051 -0.5691
  670MOL0     C90334   1.318   5.362   8.014 -0.2867  0.6209 -0.4064
  670MOL0     C90335   1.363   5.289   8.138 -1.2863 -1.2989  0.8459
  670MOL0     C90336   1.252   5.279   8.246 -0.9099  0.4653 -0.0950
  670MOL0     C90337   1.184   5.408   8.290  0.3584  0.4707 -0.0610
  670MOL0     C90338   1.092   5.398   8.412 -0.6818 -0.3008  1.2180
  670MOL0     O90339   1.168   5.359   8.527 -0.0335  0.0696 -0.4824
  670MOL0     C90340   1.101   5.333   8.638  0.8350 -0.3530  0.0424
  670MOL0     C90341   1.158   5.276   8.747  0.5281  0.0020 -0.1519
  670MOL0     C90342   1.084   5.238   8.856 -0.4661 -0.0949  0.4573
  670MOL0     C90343   1.147   5.136   8.947 -0.4365  0.7383  0.3816
  670MOL0     C90344   0.951   5.284   8.874  0.7481  0.4914 -0.5246
  670MOL0     C90345   0.853   5.266   8.990  0.4173 -0.1460 -0.1905
  670MOL0     O90346   0.904   5.218   9.105 -0.6008  0.9630 -0.0906
  670MOL0     C90347   0.840   5.227   9.231 -1.0690 -0.9959  0.5904
  670MOL0     C90348   0.859   5.122   9.330 -0.4006 -0.8832  1.1811
  670MOL0     C90349   0.812   5.133   9.455 -0.3896  0.4257 -0.4763
  670MOL0     C90350   0.754   5.251   9.500 -0.2740  0.5520 -0.9436
  670MOL0     O90351   0.720   5.272   9.632  0.1935 -0.0664  0.0338
  670MOL0     C90352   0.800   5.219   9.738  0.0973  0.7376  0.1613
  670MOL0     C90353   0.775   5.274   9.876 -0.8703 -0.7827  0.4478
  670MOL0     C90354   0.860   5.396   9.903  0.9843  0.5203  0.7680
  670MOL0     C90355   0.832   5.521   9.813 -0.3177 -0.0184 -0.8111
  670MOL0     C90356   0.893   5.652   9.873  0.6525 -0.1519 -1.1272
  670MOL0     C90357   1.022   5.694   9.807  0.8027 -0.5355 -0.0548
  670MOL0     C90358   1.105   5.796   9.901  0.4703  0.4641  0.0478
  670MOL0     C90359   1.067   5.941   9.893  0.5386  0.1076  0.0280
  670MOL0    Cl90360   1.206   6.044   9.964 -0.1420 -0.1700  0.2694
  670MOL0     C90361   0.721   5.349   9.412  0.4715  0.1247  0.0339
  670MOL0     C90362   0.773   5.340   9.282 -0.0624 -0.2864  0.9786
  670MOL0     O90363   0.735   5.296   8.971 -0.8205 -0.1583 -0.0110
  670MOL0     C90364   0.902   5.359   8.769  1.0745  0.6886 -0.4478
  670MOL0     C90365   0.967   5.372   8.650  0.2538 -0.1081 -0.3923
  670MOL0     N90366   1.359   5.481   7.967  0.5196  0.6665  0.0665
  670MOL0     N90367   1.285   5.523   7.867 -0.7053 -0.1816  0.3733
  670MOL0     C90368   0.643   5.030   7.148 -0.0451  0.2282  1.3624
  670MOL0     C90369   0.654   5.101   7.021  0.1237 -0.1964 -0.4972
  670MOL0     C90370   0.715   5.330   6.656  0.6784  0.4739  0.0482
  670MOL0     C90371   0.612   5.404   6.586  0.2454  0.1883 -1.4442
  670MOL0     C90372   0.630   5.426   6.454 -0.1383 -0.3159  0.1745
  670MOL0     C90373   0.744   5.377   6.377 -0.1748 -0.1070  0.4879
  670MOL0     O90374   0.761   5.377   6.241 -0.3621  0.6347 -0.0543
  670MOL0     C90375   0.764   5.508   6.193 -0.6175  0.5246  0.3042
  670MOL0     C90376   0.823   5.515   6.053  0.6369  1.0121  0.8406
  670MOL0     C90377   0.839   5.660   6.008 -0.0981  0.2208 -0.5565
  670MOL0     C90378   0.903   5.674   5.875 -0.7312 -0.0824  0.8588
  670MOL0     C90379   0.942   5.807   5.836  0.6873 -0.3984 -0.4261
  670MOL0     C90380   0.966   5.922   5.810 -0.8871  0.4480  0.1494
  670MOL0     C90381   0.840   5.303   6.443 -0.5202  0.1770 -0.6563
  670MOL0     C90382   0.828   5.275   6.576  0.0815 -0.0556 -0.5114
  670MOL0     H90383   0.991   5.159   7.029 -1.0793  0.1371 -0.9828
  670MOL0     H90384   0.978   5.026   7.222  2.1975 -0.7379 -2.5017
  670MOL0     H90385   0.905   5.054   7.414  1.9415 -0.4666  0.2765
  670MOL0     H90386   0.783   4.982   7.529 -1.0654  0.3443 -0.4198
  670MOL0     H90387   0.879   4.772   7.513  3.4563 -2.4525 -0.5548
  670MOL0     H90388   1.009   4.828   7.409 -0.5594 -3.1903 -0.8954
  670MOL0     H90389   0.947   4.952   7.689  2.3313  0.1382  0.4996
  670MOL0     H90390   1.029   4.809   7.659 -1.3118  0.0597 -1.4025
  670MOL0     H90391   1.200   4.970   7.667 -0.1712  0.2032  0.5450
  670MOL0     H90392   1.182   4.952   7.494 -0.0774 -2.4276  0.4277
  670MOL0     H90393   1.050   5.159   7.485 -2.6816  0.4147  0.1975
  670MOL0     H90394   1.020   5.156   7.653  0.6719  1.0434 -0.5999
  670MOL0     H90395   1.266   5.189   7.696 -0.4864 -3.4537 -0.7727
  670MOL0     H90396   1.296   5.190   7.525  1.0524 -1.8393  0.7711
  670MOL0     H90397   1.268   5.427   7.604 -1.8201  1.8433 -2.2308
  670MOL0     H90398   1.114   5.383   7.518 -2.2420 -0.8644  1.0611
  670MOL0     H90399   1.019   5.344   7.747  0.1484 -2.1777 -3.3971
  670MOL0     H90400   1.069   5.516   7.707  0.8290 -0.8190 -0.7847
  670MOL0     H90401   1.149   5.239   7.963 -1.0272  2.0769  2.1323
  670MOL0     H90402   1.398   5.188   8.117 -0.7992 -0.6746 -1.5584
  670MOL0     H90403   1.443   5.349   8.183 -2.0656 -0.1085  0.6844
  670MOL0     H90404   1.311   5.241   8.330 -0.3346 -0.5641 -0.9379
  670MOL0     H90405   1.176   5.206   8.219  0.9535 -1.4396 -0.4300
  670MOL0     H90406   1.124   5.436   8.202  1.4808  0.0203 -1.0011
  670MOL0     H90407   1.251   5.491   8.315 -3.3170  3.0692  2.0444
  670MOL0     H90408   1.021   5.316   8.395  0.7151 -1.0952 -1.2181
  670MOL0     H90409   1.053   5.496   8.443 -0.0095  1.0030 -1.7276
  670MOL0     H90410   1.263   5.250   8.736 -0.1743 -3.1767 -0.1509
  670MOL0     H90411   1.245   5.180   8.969  0.4021 -1.4532  1.3357
  670MOL0     H90412   1.096   5.103   9.037 -0.8119 -3.9861 -1.2871
  670MOL0     H90413   1.166   5.039   8.901  0.4406  0.0815  2.0799
  670MOL0     H90414   0.915   5.040   9.287  2.2061  1.4349 -0.2243
  670MOL0     H90415   0.830   5.058   9.532  1.0708  3.7476  2.7318
  670MOL0     H90416   0.803   5.110   9.746  0.5672  0.7116 -0.3195
  670MOL0     H90417   0.908   5.232   9.729  0.4944 -1.3016  1.4089
  670MOL0     H90418   0.673   5.310   9.889 -0.2011  0.8500  1.5191
  670MOL0     H90419   0.801   5.190   9.942 -1.1313 -3.1609 -2.2393
  670MOL0     H90420   0.966   5.368   9.897  1.3787  1.9812  0.6066
  670MOL0     H90421   0.832   5.409  10.008 -4.5905 -1.1491 -0.1600
  670MOL0     H90422   0.868   5.491   9.715  0.6272 -2.8946  0.3040
  670MOL0     H90423   0.725   5.545   9.809  0.3060  3.0100 -1.4616
  670MOL0     H90424   0.900   5.655   9.982 -0.4382  0.0956 -1.0521
  670MOL0     H90425   0.830   5.740   9.858  0.9952  0.5389  1.1259
  670MOL0     H90426   1.079   5.606   9.776 -1.5791 -1.5156 -1.9968
  670MOL0     H90427   1.003   5.747   9.714 -2.1566  1.5771  1.5784
  670MOL0     H90428   1.210   5.778   9.874 -0.0229 -0.0995 -1.6336
  670MOL0     H90429   1.090   5.769  10.006  1.2637  0.9901  0.3074
  670MOL0     H90430   0.972   5.957   9.945 -0.2387 -0.1196 -1.2606
  670MOL0     H90431   1.063   5.974   9.788  3.8620 -4.5936 -1.9031
  670MOL0     H90432   0.669   5.438   9.447  0.5964 -0.2197  1.1305
  670MOL0     H90433   0.753   5.426   9.218  4.4483 -0.2661 -0.7979
  670MOL0     H90434   0.801   5.399   8.769  0.5282 -0.5986 -1.6964
  670MOL0     H90435   0.907   5.414   8.571  0.3932 -1.0325 -1.0078
  670MOL0     H90436   0.540   5.021   7.183 -0.5373  1.7881  0.3934
  670MOL0     H90437   0.558   5.126   6.976 -2.9437 -3.5365  3.4236
  670MOL0     H90438   0.525   5.450   6.632  0.7920 -0.2986  0.1601
  670MOL0     H90439   0.545   5.457   6.394 -0.8569 -3.7408 -0.7837
  670MOL0     H90440   0.663   5.549   6.195 -0.2370  1.4493  1.9539
  670MOL0     H90441   0.830   5.571   6.253  2.7303 -3.2866  1.0449
  670MOL0     H90442   0.767   5.451   5.984  1.9506 -1.3534  1.8723
  670MOL0     H90443   0.926   5.480   6.057  0.4085 -0.1171 -1.6428
  670MOL0     H90444   0.905   5.714   6.077 -0.7229 -2.2939  2.1923
  670MOL0     H90445   0.741   5.709   6.004  0.1176  0.6354 -0.9103
  670MOL0     H90446   0.832   5.630   5.804 -1.1405  0.7893  0.7111
  670MOL0     H90447   0.993   5.614   5.860  0.1022  1.6388 -1.6165
  670MOL0     H90448   1.001   6.020   5.786  0.5110  0.7564  3.0212
  670MOL0     H90449   0.938   5.287   6.399  1.2166  4.0306  1.2897
  670MOL0     H90450   0.911   5.229   6.629 -1.0695  0.9656  2.3967
  671MOL0     O90451   5.307   5.361   3.868 -0.6059  0.0694  0.2653
  671MOL0     C90452   5.207   5.378   3.803 -1.3487 -1.2388  0.0638
  671MOL0     O90453   5.176   5.491   3.752  0.7280 -0.3300 -0.2847
  671MOL0     C90454   5.235   5.604   3.797 -0.1918  0.9849 -0.0541
  671MOL0     C90455   5.196   5.669   3.910 -0.4600 -0.3665  0.3504
  671MOL0     C90456   5.244   5.799   3.941  0.0028  0.5026  0.3840
  671MOL0     C90457   5.345   5.858   3.853 -0.7080  0.2942 -1.6774
  671MOL0     O90458   5.407   5.980   3.876  0.1177 -0.4698 -0.2283
  671MOL0     C90459   5.356   6.057   3.989 -0.9101  0.3226  0.4178
  671MOL0     C90460   5.407   6.207   3.969 -0.4922 -0.7869 -0.0028
  671MOL0     C90461   5.551   6.237   4.014  0.6609  0.9093 -0.0390
  671MOL0     C90462   5.594   6.376   3.978  1.0581 -1.7610 -0.9793
  671MOL0     C90463   5.686   6.381   3.857  0.2979 -0.8666 -0.1093
  671MOL0     C90464   5.705   6.534   3.809  0.2927 -0.7755 -0.6791
  671MOL0     C90465   5.762   6.540   3.660 -0.2986  0.2537  0.4587
  671MOL0     C90466   5.804   6.681   3.618  0.1111 -0.6933 -0.7492
  671MOL0     N90467   5.776   6.718   3.478  0.3927 -0.4845  0.3408
  671MOL0     C90468   5.870   6.743   3.381  0.0859 -0.5725 -0.0024
  671MOL0     C90469   5.792   6.771   3.272 -0.5629 -0.3628  0.4029
  671MOL0     C90470   5.845   6.787   3.135 -0.4170 -0.1541  0.8612
  671MOL0     C90471   5.913   6.918   3.115  0.0354 -1.0998 -1.1474
  671MOL0     C90472   5.858   7.008   3.002 -0.4623  0.3861 -0.8802
  671MOL0     C90473   5.900   7.152   3.012 -0.6245 -1.1027 -0.3484
  671MOL0     O90474   6.046   7.163   2.978  0.3207  0.5799  0.2904
  671MOL0     C90475   6.073   7.153   2.843 -1.0119 -0.1532 -1.1028
  671MOL0     C90476   5.999   7.140   2.727 -0.2405  0.1844 -0.5694
  671MOL0     C90477   6.055   7.127   2.601 -0.9152 -0.1774  0.1481
  671MOL0     C90478   5.964   7.143   2.484  0.6115 -0.2566  0.9916
  671MOL0     C90479   6.193   7.103   2.587  0.5508 -0.3437 -0.3633
  671MOL0     C90480   6.272   7.086   2.460 -0.1047 -0.4292 -0.0752
  671MOL0     O90481   6.202   7.049   2.350  0.8419 -0.6725 -0.0525
  671MOL0     C90482   6.260   7.064   2.225  0.1925  0.5255 -0.4956
  671MOL0     C90483   6.343   6.964   2.163  0.7528 -0.6677 -0.5052
  671MOL0     C90484   6.398   6.996   2.042  0.3446  0.9183 -0.4833
  671MOL0     C90485   6.383   7.120   1.977 -0.7188  0.3855  0.1204
  671MOL0     O90486   6.452   7.125   1.864 -0.2888 -0.4714  0.5585
  671MOL0     C90487   6.428   7.226   1.764  0.4477  0.0227  0.3524
  671MOL0     C90488   6.533   7.186   1.661 -0.2944 -0.2927  0.1073
  671MOL0     C90489   6.678   7.229   1.705  0.0730 -0.0666 -0.8814
  671MOL0     C90490   6.692   7.377   1.739  0.4422  0.5309 -0.2659
  671MOL0     C90491   6.829   7.432   1.758  0.0362 -0.6913  0.7821
  671MOL0     C90492   6.887   7.399   1.900  0.4853  0.4496 -0.0174
  671MOL0     C90493   7.044   7.435   1.915 -0.6223 -0.5246  0.2055
  671MOL0     C90494   7.083   7.454   2.065 -0.5305  0.1751 -0.0378
  671MOL0    Cl90495   7.006   7.601   2.129 -0.7580 -0.3027 -0.1561
  671MOL0     C90496   6.295   7.216   2.034 -0.1607  1.0767 -0.3909
  671MOL0     C90497   6.237   7.187   2.158  0.0554 -0.1487  0.3701
  671MOL0     O90498   6.397   7.094   2.467  0.3539  0.7738  0.4731
  671MOL0     C90499   6.269   7.103   2.705 -0.1015  0.8024 -0.2655
  671MOL0     C90500   6.212   7.129   2.827 -0.3190  0.0081 -0.4062
  671MOL0     N90501   5.660   6.773   3.304 -0.2872 -0.3357  0.0288
  671MOL0     N90502   5.652   6.743   3.429  0.2008  0.0113 -0.1592
  671MOL0     C90503   5.394   5.774   3.735 -0.0885  0.4538 -0.3239
  671MOL0     C90504   5.330   5.654   3.711 -0.3538 -0.8511  0.1542
  671MOL0     C90505   5.119   5.266   3.764  0.4373 -0.7597  0.5868
  671MOL0     C90506   4.995   5.284   3.707  0.6509  0.3566 -0.7534
  671MOL0     C90507   4.906   5.175   3.666  0.2275  0.3724 -0.2109
  671MOL0     C90508   4.961   5.039   3.680  0.5737 -0.0007 -0.5615
  671MOL0     O90509   4.898   4.924   3.645  0.0408 -1.0445 -0.6871
  671MOL0     C90510   4.765   4.941   3.594  0.9463 -0.2683  0.0313
  671MOL0     C90511   4.707   4.797   3.583  0.1643  0.5017  0.1358
  671MOL0     C90512   4.769   4.700   3.470 -0.6293  0.5400  0.2782
  671MOL0     C90513   4.700   4.725   3.326 -0.6186  1.3172  0.5319
  671MOL0     C90514   4.555   4.719   3.315  1.4038  0.1474 -1.4480
  671MOL0     C90515   4.435   4.712   3.297 -0.3424 -0.4332 -0.1285
  671MOL0     C90516   5.086   5.025   3.743 -0.0015 -0.2469  0.0742
  671MOL0     C90517   5.159   5.135   3.790 -0.2716  0.3016  0.2358
  671MOL0     H90518   5.120   5.622   3.972 -2.9337  0.8590 -1.5848
  671MOL0     H90519   5.206   5.853   4.027  1.6465  1.8588  0.3197
  671MOL0     H90520   5.246   6.059   3.990 -0.9419 -0.5141  1.6561
  671MOL0     H90521   5.394   6.021   4.084 -0.6023  1.9318  0.9323
  671MOL0     H90522   5.405   6.225   3.861 -2.1716 -2.6965 -0.3585
  671MOL0     H90523   5.341   6.282   4.014 -0.7713 -1.0684  0.0668
  671MOL0     H90524   5.545   6.222   4.123 -1.7670  1.0514 -0.0959
  671MOL0     H90525   5.626   6.164   3.982 -1.1496 -1.0339 -0.0537
  671MOL0     H90526   5.504   6.435   3.957  0.7465 -1.6433  0.5599
  671MOL0     H90527   5.637   6.429   4.064 -1.2197 -2.9710  1.0349
  671MOL0     H90528   5.779   6.326   3.874 -0.5796 -1.9791  1.3261
  671MOL0     H90529   5.638   6.332   3.772  1.6155 -0.6547 -1.0006
  671MOL0     H90530   5.609   6.586   3.805  0.5024 -0.2250  0.8963
  671MOL0     H90531   5.775   6.580   3.879 -0.3443 -1.0360  0.1432
  671MOL0     H90532   5.854   6.481   3.651 -0.6457 -0.3705  0.9315
  671MOL0     H90533   5.687   6.505   3.589  0.9933 -1.2133 -0.2350
  671MOL0     H90534   5.907   6.688   3.652 -0.8553 -0.5320  2.5238
  671MOL0     H90535   5.745   6.748   3.682  2.2069  1.6776 -1.1443
  671MOL0     H90536   5.977   6.724   3.378  0.3177  0.0935  2.2181
  671MOL0     H90537   5.916   6.711   3.101 -1.1695  0.4603 -2.3478
  671MOL0     H90538   5.754   6.785   3.075  0.0180  1.3631  0.0860
  671MOL0     H90539   6.021   6.908   3.103  0.7898  3.2379  0.3188
  671MOL0     H90540   5.894   6.976   3.206  0.1785  0.6692 -2.2039
  671MOL0     H90541   5.750   7.013   3.021 -0.2435 -2.4931  2.2277
  671MOL0     H90542   5.883   6.966   2.904  2.1106 -2.8573  0.9396
  671MOL0     H90543   5.887   7.185   3.115  0.2397 -1.2383 -0.1826
  671MOL0     H90544   5.833   7.211   2.949  0.7351 -0.2257 -1.0263
  671MOL0     H90545   5.891   7.136   2.736 -0.0914  0.8441  3.7714
  671MOL0     H90546   5.871   7.195   2.504 -1.5903 -2.9255 -1.3629
  671MOL0     H90547   6.003   7.185   2.391 -1.9343  1.6560  0.7060
  671MOL0     H90548   5.931   7.039   2.478  0.3754 -0.4348  3.8479
  671MOL0     H90549   6.350   6.866   2.210 -1.3837 -0.3402  0.6132
  671MOL0     H90550   6.459   6.924   1.991  0.3239  0.8683 -0.4378
  671MOL0     H90551   6.326   7.207   1.729  0.7366  0.8878 -1.0261
  671MOL0     H90552   6.440   7.325   1.808  0.3476 -0.6165  1.8551
  671MOL0     H90553   6.542   7.083   1.624  2.5319  0.2170 -0.8945
  671MOL0     H90554   6.501   7.243   1.573 -2.8873  0.7993  1.6314
  671MOL0     H90555   6.746   7.210   1.621  0.6133  0.7977 -0.6450
  671MOL0     H90556   6.708   7.166   1.789  1.8747  1.5211 -0.2640
  671MOL0     H90557   6.651   7.441   1.660  1.9621  3.8141  1.4199
  671MOL0     H90558   6.630   7.384   1.829  2.9404 -5.0214  2.3624
  671MOL0     H90559   6.832   7.540   1.739 -0.0878 -0.8168  0.0312
  671MOL0     H90560   6.890   7.390   1.677 -0.2137 -0.9849  0.7484
  671MOL0     H90561   6.818   7.446   1.970  1.2032  0.8122  0.4671
  671MOL0     H90562   6.877   7.290   1.908  3.9227 -0.5758 -4.8197
  671MOL0     H90563   7.071   7.523   1.856 -1.3429 -0.5471 -0.1647
  671MOL0     H90564   7.096   7.353   1.865  0.4028  1.0418 -1.3928
  671MOL0     H90565   7.191   7.456   2.079 -0.5308 -3.0896  1.4617
  671MOL0     H90566   7.071   7.360   2.120 -3.2347 -0.6702 -1.8239
  671MOL0     H90567   6.278   7.306   1.976  0.7281  1.5346  0.0401
  671MOL0     H90568   6.178   7.257   2.216 -0.2896 -0.8714  0.9064
  671MOL0     H90569   6.369   7.066   2.723 -0.5673  0.1137  1.0191
  671MOL0     H90570   6.282   7.130   2.910  0.8366  1.8949 -1.3261
  671MOL0     H90571   5.474   5.804   3.669  0.5761 -2.1594 -0.8059
  671MOL0     H90572   5.365   5.611   3.619 -0.3451  3.8104 -2.3319
  671MOL0     H90573   4.952   5.382   3.691 -2.4200 -0.3193  2.1819
  671MOL0     H90574   4.808   5.189   3.621  0.4368  1.3695 -0.3857
  671MOL0     H90575   4.705   5.009   3.655  1.9911  0.3919  0.3310
  671MOL0     H90576   4.754   4.988   3.496  0.2687 -2.2626 -0.9187
  671MOL0     H90577   4.599   4.799   3.566  0.2513  0.5535 -0.4187
  671MOL0     H90578   4.717   4.758   3.685 -2.0775 -0.8247 -0.0817
  671MOL0     H90579   4.744   4.598   3.500 -2.5909  0.8397 -0.2079
  671MOL0     H90580   4.879   4.702   3.463 -0.6590 -0.3908 -0.7509
  671MOL0     H90581   4.742   4.657   3.251 -4.0709  1.2734 -1.5827
  671MOL0     H90582   4.732   4.823   3.290  2.3355  0.6253  1.0343
  671MOL0     H90583   4.332   4.699   3.271 -0.2421  2.7876 -2.8521
  671MOL0     H90584   5.125   4.926   3.764  2.6784 -1.0966 -6.5963
  671MOL0     H90585   5.254   5.113   3.837  1.7445  2.7666 -2.2712
  672MOL0     O90586  10.293   7.467   0.799  0.0043 -0.4483  0.0876
  672MOL0     C90587  10.411   7.499   0.766 -0.7765 -0.2372  0.3627
  672MOL0     O90588  10.493   7.600   0.811 -0.2048 -0.3203 -0.2858
  672MOL0     C90589  10.452   7.671   0.930 -0.1098 -0.6080  0.3926
  672MOL0     C90590  10.527   7.677   1.046  0.3782 -0.1375  0.2724
  672MOL0     C90591  10.461   7.709   1.166 -0.0887 -0.0705 -0.0024
  672MOL0     C90592  10.336   7.753   1.172  0.2600  0.4162 -0.3381
  672MOL0     O90593  10.289   7.786   1.297  0.0983  0.7694  0.2695
  672MOL0     C90594  10.301   7.677   1.390 -0.4845  0.1384  0.6845
  672MOL0     C90595  10.195   7.671   1.497  1.1806  0.5498 -0.1670
  672MOL0     C90596  10.182   7.808   1.557 -0.3170 -0.8928  0.2925
  672MOL0     C90597  10.118   7.800   1.699 -0.4135 -0.9025 -0.4810
  672MOL0     C90598   9.965   7.795   1.694 -1.2426  0.0169  0.0445
  672MOL0     C90599   9.906   7.818   1.833  0.3885  1.5342 -0.5847
  672MOL0     C90600   9.758   7.773   1.842  0.2741  0.2195 -0.5637
  672MOL0     C90601   9.693   7.817   1.977 -0.3935 -0.3143  0.0925
  672MOL0     N90602   9.551   7.784   1.982 -0.2088  0.0137  0.0172
  672MOL0     C90603   9.496   7.662   2.006  0.0427 -0.0338  0.7026
  672MOL0     C90604   9.358   7.673   1.996 -0.2987 -0.3996  0.5481
  672MOL0     C90605   9.257   7.570   2.011  0.9041  0.4434 -0.4427
  672MOL0     C90606   9.181   7.563   1.884 -0.9928 -0.2121 -0.8416
  672MOL0     C90607   9.069   7.451   1.876  0.1832 -0.9129 -0.2669
  672MOL0     C90608   9.032   7.415   1.723  0.3050 -0.5813  0.1068
  672MOL0     O90609   9.115   7.302   1.678 -0.3804  0.6189 -0.3652
  672MOL0     C90610   9.106   7.244   1.559  0.5424  0.3533  0.7910
  672MOL0     C90611   9.174   7.117   1.541  0.3771 -0.7654 -1.2022
  672MOL0     C90612   9.151   7.038   1.426  1.3515 -0.4721  0.3244
  672MOL0     C90613   9.235   6.918   1.407  0.8464 -0.2767  0.8335
  672MOL0     C90614   9.069   7.082   1.318  0.4223 -0.9354 -0.0896
  672MOL0     C90615   9.041   7.010   1.195  0.7366 -0.6723  0.2365
  672MOL0     O90616   9.041   7.097   1.086  0.1950  0.0680 -0.7203
  672MOL0     C90617   9.050   7.044   0.958 -0.2912  0.4504 -1.0433
  672MOL0     C90618   8.996   6.930   0.915 -0.6516 -0.2714  0.1856
  672MOL0     C90619   9.005   6.875   0.789  0.1847  0.0635 -0.2424
  672MOL0     C90620   9.073   6.946   0.687 -0.1049 -0.4226  0.7406
  672MOL0     O90621   9.091   6.909   0.559 -0.5197 -0.3866 -0.2655
  672MOL0     C90622   9.045   6.771   0.535 -0.4177 -0.4450 -0.0436
  672MOL0     C90623   9.032   6.750   0.383 -0.1040 -0.7713  0.3379
  672MOL0     C90624   8.994   6.613   0.342  0.0299 -0.0062  0.1810
  672MOL0     C90625   8.979   6.608   0.189  0.2845 -0.4782  0.0676
  672MOL0     C90626   8.921   6.481   0.154 -0.3889  0.9535 -0.1213
  672MOL0     C90627   8.890   6.470   0.003 -0.0613 -0.3409  0.0389
  672MOL0     C90628   8.841   6.329  -0.034  0.0573 -0.0401 -0.0927
  672MOL0     C90629   8.940   6.224  -0.028 -0.0061 -0.4928  0.5200
  672MOL0    Cl90630   8.877   6.080  -0.085 -0.4355 -0.6431 -0.0954
  672MOL0     C90631   9.140   7.064   0.726 -0.3423 -0.1741  0.7451
  672MOL0     C90632   9.120   7.113   0.859 -0.1112  0.0004 -0.3387
  672MOL0     O90633   9.010   6.886   1.200 -0.7408 -0.2566 -0.0162
  672MOL0     C90634   9.002   7.209   1.331 -0.7012 -0.3006 -0.3656
  672MOL0     C90635   9.023   7.278   1.454  0.5715 -0.1215 -0.2576
  672MOL0     N90636   9.334   7.810   1.967 -0.3941 -0.3188  0.4475
  672MOL0     N90637   9.448   7.871   1.963  0.1121 -0.3364 -0.5826
  672MOL0     C90638  10.272   7.780   1.050  0.0713 -0.8672 -0.7482
  672MOL0     C90639  10.332   7.734   0.928  0.5140  0.4885  0.3975
  672MOL0     C90640  10.446   7.438   0.633 -0.5845  0.7238 -0.8068
  672MOL0     C90641  10.561   7.473   0.562 -0.1371 -0.2750 -0.6101
  672MOL0     C90642  10.589   7.438   0.425  0.2829 -0.1366  0.1691
  672MOL0     C90643  10.497   7.357   0.357  0.5060  0.3659 -0.2017
  672MOL0     O90644  10.492   7.319   0.225 -0.2603  0.1227 -0.9821
  672MOL0     C90645  10.589   7.371   0.132  0.2129 -0.0213  0.5607
  672MOL0     C90646  10.582   7.298  -0.001  0.2526 -0.2688 -0.3147
  672MOL0     C90647  10.726   7.299  -0.067  0.2474  1.0523 -0.2306
  672MOL0     C90648  10.729   7.194  -0.191 -0.1592 -0.4756  0.2611
  672MOL0     C90649  10.627   7.219  -0.293  0.8213 -0.1009  0.3401
  672MOL0     C90650  10.539   7.245  -0.378  0.8768 -0.3140  0.4295
  672MOL0     C90651  10.387   7.303   0.425 -0.0461 -0.1428  0.1397
  672MOL0     C90652  10.365   7.350   0.554 -0.1182  0.7077 -0.1893
  672MOL0     H90653  10.617   7.618   1.056  0.5160 -0.5916 -2.7971
  672MOL0     H90654  10.511   7.700   1.262 -2.0891 -1.9020  0.9482
  672MOL0     H90655  10.297   7.586   1.329  0.8623  0.8162 -0.4763
  672MOL0     H90656  10.392   7.689   1.449  0.2959  1.3575 -0.7102
  672MOL0     H90657  10.099   7.645   1.449  1.8309  1.1311 -1.8456
  672MOL0     H90658  10.233   7.601   1.573  0.2043  0.2626  0.0787
  672MOL0     H90659  10.278   7.859   1.570 -0.8535 -0.2804  2.2387
  672MOL0     H90660  10.129   7.880   1.493  0.3597  0.4018  1.1474
  672MOL0     H90661  10.164   7.732   1.770 -2.8398 -0.2109  1.9030
  672MOL0     H90662  10.136   7.902   1.735 -2.4538  0.1899 -2.2366
  672MOL0     H90663   9.922   7.866   1.622 -0.3208 -0.7503 -1.3077
  672MOL0     H90664   9.947   7.690   1.668  3.5481 -0.9309 -0.3166
  672MOL0     H90665   9.957   7.758   1.909  0.0742  1.5402 -0.3673
  672MOL0     H90666   9.910   7.925   1.855  1.6201  1.5821 -0.9785
  672MOL0     H90667   9.699   7.810   1.757 -0.5254  1.8050  0.6283
  672MOL0     H90668   9.749   7.664   1.834  4.9798 -0.2940 -1.5743
  672MOL0     H90669   9.712   7.924   1.990  2.3092 -0.5379 -1.2659
  672MOL0     H90670   9.740   7.768   2.062  1.3304 -2.1414 -1.7825
  672MOL0     H90671   9.552   7.569   2.015 -0.2628 -1.0775 -4.6789
  672MOL0     H90672   9.299   7.474   2.043 -2.6838 -0.0607  3.7850
  672MOL0     H90673   9.197   7.603   2.097  2.6625  0.8803  0.6782
  672MOL0     H90674   9.255   7.538   1.807  1.6041  4.3148 -0.1643
  672MOL0     H90675   9.132   7.659   1.865 -0.2946  0.0221 -1.5167
  672MOL0     H90676   8.976   7.479   1.926  0.0086 -1.7490 -0.0998
  672MOL0     H90677   9.113   7.362   1.923  1.1388 -0.6386 -0.6158
  672MOL0     H90678   9.051   7.502   1.660 -0.0837 -0.2025  0.4953
  672MOL0     H90679   8.924   7.396   1.721  0.5696 -3.1112  2.6784
  672MOL0     H90680   9.249   7.092   1.616  0.7367  0.3497 -1.1674
  672MOL0     H90681   9.181   6.823   1.409  1.2066 -0.6048 -1.9418
  672MOL0     H90682   9.281   6.940   1.310  0.0184 -2.7154 -0.1948
  672MOL0     H90683   9.316   6.910   1.480  1.9483  0.6733 -0.2375
  672MOL0     H90684   8.943   6.872   0.990  0.5985 -0.8453  0.6603
  672MOL0     H90685   8.955   6.779   0.784  0.4468 -0.0557 -0.5532
  672MOL0     H90686   9.111   6.700   0.585 -0.0934 -0.1185 -0.0027
  672MOL0     H90687   8.946   6.751   0.577  0.6887 -0.7705  2.6147
  672MOL0     H90688   8.974   6.832   0.339  2.8060  0.7939 -0.9010
  672MOL0     H90689   9.126   6.775   0.333 -1.2670  1.0130 -1.1102
  672MOL0     H90690   8.897   6.585   0.386  0.1788  1.8196  1.7832
  672MOL0     H90691   9.056   6.534   0.385 -0.4777  0.3493  1.6611
  672MOL0     H90692   8.934   6.701   0.154  4.8245  1.6430 -0.9498
  672MOL0     H90693   9.080   6.617   0.147 -0.5685  0.7689 -1.8017
  672MOL0     H90694   8.821   6.480   0.199 -0.9172  2.2776 -1.1768
  672MOL0     H90695   8.976   6.401   0.204 -1.7348  1.3766  2.1789
  672MOL0     H90696   8.808   6.539  -0.019 -0.9229 -1.1846  0.5579
  672MOL0     H90697   8.970   6.488  -0.070  2.8672  1.3523  3.3564
  672MOL0     H90698   8.809   6.326  -0.138 -0.8905 -0.8873  0.2118
  672MOL0     H90699   8.759   6.303   0.033  0.2474 -1.3270 -0.3418
  672MOL0     H90700   8.972   6.215   0.076  0.1625  1.5857  0.6769
  672MOL0     H90701   9.023   6.261  -0.089  0.5640  0.2616  1.7087
  672MOL0     H90702   9.196   7.123   0.654 -1.4121 -1.7386 -1.5080
  672MOL0     H90703   9.166   7.208   0.884  1.5904 -0.3605 -1.8857
  672MOL0     H90704   8.941   7.254   1.253  0.3496  1.7539 -0.0530
  672MOL0     H90705   8.977   7.377   1.460  0.1845 -0.3574  1.1556
  672MOL0     H90706  10.171   7.820   1.054  0.4927  0.2799 -1.3417
  672MOL0     H90707  10.260   7.738   0.846  1.3444  1.9081 -0.3077
  672MOL0     H90708  10.628   7.546   0.607 -1.4991  0.3024  0.5588
  672MOL0     H90709  10.683   7.465   0.378  0.4720 -2.4793 -0.9314
  672MOL0     H90710  10.566   7.476   0.114  1.5419 -0.1404 -2.3862
  672MOL0     H90711  10.689   7.357   0.175  0.8156 -0.8488 -1.0512
  672MOL0     H90712  10.506   7.342  -0.066  0.0876  0.8907  0.6245
  672MOL0     H90713  10.546   7.196   0.016 -2.3163  0.7629  0.9985
  672MOL0     H90714  10.796   7.267   0.011  0.8411 -1.4128 -1.6531
  672MOL0     H90715  10.750   7.402  -0.095 -0.5739  0.3716 -3.9734
  672MOL0     H90716  10.718   7.090  -0.158 -3.2569 -1.3524 -2.9748
  672MOL0     H90717  10.821   7.208  -0.249  0.0425 -0.6832  0.5301
  672MOL0     H90718  10.471   7.272  -0.457 -0.1667  0.0779  1.4249
  672MOL0     H90719  10.317   7.235   0.379  0.7866  0.5525 -2.3132
  672MOL0     H90720  10.271   7.319   0.600 -0.2384 -0.4207 -1.1295
  673MOL0     O90721   1.283   7.182   9.959 -0.7852  0.2375  0.4699
  673MOL0     C90722   1.242   7.190  10.075  0.7454  0.0675  0.5483
  673MOL0     O90723   1.305   7.258  10.177  0.4545  0.6370 -0.1215
  673MOL0     C90724   1.441   7.280  10.165  0.0274 -0.1762 -0.1704
  673MOL0     C90725   1.535   7.199  10.100  0.5101  0.1129 -0.9356
  673MOL0     C90726   1.676   7.234  10.099 -0.2775  0.1078 -0.7911
  673MOL0     C90727   1.724   7.353  10.164  0.7282 -0.8420 -0.2256
  673MOL0     O90728   1.863   7.358  10.166  0.4510 -0.1371 -0.6783
  673MOL0     C90729   1.906   7.492  10.127  0.5230  0.2575  0.0876
  673MOL0     C90730   2.062   7.505  10.123  0.7912 -0.0441  0.4254
  673MOL0     C90731   2.104   7.647  10.132  0.5433  0.5366 -0.1843
  673MOL0     C90732   2.248   7.639  10.181 -0.8259  0.3533 -0.2046
  673MOL0     C90733   2.356   7.745  10.144  0.5012  0.1210 -0.0009
  673MOL0     C90734   2.339   7.888  10.216  0.4853 -0.1813 -0.3044
  673MOL0     C90735   2.446   7.991  10.188  0.1789 -0.1956 -0.3311
  673MOL0     C90736   2.434   8.049  10.041 -0.3804 -0.7658  0.1189
  673MOL0     N90737   2.449   8.200  10.039 -0.2533 -0.0303  1.1058
  673MOL0     C90738   2.373   8.276  10.126  0.1266 -0.4379 -0.5472
  673MOL0     C90739   2.394   8.402  10.078  0.9854 -0.2400  0.3184
  673MOL0     C90740   2.332   8.530  10.113 -0.3159 -0.2313 -0.2346
  673MOL0     C90741   2.397   8.597  10.229 -0.5914 -0.0960  0.4480
  673MOL0     C90742   2.410   8.506  10.359 -0.0531  0.2191  0.0247
  673MOL0     C90743   2.283   8.523  10.452  0.2073 -0.7413  0.8267
  673MOL0     O90744   2.180   8.433  10.423  0.5489 -0.0832  0.7335
  673MOL0     C90745   2.180   8.293  10.455 -0.5325  0.5956 -0.6025
  673MOL0     C90746   2.073   8.220  10.426  0.9896  0.4120  0.6558
  673MOL0     C90747   2.063   8.082  10.456 -0.2666 -0.9344  0.1365
  673MOL0     C90748   1.937   8.017  10.426 -0.8175  0.0869  0.4148
  673MOL0     C90749   2.165   8.018  10.532  0.2938 -0.2036 -0.5182
  673MOL0     C90750   2.155   7.879  10.590 -0.4371 -0.1520  0.5236
  673MOL0     O90751   2.238   7.789  10.524 -0.7206 -0.7204 -0.2223
  673MOL0     C90752   2.238   7.659  10.576  0.2820 -0.5322 -0.5630
  673MOL0     C90753   2.149   7.564  10.538 -0.3267  0.1937 -0.2053
  673MOL0     C90754   2.152   7.436  10.591  0.1044 -0.2635 -1.0892
  673MOL0     C90755   2.243   7.393  10.689 -0.7373 -0.0088  0.4308
  673MOL0     O90756   2.231   7.272  10.748 -0.5854  0.1587  0.2100
  673MOL0     C90757   2.294   7.234  10.867  0.9448 -0.2574  0.3110
  673MOL0     C90758   2.211   7.126  10.930  0.1471 -0.5957 -0.5472
  673MOL0     C90759   2.261   7.108  11.073  0.2651  0.1641  0.2169
  673MOL0     C90760   2.174   7.002  11.150 -0.0263  0.4826  0.6078
  673MOL0     C90761   2.056   7.069  11.209  0.2217 -0.1116 -0.0348
  673MOL0     C90762   2.016   7.022  11.352  0.8291  0.1823  0.1996
  673MOL0     C90763   1.962   6.873  11.360  0.3057  0.7221  0.2493
  673MOL0     C90764   1.961   6.806  11.501 -0.0554  0.4413  0.6164
  673MOL0    Cl90765   2.125   6.807  11.574 -0.2946  0.2938 -0.2255
  673MOL0     C90766   2.333   7.497  10.728  0.2737  0.7657  0.9801
  673MOL0     C90767   2.323   7.624  10.674  0.3211  0.0103 -0.9783
  673MOL0     O90768   2.081   7.855  10.687  0.3687 -0.6253 -0.7613
  673MOL0     C90769   2.279   8.087  10.551  0.2612 -0.0235 -0.4811
  673MOL0     C90770   2.282   8.226  10.523 -0.3480 -0.6803 -0.3869
  673MOL0     N90771   2.487   8.402   9.980 -1.1815  0.3770 -0.6582
  673MOL0     N90772   2.513   8.275   9.948  0.1194 -0.8557  0.6266
  673MOL0     C90773   1.623   7.427  10.227 -0.5802  0.0535 -0.2053
  673MOL0     C90774   1.484   7.405  10.214  0.9462  0.5998 -0.2771
  673MOL0     C90775   1.111   7.123  10.089 -0.9322 -0.1075 -0.1228
  673MOL0     C90776   1.028   7.163  10.198 -0.3823  0.3050  0.0449
  673MOL0     C90777   0.902   7.106  10.224  0.0028  0.9629 -0.3044
  673MOL0     C90778   0.867   6.997  10.147  0.3312 -0.7139 -0.0902
  673MOL0     O90779   0.747   6.944  10.184  1.0882  0.5275 -1.1652
  673MOL0     C90780   0.699   6.824  10.122  1.2330 -0.2048 -0.8869
  673MOL0     C90781   0.775   6.695  10.159  0.0146  0.4204  0.0476
  673MOL0     C90782   0.703   6.580  10.076  0.1393  0.1861 -0.6549
  673MOL0     C90783   0.716   6.449  10.165 -0.4665 -0.6487 -0.3343
  673MOL0     C90784   0.851   6.404  10.159 -0.0955 -0.7429  0.3355
  673MOL0     C90785   0.963   6.357  10.134  0.2221 -0.1277  0.3768
  673MOL0     C90786   0.952   6.947  10.040 -0.6312 -0.0918  0.4984
  673MOL0     C90787   1.074   7.014  10.008  0.0223  0.5922 -0.6482
  673MOL0     H90788   1.504   7.101  10.064  1.4395 -1.1382  1.4429
  673MOL0     H90789   1.748   7.162  10.061  0.8924  1.1450 -0.6222
  673MOL0     H90790   1.865   7.518  10.029 -1.2394  1.9135  1.2001
  673MOL0     H90791   1.873   7.558  10.207  3.5037 -1.2540  2.7918
  673MOL0     H90792   2.102   7.450  10.209 -2.6834 -2.0539  0.9710
  673MOL0     H90793   2.107   7.459  10.035  0.2634 -0.9684  0.6245
  673MOL0     H90794   2.104   7.701  10.037  0.3537  0.5280 -0.1905
  673MOL0     H90795   2.040   7.705  10.199 -1.1258  2.8800 -3.5405
  673MOL0     H90796   2.247   7.637  10.290 -0.3264  0.2842 -0.1976
  673MOL0     H90797   2.289   7.545  10.143 -3.0628 -1.0683  0.6671
  673MOL0     H90798   2.453   7.709  10.178  0.6705  2.1635  1.9017
  673MOL0     H90799   2.346   7.761  10.036 -1.4189 -0.6589  0.0182
  673MOL0     H90800   2.237   7.923  10.201  0.3377 -1.2605 -2.1026
  673MOL0     H90801   2.345   7.868  10.323 -1.7086 -2.5669 -0.5273
  673MOL0     H90802   2.448   8.064  10.269  0.0253 -2.2945  1.6498
  673MOL0     H90803   2.544   7.945  10.200  1.6792  2.1248 -2.5164
  673MOL0     H90804   2.336   8.030   9.996 -0.0674  1.3943 -1.6108
  673MOL0     H90805   2.516   8.011   9.979 -0.5443 -1.0530  0.0758
  673MOL0     H90806   2.315   8.241  10.211  0.1133 -0.2670 -0.4853
  673MOL0     H90807   2.321   8.597  10.027  1.1955  1.3593  0.7386
  673MOL0     H90808   2.230   8.510  10.148 -0.4829 -1.7457 -1.4868
  673MOL0     H90809   2.326   8.673  10.261 -2.5429 -2.7195  2.8313
  673MOL0     H90810   2.498   8.634  10.211  0.2911 -1.5852  2.0275
  673MOL0     H90811   2.494   8.550  10.414  0.3401  1.4943 -1.5302
  673MOL0     H90812   2.436   8.403  10.332 -1.5081  0.4335 -2.4925
  673MOL0     H90813   2.240   8.621  10.431  0.7934 -0.6065  0.2133
  673MOL0     H90814   2.305   8.515  10.559  0.5886 -0.6960  0.7547
  673MOL0     H90815   1.992   8.269  10.373  0.9289 -0.4975 -0.1174
  673MOL0     H90816   1.896   8.062  10.336  0.6245  0.7525  0.0622
  673MOL0     H90817   1.934   7.908  10.434 -2.2156  0.2375  3.2054
  673MOL0     H90818   1.866   8.045  10.505 -1.4034 -0.8876  0.2516
  673MOL0     H90819   2.078   7.576  10.457  1.1139 -0.4040 -1.6189
  673MOL0     H90820   2.082   7.362  10.553  1.1438 -1.5047 -0.6681
  673MOL0     H90821   2.401   7.212  10.858  1.9079  2.4908  3.1955
  673MOL0     H90822   2.298   7.320  10.934 -1.5423  0.2507 -0.1150
  673MOL0     H90823   2.106   7.155  10.935  0.9979  2.8471  3.2708
  673MOL0     H90824   2.226   7.025  10.890  0.1053 -2.6579  4.0106
  673MOL0     H90825   2.262   7.197  11.137 -2.8390 -0.1826  0.8902
  673MOL0     H90826   2.360   7.064  11.057  0.3556  1.2348 -2.6244
  673MOL0     H90827   2.156   6.921  11.078 -0.0466 -0.2126  1.3805
  673MOL0     H90828   2.225   6.952  11.233 -0.1052 -0.9901 -0.1985
  673MOL0     H90829   1.964   7.054  11.151  0.9611 -0.7449 -1.0844
  673MOL0     H90830   2.071   7.177  11.210 -0.7944  0.0900 -1.6615
  673MOL0     H90831   2.099   7.049  11.418 -0.3769  1.4703  1.2692
  673MOL0     H90832   1.935   7.088  11.384  1.2584  1.5405 -1.4131
  673MOL0     H90833   2.039   6.810  11.314 -0.2843 -0.7286  1.1731
  673MOL0     H90834   1.859   6.859  11.327 -0.7000  1.1327  2.9696
  673MOL0     H90835   1.922   6.706  11.482  0.8890  0.3411 -0.9676
  673MOL0     H90836   1.893   6.852  11.573  0.7484  0.1001  1.6242
  673MOL0     H90837   2.394   7.489  10.818  5.0906 -0.7776 -2.0611
  673MOL0     H90838   2.384   7.706  10.712 -0.3321  0.6488 -1.2793
  673MOL0     H90839   2.353   8.028  10.605  0.4930  2.0053  1.5782
  673MOL0     H90840   2.359   8.300  10.543  1.3993 -1.5153 -3.4184
  673MOL0     H90841   1.673   7.513  10.269  3.1545 -0.7753 -2.5097
  673MOL0     H90842   1.416   7.478  10.255  1.4539  0.3573  1.0352
  673MOL0     H90843   1.062   7.243  10.263  1.5027 -0.0550 -0.4303
  673MOL0     H90844   0.831   7.139  10.300  0.6935  5.4108 -1.3024
  673MOL0     H90845   0.591   6.818  10.135  1.1773 -0.3042 -1.3976
  673MOL0     H90846   0.711   6.832  10.014 -2.0711 -2.6508 -1.5912
  673MOL0     H90847   0.781   6.679  10.267  0.4797  0.0412 -0.0315
  673MOL0     H90848   0.878   6.705  10.124  0.0888  1.6645  0.6061
  673MOL0     H90849   0.754   6.564   9.980  0.1616  2.1973 -1.0249
  673MOL0     H90850   0.601   6.601  10.044 -0.2763 -1.8856 -0.8303
  673MOL0     H90851   0.657   6.366  10.126 -1.5170 -0.5705  0.9907
  673MOL0     H90852   0.688   6.480  10.266 -0.7211  0.3281 -0.6935
  673MOL0     H90853   1.053   6.300  10.117 -0.6877 -1.8656  1.1085
  673MOL0     H90854   0.931   6.859   9.980  2.0068 -0.1901 -0.4352
  673MOL0     H90855   1.131   6.980   9.922  1.8033  3.3420 -0.6937
  674MOL0     O90856   3.640   3.506  10.008 -0.4043 -0.7775  0.4920
  674MOL0     C90857   3.556   3.428  10.041 -0.2560  0.0221  0.1773
  674MOL0     O90858   3.423   3.455  10.044 -0.5055  0.1462 -0.1378
  674MOL0     C90859   3.375   3.583  10.019 -1.1037  0.3010 -0.0427
  674MOL0     C90860   3.450   3.691  10.075 -0.0612 -0.4574  1.0707
  674MOL0     C90861   3.399   3.819  10.051  0.4294  0.2247  0.1478
  674MOL0     C90862   3.285   3.842   9.979  0.3136 -0.1998  0.4005
  674MOL0     O90863   3.248   3.971   9.950  0.3188 -0.5270 -0.5467
  674MOL0     C90864   3.134   4.009   9.865 -0.0415 -0.2688 -0.3695
  674MOL0     C90865   3.185   4.034   9.719  0.5387 -0.2185  0.2400
  674MOL0     C90866   3.070   4.018   9.621  0.4509 -0.1316  0.1530
  674MOL0     C90867   3.117   4.045   9.478  0.1141  0.4689  0.0689
  674MOL0     C90868   2.995   4.044   9.385 -0.0642  0.1376 -0.2520
  674MOL0     C90869   2.954   3.910   9.312  0.4073  0.1671  0.7329
  674MOL0     C90870   2.818   3.863   9.344 -0.4007 -0.0402  0.2752
  674MOL0     C90871   2.805   3.790   9.485  0.2842  0.0922  0.7735
  674MOL0     N90872   2.890   3.663   9.480  0.1575  1.1538  0.2549
  674MOL0     C90873   2.854   3.545   9.417  0.3058 -0.1931 -1.0010
  674MOL0     C90874   2.918   3.449   9.491  0.7286  0.2083 -0.3655
  674MOL0     C90875   2.943   3.296   9.454  0.0710 -0.0783 -0.5680
  674MOL0     C90876   2.925   3.220   9.582  0.1525  0.6857  0.5021
  674MOL0     C90877   2.786   3.235   9.651 -0.0320 -0.6801 -0.0171
  674MOL0     C90878   2.675   3.178   9.555 -0.5492  0.1065 -0.7311
  674MOL0     O90879   2.642   3.260   9.445 -0.3524 -0.9018 -0.8550
  674MOL0     C90880   2.554   3.368   9.470 -0.0312  0.0004 -0.7224
  674MOL0     C90881   2.521   3.465   9.376  0.4025 -0.6178 -0.5343
  674MOL0     C90882   2.429   3.569   9.406 -0.0446 -0.6246  0.0584
  674MOL0     C90883   2.392   3.648   9.283 -0.5300 -0.2556 -0.5190
  674MOL0     C90884   2.375   3.593   9.536  0.0278  0.0822 -0.0528
  674MOL0     C90885   2.265   3.694   9.571 -0.0159  0.4449 -0.3453
  674MOL0     O90886   2.263   3.803   9.488  0.8844 -0.4994  0.0815
  674MOL0     C90887   2.211   3.918   9.537  1.0371  0.5680  0.5614
  674MOL0     C90888   2.165   4.012   9.450  0.9783 -0.5395  0.4586
  674MOL0     C90889   2.123   4.144   9.479 -0.0046  0.4307  0.1909
  674MOL0     C90890   2.124   4.188   9.611 -1.1308  0.8902  0.4063
  674MOL0     O90891   2.091   4.323   9.642  0.7444 -0.2730 -0.5157
  674MOL0     C90892   2.063   4.357   9.782  0.5561  0.1585  0.6283
  674MOL0     C90893   1.985   4.490   9.781 -0.1804 -1.3242 -0.6657
  674MOL0     C90894   1.824   4.471   9.785  0.0055 -0.1628 -1.4363
  674MOL0     C90895   1.754   4.607   9.807 -0.3070 -0.8661 -0.0774
  674MOL0     C90896   1.604   4.578   9.776 -0.0137  0.6235 -0.1539
  674MOL0     C90897   1.511   4.684   9.844 -0.0451 -0.6438 -0.5001
  674MOL0     C90898   1.551   4.832   9.821 -0.0072 -0.2824 -1.3506
  674MOL0     C90899   1.471   4.894   9.714  0.2264  0.0340  0.0415
  674MOL0    Cl90900   1.526   4.830   9.561 -0.2310 -0.1331  0.1150
  674MOL0     C90901   2.170   4.086   9.703  0.6221  0.6953 -0.1481
  674MOL0     C90902   2.211   3.956   9.671  0.0554 -0.9811 -0.1682
  674MOL0     O90903   2.183   3.667   9.666  0.3217  0.6994  0.5643
  674MOL0     C90904   2.416   3.500   9.631  0.6658  0.5147 -0.5485
  674MOL0     C90905   2.498   3.394   9.600 -0.1216  0.6489  0.7831
  674MOL0     N90906   2.978   3.512   9.602 -0.5023  0.3456 -0.3184
  674MOL0     N90907   2.980   3.638   9.579  0.3307  0.2669  0.1445
  674MOL0     C90908   3.205   3.737   9.928 -0.8915 -0.2053  0.4568
  674MOL0     C90909   3.250   3.602   9.950 -0.1256  0.8930  0.2205
  674MOL0     C90910   3.590   3.302  10.088  0.3253  0.0314  0.6005
  674MOL0     C90911   3.700   3.287  10.164 -0.2332 -0.4508 -1.1225
  674MOL0     C90912   3.752   3.165  10.192 -0.2527  0.2462 -0.0220
  674MOL0     C90913   3.681   3.048  10.163 -0.6149 -0.5542  0.3904
  674MOL0     O90914   3.727   2.919  10.183  0.6806 -0.1048 -0.3275
  674MOL0     C90915   3.830   2.914  10.272 -1.0930 -0.1523 -0.9564
  674MOL0     C90916   3.882   2.768  10.302 -0.1683 -0.4812 -0.3589
  674MOL0     C90917   3.841   2.673  10.192  1.2437 -0.8370 -1.0317
  674MOL0     C90918   3.907   2.696  10.059  0.0463  0.7362 -0.5642
  674MOL0     C90919   4.034   2.628  10.060 -0.2791  0.7764  0.3022
  674MOL0     C90920   4.126   2.551  10.040 -0.4285 -0.9431  0.2933
  674MOL0     C90921   3.569   3.063  10.086  0.0989 -0.1459  0.2864
  674MOL0     C90922   3.511   3.186  10.057 -0.0761  0.0064  0.3891
  674MOL0     H90923   3.547   3.687  10.124 -0.3986  4.0104  2.6410
  674MOL0     H90924   3.439   3.905  10.104 -1.3842  3.3590 -3.1371
  674MOL0     H90925   3.058   3.931   9.865  1.3152 -1.7453 -3.6172
  674MOL0     H90926   3.096   4.107   9.897 -0.4661 -0.1344 -1.2378
  674MOL0     H90927   3.229   4.134   9.714  0.2315 -0.0966 -0.1146
  674MOL0     H90928   3.266   3.963   9.701  0.3172 -0.8109  1.5106
  674MOL0     H90929   3.026   3.918   9.625 -0.8914  0.2774 -2.6264
  674MOL0     H90930   2.992   4.091   9.642 -1.3777 -1.7563 -0.7035
  674MOL0     H90931   3.149   4.149   9.477  0.4356  0.3738 -0.5254
  674MOL0     H90932   3.191   3.971   9.445 -0.4770  0.0115 -0.2583
  674MOL0     H90933   2.909   4.087   9.438  0.5791 -0.5511  1.4285
  674MOL0     H90934   3.009   4.115   9.303  0.8676  0.6769  0.3468
  674MOL0     H90935   2.938   3.929   9.206 -0.6845 -0.5965  0.7445
  674MOL0     H90936   3.026   3.828   9.317  0.1506 -0.1510 -0.4479
  674MOL0     H90937   2.744   3.944   9.343 -0.2947  0.0542  0.1517
  674MOL0     H90938   2.788   3.785   9.273  1.1430  1.5601 -2.2796
  674MOL0     H90939   2.702   3.762   9.512  0.4852  0.8280  2.4152
  674MOL0     H90940   2.838   3.850   9.570  0.2656 -0.6949  1.3473
  674MOL0     H90941   2.800   3.531   9.324 -1.0905  3.2472 -0.8302
  674MOL0     H90942   2.882   3.260   9.370  1.6298 -0.5524 -1.5487
  674MOL0     H90943   3.043   3.284   9.411  0.4354 -0.6074  0.4006
  674MOL0     H90944   2.987   3.253   9.666  0.8439 -1.8364  1.0813
  674MOL0     H90945   2.955   3.115   9.572  2.4752  1.1352  1.8926
  674MOL0     H90946   2.765   3.338   9.682 -0.9759 -1.2560  1.3641
  674MOL0     H90947   2.774   3.171   9.739  2.8190 -0.6775  0.4529
  674MOL0     H90948   2.586   3.152   9.612  0.7441  1.4168  2.0898
  674MOL0     H90949   2.722   3.086   9.519  0.8617  1.1099 -1.5337
  674MOL0     H90950   2.556   3.441   9.277 -0.8216 -1.2492 -0.8292
  674MOL0     H90951   2.407   3.583   9.196 -0.1768 -1.7190  0.5850
  674MOL0     H90952   2.289   3.684   9.272  0.8720  4.8168  0.5753
  674MOL0     H90953   2.452   3.739   9.273  1.2501 -1.4799 -1.7696
  674MOL0     H90954   2.167   3.994   9.343  0.6042  1.5769  0.0529
  674MOL0     H90955   2.110   4.211   9.394 -0.1348  2.5453  1.8189
  674MOL0     H90956   2.006   4.286   9.844  0.8692  0.6709  1.5168
  674MOL0     H90957   2.164   4.364   9.823  0.4739 -0.8259  1.0447
  674MOL0     H90958   2.019   4.547   9.868 -2.3016 -0.7273 -0.1784
  674MOL0     H90959   2.007   4.565   9.703 -1.1802  0.7308  0.9328
  674MOL0     H90960   1.799   4.418   9.877  2.9859  0.7959  0.0395
  674MOL0     H90961   1.780   4.410   9.705 -1.3128 -2.8419  1.1730
  674MOL0     H90962   1.774   4.661   9.900 -0.8625  2.3986 -1.7174
  674MOL0     H90963   1.793   4.671   9.728  0.3087 -0.9335  0.1656
  674MOL0     H90964   1.571   4.484   9.820  1.3786  0.5639  0.8414
  674MOL0     H90965   1.592   4.584   9.667 -0.0085  0.4531 -0.1623
  674MOL0     H90966   1.408   4.670   9.810 -0.4576  2.9766 -1.1796
  674MOL0     H90967   1.517   4.670   9.952 -2.2291  0.7229 -0.1313
  674MOL0     H90968   1.656   4.832   9.790  0.2658 -2.0898 -0.5668
  674MOL0     H90969   1.535   4.894   9.910  1.8503 -2.7574  0.8912
  674MOL0     H90970   1.481   5.003   9.721 -0.8040  0.0721  1.6272
  674MOL0     H90971   1.364   4.874   9.729 -0.2943  2.3704 -0.0832
  674MOL0     H90972   2.181   4.110   9.809  1.0468 -1.5129  0.3726
  674MOL0     H90973   2.250   3.895   9.752 -0.1829 -1.7929 -0.6542
  674MOL0     H90974   2.382   3.524   9.731 -2.3674 -0.2364 -1.2862
  674MOL0     H90975   2.508   3.317   9.675 -2.2190 -0.0138  0.4380
  674MOL0     H90976   3.119   3.757   9.865  0.9116  2.3429 -1.3886
  674MOL0     H90977   3.197   3.512   9.918 -2.3639  1.0443  3.1159
  674MOL0     H90978   3.759   3.377  10.176  1.9944 -1.8011 -1.3755
  674MOL0     H90979   3.849   3.173  10.240 -0.2459 -0.0478  0.0152
  674MOL0     H90980   3.915   2.973  10.236 -1.8582  1.2601 -0.5404
  674MOL0     H90981   3.806   2.954  10.371  2.4756  0.2091 -0.1145
  674MOL0     H90982   3.855   2.733  10.402  1.2897 -2.4260 -0.5926
  674MOL0     H90983   3.991   2.772  10.302 -0.1769  0.1702  0.9222
  674MOL0     H90984   3.732   2.672  10.183  1.1942  2.8307 -2.5789
  674MOL0     H90985   3.861   2.568  10.217 -2.1800 -1.4861 -0.5332
  674MOL0     H90986   3.930   2.803  10.053 -1.0327  1.1538  1.7324
  674MOL0     H90987   3.839   2.656   9.983 -1.7986 -0.3918  1.5488
  674MOL0     H90988   4.199   2.476  10.017 -1.4005 -1.2636 -2.0548
  674MOL0     H90989   3.503   2.978  10.068 -2.1901  1.7131 -0.7855
  674MOL0     H90990   3.420   3.198   9.998 -0.0372  0.8773  0.5036
  675MOL0     O90991   0.946   4.070   2.159 -0.1621  0.0861  0.0806
  675MOL0     C90992   0.902   4.160   2.093  0.6219  0.2873 -0.1645
  675MOL0     O90993   0.962   4.280   2.069 -0.3257  0.2423 -0.0287
  675MOL0     C90994   1.069   4.308   2.147 -0.4944  0.2498 -0.7062
  675MOL0     C90995   1.194   4.320   2.089 -0.4363  0.0201 -0.1680
  675MOL0     C90996   1.312   4.340   2.162  1.0982 -0.5065  0.4879
  675MOL0     C90997   1.297   4.361   2.302 -0.4902  0.1958  1.4075
  675MOL0     O90998   1.408   4.379   2.388  0.0629 -0.0724 -0.5576
  675MOL0     C90999   1.465   4.510   2.358  0.1963 -0.3115  0.4342
  675MOL0     C91000   1.581   4.539   2.449  0.0356 -0.7428 -0.2793
  675MOL0     C91001   1.706   4.450   2.413 -0.1219 -0.3706 -0.0560
  675MOL0     C91002   1.813   4.483   2.511 -0.3492 -0.3757 -0.1147
  675MOL0     C91003   1.921   4.388   2.474 -0.4087  0.3157  0.3192
  675MOL0     C91004   2.002   4.428   2.335  0.9253  0.6992 -0.0618
  675MOL0     C91005   2.107   4.322   2.296 -0.3760 -0.3909  0.5359
  675MOL0     C91006   2.185   4.356   2.169  0.3383  0.5377  0.3101
  675MOL0     N91007   2.231   4.492   2.154  0.6520 -0.7655  0.2168
  675MOL0     C91008   2.356   4.537   2.198 -0.1344 -0.1213 -0.1803
  675MOL0     C91009   2.356   4.668   2.160 -0.5835  0.2604  0.1925
  675MOL0     C91010   2.468   4.767   2.186  0.0659  0.3888  0.8604
  675MOL0     C91011   2.615   4.711   2.165 -0.5345 -0.6823 -0.6548
  675MOL0     C91012   2.673   4.630   2.284  0.7797 -0.1142 -0.3329
  675MOL0     C91013   2.752   4.720   2.385 -0.2852  0.9602 -0.1545
  675MOL0     O91014   2.869   4.775   2.318  0.4442 -0.1748  0.2674
  675MOL0     C91015   2.986   4.822   2.387 -0.5024  0.1008 -0.3236
  675MOL0     C91016   3.082   4.873   2.297 -0.8662  0.5010 -0.3595
  675MOL0     C91017   3.201   4.922   2.348  0.9416  0.5140 -0.1073
  675MOL0     C91018   3.286   5.006   2.254  0.0739  0.5671  0.8057
  675MOL0     C91019   3.231   4.909   2.491 -0.5569 -0.2082  1.5210
  675MOL0     C91020   3.364   4.946   2.540  0.0914 -0.7750 -0.1402
  675MOL0     O91021   3.367   4.996   2.668  0.6743 -0.3055  0.0582
  675MOL0     C91022   3.494   5.007   2.717 -0.6968  0.0729 -0.4052
  675MOL0     C91023   3.583   5.114   2.683 -0.3874 -0.2434 -0.6729
  675MOL0     C91024   3.698   5.122   2.747 -0.0179 -0.5873 -0.0821
  675MOL0     C91025   3.736   5.033   2.856  0.9084  0.3323  1.0451
  675MOL0     O91026   3.861   5.040   2.915 -0.4353  0.6146 -0.2482
  675MOL0     C91027   3.938   5.152   2.883 -0.7613  0.8013 -0.1021
  675MOL0     C91028   4.075   5.128   2.950  0.9310  0.8821  0.2045
  675MOL0     C91029   4.089   5.196   3.088  1.0368  0.3477 -0.6691
  675MOL0     C91030   3.966   5.176   3.186 -0.5700 -0.5996  0.0945
  675MOL0     C91031   3.930   5.034   3.226  0.5114  0.1292  0.4418
  675MOL0     C91032   3.809   5.032   3.318  0.4380 -0.2152 -0.4342
  675MOL0     C91033   3.804   4.900   3.398  0.9588  0.8732 -0.3549
  675MOL0     C91034   3.663   4.885   3.460  0.3736  0.7321 -0.6746
  675MOL0    Cl91035   3.538   4.848   3.347 -0.4420 -0.0236  0.4323
  675MOL0     C91036   3.645   4.936   2.894 -0.0634  0.0904 -0.4759
  675MOL0     C91037   3.526   4.919   2.820 -0.6180  0.4537  0.3004
  675MOL0     O91038   3.468   4.921   2.474 -0.1762  0.1021  0.0177
  675MOL0     C91039   3.126   4.869   2.579 -0.1613  0.5247 -0.9168
  675MOL0     C91040   3.002   4.833   2.526  0.8339 -0.7137  0.6059
  675MOL0     N91041   2.238   4.704   2.108 -0.4695  0.7470  0.6015
  675MOL0     N91042   2.171   4.595   2.090 -0.0176 -0.1359  0.3316
  675MOL0     C91043   1.174   4.348   2.360 -0.4105 -0.1779  0.2094
  675MOL0     C91044   1.059   4.314   2.287  0.0800 -0.1976 -0.7635
  675MOL0     C91045   0.772   4.130   2.022 -0.8118 -0.0397 -0.1464
  675MOL0     C91046   0.701   4.233   1.967 -0.5998  0.1168  0.1282
  675MOL0     C91047   0.565   4.211   1.920  0.3706  0.3502  0.0435
  675MOL0     C91048   0.516   4.081   1.912 -0.0027  0.6875  0.2918
  675MOL0     O91049   0.405   4.047   1.839 -0.1612  0.4447 -0.5664
  675MOL0     C91050   0.286   4.125   1.847  0.0232  0.2564 -1.0220
  675MOL0     C91051   0.167   4.035   1.803 -0.1300 -0.1266  0.2730
  675MOL0     C91052   0.034   4.102   1.816 -1.4093 -0.6680  0.1752
  675MOL0     C91053  -0.011   4.087   1.965 -0.4648 -0.8532  0.0610
  675MOL0     C91054  -0.144   4.133   1.974  0.2795 -0.8211  0.2431
  675MOL0     C91055  -0.256   4.179   1.945 -0.2420  0.2399 -0.2498
  675MOL0     C91056   0.600   3.969   1.945  0.3614 -0.3344 -0.5430
  675MOL0     C91057   0.720   3.996   2.006 -0.2191 -0.7299  0.0093
  675MOL0     H91058   1.180   4.307   1.982  1.6803 -0.6635 -0.4066
  675MOL0     H91059   1.409   4.319   2.117  1.5365 -1.5080  1.8311
  675MOL0     H91060   1.507   4.527   2.259 -0.4271 -0.9321  0.0526
  675MOL0     H91061   1.380   4.576   2.378 -0.5810 -0.3878 -2.2247
  675MOL0     H91062   1.606   4.644   2.432  1.5301 -0.8735  0.8767
  675MOL0     H91063   1.547   4.525   2.553 -1.5555 -1.4648 -0.8532
  675MOL0     H91064   1.676   4.346   2.425  1.7845 -1.2099 -1.8554
  675MOL0     H91065   1.738   4.477   2.312 -1.0336  2.6125  0.3524
  675MOL0     H91066   1.852   4.584   2.499 -1.4416  0.2888  1.5743
  675MOL0     H91067   1.785   4.465   2.615  1.4887 -0.1946  0.4457
  675MOL0     H91068   1.995   4.395   2.555  1.1463 -0.5572 -0.9831
  675MOL0     H91069   1.888   4.284   2.472  2.4138 -0.7928  2.7897
  675MOL0     H91070   1.941   4.435   2.244  0.3997  1.5793  0.3504
  675MOL0     H91071   2.052   4.524   2.349 -0.7009  1.4846  0.5494
  675MOL0     H91072   2.182   4.321   2.376 -1.0510  0.1721  1.1911
  675MOL0     H91073   2.059   4.224   2.284  0.0304 -0.6939  1.3124
  675MOL0     H91074   2.124   4.319   2.086  1.0360  1.4219 -0.6261
  675MOL0     H91075   2.273   4.292   2.171 -1.1761 -1.6561  0.8437
  675MOL0     H91076   2.439   4.488   2.248 -2.4111 -1.4422  2.6240
  675MOL0     H91077   2.442   4.852   2.123 -1.4370 -1.3219 -0.9764
  675MOL0     H91078   2.452   4.794   2.290 -0.2804 -1.7687  1.4308
  675MOL0     H91079   2.680   4.797   2.149  0.8624 -1.5634  0.0896
  675MOL0     H91080   2.621   4.648   2.075  1.4731  1.8879 -2.4577
  675MOL0     H91081   2.748   4.557   2.254  2.1643  1.2620 -0.3818
  675MOL0     H91082   2.596   4.573   2.337  0.7982  0.0379 -0.1401
  675MOL0     H91083   2.791   4.649   2.458 -0.9751  1.3607  0.6249
  675MOL0     H91084   2.689   4.795   2.433 -1.0650  2.5049 -3.2926
  675MOL0     H91085   3.051   4.858   2.194  0.5213  0.1655 -0.7408
  675MOL0     H91086   3.225   5.043   2.170  3.5397  2.6179 -1.0442
  675MOL0     H91087   3.321   5.096   2.306  1.0234  0.9180 -0.3888
  675MOL0     H91088   3.362   4.937   2.216 -1.4630  0.0848 -1.6391
  675MOL0     H91089   3.565   5.189   2.606 -3.2391 -0.5257 -0.4174
  675MOL0     H91090   3.778   5.181   2.702  1.0743 -2.3637 -0.5741
  675MOL0     H91091   3.957   5.154   2.775  0.7856  0.0149  0.1312
  675MOL0     H91092   3.897   5.248   2.916 -1.1063  1.0276 -1.1459
  675MOL0     H91093   4.089   5.022   2.975 -2.3460  0.7283  2.0262
  675MOL0     H91094   4.152   5.170   2.886  0.4733  3.1727  1.0624
  675MOL0     H91095   4.100   5.301   3.061 -1.9900  0.7448 -0.7312
  675MOL0     H91096   4.181   5.165   3.137  0.6860 -2.3589 -1.5321
  675MOL0     H91097   3.997   5.229   3.276 -0.7598 -0.0142 -0.1776
  675MOL0     H91098   3.878   5.227   3.144  2.4695  2.2341 -3.5648
  675MOL0     H91099   4.019   4.997   3.278  1.0267  0.8279  0.0733
  675MOL0     H91100   3.900   4.968   3.144  1.0469  0.0643  0.2967
  675MOL0     H91101   3.809   5.106   3.399 -0.2236  0.7888 -1.3205
  675MOL0     H91102   3.717   5.042   3.259 -1.8371 -1.5816  2.6008
  675MOL0     H91103   3.875   4.908   3.482 -0.4148 -2.5369  1.3330
  675MOL0     H91104   3.820   4.808   3.342 -1.2817  0.7211 -0.8157
  675MOL0     H91105   3.641   4.973   3.520  2.8671 -1.1574  3.4367
  675MOL0     H91106   3.665   4.798   3.527 -1.3481 -0.8447 -2.5177
  675MOL0     H91107   3.670   4.857   2.964 -0.5299 -2.2919 -2.8458
  675MOL0     H91108   3.454   4.840   2.840  0.9145 -0.3748  3.1909
  675MOL0     H91109   3.141   4.881   2.686 -1.2127  1.4533 -0.8594
  675MOL0     H91110   2.913   4.814   2.585  0.4896 -1.6288 -0.1859
  675MOL0     H91111   1.173   4.360   2.468 -4.1060 -0.0873  0.3134
  675MOL0     H91112   0.969   4.303   2.348  0.8620  0.2989  0.5285
  675MOL0     H91113   0.733   4.336   1.955 -1.6979  0.4916  0.2932
  675MOL0     H91114   0.486   4.277   1.888 -0.6908 -1.1156 -0.4609
  675MOL0     H91115   0.263   4.154   1.951  0.5728 -0.0030 -0.8271
  675MOL0     H91116   0.303   4.214   1.785 -1.2581  1.6176  0.4542
  675MOL0     H91117   0.158   3.941   1.858 -2.2025  0.8461  1.7179
  675MOL0     H91118   0.177   4.021   1.695 -0.2380  2.4964 -0.1316
  675MOL0     H91119  -0.027   4.044   1.746 -0.5704  0.8887 -1.9387
  675MOL0     H91120   0.040   4.204   1.779  2.7953 -1.0635 -0.6967
  675MOL0     H91121   0.053   4.143   2.034 -2.9920  4.1349 -1.1965
  675MOL0     H91122  -0.011   3.986   2.008  2.0500 -0.3209  1.5505
  675MOL0     H91123  -0.352   4.222   1.924 -0.7204  0.4623  2.0607
  675MOL0     H91124   0.567   3.867   1.930  2.4696 -0.8165 -2.2542
  675MOL0     H91125   0.788   3.917   2.036  1.1338 -0.1129 -1.3033
  676MOL0     O91126  11.098  11.264   2.668 -0.2207  0.0742 -1.0814
  676MOL0     C91127  11.184  11.243   2.585 -0.2570 -0.6099 -0.3014
  676MOL0     O91128  11.161  11.238   2.455 -1.0658 -0.0150  0.7638
  676MOL0     C91129  11.040  11.282   2.404 -0.3416 -0.2034 -0.6589
  676MOL0     C91130  10.921  11.221   2.438 -0.7267 -0.9472 -0.7133
  676MOL0     C91131  10.794  11.273   2.398 -0.4062  0.1347 -0.1891
  676MOL0     C91132  10.797  11.381   2.296  0.9457 -0.1920 -0.7274
  676MOL0     O91133  10.674  11.404   2.259  0.3795 -0.0007  0.1530
  676MOL0     C91134  10.635  11.458   2.131  0.0658  0.3470 -0.3653
  676MOL0     C91135  10.541  11.358   2.070 -0.5638 -0.5947  0.1181
  676MOL0     C91136  10.591  11.213   2.028 -0.4448 -0.2028  0.1534
  676MOL0     C91137  10.727  11.213   1.956  0.7007 -0.6063  0.5008
  676MOL0     C91138  10.766  11.075   1.903  0.0382 -0.4957 -0.1567
  676MOL0     C91139  10.906  11.058   1.861 -0.2291  0.3016  0.2470
  676MOL0     C91140  10.965  10.915   1.872  0.0327 -0.3820  0.1902
  676MOL0     C91141  11.087  10.890   1.783 -0.6226  0.6454  1.0049
  676MOL0     N91142  11.204  10.965   1.817 -0.3986  0.2980 -0.8316
  676MOL0     C91143  11.287  10.942   1.927  0.1945 -0.4431 -0.0312
  676MOL0     C91144  11.389  11.023   1.908 -0.2800  0.1556  0.0720
  676MOL0     C91145  11.491  11.051   2.015 -0.0307 -0.5154 -0.1460
  676MOL0     C91146  11.421  11.096   2.145  1.2306  0.3575 -0.6092
  676MOL0     C91147  11.334  11.228   2.135 -0.3812  0.5181  0.2884
  676MOL0     C91148  11.392  11.353   2.079  0.2998 -0.1334  0.3415
  676MOL0     O91149  11.302  11.466   2.108 -0.2606  0.3252 -0.2917
  676MOL0     C91150  11.197  11.501   2.033  0.0612 -0.5204  0.3957
  676MOL0     C91151  11.148  11.438   1.914 -0.9866  0.1642  0.1339
  676MOL0     C91152  11.039  11.478   1.833  0.9884  1.4406 -0.4342
  676MOL0     C91153  11.013  11.397   1.697 -0.4418  0.0817 -0.3515
  676MOL0     C91154  10.972  11.593   1.879 -0.4492 -0.2297 -0.5841
  676MOL0     C91155  10.864  11.668   1.799 -0.3284  0.4652 -0.4000
  676MOL0     O91156  10.853  11.636   1.667  0.4064  0.7616 -0.1272
  676MOL0     C91157  10.737  11.668   1.600  0.2543 -0.4310 -0.3376
  676MOL0     C91158  10.726  11.790   1.540 -0.5909 -0.6501  0.2751
  676MOL0     C91159  10.622  11.819   1.456 -0.2390 -0.0921 -0.0185
  676MOL0     C91160  10.510  11.733   1.449 -0.1307  1.0735 -0.4146
  676MOL0     O91161  10.413  11.774   1.360  0.1933 -0.1466 -0.5533
  676MOL0     C91162  10.289  11.698   1.365 -0.1421 -0.1584 -0.7764
  676MOL0     C91163  10.164  11.765   1.301 -0.4330 -0.2480 -0.6184
  676MOL0     C91164  10.134  11.898   1.383 -0.7574 -0.5853  0.0003
  676MOL0     C91165  10.057  11.859   1.508 -0.1010 -0.2153 -0.0578
  676MOL0     C91166  10.054  11.985   1.590  0.1891 -0.5378 -0.6550
  676MOL0     C91167   9.952  11.967   1.709  0.3653  0.6518  0.3374
  676MOL0     C91168   9.929  12.106   1.771  0.2213 -0.2657 -0.2763
  676MOL0     C91169  10.053  12.153   1.854  0.9816  0.1552  0.8276
  676MOL0    Cl91170  10.033  12.329   1.898  0.0821 -0.3739  0.0376
  676MOL0     C91171  10.518  11.609   1.509 -0.6227 -0.5995 -1.2910
  676MOL0     C91172  10.642  11.576   1.585  0.6054  0.2536  0.3620
  676MOL0     O91173  10.787  11.743   1.862 -0.4760 -0.3860  0.0499
  676MOL0     C91174  11.006  11.660   2.001 -0.4566 -0.3542  0.4395
  676MOL0     C91175  11.116  11.609   2.080  0.1939 -0.7285  0.0328
  676MOL0     N91176  11.382  11.086   1.788 -0.2107 -0.3115 -0.2185
  676MOL0     N91177  11.268  11.054   1.732  0.2080  0.7606  0.2473
  676MOL0     C91178  10.917  11.433   2.258 -0.5086 -1.5648 -0.2090
  676MOL0     C91179  11.037  11.388   2.315  0.0059  0.1078 -0.8641
  676MOL0     C91180  11.324  11.233   2.639  0.3215  0.1625 -0.7779
  676MOL0     C91181  11.418  11.164   2.569  0.3588  0.4644  0.6160
  676MOL0     C91182  11.551  11.164   2.615 -0.3018 -1.4461  0.3209
  676MOL0     C91183  11.586  11.215   2.734 -0.3282 -0.0823  0.2080
  676MOL0     O91184  11.720  11.215   2.757 -0.3877 -0.4755 -0.0992
  676MOL0     C91185  11.770  11.269   2.881  0.6736  0.0338  0.3947
  676MOL0     C91186  11.919  11.248   2.886  0.4109  0.4748  0.5228
  676MOL0     C91187  11.988  11.344   2.982  0.6662  0.3499 -0.3717
  676MOL0     C91188  12.132  11.317   3.033 -0.2963 -1.1192 -0.2188
  676MOL0     C91189  12.212  11.278   2.917 -0.2230  0.6303 -0.0053
  676MOL0     C91190  12.276  11.228   2.824  0.8197 -0.0853  0.0449
  676MOL0     C91191  11.490  11.263   2.820 -0.0326 -0.2990 -0.1656
  676MOL0     C91192  11.360  11.269   2.775 -0.0509  0.0303 -0.3887
  676MOL0     H91193  10.925  11.139   2.509  1.7821  0.6846  1.2108
  676MOL0     H91194  10.700  11.221   2.419  0.4742 -2.6651 -2.5813
  676MOL0     H91195  10.589  11.554   2.157  2.8339  0.9207  3.2205
  676MOL0     H91196  10.714  11.468   2.056 -2.3298  4.2148 -2.6921
  676MOL0     H91197  10.471  11.331   2.150  0.1718 -2.2434  0.2320
  676MOL0     H91198  10.496  11.403   1.981 -1.0450 -0.2803  0.5112
  676MOL0     H91199  10.612  11.151   2.115 -0.2037  1.9598  1.7062
  676MOL0     H91200  10.519  11.154   1.970 -0.2929 -0.3916  0.1534
  676MOL0     H91201  10.715  11.285   1.874  5.2305  0.0662  0.1379
  676MOL0     H91202  10.813  11.251   2.012  2.7133  0.6366 -3.1270
  676MOL0     H91203  10.742  11.012   1.990 -0.8648  0.4703  0.3003
  676MOL0     H91204  10.697  11.037   1.828  1.3988  0.7115 -2.0935
  676MOL0     H91205  10.916  11.098   1.760  1.2929 -0.8931 -0.1004
  676MOL0     H91206  10.977  11.122   1.914  0.6103 -0.5972  0.2295
  676MOL0     H91207  11.002  10.902   1.974  1.5343  3.8397  0.3918
  676MOL0     H91208  10.892  10.837   1.846  1.1831 -0.9138 -1.6846
  676MOL0     H91209  11.065  10.913   1.678  5.0085 -0.0854 -0.6904
  676MOL0     H91210  11.115  10.785   1.790 -1.3861  0.5129  2.4044
  676MOL0     H91211  11.267  10.871   2.006 -0.7286  1.9196  1.9677
  676MOL0     H91212  11.557  10.967   2.040  0.5262  0.3105  1.2647
  676MOL0     H91213  11.551  11.135   1.977  0.8257 -0.1425  1.9123
  676MOL0     H91214  11.493  11.113   2.226  1.1414  1.2743 -0.7083
  676MOL0     H91215  11.354  11.015   2.174 -3.0802  4.4527  2.3934
  676MOL0     H91216  11.289  11.253   2.232 -2.4912  1.3268 -0.8278
  676MOL0     H91217  11.244  11.213   2.073 -0.8363 -0.8501  1.2343
  676MOL0     H91218  11.404  11.348   1.970  0.7376 -1.7005  0.4406
  676MOL0     H91219  11.492  11.371   2.120 -0.5190 -0.0232  2.3843
  676MOL0     H91220  11.193  11.343   1.888 -0.8546  0.4327 -0.6383
  676MOL0     H91221  10.910  11.360   1.707 -0.1202 -0.3665  1.8096
  676MOL0     H91222  11.037  11.474   1.623 -0.0798  0.6381  0.3397
  676MOL0     H91223  11.084  11.314   1.690  1.4774  1.6072  0.1706
  676MOL0     H91224  10.815  11.851   1.546 -0.7740 -0.1410 -1.5728
  676MOL0     H91225  10.629  11.908   1.393  1.2386  0.2181  0.5445
  676MOL0     H91226  10.307  11.603   1.315 -0.2778 -1.0024  0.7085
  676MOL0     H91227  10.260  11.682   1.470  0.8062 -1.4893 -0.6888
  676MOL0     H91228  10.199  11.786   1.199  0.3036 -0.0797 -0.3366
  676MOL0     H91229  10.080  11.695   1.302 -0.0638 -0.8867  3.4199
  676MOL0     H91230  10.074  11.969   1.325 -1.4325 -0.3963  0.9077
  676MOL0     H91231  10.231  11.943   1.404 -0.3690 -1.2192 -0.4065
  676MOL0     H91232   9.953  11.839   1.482 -0.4327  0.4624  0.6815
  676MOL0     H91233  10.101  11.779   1.568  0.9417 -0.3046 -0.9000
  676MOL0     H91234  10.036  12.071   1.525 -0.8184 -1.7464 -2.0430
  676MOL0     H91235  10.156  11.985   1.632  0.1617  0.9696 -0.5098
  676MOL0     H91236   9.863  11.920   1.666 -0.7610  1.0543  2.1139
  676MOL0     H91237   9.986  11.893   1.783 -5.8068 -2.5706  0.6119
  676MOL0     H91238   9.842  12.088   1.834  1.5814 -0.6048  1.5988
  676MOL0     H91239   9.906  12.169   1.684 -0.0804 -1.6898 -1.2591
  676MOL0     H91240  10.140  12.144   1.788  0.7264 -1.6704  0.7030
  676MOL0     H91241  10.074  12.085   1.937  1.1917 -0.8218 -0.0121
  676MOL0     H91242  10.435  11.539   1.503 -3.0432  1.4564  3.1953
  676MOL0     H91243  10.664  11.472   1.608 -0.6505 -0.3253 -0.8962
  676MOL0     H91244  10.961  11.753   2.034 -0.2712  0.4706 -1.5407
  676MOL0     H91245  11.149  11.639   2.179 -2.1716  2.4484  0.0411
  676MOL0     H91246  10.902  11.505   2.179 -0.7996 -3.7404 -2.2504
  676MOL0     H91247  11.135  11.429   2.296  0.1691  0.4864  0.6920
  676MOL0     H91248  11.393  11.123   2.472 -0.1592  2.2431 -0.0384
  676MOL0     H91249  11.621  11.115   2.548 -1.9051 -2.3897 -0.7288
  676MOL0     H91250  11.739  11.374   2.882  1.6105  0.3236  0.2005
  676MOL0     H91251  11.721  11.222   2.967  0.3649  0.9901  0.7553
  676MOL0     H91252  11.960  11.269   2.786  1.6786  1.2071  1.1734
  676MOL0     H91253  11.945  11.144   2.903 -0.2525 -0.2298 -2.1873
  676MOL0     H91254  11.923  11.352   3.070  1.1067 -0.2962  0.0237
  676MOL0     H91255  11.995  11.445   2.942  1.5936  0.0662 -0.9479
  676MOL0     H91256  12.129  11.234   3.104  1.9305  0.7476  2.2141
  676MOL0     H91257  12.173  11.401   3.089  0.8183 -3.1326  2.1337
  676MOL0     H91258  12.317  11.196   2.731 -0.0640 -0.0980 -0.3501
  676MOL0     H91259  11.510  11.276   2.926 -2.6729  0.9831  0.2558
  676MOL0     H91260  11.277  11.287   2.843  1.1402 -2.1575  1.8077
  677MOL0     O91261   3.640   9.108   0.055 -0.7126 -0.1028 -0.4782
  677MOL0     C91262   3.633   9.149   0.169 -0.0490 -0.1441 -0.6132
  677MOL0     O91263   3.724   9.234   0.233  0.3622 -0.3187 -0.2809
  677MOL0     C91264   3.832   9.293   0.167 -0.1374 -0.7038  0.5052
  677MOL0     C91265   3.835   9.343   0.037 -0.3851  0.5894  0.0545
  677MOL0     C91266   3.957   9.372  -0.033  0.3289  0.0122 -0.6442
  677MOL0     C91267   4.074   9.394   0.037  0.4106 -0.9706 -0.2378
  677MOL0     O91268   4.183   9.458  -0.015 -0.7581  0.4253 -0.0862
  677MOL0     C91269   4.184   9.507  -0.151 -0.2822 -0.0895 -0.0983
  677MOL0     C91270   4.315   9.594  -0.174  0.8026  0.2448  0.4095
  677MOL0     C91271   4.322   9.722  -0.093  0.3581 -0.0348 -0.7409
  677MOL0     C91272   4.436   9.809  -0.135  0.5332  0.4174  0.3880
  677MOL0     C91273   4.432   9.949  -0.062  0.0653  0.2563  0.1992
  677MOL0     C91274   4.575  10.007  -0.068 -0.7845 -0.0019  0.0652
  677MOL0     C91275   4.584  10.150   0.005 -1.0967  0.8892  1.5615
  677MOL0     C91276   4.674  10.255  -0.069 -1.0015 -0.1913 -1.3808
  677MOL0     N91277   4.653  10.257  -0.215  0.8329 -0.1272  0.7420
  677MOL0     C91278   4.542  10.313  -0.275 -0.1859 -0.4989  0.8702
  677MOL0     C91279   4.555  10.286  -0.404  0.5207  0.0875  0.2356
  677MOL0     C91280   4.449  10.341  -0.505  0.0529  0.0638 -0.7944
  677MOL0     C91281   4.419  10.249  -0.619  0.1214  0.3626  0.2798
  677MOL0     C91282   4.397  10.101  -0.587  0.5777  0.3556 -0.4015
  677MOL0     C91283   4.261  10.070  -0.523 -0.0126  0.2678  0.4342
  677MOL0     O91284   4.284   9.956  -0.444  0.3166  0.5707 -0.1071
  677MOL0     C91285   4.167   9.891  -0.401  0.2014  0.4161  0.6115
  677MOL0     C91286   4.096   9.923  -0.279 -0.5229  0.2573  0.2857
  677MOL0     C91287   3.982   9.861  -0.233 -0.6084 -0.5841  0.2327
  677MOL0     C91288   3.927   9.898  -0.100 -0.4367 -0.5195 -0.6839
  677MOL0     C91289   3.923   9.757  -0.316 -0.7266 -0.8820 -0.1605
  677MOL0     C91290   3.805   9.667  -0.277 -0.1494 -0.6424 -0.5568
  677MOL0     O91291   3.751   9.591  -0.366  0.1180 -0.0163 -0.2799
  677MOL0     C91292   3.654   9.502  -0.323 -1.5710 -0.3683  0.1895
  677MOL0     C91293   3.687   9.369  -0.290  0.0070 -0.1536  0.8419
  677MOL0     C91294   3.599   9.264  -0.277 -0.2871 -0.3511 -0.1999
  677MOL0     C91295   3.458   9.304  -0.278 -0.5246 -0.1313 -0.2532
  677MOL0     O91296   3.362   9.209  -0.267  0.6800 -0.3149  1.0382
  677MOL0     C91297   3.403   9.078  -0.316  0.7723  1.6538 -0.9306
  677MOL0     C91298   3.275   8.985  -0.309 -0.3213  0.1101 -0.4139
  677MOL0     C91299   3.241   8.950  -0.156 -0.5831 -0.7057  0.5541
  677MOL0     C91300   3.135   8.841  -0.140  0.6360  0.7154 -0.7109
  677MOL0     C91301   3.103   8.795   0.005  0.8290 -1.0295 -0.1615
  677MOL0     C91302   3.226   8.730   0.063 -0.5577  0.4373  0.3206
  677MOL0     C91303   3.195   8.642   0.179 -0.5714  0.2006  0.6090
  677MOL0     C91304   3.152   8.503   0.133  0.4698 -0.1640  0.0580
  677MOL0    Cl91305   3.137   8.403   0.277 -0.1317  0.3345 -0.4635
  677MOL0     C91306   3.426   9.435  -0.290  1.3324 -0.4592  0.6799
  677MOL0     C91307   3.520   9.535  -0.316  0.1829 -0.3602  0.2623
  677MOL0     O91308   3.768   9.678  -0.160  0.2463 -1.5043  0.1820
  677MOL0     C91309   3.991   9.732  -0.440 -0.5422 -0.3947 -0.0632
  677MOL0     C91310   4.110   9.793  -0.482  0.1533  0.6451 -0.9792
  677MOL0     N91311   4.679  10.216  -0.420 -0.2615 -0.2911 -0.5017
  677MOL0     N91312   4.729  10.192  -0.308 -0.1351  0.3147 -0.9851
  677MOL0     C91313   4.071   9.351   0.178  0.2135  0.0016  0.3897
  677MOL0     C91314   3.947   9.309   0.241 -0.4696  0.8902  0.5729
  677MOL0     C91315   3.504   9.113   0.242 -0.8840 -1.2051  0.4411
  677MOL0     C91316   3.385   9.066   0.170 -0.2206 -0.6780 -0.4224
  677MOL0     C91317   3.266   9.041   0.236  0.8398 -0.6139 -0.2519
  677MOL0     C91318   3.258   9.069   0.371  1.9500 -0.5556 -0.9694
  677MOL0     O91319   3.132   9.062   0.437  0.3735  0.4698  0.4434
  677MOL0     C91320   3.097   8.935   0.473  0.2248  0.5558  0.1839
  677MOL0     C91321   2.940   8.921   0.467 -0.3414 -0.3388 -0.4881
  677MOL0     C91322   2.898   8.793   0.542  0.8223  0.2169  0.0194
  677MOL0     C91323   2.749   8.785   0.545  0.0089  0.5281  0.1806
  677MOL0     C91324   2.709   8.674   0.629  0.1366 -0.1300  0.4057
  677MOL0     C91325   2.660   8.583   0.697 -0.7696 -0.1102 -0.2468
  677MOL0     C91326   3.367   9.121   0.438  0.6718  0.3239  0.6338
  677MOL0     C91327   3.489   9.142   0.377 -0.1272 -0.3688 -0.6635
  677MOL0     H91328   3.744   9.329  -0.021 -0.7721 -0.9372  0.9674
  677MOL0     H91329   3.950   9.390  -0.140 -2.4100  0.6631 -0.4336
  677MOL0     H91330   4.188   9.421  -0.219  1.6410 -0.6985  0.7326
  677MOL0     H91331   4.089   9.558  -0.172 -1.4761 -0.6154  3.4049
  677MOL0     H91332   4.409   9.541  -0.157  1.6782  1.8690  0.8028
  677MOL0     H91333   4.321   9.623  -0.280  2.1841 -3.8551 -0.8217
  677MOL0     H91334   4.234   9.786  -0.104  1.1391  1.3986  0.9567
  677MOL0     H91335   4.335   9.701   0.014 -2.3978 -0.3534 -0.3833
  677MOL0     H91336   4.530   9.759  -0.111  1.2217  2.1152  1.4588
  677MOL0     H91337   4.436   9.821  -0.243 -2.2798  0.3785  0.3044
  677MOL0     H91338   4.357  10.018  -0.101  0.8984  0.7170 -0.6377
  677MOL0     H91339   4.406   9.937   0.043 -2.8189  1.7178 -0.2529
  677MOL0     H91340   4.643   9.937  -0.019  0.8786  1.4616 -0.0779
  677MOL0     H91341   4.603  10.022  -0.173  0.2111  2.3457  0.6050
  677MOL0     H91342   4.486  10.196   0.016 -1.5607  0.5797 -0.7177
  677MOL0     H91343   4.643  10.126   0.094  3.9431  1.3706 -1.2647
  677MOL0     H91344   4.779  10.231  -0.049 -1.3800 -0.7122  0.1277
  677MOL0     H91345   4.643  10.355  -0.037 -0.8464 -1.2594  2.6618
  677MOL0     H91346   4.465  10.372  -0.229  1.1667  0.9623  1.3562
  677MOL0     H91347   4.365  10.364  -0.440  2.2182  0.9014  1.9162
  677MOL0     H91348   4.484  10.438  -0.541  1.1912 -0.8396 -2.2623
  677MOL0     H91349   4.501  10.257  -0.691  0.3683 -0.0883  0.5044
  677MOL0     H91350   4.333  10.289  -0.674  1.9771  0.8989 -2.4647
  677MOL0     H91351   4.470  10.050  -0.524 -1.1080 -1.3028  0.3345
  677MOL0     H91352   4.405  10.056  -0.687 -3.7010 -0.3892 -0.6143
  677MOL0     H91353   4.183  10.052  -0.597 -1.5091  1.9576  1.5044
  677MOL0     H91354   4.221  10.152  -0.461  0.5883  0.0649  1.1109
  677MOL0     H91355   4.151   9.992  -0.216 -2.9175  2.9833 -0.4102
  677MOL0     H91356   3.821   9.914  -0.078  0.0726 -0.6185  2.3576
  677MOL0     H91357   3.975   9.837  -0.023 -0.2365 -0.2765 -0.6142
  677MOL0     H91358   3.960  10.000  -0.077 -0.1751 -0.1047 -2.7754
  677MOL0     H91359   3.793   9.347  -0.289  0.4484  0.9172 -3.2718
  677MOL0     H91360   3.637   9.163  -0.264  0.7337 -0.0705 -0.8603
  677MOL0     H91361   3.444   9.088  -0.417 -0.5024  0.1075 -1.6453
  677MOL0     H91362   3.474   9.037  -0.243  1.0726 -1.3087 -2.7140
  677MOL0     H91363   3.200   9.040  -0.366 -0.5941  0.2999  0.1285
  677MOL0     H91364   3.283   8.896  -0.372  0.3697  0.0503 -0.2489
  677MOL0     H91365   3.212   9.050  -0.123 -1.9017 -1.2497  1.0853
  677MOL0     H91366   3.329   8.901  -0.113 -1.5657 -1.9403  1.2002
  677MOL0     H91367   3.043   8.881  -0.185 -1.9704  0.6217  3.8788
  677MOL0     H91368   3.165   8.752  -0.195  3.0944 -0.4453  2.2161
  677MOL0     H91369   3.019   8.725   0.002  0.0169 -0.0915  0.2347
  677MOL0     H91370   3.065   8.875   0.069  0.4385 -2.0534  0.9175
  677MOL0     H91371   3.281   8.676  -0.014  3.5418  2.6516  1.3992
  677MOL0     H91372   3.292   8.812   0.094  1.0758  0.4010 -2.6696
  677MOL0     H91373   3.123   8.683   0.251 -3.6388  0.3447 -2.2641
  677MOL0     H91374   3.290   8.635   0.232 -1.0790 -1.7609  1.3107
  677MOL0     H91375   3.225   8.459   0.065  1.1231  0.7410  0.1583
  677MOL0     H91376   3.055   8.511   0.081  0.8944 -0.7101 -0.8366
  677MOL0     H91377   3.323   9.470  -0.295  1.1743 -0.9904  0.1492
  677MOL0     H91378   3.491   9.639  -0.331  2.3631  0.5481  1.7839
  677MOL0     H91379   3.955   9.660  -0.513 -0.4506  1.8799 -2.5366
  677MOL0     H91380   4.169   9.764  -0.569 -0.5868 -1.1579 -0.9180
  677MOL0     H91381   4.163   9.350   0.236  0.3039 -1.3663  0.2470
  677MOL0     H91382   3.937   9.280   0.345 -2.7492 -1.1316 -0.0962
  677MOL0     H91383   3.403   9.040   0.066 -2.5068 -0.6258 -0.8843
  677MOL0     H91384   3.174   9.036   0.178 -0.1415  0.9792  1.0864
  677MOL0     H91385   3.146   8.863   0.407  1.1482  0.1661  1.2660
  677MOL0     H91386   3.149   8.924   0.568 -2.1226 -2.4872  1.3050
  677MOL0     H91387   2.900   8.909   0.365 -4.8705 -1.0442  1.1522
  677MOL0     H91388   2.909   9.016   0.510  3.1430  0.5018  0.5178
  677MOL0     H91389   2.933   8.801   0.646  1.7208  1.9299 -0.3756
  677MOL0     H91390   2.938   8.702   0.498 -1.3354  0.6734 -3.2035
  677MOL0     H91391   2.699   8.780   0.448 -1.1594 -1.8476  0.8415
  677MOL0     H91392   2.707   8.877   0.588  1.8433  1.0670  0.8808
  677MOL0     H91393   2.618   8.506   0.759 -1.0978  0.6563  0.4936
  677MOL0     H91394   3.351   9.153   0.541 -2.1778  1.7758 -0.1303
  677MOL0     H91395   3.578   9.178   0.427 -0.5285  1.1794 -0.9963
  678MOL0     O91396   3.179   5.624   8.116  0.5034 -0.0751 -0.9939
  678MOL0     C91397   3.176   5.733   8.169 -0.7332 -0.3812  0.1611
  678MOL0     O91398   3.282   5.790   8.241  0.1391 -0.0176 -0.2897
  678MOL0     C91399   3.400   5.716   8.250  0.6860  0.5903  0.1109
  678MOL0     C91400   3.470   5.676   8.137 -1.5683 -0.4668 -0.1136
  678MOL0     C91401   3.603   5.618   8.147  0.6664  0.3621  0.0339
  678MOL0     C91402   3.653   5.598   8.283 -0.0070 -0.6311 -0.4586
  678MOL0     O91403   3.780   5.536   8.288 -0.0620  0.6308 -0.0331
  678MOL0     C91404   3.781   5.393   8.288 -0.6005  0.0886 -0.6851
  678MOL0     C91405   3.900   5.344   8.207  0.2344  0.4593  0.3474
  678MOL0     C91406   3.888   5.194   8.195 -0.0320 -0.0717  1.0075
  678MOL0     C91407   3.996   5.145   8.092 -0.1816 -0.1747  1.0637
  678MOL0     C91408   3.935   5.129   7.949 -0.3248  0.1269 -0.1256
  678MOL0     C91409   3.838   5.011   7.932  0.5722  0.1738 -0.8685
  678MOL0     C91410   3.805   4.969   7.785  0.5165  0.2443  0.0775
  678MOL0     C91411   3.683   5.029   7.718  0.8401  0.3151 -0.1004
  678MOL0     N91412   3.685   5.171   7.758 -0.3306  0.6272  0.2803
  678MOL0     C91413   3.758   5.272   7.685  1.4320  0.1125  0.2995
  678MOL0     C91414   3.722   5.385   7.749 -0.3452 -1.1987  0.6734
  678MOL0     C91415   3.772   5.533   7.718 -0.3992  0.5696 -0.3167
  678MOL0     C91416   3.677   5.638   7.766  0.1047 -0.0331 -1.1346
  678MOL0     C91417   3.687   5.782   7.711 -0.1255  0.3147  0.3435
  678MOL0     C91418   3.596   5.808   7.590  0.0211 -0.8413 -0.2976
  678MOL0     O91419   3.578   5.680   7.519 -0.0076  0.3488  0.2539
  678MOL0     C91420   3.456   5.663   7.447 -0.8020  0.4982 -0.1767
  678MOL0     C91421   3.433   5.740   7.334 -0.8478 -0.5210 -0.1815
  678MOL0     C91422   3.318   5.724   7.260 -0.1083 -0.2432 -0.2662
  678MOL0     C91423   3.296   5.835   7.153  1.9202 -0.1403  0.0231
  678MOL0     C91424   3.236   5.610   7.287  0.7242 -0.3393  1.2037
  678MOL0     C91425   3.099   5.590   7.209 -0.0904 -0.7390  1.1238
  678MOL0     O91426   3.003   5.514   7.271  0.4427 -0.5764 -0.2813
  678MOL0     C91427   2.879   5.488   7.203  0.9222 -0.6769 -0.4753
  678MOL0     C91428   2.794   5.421   7.283  0.0396  0.0641 -0.2011
  678MOL0     C91429   2.666   5.390   7.239  0.0503  0.2822  0.3305
  678MOL0     C91430   2.615   5.437   7.111  1.5635  0.7869  0.0805
  678MOL0     O91431   2.496   5.377   7.076  0.3866  0.3256  0.2660
  678MOL0     C91432   2.393   5.459   7.011 -1.5950 -0.0905 -0.0389
  678MOL0     C91433   2.260   5.397   7.061 -0.0410 -0.2773  0.6460
  678MOL0     C91434   2.131   5.480   7.028 -0.4214  0.4264 -0.6643
  678MOL0     C91435   2.131   5.617   7.086  1.0495  0.5008  0.1486
  678MOL0     C91436   2.020   5.708   7.017 -0.2113  0.1079 -0.0836
  678MOL0     C91437   1.884   5.665   7.067 -0.7719 -0.1741  0.1471
  678MOL0     C91438   1.779   5.766   7.031 -0.2519 -0.4038  0.3984
  678MOL0     C91439   1.642   5.720   7.083 -0.9759  0.1164  0.6230
  678MOL0    Cl91440   1.603   5.557   7.038  0.4533  0.1829  0.2248
  678MOL0     C91441   2.698   5.510   7.026  0.5263 -0.2400 -0.4513
  678MOL0     C91442   2.826   5.547   7.081  0.1585  0.3844 -0.6620
  678MOL0     O91443   3.089   5.646   7.100  0.1311  0.1320  0.4282
  678MOL0     C91444   3.278   5.518   7.387  0.3884  0.0394  0.2390
  678MOL0     C91445   3.394   5.540   7.467 -0.0317 -1.0414 -0.0902
  678MOL0     N91446   3.630   5.356   7.851 -0.5416  0.0505  0.3353
  678MOL0     N91447   3.608   5.237   7.855 -0.5404  0.3248 -0.7166
  678MOL0     C91448   3.587   5.635   8.399 -0.3137 -0.3684 -0.5002
  678MOL0     C91449   3.461   5.702   8.384  0.4861 -0.1710  0.6762
  678MOL0     C91450   3.046   5.811   8.163  0.3322 -0.8553 -0.3792
  678MOL0     C91451   3.009   5.879   8.279  0.0013 -0.1944 -0.1141
  678MOL0     C91452   2.885   5.943   8.295  0.3537 -0.1424  0.2305
  678MOL0     C91453   2.793   5.924   8.189  0.6712  0.8871 -0.0254
  678MOL0     O91454   2.667   5.978   8.196 -0.4626 -0.1471 -0.5291
  678MOL0     C91455   2.599   5.958   8.319  0.1643 -0.0893 -1.0098
  678MOL0     C91456   2.453   5.954   8.288  0.3009  0.1710  0.4044
  678MOL0     C91457   2.357   5.937   8.410 -0.3572  1.2108 -0.1242
  678MOL0     C91458   2.211   5.936   8.378  0.5236 -0.3323 -0.4629
  678MOL0     C91459   2.172   5.796   8.336  0.8674  0.2145  0.0736
  678MOL0     C91460   2.138   5.686   8.283  0.5697 -0.1131 -0.1921
  678MOL0     C91461   2.835   5.858   8.063  0.2192  0.4845 -0.2741
  678MOL0     C91462   2.958   5.797   8.052  0.4351 -0.4227  0.0665
  678MOL0     H91463   3.437   5.704   8.037 -0.0093  1.0995 -0.2403
  678MOL0     H91464   3.657   5.597   8.055  1.7868  0.2511  0.6956
  678MOL0     H91465   3.782   5.358   8.392 -1.9587 -2.5123 -1.4492
  678MOL0     H91466   3.681   5.366   8.251 -1.9454 -2.2789  3.9034
  678MOL0     H91467   3.897   5.397   8.111 -0.6883 -0.1561  0.0175
  678MOL0     H91468   3.983   5.375   8.271  0.0429  1.4888  0.1219
  678MOL0     H91469   3.890   5.149   8.294 -4.4327 -0.8317  0.9781
  678MOL0     H91470   3.787   5.171   8.160 -0.3896 -0.3182  2.1880
  678MOL0     H91471   4.069   5.227   8.093  0.4311 -0.5869 -1.3860
  678MOL0     H91472   4.042   5.050   8.119 -1.4821 -2.1537 -2.8192
  678MOL0     H91473   3.873   5.218   7.933 -2.2110 -1.6333 -3.7613
  678MOL0     H91474   4.012   5.129   7.871 -1.1332  1.4030 -0.9639
  678MOL0     H91475   3.881   4.916   7.966  0.4022 -0.2777 -1.8840
  678MOL0     H91476   3.739   5.023   7.978 -0.8975  0.2102 -3.8135
  678MOL0     H91477   3.891   4.989   7.720 -1.4171  1.6330 -2.2035
  678MOL0     H91478   3.785   4.862   7.784  0.4972  0.2379 -1.8795
  678MOL0     H91479   3.586   4.997   7.756  0.1475  1.6475 -0.6875
  678MOL0     H91480   3.677   5.019   7.610 -1.1453  3.0803 -0.3585
  678MOL0     H91481   3.813   5.253   7.593  1.9130  0.5986  0.4765
  678MOL0     H91482   3.868   5.556   7.765 -1.3656 -0.2946  2.2833
  678MOL0     H91483   3.790   5.548   7.611 -3.0374  0.7389 -0.7996
  678MOL0     H91484   3.711   5.645   7.870  0.8896  0.1140 -1.3937
  678MOL0     H91485   3.572   5.609   7.764 -0.5969  1.8280  1.8195
  678MOL0     H91486   3.790   5.795   7.675  0.1817 -2.3483  0.1109
  678MOL0     H91487   3.675   5.858   7.789 -1.1031 -0.8935  1.4171
  678MOL0     H91488   3.638   5.891   7.532 -0.0934  3.6483  5.1801
  678MOL0     H91489   3.501   5.845   7.630  0.7979 -0.3250  1.1608
  678MOL0     H91490   3.497   5.827   7.325  1.2876 -1.7182  2.3017
  678MOL0     H91491   3.292   5.795   7.052  2.2565  2.3999 -1.0696
  678MOL0     H91492   3.209   5.895   7.180  1.0162 -2.2314  2.0621
  678MOL0     H91493   3.379   5.907   7.151  1.6649  0.2161 -3.4220
  678MOL0     H91494   2.817   5.395   7.386 -3.2004  3.4647  1.6426
  678MOL0     H91495   2.603   5.323   7.297  0.3934  0.1714  0.5758
  678MOL0     H91496   2.400   5.565   7.037 -1.0924 -0.3726  1.0465
  678MOL0     H91497   2.403   5.441   6.904  2.5348 -4.6238  0.7240
  678MOL0     H91498   2.248   5.292   7.031  2.8427 -0.2265 -1.1229
  678MOL0     H91499   2.269   5.410   7.169  2.7131  0.9871  0.3480
  678MOL0     H91500   2.041   5.429   7.061  0.0249 -0.8117 -1.2892
  678MOL0     H91501   2.131   5.494   6.920  1.9534  0.4325 -0.7155
  678MOL0     H91502   2.106   5.613   7.193  1.2652  1.7863  0.2710
  678MOL0     H91503   2.234   5.653   7.071  2.6043 -2.7052  2.1102
  678MOL0     H91504   2.028   5.711   6.908 -0.9072  0.8361 -0.1270
  678MOL0     H91505   2.028   5.815   7.041  0.6724  0.0679 -0.1928
  678MOL0     H91506   1.859   5.567   7.026 -0.7960 -0.6074  1.1538
  678MOL0     H91507   1.871   5.655   7.176 -1.4472  0.0421  0.0930
  678MOL0     H91508   1.778   5.769   6.921 -2.1344  1.6861  0.3861
  678MOL0     H91509   1.806   5.864   7.071 -1.7585  0.3914 -0.4238
  678MOL0     H91510   1.570   5.793   7.044  0.4601  1.5587  0.5517
  678MOL0     H91511   1.638   5.722   7.193 -4.9776  0.1511  0.6133
  678MOL0     H91512   2.667   5.534   6.925 -0.4321  0.7603  0.0557
  678MOL0     H91513   2.889   5.589   7.004  2.2910 -0.7127  0.4010
  678MOL0     H91514   3.214   5.434   7.413 -1.8268  2.4260  3.2995
  678MOL0     H91515   3.427   5.479   7.551  0.8347  2.2059  2.0904
  678MOL0     H91516   3.634   5.604   8.492  1.0414 -0.2052 -1.1150
  678MOL0     H91517   3.413   5.733   8.476 -2.7419 -3.5969  0.3779
  678MOL0     H91518   3.087   5.881   8.355  3.3629  3.4851 -3.1685
  678MOL0     H91519   2.872   6.008   8.381  0.7263 -0.1818  0.3177
  678MOL0     H91520   2.618   5.865   8.374 -3.8498 -1.2306 -1.2312
  678MOL0     H91521   2.618   6.041   8.388 -1.1963 -0.0191 -0.7020
  678MOL0     H91522   2.453   5.877   8.211  0.0445 -0.2283  0.7971
  678MOL0     H91523   2.431   6.045   8.231  2.8488  0.2971 -0.4817
  678MOL0     H91524   2.383   6.006   8.490 -0.1625  1.2168 -0.1919
  678MOL0     H91525   2.380   5.835   8.443  0.2243  1.2572 -0.3660
  678MOL0     H91526   2.183   6.011   8.303 -1.3363  1.5049  1.9084
  678MOL0     H91527   2.145   5.942   8.465 -0.1777  1.4838 -1.0867
  678MOL0     H91528   2.128   5.598   8.223  3.0633  0.1903 -1.1737
  678MOL0     H91529   2.755   5.860   7.989 -2.0833 -1.3903  1.9622
  678MOL0     H91530   2.998   5.740   7.969  0.5102  1.4208 -1.2368
  679MOL0     O91531   4.493   2.988   9.318 -0.0153 -0.4623  0.2956
  679MOL0     C91532   4.492   3.053   9.420  0.0337 -0.4415 -0.0310
  679MOL0     O91533   4.390   3.119   9.469  0.1135 -0.0292 -0.5230
  679MOL0     C91534   4.273   3.124   9.388 -0.1456 -0.6935  0.0988
  679MOL0     C91535   4.165   3.055   9.425 -0.1628 -0.6050 -0.3453
  679MOL0     C91536   4.045   3.076   9.360 -0.6975  0.0479 -0.6079
  679MOL0     C91537   4.036   3.164   9.249  0.7283  0.0789  0.2632
  679MOL0     O91538   3.918   3.193   9.173 -0.0361 -0.6235 -0.1126
  679MOL0     C91539   3.787   3.177   9.223  0.9645 -0.2145  0.3125
  679MOL0     C91540   3.741   3.261   9.339 -0.0918  0.4334 -0.5080
  679MOL0     C91541   3.763   3.413   9.325  0.6485  0.9402  0.3135
  679MOL0     C91542   3.648   3.468   9.232 -0.1039  0.2409  0.5918
  679MOL0     C91543   3.630   3.618   9.230  0.6820 -0.2291 -0.2440
  679MOL0     C91544   3.756   3.664   9.142  0.1541 -0.3255  0.4677
  679MOL0     C91545   3.738   3.818   9.119 -0.1179  0.5878  1.1506
  679MOL0     C91546   3.827   3.876   9.007  0.5384 -0.3514 -1.4626
  679MOL0     N91547   3.816   4.024   9.024  0.0278  0.4044 -0.2622
  679MOL0     C91548   3.707   4.097   9.025  0.0065  0.2085 -0.1939
  679MOL0     C91549   3.752   4.228   9.011  0.2528  0.4402 -0.0937
  679MOL0     C91550   3.666   4.354   8.995 -0.0481 -0.1949 -0.0180
  679MOL0     C91551   3.533   4.322   8.924 -0.7713  0.4138  0.1287
  679MOL0     C91552   3.428   4.431   8.879 -0.4660  0.8719 -1.1552
  679MOL0     C91553   3.399   4.522   8.995 -0.4095 -0.4617  0.5605
  679MOL0     O91554   3.293   4.618   8.960  0.2939  0.4512 -1.0306
  679MOL0     C91555   3.157   4.588   8.976 -0.3018 -0.0714  0.1135
  679MOL0     C91556   3.113   4.464   9.033 -0.2419  0.2718  0.6724
  679MOL0     C91557   2.975   4.423   9.021 -1.4828  0.0255  0.7659
  679MOL0     C91558   2.929   4.303   9.092 -0.3570 -0.0031  0.2180
  679MOL0     C91559   2.887   4.508   8.952 -0.1924  0.2326 -0.3685
  679MOL0     C91560   2.735   4.475   8.930 -0.5641 -0.7763 -0.3277
  679MOL0     O91561   2.669   4.416   9.028  0.1235  0.6221  0.9680
  679MOL0     C91562   2.535   4.385   9.013 -0.2470 -0.5500  0.2943
  679MOL0     C91563   2.448   4.491   8.979 -0.5159  0.2125  0.4190
  679MOL0     C91564   2.313   4.463   8.955  0.5612  0.2132 -0.1931
  679MOL0     C91565   2.258   4.328   8.996  0.6301 -1.5762  0.3935
  679MOL0     O91566   2.115   4.317   8.988 -0.1659  0.4922 -0.4837
  679MOL0     C91567   2.060   4.213   9.069 -0.2735 -0.5619  0.3647
  679MOL0     C91568   1.924   4.257   9.124 -0.4653  0.3855  0.5796
  679MOL0     C91569   1.846   4.150   9.194  0.1103  0.1194 -0.1617
  679MOL0     C91570   1.732   4.216   9.281  0.6499 -0.2230 -0.1005
  679MOL0     C91571   1.662   4.101   9.359  0.0401  0.5596 -0.1804
  679MOL0     C91572   1.540   4.162   9.441  0.3405  0.0510 -0.2688
  679MOL0     C91573   1.447   4.051   9.494  1.0909 -0.0517  0.0258
  679MOL0     C91574   1.320   4.109   9.572 -0.0784 -0.5238  0.1171
  679MOL0    Cl91575   1.390   4.180   9.723 -0.2123  0.5814  0.1995
  679MOL0     C91576   2.344   4.230   9.043  0.1460  0.3231  0.0125
  679MOL0     C91577   2.482   4.262   9.043 -0.1916  0.1218 -0.0425
  679MOL0     O91578   2.692   4.499   8.819 -0.5479  0.7130 -0.1639
  679MOL0     C91579   2.935   4.625   8.898  0.2717  0.3844 -0.8563
  679MOL0     C91580   3.068   4.668   8.901 -0.4683  1.1382 -0.7145
  679MOL0     N91581   3.885   4.234   9.040 -0.8241  0.0383  0.4070
  679MOL0     N91582   3.920   4.107   9.037  0.6768 -0.2275  0.5288
  679MOL0     C91583   4.156   3.220   9.210  0.9363 -0.0724 -0.6649
  679MOL0     C91584   4.276   3.199   9.272 -0.4266  0.0828 -0.0890
  679MOL0     C91585   4.607   3.043   9.512 -0.8213  0.0997 -0.9313
  679MOL0     C91586   4.641   3.137   9.609  0.2558  0.4371  0.6260
  679MOL0     C91587   4.761   3.132   9.668  0.1373 -0.7495  0.0867
  679MOL0     C91588   4.859   3.035   9.641  0.2146  0.2265 -0.0175
  679MOL0     O91589   4.986   3.019   9.694  0.1113 -0.2280  0.4812
  679MOL0     C91590   5.035   3.101   9.803 -0.1160  1.0957  0.2643
  679MOL0     C91591   5.166   3.022   9.840 -0.6543 -0.4938 -0.8483
  679MOL0     C91592   5.247   3.084   9.953 -0.7613 -0.1176  0.3233
  679MOL0     C91593   5.215   3.034  10.100 -0.1131 -0.0265  0.5936
  679MOL0     C91594   5.254   2.892  10.114  0.0836  0.7358 -0.4701
  679MOL0     C91595   5.279   2.769  10.123 -0.2349  0.2791  0.6963
  679MOL0     C91596   4.821   2.935   9.557 -0.2644 -0.2662  0.4996
  679MOL0     C91597   4.697   2.931   9.500 -0.2659  0.0225  0.0055
  679MOL0     H91598   4.158   2.992   9.513  2.3695 -0.8379 -0.2263
  679MOL0     H91599   3.962   3.025   9.408  0.4659 -2.0133 -0.7043
  679MOL0     H91600   3.713   3.196   9.144 -1.2727 -2.3959  1.7269
  679MOL0     H91601   3.770   3.073   9.255 -4.1853  0.7712  1.8324
  679MOL0     H91602   3.636   3.246   9.365 -0.0020  2.2812  1.1557
  679MOL0     H91603   3.807   3.230   9.421  0.0185 -0.0305 -0.7713
  679MOL0     H91604   3.762   3.459   9.425 -0.2960  2.4840 -0.3537
  679MOL0     H91605   3.860   3.433   9.278 -0.4905  2.6470 -1.4952
  679MOL0     H91606   3.664   3.437   9.129  0.3501  0.7038  0.5195
  679MOL0     H91607   3.551   3.427   9.262 -0.5911  0.9768  0.0343
  679MOL0     H91608   3.533   3.644   9.187  0.2263  0.0528  0.9163
  679MOL0     H91609   3.623   3.659   9.331 -2.6049 -2.7485  0.7389
  679MOL0     H91610   3.853   3.640   9.187  0.0622 -0.7800  0.4294
  679MOL0     H91611   3.750   3.617   9.043  1.0893 -2.2023  1.2508
  679MOL0     H91612   3.634   3.823   9.084 -0.1083 -0.0939  1.0034
  679MOL0     H91613   3.762   3.867   9.214  2.2755 -0.0002  0.9173
  679MOL0     H91614   3.792   3.839   8.910 -1.3318  2.2840 -1.9039
  679MOL0     H91615   3.929   3.845   9.031 -0.9587 -3.9079  1.2610
  679MOL0     H91616   3.605   4.065   9.007  0.1360  0.9094 -2.5615
  679MOL0     H91617   3.643   4.394   9.094  0.8745 -1.5549  0.7852
  679MOL0     H91618   3.713   4.438   8.945  0.3249 -0.2118  0.3048
  679MOL0     H91619   3.486   4.241   8.981  3.0173 -2.3249 -0.2525
  679MOL0     H91620   3.568   4.274   8.831 -2.1140  2.2119 -1.3838
  679MOL0     H91621   3.332   4.387   8.850 -1.0868  0.0973  1.7648
  679MOL0     H91622   3.472   4.478   8.791  2.6023  1.5737  0.5895
  679MOL0     H91623   3.489   4.575   9.027  0.6678 -2.0114  0.1926
  679MOL0     H91624   3.363   4.462   9.079  0.5988 -0.2666  1.1396
  679MOL0     H91625   3.181   4.393   9.079 -2.5124 -1.4095  1.5511
  679MOL0     H91626   2.891   4.322   9.193 -3.1502 -0.1374 -0.7355
  679MOL0     H91627   2.848   4.257   9.037 -1.9280  0.4326  2.0519
  679MOL0     H91628   3.010   4.229   9.097  1.4781  1.8822  0.0564
  679MOL0     H91629   2.497   4.586   8.961 -1.0522  0.9805  2.7108
  679MOL0     H91630   2.249   4.542   8.918 -1.8253 -1.4352  0.1281
  679MOL0     H91631   2.029   4.129   9.005 -1.6593 -0.5924  1.0359
  679MOL0     H91632   2.123   4.184   9.154 -0.3060  2.1719  1.3876
  679MOL0     H91633   1.950   4.341   9.189 -0.2845 -2.0195  3.8254
  679MOL0     H91634   1.863   4.298   9.042 -2.3471  1.1315  2.2626
  679MOL0     H91635   1.918   4.101   9.260  3.0031  2.6272 -1.1782
  679MOL0     H91636   1.797   4.081   9.125 -1.6128 -0.0019  1.1347
  679MOL0     H91637   1.766   4.293   9.351  0.4035 -1.0256  0.9337
  679MOL0     H91638   1.655   4.255   9.213 -1.2547 -0.1694  1.9553
  679MOL0     H91639   1.738   4.061   9.427 -0.5485 -2.1116 -0.9790
  679MOL0     H91640   1.631   4.033   9.280  1.6268  1.4309 -1.6238
  679MOL0     H91641   1.580   4.221   9.523  0.2472 -2.3709  1.6448
  679MOL0     H91642   1.471   4.226   9.385 -2.2949 -0.0325  2.6170
  679MOL0     H91643   1.497   3.980   9.561 -0.6458 -2.6394 -1.2150
  679MOL0     H91644   1.418   3.981   9.415 -2.6711 -0.9270  1.9539
  679MOL0     H91645   1.256   4.023   9.593 -2.5988  0.4789 -2.7429
  679MOL0     H91646   1.267   4.180   9.507  2.1473 -0.9153 -2.3037
  679MOL0     H91647   2.324   4.124   9.052  2.2271 -0.2924 -1.7218
  679MOL0     H91648   2.550   4.189   9.086 -1.0578 -1.3713 -1.1221
  679MOL0     H91649   2.865   4.699   8.860 -0.1515  0.3101 -0.2322
  679MOL0     H91650   3.098   4.762   8.856 -0.0681 -0.7783 -4.9338
  679MOL0     H91651   4.162   3.284   9.122  4.9457  4.8534  2.6362
  679MOL0     H91652   4.362   3.255   9.238 -1.0321  0.4764 -1.0201
  679MOL0     H91653   4.573   3.221   9.619 -1.3020 -0.2282 -2.5906
  679MOL0     H91654   4.791   3.221   9.723 -0.3982 -0.0773 -0.6828
  679MOL0     H91655   5.061   3.197   9.759  0.7464 -0.3851 -2.7302
  679MOL0     H91656   4.971   3.108   9.892 -1.0388  0.2165 -0.2990
  679MOL0     H91657   5.224   3.017   9.747 -0.9644  0.7206 -1.1215
  679MOL0     H91658   5.140   2.923   9.878 -1.0116  0.3923  1.4119
  679MOL0     H91659   5.222   3.191   9.958 -3.9116 -0.7896  2.3764
  679MOL0     H91660   5.354   3.072   9.934 -1.0979 -1.5603 -0.7393
  679MOL0     H91661   5.108   3.040  10.119 -0.0738  1.0731  0.5472
  679MOL0     H91662   5.271   3.094  10.172 -0.2301  1.4035 -0.4539
  679MOL0     H91663   5.308   2.666  10.129  0.7795  0.6047  1.8669
  679MOL0     H91664   4.875   2.841   9.553 -2.8327 -1.7934 -2.3799
  679MOL0     H91665   4.681   2.850   9.429 -1.0569 -1.5355  1.8467
  680MOL0     O91666  10.594   2.020  10.649 -0.3394  0.9743 -0.4397
  680MOL0     C91667  10.504   1.956  10.698 -0.0163  0.4735  0.1511
  680MOL0     O91668  10.515   1.831  10.770 -0.1865 -0.1845  0.7903
  680MOL0     C91669  10.641   1.784  10.789 -0.0946  0.2501 -0.2482
  680MOL0     C91670  10.746   1.865  10.838 -0.1323 -0.7543 -0.6857
  680MOL0     C91671  10.866   1.810  10.873 -0.7926 -0.6422  0.0004
  680MOL0     C91672  10.905   1.681  10.829 -0.2885  0.4885  0.0396
  680MOL0     O91673  11.033   1.640  10.847 -0.0220  0.3447  0.0118
  680MOL0     C91674  11.073   1.513  10.889  0.6790  0.1859 -0.1082
  680MOL0     C91675  11.115   1.508  11.031  0.3290 -0.5448  0.1792
  680MOL0     C91676  11.018   1.551  11.141 -0.5217 -1.2111 -1.3111
  680MOL0     C91677  10.895   1.453  11.159  0.2176  1.3578 -0.0180
  680MOL0     C91678  10.786   1.502  11.267 -0.9631 -0.0772  0.1139
  680MOL0     C91679  10.647   1.430  11.254 -0.0289  0.6429  0.0285
  680MOL0     C91680  10.563   1.488  11.138  0.5359  0.5508 -0.9630
  680MOL0     C91681  10.459   1.394  11.088 -0.3245  0.0026  0.2284
  680MOL0     N91682  10.395   1.312  11.187  0.1680 -0.1812 -0.0774
  680MOL0     C91683  10.279   1.338  11.257 -0.2651  0.4242  0.5785
  680MOL0     C91684  10.230   1.222  11.307  0.0419  0.2862 -0.6851
  680MOL0     C91685  10.087   1.199  11.364  0.4266  0.6688 -0.0020
  680MOL0     C91686  10.092   1.168  11.508 -0.2516 -0.1103  0.2122
  680MOL0     C91687   9.955   1.154  11.563 -0.0086 -0.3036  0.4095
  680MOL0     C91688   9.904   1.014  11.565 -0.5396 -0.3567 -0.3616
  680MOL0     O91689   9.999   0.922  11.636  0.3300 -0.4298 -0.3482
  680MOL0     C91690   9.982   0.787  11.644 -0.7219 -0.1792  0.1600
  680MOL0     C91691  10.062   0.719  11.735 -0.7415  0.5990 -0.0259
  680MOL0     C91692  10.058   0.579  11.758  0.2568 -0.2896 -0.5071
  680MOL0     C91693  10.151   0.512  11.843  0.3457 -0.1105 -0.4715
  680MOL0     C91694   9.959   0.511  11.686  0.6674 -0.1601 -0.4263
  680MOL0     C91695   9.948   0.365  11.692 -0.0064  0.6429 -0.3862
  680MOL0     O91696   9.917   0.319  11.817 -0.0806 -0.6495 -0.4950
  680MOL0     C91697   9.925   0.185  11.846 -0.3163  0.9265 -0.5449
  680MOL0     C91698  10.044   0.125  11.901 -0.3912  0.2260  0.5341
  680MOL0     C91699  10.061  -0.006  11.918 -0.0075  0.7149 -0.3525
  680MOL0     C91700   9.957  -0.100  11.885 -0.1055 -0.3196  0.1888
  680MOL0     O91701   9.969  -0.233  11.902 -0.0430  0.2128 -0.0914
  680MOL0     C91702  10.073  -0.291  11.820 -0.0097  0.2281 -0.4527
  680MOL0     C91703  10.009  -0.318  11.679  0.2518  0.2346  0.2831
  680MOL0     C91704   9.896  -0.425  11.685 -0.3184 -0.3354 -0.0156
  680MOL0     C91705   9.851  -0.471  11.542 -0.2972 -0.9594 -0.3687
  680MOL0     C91706   9.820  -0.616  11.535  0.0055 -0.4030  0.3299
  680MOL0     C91707   9.711  -0.661  11.626 -0.0892 -0.0417 -0.6113
  680MOL0     C91708   9.559  -0.621  11.605  1.1573  0.5611  0.5275
  680MOL0     C91709   9.517  -0.669  11.460  0.6960  0.5749  0.2831
  680MOL0    Cl91710   9.555  -0.532  11.354  0.2679 -0.1637 -0.1808
  680MOL0     C91711   9.834  -0.044  11.831 -0.4826  0.6139 -0.4237
  680MOL0     C91712   9.816   0.095  11.808 -0.8683 -0.2186 -0.5187
  680MOL0     O91713   9.972   0.291  11.595  1.1660 -0.6345  0.3778
  680MOL0     C91714   9.883   0.579  11.591  0.8885  0.1472 -0.7569
  680MOL0     C91715   9.889   0.719  11.573 -0.9782 -0.4412  1.0985
  680MOL0     N91716  10.336   1.123  11.277 -0.0179 -1.0432 -0.2765
  680MOL0     N91717  10.423   1.183  11.206  0.4768 -0.2480 -0.5045
  680MOL0     C91718  10.804   1.599  10.781 -0.4314  0.3895  0.7389
  680MOL0     C91719  10.681   1.651  10.758 -0.7056 -0.6890  0.3178
  680MOL0     C91720  10.376   2.021  10.670 -0.0450  0.0636 -0.4048
  680MOL0     C91721  10.354   2.159  10.705 -0.3412  1.1604 -0.0302
  680MOL0     C91722  10.226   2.212  10.662  0.1758 -0.8024  0.9648
  680MOL0     C91723  10.129   2.136  10.588 -0.4880 -0.2869 -0.5956
  680MOL0     O91724  10.006   2.175  10.542 -0.2857 -0.3433  0.5068
  680MOL0     C91725   9.969   2.309  10.581  0.4534 -0.7806  0.2546
  680MOL0     C91726   9.864   2.355  10.478  1.1660 -0.8194  1.0831
  680MOL0     C91727   9.715   2.336  10.520  0.5420  0.3191 -0.3211
  680MOL0     C91728   9.639   2.469  10.511 -0.5002  0.3396 -0.1020
  680MOL0     C91729   9.502   2.464  10.571 -0.7004 -0.1974 -1.3262
  680MOL0     C91730   9.387   2.462  10.615  0.4549  1.2539 -0.1389
  680MOL0     C91731  10.158   2.007  10.564 -0.4041 -0.4352  0.3609
  680MOL0     C91732  10.282   1.949  10.598  0.6131  0.1631 -0.2428
  680MOL0     H91733  10.721   1.970  10.856 -1.9663 -1.4786  1.4775
  680MOL0     H91734  10.929   1.882  10.924 -1.0951 -0.8386  0.6700
  680MOL0     H91735  10.992   1.440  10.873  3.1216 -2.8832  0.4937
  680MOL0     H91736  11.164   1.480  10.838  2.0071  0.0394  2.2342
  680MOL0     H91737  11.143   1.405  11.055  1.5260  0.1700  2.0439
  680MOL0     H91738  11.209   1.561  11.046 -0.1426  0.3407  0.1035
  680MOL0     H91739  11.072   1.563  11.235 -0.5924  2.0305 -1.5869
  680MOL0     H91740  10.971   1.647  11.121 -1.5318 -0.9680  1.7035
  680MOL0     H91741  10.833   1.459  11.070 -2.7134  0.9158  1.8547
  680MOL0     H91742  10.919   1.354  11.199  2.9085  1.4786 -1.0800
  680MOL0     H91743  10.817   1.495  11.372  0.0865 -0.5400 -0.2075
  680MOL0     H91744  10.781   1.610  11.248 -1.0159 -0.3362 -1.5060
  680MOL0     H91745  10.661   1.322  11.247 -1.2278  0.3377  1.7030
  680MOL0     H91746  10.591   1.445  11.347  0.4899  1.0685  0.2844
  680MOL0     H91747  10.527   1.590  11.158  0.0494 -0.0777  1.7025
  680MOL0     H91748  10.630   1.499  11.053 -0.3957  2.0485 -1.5475
  680MOL0     H91749  10.496   1.321  11.015  2.5831 -0.5942  2.1101
  680MOL0     H91750  10.390   1.458  11.033  1.8928  1.4143 -1.0609
  680MOL0     H91751  10.219   1.429  11.261 -0.3825  0.3926 -0.3843
  680MOL0     H91752  10.030   1.291  11.354  0.7787  1.2420  2.5762
  680MOL0     H91753  10.027   1.123  11.313 -1.3265  1.4335  0.8659
  680MOL0     H91754  10.139   1.251  11.561 -0.8888  1.8462 -2.1057
  680MOL0     H91755  10.154   1.078  11.510 -0.8850 -0.5855 -0.9594
  680MOL0     H91756   9.899   1.222  11.498  3.4953  1.2552 -1.2840
  680MOL0     H91757   9.948   1.194  11.664  0.2462  0.1123  0.2630
  680MOL0     H91758   9.896   0.983  11.460 -3.9027  0.3404 -0.4028
  680MOL0     H91759   9.805   1.012  11.610 -1.1399 -1.4618 -1.6469
  680MOL0     H91760  10.144   0.771  11.784 -2.8182  1.2198  3.0727
  680MOL0     H91761  10.136   0.534  11.950  0.6105 -2.4014  0.0858
  680MOL0     H91762  10.156   0.405  11.822 -0.0190 -0.7331  2.2163
  680MOL0     H91763  10.245   0.558  11.811  0.1963  1.0800  0.6648
  680MOL0     H91764  10.123   0.196  11.923  1.9231 -2.5266  1.9095
  680MOL0     H91765  10.160  -0.039  11.949 -0.8338 -1.6714 -0.0170
  680MOL0     H91766  10.163  -0.232  11.805 -0.0838  0.3178 -0.5463
  680MOL0     H91767  10.087  -0.381  11.882 -1.3240  2.1762  2.9883
  680MOL0     H91768   9.974  -0.227  11.630 -2.0376  0.2783  1.8164
  680MOL0     H91769  10.086  -0.356  11.611  0.3410 -1.5731  1.2984
  680MOL0     H91770   9.809  -0.384  11.738 -0.0777 -1.4366  1.3011
  680MOL0     H91771   9.937  -0.507  11.745 -0.2926 -0.9850 -0.9073
  680MOL0     H91772   9.758  -0.418  11.520  0.0604 -0.2178 -0.1440
  680MOL0     H91773   9.933  -0.444  11.474  2.4222  0.5416  3.1288
  680MOL0     H91774   9.915  -0.666  11.554  1.7322  1.6949 -2.1134
  680MOL0     H91775   9.795  -0.633  11.429  2.6647 -1.1425 -0.2521
  680MOL0     H91776   9.713  -0.770  11.641 -4.8432 -0.2011  0.6936
  680MOL0     H91777   9.739  -0.626  11.725 -1.5319 -2.6471  0.8341
  680MOL0     H91778   9.530  -0.517  11.624 -1.3647  0.0173  0.0271
  680MOL0     H91779   9.505  -0.684  11.676 -1.8190  1.1257 -1.0526
  680MOL0     H91780   9.412  -0.699  11.447  0.6177 -0.0422  2.0245
  680MOL0     H91781   9.567  -0.765  11.446 -0.5743 -0.1814  0.7852
  680MOL0     H91782   9.746  -0.106  11.817 -1.2485  1.4259  0.6430
  680MOL0     H91783   9.718   0.130  11.775 -1.7880 -0.3979  1.8415
  680MOL0     H91784   9.802   0.530  11.538  0.0141 -0.1433  0.7809
  680MOL0     H91785   9.824   0.771  11.502  1.1109 -1.0739 -1.4326
  680MOL0     H91786  10.815   1.495  10.753 -1.2932 -0.0394  1.9089
  680MOL0     H91787  10.595   1.590  10.729 -1.9983  1.4577 -0.5861
  680MOL0     H91788  10.421   2.217  10.767  0.4210  0.1766  0.0880
  680MOL0     H91789  10.201   2.311  10.698 -1.5123 -1.1948  0.9456
  680MOL0     H91790   9.939   2.325  10.685  2.2929  1.5910  0.5095
  680MOL0     H91791  10.060   2.370  10.575  0.4663 -0.6011  1.9677
  680MOL0     H91792   9.877   2.302  10.383 -0.9805 -2.1562  1.4600
  680MOL0     H91793   9.868   2.459  10.444 -0.8931 -1.3425 -0.9796
  680MOL0     H91794   9.706   2.288  10.618  1.2811  0.3472 -0.2329
  680MOL0     H91795   9.661   2.262  10.461 -1.3334 -1.3071  3.1086
  680MOL0     H91796   9.652   2.501  10.407  2.7112  1.9296  0.6412
  680MOL0     H91797   9.695   2.535  10.577  0.5550 -0.7793  0.1599
  680MOL0     H91798   9.281   2.468  10.632  0.8526  3.9573  2.0503
  680MOL0     H91799  10.086   1.960  10.497 -2.3314  1.5420  0.9277
  680MOL0     H91800  10.315   1.856  10.552  0.3791 -0.2404  0.3904
  681MOL0     O91801   7.639   9.801   0.843  0.6814  0.2408  0.3736
  681MOL0     C91802   7.523   9.797   0.797 -0.3919  0.5804 -0.0394
  681MOL0     O91803   7.494   9.782   0.663 -0.2767 -0.5843 -0.2321
  681MOL0     C91804   7.602   9.760   0.576 -0.7868 -0.3764  0.2751
  681MOL0     C91805   7.679   9.643   0.586  0.8700  0.2550  0.1436
  681MOL0     C91806   7.786   9.609   0.496 -0.3444  0.0629 -0.3382
  681MOL0     C91807   7.819   9.697   0.396 -0.5940 -0.4158  0.0603
  681MOL0     O91808   7.922   9.667   0.312 -0.0166  0.0162 -0.1224
  681MOL0     C91809   8.041   9.622   0.359 -0.2461 -0.1023  0.0377
  681MOL0     C91810   8.113   9.736   0.422 -0.6661  0.0152 -0.2907
  681MOL0     C91811   8.130   9.851   0.326 -0.0993 -0.4184 -0.5592
  681MOL0     C91812   8.232   9.951   0.366 -0.6730  0.3676 -0.1823
  681MOL0     C91813   8.205  10.053   0.486 -0.0416  0.7246 -1.0243
  681MOL0     C91814   8.332  10.096   0.561 -0.8919 -0.2451  0.2961
  681MOL0     C91815   8.313  10.169   0.688  0.7024 -0.2305 -0.4825
  681MOL0     C91816   8.438  10.167   0.779  0.4374  0.2222  0.9703
  681MOL0     N91817   8.457  10.277   0.876 -0.6500 -0.6164 -0.8162
  681MOL0     C91818   8.531  10.391   0.860 -0.4425 -0.3371 -0.1497
  681MOL0     C91819   8.530  10.456   0.985  0.2120 -0.0487 -0.2885
  681MOL0     C91820   8.576  10.589   1.013  0.4837 -0.1831  0.1451
  681MOL0     C91821   8.707  10.574   1.081 -0.0522  0.0498  0.9820
  681MOL0     C91822   8.751  10.706   1.121 -0.8090 -1.8324 -0.0001
  681MOL0     C91823   8.890  10.691   1.176  0.3802 -0.7561  0.2030
  681MOL0     O91824   8.952  10.816   1.202  0.0025  0.0334  0.1745
  681MOL0     C91825   9.069  10.829   1.268 -0.0412  0.6040 -0.4117
  681MOL0     C91826   9.124  10.739   1.355 -0.5043  0.3631 -0.0685
  681MOL0     C91827   9.253  10.750   1.411 -1.2448  0.2590  0.2013
  681MOL0     C91828   9.317  10.637   1.485  0.0363  0.3213 -0.0307
  681MOL0     C91829   9.326  10.872   1.382  0.1417 -0.6597 -0.0753
  681MOL0     C91830   9.462  10.898   1.438  0.5704 -1.2076  1.0336
  681MOL0     O91831   9.523  11.009   1.375 -0.0967  0.0894 -0.2038
  681MOL0     C91832   9.628  11.077   1.428 -0.3213 -0.4811 -1.2431
  681MOL0     C91833   9.606  11.176   1.528  0.2016 -0.3400  0.0423
  681MOL0     C91834   9.706  11.261   1.572 -0.0354  0.6997  0.5595
  681MOL0     C91835   9.840  11.251   1.524 -0.3022 -0.8782  0.3052
  681MOL0     O91836   9.926  11.348   1.572 -0.0243 -0.5275  0.1249
  681MOL0     C91837  10.063  11.322   1.529  0.0743 -0.2440 -0.0182
  681MOL0     C91838  10.161  11.427   1.571 -0.0882 -0.6444  0.1917
  681MOL0     C91839  10.170  11.452   1.724  0.1791 -0.2934  1.1542
  681MOL0     C91840  10.277  11.548   1.768 -0.0715  0.0608  0.5565
  681MOL0     C91841  10.243  11.619   1.902  1.1100  0.2824  1.1054
  681MOL0     C91842  10.367  11.689   1.965  0.8287  0.4597 -0.2201
  681MOL0     C91843  10.429  11.799   1.869  0.4506  0.2317 -0.8401
  681MOL0     C91844  10.354  11.932   1.874 -0.3485  0.1923  1.3021
  681MOL0    Cl91845  10.454  12.059   1.799 -0.2599 -0.3890  0.4582
  681MOL0     C91846   9.865  11.140   1.440 -0.8549  0.3902  0.3880
  681MOL0     C91847   9.764  11.053   1.401 -0.7714 -0.1036 -0.0104
  681MOL0     O91848   9.494  10.853   1.545 -0.4175 -0.5870  0.6317
  681MOL0     C91849   9.265  10.967   1.298  0.1902 -0.2300  0.2177
  681MOL0     C91850   9.142  10.942   1.244  0.1067  0.5723  0.3454
  681MOL0     N91851   8.456  10.368   1.072 -0.5237 -0.4086  0.4150
  681MOL0     N91852   8.417  10.266   1.002 -0.0404  0.4223 -0.5235
  681MOL0     C91853   7.753   9.819   0.392  1.4166  0.3810  0.4641
  681MOL0     C91854   7.647   9.852   0.478 -0.3208 -0.7708  0.0635
  681MOL0     C91855   7.409   9.815   0.890 -0.1450 -0.1267 -0.7375
  681MOL0     C91856   7.280   9.817   0.833 -0.2538 -0.7231  0.0402
  681MOL0     C91857   7.167   9.799   0.914 -0.9075 -1.2925 -0.3254
  681MOL0     C91858   7.177   9.795   1.051  1.0063 -0.6487  0.6674
  681MOL0     O91859   7.063   9.787   1.123  0.4237  0.0733  1.0245
  681MOL0     C91860   7.064   9.756   1.262 -0.6950  0.3501 -0.6196
  681MOL0     C91861   6.936   9.663   1.301 -0.3684 -0.0249 -0.3104
  681MOL0     C91862   6.797   9.723   1.276 -0.1534 -0.2249 -0.5432
  681MOL0     C91863   6.679   9.626   1.270  0.2818  0.3835  0.8487
  681MOL0     C91864   6.675   9.543   1.390 -0.2690 -0.1547 -0.0449
  681MOL0     C91865   6.663   9.479   1.492  0.2936 -0.5824 -0.0163
  681MOL0     C91866   7.308   9.803   1.112 -0.1128  0.7105  0.2806
  681MOL0     C91867   7.422   9.808   1.032  0.0493  0.2828  1.1442
  681MOL0     H91868   7.645   9.570   0.658 -0.3749 -0.0003 -0.6764
  681MOL0     H91869   7.834   9.512   0.499 -1.2316 -0.3680  0.3570
  681MOL0     H91870   8.030   9.528   0.415 -0.4980  1.6712  3.2074
  681MOL0     H91871   8.087   9.583   0.268 -0.0573 -1.6094  0.7422
  681MOL0     H91872   8.058   9.765   0.511  1.4927  0.3288  1.0181
  681MOL0     H91873   8.214   9.707   0.455 -0.0928  0.7618 -1.3218
  681MOL0     H91874   8.170   9.812   0.232  2.2883 -0.1185  0.2712
  681MOL0     H91875   8.032   9.897   0.309  0.7688  0.8947 -2.2714
  681MOL0     H91876   8.329   9.905   0.386  0.4307  1.0848 -3.2900
  681MOL0     H91877   8.245  10.013   0.277  0.5230  2.2235  1.2091
  681MOL0     H91878   8.163  10.144   0.442 -0.7462  1.9402  1.8899
  681MOL0     H91879   8.129  10.009   0.551  0.5601  0.8662 -0.2080
  681MOL0     H91880   8.385  10.004   0.586  0.4445  0.5604  0.5490
  681MOL0     H91881   8.399  10.147   0.491 -0.7808 -0.1868  0.4450
  681MOL0     H91882   8.286  10.274   0.672  0.1224 -0.6158 -2.2368
  681MOL0     H91883   8.228  10.129   0.745 -0.7878  3.7077  0.3530
  681MOL0     H91884   8.526  10.156   0.715 -2.1802  0.1283 -2.9862
  681MOL0     H91885   8.423  10.078   0.841 -1.3745  0.0328  0.3422
  681MOL0     H91886   8.570  10.440   0.772 -0.2314  0.8202  0.5692
  681MOL0     H91887   8.598  10.650   0.925 -2.1804  0.0827 -0.4140
  681MOL0     H91888   8.502  10.629   1.083  0.3409  0.9857 -0.6434
  681MOL0     H91889   8.778  10.524   1.014  1.0673  0.0307  2.1525
  681MOL0     H91890   8.700  10.499   1.160  1.4064 -1.5919 -0.3525
  681MOL0     H91891   8.684  10.741   1.200  1.0135 -0.1815  0.8986
  681MOL0     H91892   8.759  10.776   1.038  1.0330 -2.1822 -0.1627
  681MOL0     H91893   8.959  10.636   1.112  1.5637  1.9261 -0.9943
  681MOL0     H91894   8.878  10.627   1.264 -1.9324 -2.1725 -1.0227
  681MOL0     H91895   9.089  10.636   1.364 -1.8863  0.6982 -1.2702
  681MOL0     H91896   9.314  10.666   1.591  0.7055  0.2774  0.0069
  681MOL0     H91897   9.274  10.537   1.479  1.3275 -0.3504  1.1311
  681MOL0     H91898   9.425  10.626   1.468 -0.1286 -1.9375  0.0978
  681MOL0     H91899   9.508  11.181   1.574  0.8427 -0.7866  1.5083
  681MOL0     H91900   9.674  11.335   1.645 -1.2615 -1.4896  2.3666
  681MOL0     H91901  10.097  11.227   1.572 -0.1930 -0.4025 -0.1594
  681MOL0     H91902  10.059  11.314   1.420  4.8615 -1.8591 -0.3525
  681MOL0     H91903  10.262  11.393   1.542  0.4458 -0.1487  1.4380
  681MOL0     H91904  10.133  11.521   1.523  0.7771 -0.5421 -0.1395
  681MOL0     H91905  10.192  11.358   1.776  0.7157 -0.6029  0.3932
  681MOL0     H91906  10.073  11.491   1.755  0.4618  1.0316  0.4268
  681MOL0     H91907  10.372  11.497   1.783 -0.0125 -0.5167 -1.4382
  681MOL0     H91908  10.285  11.622   1.688 -2.2627 -1.2633 -1.0074
  681MOL0     H91909  10.210  11.543   1.974  1.1578  2.2409  3.3285
  681MOL0     H91910  10.155  11.682   1.884 -0.2370 -1.6263  0.7241
  681MOL0     H91911  10.331  11.731   2.059 -3.8642 -1.6306 -0.8085
  681MOL0     H91912  10.444  11.616   1.990  1.1281  0.0789 -2.1299
  681MOL0     H91913  10.436  11.769   1.764 -2.9754 -0.6266 -0.9204
  681MOL0     H91914  10.532  11.816   1.902  0.0911  1.1514 -0.1429
  681MOL0     H91915  10.337  11.964   1.978 -2.1268 -0.6078  1.2948
  681MOL0     H91916  10.258  11.924   1.822  0.9271  0.1252 -1.1749
  681MOL0     H91917   9.966  11.122   1.404 -1.8527 -0.2144 -2.4371
  681MOL0     H91918   9.775  10.966   1.337 -2.2415 -0.9618  0.8427
  681MOL0     H91919   9.322  11.056   1.272 -2.5819  1.9020  0.8974
  681MOL0     H91920   9.102  11.020   1.179 -0.1200  0.6775  0.6118
  681MOL0     H91921   7.788   9.890   0.317  2.1171 -1.2709 -0.8606
  681MOL0     H91922   7.599   9.949   0.466  2.3364  0.5197 -0.7863
  681MOL0     H91923   7.246   9.823   0.730 -2.3866  2.8160  0.7656
  681MOL0     H91924   7.064   9.812   0.881 -1.6348 -1.7886  1.6205
  681MOL0     H91925   7.155   9.711   1.302 -0.4222  1.7976  0.4796
  681MOL0     H91926   7.044   9.851   1.312 -1.8757 -0.1467 -0.1185
  681MOL0     H91927   6.947   9.630   1.405  1.1568 -1.1234 -0.7700
  681MOL0     H91928   6.949   9.565   1.254 -1.5545 -0.7821  0.8922
  681MOL0     H91929   6.787   9.777   1.181 -2.9788 -0.9835 -0.7668
  681MOL0     H91930   6.781   9.799   1.353  0.1603 -1.3840  0.7038
  681MOL0     H91931   6.690   9.559   1.185 -2.1191  1.4989 -0.4495
  681MOL0     H91932   6.587   9.684   1.256  0.8137  0.4015 -5.6610
  681MOL0     H91933   6.653   9.431   1.588 -1.7953 -1.5884 -0.6709
  681MOL0     H91934   7.323   9.801   1.220  0.0263  1.7596  0.2886
  681MOL0     H91935   7.521   9.804   1.076 -0.1247  2.9235  1.9835
  682MOL0     O91936   2.622   8.197  10.331  0.3425  0.2187 -0.3823
  682MOL0     C91937   2.740   8.210  10.368 -0.1887 -0.7949 -1.2181
  682MOL0     O91938   2.782   8.186  10.495 -0.5582  0.1483  0.2216
  682MOL0     C91939   2.721   8.096  10.567 -0.5016  0.1680 -0.3111
  682MOL0     C91940   2.637   7.986  10.521  0.1824 -0.1631  0.1251
  682MOL0     C91941   2.580   7.896  10.612  0.9753 -0.3285  0.1230
  682MOL0     C91942   2.600   7.917  10.742  0.2119 -0.0058 -0.7314
  682MOL0     O91943   2.551   7.817  10.817  0.5379  0.0649 -1.1987
  682MOL0     C91944   2.481   7.847  10.940 -0.0921 -0.5534  0.0732
  682MOL0     C91945   2.407   7.731  10.998  0.3001 -0.1407 -0.3537
  682MOL0     C91946   2.320   7.773  11.109  0.8449 -0.3112 -1.2210
  682MOL0     C91947   2.322   7.662  11.215  0.9823  0.0401 -0.1623
  682MOL0     C91948   2.195   7.658  11.297  0.3080  0.4322 -0.1333
  682MOL0     C91949   2.197   7.552  11.404  0.1197 -1.5095  0.4879
  682MOL0     C91950   2.059   7.556  11.483  0.6779 -0.3376 -0.2054
  682MOL0     C91951   1.982   7.418  11.474 -0.0704  0.3742  0.3686
  682MOL0     N91952   2.025   7.323  11.577  0.1539 -0.8385 -0.0651
  682MOL0     C91953   1.955   7.276  11.679  0.4107 -0.6582 -0.0398
  682MOL0     C91954   2.032   7.190  11.749 -0.3107 -0.0267  0.4639
  682MOL0     C91955   1.992   7.115  11.874 -0.4256  0.8800 -0.4310
  682MOL0     C91956   1.987   6.967  11.843  0.7764  0.5826  0.2182
  682MOL0     C91957   1.947   6.889  11.977 -0.2663 -0.2336  0.4288
  682MOL0     C91958   1.998   6.753  11.949  0.0022  0.4555 -0.4813
  682MOL0     O91959   1.895   6.704  11.858  0.8380 -0.1585 -0.6285
  682MOL0     C91960   1.863   6.573  11.839 -0.0184 -0.6501  0.6732
  682MOL0     C91961   1.923   6.467  11.897 -0.6846 -0.0914  1.2071
  682MOL0     C91962   1.875   6.335  11.870  0.0194  0.3646  0.6173
  682MOL0     C91963   1.938   6.221  11.945  0.3566 -0.8220 -0.1134
  682MOL0     C91964   1.774   6.312  11.778  0.2757 -0.1611 -0.2345
  682MOL0     C91965   1.714   6.167  11.755 -1.2457  0.0510 -0.4284
  682MOL0     O91966   1.739   6.052  11.838 -0.6412  0.1537  0.6670
  682MOL0     C91967   1.664   5.942  11.823  0.1605 -0.0886 -0.7722
  682MOL0     C91968   1.534   5.947  11.858  0.3912  0.8240 -0.2118
  682MOL0     C91969   1.456   5.829  11.866 -0.1938  0.3678 -0.5181
  682MOL0     C91970   1.509   5.708  11.814  0.9175 -0.7423  1.2228
  682MOL0     O91971   1.436   5.592  11.808 -0.2956 -0.1164  1.6097
  682MOL0     C91972   1.494   5.462  11.782 -0.9715  0.4723 -0.8344
  682MOL0     C91973   1.405   5.347  11.827  0.2344 -0.0543  0.0585
  682MOL0     C91974   1.466   5.211  11.805 -0.2424 -0.9980 -0.2307
  682MOL0     C91975   1.359   5.098  11.843 -1.6519  0.0089  0.0624
  682MOL0     C91976   1.408   4.959  11.801  0.2677 -0.1082 -0.0230
  682MOL0     C91977   1.534   4.916  11.877 -0.2185  1.2988  0.6254
  682MOL0     C91978   1.575   4.769  11.829 -0.0554 -0.9057 -0.2078
  682MOL0     C91979   1.611   4.756  11.680  0.0344  0.5393 -0.5293
  682MOL0    Cl91980   1.683   4.595  11.649 -0.1926 -0.3699  0.4956
  682MOL0     C91981   1.638   5.707  11.764 -0.3718 -0.1113  0.0597
  682MOL0     C91982   1.721   5.822  11.770 -0.8338  0.3134  0.5055
  682MOL0     O91983   1.648   6.170  11.650  0.1786  0.1659 -0.1625
  682MOL0     C91984   1.716   6.429  11.729  0.9051 -0.0752 -0.4101
  682MOL0     C91985   1.762   6.557  11.748  0.1673 -0.6481 -0.3204
  682MOL0     N91986   2.156   7.186  11.679 -0.6442 -0.3351  0.4933
  682MOL0     N91987   2.151   7.279  11.583 -0.5637  0.4555  0.1892
  682MOL0     C91988   2.673   8.024  10.793  0.1466 -0.5077 -0.0996
  682MOL0     C91989   2.730   8.119  10.704  0.1723  0.4040  0.2794
  682MOL0     C91990   2.827   8.297  10.285  0.5447 -1.4572 -0.3622
  682MOL0     C91991   2.959   8.324  10.331 -0.0029  0.2164  0.4331
  682MOL0     C91992   3.048   8.419  10.268 -0.2081  0.7874 -0.0466
  682MOL0     C91993   3.004   8.485  10.159 -0.0906 -0.5368  0.3906
  682MOL0     O91994   3.083   8.587  10.101 -0.4155  0.2119 -0.0682
  682MOL0     C91995   3.057   8.623   9.967 -0.3402 -0.8144  0.3181
  682MOL0     C91996   3.180   8.694   9.904  0.3099  0.0235 -0.5232
  682MOL0     C91997   3.298   8.603   9.875 -0.9973 -0.4210  0.7663
  682MOL0     C91998   3.425   8.685   9.833  0.5819  0.2203 -0.5863
  682MOL0     C91999   3.420   8.759   9.707  0.2403  0.2346  0.5887
  682MOL0     C92000   3.402   8.821   9.604  1.4885  0.4303 -0.0380
  682MOL0     C92001   2.877   8.451  10.104  0.0376 -1.0770 -0.1297
  682MOL0     C92002   2.791   8.354  10.162 -0.4825 -0.2967  0.5636
  682MOL0     H92003   2.621   7.962  10.417 -0.3347  0.3443  0.0844
  682MOL0     H92004   2.537   7.810  10.564  0.7035  0.2534 -0.6999
  682MOL0     H92005   2.550   7.884  11.016  0.9675 -1.1953 -0.5534
  682MOL0     H92006   2.408   7.927  10.926  0.9845  0.4629  0.1148
  682MOL0     H92007   2.349   7.684  10.919  1.3581 -0.9040 -0.6937
  682MOL0     H92008   2.483   7.660  11.031  0.6028  0.2251 -0.2466
  682MOL0     H92009   2.366   7.852  11.170 -0.5080  0.0369 -0.6017
  682MOL0     H92010   2.215   7.798  11.087  0.0836 -0.6514  1.6066
  682MOL0     H92011   2.322   7.562  11.171  3.7314  0.9933 -2.7094
  682MOL0     H92012   2.414   7.664  11.275 -0.8214 -2.5452  3.0154
  682MOL0     H92013   2.175   7.757  11.339 -1.6478 -0.1103  0.3193
  682MOL0     H92014   2.121   7.638  11.219 -0.5474 -0.5287  0.8906
  682MOL0     H92015   2.223   7.461  11.350  0.8802 -0.3579 -1.1995
  682MOL0     H92016   2.284   7.574  11.466  0.6487 -4.1757  0.8109
  682MOL0     H92017   2.076   7.582  11.588 -2.0923 -0.9255  0.4822
  682MOL0     H92018   1.993   7.638  11.453 -0.2340 -1.4365 -1.2823
  682MOL0     H92019   2.005   7.381  11.374 -0.1011  1.3348 -0.0033
  682MOL0     H92020   1.874   7.420  11.490 -0.0936 -2.5367  1.0978
  682MOL0     H92021   1.865   7.323  11.717  0.3393 -1.5072  0.8744
  682MOL0     H92022   2.064   7.143  11.951 -2.8494  3.1693  1.1608
  682MOL0     H92023   1.896   7.144  11.916 -0.6335 -2.8689  2.1940
  682MOL0     H92024   2.087   6.942  11.807  1.0394  1.0701  0.6004
  682MOL0     H92025   1.913   6.942  11.765  2.4528 -0.3869 -1.1184
  682MOL0     H92026   1.842   6.912  11.996  0.1115  1.6174  0.5182
  682MOL0     H92027   2.005   6.930  12.060  0.2799  1.1658 -0.5910
  682MOL0     H92028   1.986   6.699  12.043 -0.8904  1.9980  0.3291
  682MOL0     H92029   2.100   6.740  11.911 -0.1615  0.7072 -1.0242
  682MOL0     H92030   2.014   6.475  11.955  0.0561 -3.1001  0.6475
  682MOL0     H92031   2.021   6.268  11.998 -0.5542  1.1288 -0.3348
  682MOL0     H92032   1.872   6.179  12.022 -1.1719  0.7974 -0.4711
  682MOL0     H92033   1.963   6.132  11.887  3.1022 -0.4526  0.3529
  682MOL0     H92034   1.480   6.037  11.885 -1.0245  0.3044 -1.1728
  682MOL0     H92035   1.355   5.830  11.907 -0.4646  1.1112 -1.1681
  682MOL0     H92036   1.513   5.462  11.674  0.5566  1.4561 -0.6022
  682MOL0     H92037   1.587   5.449  11.839 -1.2022 -0.5355 -0.6541
  682MOL0     H92038   1.374   5.363  11.931  0.9753 -0.9743  0.4286
  682MOL0     H92039   1.317   5.356  11.761 -0.6143 -0.7706  1.0632
  682MOL0     H92040   1.562   5.201  11.857 -1.3571  0.0038  2.1745
  682MOL0     H92041   1.483   5.216  11.697 -4.5160  5.0443 -1.0986
  682MOL0     H92042   1.352   5.101  11.953 -1.3796  1.1190  0.0627
  682MOL0     H92043   1.261   5.123  11.802 -0.3028  3.3814 -1.5236
  682MOL0     H92044   1.434   4.959  11.695 -0.5089  0.9009 -0.2293
  682MOL0     H92045   1.323   4.893  11.819  0.3863  0.0217  1.0765
  682MOL0     H92046   1.618   4.980  11.851  0.7249 -0.3592 -0.5710
  682MOL0     H92047   1.518   4.903  11.985  2.1314 -2.0991  0.7223
  682MOL0     H92048   1.491   4.703  11.852 -0.7696  0.1471  0.2981
  682MOL0     H92049   1.648   4.736  11.902 -0.0191 -0.2792  0.0483
  682MOL0     H92050   1.690   4.822  11.645 -2.7472  4.7908  0.4910
  682MOL0     H92051   1.522   4.757  11.616 -0.5268 -3.0816 -0.0150
  682MOL0     H92052   1.690   5.624  11.717 -0.8371  0.7982 -2.1893
  682MOL0     H92053   1.822   5.836  11.732 -0.9740  0.0479  0.0206
  682MOL0     H92054   1.630   6.428  11.664 -0.2344 -1.9465  1.0250
  682MOL0     H92055   1.710   6.643  11.705  0.0146  1.9982  4.3819
  682MOL0     H92056   2.691   8.023  10.900  1.5271  0.4276 -0.3010
  682MOL0     H92057   2.790   8.203  10.738 -0.0345  2.0241 -2.9334
  682MOL0     H92058   3.000   8.281  10.422  0.0913  0.5682  0.5583
  682MOL0     H92059   3.145   8.441  10.312 -0.3424 -1.8682  1.7870
  682MOL0     H92060   3.037   8.531   9.911  1.2675 -0.4856 -0.8571
  682MOL0     H92061   2.968   8.686   9.957 -0.6448 -1.3707 -0.6396
  682MOL0     H92062   3.209   8.773   9.974 -1.8011  0.0577  0.4045
  682MOL0     H92063   3.153   8.740   9.809  0.1234 -1.9806 -1.4947
  682MOL0     H92064   3.275   8.541   9.787 -2.6823  2.6664 -1.1696
  682MOL0     H92065   3.326   8.537   9.957 -0.0425 -2.0861 -0.8154
  682MOL0     H92066   3.509   8.615   9.829  1.1855  0.9557 -1.0926
  682MOL0     H92067   3.440   8.757   9.915 -0.7436 -1.7713  1.5260
  682MOL0     H92068   3.377   8.893   9.529 -0.6894  0.1444  0.3606
  682MOL0     H92069   2.843   8.504  10.015 -0.0263 -0.2121  0.3982
  682MOL0     H92070   2.704   8.326  10.103 -1.8066  0.2008  2.2109
  683MOL0     O92071   3.682   9.120   0.749 -0.2509 -0.1126 -0.4455
  683MOL0     C92072   3.767   9.207   0.738 -0.3162 -0.3034 -0.0985
  683MOL0     O92073   3.752   9.341   0.704 -0.5018 -0.3925  0.2200
  683MOL0     C92074   3.635   9.400   0.671 -0.0869  0.1321 -0.0585
  683MOL0     C92075   3.636   9.508   0.584 -0.3513  0.5356  0.1302
  683MOL0     C92076   3.524   9.571   0.543 -0.1103  0.8965 -0.0914
  683MOL0     C92077   3.403   9.543   0.593 -0.6382  0.1800 -0.8772
  683MOL0     O92078   3.308   9.637   0.558 -0.2232 -0.0452  0.1998
  683MOL0     C92079   3.160   9.615   0.587 -0.2650 -0.4813  0.5081
  683MOL0     C92080   3.108   9.504   0.492 -0.5938  0.8754  0.6319
  683MOL0     C92081   2.952   9.484   0.513  0.5549 -0.2121  1.0698
  683MOL0     C92082   2.910   9.390   0.394  0.2052  0.9998  0.0898
  683MOL0     C92083   2.766   9.347   0.398 -0.6390  0.1574 -1.0344
  683MOL0     C92084   2.742   9.219   0.326 -0.1439 -0.4662 -0.3405
  683MOL0     C92085   2.598   9.192   0.309 -0.0747  0.9596  0.3195
  683MOL0     C92086   2.581   9.060   0.236  0.0923  0.5658  0.1379
  683MOL0     N92087   2.444   9.044   0.183  0.4286 -0.5085  0.7806
  683MOL0     C92088   2.318   9.057   0.244  0.6288 -0.6430  0.8714
  683MOL0     C92089   2.228   9.020   0.149 -0.4380 -0.4663 -0.0744
  683MOL0     C92090   2.083   9.020   0.163  0.4546 -0.2483  0.1520
  683MOL0     C92091   2.044   8.876   0.174  0.1781  0.2817 -0.6385
  683MOL0     C92092   1.894   8.845   0.193 -0.8931  0.5264  0.0849
  683MOL0     C92093   1.806   8.895   0.075  0.0584  0.2797 -1.1357
  683MOL0     O92094   1.811   8.805  -0.037  0.1966 -0.2371 -0.3052
  683MOL0     C92095   1.755   8.684  -0.031 -0.2473  0.5422  0.3788
  683MOL0     C92096   1.797   8.593  -0.118 -0.1793 -0.3500 -0.0707
  683MOL0     C92097   1.736   8.475  -0.145 -0.5389  0.4625 -0.4055
  683MOL0     C92098   1.798   8.386  -0.253 -0.0648  0.0927 -0.4677
  683MOL0     C92099   1.633   8.433  -0.062  0.2939  0.1402  0.0266
  683MOL0     C92100   1.562   8.302  -0.069 -0.5039  0.0713  1.2738
  683MOL0     O92101   1.461   8.290   0.035  0.1591  0.0386  0.4328
  683MOL0     C92102   1.394   8.173   0.029 -0.5500  0.3206  0.2089
  683MOL0     C92103   1.456   8.046   0.010 -0.1599 -0.2505  0.3808
  683MOL0     C92104   1.387   7.931   0.009 -0.4064  0.0823 -0.7877
  683MOL0     C92105   1.247   7.934   0.005  0.6203 -1.4700 -0.0076
  683MOL0     O92106   1.184   7.813  -0.005 -0.2906  0.3646 -0.0678
  683MOL0     C92107   1.039   7.792   0.022 -0.3781 -0.7686 -0.3488
  683MOL0     C92108   0.994   7.655   0.076  0.8191  0.4329  0.1124
  683MOL0     C92109   1.049   7.550  -0.023 -0.8602 -1.6049  0.5064
  683MOL0     C92110   0.972   7.413  -0.019  0.1851 -0.2065  0.5727
  683MOL0     C92111   0.949   7.358   0.125  0.5921  0.0030  0.7727
  683MOL0     C92112   1.075   7.313   0.210 -0.2221 -0.0984 -0.5833
  683MOL0     C92113   1.041   7.170   0.271  0.1981  0.3964 -0.6566
  683MOL0     C92114   1.156   7.122   0.356  0.0931  0.9011 -0.1992
  683MOL0    Cl92115   1.315   7.081   0.281 -0.0130  0.2947  0.0808
  683MOL0     C92116   1.178   8.057   0.021 -0.5152  1.1040  0.5828
  683MOL0     C92117   1.256   8.176   0.031  0.5764 -0.0983  0.1094
  683MOL0     O92118   1.594   8.223  -0.158  0.0880  0.2231 -0.9483
  683MOL0     C92119   1.596   8.522   0.040 -0.9104  0.0041  0.2828
  683MOL0     C92120   1.649   8.650   0.047  0.1845  0.4842 -0.3465
  683MOL0     N92121   2.296   9.006   0.030 -0.2012  0.4661 -0.4741
  683MOL0     N92122   2.425   9.009   0.058  0.0291  0.0179  0.2730
  683MOL0     C92123   3.392   9.440   0.690  0.7939  0.1152  1.2124
  683MOL0     C92124   3.513   9.361   0.710  0.6867 -0.4265  0.2586
  683MOL0     C92125   3.904   9.171   0.756 -0.6439 -0.2717 -0.3768
  683MOL0     C92126   4.011   9.259   0.732  1.1573  0.0265  0.6599
  683MOL0     C92127   4.143   9.213   0.754  0.1198 -0.2865 -0.3995
  683MOL0     C92128   4.174   9.084   0.805  0.0354 -0.4307  0.1028
  683MOL0     O92129   4.299   9.027   0.825 -0.1233 -0.1545 -0.4349
  683MOL0     C92130   4.408   9.095   0.776 -0.0176  0.2094 -0.1294
  683MOL0     C92131   4.527   9.007   0.823 -0.0512 -0.7506  0.2738
  683MOL0     C92132   4.524   8.867   0.751 -0.0172  0.1197 -0.1203
  683MOL0     C92133   4.649   8.785   0.794  0.5983 -0.0420  0.0163
  683MOL0     C92134   4.775   8.823   0.720 -0.1409 -0.3961  0.0464
  683MOL0     C92135   4.886   8.859   0.683 -0.1817  0.3196 -0.1072
  683MOL0     C92136   4.065   8.999   0.831  0.5787  0.1770 -0.4361
  683MOL0     C92137   3.930   9.038   0.807  0.8410  0.2879  0.1390
  683MOL0     H92138   3.728   9.565   0.575 -1.6820  2.9399  0.9093
  683MOL0     H92139   3.530   9.657   0.477 -0.6615  1.3618  0.4582
  683MOL0     H92140   3.141   9.588   0.691 -0.3959  1.0028  0.8882
  683MOL0     H92141   3.115   9.714   0.575 -1.7492 -1.3224 -1.2923
  683MOL0     H92142   3.119   9.543   0.391  2.8613 -2.3735 -0.5116
  683MOL0     H92143   3.166   9.412   0.504  0.4150  1.3033 -0.7289
  683MOL0     H92144   2.916   9.441   0.607 -2.4274 -0.6906 -0.1678
  683MOL0     H92145   2.903   9.581   0.498  0.7605 -0.3518 -0.6817
  683MOL0     H92146   2.918   9.443   0.299 -0.8623 -1.6220 -1.5503
  683MOL0     H92147   2.973   9.301   0.401 -2.0986 -0.6100  2.6120
  683MOL0     H92148   2.732   9.322   0.499 -1.4114 -0.7110 -1.4889
  683MOL0     H92149   2.708   9.433   0.363 -0.4924  1.8275  2.4016
  683MOL0     H92150   2.794   9.220   0.229 -0.8846 -3.0291 -0.8502
  683MOL0     H92151   2.785   9.130   0.374 -4.3245 -2.0948  0.8505
  683MOL0     H92152   2.545   9.183   0.405 -1.7054 -2.4398 -0.7373
  683MOL0     H92153   2.532   9.263   0.260 -2.8983 -1.7422 -0.1095
  683MOL0     H92154   2.612   8.972   0.292  3.7203  1.6090 -0.0075
  683MOL0     H92155   2.640   9.059   0.144  0.1787  1.0860  0.1818
  683MOL0     H92156   2.299   9.085   0.347 -1.8228 -0.9028  0.5540
  683MOL0     H92157   2.055   9.065   0.259 -0.7158 -1.6286  0.5033
  683MOL0     H92158   2.039   9.073   0.079  1.6718  0.1563 -0.2574
  683MOL0     H92159   2.093   8.809   0.245 -1.7332 -1.5311 -0.9195
  683MOL0     H92160   2.057   8.829   0.076 -0.3467 -0.5394 -0.3268
  683MOL0     H92161   1.856   8.897   0.282  2.0907  3.3576 -0.1148
  683MOL0     H92162   1.896   8.736   0.204  2.3834  0.4669  0.0484
  683MOL0     H92163   1.833   9.000   0.058 -0.3571  0.6493  0.3214
  683MOL0     H92164   1.701   8.895   0.105  0.5881  1.1435  0.9469
  683MOL0     H92165   1.891   8.610  -0.169 -0.0318 -2.0908 -0.4671
  683MOL0     H92166   1.838   8.295  -0.209 -0.4553 -1.4434 -3.0698
  683MOL0     H92167   1.719   8.345  -0.315 -1.1530  0.0059  0.9330
  683MOL0     H92168   1.877   8.439  -0.308 -2.0176  1.6700 -1.8924
  683MOL0     H92169   1.564   8.034   0.006 -0.2556 -1.9070  1.5978
  683MOL0     H92170   1.435   7.833   0.009 -1.6869 -0.6186  1.5169
  683MOL0     H92171   0.999   7.865   0.094 -0.7911  0.4190 -1.7255
  683MOL0     H92172   0.973   7.802  -0.065 -1.6833 -2.6030  0.3697
  683MOL0     H92173   1.022   7.636   0.181 -3.0868 -2.1054  0.8925
  683MOL0     H92174   0.885   7.644   0.078  0.5694  2.4852  1.9675
  683MOL0     H92175   1.146   7.515   0.013  0.3851 -0.4947 -1.5906
  683MOL0     H92176   1.057   7.587  -0.126 -0.9663 -3.9412 -0.4020
  683MOL0     H92177   0.864   7.419  -0.038  0.0433 -3.1618 -0.0233
  683MOL0     H92178   1.017   7.342  -0.089 -0.7828 -3.2184  2.7802
  683MOL0     H92179   0.894   7.266   0.103  4.4554 -2.0366 -1.6003
  683MOL0     H92180   0.891   7.429   0.184  0.6093  0.0847  0.6911
  683MOL0     H92181   1.171   7.316   0.157  1.1749 -1.4020  1.7032
  683MOL0     H92182   1.092   7.388   0.287  1.1661  1.1625 -2.0360
  683MOL0     H92183   1.015   7.102   0.189  0.6408 -0.9786  0.3080
  683MOL0     H92184   0.949   7.189   0.327 -0.6562  1.4748 -2.3451
  683MOL0     H92185   1.124   7.037   0.417  0.6579  2.4036  2.3727
  683MOL0     H92186   1.177   7.204   0.426  0.5918  1.3684 -0.8861
  683MOL0     H92187   1.073   8.082   0.024 -0.8381 -0.2864  1.4686
  683MOL0     H92188   1.218   8.277   0.047  0.2432 -0.3484  0.9624
  683MOL0     H92189   1.515   8.503   0.110 -1.1995  1.5093  0.3930
  683MOL0     H92190   1.595   8.724   0.106 -0.2070  1.0739 -1.4250
  683MOL0     H92191   3.301   9.408   0.739  0.4469  0.4657  0.8051
  683MOL0     H92192   3.509   9.278   0.779 -0.9143 -0.0357  0.6739
  683MOL0     H92193   3.999   9.362   0.701 -1.7369 -0.4869 -0.2518
  683MOL0     H92194   4.221   9.283   0.725 -1.2607  1.2592 -0.5351
  683MOL0     H92195   4.407   9.113   0.668 -2.4662  3.4983  0.2951
  683MOL0     H92196   4.420   9.198   0.811 -0.1225  0.2178 -0.1169
  683MOL0     H92197   4.517   8.999   0.931 -1.8097  5.2015  0.8778
  683MOL0     H92198   4.617   9.062   0.793 -1.5078  1.7673  0.2663
  683MOL0     H92199   4.524   8.877   0.642  2.6729  1.8107 -0.0488
  683MOL0     H92200   4.439   8.811   0.791  1.9348 -1.7532  1.6632
  683MOL0     H92201   4.638   8.677   0.790 -1.6589  0.1877 -1.2385
  683MOL0     H92202   4.651   8.806   0.902  0.8125  1.5420 -0.2667
  683MOL0     H92203   4.969   8.900   0.629 -0.3488  0.7278 -0.0574
  683MOL0     H92204   4.090   8.905   0.879 -1.2951 -0.0600  0.1527
  683MOL0     H92205   3.848   8.973   0.837  2.1129  0.0408  3.4974
  684MOL0     O92206   9.839   3.909   6.824 -0.9924  0.2746  0.1008
  684MOL0     C92207   9.787   3.834   6.911 -0.1616 -1.2388 -0.1468
  684MOL0     O92208   9.824   3.816   7.036  0.2932  0.0429  0.1091
  684MOL0     C92209   9.956   3.851   7.068  0.7578  1.2185  0.1246
  684MOL0     C92210  10.023   3.746   7.137 -0.0697 -0.7031  0.6982
  684MOL0     C92211  10.149   3.771   7.193 -0.6894 -0.1317 -0.1129
  684MOL0     C92212  10.211   3.896   7.171 -0.8123 -0.4736 -0.5436
  684MOL0     O92213  10.346   3.911   7.207 -0.6638 -0.3656 -0.0095
  684MOL0     C92214  10.440   3.910   7.100  0.7429  0.3424 -0.1386
  684MOL0     C92215  10.472   3.766   7.072 -0.8671 -0.5292  0.5545
  684MOL0     C92216  10.597   3.770   6.973  0.5950  0.8279 -0.0843
  684MOL0     C92217  10.574   3.864   6.859 -0.2882 -0.6893 -0.4487
  684MOL0     C92218  10.676   3.866   6.740  0.9494 -0.2111  0.8078
  684MOL0     C92219  10.822   3.893   6.773 -0.4625 -0.8345 -0.6639
  684MOL0     C92220  10.834   4.027   6.842 -0.4020 -0.3881  0.3061
  684MOL0     C92221  10.982   4.060   6.841 -0.7270  1.2213  0.6484
  684MOL0     N92222  11.019   4.178   6.905 -0.2824 -0.2686 -0.6250
  684MOL0     C92223  11.011   4.204   7.040 -0.5416  0.2367 -0.4550
  684MOL0     C92224  11.046   4.336   7.055  0.2092  0.0982  0.1428
  684MOL0     C92225  11.056   4.409   7.187 -0.4752  0.3553 -0.5958
  684MOL0     C92226  11.192   4.470   7.223 -0.5545  0.7321  0.0286
  684MOL0     C92227  11.206   4.514   7.374 -0.8158  0.1578 -0.0991
  684MOL0     C92228  11.094   4.592   7.424 -0.0983  0.0789 -0.5722
  684MOL0     O92229  11.073   4.564   7.558 -0.1318  0.1489 -0.5429
  684MOL0     C92230  10.940   4.560   7.595 -0.0554 -0.7455  0.1810
  684MOL0     C92231  10.850   4.455   7.579 -0.2747  0.5572  0.6131
  684MOL0     C92232  10.711   4.462   7.594  0.9426 -0.3037 -0.2225
  684MOL0     C92233  10.627   4.336   7.542  0.6510 -0.3800  0.0484
  684MOL0     C92234  10.655   4.586   7.643 -0.3032 -0.3170 -1.1888
  684MOL0     C92235  10.511   4.604   7.682 -0.6287  0.5875 -1.7313
  684MOL0     O92236  10.468   4.734   7.731 -0.0598 -0.2640  0.2267
  684MOL0     C92237  10.331   4.750   7.747  0.0890 -0.6055  0.2361
  684MOL0     C92238  10.246   4.750   7.640  1.2345 -0.3540 -0.0331
  684MOL0     C92239  10.107   4.753   7.660 -0.4585  0.1973  0.1904
  684MOL0     C92240  10.058   4.772   7.792  1.0528 -0.4441  0.1780
  684MOL0     O92241   9.915   4.791   7.797  0.1137 -0.2089 -0.4192
  684MOL0     C92242   9.853   4.774   7.931  0.5714  0.2859  0.3484
  684MOL0     C92243   9.865   4.911   8.003 -0.3852  0.4734 -0.3330
  684MOL0     C92244   9.832   4.899   8.158  0.4702 -1.2679  0.5536
  684MOL0     C92245   9.698   4.828   8.192  0.2199 -0.0296  1.2447
  684MOL0     C92246   9.665   4.819   8.337  0.4889  0.6480 -1.0770
  684MOL0     C92247   9.779   4.746   8.417  0.4268 -0.6704 -0.1026
  684MOL0     C92248   9.742   4.715   8.557  0.7225  0.9249  0.3495
  684MOL0     C92249   9.763   4.839   8.644  0.7276 -0.1401  0.3033
  684MOL0    Cl92250   9.931   4.890   8.670 -0.2582  0.3469 -0.3146
  684MOL0     C92251  10.148   4.763   7.895  0.6958  0.1187 -0.1227
  684MOL0     C92252  10.284   4.762   7.873 -0.8570  0.2792 -0.2167
  684MOL0     O92253  10.440   4.515   7.649  0.1323  0.9626 -0.0783
  684MOL0     C92254  10.739   4.693   7.670 -1.1261  0.6473 -0.4030
  684MOL0     C92255  10.874   4.681   7.637 -0.4765  1.1403  0.2008
  684MOL0     N92256  11.071   4.392   6.939  0.4057  0.3396 -0.1477
  684MOL0     N92257  11.059   4.296   6.847 -0.3847  1.0537 -0.1477
  684MOL0     C92258  10.140   3.989   7.096 -0.2055 -0.4070  1.5146
  684MOL0     C92259  10.008   3.972   7.045 -0.2905 -0.0569  0.5886
  684MOL0     C92260   9.649   3.794   6.864  0.3100 -0.8562 -1.1296
  684MOL0     C92261   9.559   3.778   6.971  0.4673  0.1080  0.6859
  684MOL0     C92262   9.426   3.750   6.945 -0.1185 -0.3076  0.0990
  684MOL0     C92263   9.377   3.744   6.814  0.4403  0.6097 -0.5656
  684MOL0     O92264   9.245   3.709   6.781  0.3442 -0.0873  0.1238
  684MOL0     C92265   9.147   3.697   6.893  0.6827 -0.1730  0.2380
  684MOL0     C92266   9.013   3.684   6.832  0.2686  0.4605 -0.3212
  684MOL0     C92267   8.897   3.689   6.934 -0.6704 -0.8067 -0.2826
  684MOL0     C92268   8.769   3.653   6.848 -0.7815 -0.9930 -0.3188
  684MOL0     C92269   8.639   3.666   6.916  0.1449  0.7368 -0.1231
  684MOL0     C92270   8.534   3.673   6.975 -0.6688 -0.1480  0.5829
  684MOL0     C92271   9.462   3.759   6.707 -0.5247 -0.7817 -0.2705
  684MOL0     C92272   9.596   3.793   6.735  0.2631  0.6009  0.6592
  684MOL0     H92273   9.968   3.653   7.149 -2.4921  0.3548 -1.2775
  684MOL0     H92274  10.208   3.691   7.236  2.2973  0.5607 -2.5505
  684MOL0     H92275  10.398   3.976   7.024 -0.5631  0.6544  0.8259
  684MOL0     H92276  10.534   3.952   7.137  0.2854  1.1304  0.1539
  684MOL0     H92277  10.498   3.705   7.159 -2.1181 -4.6372 -1.7062
  684MOL0     H92278  10.381   3.719   7.035 -2.5087  1.7536  1.4342
  684MOL0     H92279  10.683   3.801   7.033 -0.2930  1.8586  0.6989
  684MOL0     H92280  10.614   3.671   6.930 -0.0470  0.5511  0.2698
  684MOL0     H92281  10.482   3.832   6.809  0.3479 -2.1422 -0.7357
  684MOL0     H92282  10.562   3.967   6.894 -2.4832 -1.7951  2.4770
  684MOL0     H92283  10.666   3.766   6.697 -1.6879  1.1099 -1.9857
  684MOL0     H92284  10.651   3.925   6.652  2.9866  0.6058  0.7127
  684MOL0     H92285  10.854   3.814   6.841 -1.6822  0.0134  0.9584
  684MOL0     H92286  10.875   3.898   6.677  1.4737 -0.0964  0.3818
  684MOL0     H92287  10.773   4.096   6.782  1.0192  0.3534 -0.3496
  684MOL0     H92288  10.799   4.020   6.945 -0.0131 -0.8643  0.4115
  684MOL0     H92289  11.012   4.056   6.736  0.0146 -0.3767  0.8931
  684MOL0     H92290  11.034   3.970   6.877 -0.6169  0.3846 -1.4694
  684MOL0     H92291  10.977   4.135   7.117 -2.3218  0.0099 -1.3960
  684MOL0     H92292  10.978   4.486   7.185 -0.4139  0.4337 -0.0417
  684MOL0     H92293  11.028   4.350   7.274  0.4305  1.5851  0.5741
  684MOL0     H92294  11.220   4.554   7.158 -0.7606  1.3209  0.6930
  684MOL0     H92295  11.267   4.392   7.208 -0.1397  0.4483  3.0608
  684MOL0     H92296  11.296   4.573   7.395 -0.5639 -0.6752  1.2993
  684MOL0     H92297  11.217   4.421   7.431 -1.2764 -0.9101 -1.6852
  684MOL0     H92298  11.007   4.562   7.364  0.2755 -0.5998 -0.7868
  684MOL0     H92299  11.101   4.699   7.404 -1.7157 -0.0784 -2.3139
  684MOL0     H92300  10.892   4.358   7.553 -0.3446  0.0941  2.1367
  684MOL0     H92301  10.547   4.376   7.478  1.2302 -0.7369 -0.9304
  684MOL0     H92302  10.693   4.274   7.481 -1.1027 -1.0517 -1.2548
  684MOL0     H92303  10.578   4.285   7.625 -3.6053 -0.3486 -2.1488
  684MOL0     H92304  10.289   4.734   7.542  4.6994 -2.2571  1.5918
  684MOL0     H92305  10.032   4.766   7.583 -2.5709 -2.0991  1.6990
  684MOL0     H92306   9.749   4.740   7.931  0.3538  0.7897 -2.1712
  684MOL0     H92307   9.908   4.701   7.992  0.0437  0.9271  1.6193
  684MOL0     H92308   9.969   4.938   7.979 -0.1630 -0.7043 -0.7864
  684MOL0     H92309   9.793   4.981   7.962 -2.0779  0.2079  1.9868
  684MOL0     H92310   9.826   5.002   8.197 -1.9917 -1.4671  0.8357
  684MOL0     H92311   9.922   4.845   8.190  2.6509  0.4841 -2.1552
  684MOL0     H92312   9.624   4.896   8.149  0.1003 -1.3397 -0.7143
  684MOL0     H92313   9.708   4.732   8.141 -0.2819  0.4203  0.2896
  684MOL0     H92314   9.572   4.762   8.345 -0.2150  1.9723  0.8045
  684MOL0     H92315   9.650   4.913   8.391  2.6470  0.4145  0.0104
  684MOL0     H92316   9.809   4.654   8.366 -1.1188 -1.7299  0.8300
  684MOL0     H92317   9.863   4.816   8.408  1.4976 -1.7811  0.8500
  684MOL0     H92318   9.791   4.621   8.585  1.1153  0.4782 -1.6436
  684MOL0     H92319   9.636   4.691   8.564  0.4874  0.7162 -2.5155
  684MOL0     H92320   9.723   4.808   8.741 -1.8868 -1.4083 -1.0933
  684MOL0     H92321   9.713   4.930   8.609  1.6758  0.3930  0.3023
  684MOL0     H92322  10.126   4.750   8.000  1.5817 -4.4459 -0.2972
  684MOL0     H92323  10.357   4.756   7.953 -1.0293  1.5429  0.0436
  684MOL0     H92324  10.704   4.794   7.689 -1.6189  0.7778 -1.8714
  684MOL0     H92325  10.919   4.780   7.629 -1.3934  1.5106 -0.7040
  684MOL0     H92326  10.182   4.087   7.075 -1.1050  0.3474  3.0487
  684MOL0     H92327   9.952   4.047   6.991 -0.2234  0.3046  1.0245
  684MOL0     H92328   9.592   3.806   7.070  2.2620  0.8355 -0.0586
  684MOL0     H92329   9.351   3.740   7.023 -0.0963 -0.7054  0.0706
  684MOL0     H92330   9.176   3.621   6.967  1.6892  1.3369  1.4783
  684MOL0     H92331   9.149   3.788   6.954 -3.9325 -0.6409  1.4152
  684MOL0     H92332   9.005   3.598   6.765 -2.0468 -0.3265  0.8414
  684MOL0     H92333   9.002   3.769   6.764  1.2776 -0.2319 -1.3827
  684MOL0     H92334   8.893   3.796   6.959  1.3696 -0.5167 -1.0017
  684MOL0     H92335   8.899   3.615   7.015 -1.4259 -1.2498 -0.6677
  684MOL0     H92336   8.777   3.548   6.820 -2.2611 -1.8748  2.2109
  684MOL0     H92337   8.768   3.715   6.758  0.2048 -0.0455  0.2960
  684MOL0     H92338   8.443   3.699   7.024 -0.4685  0.2273  0.7594
  684MOL0     H92339   9.433   3.741   6.604 -0.5967  2.1990 -0.8565
  684MOL0     H92340   9.653   3.821   6.647 -0.9163  0.6590 -0.1038
  685MOL0     O92341   8.450   6.977   9.862  0.6641  0.0276 -0.0352
  685MOL0     C92342   8.329   6.985   9.836  0.0366  0.0641 -0.4154
  685MOL0     O92343   8.228   6.967   9.926  0.7444 -0.5091 -0.6563
  685MOL0     C92344   8.254   6.974  10.064  0.6490  0.1056 -0.4765
  685MOL0     C92345   8.337   6.900  10.139 -0.1701  0.3908 -0.3740
  685MOL0     C92346   8.358   6.919  10.282  1.0622  0.6740 -0.2181
  685MOL0     C92347   8.304   7.030  10.348  0.1340 -0.3486  1.1060
  685MOL0     O92348   8.314   7.043  10.482 -0.2410  0.2486 -0.2813
  685MOL0     C92349   8.446   7.067  10.539 -0.5494  0.3915  1.2580
  685MOL0     C92350   8.538   7.161  10.460 -0.2143  0.0159 -0.4212
  685MOL0     C92351   8.676   7.156  10.525 -0.5260  0.0227  0.2446
  685MOL0     C92352   8.745   7.288  10.489 -0.4340 -0.5951 -0.0149
  685MOL0     C92353   8.866   7.315  10.591 -0.8491  0.7437 -0.0059
  685MOL0     C92354   8.946   7.441  10.563 -0.0350  0.6951  0.7433
  685MOL0     C92355   9.030   7.472  10.687  0.4304  0.1306 -0.3122
  685MOL0     C92356   9.120   7.594  10.681 -0.9352  0.0465 -0.2533
  685MOL0     N92357   9.200   7.590  10.810  0.8384 -1.1974 -0.0708
  685MOL0     C92358   9.299   7.513  10.846 -1.1907 -0.2242 -0.3249
  685MOL0     C92359   9.322   7.543  10.976 -0.7993  0.0919 -0.5639
  685MOL0     C92360   9.423   7.474  11.060  1.3326  0.4245  0.9702
  685MOL0     C92361   9.360   7.413  11.190  0.0154 -0.7444  0.2534
  685MOL0     C92362   9.459   7.307  11.243  0.3285 -0.4099  0.0098
  685MOL0     C92363   9.422   7.260  11.376 -0.2362 -0.1968 -0.4932
  685MOL0     O92364   9.457   7.347  11.482 -0.5175 -0.1911 -0.6427
  685MOL0     C92365   9.361   7.397  11.560  0.2194 -0.4720 -0.5805
  685MOL0     C92366   9.289   7.313  11.644  0.3043 -0.4831 -0.1931
  685MOL0     C92367   9.207   7.376  11.741 -0.9857 -0.2180  0.1171
  685MOL0     C92368   9.158   7.291  11.855  0.1383 -0.4754 -0.2403
  685MOL0     C92369   9.190   7.513  11.730  0.2201  0.3859 -0.8156
  685MOL0     C92370   9.087   7.587  11.803  1.0354  0.3323  0.3429
  685MOL0     O92371   8.983   7.635  11.729  0.5935  0.7426 -0.3362
  685MOL0     C92372   8.858   7.664  11.781  0.8643  0.5547 -0.2460
  685MOL0     C92373   8.791   7.593  11.882 -0.2326  0.6944  0.2941
  685MOL0     C92374   8.658   7.615  11.921  0.3780 -0.4795  0.4040
  685MOL0     C92375   8.590   7.731  11.859 -1.7478  0.1451 -0.9490
  685MOL0     O92376   8.468   7.776  11.904 -0.1257  0.3795 -0.4178
  685MOL0     C92377   8.375   7.680  11.938  0.2483  0.6404  0.4153
  685MOL0     C92378   8.247   7.739  11.976 -0.1543 -1.0316  0.1325
  685MOL0     C92379   8.200   7.841  11.875  0.5052 -0.5522 -0.0938
  685MOL0     C92380   8.058   7.895  11.916  0.1831 -0.7050 -0.0679
  685MOL0     C92381   8.002   7.990  11.810 -0.1946 -0.4511  0.4249
  685MOL0     C92382   7.937   7.923  11.691  0.6075 -0.0340 -0.1420
  685MOL0     C92383   7.846   8.009  11.618 -0.4167  1.2691 -0.3895
  685MOL0     C92384   7.805   7.965  11.480 -1.1773  0.2414 -0.4000
  685MOL0    Cl92385   7.730   8.105  11.400  0.0253  0.4335 -0.8189
  685MOL0     C92386   8.661   7.819  11.774 -0.3105  0.9369  0.2271
  685MOL0     C92387   8.791   7.779  11.733  0.1517  0.2064 -0.1005
  685MOL0     O92388   9.086   7.583  11.927  0.2227  0.9548 -0.4903
  685MOL0     C92389   9.268   7.595  11.642  0.8507  1.2436  0.5415
  685MOL0     C92390   9.348   7.537  11.552 -0.3549  0.8174  0.6038
  685MOL0     N92391   9.240   7.652  11.015 -0.1363  1.5943 -0.1325
  685MOL0     N92392   9.157   7.668  10.917 -0.5338  0.1196  0.4346
  685MOL0     C92393   8.207   7.095  10.278  0.5321 -0.5641 -0.0057
  685MOL0     C92394   8.182   7.070  10.139  0.2322  0.4992  1.6030
  685MOL0     C92395   8.289   7.003   9.698 -0.9733 -0.1756 -0.5011
  685MOL0     C92396   8.157   6.983   9.654  1.0472 -0.6563  0.6817
  685MOL0     C92397   8.122   7.014   9.526  0.5479  0.6644 -0.8093
  685MOL0     C92398   8.204   7.058   9.431 -1.4139  0.4327  0.8294
  685MOL0     O92399   8.157   7.099   9.313  0.0108  0.4340 -0.1535
  685MOL0     C92400   8.249   7.162   9.220 -0.5900 -0.8120  0.1630
  685MOL0     C92401   8.222   7.108   9.082 -0.8559  1.2173 -0.4092
  685MOL0     C92402   8.240   6.952   9.078  0.2610 -0.5207  0.4143
  685MOL0     C92403   8.199   6.881   8.939 -0.3507  0.0114 -0.5490
  685MOL0     C92404   8.260   6.939   8.822 -0.1708  0.7723  0.1600
  685MOL0     C92405   8.324   7.007   8.741  0.1047  0.3901  0.0226
  685MOL0     C92406   8.340   7.060   9.476  0.4341 -0.3918 -0.0799
  685MOL0     C92407   8.380   7.040   9.607 -0.5931 -0.3926  1.2147
  685MOL0     H92408   8.398   6.824  10.092  0.4956  1.8193 -1.9528
  685MOL0     H92409   8.419   6.855  10.344 -1.1892  0.5048  2.0038
  685MOL0     H92410   8.432   7.102  10.642  1.9553  1.3624  1.3344
  685MOL0     H92411   8.502   6.974  10.545 -1.6051 -0.2720  1.1163
  685MOL0     H92412   8.550   7.134  10.355  0.4969  0.2609 -0.4095
  685MOL0     H92413   8.494   7.261  10.460  1.3108  0.7647  1.2926
  685MOL0     H92414   8.664   7.131  10.631 -1.1717 -1.0310 -0.0703
  685MOL0     H92415   8.737   7.074  10.486 -2.4934 -2.0751  1.3346
  685MOL0     H92416   8.777   7.286  10.384  0.3509  1.4549  0.1446
  685MOL0     H92417   8.680   7.374  10.503  0.2333  0.3423 -2.1993
  685MOL0     H92418   8.824   7.325  10.692 -2.6801 -1.4641 -0.4808
  685MOL0     H92419   8.921   7.221  10.593 -0.6776  0.8398 -0.1369
  685MOL0     H92420   9.012   7.406  10.482  0.0280  1.8804  0.2565
  685MOL0     H92421   8.888   7.523  10.519 -4.3876 -2.6153 -0.3775
  685MOL0     H92422   8.967   7.490  10.774 -0.9711  0.2301 -1.3171
  685MOL0     H92423   9.091   7.381  10.696  1.2077  0.5727 -0.9578
  685MOL0     H92424   9.059   7.683  10.666  2.5973  2.5840 -0.5874
  685MOL0     H92425   9.188   7.602  10.596  1.7013  1.0772  1.8271
  685MOL0     H92426   9.366   7.451  10.787  2.3634  1.6154  1.4560
  685MOL0     H92427   9.465   7.390  11.006 -0.0104  1.0758 -1.1990
  685MOL0     H92428   9.509   7.541  11.074  0.6332  1.5780 -0.0189
  685MOL0     H92429   9.262   7.368  11.172 -0.5508  0.5536 -0.0560
  685MOL0     H92430   9.360   7.492  11.265  1.6626 -0.8809  0.4340
  685MOL0     H92431   9.561   7.345  11.254  0.6291 -0.7601 -1.3745
  685MOL0     H92432   9.466   7.216  11.183 -0.1463  1.6114 -3.3560
  685MOL0     H92433   9.472   7.164  11.392  0.9042  0.7677  2.4212
  685MOL0     H92434   9.315   7.241  11.378 -0.2507 -0.2679  2.5633
  685MOL0     H92435   9.308   7.206  11.650  1.2900 -0.5317 -2.8249
  685MOL0     H92436   9.124   7.334  11.949  2.8406 -3.4126  2.3323
  685MOL0     H92437   9.077   7.223  11.825 -1.5240  1.7342 -1.0657
  685MOL0     H92438   9.250   7.244  11.892  0.2570  1.8534  2.7757
  685MOL0     H92439   8.846   7.508  11.921 -0.7450 -0.2709 -1.0225
  685MOL0     H92440   8.600   7.554  11.989  0.0779 -0.4663  0.1594
  685MOL0     H92441   8.363   7.623  11.846  0.8016  3.6053 -1.6515
  685MOL0     H92442   8.401   7.617  12.023 -2.4384 -0.4207  0.5452
  685MOL0     H92443   8.176   7.656  11.969 -1.3736 -0.0683  0.7124
  685MOL0     H92444   8.243   7.763  12.083 -0.4022 -2.0902  0.3809
  685MOL0     H92445   8.190   7.791  11.778  1.2494 -2.6272  0.8313
  685MOL0     H92446   8.275   7.920  11.871  1.4195 -1.3653  0.4657
  685MOL0     H92447   7.983   7.816  11.929  0.2875 -1.0074 -1.1834
  685MOL0     H92448   8.064   7.949  12.011 -2.9159  0.5897 -0.4705
  685MOL0     H92449   8.089   8.045  11.773  1.1240 -1.8172  1.3806
  685MOL0     H92450   7.927   8.058  11.850  1.3491  0.9138  1.1379
  685MOL0     H92451   8.018   7.894  11.623 -1.3418 -3.6424 -1.2324
  685MOL0     H92452   7.901   7.824  11.721 -1.0972  1.1774  2.0959
  685MOL0     H92453   7.894   8.106  11.607  3.4341 -0.3533  0.6054
  685MOL0     H92454   7.749   8.017  11.670 -2.2117  0.2395 -3.3219
  685MOL0     H92455   7.747   7.872  11.483 -1.7901  0.6215 -0.3708
  685MOL0     H92456   7.897   7.944  11.425 -1.2740  1.0795 -0.9001
  685MOL0     H92457   8.621   7.896  11.709 -0.5502  0.8915  0.3188
  685MOL0     H92458   8.840   7.837  11.656  2.7678 -0.3755  1.0416
  685MOL0     H92459   9.253   7.702  11.628  1.4355  1.0012 -3.1980
  685MOL0     H92460   9.402   7.596  11.479 -0.6423 -0.3140 -0.5565
  685MOL0     H92461   8.142   7.168  10.325  0.2852 -0.4229 -0.5548
  685MOL0     H92462   8.110   7.138  10.095 -0.7027  1.0931  3.8905
  685MOL0     H92463   8.084   6.935   9.719 -1.6429  1.4274 -0.6063
  685MOL0     H92464   8.020   6.980   9.511  1.4161 -1.3589 -2.7451
  685MOL0     H92465   8.218   7.267   9.226  0.7530 -0.4386  1.0706
  685MOL0     H92466   8.357   7.159   9.240 -0.4653  2.2847  0.4693
  685MOL0     H92467   8.285   7.162   9.010 -0.5308 -0.9538 -1.8243
  685MOL0     H92468   8.118   7.135   9.060 -0.9154 -0.3643 -2.3245
  685MOL0     H92469   8.183   6.911   9.162 -4.2747  1.3539 -1.4176
  685MOL0     H92470   8.345   6.924   9.087  0.2688 -0.9821 -0.9298
  685MOL0     H92471   8.095   6.873   8.906 -0.3628 -3.3758 -0.0653
  685MOL0     H92472   8.231   6.777   8.946  2.0424  0.7755  3.1345
  685MOL0     H92473   8.386   7.065   8.676  0.4836 -2.8091 -2.7033
  685MOL0     H92474   8.417   7.089   9.406 -0.2171  1.1541 -0.1818
  685MOL0     H92475   8.485   7.031   9.634 -0.7263 -1.8925  1.3457
  686MOL0     O92476   9.780   9.829   4.179 -0.7006 -1.1600 -0.3787
  686MOL0     C92477   9.670   9.885   4.194 -0.3833  0.3639 -0.1461
  686MOL0     O92478   9.550   9.823   4.227  0.1397 -0.0373 -0.3855
  686MOL0     C92479   9.541   9.692   4.246  0.2032  0.1402  0.5174
  686MOL0     C92480   9.631   9.628   4.334 -0.9855 -0.0351  0.9385
  686MOL0     C92481   9.608   9.496   4.355  0.3275  0.0498  0.4440
  686MOL0     C92482   9.504   9.419   4.295  0.1365  0.3727 -0.0627
  686MOL0     O92483   9.475   9.292   4.325 -0.4703  0.3378  0.3357
  686MOL0     C92484   9.545   9.231   4.438 -0.6503 -0.2355 -0.1402
  686MOL0     C92485   9.464   9.106   4.471 -0.1221  0.1285  1.2102
  686MOL0     C92486   9.325   9.148   4.524 -0.2837 -0.2752 -1.0713
  686MOL0     C92487   9.227   9.028   4.546  0.0820 -0.4108 -0.1000
  686MOL0     C92488   9.111   9.052   4.643  0.3725  0.1777 -0.5242
  686MOL0     C92489   9.169   9.131   4.761 -0.0853 -0.3550 -0.0173
  686MOL0     C92490   9.084   9.141   4.888  0.0770  0.4446  0.4937
  686MOL0     C92491   9.148   9.201   5.019  0.1352 -0.6550 -0.3302
  686MOL0     N92492   9.232   9.318   4.983  0.5180  0.8496 -0.3630
  686MOL0     C92493   9.181   9.440   4.963  0.5277 -0.9431  0.0912
  686MOL0     C92494   9.273   9.536   4.988  0.1280  0.0387 -0.6416
  686MOL0     C92495   9.270   9.687   4.983  0.1386 -0.2324 -0.1510
  686MOL0     C92496   9.132   9.747   4.952 -0.1359 -0.1339 -0.6407
  686MOL0     C92497   9.098   9.722   4.800  1.1457 -0.1698 -0.8984
  686MOL0     C92498   8.955   9.767   4.761  0.4674 -0.7940  0.3872
  686MOL0     O92499   8.853   9.708   4.842 -0.5472  0.1448  0.7629
  686MOL0     C92500   8.818   9.577   4.823 -1.0008 -0.1562 -0.1081
  686MOL0     C92501   8.751   9.519   4.927 -0.1610  0.7208  0.0575
  686MOL0     C92502   8.690   9.388   4.911 -0.6968  0.0575  0.8807
  686MOL0     C92503   8.600   9.333   5.019  0.6634 -1.1342 -0.2272
  686MOL0     C92504   8.734   9.306   4.799  0.2826  0.0134  0.0545
  686MOL0     C92505   8.682   9.173   4.783  0.5018  0.5747  0.0220
  686MOL0     O92506   8.661   9.129   4.656 -0.2770  0.2406  0.1269
  686MOL0     C92507   8.636   8.993   4.631 -0.0094 -0.0660  0.1906
  686MOL0     C92508   8.510   8.942   4.641 -0.2151 -0.9213 -0.6291
  686MOL0     C92509   8.490   8.811   4.590 -0.9026 -0.6556  0.1815
  686MOL0     C92510   8.596   8.737   4.549 -0.0785  0.3629 -1.0333
  686MOL0     O92511   8.570   8.600   4.516 -0.2591  0.0173 -0.5060
  686MOL0     C92512   8.687   8.516   4.524  0.1124  0.8401  0.1611
  686MOL0     C92513   8.656   8.366   4.495  0.5705 -0.8719  0.8970
  686MOL0     C92514   8.547   8.313   4.595  0.7921  0.5484 -0.8155
  686MOL0     C92515   8.511   8.165   4.553 -0.6589 -0.4586 -0.2101
  686MOL0     C92516   8.480   8.066   4.662  0.2755 -0.8970 -0.1676
  686MOL0     C92517   8.445   7.918   4.622  0.0333 -0.4785  0.5994
  686MOL0     C92518   8.569   7.848   4.562 -0.7315  0.9874  0.4526
  686MOL0     C92519   8.545   7.703   4.546 -0.3835  0.3906  0.5594
  686MOL0    Cl92520   8.688   7.626   4.490  0.1480 -0.3410  0.1807
  686MOL0     C92521   8.733   8.785   4.562 -0.0849  0.1303  0.7853
  686MOL0     C92522   8.744   8.919   4.598  0.1479 -0.6030 -0.6854
  686MOL0     O92523   8.680   9.105   4.889  0.5409 -0.2203  0.0462
  686MOL0     C92524   8.819   9.365   4.701 -0.9479  0.8282  0.2581
  686MOL0     C92525   8.855   9.495   4.715 -0.0789 -0.3484 -0.4076
  686MOL0     N92526   9.388   9.461   5.017  0.2108  0.4169 -0.6677
  686MOL0     N92527   9.360   9.337   5.021  0.7619  0.4495 -0.1057
  686MOL0     C92528   9.433   9.480   4.191  0.2578  0.0896  0.7683
  686MOL0     C92529   9.443   9.616   4.177  1.0006  1.0483 -0.0601
  686MOL0     C92530   9.676  10.036   4.164  0.8053  0.1767 -0.4341
  686MOL0     C92531   9.775  10.087   4.083 -0.0246  0.3899  0.6558
  686MOL0     C92532   9.802  10.228   4.082 -0.3050  0.6271  0.4612
  686MOL0     C92533   9.723  10.320   4.147 -0.0328  0.8218  0.1789
  686MOL0     O92534   9.740  10.455   4.152 -0.1652  0.4116  0.5503
  686MOL0     C92535   9.808  10.511   4.037 -1.1630  0.1993 -0.2977
  686MOL0     C92536   9.953  10.544   4.076  0.0362  0.3235  0.2965
  686MOL0     C92537   9.959  10.612   4.217  0.1464  0.2703 -0.0201
  686MOL0     C92538  10.092  10.695   4.234  0.5643  0.3454  0.1233
  686MOL0     C92539  10.101  10.775   4.366  0.4987  0.4581  0.4809
  686MOL0     C92540  10.119  10.854   4.461 -0.1913  0.3561  0.5460
  686MOL0     C92541   9.623  10.262   4.233  0.4560 -0.1446  0.4414
  686MOL0     C92542   9.599  10.125   4.243  0.2526 -0.4621 -0.0469
  686MOL0     H92543   9.702   9.681   4.396 -3.6545  2.4950  2.0908
  686MOL0     H92544   9.671   9.461   4.435  0.6086  2.4292  1.3590
  686MOL0     H92545   9.647   9.194   4.421 -1.4465 -5.8999  4.3726
  686MOL0     H92546   9.548   9.302   4.522  1.0330  0.4614 -0.7498
  686MOL0     H92547   9.447   9.058   4.375  0.0476  0.8424  0.8152
  686MOL0     H92548   9.519   9.041   4.539 -1.0301 -2.5004 -0.4550
  686MOL0     H92549   9.350   9.197   4.619 -1.8273 -2.4010  0.5189
  686MOL0     H92550   9.276   9.228   4.467 -0.8763 -0.2557 -0.5513
  686MOL0     H92551   9.191   8.991   4.449  0.8545  2.2933 -1.5470
  686MOL0     H92552   9.282   8.944   4.587  0.2420  0.0658  0.6840
  686MOL0     H92553   9.022   9.101   4.604 -0.4565  0.5936  1.7390
  686MOL0     H92554   9.071   8.960   4.687 -0.2783  0.5605 -0.3208
  686MOL0     H92555   9.266   9.091   4.792 -0.9832 -2.8499 -0.1925
  686MOL0     H92556   9.180   9.236   4.731 -1.6450 -0.1173  0.1688
  686MOL0     H92557   8.996   9.200   4.863 -0.5480 -0.1871  1.1548
  686MOL0     H92558   9.065   9.037   4.916  1.5983  0.4773  1.7442
  686MOL0     H92559   9.211   9.125   5.066  0.9037  0.5411  0.6287
  686MOL0     H92560   9.069   9.237   5.085  1.6680 -0.6675  1.6067
  686MOL0     H92561   9.077   9.459   4.938  0.7678  0.9814  0.4316
  686MOL0     H92562   9.321   9.718   5.075  1.9659 -4.9714  0.7386
  686MOL0     H92563   9.341   9.717   4.906 -2.4484  2.5970 -1.6704
  686MOL0     H92564   9.135   9.854   4.975  0.4724  0.0984 -1.7608
  686MOL0     H92565   9.054   9.710   5.020  2.7500 -1.6559  2.1016
  686MOL0     H92566   9.105   9.616   4.772  1.8178 -0.9700  1.9636
  686MOL0     H92567   9.170   9.788   4.752  1.5686  0.8805  1.0883
  686MOL0     H92568   8.945   9.757   4.653  1.7167  0.3502  0.1414
  686MOL0     H92569   8.929   9.873   4.775  0.6014 -0.5700 -0.8909
  686MOL0     H92570   8.716   9.574   5.014 -2.4701  0.2712 -0.5099
  686MOL0     H92571   8.560   9.418   5.075  3.0136  0.4381 -0.7909
  686MOL0     H92572   8.520   9.278   4.968 -0.7234  1.2483 -0.7732
  686MOL0     H92573   8.655   9.263   5.083  4.2759  2.8852  1.5652
  686MOL0     H92574   8.432   9.005   4.683  2.5262  1.5360  1.1641
  686MOL0     H92575   8.386   8.783   4.579 -2.5803  4.2658  1.0325
  686MOL0     H92576   8.772   8.531   4.457 -1.8384 -2.5775 -3.5029
  686MOL0     H92577   8.726   8.520   4.626 -0.0927  0.7232  0.2456
  686MOL0     H92578   8.625   8.347   4.392  2.3022 -2.2770  0.5814
  686MOL0     H92579   8.750   8.314   4.515  0.1476 -2.3365 -0.7255
  686MOL0     H92580   8.461   8.381   4.592 -0.4970 -0.9823 -0.0913
  686MOL0     H92581   8.589   8.330   4.694  0.1776 -3.3617  0.2763
  686MOL0     H92582   8.431   8.179   4.479 -2.7134 -5.1047  0.7903
  686MOL0     H92583   8.598   8.128   4.497  0.1080  1.7005 -0.5408
  686MOL0     H92584   8.401   8.121   4.715  0.2532 -2.9987  2.2078
  686MOL0     H92585   8.565   8.069   4.731  0.2589  1.6548 -0.1794
  686MOL0     H92586   8.398   7.856   4.699 -1.1964 -2.9138 -1.9586
  686MOL0     H92587   8.373   7.916   4.540  0.2335 -0.9444  0.4355
  686MOL0     H92588   8.653   7.865   4.630 -0.2772  0.9448 -0.0881
  686MOL0     H92589   8.595   7.888   4.463  1.4494 -0.6037  0.3234
  686MOL0     H92590   8.466   7.675   4.476 -0.1323  0.7452  0.1330
  686MOL0     H92591   8.514   7.670   4.646 -0.9895  2.5046  1.1215
  686MOL0     H92592   8.824   8.733   4.532  0.5770  0.5617  2.0043
  686MOL0     H92593   8.843   8.965   4.596  0.5399 -1.3696  0.4382
  686MOL0     H92594   8.851   9.308   4.614 -0.1540 -0.4774  1.3562
  686MOL0     H92595   8.917   9.544   4.641  0.1522 -0.0093  0.0077
  686MOL0     H92596   9.356   9.416   4.148  1.6126 -1.5507  0.6776
  686MOL0     H92597   9.371   9.669   4.115 -0.7468  0.1042  1.0996
  686MOL0     H92598   9.838  10.015   4.033  1.3705  1.0974  1.3282
  686MOL0     H92599   9.885  10.269   4.026 -0.6822 -0.6964 -1.1566
  686MOL0     H92600   9.823  10.459   3.942  1.0332  3.3412 -1.8591
  686MOL0     H92601   9.752  10.603   4.017  0.0591  0.4426 -3.0460
  686MOL0     H92602   9.995  10.602   3.994  0.5392 -0.5024 -0.0373
  686MOL0     H92603  10.003  10.447   4.070 -1.6070 -0.6634  1.5775
  686MOL0     H92604   9.970  10.535   4.294 -0.6580 -1.9916 -2.0366
  686MOL0     H92605   9.873  10.677   4.232 -1.3060 -1.6684  0.4994
  686MOL0     H92606  10.105  10.766   4.152  0.3861 -1.6769 -1.7318
  686MOL0     H92607  10.175  10.624   4.223  1.0186  0.9777 -0.6306
  686MOL0     H92608  10.146  10.924   4.537 -0.3850  1.1094 -0.0661
  686MOL0     H92609   9.567  10.317   4.309  0.6760 -2.0201  2.0383
  686MOL0     H92610   9.528  10.080   4.313  0.2148  1.1508  1.0148
  687MOL0     O92611   6.814   6.277   2.645  0.3457  0.6018  0.4633
  687MOL0     C92612   6.705   6.295   2.586  0.2379  0.5968  0.0582
  687MOL0     O92613   6.658   6.227   2.480 -0.0756 -0.9303  0.2355
  687MOL0     C92614   6.720   6.118   2.428 -0.7943 -0.0211 -0.0875
  687MOL0     C92615   6.676   6.084   2.301  0.1977 -0.5423  0.0431
  687MOL0     C92616   6.726   5.968   2.233  0.3216 -0.1702 -0.3319
  687MOL0     C92617   6.815   5.881   2.301 -0.8207 -0.3301  0.5363
  687MOL0     O92618   6.847   5.763   2.240  0.6645 -0.0039  0.6586
  687MOL0     C92619   6.925   5.655   2.288  0.8506  1.0037  0.0479
  687MOL0     C92620   7.031   5.615   2.189  0.7475  0.2140 -0.2713
  687MOL0     C92621   7.116   5.737   2.165 -1.3206  0.6157 -0.3270
  687MOL0     C92622   7.250   5.680   2.106 -0.4489 -0.2630 -0.0906
  687MOL0     C92623   7.345   5.793   2.076  0.0585  0.1176  0.2281
  687MOL0     C92624   7.476   5.736   2.021 -0.5204  0.3514  0.4495
  687MOL0     C92625   7.551   5.858   1.980  0.2989 -0.5435  0.2809
  687MOL0     C92626   7.690   5.798   1.951 -0.5355 -0.9411 -0.0392
  687MOL0     N92627   7.778   5.917   1.898  0.0804 -0.3478 -0.2655
  687MOL0     C92628   7.794   6.038   1.952 -0.3903  1.3164 -0.2637
  687MOL0     C92629   7.903   6.094   1.901 -0.3177  0.4132 -0.4678
  687MOL0     C92630   7.961   6.221   1.944  0.4705 -0.5983 -0.7458
  687MOL0     C92631   8.052   6.207   2.066  0.1985  0.9976  0.4389
  687MOL0     C92632   7.975   6.254   2.186 -0.7634  0.3219  0.1950
  687MOL0     C92633   8.069   6.211   2.301  0.1989 -0.4933  1.0253
  687MOL0     O92634   7.990   6.243   2.414  0.1474 -0.6609  0.1129
  687MOL0     C92635   8.056   6.249   2.534 -0.3692  0.7101  0.8709
  687MOL0     C92636   8.039   6.357   2.627 -0.2069  0.6385  0.3228
  687MOL0     C92637   8.112   6.364   2.749 -0.5288  0.4122  0.1945
  687MOL0     C92638   8.094   6.489   2.838 -0.7143 -0.4134  0.1923
  687MOL0     C92639   8.187   6.241   2.795  0.8926 -0.7852 -0.2147
  687MOL0     C92640   8.248   6.226   2.932 -0.2848  0.3832 -0.3836
  687MOL0     O92641   8.208   6.314   3.033 -0.5903  0.3369 -0.2442
  687MOL0     C92642   8.265   6.299   3.155 -0.1983 -0.7035 -0.4678
  687MOL0     C92643   8.359   6.397   3.207  0.6336 -0.5908  0.4481
  687MOL0     C92644   8.428   6.380   3.324  0.2386  0.2181 -0.1334
  687MOL0     C92645   8.391   6.281   3.407 -0.7178  0.8473  0.1025
  687MOL0     O92646   8.432   6.283   3.541 -0.4944 -0.5338 -0.0116
  687MOL0     C92647   8.326   6.346   3.613  0.1927 -0.0330  0.8455
  687MOL0     C92648   8.361   6.341   3.756 -0.1138 -0.1309 -0.6057
  687MOL0     C92649   8.327   6.193   3.815 -0.3257 -0.1676  0.3292
  687MOL0     C92650   8.375   6.186   3.961 -0.4113  0.0454 -0.5715
  687MOL0     C92651   8.362   6.032   4.018  0.5862  0.0985 -0.0576
  687MOL0     C92652   8.435   6.023   4.144 -0.5876  0.1424 -0.0668
  687MOL0     C92653   8.415   5.881   4.197 -0.5718 -0.3651 -0.6467
  687MOL0     C92654   8.278   5.851   4.264 -0.3853  0.5116  0.1265
  687MOL0    Cl92655   8.252   5.672   4.288  0.1157  0.3880 -0.0081
  687MOL0     C92656   8.301   6.185   3.366  0.0848  1.2399  0.3484
  687MOL0     C92657   8.246   6.192   3.242  0.0121 -0.8180 -0.1872
  687MOL0     O92658   8.335   6.129   2.947  0.1973  0.5101  0.4059
  687MOL0     C92659   8.195   6.138   2.705  0.4941 -0.0283  0.3670
  687MOL0     C92660   8.133   6.138   2.576 -0.2067 -0.0110 -0.2647
  687MOL0     N92661   7.953   6.011   1.807  0.4950 -0.4019  0.4234
  687MOL0     N92662   7.877   5.911   1.808 -0.3318  0.5199  0.5137
  687MOL0     C92663   6.871   5.922   2.414 -0.0813 -0.5200  0.9497
  687MOL0     C92664   6.827   6.041   2.479 -0.5643  0.1527  0.1732
  687MOL0     C92665   6.615   6.417   2.626 -0.2944  0.7433  0.6493
  687MOL0     C92666   6.476   6.413   2.610 -0.0703  0.2288  0.1600
  687MOL0     C92667   6.401   6.521   2.663  0.5866  0.6280 -0.2091
  687MOL0     C92668   6.462   6.642   2.702  0.5223  0.5079  0.2640
  687MOL0     O92669   6.380   6.750   2.738  0.6105  0.7138 -0.1649
  687MOL0     C92670   6.332   6.723   2.873 -0.0353 -1.1538  0.3661
  687MOL0     C92671   6.412   6.784   2.991 -1.4460 -0.4504 -0.1494
  687MOL0     C92672   6.348   6.755   3.126  0.1510  0.0820 -0.4355
  687MOL0     C92673   6.403   6.845   3.234 -0.8780 -0.0695  0.7507
  687MOL0     C92674   6.318   6.837   3.351 -0.1821  0.5100  0.4870
  687MOL0     C92675   6.241   6.837   3.446  0.7356 -0.5962 -0.4974
  687MOL0     C92676   6.601   6.646   2.707 -0.9285 -0.5144  0.2428
  687MOL0     C92677   6.676   6.528   2.685 -0.3471  0.9204  0.0722
  687MOL0     H92678   6.597   6.144   2.257  0.1832 -2.0731 -2.1614
  687MOL0     H92679   6.690   5.937   2.135  2.5793  0.3786 -1.3949
  687MOL0     H92680   6.976   5.667   2.384 -2.0112 -0.5416  1.9011
  687MOL0     H92681   6.847   5.582   2.308 -2.8725  4.3263 -1.1804
  687MOL0     H92682   7.086   5.523   2.210 -0.0926 -0.0156  1.0264
  687MOL0     H92683   6.978   5.604   2.094  0.0616  0.0280  0.1261
  687MOL0     H92684   7.071   5.806   2.094 -1.8827 -0.4138 -0.9920
  687MOL0     H92685   7.142   5.779   2.263  1.9197  1.2635 -1.3393
  687MOL0     H92686   7.300   5.614   2.179  2.0951 -0.0946 -1.5471
  687MOL0     H92687   7.237   5.612   2.021  0.5178 -0.3541 -0.1845
  687MOL0     H92688   7.299   5.843   1.991  0.9239  1.0335  0.2837
  687MOL0     H92689   7.362   5.853   2.166 -0.7485 -3.1299  2.7377
  687MOL0     H92690   7.532   5.689   2.101  1.2918  2.4326  0.5084
  687MOL0     H92691   7.453   5.672   1.936 -1.8126  0.1291  0.9360
  687MOL0     H92692   7.505   5.911   1.896 -1.8916 -1.8314  0.5607
  687MOL0     H92693   7.555   5.933   2.060 -4.5550  0.1486  0.1647
  687MOL0     H92694   7.694   5.719   1.876  1.6167 -0.4282 -0.5165
  687MOL0     H92695   7.729   5.764   2.048 -4.2871 -0.6484  1.7846
  687MOL0     H92696   7.738   6.086   2.032 -1.3420  0.7195 -0.5527
  687MOL0     H92697   8.008   6.254   1.851  1.4641 -2.3718 -0.9211
  687MOL0     H92698   7.874   6.277   1.981  0.6610 -1.8305  1.8263
  687MOL0     H92699   8.139   6.271   2.048  0.1586  0.7332 -0.7953
  687MOL0     H92700   8.084   6.104   2.084  0.9135  1.3075  0.9828
  687MOL0     H92701   7.877   6.206   2.198 -1.1046  0.6917 -0.9907
  687MOL0     H92702   7.973   6.363   2.178  2.5391  0.6029  1.7670
  687MOL0     H92703   8.151   6.282   2.305  1.5100 -1.7292 -1.4732
  687MOL0     H92704   8.101   6.106   2.297  2.1480 -0.0357 -4.4177
  687MOL0     H92705   7.984   6.446   2.599 -2.3896 -0.8082 -0.2497
  687MOL0     H92706   8.189   6.499   2.891  0.9190 -2.1344 -2.1636
  687MOL0     H92707   8.057   6.575   2.782 -0.2760 -0.0150  0.5104
  687MOL0     H92708   8.020   6.463   2.914  0.1321 -1.3353  0.7269
  687MOL0     H92709   8.360   6.494   3.157 -0.3290 -0.9788 -0.3528
  687MOL0     H92710   8.496   6.461   3.352  1.0305 -0.8577  1.1703
  687MOL0     H92711   8.323   6.453   3.592  0.5338 -0.5670 -2.4359
  687MOL0     H92712   8.230   6.295   3.603  0.2260 -0.0954  0.8488
  687MOL0     H92713   8.469   6.354   3.771 -0.1599  0.3068 -0.6566
  687MOL0     H92714   8.308   6.413   3.819  1.2224 -0.1491  0.6043
  687MOL0     H92715   8.384   6.127   3.750 -2.0733  1.7369 -3.4151
  687MOL0     H92716   8.220   6.173   3.816 -0.5377  0.5511 -2.1035
  687MOL0     H92717   8.478   6.220   3.969 -0.4818 -0.0640  1.3524
  687MOL0     H92718   8.314   6.248   4.027  1.4042  0.6785  0.5542
  687MOL0     H92719   8.406   5.969   3.940 -0.0383 -0.4948  0.0652
  687MOL0     H92720   8.262   5.989   4.026  0.9828 -0.4699  2.7450
  687MOL0     H92721   8.544   6.027   4.132 -0.6815  0.1665 -0.9523
  687MOL0     H92722   8.407   6.101   4.215  1.4275  0.5355  0.3527
  687MOL0     H92723   8.489   5.848   4.271 -4.0187 -2.9129  2.0025
  687MOL0     H92724   8.424   5.805   4.119  1.8975  0.0877 -0.8913
  687MOL0     H92725   8.196   5.884   4.200 -0.1827 -1.8127 -1.4462
  687MOL0     H92726   8.286   5.899   4.362 -1.2209 -2.6112  1.8437
  687MOL0     H92727   8.288   6.100   3.432 -0.9121  2.4940  1.8267
  687MOL0     H92728   8.176   6.112   3.222  0.3612 -0.8087 -1.5336
  687MOL0     H92729   8.255   6.050   2.727  0.4010 -1.0316 -2.8931
  687MOL0     H92730   8.164   6.067   2.500  1.8810  1.6284 -1.0278
  687MOL0     H92731   6.953   5.867   2.460 -0.1039 -0.9173  0.5213
  687MOL0     H92732   6.870   6.063   2.576 -4.3346 -0.7391  2.2790
  687MOL0     H92733   6.441   6.322   2.565 -0.3767 -0.1549  1.1502
  687MOL0     H92734   6.296   6.500   2.679  1.0691 -0.1980  2.2572
  687MOL0     H92735   6.238   6.779   2.869  1.0818  0.8284  0.4121
  687MOL0     H92736   6.313   6.619   2.899 -1.7385 -1.3205 -1.3646
  687MOL0     H92737   6.417   6.892   2.973 -2.2458 -0.0610  1.7058
  687MOL0     H92738   6.511   6.738   2.996 -0.8421  0.9139  3.4080
  687MOL0     H92739   6.359   6.651   3.158 -0.3180  1.0819  3.4694
  687MOL0     H92740   6.242   6.780   3.118 -0.2086 -1.7703 -5.8428
  687MOL0     H92741   6.403   6.949   3.201  1.7042 -0.4498 -0.6681
  687MOL0     H92742   6.505   6.818   3.262 -0.5480  1.9017  1.6580
  687MOL0     H92743   6.179   6.823   3.533 -0.8551 -0.1423 -1.5244
  687MOL0     H92744   6.651   6.741   2.723 -2.1777  0.1587  0.2790
  687MOL0     H92745   6.784   6.538   2.684 -0.2457 -0.0726 -1.3535
  688MOL0     O92746   8.086   5.311   3.467 -0.5936 -0.1497  0.0014
  688MOL0     C92747   8.010   5.217   3.486  0.0017 -0.1057 -0.0142
  688MOL0     O92748   7.875   5.231   3.511  0.1113  0.1970 -0.0311
  688MOL0     C92749   7.828   5.363   3.526 -0.2810  0.6341 -0.2936
  688MOL0     C92750   7.722   5.393   3.443 -0.4629 -0.1964 -0.5758
  688MOL0     C92751   7.661   5.518   3.456  0.3008  0.2217  0.2320
  688MOL0     C92752   7.705   5.610   3.551 -0.5087 -0.6860 -0.2715
  688MOL0     O92753   7.628   5.720   3.541 -0.5931  0.3858 -0.6511
  688MOL0     C92754   7.650   5.823   3.641  0.3632 -0.7341 -0.1705
  688MOL0     C92755   7.612   5.956   3.586 -0.4172  0.4368  1.0280
  688MOL0     C92756   7.455   5.968   3.589  0.3315 -0.2038 -0.1027
  688MOL0     C92757   7.399   6.110   3.554 -0.6255 -0.4391 -0.2081
  688MOL0     C92758   7.251   6.106   3.545 -0.5331  0.7869 -0.5872
  688MOL0     C92759   7.186   6.238   3.528  0.3060 -0.4019 -0.3084
  688MOL0     C92760   7.171   6.322   3.651  0.2689 -0.2213  0.2012
  688MOL0     C92761   7.078   6.439   3.618  0.2688 -0.3823 -0.1432
  688MOL0     N92762   7.041   6.529   3.729  0.2557  0.1163 -0.4241
  688MOL0     C92763   7.126   6.611   3.801  0.2080  0.4380  0.0387
  688MOL0     C92764   7.031   6.700   3.858 -0.4704 -0.0192 -0.4286
  688MOL0     C92765   7.063   6.806   3.959  0.0240  0.0013  0.0365
  688MOL0     C92766   7.096   6.939   3.883 -0.3915 -0.1625 -0.1519
  688MOL0     C92767   6.986   7.006   3.796 -0.0501  0.0029  0.3230
  688MOL0     C92768   7.022   7.133   3.737 -0.1456  0.4287 -0.7966
  688MOL0     O92769   6.928   7.158   3.635 -0.2141  0.0996  0.5773
  688MOL0     C92770   6.985   7.240   3.539  0.8418  0.1854 -1.1648
  688MOL0     C92771   6.973   7.199   3.415 -0.6063 -0.9620  1.2379
  688MOL0     C92772   7.031   7.271   3.308  0.7986  0.3804 -0.3949
  688MOL0     C92773   6.999   7.224   3.163  0.6553 -0.3644  0.1898
  688MOL0     C92774   7.101   7.388   3.334 -0.5091 -0.4247  0.1301
  688MOL0     C92775   7.190   7.463   3.236  0.2529  0.7664 -0.0556
  688MOL0     O92776   7.218   7.584   3.271 -0.3151 -0.2001 -0.4624
  688MOL0     C92777   7.273   7.668   3.181 -0.5263 -0.2990  0.9164
  688MOL0     C92778   7.398   7.716   3.212  0.1884  1.0737  0.3063
  688MOL0     C92779   7.453   7.813   3.129  0.0671  1.2919 -0.4743
  688MOL0     C92780   7.400   7.851   3.005  0.1425  0.4179 -0.2218
  688MOL0     O92781   7.472   7.943   2.934  0.0685  0.0932  0.4596
  688MOL0     C92782   7.441   7.938   2.796 -0.1703  0.6115 -0.5077
  688MOL0     C92783   7.570   7.995   2.724  0.9905 -0.4581 -0.4740
  688MOL0     C92784   7.598   8.139   2.777 -0.3392  0.3419  0.3342
  688MOL0     C92785   7.704   8.206   2.691  0.6516 -0.2389 -0.7165
  688MOL0     C92786   7.731   8.347   2.729  0.7423 -0.5977  0.0294
  688MOL0     C92787   7.821   8.419   2.633  0.3345  0.5639 -0.2128
  688MOL0     C92788   7.886   8.543   2.695  0.8358  0.2025 -0.1532
  688MOL0     C92789   7.962   8.627   2.594 -0.5357 -1.3828  1.6064
  688MOL0    Cl92790   8.088   8.536   2.509 -0.2162 -0.0766 -0.1667
  688MOL0     C92791   7.270   7.802   2.976  0.1626  0.6661 -0.4731
  688MOL0     C92792   7.204   7.719   3.069 -0.1502 -0.9112 -0.9173
  688MOL0     O92793   7.216   7.418   3.124  0.1689  0.1573 -0.2286
  688MOL0     C92794   7.120   7.426   3.471  0.2492 -0.5435 -0.2846
  688MOL0     C92795   7.051   7.358   3.566 -0.3110 -1.2262  0.4386
  688MOL0     N92796   6.905   6.663   3.824  0.1040  0.1686 -0.0945
  688MOL0     N92797   6.912   6.560   3.745  1.0472  0.0073 -0.4617
  688MOL0     C92798   7.826   5.591   3.625 -0.1906 -0.4210  0.5934
  688MOL0     C92799   7.881   5.458   3.608 -0.1540  0.6293 -0.1203
  688MOL0     C92800   8.065   5.084   3.475  0.3228 -0.0041 -0.7309
  688MOL0     C92801   8.177   5.057   3.403 -0.6267 -0.0816  0.3933
  688MOL0     C92802   8.203   4.930   3.372 -0.3795 -0.1080  0.0887
  688MOL0     C92803   8.131   4.816   3.412  0.4388 -0.0740 -0.5587
  688MOL0     O92804   8.148   4.696   3.336 -0.3456  0.4917 -0.4436
  688MOL0     C92805   8.082   4.569   3.371 -0.3493  0.1790 -0.4162
  688MOL0     C92806   8.184   4.461   3.339  0.1188  0.7596  0.5723
  688MOL0     C92807   8.144   4.323   3.398 -0.4092 -0.3546  0.3073
  688MOL0     C92808   8.187   4.295   3.544 -0.5417  0.3479 -0.3740
  688MOL0     C92809   8.310   4.218   3.524 -0.6313 -1.2646  1.0364
  688MOL0     C92810   8.412   4.147   3.510 -0.7537  0.7546 -0.9059
  688MOL0     C92811   8.026   4.840   3.498  0.7356  0.5649 -0.1355
  688MOL0     C92812   7.990   4.973   3.527  0.1374  0.3561  0.6264
  688MOL0     H92813   7.673   5.329   3.370 -1.9638 -0.0271  0.2365
  688MOL0     H92814   7.596   5.531   3.370  1.5976 -2.1054 -1.2134
  688MOL0     H92815   7.573   5.803   3.716 -2.1711  3.5130 -1.2950
  688MOL0     H92816   7.749   5.828   3.686  1.0794  0.1637 -1.7866
  688MOL0     H92817   7.645   6.039   3.648  0.7304  1.6543 -1.0961
  688MOL0     H92818   7.638   5.965   3.480 -1.4657 -0.5740  0.6596
  688MOL0     H92819   7.411   5.882   3.538  0.4787 -0.5330  0.3115
  688MOL0     H92820   7.434   5.955   3.696 -0.0032  2.0404  0.1533
  688MOL0     H92821   7.431   6.179   3.633  1.8369  0.6549 -2.0180
  688MOL0     H92822   7.442   6.155   3.463 -2.9923 -0.5614 -1.4519
  688MOL0     H92823   7.217   6.028   3.475 -0.0272 -1.2932  1.3500
  688MOL0     H92824   7.221   6.063   3.642  0.8029 -0.5410 -0.7351
  688MOL0     H92825   7.233   6.288   3.443  2.7383  0.0833  1.2194
  688MOL0     H92826   7.084   6.206   3.503 -0.2772 -1.0578  2.5113
  688MOL0     H92827   7.126   6.252   3.722  1.4438  0.0217  1.2241
  688MOL0     H92828   7.266   6.356   3.694 -0.3683  0.4607  1.1114
  688MOL0     H92829   6.991   6.407   3.562  1.1515  1.6626 -2.8701
  688MOL0     H92830   7.140   6.498   3.550  1.0942 -0.2954  0.6531
  688MOL0     H92831   7.233   6.613   3.813  0.1855  0.2339  0.2659
  688MOL0     H92832   6.985   6.841   4.028  2.5108  4.5683  0.9509
  688MOL0     H92833   7.144   6.773   4.024  2.6896 -1.6604 -3.7651
  688MOL0     H92834   7.191   6.925   3.831 -0.3735 -0.2755 -0.0897
  688MOL0     H92835   7.118   7.012   3.960  0.1770  0.9654 -1.3466
  688MOL0     H92836   6.896   7.009   3.858 -0.1603 -3.9574  0.6357
  688MOL0     H92837   6.965   6.941   3.711  0.2791  1.6418 -1.0669
  688MOL0     H92838   7.122   7.118   3.696 -1.5562 -1.2675 -3.9976
  688MOL0     H92839   7.031   7.203   3.820 -1.2791 -2.0412  1.5775
  688MOL0     H92840   6.929   7.101   3.397  2.5489 -2.7786  2.5810
  688MOL0     H92841   6.922   7.287   3.118  1.3773 -0.9232 -1.9112
  688MOL0     H92842   7.090   7.216   3.102  0.6161 -2.2112  0.3242
  688MOL0     H92843   6.951   7.126   3.168 -0.6441  0.1935 -0.8111
  688MOL0     H92844   7.448   7.673   3.298  0.8048  1.8980  0.3701
  688MOL0     H92845   7.547   7.852   3.168 -1.0728  3.0114  0.7333
  688MOL0     H92846   7.425   7.836   2.759  0.5482 -1.1083  3.4101
  688MOL0     H92847   7.352   7.996   2.773 -1.6946 -1.3812  0.1011
  688MOL0     H92848   7.656   7.931   2.744  0.3021 -0.9755  1.0057
  688MOL0     H92849   7.542   7.994   2.618 -2.8684 -0.0538  0.3733
  688MOL0     H92850   7.647   8.144   2.874  0.9325  4.0348 -0.3085
  688MOL0     H92851   7.508   8.200   2.763 -1.7017 -1.8405 -0.9702
  688MOL0     H92852   7.797   8.148   2.688  1.2212  0.6716 -2.1185
  688MOL0     H92853   7.659   8.213   2.591 -1.0222  1.3144  0.1018
  688MOL0     H92854   7.761   8.356   2.834 -0.0574 -0.9282  0.3007
  688MOL0     H92855   7.638   8.405   2.732  1.1572  0.5482 -4.0282
  688MOL0     H92856   7.905   8.361   2.594 -0.1122  2.1442 -3.9714
  688MOL0     H92857   7.757   8.452   2.551 -0.9358  0.7266  0.8031
  688MOL0     H92858   7.955   8.511   2.774  1.0550 -2.4796 -1.3105
  688MOL0     H92859   7.808   8.599   2.747  0.3203  1.6714 -2.3867
  688MOL0     H92860   8.015   8.713   2.635  1.4000 -1.5190 -0.4390
  688MOL0     H92861   7.897   8.652   2.510  0.6857 -1.6751  0.5505
  688MOL0     H92862   7.206   7.837   2.895 -1.4531  2.0849  1.3212
  688MOL0     H92863   7.097   7.704   3.059 -0.2632 -2.2139  1.5289
  688MOL0     H92864   7.169   7.517   3.505 -3.0055  0.4393  2.3214
  688MOL0     H92865   7.056   7.389   3.670  1.5767 -1.0828  0.3330
  688MOL0     H92866   7.880   5.657   3.692 -2.0511  0.4621  1.2946
  688MOL0     H92867   7.980   5.441   3.649 -1.0702 -3.9775  0.7062
  688MOL0     H92868   8.229   5.139   3.355  0.3712 -0.3915  0.9161
  688MOL0     H92869   8.280   4.919   3.296  1.2025 -0.6486  1.6839
  688MOL0     H92870   8.061   4.553   3.477  2.3950 -1.4285 -0.0169
  688MOL0     H92871   7.986   4.553   3.320 -2.6404 -0.5202  3.6886
  688MOL0     H92872   8.285   4.487   3.371  1.5823  0.7076 -3.3989
  688MOL0     H92873   8.191   4.460   3.230  1.2555  2.4963  0.5881
  688MOL0     H92874   8.177   4.250   3.323 -0.1082  0.0311  0.0559
  688MOL0     H92875   8.036   4.312   3.399 -0.3499 -1.3489  2.8980
  688MOL0     H92876   8.112   4.231   3.592  0.7239  0.7576  2.3388
  688MOL0     H92877   8.181   4.383   3.609  0.8105  0.2834 -0.1222
  688MOL0     H92878   8.500   4.088   3.496 -1.8894 -1.6058  1.0235
  688MOL0     H92879   7.965   4.766   3.549  6.1836 -1.7623  3.9676
  688MOL0     H92880   7.910   4.994   3.598  1.5689 -1.3727  2.9001
  689MOL0     O92881   3.770   2.730   8.324 -0.5689 -0.0850  0.1321
  689MOL0     C92882   3.700   2.807   8.382 -0.5322  0.7841 -0.1944
  689MOL0     O92883   3.624   2.767   8.490 -0.9151  0.0583 -1.1965
  689MOL0     C92884   3.655   2.661   8.576 -0.0501  0.3113  0.5660
  689MOL0     C92885   3.787   2.636   8.616  0.4691  0.8524  0.4506
  689MOL0     C92886   3.818   2.530   8.705  0.6403  1.1479  0.5279
  689MOL0     C92887   3.718   2.450   8.764 -0.6411  0.4787  0.7608
  689MOL0     O92888   3.748   2.339   8.839  0.1465 -0.1182 -0.2616
  689MOL0     C92889   3.879   2.272   8.819 -0.1796  0.1038  0.4365
  689MOL0     C92890   3.877   2.138   8.891  0.1854  0.4717  1.0188
  689MOL0     C92891   4.008   2.057   8.872  0.4191  0.4371 -0.4524
  689MOL0     C92892   4.063   2.046   8.730  0.6324  0.0665 -0.1572
  689MOL0     C92893   4.194   1.972   8.728  0.4028 -0.5113 -0.4110
  689MOL0     C92894   4.229   1.920   8.585  0.4595 -0.6518 -0.3972
  689MOL0     C92895   4.357   1.839   8.574 -0.3170  0.8192 -0.3869
  689MOL0     C92896   4.338   1.703   8.640 -0.4058 -0.6380  0.0313
  689MOL0     N92897   4.454   1.620   8.620 -0.0728 -0.4915 -0.2747
  689MOL0     C92898   4.582   1.653   8.667  0.0107  0.4590  0.5707
  689MOL0     C92899   4.651   1.547   8.629  0.6861  0.1832  0.3162
  689MOL0     C92900   4.803   1.536   8.642  0.1861  0.1787  0.3990
  689MOL0     C92901   4.870   1.528   8.504 -0.5553 -0.1333 -0.5696
  689MOL0     C92902   4.835   1.402   8.441 -0.8957 -0.0917  0.3297
  689MOL0     C92903   4.939   1.367   8.334 -0.3253 -0.4877 -0.7264
  689MOL0     O92904   4.928   1.226   8.297 -0.1180  0.2363  0.0824
  689MOL0     C92905   5.009   1.130   8.358  0.1618 -1.3305 -0.0130
  689MOL0     C92906   5.001   1.000   8.318  0.0185  0.2662 -0.7659
  689MOL0     C92907   5.074   0.896   8.382  0.0261  0.3064  0.2451
  689MOL0     C92908   5.070   0.756   8.309 -0.3620 -0.8781  0.1653
  689MOL0     C92909   5.176   0.921   8.475 -0.2353 -0.5275  0.3613
  689MOL0     C92910   5.284   0.826   8.515 -0.8481  0.7151 -0.2484
  689MOL0     O92911   5.304   0.798   8.645  0.2948 -0.1168  0.2091
  689MOL0     C92912   5.399   0.704   8.674  0.0886  0.0980 -0.4395
  689MOL0     C92913   5.395   0.575   8.622 -0.0278  0.3357  0.4401
  689MOL0     C92914   5.495   0.484   8.612  0.7382  1.0715 -0.4531
  689MOL0     C92915   5.615   0.531   8.664 -1.0063  0.0337  0.2046
  689MOL0     O92916   5.722   0.443   8.680  0.5030  0.4784 -0.4636
  689MOL0     C92917   5.711   0.301   8.660  0.3008 -0.7494  0.2167
  689MOL0     C92918   5.627   0.230   8.766  0.3485  0.0512 -0.8232
  689MOL0     C92919   5.657   0.080   8.777 -0.6258 -0.3395  0.2671
  689MOL0     C92920   5.649   0.007   8.644 -0.3164  0.3186 -0.0007
  689MOL0     C92921   5.664  -0.148   8.676 -0.8226  0.0093 -0.5335
  689MOL0     C92922   5.677  -0.239   8.556 -1.1459  1.1668 -1.1057
  689MOL0     C92923   5.687  -0.387   8.600 -0.0238 -1.1179 -0.9398
  689MOL0     C92924   5.813  -0.425   8.677 -0.7859 -0.4706 -0.3610
  689MOL0    Cl92925   5.772  -0.586   8.736 -0.3153 -0.2556 -0.4133
  689MOL0     C92926   5.630   0.659   8.715 -1.4916  0.0355 -0.2093
  689MOL0     C92927   5.522   0.746   8.721  0.4875 -0.0186 -0.4105
  689MOL0     O92928   5.364   0.794   8.418  0.4958 -0.5714 -0.5747
  689MOL0     C92929   5.176   1.062   8.523 -0.0325 -0.8864 -0.0243
  689MOL0     C92930   5.087   1.159   8.468 -0.1280 -0.4946  0.3989
  689MOL0     N92931   4.567   1.452   8.570 -0.8950 -0.1663 -0.3809
  689MOL0     N92932   4.447   1.498   8.564  0.1365  0.5145  0.0795
  689MOL0     C92933   3.586   2.480   8.734  0.8932 -0.0780 -0.5784
  689MOL0     C92934   3.558   2.587   8.646  0.3488 -0.5371 -0.0781
  689MOL0     C92935   3.669   2.942   8.314 -0.5216 -1.1184 -0.4961
  689MOL0     C92936   3.568   3.022   8.382 -0.1379  0.7477 -0.2353
  689MOL0     C92937   3.530   3.140   8.329 -0.1041 -0.3313  0.0903
  689MOL0     C92938   3.590   3.187   8.209 -0.2959  0.8840  0.4429
  689MOL0     O92939   3.545   3.304   8.153  0.1972 -0.0368  0.0274
  689MOL0     C92940   3.544   3.420   8.245 -0.6442 -0.6418  1.0374
  689MOL0     C92941   3.681   3.437   8.314  1.0983 -0.2040  1.0482
  689MOL0     C92942   3.804   3.452   8.216  0.2006 -0.4678 -0.3288
  689MOL0     C92943   3.862   3.588   8.176 -0.3386  0.9979  0.0013
  689MOL0     C92944   3.762   3.676   8.098  0.2593 -0.0230 -0.0165
  689MOL0     C92945   3.698   3.753   8.027 -0.2493 -0.8672 -0.2722
  689MOL0     C92946   3.686   3.106   8.147  0.4980 -0.6027  1.4174
  689MOL0     C92947   3.733   2.983   8.198 -0.9167 -0.7930 -0.0611
  689MOL0     H92948   3.866   2.698   8.575  0.4893  0.4175 -0.1841
  689MOL0     H92949   3.918   2.506   8.737  0.3147 -0.8529  0.2031
  689MOL0     H92950   3.898   2.254   8.713 -1.6706 -2.4175  0.5074
  689MOL0     H92951   3.959   2.339   8.852  1.1631 -1.6069  0.8492
  689MOL0     H92952   3.860   2.152   8.998 -1.9264 -5.8061  1.9365
  689MOL0     H92953   3.796   2.082   8.844  1.9304 -0.0213 -1.6202
  689MOL0     H92954   4.082   2.109   8.935  0.1315  2.3476 -1.6033
  689MOL0     H92955   3.990   1.953   8.899 -0.8766  0.1866 -2.1728
  689MOL0     H92956   3.991   1.995   8.666 -0.2390 -1.0346  1.6201
  689MOL0     H92957   4.067   2.145   8.684 -4.9285  0.6246 -0.1171
  689MOL0     H92958   4.269   2.037   8.775 -0.1520 -0.0132 -0.1998
  689MOL0     H92959   4.183   1.890   8.801  1.6104 -0.3638 -0.0395
  689MOL0     H92960   4.141   1.861   8.558  0.9120  0.2463 -4.5825
  689MOL0     H92961   4.237   2.006   8.518 -1.4164 -0.4454 -0.4318
  689MOL0     H92962   4.386   1.811   8.473  0.7242 -0.1241  0.1489
  689MOL0     H92963   4.438   1.905   8.605 -2.4578  4.5121 -1.9620
  689MOL0     H92964   4.249   1.650   8.603 -0.0178 -2.3640  1.4315
  689MOL0     H92965   4.318   1.719   8.747 -1.8400  1.4930 -0.4802
  689MOL0     H92966   4.616   1.741   8.722 -0.4823  1.4120 -0.6061
  689MOL0     H92967   4.837   1.626   8.695  0.5999  0.8463 -0.9518
  689MOL0     H92968   4.840   1.453   8.702  4.2261 -0.0124 -2.0018
  689MOL0     H92969   4.979   1.532   8.514 -0.5592  0.6179 -0.7743
  689MOL0     H92970   4.818   1.613   8.458 -3.6486 -0.9360  1.1213
  689MOL0     H92971   4.738   1.400   8.391 -0.9918 -1.1903  0.5297
  689MOL0     H92972   4.829   1.325   8.519  0.4100  1.7029  2.3011
  689MOL0     H92973   5.037   1.396   8.372 -0.8855 -0.6840  0.9485
  689MOL0     H92974   4.917   1.427   8.246  2.8311  0.5726 -0.9081
  689MOL0     H92975   4.942   0.978   8.229  2.8723 -0.5652 -2.5629
  689MOL0     H92976   5.168   0.736   8.264  2.1680  2.4605  3.5171
  689MOL0     H92977   5.064   0.675   8.381 -0.3208 -0.6473  0.4282
  689MOL0     H92978   4.985   0.754   8.240 -1.7036 -2.7294  1.7539
  689MOL0     H92979   5.298   0.539   8.588 -0.5682 -0.7720  2.9076
  689MOL0     H92980   5.476   0.386   8.570 -0.7858  0.2000  2.0311
  689MOL0     H92981   5.672   0.268   8.563  2.1779  1.4342 -1.4044
  689MOL0     H92982   5.815   0.266   8.662 -0.4250 -3.0667  1.8665
  689MOL0     H92983   5.639   0.275   8.865  2.6635 -0.8889 -0.5928
  689MOL0     H92984   5.520   0.233   8.748  0.6584 -1.5687 -3.3382
  689MOL0     H92985   5.599   0.037   8.859  3.8151 -2.5109  2.6224
  689MOL0     H92986   5.762   0.079   8.808 -0.1363  1.8969 -1.1221
  689MOL0     H92987   5.554   0.026   8.594  0.2546  0.2830 -1.1571
  689MOL0     H92988   5.734   0.038   8.582  1.1891 -0.9822  1.3012
  689MOL0     H92989   5.576  -0.183   8.731  1.0614  0.3642  2.9898
  689MOL0     H92990   5.745  -0.150   8.750 -1.6052 -0.5797  0.3342
  689MOL0     H92991   5.591  -0.232   8.489  0.4654  0.4399 -3.3518
  689MOL0     H92992   5.757  -0.206   8.490 -0.3795 -0.2694 -0.9295
  689MOL0     H92993   5.690  -0.446   8.508  1.6192 -0.4315 -1.3495
  689MOL0     H92994   5.595  -0.405   8.657 -0.1169 -1.4877 -1.2001
  689MOL0     H92995   5.826  -0.353   8.758 -2.9317  1.4735 -1.6665
  689MOL0     H92996   5.908  -0.421   8.622 -1.4953  0.5073 -1.5673
  689MOL0     H92997   5.729   0.695   8.738 -0.5492 -1.5979 -1.4829
  689MOL0     H92998   5.522   0.852   8.743 -1.4015 -0.0888  0.0512
  689MOL0     H92999   5.243   1.101   8.599 -0.4269  0.8636 -0.5382
  689MOL0     H93000   5.099   1.259   8.507 -0.7341  0.2351 -1.1882
  689MOL0     H93001   3.503   2.444   8.794  1.0449  0.1319 -0.2408
  689MOL0     H93002   3.454   2.617   8.631 -0.0105 -1.4591  0.5063
  689MOL0     H93003   3.526   2.983   8.475  0.7845 -0.0475 -0.1328
  689MOL0     H93004   3.454   3.198   8.380  0.3559  1.2165 -0.9193
  689MOL0     H93005   3.498   3.506   8.196  2.2151  0.6153  0.3599
  689MOL0     H93006   3.471   3.394   8.322 -4.4075  2.7938 -0.9795
  689MOL0     H93007   3.698   3.346   8.372 -2.0478 -1.6314 -0.0328
  689MOL0     H93008   3.676   3.525   8.378 -1.7623 -0.4906  1.3623
  689MOL0     H93009   3.778   3.396   8.126 -1.1126 -0.1063 -0.1980
  689MOL0     H93010   3.889   3.394   8.251  3.3346  3.1404 -1.3206
  689MOL0     H93011   3.946   3.588   8.106  0.4457 -0.2962  0.9204
  689MOL0     H93012   3.896   3.637   8.267  0.6829 -0.2292  0.2996
  689MOL0     H93013   3.640   3.816   7.963  0.9410  1.3823  0.7593
  689MOL0     H93014   3.725   3.144   8.053 -1.0195 -0.3488  0.8710
  689MOL0     H93015   3.806   2.931   8.137  1.6514  1.8711  0.4922
  690MOL0     O93016   5.314   1.189   2.841  0.7155  0.0386  0.3462
  690MOL0     C93017   5.335   1.085   2.889  0.5303  1.1459 -0.0458
  690MOL0     O93018   5.312   0.965   2.819 -0.1395  0.1351  0.2557
  690MOL0     C93019   5.211   0.939   2.726 -1.4113 -0.4882  0.7194
  690MOL0     C93020   5.097   1.019   2.715  0.2755  0.7150 -0.4292
  690MOL0     C93021   5.011   1.006   2.602  0.3596  1.5579 -0.7735
  690MOL0     C93022   5.030   0.907   2.507  0.1174  0.0929 -0.7768
  690MOL0     O93023   4.954   0.895   2.397  0.7074 -0.2539  0.1521
  690MOL0     C93024   4.830   0.968   2.372 -0.1210  0.8725 -0.5060
  690MOL0     C93025   4.762   0.904   2.254  0.0394  0.3295 -0.0441
  690MOL0     C93026   4.694   1.009   2.176  1.1371  0.6512  0.2006
  690MOL0     C93027   4.578   0.946   2.093 -0.9316 -0.1358  0.6340
  690MOL0     C93028   4.510   1.048   2.009  0.7159  0.3227  0.2636
  690MOL0     C93029   4.589   1.123   1.892  1.5394  0.3255 -0.8429
  690MOL0     C93030   4.488   1.185   1.800  0.3324 -0.2427  0.1426
  690MOL0     C93031   4.391   1.287   1.866 -1.2414  0.2997 -0.0790
  690MOL0     N93032   4.467   1.411   1.904 -0.3346  0.3861 -0.2067
  690MOL0     C93033   4.505   1.514   1.826  0.1582  0.0848 -0.0246
  690MOL0     C93034   4.563   1.603   1.910  0.3861  0.2721 -0.4677
  690MOL0     C93035   4.616   1.738   1.870 -0.3191  0.5761 -0.2570
  690MOL0     C93036   4.722   1.723   1.764  0.5832  0.4575 -0.2666
  690MOL0     C93037   4.844   1.640   1.798  0.5153 -0.0042  0.6718
  690MOL0     C93038   4.839   1.507   1.882  0.2790 -0.6797 -0.2771
  690MOL0     O93039   4.962   1.430   1.858 -0.8612  0.6706  0.2974
  690MOL0     C93040   4.972   1.365   1.737 -0.4111  0.6399 -0.1742
  690MOL0     C93041   5.077   1.272   1.721  0.1201  0.4828 -0.8411
  690MOL0     C93042   5.108   1.200   1.608  0.7093 -0.7575  0.3850
  690MOL0     C93043   5.214   1.100   1.610 -0.4584  0.2166  0.2555
  690MOL0     C93044   5.018   1.214   1.496 -0.5887 -1.0638  0.5323
  690MOL0     C93045   5.034   1.138   1.364  1.2099  0.3487 -0.3184
  690MOL0     O93046   5.073   1.005   1.382  1.4540 -0.8270  0.4898
  690MOL0     C93047   5.112   0.947   1.266 -0.2494  0.8202  0.5598
  690MOL0     C93048   5.017   0.885   1.173  0.3953 -0.2676 -0.2767
  690MOL0     C93049   5.074   0.822   1.055  0.7487 -0.9624  0.4851
  690MOL0     C93050   5.208   0.824   1.025  0.0406  0.9616  0.1241
  690MOL0     O93051   5.251   0.758   0.916 -0.6635 -0.2025  0.1485
  690MOL0     C93052   5.193   0.628   0.883  0.1947 -0.3097 -0.0925
  690MOL0     C93053   5.263   0.567   0.760 -0.2788 -0.4578 -0.3721
  690MOL0     C93054   5.415   0.575   0.792  1.0569 -0.2121 -0.0095
  690MOL0     C93055   5.493   0.537   0.674  0.2604  0.0523 -1.0001
  690MOL0     C93056   5.642   0.510   0.709  0.0127  0.4129 -0.7342
  690MOL0     C93057   5.663   0.380   0.785  0.2161 -0.3302 -1.1168
  690MOL0     C93058   5.815   0.346   0.798  0.4853  0.2952  1.0323
  690MOL0     C93059   5.839   0.196   0.803 -0.5771 -0.2018 -0.4266
  690MOL0    Cl93060   6.012   0.183   0.779 -0.2421 -0.2282  0.6103
  690MOL0     C93061   5.298   0.874   1.118 -0.0364  0.3180 -0.1510
  690MOL0     C93062   5.249   0.930   1.239 -0.5753  0.9474 -0.1709
  690MOL0     O93063   5.010   1.199   1.254 -0.2062  1.1750 -0.0567
  690MOL0     C93064   4.907   1.300   1.511 -0.2320 -0.2954  0.6333
  690MOL0     C93065   4.876   1.372   1.632 -0.2169 -1.0963  0.6531
  690MOL0     N93066   4.552   1.553   2.035 -1.0753  0.3499 -0.0480
  690MOL0     N93067   4.509   1.426   2.030  1.2387  0.0628  0.0260
  690MOL0     C93068   5.143   0.815   2.522  0.5962  0.5281 -0.6511
  690MOL0     C93069   5.234   0.835   2.636  0.2845 -0.3939  1.1060
  690MOL0     C93070   5.411   1.071   3.019 -0.0534  0.0918  0.5754
  690MOL0     C93071   5.429   1.185   3.109 -0.5672  0.5917  0.4026
  690MOL0     C93072   5.490   1.162   3.232  0.1250 -1.0563  0.2285
  690MOL0     C93073   5.524   1.031   3.270 -0.4995  0.3324  0.2400
  690MOL0     O93074   5.581   1.017   3.393  0.1192  0.7860  0.2802
  690MOL0     C93075   5.527   0.920   3.484 -0.7181 -0.5406 -0.1465
  690MOL0     C93076   5.417   0.981   3.570 -0.2681 -0.5029  0.2042
  690MOL0     C93077   5.473   1.039   3.697  1.0909 -0.1261  0.5040
  690MOL0     C93078   5.388   1.147   3.753  0.9022 -0.0337  0.8465
  690MOL0     C93079   5.441   1.176   3.879 -0.3113 -0.4682 -1.2161
  690MOL0     C93080   5.503   1.223   3.974  0.3374 -0.0250  0.8654
  690MOL0     C93081   5.505   0.916   3.186 -0.2798 -0.5341 -0.4716
  690MOL0     C93082   5.453   0.936   3.057 -0.4928 -0.1216  0.3667
  690MOL0     H93083   5.080   1.086   2.798  0.7475 -0.9906  1.1326
  690MOL0     H93084   4.923   1.069   2.598 -1.1660 -0.3835 -5.7704
  690MOL0     H93085   4.767   0.963   2.462  0.0421  1.7218 -0.3427
  690MOL0     H93086   4.858   1.073   2.368 -0.7093  1.1218  0.9996
  690MOL0     H93087   4.840   0.863   2.189  1.5500 -0.1711  1.9958
  690MOL0     H93088   4.699   0.819   2.279  1.7251 -1.2682 -0.9979
  690MOL0     H93089   4.659   1.093   2.238  1.3881  2.1449 -1.6084
  690MOL0     H93090   4.776   1.044   2.114  1.2660  0.3934  0.2237
  690MOL0     H93091   4.624   0.869   2.031 -0.8026  1.0336 -0.7959
  690MOL0     H93092   4.511   0.894   2.162  0.8029 -1.6218  1.2938
  690MOL0     H93093   4.428   0.991   1.963  2.0357  0.5292 -2.5285
  690MOL0     H93094   4.456   1.123   2.067 -2.7815 -2.6676  1.2194
  690MOL0     H93095   4.654   1.199   1.935  0.9831  1.7566 -2.4417
  690MOL0     H93096   4.646   1.046   1.840  2.0030  0.3645 -0.4042
  690MOL0     H93097   4.544   1.236   1.721  0.6712 -1.8523 -0.7091
  690MOL0     H93098   4.430   1.108   1.748  0.2091  0.8871 -1.4622
  690MOL0     H93099   4.334   1.252   1.953 -2.0644  0.8128 -0.3973
  690MOL0     H93100   4.324   1.316   1.785 -2.9069 -0.3434  1.0247
  690MOL0     H93101   4.505   1.526   1.718 -0.3921  1.3747  0.1036
  690MOL0     H93102   4.534   1.797   1.829 -3.7142 -1.8497  2.4308
  690MOL0     H93103   4.657   1.792   1.956 -0.4374 -1.7900  1.3760
  690MOL0     H93104   4.757   1.824   1.742 -0.6911  0.8064 -0.8014
  690MOL0     H93105   4.684   1.697   1.664 -1.2609 -0.2476  0.5744
  690MOL0     H93106   4.907   1.704   1.860  0.3954 -0.8096  1.6413
  690MOL0     H93107   4.904   1.630   1.707  1.4076 -0.1329  1.2692
  690MOL0     H93108   4.760   1.437   1.855 -2.5533  1.3990  1.9872
  690MOL0     H93109   4.818   1.527   1.987 -1.8562 -0.9647 -0.6039
  690MOL0     H93110   5.132   1.248   1.812 -0.0001  2.8147 -0.1062
  690MOL0     H93111   5.170   1.000   1.608  2.0580 -1.1129 -4.7846
  690MOL0     H93112   5.266   1.110   1.515  0.1357  4.6539  0.8174
  690MOL0     H93113   5.278   1.126   1.695 -0.1321 -1.0682  0.4141
  690MOL0     H93114   4.911   0.887   1.197 -0.3644 -0.4871 -3.2306
  690MOL0     H93115   4.993   0.773   1.003 -1.1380  0.7371  1.6674
  690MOL0     H93116   5.195   0.554   0.964  0.0564 -0.7092 -0.4518
  690MOL0     H93117   5.085   0.639   0.869  0.1289  2.1965  1.6922
  690MOL0     H93118   5.226   0.464   0.756  1.5686 -1.1397 -1.4367
  690MOL0     H93119   5.234   0.614   0.666  0.1510 -1.5588 -1.0803
  690MOL0     H93120   5.439   0.504   0.871  0.8240 -0.8493 -0.5048
  690MOL0     H93121   5.441   0.677   0.823  1.5948  0.6391 -2.9925
  690MOL0     H93122   5.458   0.436   0.652 -0.0430 -0.2417  0.7437
  690MOL0     H93123   5.484   0.608   0.590  2.9457  2.1709  0.3347
  690MOL0     H93124   5.690   0.589   0.767  4.6232 -2.6026  0.0885
  690MOL0     H93125   5.683   0.493   0.609  0.8845 -0.6909 -0.2022
  690MOL0     H93126   5.629   0.402   0.887  0.7009 -0.4242 -0.9364
  690MOL0     H93127   5.607   0.293   0.749  0.8535 -1.0635 -0.3758
  690MOL0     H93128   5.851   0.393   0.890 -0.8681  2.4080  0.5399
  690MOL0     H93129   5.865   0.393   0.713 -2.9450  1.3717 -0.5668
  690MOL0     H93130   5.782   0.139   0.729 -1.1202 -3.7219  2.4314
  690MOL0     H93131   5.813   0.158   0.902 -0.2693  4.5462  1.7356
  690MOL0     H93132   5.404   0.869   1.094 -0.0392 -2.0660  0.0882
  690MOL0     H93133   5.314   0.973   1.314 -0.1379 -0.9817  0.6292
  690MOL0     H93134   4.829   1.312   1.437 -0.0625  0.7119  0.6076
  690MOL0     H93135   4.781   1.425   1.631  1.6155  2.4866  1.0833
  690MOL0     H93136   5.157   0.736   2.450  1.0793 -1.8091  1.8314
  690MOL0     H93137   5.328   0.780   2.638  2.4633  3.0299  2.1106
  690MOL0     H93138   5.385   1.279   3.077 -2.3921 -0.2149  0.3795
  690MOL0     H93139   5.507   1.240   3.306  1.9306 -1.1041 -0.0912
  690MOL0     H93140   5.481   0.834   3.435 -2.0426 -0.0878  0.2528
  690MOL0     H93141   5.614   0.889   3.543 -1.4202 -2.1225  0.1078
  690MOL0     H93142   5.341   0.906   3.595  1.6790 -1.8028  2.4800
  690MOL0     H93143   5.367   1.056   3.507 -0.0387 -1.5628 -1.3056
  690MOL0     H93144   5.573   1.077   3.675  0.0978  1.7169 -1.1939
  690MOL0     H93145   5.477   0.956   3.768 -0.9051 -0.6327  0.0797
  690MOL0     H93146   5.288   1.103   3.749 -0.6569  3.3068 -2.1484
  690MOL0     H93147   5.387   1.241   3.697 -1.6048 -0.6077 -0.2134
  690MOL0     H93148   5.561   1.265   4.053 -0.6065 -1.1710  2.2280
  690MOL0     H93149   5.540   0.819   3.219  0.6188 -0.0904 -0.0677
  690MOL0     H93150   5.462   0.855   2.985  3.5492  0.7258 -0.3541
  691MOL0     O93151   0.103   4.907   9.384  0.0930  0.0501 -0.2663
  691MOL0     C93152   0.007   4.865   9.454 -0.4023  0.4101 -0.0688
  691MOL0     O93153  -0.118   4.910   9.451 -0.7042  0.1441  0.3065
  691MOL0     C93154  -0.124   5.038   9.403  0.8802 -0.7348  0.0327
  691MOL0     C93155  -0.126   5.077   9.269 -0.1514  0.0101 -0.2598
  691MOL0     C93156  -0.150   5.214   9.242 -0.1319  0.7377 -0.4268
  691MOL0     C93157  -0.157   5.315   9.337 -0.8514  0.0243  0.8287
  691MOL0     O93158  -0.177   5.453   9.304 -0.4856 -0.0800 -0.3036
  691MOL0     C93159  -0.292   5.475   9.222 -0.3932  0.1661 -0.2268
  691MOL0     C93160  -0.306   5.616   9.174 -1.0417 -0.4303  0.0802
  691MOL0     C93161  -0.186   5.679   9.113 -0.7953 -0.3002  0.0742
  691MOL0     C93162  -0.212   5.822   9.053 -0.2894 -0.4969  1.1461
  691MOL0     C93163  -0.295   5.923   9.141  0.0132  0.2585 -0.5687
  691MOL0     C93164  -0.442   5.921   9.100  0.4818 -0.6438  0.5112
  691MOL0     C93165  -0.534   6.000   9.202  1.3073  0.8900 -0.8872
  691MOL0     C93166  -0.560   5.930   9.339 -0.6685 -0.3084 -0.0183
  691MOL0     N93167  -0.635   6.001   9.439 -0.1252 -0.7015  0.0164
  691MOL0     C93168  -0.593   6.122   9.494 -0.5973  0.4080 -0.6364
  691MOL0     C93169  -0.687   6.152   9.586  1.0691 -1.0182  0.6395
  691MOL0     C93170  -0.670   6.283   9.662  0.5256 -0.3655  0.2433
  691MOL0     C93171  -0.711   6.263   9.810  0.4391 -0.5952  0.5800
  691MOL0     C93172  -0.680   6.393   9.884 -0.5099  0.4455  0.2139
  691MOL0     C93173  -0.714   6.390  10.033 -0.5487 -0.5288 -0.0447
  691MOL0     O93174  -0.849   6.340  10.056 -0.2756  0.4183 -0.4596
  691MOL0     C93175  -0.850   6.226  10.130 -0.0326  0.9115 -1.1221
  691MOL0     C93176  -0.810   6.221  10.268  0.4735 -0.4815  0.6610
  691MOL0     C93177  -0.822   6.111  10.354  0.5291  1.3603 -0.0036
  691MOL0     C93178  -0.748   6.120  10.479 -0.0983  0.3918  1.3085
  691MOL0     C93179  -0.899   5.989  10.304  0.5328 -0.1431 -0.5627
  691MOL0     C93180  -0.940   5.873  10.387  0.5915 -0.0267 -0.5224
  691MOL0     O93181  -1.046   5.799  10.327 -0.2104 -0.2090 -0.5916
  691MOL0     C93182  -1.069   5.671  10.357  0.6901 -1.5007  1.0447
  691MOL0     C93183  -1.116   5.588  10.261 -0.6659 -0.6512  0.3717
  691MOL0     C93184  -1.163   5.463  10.284  0.3988 -0.1290  0.8510
  691MOL0     C93185  -1.159   5.415  10.408  0.4211  0.1779 -0.1658
  691MOL0     O93186  -1.216   5.293  10.418 -0.0775 -0.0160 -0.2183
  691MOL0     C93187  -1.264   5.235  10.543  0.9823  0.4254 -0.5948
  691MOL0     C93188  -1.296   5.089  10.523  1.0687 -0.4692  0.0860
  691MOL0     C93189  -1.396   5.066  10.409  0.0916  0.2295  0.1528
  691MOL0     C93190  -1.540   5.126  10.440 -0.4376 -0.2519 -0.2218
  691MOL0     C93191  -1.600   5.158  10.306  0.4815 -0.6735  0.3088
  691MOL0     C93192  -1.736   5.223  10.320  0.8079  0.2425 -0.1410
  691MOL0     C93193  -1.791   5.274  10.190  0.8741  0.3364  0.3300
  691MOL0     C93194  -1.924   5.350  10.200  0.6542  0.3631  0.4841
  691MOL0    Cl93195  -2.054   5.227  10.244  0.1254  0.1636 -0.3697
  691MOL0     C93196  -1.102   5.488  10.515 -0.5626  0.4077 -0.7269
  691MOL0     C93197  -1.067   5.618  10.492 -0.2745  0.6558  0.8097
  691MOL0     O93198  -0.907   5.858  10.499  0.4175  0.4348 -0.7957
  691MOL0     C93199  -0.948   6.007  10.170  0.5351 -0.5154 -0.5093
  691MOL0     C93200  -0.925   6.117  10.087  0.3881 -0.0965 -0.6811
  691MOL0     N93201  -0.783   6.050   9.585 -0.3836  0.0574 -0.0602
  691MOL0     N93202  -0.751   5.963   9.496 -0.3124 -0.0264 -0.8597
  691MOL0     C93203  -0.155   5.268   9.469 -0.3540 -0.7810  0.5527
  691MOL0     C93204  -0.142   5.136   9.495  0.4754  1.0488 -0.5488
  691MOL0     C93205   0.034   4.750   9.555  0.0921 -0.3696 -0.5953
  691MOL0     C93206   0.146   4.666   9.520 -0.1712  0.7306 -0.0129
  691MOL0     C93207   0.174   4.552   9.600 -0.1837  0.1233  0.9140
  691MOL0     C93208   0.112   4.540   9.721 -0.2211  0.6059 -0.6204
  691MOL0     O93209   0.158   4.435   9.792  0.0017  0.3343  0.2867
  691MOL0     C93210   0.103   4.391   9.921 -0.6685 -0.1586  0.5834
  691MOL0     C93211   0.184   4.462  10.033 -0.5127  0.7143 -0.0114
  691MOL0     C93212   0.337   4.457  10.016  0.0215  0.7734  0.0614
  691MOL0     C93213   0.394   4.313   9.990 -0.1121  0.7355 -1.2009
  691MOL0     C93214   0.411   4.239  10.120  0.4506 -0.2958 -0.5657
  691MOL0     C93215   0.432   4.168  10.218 -0.3975  0.5925 -0.0573
  691MOL0     C93216   0.012   4.631   9.761 -0.5082  0.3318  0.3339
  691MOL0     C93217  -0.031   4.735   9.674  0.8333  0.6940 -0.4246
  691MOL0     H93218  -0.124   5.013   9.181 -1.5733 -0.0131 -0.2998
  691MOL0     H93219  -0.153   5.240   9.137 -2.0413 -2.2360 -1.1943
  691MOL0     H93220  -0.287   5.410   9.135 -0.4914  0.8646 -0.7653
  691MOL0     H93221  -0.383   5.449   9.277 -3.5020  2.6466 -3.6802
  691MOL0     H93222  -0.384   5.601   9.100 -1.2703 -0.8344  0.3964
  691MOL0     H93223  -0.341   5.675   9.259  2.8717 -1.7186  2.9190
  691MOL0     H93224  -0.106   5.675   9.188  2.2323 -0.6109 -2.9107
  691MOL0     H93225  -0.150   5.616   9.031 -0.8054  3.7331 -3.3967
  691MOL0     H93226  -0.114   5.867   9.036 -1.1660  1.2325  0.4608
  691MOL0     H93227  -0.261   5.811   8.957 -0.2056 -1.4283  1.1976
  691MOL0     H93228  -0.279   5.903   9.247  0.5045 -1.9854 -1.0218
  691MOL0     H93229  -0.253   6.015   9.101  2.0525 -2.1768 -4.6460
  691MOL0     H93230  -0.463   5.955   8.998 -1.6840  0.8109  1.3707
  691MOL0     H93231  -0.486   5.821   9.103  0.7910 -0.7912  0.1806
  691MOL0     H93232  -0.494   6.100   9.224  3.1394 -0.2013  1.0070
  691MOL0     H93233  -0.627   6.022   9.149 -0.4432 -1.9295  0.7531
  691MOL0     H93234  -0.463   5.904   9.381 -2.5272 -2.3923  3.5325
  691MOL0     H93235  -0.622   5.841   9.320 -0.2577  0.0361 -3.8056
  691MOL0     H93236  -0.507   6.187   9.479  0.8134 -0.7939  1.6990
  691MOL0     H93237  -0.566   6.318   9.662 -0.5944  3.3483  1.0104
  691MOL0     H93238  -0.740   6.360   9.629 -0.1179 -0.5590  1.1185
  691MOL0     H93239  -0.649   6.184   9.854 -0.2992 -1.8483 -0.5614
  691MOL0     H93240  -0.818   6.243   9.821 -0.0898  2.1137  1.0879
  691MOL0     H93241  -0.753   6.462   9.842  0.1898  1.2115  0.2193
  691MOL0     H93242  -0.577   6.428   9.871 -0.4694 -0.3316 -2.0031
  691MOL0     H93243  -0.713   6.489  10.080 -3.0584 -1.3423  1.9550
  691MOL0     H93244  -0.639   6.333  10.088 -0.1553  1.4243  1.5600
  691MOL0     H93245  -0.761   6.310  10.304 -1.5967  0.9944  0.0511
  691MOL0     H93246  -0.807   6.142  10.569  2.1609  0.6237  2.8392
  691MOL0     H93247  -0.698   6.023  10.483  0.7906  0.8397  1.3370
  691MOL0     H93248  -0.671   6.198  10.476 -0.9382  1.2577  1.8129
  691MOL0     H93249  -1.123   5.625  10.160  1.6395  0.4529  0.5400
  691MOL0     H93250  -1.197   5.412  10.194 -0.9501  0.8400  0.7729
  691MOL0     H93251  -1.184   5.239  10.618  2.1094 -0.8743 -1.6590
  691MOL0     H93252  -1.357   5.284  10.573  0.5946 -1.5686  1.7248
  691MOL0     H93253  -1.200   5.039  10.505  0.8208 -1.2531  0.8931
  691MOL0     H93254  -1.336   5.057  10.620 -4.5618 -1.4068 -2.1769
  691MOL0     H93255  -1.417   4.960  10.393 -0.8075  0.4854 -0.4493
  691MOL0     H93256  -1.340   5.115  10.329  1.7418  0.7205  1.5420
  691MOL0     H93257  -1.611   5.060  10.490 -1.0170  1.3264  1.1371
  691MOL0     H93258  -1.548   5.214  10.505 -1.2567 -0.2947 -0.2471
  691MOL0     H93259  -1.614   5.075  10.237 -1.9507  0.1216 -0.2287
  691MOL0     H93260  -1.548   5.236  10.249 -1.0523 -2.0104 -3.2093
  691MOL0     H93261  -1.805   5.147  10.360  1.9133 -1.3381 -1.1147
  691MOL0     H93262  -1.738   5.298  10.399 -1.4855  0.6578 -0.5176
  691MOL0     H93263  -1.804   5.200  10.111 -0.0658  0.5267  0.2951
  691MOL0     H93264  -1.706   5.332  10.152  0.3166  0.2799 -1.0777
  691MOL0     H93265  -1.943   5.386  10.099  2.1099 -2.0862 -0.7521
  691MOL0     H93266  -1.916   5.431  10.273  0.9399 -0.2773  1.1745
  691MOL0     H93267  -1.101   5.459  10.620  0.1338  2.0276 -0.2612
  691MOL0     H93268  -1.040   5.673  10.582 -0.4804  0.6519  0.8750
  691MOL0     H93269  -1.014   5.935  10.122  1.5387 -1.5860 -0.3334
  691MOL0     H93270  -0.969   6.110   9.988 -2.3751  1.8957  0.2767
  691MOL0     H93271  -0.190   5.336   9.545 -2.4778 -1.0985 -0.0747
  691MOL0     H93272  -0.147   5.106   9.599 -0.5185 -4.6338 -1.9200
  691MOL0     H93273   0.213   4.680   9.436  1.5472 -2.0338  0.7237
  691MOL0     H93274   0.249   4.481   9.567  1.3514  0.6940  2.9017
  691MOL0     H93275  -0.001   4.423   9.937 -0.4963  0.7111  0.0628
  691MOL0     H93276   0.106   4.282   9.928  1.3286 -0.0858  1.4876
  691MOL0     H93277   0.158   4.415  10.128  1.1150 -1.5032 -0.5658
  691MOL0     H93278   0.152   4.567  10.037 -0.2419  0.8728 -1.3430
  691MOL0     H93279   0.382   4.492  10.109 -1.1615 -2.1214  1.8429
  691MOL0     H93280   0.363   4.530   9.938  0.0049 -0.8942 -1.5678
  691MOL0     H93281   0.490   4.304   9.940 -0.4244 -2.0077 -1.4519
  691MOL0     H93282   0.323   4.259   9.927 -0.7198  0.9485 -0.7105
  691MOL0     H93283   0.449   4.113  10.308 -2.6880  0.1747  0.1991
  691MOL0     H93284  -0.043   4.623   9.855  1.0162 -0.0486  1.2231
  691MOL0     H93285  -0.114   4.799   9.698 -0.6700 -1.7890  1.5333
  692MOL0     O93286   8.092   9.214   0.380  0.4004 -0.0497 -0.1093
  692MOL0     C93287   8.117   9.108   0.324  0.5889 -0.0468  0.0152
  692MOL0     O93288   8.072   9.062   0.198  0.4737 -0.2541  0.5319
  692MOL0     C93289   8.012   9.152   0.117  0.1706  0.0843  0.1322
  692MOL0     C93290   8.057   9.281   0.081 -0.1390  0.8723  0.1403
  692MOL0     C93291   7.982   9.359  -0.017  0.1376  0.1654 -0.6332
  692MOL0     C93292   7.872   9.302  -0.076  0.3104 -0.3366  0.3917
  692MOL0     O93293   7.819   9.384  -0.176 -0.3215  0.0661  0.5244
  692MOL0     C93294   7.722   9.329  -0.276  0.0113 -0.0391  0.2186
  692MOL0     C93295   7.584   9.392  -0.218  0.3561  0.0983  0.5862
  692MOL0     C93296   7.468   9.311  -0.272  1.0366  0.8682 -0.0712
  692MOL0     C93297   7.461   9.173  -0.207  0.2641  0.4373 -0.8682
  692MOL0     C93298   7.330   9.104  -0.247  0.7060  0.1085 -0.5402
  692MOL0     C93299   7.203   9.137  -0.160  0.2327  0.5914  0.1491
  692MOL0     C93300   7.201   9.090  -0.015  0.6444 -0.5057 -0.8990
  692MOL0     C93301   7.065   9.107   0.048  0.1445  0.1257 -0.3767
  692MOL0     N93302   7.063   9.143   0.191  0.0103 -0.5569  0.7169
  692MOL0     C93303   7.149   9.083   0.285 -0.3636  0.1379  0.3071
  692MOL0     C93304   7.097   9.111   0.405  0.8277 -0.3019 -1.2937
  692MOL0     C93305   7.140   9.080   0.545 -0.1906  0.4921  0.5797
  692MOL0     C93306   7.272   9.000   0.533 -0.5044 -1.2294 -0.0600
  692MOL0     C93307   7.295   8.944   0.672  0.3045  0.7129  0.5032
  692MOL0     C93308   7.431   8.876   0.661  0.3503  0.4154 -0.1707
  692MOL0     O93309   7.441   8.796   0.772  0.4018  0.4130  0.1048
  692MOL0     C93310   7.548   8.708   0.777 -0.3185  0.1921  1.1530
  692MOL0     C93311   7.542   8.632   0.893  0.2524 -0.9805 -0.1404
  692MOL0     C93312   7.650   8.552   0.942 -0.6750 -0.1771  0.5289
  692MOL0     C93313   7.627   8.460   1.063  0.6190 -0.7100  0.4906
  692MOL0     C93314   7.770   8.540   0.868  0.3910 -0.4068  0.8671
  692MOL0     C93315   7.887   8.461   0.903  0.1730  1.0481 -0.1038
  692MOL0     O93316   7.894   8.433   1.034 -0.2891 -0.1107  0.7850
  692MOL0     C93317   7.991   8.338   1.059  0.5074 -0.0826  0.1647
  692MOL0     C93318   8.127   8.369   1.088  0.9944 -0.4097 -0.2425
  692MOL0     C93319   8.223   8.267   1.085 -0.2067 -0.5479 -0.9305
  692MOL0     C93320   8.193   8.134   1.065 -0.3908  0.9209 -0.0879
  692MOL0     O93321   8.282   8.024   1.068  0.2478 -0.1127 -0.1175
  692MOL0     C93322   8.406   8.052   1.123 -0.9265  0.1177 -0.1564
  692MOL0     C93323   8.503   7.930   1.143  0.2801 -0.2121  0.7286
  692MOL0     C93324   8.599   7.925   1.014 -0.5354 -0.8848 -0.9035
  692MOL0     C93325   8.698   7.808   1.026 -0.3848 -0.3029 -0.1679
  692MOL0     C93326   8.752   7.780   0.887 -0.6061 -0.0872 -0.2553
  692MOL0     C93327   8.857   7.871   0.839 -0.4231  1.1044 -0.0831
  692MOL0     C93328   8.933   7.799   0.719 -0.4366  0.1306  0.2390
  692MOL0     C93329   9.048   7.888   0.677  0.0612 -0.2265 -0.3544
  692MOL0    Cl93330   8.986   8.053   0.650 -0.0790 -0.2156  0.1191
  692MOL0     C93331   8.054   8.108   1.045 -0.7357  0.4517 -0.1615
  692MOL0     C93332   7.952   8.201   1.047 -0.6284  0.0932  0.6031
  692MOL0     O93333   7.967   8.423   0.820  0.2528  0.4091  0.4441
  692MOL0     C93334   7.770   8.633   0.752 -0.3710  0.0348 -0.0988
  692MOL0     C93335   7.664   8.703   0.703  0.2146 -0.0907 -0.2588
  692MOL0     N93336   6.985   9.195   0.384  0.4342 -0.7733  0.3157
  692MOL0     N93337   6.971   9.225   0.255  0.1814 -0.4685  0.8277
  692MOL0     C93338   7.823   9.174  -0.031  0.2793 -0.0815  0.6952
  692MOL0     C93339   7.896   9.100   0.064  0.3887  0.6410  0.4192
  692MOL0     C93340   8.216   9.011   0.385 -0.2678 -0.1763 -1.2028
  692MOL0     C93341   8.229   8.884   0.331  0.3800  0.4966  0.3724
  692MOL0     C93342   8.312   8.783   0.384 -0.8631  0.1143  0.5262
  692MOL0     C93343   8.385   8.814   0.501 -0.6689 -0.4071  0.7057
  692MOL0     O93344   8.473   8.722   0.560  0.0525 -0.4336 -0.6215
  692MOL0     C93345   8.590   8.688   0.488 -0.3317 -0.3480 -0.7976
  692MOL0     C93346   8.696   8.796   0.484 -0.5333 -0.6698 -0.0218
  692MOL0     C93347   8.778   8.812   0.617 -0.4475 -0.2115 -0.3949
  692MOL0     C93348   8.873   8.938   0.622  0.3557  0.1543 -0.0797
  692MOL0     C93349   8.780   9.057   0.632  0.0221  0.5492 -0.6597
  692MOL0     C93350   8.709   9.153   0.637  0.9463 -0.0310 -0.5236
  692MOL0     C93351   8.371   8.939   0.561 -0.5756 -0.7599  0.0994
  692MOL0     C93352   8.294   9.048   0.499 -1.2441  0.5714  0.0726
  692MOL0     H93353   8.152   9.313   0.122  0.9454 -1.7723 -0.1492
  692MOL0     H93354   8.012   9.460  -0.044 -2.6719  1.3663  0.2955
  692MOL0     H93355   7.763   9.373  -0.367  3.8024  1.2634  2.2916
  692MOL0     H93356   7.729   9.220  -0.271  1.6971 -0.0012 -0.5086
  692MOL0     H93357   7.594   9.385  -0.109  0.9664 -1.4751  0.4585
  692MOL0     H93358   7.573   9.498  -0.242  1.0015  0.2167  0.7812
  692MOL0     H93359   7.371   9.355  -0.246  2.4945  2.3852  3.3664
  692MOL0     H93360   7.473   9.306  -0.381 -3.0104  1.5261 -0.4679
  692MOL0     H93361   7.541   9.102  -0.226 -0.3405 -1.2981  2.2761
  692MOL0     H93362   7.462   9.178  -0.097 -1.8441 -0.1420 -0.7763
  692MOL0     H93363   7.304   9.132  -0.350  3.0705  0.2694 -1.1621
  692MOL0     H93364   7.348   8.997  -0.259 -2.7685 -0.3804 -3.2348
  692MOL0     H93365   7.184   9.244  -0.152  0.8554  0.6204  1.5899
  692MOL0     H93366   7.123   9.085  -0.213  0.2760 -2.1368  2.5241
  692MOL0     H93367   7.231   8.984  -0.014  0.8961 -0.4412 -1.2749
  692MOL0     H93368   7.274   9.143   0.047 -0.0301 -1.3471  0.6714
  692MOL0     H93369   7.019   9.008   0.040  2.3243 -1.2645  2.5145
  692MOL0     H93370   6.993   9.161  -0.015  0.1089 -0.3521 -0.7608
  692MOL0     H93371   7.246   9.042   0.260 -0.2938  0.9148 -0.7819
  692MOL0     H93372   7.154   9.169   0.607 -1.3006 -1.0972  3.2771
  692MOL0     H93373   7.057   9.034   0.599 -0.4551  2.7826  2.2920
  692MOL0     H93374   7.356   9.063   0.502 -0.1312 -0.0994  2.9389
  692MOL0     H93375   7.263   8.912   0.468  0.5127  0.6226 -2.9474
  692MOL0     H93376   7.215   8.873   0.698  1.2906 -0.3341  0.7665
  692MOL0     H93377   7.303   9.027   0.742 -0.9672  1.8272 -0.6027
  692MOL0     H93378   7.510   8.952   0.654 -0.7215  1.8141  1.9627
  692MOL0     H93379   7.421   8.802   0.581  0.1043  0.2847 -0.0194
  692MOL0     H93380   7.443   8.636   0.937 -0.4033  0.8798 -1.6168
  692MOL0     H93381   7.687   8.369   1.069  5.1281  1.8309 -1.3661
  692MOL0     H93382   7.654   8.515   1.153 -1.9509 -0.2601  1.0745
  692MOL0     H93383   7.521   8.438   1.047  0.1362  2.2004 -1.0189
  692MOL0     H93384   8.161   8.471   1.101 -1.2395  0.5802 -1.4761
  692MOL0     H93385   8.325   8.294   1.108 -1.4618  3.2268  1.0582
  692MOL0     H93386   8.455   8.131   1.066  0.7901  0.2170  1.3529
  692MOL0     H93387   8.391   8.103   1.219  0.8374  4.4291 -1.9242
  692MOL0     H93388   8.556   7.936   1.239  2.4714  1.0549 -0.4773
  692MOL0     H93389   8.441   7.839   1.141 -3.8340  2.3244  1.6197
  692MOL0     H93390   8.650   8.022   1.016 -1.8288 -0.1778  1.4073
  692MOL0     H93391   8.554   7.919   0.914 -0.9678 -1.1935 -0.6932
  692MOL0     H93392   8.775   7.845   1.094 -1.1495  1.5600 -0.2515
  692MOL0     H93393   8.645   7.721   1.065 -0.0849 -0.9170 -1.0699
  692MOL0     H93394   8.671   7.772   0.815 -2.5902 -0.1294  1.8577
  692MOL0     H93395   8.800   7.682   0.895 -1.0427 -0.2760  0.0406
  692MOL0     H93396   8.801   7.962   0.813  0.5088  2.9525  3.6547
  692MOL0     H93397   8.931   7.903   0.913 -0.3623  3.1906 -0.9773
  692MOL0     H93398   8.864   7.784   0.635  0.4495 -0.9568 -0.3205
  692MOL0     H93399   8.957   7.699   0.755 -1.4195  1.6787  6.3064
  692MOL0     H93400   9.081   7.846   0.582 -0.9614 -1.0788 -0.3443
  692MOL0     H93401   9.129   7.889   0.750 -0.4692  0.1065  0.2436
  692MOL0     H93402   8.016   8.008   1.025  0.8710 -0.4310  0.9254
  692MOL0     H93403   7.852   8.181   1.009 -0.2320  3.3822 -2.8000
  692MOL0     H93404   7.862   8.649   0.697 -2.0544 -1.8832 -3.8771
  692MOL0     H93405   7.668   8.773   0.620 -5.2812  1.9092  0.7645
  692MOL0     H93406   7.728   9.140  -0.072 -0.2957  2.7090 -0.5222
  692MOL0     H93407   7.864   8.998   0.086  0.4649 -0.4272 -3.5082
  692MOL0     H93408   8.166   8.863   0.245 -0.4064  1.7158  0.6175
  692MOL0     H93409   8.318   8.688   0.332  0.4443  1.0280 -1.1126
  692MOL0     H93410   8.638   8.600   0.531 -0.4545  0.2222  0.5792
  692MOL0     H93411   8.556   8.658   0.389 -0.9028 -0.4044 -0.5889
  692MOL0     H93412   8.661   8.892   0.446  3.4580  0.4851 -1.2790
  692MOL0     H93413   8.772   8.766   0.411 -1.0598  0.4950 -1.0808
  692MOL0     H93414   8.849   8.730   0.629  1.0141  1.0026 -0.4797
  692MOL0     H93415   8.718   8.812   0.709  2.4673  3.4005  1.8231
  692MOL0     H93416   8.922   8.943   0.525  2.2330  2.3748  0.8920
  692MOL0     H93417   8.947   8.925   0.701  4.1096 -2.4821 -3.6417
  692MOL0     H93418   8.655   9.246   0.631  1.4574  0.2584 -0.6542
  692MOL0     H93419   8.430   8.952   0.651 -1.9388 -0.9290  1.0458
  692MOL0     H93420   8.277   9.140   0.554  0.8548  0.8920  0.2813
  693MOL0     O93421   2.979   0.433   0.019 -0.6443 -0.9085  1.0088
  693MOL0     C93422   2.892   0.377  -0.053  0.3321 -0.6780  0.0526
  693MOL0     O93423   2.914   0.277  -0.141 -0.4563 -0.4127  0.6377
  693MOL0     C93424   3.038   0.218  -0.153  0.0025 -0.2252  0.0572
  693MOL0     C93425   3.097   0.225  -0.278  0.2624 -0.3429 -0.1177
  693MOL0     C93426   3.211   0.155  -0.291  0.4906  0.1309  0.7309
  693MOL0     C93427   3.276   0.088  -0.186 -0.2250  0.7645 -1.0169
  693MOL0     O93428   3.401   0.023  -0.194  0.6740 -0.1836 -0.4120
  693MOL0     C93429   3.451   0.000  -0.324 -0.9049  0.6889 -0.0417
  693MOL0     C93430   3.538   0.122  -0.367 -0.0915  0.3362  0.6836
  693MOL0     C93431   3.589   0.109  -0.509  0.5467 -0.5423  0.2805
  693MOL0     C93432   3.694   0.228  -0.531  0.3904 -0.3646 -0.0442
  693MOL0     C93433   3.729   0.256  -0.675 -0.5108  0.0561  0.3464
  693MOL0     C93434   3.816   0.373  -0.690  0.0543 -0.0396  0.1104
  693MOL0     C93435   3.858   0.416  -0.827  1.1240  0.4107 -0.6010
  693MOL0     C93436   3.920   0.544  -0.818 -0.1173 -0.1434  0.8433
  693MOL0     N93437   3.984   0.595  -0.942  0.3393  0.2392  0.0545
  693MOL0     C93438   4.093   0.543  -1.010 -0.0008 -0.0197  0.1809
  693MOL0     C93439   4.098   0.617  -1.124 -0.9221 -0.4752  0.9476
  693MOL0     C93440   4.206   0.618  -1.226 -0.0761  0.7182 -0.9047
  693MOL0     C93441   4.190   0.538  -1.359 -0.0722  0.3870 -0.4574
  693MOL0     C93442   4.090   0.581  -1.461 -1.2009  0.3629  0.2655
  693MOL0     C93443   3.954   0.614  -1.409 -0.3817  0.1294  0.3657
  693MOL0     O93444   3.844   0.561  -1.482 -0.7868 -0.3976 -0.3799
  693MOL0     C93445   3.726   0.542  -1.413  0.8180 -0.4420 -1.1419
  693MOL0     C93446   3.683   0.596  -1.287  0.2806 -0.1611  1.0731
  693MOL0     C93447   3.577   0.553  -1.207 -0.0407 -0.4277  0.4427
  693MOL0     C93448   3.572   0.601  -1.059  0.1346 -0.8093  0.5087
  693MOL0     C93449   3.487   0.454  -1.262 -1.2908 -0.3169  0.3766
  693MOL0     C93450   3.377   0.388  -1.190  0.5910 -0.7706 -0.1551
  693MOL0     O93451   3.305   0.304  -1.263  0.6857 -0.6425  0.6631
  693MOL0     C93452   3.196   0.257  -1.207  0.9143  0.0284  0.4326
  693MOL0     C93453   3.076   0.273  -1.277  0.3950 -1.0127 -0.8213
  693MOL0     C93454   2.957   0.209  -1.244  0.6520  0.7240  0.3390
  693MOL0     C93455   2.952   0.120  -1.140  0.5119 -0.1844 -0.5185
  693MOL0     O93456   2.833   0.054  -1.132 -1.1100 -0.9629 -0.5866
  693MOL0     C93457   2.829  -0.065  -1.053  0.1399 -0.3413 -0.8231
  693MOL0     C93458   2.745  -0.050  -0.920 -0.0467 -0.1782  0.0094
  693MOL0     C93459   2.581  -0.056  -0.924  0.3301  0.4040  0.1609
  693MOL0     C93460   2.512  -0.080  -0.789 -1.0993  0.4607 -1.3578
  693MOL0     C93461   2.352  -0.085  -0.813 -0.2993  0.2491 -0.0299
  693MOL0     C93462   2.292  -0.084  -0.666  0.4607  0.0703  0.7221
  693MOL0     C93463   2.145  -0.089  -0.663  0.6543 -0.3138  0.1913
  693MOL0     C93464   2.084  -0.152  -0.545  0.1696  0.1176  0.3613
  693MOL0    Cl93465   1.920  -0.170  -0.573  0.2625  0.0169  0.8586
  693MOL0     C93466   3.062   0.120  -1.058 -0.0901  0.4388 -0.7215
  693MOL0     C93467   3.184   0.189  -1.087 -0.1447 -0.6465 -0.5583
  693MOL0     O93468   3.353   0.428  -1.072  0.2623  0.0737  0.3425
  693MOL0     C93469   3.527   0.411  -1.398 -0.1577  0.1944  0.0613
  693MOL0     C93470   3.642   0.451  -1.472  0.0146  0.5421  0.5490
  693MOL0     N93471   4.006   0.714  -1.117 -1.0930 -0.9389  0.8638
  693MOL0     N93472   3.933   0.701  -1.015  0.1312 -0.8019 -0.5207
  693MOL0     C93473   3.223   0.096  -0.059 -0.2451 -0.0478  0.1721
  693MOL0     C93474   3.104   0.160  -0.043 -0.4159  0.4712  0.0741
  693MOL0     C93475   2.748   0.405  -0.019 -0.3808  0.1578 -0.8652
  693MOL0     C93476   2.637   0.338  -0.080  0.4790 -0.4701 -1.3756
  693MOL0     C93477   2.507   0.357  -0.031  0.3320  0.5889  0.1176
  693MOL0     C93478   2.472   0.439   0.074 -1.4813  0.4001 -0.7984
  693MOL0     O93479   2.346   0.467   0.115 -0.0677 -0.0915  0.3766
  693MOL0     C93480   2.235   0.397   0.052  0.8415  0.0953  0.1241
  693MOL0     C93481   2.110   0.464   0.126 -0.2302 -0.9584 -0.2372
  693MOL0     C93482   1.990   0.400   0.073 -0.3069  0.3927 -0.5597
  693MOL0     C93483   1.871   0.406   0.175 -0.1257  0.7437 -0.7887
  693MOL0     C93484   1.836   0.548   0.204 -0.0257 -0.5579  0.4599
  693MOL0     C93485   1.798   0.653   0.252  0.4517 -0.7065  0.7742
  693MOL0     C93486   2.579   0.504   0.138  0.4838 -0.2864  0.4527
  693MOL0     C93487   2.714   0.485   0.089  0.0501 -0.0138  0.0221
  693MOL0     H93488   3.037   0.272  -0.355 -0.1281 -2.0664 -0.9301
  693MOL0     H93489   3.254   0.150  -0.390 -0.9822 -1.1937  0.1250
  693MOL0     H93490   3.522  -0.081  -0.311 -1.0463  0.7286  1.1222
  693MOL0     H93491   3.384  -0.033  -0.404  1.1079 -0.4227 -1.3364
  693MOL0     H93492   3.466   0.204  -0.370 -1.0158 -0.4385 -2.1251
  693MOL0     H93493   3.613   0.126  -0.288  0.5814 -0.3033  0.0962
  693MOL0     H93494   3.636   0.010  -0.514  2.9569  0.4372  1.7392
  693MOL0     H93495   3.515   0.123  -0.588  0.4218  2.3860  0.8149
  693MOL0     H93496   3.648   0.320  -0.494  3.2497  0.8903  0.6409
  693MOL0     H93497   3.784   0.205  -0.472  0.6406 -2.4244 -1.1493
  693MOL0     H93498   3.787   0.171  -0.712 -1.2458 -1.3862  2.3682
  693MOL0     H93499   3.641   0.266  -0.739 -0.8257 -1.6456  0.4861
  693MOL0     H93500   3.763   0.455  -0.641  1.0372 -0.5767  2.1998
  693MOL0     H93501   3.900   0.349  -0.624 -1.4313  2.0835  3.0006
  693MOL0     H93502   3.922   0.341  -0.874  0.1748 -0.8109 -0.0215
  693MOL0     H93503   3.765   0.430  -0.884  1.0249 -2.0948 -1.1542
  693MOL0     H93504   3.993   0.529  -0.738  0.6417 -0.9685  0.0152
  693MOL0     H93505   3.857   0.628  -0.787  1.5043  1.7109 -0.5232
  693MOL0     H93506   4.171   0.472  -0.983  0.6360  0.7500  0.4044
  693MOL0     H93507   4.241   0.720  -1.246  1.6829  0.7092  1.5571
  693MOL0     H93508   4.295   0.577  -1.176 -0.6114 -1.4145 -1.6184
  693MOL0     H93509   4.163   0.434  -1.341 -2.5389  0.7896 -1.3635
  693MOL0     H93510   4.287   0.530  -1.408  0.0627  1.8588 -0.4827
  693MOL0     H93511   4.074   0.509  -1.542 -2.1765  0.9697 -0.1041
  693MOL0     H93512   4.139   0.669  -1.505  1.1772 -1.2845 -0.5798
  693MOL0     H93513   3.941   0.719  -1.384 -0.5363 -0.8143  5.3474
  693MOL0     H93514   3.944   0.572  -1.308  1.6788 -0.3956  0.4033
  693MOL0     H93515   3.741   0.681  -1.251  0.8075  0.2343 -0.6328
  693MOL0     H93516   3.479   0.655  -1.040  1.0851  1.0900  0.0314
  693MOL0     H93517   3.596   0.520  -0.990  0.2356 -0.2796  1.1033
  693MOL0     H93518   3.642   0.685  -1.053  2.5006 -2.3740 -2.2695
  693MOL0     H93519   3.079   0.331  -1.368  2.1541 -0.4481 -0.4502
  693MOL0     H93520   2.877   0.199  -1.316  1.2640  1.4822 -0.4680
  693MOL0     H93521   2.773  -0.140  -1.110 -1.1290  0.9182 -1.2898
  693MOL0     H93522   2.926  -0.112  -1.034 -0.5287 -2.5887 -2.4480
  693MOL0     H93523   2.777  -0.126  -0.849 -1.7222  0.4891  1.5808
  693MOL0     H93524   2.782   0.042  -0.874  1.7794 -1.0563  0.3843
  693MOL0     H93525   2.551  -0.138  -0.990 -2.7803  2.5436 -1.3338
  693MOL0     H93526   2.552   0.037  -0.973  1.2815  1.4032  1.4033
  693MOL0     H93527   2.550  -0.169  -0.736 -0.6487  1.2634 -0.2894
  693MOL0     H93528   2.538   0.007  -0.728  1.5293 -1.0753 -0.0799
  693MOL0     H93529   2.330  -0.176  -0.869  0.9317 -0.4890  0.6691
  693MOL0     H93530   2.313   0.002  -0.868 -1.7253  1.0091  2.0289
  693MOL0     H93531   2.336  -0.167  -0.609 -0.7877 -3.5483 -3.0767
  693MOL0     H93532   2.324   0.009  -0.618  0.7580  2.2779 -3.2736
  693MOL0     H93533   2.130  -0.160  -0.745  6.8470 -2.1246  0.1917
  693MOL0     H93534   2.104   0.011  -0.685  1.2336 -0.3616 -1.2405
  693MOL0     H93535   2.104  -0.094  -0.455 -1.2504  1.1858  0.0251
  693MOL0     H93536   2.125  -0.252  -0.531 -0.0630  0.3893  3.8242
  693MOL0     H93537   3.078   0.059  -0.969  4.3991  0.2600 -1.3930
  693MOL0     H93538   3.264   0.172  -1.016 -0.6670  1.0970  0.5165
  693MOL0     H93539   3.482   0.333  -1.459  1.8507  1.7446 -3.7381
  693MOL0     H93540   3.668   0.402  -1.565 -2.3411 -2.2485  1.1886
  693MOL0     H93541   3.266   0.057   0.032 -0.0417 -0.8841 -0.2661
  693MOL0     H93542   3.077   0.161   0.062  3.3626  0.1307  1.1841
  693MOL0     H93543   2.650   0.260  -0.155  0.9146 -2.8489  1.0420
  693MOL0     H93544   2.432   0.312  -0.096 -0.0152 -0.5327  1.2690
  693MOL0     H93545   2.231   0.422  -0.054  0.2266  2.6551  0.6831
  693MOL0     H93546   2.245   0.291   0.079 -0.1452  0.1951  0.9247
  693MOL0     H93547   2.114   0.571   0.104 -1.0224 -0.9412 -0.3432
  693MOL0     H93548   2.128   0.452   0.233  1.4502  2.3463 -0.0365
  693MOL0     H93549   2.026   0.296   0.070  1.0750  0.6326  3.0108
  693MOL0     H93550   1.972   0.434  -0.029  1.0338  1.2967 -0.5213
  693MOL0     H93551   1.903   0.361   0.270 -1.6651  1.4855  0.1274
  693MOL0     H93552   1.784   0.348   0.142  1.0626 -0.8301 -1.2993
  693MOL0     H93553   1.759   0.750   0.275  2.3983  1.2925 -3.3852
  693MOL0     H93554   2.551   0.563   0.224 -1.5975 -0.7564  0.1444
  693MOL0     H93555   2.800   0.528   0.140 -0.4260 -0.2950  1.0858
  694MOL0     O93556   0.913   8.968   1.450  0.4684 -0.4156  0.1598
  694MOL0     C93557   0.827   8.894   1.390 -1.3842  0.1734  0.3463
  694MOL0     O93558   0.825   8.758   1.410  0.5887 -0.1606 -0.3667
  694MOL0     C93559   0.911   8.703   1.510 -0.1187  0.6266 -1.5086
  694MOL0     C93560   0.859   8.615   1.602  0.2856  0.3354 -0.1609
  694MOL0     C93561   0.943   8.547   1.685  0.7663  0.5369 -0.0514
  694MOL0     C93562   1.082   8.552   1.657  0.8423  0.7642 -0.0021
  694MOL0     O93563   1.160   8.458   1.709  0.2220  0.3108 -0.3569
  694MOL0     C93564   1.272   8.513   1.777  0.1962  0.3227 -0.5229
  694MOL0     C93565   1.301   8.413   1.887 -0.5045  0.7576  0.2741
  694MOL0     C93566   1.403   8.468   1.987  0.9558  0.2761  0.2150
  694MOL0     C93567   1.538   8.481   1.929 -0.0279  0.1412 -0.2972
  694MOL0     C93568   1.632   8.518   2.058  0.1462 -0.3221 -0.2310
  694MOL0     C93569   1.670   8.665   2.052  0.6050  0.2494 -0.2661
  694MOL0     C93570   1.745   8.723   2.169  0.4023  0.3585 -0.7618
  694MOL0     C93571   1.821   8.852   2.153  0.3583 -0.7316 -0.0666
  694MOL0     N93572   1.862   8.920   2.273  0.3128  0.1424 -0.9794
  694MOL0     C93573   1.979   8.900   2.346  0.0403 -0.3169 -0.2868
  694MOL0     C93574   1.961   8.963   2.463 -0.5405  0.7423 -0.3151
  694MOL0     C93575   2.051   8.958   2.585 -0.4706  0.6312 -0.3661
  694MOL0     C93576   2.107   9.077   2.645  0.3558  0.4720  0.2126
  694MOL0     C93577   2.013   9.100   2.767  0.3110 -0.2288 -0.0919
  694MOL0     C93578   2.048   9.238   2.818 -0.5117  0.2067 -0.1830
  694MOL0     O93579   2.193   9.266   2.847  0.5587 -0.8675  0.4468
  694MOL0     C93580   2.258   9.211   2.954 -0.1649 -1.6303 -0.2915
  694MOL0     C93581   2.391   9.248   2.953 -0.0602 -0.2045  0.0329
  694MOL0     C93582   2.475   9.216   3.058  0.6988 -0.4023  0.8795
  694MOL0     C93583   2.604   9.295   3.071 -0.4141  0.0023 -0.1592
  694MOL0     C93584   2.425   9.136   3.170  0.4926  0.0129  0.6190
  694MOL0     C93585   2.509   9.089   3.277 -0.0952 -0.6598  0.0057
  694MOL0     O93586   2.455   9.040   3.396  1.2360  0.1656  0.3085
  694MOL0     C93587   2.545   9.012   3.493  0.6402  0.0952 -0.1395
  694MOL0     C93588   2.616   9.115   3.555  0.3184 -0.1677 -0.8693
  694MOL0     C93589   2.712   9.098   3.656  0.1059  0.2648 -0.6556
  694MOL0     C93590   2.739   8.961   3.689  0.6131 -0.3870 -0.6897
  694MOL0     O93591   2.839   8.955   3.780 -0.0358 -0.1518 -0.0081
  694MOL0     C93592   2.908   8.825   3.808  0.0764 -0.1000  0.0201
  694MOL0     C93593   2.848   8.781   3.945 -0.4067  0.0144 -0.1990
  694MOL0     C93594   2.908   8.648   3.979 -0.2443  0.1726  0.1212
  694MOL0     C93595   2.823   8.559   4.075  0.1607 -0.4018  0.5578
  694MOL0     C93596   2.906   8.440   4.132  0.3366 -0.1967 -0.5044
  694MOL0     C93597   2.808   8.372   4.240 -1.0577 -0.2836 -1.1064
  694MOL0     C93598   2.844   8.224   4.278  0.6553  0.6636 -1.8925
  694MOL0     C93599   2.978   8.206   4.348 -0.2683  0.1723 -0.7530
  694MOL0    Cl93600   3.006   8.034   4.378  0.3113  0.3899 -0.1386
  694MOL0     C93601   2.653   8.854   3.649 -0.0900  0.6882  0.3291
  694MOL0     C93602   2.563   8.882   3.546  0.3426  0.0917 -0.1132
  694MOL0     O93603   2.632   9.072   3.243  0.5024  0.0270 -0.1095
  694MOL0     C93604   2.291   9.087   3.162  0.7514 -0.1316 -0.5764
  694MOL0     C93605   2.205   9.129   3.054  0.3515 -0.1618  0.2104
  694MOL0     N93606   1.834   9.006   2.467  0.7628 -0.4645  0.2715
  694MOL0     N93607   1.775   8.985   2.356  0.5001 -0.2844  0.8492
  694MOL0     C93608   1.127   8.650   1.571  0.0938  0.9320 -0.6683
  694MOL0     C93609   1.048   8.712   1.495  0.3198 -0.0658 -0.1218
  694MOL0     C93610   0.738   8.965   1.297 -0.7178  0.6984  0.5997
  694MOL0     C93611   0.642   8.890   1.226 -0.7551  0.9393  0.1008
  694MOL0     C93612   0.543   8.943   1.142 -0.2072 -0.1936 -0.1381
  694MOL0     C93613   0.531   9.090   1.132  0.4362  0.6869 -0.0420
  694MOL0     O93614   0.439   9.154   1.059 -0.0511 -0.8401 -0.1552
  694MOL0     C93615   0.358   9.096   0.962  0.2837  0.1360  0.2120
  694MOL0     C93616   0.224   9.069   1.044 -0.8344  0.6475 -0.3931
  694MOL0     C93617   0.114   9.029   0.957  0.2801 -0.0855  0.4403
  694MOL0     C93618  -0.020   9.021   1.029 -0.8760  0.2926 -1.0891
  694MOL0     C93619  -0.040   8.901   1.107  0.5536 -0.4172 -0.7052
  694MOL0     C93620  -0.044   8.795   1.167  1.0142  0.0466  0.3583
  694MOL0     C93621   0.624   9.159   1.204  0.4414  0.5516  0.5804
  694MOL0     C93622   0.737   9.103   1.272 -0.3638 -0.7515 -0.1921
  694MOL0     H93623   0.752   8.609   1.615  0.6605 -2.2458  3.0528
  694MOL0     H93624   0.892   8.478   1.752  0.3482  2.5788  1.8453
  694MOL0     H93625   1.363   8.519   1.717 -0.0374  0.2272 -0.8934
  694MOL0     H93626   1.255   8.611   1.822 -2.2413 -0.9350  1.5614
  694MOL0     H93627   1.215   8.376   1.943  0.6610 -0.8472  1.0942
  694MOL0     H93628   1.344   8.322   1.844  0.4467  0.8110  1.0622
  694MOL0     H93629   1.369   8.570   2.006 -4.4972 -0.9222 -1.3955
  694MOL0     H93630   1.409   8.402   2.074  1.1603  1.0128  0.7614
  694MOL0     H93631   1.574   8.385   1.893  0.6515  0.0312  0.6140
  694MOL0     H93632   1.528   8.560   1.854 -1.5755 -0.7230 -1.0414
  694MOL0     H93633   1.574   8.506   2.150  0.0491  1.9225  0.0657
  694MOL0     H93634   1.722   8.458   2.070  1.3440  1.5965  0.7779
  694MOL0     H93635   1.747   8.688   1.979 -0.0041  1.6474 -0.5026
  694MOL0     H93636   1.579   8.725   2.038 -1.0694 -2.2405 -0.7433
  694MOL0     H93637   1.661   8.718   2.239  0.9026  0.3053 -0.1562
  694MOL0     H93638   1.821   8.649   2.195  1.3144 -0.0403 -4.0574
  694MOL0     H93639   1.768   8.924   2.091  0.7893  5.1174  5.3500
  694MOL0     H93640   1.906   8.822   2.091 -0.3814  0.9179 -1.9626
  694MOL0     H93641   2.069   8.844   2.323 -0.1933  0.2086 -2.7366
  694MOL0     H93642   2.006   8.887   2.655 -0.4826  1.8804  0.9553
  694MOL0     H93643   2.141   8.920   2.536 -0.1226  2.6541 -1.4117
  694MOL0     H93644   2.106   9.165   2.581 -1.5288  0.7017  0.4796
  694MOL0     H93645   2.205   9.038   2.672  0.0588 -2.9919 -2.9587
  694MOL0     H93646   2.037   9.025   2.843  0.3490 -1.1797 -1.0245
  694MOL0     H93647   1.907   9.110   2.742  0.3461  2.4318  0.4767
  694MOL0     H93648   1.982   9.246   2.905  0.1288 -0.7753  0.4168
  694MOL0     H93649   2.008   9.312   2.749  0.7234  0.3420 -0.7862
  694MOL0     H93650   2.423   9.308   2.869  1.2012 -0.8571  0.0208
  694MOL0     H93651   2.591   9.391   3.021  0.1942 -0.4639 -1.2421
  694MOL0     H93652   2.630   9.315   3.175 -2.2341 -2.1438  0.7978
  694MOL0     H93653   2.691   9.251   3.022 -0.1841 -0.1267  0.3550
  694MOL0     H93654   2.582   9.215   3.530 -1.1760 -0.6569 -0.8726
  694MOL0     H93655   2.767   9.177   3.706  1.1197 -1.0316  0.3625
  694MOL0     H93656   2.881   8.752   3.731  1.6976 -1.3871  0.6156
  694MOL0     H93657   3.016   8.837   3.806 -0.1835  4.2855 -2.4185
  694MOL0     H93658   2.878   8.861   4.013  1.6047 -3.1298  2.9502
  694MOL0     H93659   2.739   8.770   3.947 -0.6549  2.0871  1.8115
  694MOL0     H93660   3.008   8.659   4.022  0.7339 -1.2246 -1.6974
  694MOL0     H93661   2.917   8.590   3.887  0.9877  0.1395  0.2506
  694MOL0     H93662   2.785   8.626   4.154 -1.6991  0.3427 -0.8829
  694MOL0     H93663   2.732   8.542   4.016 -0.4268 -0.2963  1.4085
  694MOL0     H93664   3.004   8.472   4.169  0.1390 -0.5154  0.3037
  694MOL0     H93665   2.922   8.367   4.052 -0.7115 -3.1387  1.8062
  694MOL0     H93666   2.829   8.424   4.334  0.2769 -1.8077 -0.5069
  694MOL0     H93667   2.707   8.389   4.202 -2.0139  0.9545  1.6769
  694MOL0     H93668   2.854   8.154   4.195 -1.3283 -5.6774  2.5181
  694MOL0     H93669   2.759   8.176   4.327  0.7989  1.0758 -1.2309
  694MOL0     H93670   2.976   8.246   4.450 -0.7212 -0.8796 -0.3314
  694MOL0     H93671   3.061   8.252   4.294  1.8528 -0.4544  1.7873
  694MOL0     H93672   2.660   8.754   3.692 -3.2637  1.8175  3.9650
  694MOL0     H93673   2.509   8.801   3.498  1.0360  0.3037 -1.2954
  694MOL0     H93674   2.249   9.021   3.236 -1.4961  0.3894 -1.3158
  694MOL0     H93675   2.097   9.117   3.051 -0.0469  1.7976 -5.2870
  694MOL0     H93676   1.234   8.667   1.563 -0.2764  2.7554 -2.5020
  694MOL0     H93677   1.080   8.780   1.416 -2.1176 -0.3181 -1.4151
  694MOL0     H93678   0.643   8.783   1.244 -3.4432  1.2483  2.8595
  694MOL0     H93679   0.480   8.878   1.082  2.0283  0.7351 -3.8659
  694MOL0     H93680   0.347   9.167   0.879 -0.0947 -0.0345  0.1109
  694MOL0     H93681   0.398   9.000   0.928 -0.7390  0.0370 -0.7745
  694MOL0     H93682   0.195   9.168   1.083 -2.6386  0.7526 -1.8989
  694MOL0     H93683   0.243   8.994   1.122  0.8402 -1.0273 -2.3132
  694MOL0     H93684   0.125   8.934   0.904 -1.7722  0.7384 -1.6424
  694MOL0     H93685   0.122   9.097   0.872  3.7740 -1.6193 -0.6528
  694MOL0     H93686  -0.110   9.028   0.967 -2.5587  1.8517  1.3425
  694MOL0     H93687  -0.024   9.101   1.105 -1.0186  1.2036 -2.0311
  694MOL0     H93688  -0.064   8.706   1.223  1.4379  0.3161  0.9544
  694MOL0     H93689   0.624   9.265   1.224  1.2065  0.2147  2.5972
  694MOL0     H93690   0.807   9.171   1.321 -0.4823  0.2094 -1.2900
  695MOL0     O93691   5.349   6.396   2.003  0.0721 -0.0228  0.2028
  695MOL0     C93692   5.278   6.465   1.936  0.5437  0.0087  0.2510
  695MOL0     O93693   5.277   6.602   1.937  0.4715  1.0971 -0.5940
  695MOL0     C93694   5.342   6.674   2.026  0.0194  0.0415  0.2230
  695MOL0     C93695   5.476   6.665   2.062  0.1309 -0.1623 -0.5590
  695MOL0     C93696   5.530   6.755   2.162  0.3302  0.9444  0.3771
  695MOL0     C93697   5.446   6.857   2.209 -0.6261  0.6408 -0.8847
  695MOL0     O93698   5.506   6.933   2.319 -0.2323 -0.7447 -0.2602
  695MOL0     C93699   5.440   7.056   2.358 -0.3865  1.3017  0.2468
  695MOL0     C93700   5.514   7.122   2.472 -0.2436 -0.4503 -0.1744
  695MOL0     C93701   5.440   7.252   2.516  0.0716  0.0491 -0.1466
  695MOL0     C93702   5.486   7.300   2.651 -0.2083 -0.3297 -0.3670
  695MOL0     C93703   5.631   7.324   2.675  0.0070  0.1511  0.3451
  695MOL0     C93704   5.683   7.450   2.601 -1.0378  0.6103 -0.3860
  695MOL0     C93705   5.823   7.491   2.640 -0.3352  0.0753  0.4192
  695MOL0     C93706   5.826   7.603   2.751  0.4852  0.5798  0.5272
  695MOL0     N93707   5.956   7.622   2.820  0.6948  0.1211 -0.0124
  695MOL0     C93708   6.015   7.528   2.899 -0.0858  0.4475  1.3934
  695MOL0     C93709   6.132   7.593   2.930 -0.1372  0.2973 -0.1670
  695MOL0     C93710   6.268   7.552   2.982 -0.2493  0.0725 -0.0988
  695MOL0     C93711   6.235   7.499   3.123  0.3507  0.0482  0.3539
  695MOL0     C93712   6.361   7.438   3.187 -0.0260 -0.2863 -0.7876
  695MOL0     C93713   6.389   7.296   3.141  0.8232 -0.2394 -0.1374
  695MOL0     O93714   6.518   7.255   3.199  0.8454 -0.7643  0.1270
  695MOL0     C93715   6.516   7.189   3.321 -0.3557  0.6916  0.5050
  695MOL0     C93716   6.402   7.172   3.409  0.1586 -1.0733 -0.0980
  695MOL0     C93717   6.425   7.114   3.535  0.0635  0.5337  0.6517
  695MOL0     C93718   6.312   7.122   3.634 -0.0438  0.2910  0.1611
  695MOL0     C93719   6.542   7.045   3.568  0.0493 -0.5498 -0.7977
  695MOL0     C93720   6.552   6.966   3.693 -0.7585  0.7881 -0.2370
  695MOL0     O93721   6.470   6.863   3.693 -0.0433  0.3785 -0.8996
  695MOL0     C93722   6.464   6.780   3.800  0.0057 -0.4620 -0.3747
  695MOL0     C93723   6.344   6.751   3.867 -0.0368  0.4954 -0.0104
  695MOL0     C93724   6.345   6.678   3.987  0.4031 -0.6978 -0.0426
  695MOL0     C93725   6.463   6.624   4.039  0.2069 -1.8192 -1.0496
  695MOL0     O93726   6.452   6.575   4.174  0.1641 -1.1929 -0.0235
  695MOL0     C93727   6.396   6.441   4.173 -0.2860 -0.0263 -0.9812
  695MOL0     C93728   6.407   6.401   4.313 -0.2882  0.8387 -0.9377
  695MOL0     C93729   6.357   6.253   4.320 -0.8758  0.1906  0.3233
  695MOL0     C93730   6.358   6.214   4.468  0.3945  0.1614 -0.2834
  695MOL0     C93731   6.282   6.085   4.499  0.2465 -0.5656 -1.0235
  695MOL0     C93732   6.134   6.102   4.459  0.3858 -0.5259  0.8117
  695MOL0     C93733   6.039   6.019   4.546  0.0145  0.6991  0.0540
  695MOL0     C93734   5.902   6.035   4.489 -0.4021 -0.2908  0.8034
  695MOL0    Cl93735   5.778   5.946   4.581  0.3094 -0.1501  0.3089
  695MOL0     C93736   6.587   6.650   3.970 -0.0918 -0.2032 -0.2625
  695MOL0     C93737   6.578   6.723   3.856 -1.0839  0.5966  0.3736
  695MOL0     O93738   6.630   7.000   3.784 -0.6159 -0.2037 -0.4512
  695MOL0     C93739   6.646   7.051   3.476 -0.3945  0.1630 -0.8927
  695MOL0     C93740   6.641   7.130   3.361 -0.3722  0.1129  0.3512
  695MOL0     N93741   6.129   7.710   2.877 -0.8663 -1.2340 -0.0352
  695MOL0     N93742   6.024   7.734   2.808 -0.7846 -0.1246  0.2289
  695MOL0     C93743   5.318   6.874   2.160 -0.3773 -0.9369 -0.1717
  695MOL0     C93744   5.267   6.779   2.070  0.3577 -0.6588  0.2939
  695MOL0     C93745   5.173   6.398   1.849 -1.0677  0.2069  0.1626
  695MOL0     C93746   5.123   6.464   1.743  0.3256  0.1580 -0.7412
  695MOL0     C93747   5.037   6.394   1.659  0.4754  0.3060  0.5568
  695MOL0     C93748   5.019   6.260   1.665  0.0657  0.0313 -0.5258
  695MOL0     O93749   4.926   6.206   1.594 -0.0263 -0.2528  0.2109
  695MOL0     C93750   4.869   6.076   1.620 -0.4499 -0.4453 -0.7439
  695MOL0     C93751   4.948   5.961   1.557 -0.2942 -0.3808 -0.7422
  695MOL0     C93752   4.912   5.831   1.639  0.0680 -0.6978  0.9694
  695MOL0     C93753   4.810   5.744   1.559 -0.8550 -0.5242 -0.1576
  695MOL0     C93754   4.889   5.693   1.450 -0.2640  0.3316  0.1434
  695MOL0     C93755   4.951   5.628   1.366  1.1037 -0.4395  0.8235
  695MOL0     C93756   5.083   6.182   1.770  0.3248 -0.6991 -0.0198
  695MOL0     C93757   5.156   6.259   1.863 -0.3942  0.0102  0.2242
  695MOL0     H93758   5.521   6.574   2.024 -2.0089 -0.0916 -3.6283
  695MOL0     H93759   5.629   6.736   2.203 -0.0625 -2.6438 -0.0399
  695MOL0     H93760   5.445   7.113   2.265  2.0023  0.2094 -0.3641
  695MOL0     H93761   5.333   7.050   2.379 -1.6285  0.7888 -4.9640
  695MOL0     H93762   5.517   7.053   2.557  1.5873 -0.1267  0.0605
  695MOL0     H93763   5.615   7.154   2.443  0.9100  0.0289  3.7860
  695MOL0     H93764   5.465   7.337   2.452  3.8748  0.9023  2.1638
  695MOL0     H93765   5.331   7.240   2.519  0.0263  0.3296 -0.6532
  695MOL0     H93766   5.438   7.397   2.669  1.4314  1.3818 -4.1357
  695MOL0     H93767   5.455   7.225   2.724  0.1330 -0.2756 -0.1639
  695MOL0     H93768   5.646   7.345   2.782 -0.8205 -1.3940  0.7958
  695MOL0     H93769   5.678   7.234   2.634 -1.2234  0.4671 -1.8901
  695MOL0     H93770   5.689   7.426   2.494  2.3034 -2.0187  0.1961
  695MOL0     H93771   5.623   7.537   2.629  0.1961  0.5506  2.9694
  695MOL0     H93772   5.876   7.408   2.688  2.3044  2.0556  1.1958
  695MOL0     H93773   5.877   7.540   2.558 -0.4994  0.7711  0.7164
  695MOL0     H93774   5.755   7.561   2.822 -0.9831 -3.1818 -2.7768
  695MOL0     H93775   5.787   7.692   2.702 -1.3538 -1.4106 -1.8802
  695MOL0     H93776   5.980   7.433   2.939 -1.5106  0.5804  0.5424
  695MOL0     H93777   6.313   7.473   2.922  0.3231  0.7412 -0.5654
  695MOL0     H93778   6.339   7.635   2.993 -0.0174 -0.0563 -0.6062
  695MOL0     H93779   6.154   7.425   3.116 -0.0788  0.6963 -2.8393
  695MOL0     H93780   6.195   7.585   3.176 -3.0772 -0.8745 -0.5036
  695MOL0     H93781   6.353   7.448   3.295 -3.3261  2.4483 -1.1213
  695MOL0     H93782   6.453   7.490   3.160  1.2686 -0.7495  2.3749
  695MOL0     H93783   6.385   7.297   3.032 -0.8596  1.7485 -0.1210
  695MOL0     H93784   6.303   7.234   3.170  0.1350 -1.4173 -4.0676
  695MOL0     H93785   6.321   7.238   3.380  2.9567  2.5702 -0.4345
  695MOL0     H93786   6.272   7.025   3.665 -0.7223  0.7527  0.7582
  695MOL0     H93787   6.340   7.175   3.725  0.3493  0.9906 -0.3565
  695MOL0     H93788   6.230   7.176   3.586  0.7484 -0.8779 -2.7161
  695MOL0     H93789   6.253   6.803   3.839  0.6053  2.5068  1.3923
  695MOL0     H93790   6.263   6.655   4.055  0.8038 -2.5992 -0.1497
  695MOL0     H93791   6.291   6.450   4.145 -0.7829 -0.5757  0.5912
  695MOL0     H93792   6.462   6.373   4.119  2.2872  0.6374  1.0810
  695MOL0     H93793   6.510   6.390   4.347 -0.6402  1.9479  0.5671
  695MOL0     H93794   6.363   6.471   4.385  0.5240  1.0579 -0.6480
  695MOL0     H93795   6.413   6.184   4.255 -1.8098 -0.0448 -0.2562
  695MOL0     H93796   6.255   6.238   4.283 -0.6591 -0.4218 -0.0457
  695MOL0     H93797   6.461   6.214   4.506  0.2393  0.3832  0.1463
  695MOL0     H93798   6.308   6.296   4.520  0.0966  0.8767 -1.6635
  695MOL0     H93799   6.296   6.070   4.607  4.1783 -0.0673 -1.3169
  695MOL0     H93800   6.337   6.003   4.452  1.6623  0.4790 -1.2545
  695MOL0     H93801   6.099   6.205   4.466  1.2035 -0.2939  1.7999
  695MOL0     H93802   6.136   6.063   4.357 -1.7194 -2.4744  1.4312
  695MOL0     H93803   6.049   6.063   4.645  0.2278  1.5252 -0.3250
  695MOL0     H93804   6.066   5.913   4.537 -2.3143  0.1245 -0.6327
  695MOL0     H93805   5.899   6.005   4.384  0.7299 -1.5005  1.1058
  695MOL0     H93806   5.879   6.142   4.494 -2.3186 -0.4811 -1.8336
  695MOL0     H93807   6.681   6.629   4.020  0.2099 -2.4324 -1.6306
  695MOL0     H93808   6.669   6.751   3.805 -2.2937  3.3618 -0.4780
  695MOL0     H93809   6.736   7.002   3.512 -1.2506  1.8453  4.5100
  695MOL0     H93810   6.721   7.129   3.288 -1.3404  3.9446 -0.9820
  695MOL0     H93811   5.260   6.960   2.191 -0.5360 -1.3986  0.8402
  695MOL0     H93812   5.166   6.794   2.035  0.4039 -1.1912 -0.0773
  695MOL0     H93813   5.140   6.569   1.721  0.0922  0.3110 -0.2151
  695MOL0     H93814   5.000   6.449   1.573  2.5215  1.9019  0.6248
  695MOL0     H93815   4.859   6.060   1.728  2.6401  1.0291 -0.1240
  695MOL0     H93816   4.768   6.076   1.579  0.8216 -1.9615 -4.2472
  695MOL0     H93817   5.055   5.974   1.572  0.3556 -3.4563 -2.0006
  695MOL0     H93818   4.915   5.953   1.453  1.9572 -0.7689 -1.4796
  695MOL0     H93819   4.854   5.850   1.730 -1.2832  0.4021 -0.0740
  695MOL0     H93820   5.004   5.780   1.668 -0.9585 -0.7141  4.7290
  695MOL0     H93821   4.718   5.800   1.540 -1.3181 -0.4310  2.1072
  695MOL0     H93822   4.786   5.665   1.631  2.5196 -2.0929 -0.5182
  695MOL0     H93823   4.998   5.556   1.303  0.1077 -0.6293  0.2693
  695MOL0     H93824   5.066   6.078   1.796 -2.6568  0.1259  1.7796
  695MOL0     H93825   5.215   6.212   1.940 -0.5226  1.4374  1.2392
  696MOL0     O93826   5.138   0.797   1.983  0.4476 -0.4534  0.0963
  696MOL0     C93827   5.071   0.894   2.014 -0.3759  0.7206 -0.0205
  696MOL0     O93828   4.952   0.927   1.961 -0.1735  0.2187 -0.6234
  696MOL0     C93829   4.914   0.850   1.853  0.7568  0.3039 -1.0451
  696MOL0     C93830   4.857   0.719   1.870 -0.0566  0.7269  0.2215
  696MOL0     C93831   4.818   0.636   1.760 -0.0260  0.1024  0.4357
  696MOL0     C93832   4.832   0.692   1.631  0.7808  0.1966  0.8495
  696MOL0     O93833   4.818   0.602   1.527 -0.3355  0.5237 -0.7007
  696MOL0     C93834   4.841   0.640   1.390  0.1246  0.6407 -0.2108
  696MOL0     C93835   4.827   0.518   1.299 -0.9888  0.1354 -0.5324
  696MOL0     C93836   4.921   0.402   1.323 -0.2716 -0.1401 -0.3011
  696MOL0     C93837   5.057   0.451   1.298 -0.1617 -0.6046  0.6436
  696MOL0     C93838   5.171   0.342   1.295 -0.0980 -0.5035 -0.3553
  696MOL0     C93839   5.312   0.403   1.280  0.9174 -0.0965  0.2516
  696MOL0     C93840   5.422   0.295   1.256  0.1802  0.4819 -0.6987
  696MOL0     C93841   5.428   0.255   1.111  0.0545  0.2997  0.0753
  696MOL0     N93842   5.518   0.135   1.089  0.9454  1.3439 -0.1225
  696MOL0     C93843   5.628   0.092   1.163  0.4219  0.4246 -0.0877
  696MOL0     C93844   5.683  -0.016   1.101 -0.0490  0.5570 -0.7424
  696MOL0     C93845   5.803  -0.092   1.156  0.2641  0.6308 -0.5660
  696MOL0     C93846   5.919  -0.053   1.068 -1.0264 -0.5021 -0.9054
  696MOL0     C93847   6.048  -0.121   1.118 -0.2898 -0.1020 -0.1165
  696MOL0     C93848   6.090  -0.085   1.263  0.0678  0.6058  1.0806
  696MOL0     O93849   6.229  -0.124   1.286  0.3649  0.1900  0.1390
  696MOL0     C93850   6.288  -0.074   1.394 -0.1041  0.5370 -0.8518
  696MOL0     C93851   6.420  -0.120   1.404 -0.4586  0.2438 -0.4323
  696MOL0     C93852   6.514  -0.078   1.497 -0.1221  0.0046  0.1545
  696MOL0     C93853   6.648  -0.144   1.488  0.1852 -0.3704 -0.7683
  696MOL0     C93854   6.479   0.019   1.595 -1.0568 -0.2417 -1.6124
  696MOL0     C93855   6.574   0.078   1.690  0.0098 -0.2068 -1.4880
  696MOL0     O93856   6.513   0.120   1.808 -0.7999  0.3806 -0.4130
  696MOL0     C93857   6.581   0.224   1.869  0.6972  0.3578  0.0164
  696MOL0     C93858   6.655   0.201   1.989 -0.6185 -0.4146  0.0788
  696MOL0     C93859   6.747   0.304   2.034 -0.1711 -0.4585 -0.1759
  696MOL0     C93860   6.756   0.425   1.957 -0.3149 -0.2215  0.3340
  696MOL0     O93861   6.855   0.516   1.988 -0.6435 -0.6620 -0.8072
  696MOL0     C93862   6.965   0.475   2.075  0.5625 -1.1855 -0.1156
  696MOL0     C93863   7.059   0.598   2.094  0.8699 -0.0453  0.0679
  696MOL0     C93864   7.146   0.604   2.222 -0.2299 -0.4430 -0.2912
  696MOL0     C93865   7.203   0.477   2.270 -0.1634  0.7119  0.0265
  696MOL0     C93866   7.302   0.407   2.184 -0.6870  0.6882 -0.1486
  696MOL0     C93867   7.373   0.295   2.258  0.6287  0.0486 -0.1775
  696MOL0     C93868   7.491   0.237   2.180  0.2416  1.3043  0.3832
  696MOL0     C93869   7.468   0.179   2.037  0.1155  0.8218 -0.4742
  696MOL0    Cl93870   7.594   0.061   2.006 -0.3470  0.0006  0.0174
  696MOL0     C93871   6.666   0.450   1.858  0.2399 -0.0557 -0.4385
  696MOL0     C93872   6.578   0.349   1.819  0.6638  0.7812 -0.2515
  696MOL0     O93873   6.695   0.084   1.669 -0.4328 -0.8088 -0.2949
  696MOL0     C93874   6.344   0.058   1.590  0.3268 -0.1353  0.5052
  696MOL0     C93875   6.250   0.019   1.491  0.0642  0.7288 -0.3458
  696MOL0     N93876   5.610  -0.039   0.981 -0.4467  0.2681 -0.0726
  696MOL0     N93877   5.517   0.055   0.976 -0.5651  0.5893 -0.2101
  696MOL0     C93878   4.866   0.828   1.612 -0.0331 -0.2990 -0.6383
  696MOL0     C93879   4.903   0.905   1.726  0.0887 -0.0346  0.3270
  696MOL0     C93880   5.137   1.005   2.094  0.3087  0.4466 -1.3416
  696MOL0     C93881   5.078   1.135   2.111  0.1676 -0.1263  0.7929
  696MOL0     C93882   5.151   1.235   2.170  0.6007 -0.3724  0.7561
  696MOL0     C93883   5.277   1.202   2.236  0.0564  0.4289 -0.1427
  696MOL0     O93884   5.330   1.300   2.319  0.4901 -0.6236  1.4631
  696MOL0     C93885   5.469   1.287   2.365 -0.3989  0.3659  0.0717
  696MOL0     C93886   5.502   1.399   2.457  0.3493  0.2885 -0.6158
  696MOL0     C93887   5.538   1.529   2.387  0.2972  0.8071  0.3521
  696MOL0     C93888   5.421   1.631   2.371  1.2370  0.4298 -0.1930
  696MOL0     C93889   5.456   1.768   2.333  0.2324  0.2135  0.1510
  696MOL0     C93890   5.492   1.885   2.306  1.0244 -0.4111  1.4791
  696MOL0     C93891   5.331   1.072   2.232  0.8883  0.8195 -0.5355
  696MOL0     C93892   5.253   0.976   2.167  0.2027 -0.0864 -0.4854
  696MOL0     H93893   4.854   0.672   1.967 -3.0528  0.5296  0.1343
  696MOL0     H93894   4.786   0.532   1.763 -2.3800  0.6833 -1.2903
  696MOL0     H93895   4.752   0.700   1.368 -0.9624 -1.1828 -1.0255
  696MOL0     H93896   4.938   0.688   1.377 -0.4404  1.7211 -0.5410
  696MOL0     H93897   4.730   0.471   1.322 -0.5884  0.1544  1.3343
  696MOL0     H93898   4.839   0.553   1.196  0.9535  0.1127 -0.3391
  696MOL0     H93899   4.909   0.349   1.418  2.6991 -1.5705 -0.6240
  696MOL0     H93900   4.906   0.319   1.253 -1.9702 -3.1942  3.3428
  696MOL0     H93901   5.061   0.502   1.202  0.7228 -1.0356  0.4437
  696MOL0     H93902   5.078   0.522   1.379  0.2470 -0.4480  0.4030
  696MOL0     H93903   5.168   0.280   1.385  2.7402 -4.3534 -2.5894
  696MOL0     H93904   5.149   0.279   1.208  2.3091  0.3063 -1.6537
  696MOL0     H93905   5.304   0.466   1.191  2.7524  0.6097  0.5380
  696MOL0     H93906   5.344   0.457   1.370 -2.0946 -0.2791  1.5318
  696MOL0     H93907   5.513   0.350   1.280 -0.5345  0.8709  1.3697
  696MOL0     H93908   5.403   0.211   1.324  0.0942 -0.3370 -1.6983
  696MOL0     H93909   5.454   0.343   1.052  0.6647  1.9156  2.6218
  696MOL0     H93910   5.331   0.211   1.086  2.0056 -3.3274 -2.0516
  696MOL0     H93911   5.662   0.137   1.256 -1.8476  3.5274 -0.6188
  696MOL0     H93912   5.808  -0.056   1.260  0.4388 -1.8025  0.3294
  696MOL0     H93913   5.803  -0.200   1.168 -3.1993  0.7025  1.8014
  696MOL0     H93914   5.931   0.056   1.063 -0.2969 -0.2431  3.0400
  696MOL0     H93915   5.901  -0.089   0.967 -2.0660  1.2842 -1.3962
  696MOL0     H93916   6.123  -0.074   1.054 -0.4868 -0.2716 -0.4736
  696MOL0     H93917   6.048  -0.230   1.113 -2.9526 -0.3286  2.0688
  696MOL0     H93918   6.011  -0.118   1.331  0.4390  2.6055  2.5893
  696MOL0     H93919   6.092   0.024   1.272 -3.1702  0.6760  2.2634
  696MOL0     H93920   6.449  -0.196   1.333 -2.8686 -0.7485 -0.4186
  696MOL0     H93921   6.689  -0.147   1.589  0.3690  1.9566 -0.7179
  696MOL0     H93922   6.655  -0.249   1.459  0.3481 -1.0615  1.6025
  696MOL0     H93923   6.714  -0.087   1.422 -0.4938  0.6041 -0.6287
  696MOL0     H93924   6.643   0.105   2.038 -1.5118  0.4493  1.6527
  696MOL0     H93925   6.799   0.287   2.127 -0.3135 -0.0653 -0.0248
  696MOL0     H93926   6.916   0.461   2.172 -2.1162 -1.5475 -1.4274
  696MOL0     H93927   7.012   0.381   2.044  0.2649 -1.3338 -0.1180
  696MOL0     H93928   7.116   0.610   2.001 -2.1352 -0.2780 -1.9186
  696MOL0     H93929   6.992   0.683   2.111 -0.6934 -1.4497  1.1782
  696MOL0     H93930   7.088   0.651   2.302  0.8990  3.7636 -1.6544
  696MOL0     H93931   7.228   0.672   2.199  1.1292 -2.2004 -0.8429
  696MOL0     H93932   7.249   0.492   2.368  4.5336  1.0373 -1.9948
  696MOL0     H93933   7.118   0.411   2.288 -0.4706  0.8552 -0.8491
  696MOL0     H93934   7.377   0.477   2.145  1.8237 -0.1431  2.7873
  696MOL0     H93935   7.250   0.358   2.102 -0.9277  1.2322 -0.3295
  696MOL0     H93936   7.412   0.341   2.349  2.0657  1.3240 -1.3779
  696MOL0     H93937   7.297   0.225   2.292 -0.0611  1.3408  1.0661
  696MOL0     H93938   7.537   0.155   2.236 -4.0715 -1.4404  0.3732
  696MOL0     H93939   7.571   0.311   2.179  1.1194  0.4012 -1.8381
  696MOL0     H93940   7.459   0.260   1.964  0.5245  1.1539 -0.1576
  696MOL0     H93941   7.369   0.131   2.040 -0.7214  2.2388  4.8131
  696MOL0     H93942   6.653   0.542   1.803  2.4548  0.5298 -0.1047
  696MOL0     H93943   6.522   0.384   1.733  1.1513  1.0130 -0.4826
  696MOL0     H93944   6.315   0.137   1.659  0.9364  2.2244 -1.7690
  696MOL0     H93945   6.156   0.072   1.494 -0.1053  0.3862  0.9551
  696MOL0     H93946   4.872   0.869   1.512 -2.3268  1.5394 -0.1275
  696MOL0     H93947   4.931   1.008   1.706 -0.8472  0.1917  0.0930
  696MOL0     H93948   4.979   1.156   2.071  0.5322 -0.7670 -0.5037
  696MOL0     H93949   5.119   1.339   2.176  0.1577 -0.4990  0.6144
  696MOL0     H93950   5.475   1.195   2.424  1.2806  0.4511  0.0708
  696MOL0     H93951   5.536   1.284   2.280 -1.1601  1.0808 -0.5652
  696MOL0     H93952   5.606   1.380   2.486  1.0576 -1.0633 -3.5988
  696MOL0     H93953   5.433   1.408   2.541 -1.0040  2.0979 -1.8358
  696MOL0     H93954   5.571   1.501   2.287  1.8396 -0.6318  1.2120
  696MOL0     H93955   5.624   1.572   2.439  1.5589 -1.4547  0.2561
  696MOL0     H93956   5.360   1.636   2.462  0.1715  1.9376 -0.9562
  696MOL0     H93957   5.349   1.595   2.297  1.2805 -1.8579  0.7948
  696MOL0     H93958   5.539   1.975   2.272 -1.5094  0.3576 -0.2680
  696MOL0     H93959   5.425   1.042   2.277  1.1725 -2.0994 -2.7560
  696MOL0     H93960   5.311   0.887   2.149  1.3581 -0.2747  3.2024
  697MOL0     O93961   7.594   8.000   7.697  0.3933  0.2299  0.0911
  697MOL0     C93962   7.700   7.935   7.692 -0.5324 -0.2645 -0.4334
  697MOL0     O93963   7.762   7.884   7.804  0.1821  0.2775  0.2687
  697MOL0     C93964   7.729   7.926   7.926 -0.1355  0.3336 -0.4001
  697MOL0     C93965   7.653   7.843   8.018  0.0540 -0.0163  0.4036
  697MOL0     C93966   7.637   7.886   8.150  0.3089 -0.3354  1.7608
  697MOL0     C93967   7.681   8.013   8.187  0.5914 -0.0683  0.4722
  697MOL0     O93968   7.666   8.049   8.321  0.1312  0.2261 -0.1720
  697MOL0     C93969   7.763   8.127   8.400  0.4183 -0.3984 -0.1826
  697MOL0     C93970   7.717   8.156   8.541 -0.1133  0.7591  0.7980
  697MOL0     C93971   7.693   8.036   8.634  0.1327  0.4740  0.9606
  697MOL0     C93972   7.614   8.090   8.760 -0.0399  0.2288  0.3955
  697MOL0     C93973   7.587   7.983   8.867 -1.1881  0.1403  0.5617
  697MOL0     C93974   7.489   8.016   8.969  0.3844 -0.7276 -0.4318
  697MOL0     C93975   7.530   8.125   9.051 -0.5452  0.8895 -0.5993
  697MOL0     C93976   7.623   8.078   9.163  0.0822 -0.2715 -0.7306
  697MOL0     N93977   7.672   8.197   9.229 -0.0319  0.7625  0.3019
  697MOL0     C93978   7.608   8.275   9.320  0.5155 -0.1839  0.1007
  697MOL0     C93979   7.697   8.360   9.372  0.2003 -0.5313  0.2791
  697MOL0     C93980   7.685   8.450   9.490  0.4663 -0.1336 -0.1621
  697MOL0     C93981   7.599   8.383   9.597  1.0859 -0.2126 -0.3668
  697MOL0     C93982   7.609   8.441   9.738 -0.0996  0.3594  0.2931
  697MOL0     C93983   7.606   8.595   9.753 -0.6103  0.8640 -0.1514
  697MOL0     O93984   7.591   8.638   9.884 -0.1761 -0.1907  0.1704
  697MOL0     C93985   7.474   8.681   9.934 -0.1436 -0.0209 -0.6407
  697MOL0     C93986   7.348   8.656   9.878  0.0466  0.0525 -0.1426
  697MOL0     C93987   7.235   8.719   9.929 -0.7638 -0.4702 -0.0795
  697MOL0     C93988   7.110   8.690   9.846  0.2851  0.7700  0.2271
  697MOL0     C93989   7.239   8.793  10.049 -0.2032  0.3067  0.6213
  697MOL0     C93990   7.122   8.864  10.105 -0.6203 -0.0904 -0.1899
  697MOL0     O93991   7.147   8.989  10.153  0.1197 -0.0193 -0.4590
  697MOL0     C93992   7.032   9.065  10.184 -0.2428  0.5325 -0.3712
  697MOL0     C93993   7.015   9.078  10.315  0.5588 -0.4067 -0.1565
  697MOL0     C93994   6.916   9.163  10.368  0.2405  0.1840  0.6491
  697MOL0     C93995   6.821   9.218  10.281  0.4137  0.5039  0.2839
  697MOL0     O93996   6.724   9.304  10.325  0.2219 -0.2179 -0.3467
  697MOL0     C93997   6.626   9.363  10.238  0.7945 -0.1998  0.6879
  697MOL0     C93998   6.537   9.459  10.316  0.3564 -0.2052 -0.8450
  697MOL0     C93999   6.419   9.383  10.382  0.1407 -0.0861 -0.4985
  697MOL0     C94000   6.449   9.271  10.470 -1.1772  0.3694  0.3832
  697MOL0     C94001   6.509   9.330  10.598  0.0900 -0.0431  0.7182
  697MOL0     C94002   6.573   9.213  10.680  0.2096 -0.3636  0.9639
  697MOL0     C94003   6.649   9.272  10.792 -0.6576 -0.0218 -0.2401
  697MOL0     C94004   6.749   9.173  10.866  0.7701 -0.2773  0.4304
  697MOL0    Cl94005   6.793   9.220  11.035  0.0013  0.1395  0.1860
  697MOL0     C94006   6.831   9.193  10.138 -1.0183 -0.8559 -0.6272
  697MOL0     C94007   6.937   9.113  10.092  0.4449 -1.0619  0.1893
  697MOL0     O94008   7.012   8.804  10.110 -0.3128  0.6350  0.3824
  697MOL0     C94009   7.365   8.820  10.106 -0.0632  0.1254  0.4902
  697MOL0     C94010   7.485   8.764  10.045 -0.6378 -0.2665  0.3415
  697MOL0     N94011   7.813   8.346   9.302 -0.2947 -0.2799 -0.3647
  697MOL0     N94012   7.803   8.249   9.216  0.7713  0.0954 -0.1814
  697MOL0     C94013   7.738   8.095   8.102  0.2894 -0.1836 -0.2215
  697MOL0     C94014   7.766   8.051   7.968  0.4904  0.4467  0.0251
  697MOL0     C94015   7.751   7.908   7.554  0.0271  0.4291 -0.1006
  697MOL0     C94016   7.728   7.982   7.442  0.2765  0.2106 -0.2228
  697MOL0     C94017   7.784   7.950   7.318  0.4987 -0.0653 -0.2250
  697MOL0     C94018   7.862   7.838   7.302 -0.4546  0.0565 -0.0692
  697MOL0     O94019   7.904   7.795   7.180 -0.3805  0.3475  0.2908
  697MOL0     C94020   7.913   7.891   7.072 -0.0766 -0.0288 -0.4285
  697MOL0     C94021   7.995   7.821   6.952 -0.3203 -1.1671 -0.7877
  697MOL0     C94022   8.139   7.780   7.002  0.2033  0.2873 -0.6001
  697MOL0     C94023   8.218   7.725   6.877 -0.3015  0.3110 -0.3327
  697MOL0     C94024   8.176   7.598   6.827 -0.1969  0.6080  0.2499
  697MOL0     C94025   8.128   7.487   6.787 -0.2058 -0.7491  0.1706
  697MOL0     C94026   7.890   7.760   7.416  0.3351  0.6538  0.9324
  697MOL0     C94027   7.848   7.797   7.546  0.6058 -0.4766  0.1049
  697MOL0     H94028   7.625   7.747   7.975 -1.8513  1.3549 -1.6093
  697MOL0     H94029   7.600   7.809   8.218 -1.2744 -0.0219  1.2841
  697MOL0     H94030   7.852   8.065   8.418 -0.1930 -1.4380 -0.6349
  697MOL0     H94031   7.784   8.226   8.358 -0.7060  0.0214  0.2221
  697MOL0     H94032   7.792   8.214   8.595  0.4606 -0.6801  1.6032
  697MOL0     H94033   7.620   8.205   8.529 -0.3257  0.2321  0.2517
  697MOL0     H94034   7.636   7.956   8.587  0.9721  0.8919 -0.8639
  697MOL0     H94035   7.791   8.001   8.669 -0.1694  0.2242  1.5625
  697MOL0     H94036   7.670   8.175   8.802  2.1246  0.3800 -2.5219
  697MOL0     H94037   7.514   8.119   8.727 -0.0146 -0.4658 -0.3049
  697MOL0     H94038   7.562   7.889   8.818 -3.1381 -1.9829  5.0953
  697MOL0     H94039   7.683   7.963   8.916 -1.0501  1.9259  1.1103
  697MOL0     H94040   7.394   8.049   8.926  1.5495  1.7211 -1.3072
  697MOL0     H94041   7.463   7.926   9.025 -0.1753 -0.6537 -0.5674
  697MOL0     H94042   7.578   8.209   9.000  2.6106 -0.1743  0.3817
  697MOL0     H94043   7.446   8.170   9.104 -1.4089  0.8142 -1.8605
  697MOL0     H94044   7.705   8.019   9.120 -0.1780 -0.7551 -0.5687
  697MOL0     H94045   7.574   8.010   9.233  1.1735 -3.3693 -2.7738
  697MOL0     H94046   7.500   8.272   9.334  0.5145  1.7314  0.7467
  697MOL0     H94047   7.786   8.467   9.529  0.9657 -0.4052 -1.3081
  697MOL0     H94048   7.635   8.540   9.453  0.4811 -0.5737 -1.2800
  697MOL0     H94049   7.637   8.280   9.603  0.8998 -0.1861  2.0635
  697MOL0     H94050   7.495   8.380   9.563  0.4485 -1.6423  1.4929
  697MOL0     H94051   7.702   8.406   9.782  0.6576  2.0476  0.1034
  697MOL0     H94052   7.530   8.400   9.802  1.9743 -1.1028  2.0897
  697MOL0     H94053   7.537   8.638   9.680 -1.5992  0.3319  0.4446
  697MOL0     H94054   7.705   8.633   9.726 -0.1275  0.2539  0.7278
  697MOL0     H94055   7.339   8.602   9.784 -0.1985  0.6192 -0.4476
  697MOL0     H94056   7.054   8.782   9.825  1.9388  1.7818  0.0174
  697MOL0     H94057   7.134   8.641   9.751 -1.2605 -0.8618  0.6413
  697MOL0     H94058   7.062   8.620   9.914 -1.7526  2.7438  0.9436
  697MOL0     H94059   7.091   9.042  10.384 -1.3214 -1.7792  1.2943
  697MOL0     H94060   6.921   9.184  10.474 -0.8516  2.2009  0.3372
  697MOL0     H94061   6.673   9.425  10.160 -1.0329  0.3077 -0.0490
  697MOL0     H94062   6.568   9.287  10.186  1.8593 -1.8918  1.8544
  697MOL0     H94063   6.598   9.501  10.397  2.9055 -0.6000 -2.4396
  697MOL0     H94064   6.505   9.531  10.240  2.5976 -1.3321 -2.9907
  697MOL0     H94065   6.361   9.329  10.306 -1.9448  1.2803  0.0706
  697MOL0     H94066   6.357   9.459  10.430  0.9473  0.4385 -0.2740
  697MOL0     H94067   6.354   9.228  10.502 -1.3125 -0.2704 -0.7983
  697MOL0     H94068   6.504   9.194  10.416 -0.7233  1.2532 -0.4477
  697MOL0     H94069   6.429   9.385  10.647 -1.4678  2.4428 -3.9534
  697MOL0     H94070   6.594   9.396  10.574 -0.2371  1.2204  2.7832
  697MOL0     H94071   6.494   9.148  10.720 -0.3337  0.0623  0.6004
  697MOL0     H94072   6.635   9.156  10.610 -1.4339  1.9586 -2.6252
  697MOL0     H94073   6.582   9.325  10.860  1.8577  1.5830  1.1305
  697MOL0     H94074   6.717   9.342  10.744 -0.3873 -0.1646 -0.0647
  697MOL0     H94075   6.840   9.184  10.807 -0.4671  0.1193 -1.4867
  697MOL0     H94076   6.714   9.069  10.873  1.4439 -0.4476  1.5178
  697MOL0     H94077   6.760   9.218  10.060  0.2916 -0.2135 -1.6373
  697MOL0     H94078   6.942   9.082   9.988 -2.1051  1.3267 -0.7917
  697MOL0     H94079   7.376   8.886  10.191  2.5757  4.7166 -2.9515
  697MOL0     H94080   7.584   8.777  10.086 -1.0980  2.1719  0.8279
  697MOL0     H94081   7.786   8.188   8.130 -0.5220 -0.3386  1.8654
  697MOL0     H94082   7.817   8.130   7.914 -1.3714  1.2403 -0.6399
  697MOL0     H94083   7.659   8.065   7.455  0.9761  1.3763 -3.1573
  697MOL0     H94084   7.757   8.028   7.247 -0.6251  1.4796  1.8165
  697MOL0     H94085   7.811   7.906   7.035 -1.1119 -3.0195  0.8844
  697MOL0     H94086   7.962   7.983   7.103  0.6914 -0.2700 -0.9006
  697MOL0     H94087   8.002   7.896   6.873  2.6910 -0.5854 -0.0834
  697MOL0     H94088   7.933   7.733   6.930  0.9453 -2.1487 -0.5489
  697MOL0     H94089   8.136   7.696   7.071  3.7842 -1.8097 -2.6329
  697MOL0     H94090   8.202   7.855   7.050  0.4099  1.0036 -1.9365
  697MOL0     H94091   8.322   7.716   6.911 -0.7659 -0.8402  0.8910
  697MOL0     H94092   8.219   7.796   6.794  1.8103  2.2736  1.2434
  697MOL0     H94093   8.091   7.388   6.770 -1.7758  0.1979 -2.4917
  697MOL0     H94094   7.945   7.669   7.395  2.1022  1.7330  0.6694
  697MOL0     H94095   7.871   7.730   7.628 -0.6080 -0.4443  0.4836
  698MOL0     O94096   1.021   7.769   4.298 -0.6148  0.3569 -0.1379
  698MOL0     C94097   1.029   7.708   4.184  1.2282 -1.0456  0.2791
  698MOL0     O94098   0.950   7.732   4.076  0.1665 -0.5983 -0.0456
  698MOL0     C94099   0.860   7.839   4.090 -0.2475  0.7170 -0.5157
  698MOL0     C94100   0.880   7.953   4.015  0.9686  0.6397  0.6135
  698MOL0     C94101   0.793   8.059   4.026 -0.3015  0.2346  0.5122
  698MOL0     C94102   0.678   8.054   4.102  0.3522 -0.1503  0.2361
  698MOL0     O94103   0.595   8.161   4.101  0.3675  0.0961  0.3547
  698MOL0     C94104   0.483   8.162   4.192  0.0899  0.2695  0.6656
  698MOL0     C94105   0.419   8.300   4.187 -0.0639 -0.4474  0.0958
  698MOL0     C94106   0.482   8.402   4.289 -0.1580 -0.1882 -0.3614
  698MOL0     C94107   0.390   8.523   4.313 -0.2291 -0.5899  0.6905
  698MOL0     C94108   0.410   8.627   4.203  0.1860 -1.0148 -0.5250
  698MOL0     C94109   0.540   8.698   4.207  0.0821 -0.1435 -0.3608
  698MOL0     C94110   0.567   8.758   4.072 -0.1380 -0.3248 -0.2260
  698MOL0     C94111   0.458   8.855   4.027 -0.4189 -0.4071 -0.1790
  698MOL0     N94112   0.507   8.922   3.900  0.1336  0.4231 -0.4620
  698MOL0     C94113   0.477   8.883   3.771  0.1089 -0.6026 -0.3818
  698MOL0     C94114   0.548   8.960   3.696  0.4000 -0.2142 -0.3704
  698MOL0     C94115   0.541   8.954   3.548 -0.2252 -0.1716  0.5412
  698MOL0     C94116   0.609   8.821   3.512 -0.0980  0.5584 -0.6430
  698MOL0     C94117   0.670   8.825   3.375 -0.2185  0.0776 -0.1028
  698MOL0     C94118   0.564   8.827   3.266 -0.4969 -0.3164 -0.2262
  698MOL0     O94119   0.627   8.832   3.133  0.4893  0.0926  0.1731
  698MOL0     C94120   0.635   8.717   3.054 -0.3610  0.7730  0.0664
  698MOL0     C94121   0.650   8.594   3.118  0.1265 -0.1644 -0.0974
  698MOL0     C94122   0.655   8.474   3.042  0.6990  0.0768 -0.2219
  698MOL0     C94123   0.662   8.344   3.126 -0.2734 -0.1843 -0.6294
  698MOL0     C94124   0.646   8.481   2.899 -1.0569  0.0455  0.1245
  698MOL0     C94125   0.665   8.364   2.810 -0.2131 -0.4054 -0.3474
  698MOL0     O94126   0.607   8.251   2.856 -0.7908 -0.1750  0.1942
  698MOL0     C94127   0.644   8.134   2.790 -0.1556  0.4261 -0.2686
  698MOL0     C94128   0.769   8.078   2.795 -1.4042 -0.9105  0.3766
  698MOL0     C94129   0.797   7.957   2.740 -0.2595  0.6031  0.5641
  698MOL0     C94130   0.696   7.886   2.676 -1.0962  0.5080  0.0160
  698MOL0     O94131   0.726   7.786   2.580 -0.1056 -0.2871 -0.5674
  698MOL0     C94132   0.813   7.672   2.602  0.2934 -0.9850  0.6689
  698MOL0     C94133   0.724   7.546   2.593  0.0392 -1.0564  0.3785
  698MOL0     C94134   0.667   7.512   2.726 -0.3609 -0.5017 -0.0936
  698MOL0     C94135   0.760   7.413   2.796 -0.0025  0.1790  0.0307
  698MOL0     C94136   0.736   7.400   2.944 -0.0891 -0.3644 -0.5925
  698MOL0     C94137   0.851   7.309   3.014  0.0272 -0.4087 -0.5320
  698MOL0     C94138   0.825   7.287   3.166  0.1085  0.9034  0.2373
  698MOL0     C94139   0.952   7.235   3.232  0.6582 -0.3458 -0.5875
  698MOL0    Cl94140   1.069   7.376   3.264 -0.6120  0.1587  0.6204
  698MOL0     C94141   0.573   7.941   2.677  0.2270  0.1424  1.0610
  698MOL0     C94142   0.539   8.065   2.738  0.7134 -0.5540  0.8032
  698MOL0     O94143   0.722   8.383   2.704 -0.2396 -0.6690  0.6775
  698MOL0     C94144   0.644   8.610   2.833 -0.3742 -0.6652 -0.1143
  698MOL0     C94145   0.633   8.728   2.913  0.3790  0.3722  0.3107
  698MOL0     N94146   0.631   9.050   3.773 -0.6727 -0.0770  0.4188
  698MOL0     N94147   0.588   9.031   3.891 -0.1428 -0.4249 -0.4303
  698MOL0     C94148   0.658   7.931   4.172 -0.1708 -0.0325  0.7311
  698MOL0     C94149   0.745   7.826   4.166 -0.2994 -0.1072  0.2331
  698MOL0     C94150   1.128   7.602   4.171 -0.1169 -0.7588  0.9776
  698MOL0     C94151   1.239   7.596   4.253 -0.5245  0.2796 -0.3043
  698MOL0     C94152   1.340   7.503   4.228 -0.2779  0.7204  0.7659
  698MOL0     C94153   1.317   7.399   4.137 -1.3943  0.0307  0.6580
  698MOL0     O94154   1.413   7.297   4.134 -0.0922 -0.3357 -0.2513
  698MOL0     C94155   1.370   7.159   4.099  0.3718 -1.0793 -0.0295
  698MOL0     C94156   1.493   7.070   4.071 -0.0606  0.1633 -0.2547
  698MOL0     C94157   1.550   7.088   3.928  0.0647  0.0679  0.2614
  698MOL0     C94158   1.508   6.974   3.832  0.7309  0.1974  0.3466
  698MOL0     C94159   1.544   7.002   3.694 -0.1193 -0.4385  0.2201
  698MOL0     C94160   1.577   7.027   3.578  0.3767 -0.0531  0.7856
  698MOL0     C94161   1.199   7.402   4.063  0.5560  0.2306  0.5873
  698MOL0     C94162   1.110   7.507   4.073  0.0224  0.7999 -0.9966
  698MOL0     H94163   0.959   7.948   3.940  0.3811 -2.8152  0.0363
  698MOL0     H94164   0.813   8.151   3.972 -1.3380  1.3330  1.9194
  698MOL0     H94165   0.423   8.078   4.154  1.0815 -0.7909  1.3523
  698MOL0     H94166   0.511   8.141   4.296  1.3640 -0.1253  0.2629
  698MOL0     H94167   0.417   8.341   4.086  0.1632  2.3130  1.1268
  698MOL0     H94168   0.314   8.291   4.216 -0.5828  0.0713 -1.5178
  698MOL0     H94169   0.481   8.358   4.389 -1.4494  4.5014  1.9597
  698MOL0     H94170   0.585   8.425   4.260 -0.2484 -0.4250 -0.8920
  698MOL0     H94171   0.282   8.509   4.325 -0.5597  1.3323  0.3025
  698MOL0     H94172   0.421   8.572   4.406  0.5104 -1.9877  1.1988
  698MOL0     H94173   0.398   8.593   4.099 -1.5719  2.4723 -1.6220
  698MOL0     H94174   0.333   8.702   4.220  2.8453  2.0804 -1.1411
  698MOL0     H94175   0.542   8.776   4.284  0.5910  0.9075 -1.4064
  698MOL0     H94176   0.626   8.640   4.242  0.5696  2.1682  2.7444
  698MOL0     H94177   0.665   8.806   4.076  0.2782 -1.1891  2.9703
  698MOL0     H94178   0.571   8.671   4.006 -1.9340 -3.9937  4.0183
  698MOL0     H94179   0.433   8.930   4.102 -1.1153 -0.4968 -0.3180
  698MOL0     H94180   0.366   8.798   4.012 -0.8561 -0.0300  1.0083
  698MOL0     H94181   0.406   8.806   3.742  0.4702 -1.1167  0.0522
  698MOL0     H94182   0.440   8.950   3.506 -1.2753  0.3662  2.8576
  698MOL0     H94183   0.596   9.036   3.499 -0.7423  0.0144  0.2604
  698MOL0     H94184   0.554   8.728   3.532  2.8968 -0.8598  1.9260
  698MOL0     H94185   0.686   8.792   3.585 -0.6869 -5.0003 -1.8239
  698MOL0     H94186   0.725   8.731   3.368 -0.9683 -0.2683 -2.3593
  698MOL0     H94187   0.739   8.910   3.374 -2.6607  2.2546 -2.1987
  698MOL0     H94188   0.508   8.916   3.296  1.2789 -0.0101  2.5725
  698MOL0     H94189   0.505   8.735   3.273  1.3687 -1.4738  2.0030
  698MOL0     H94190   0.663   8.585   3.225  3.7600  0.6318 -0.3380
  698MOL0     H94191   0.562   8.304   3.141 -0.9837  1.4059 -0.9746
  698MOL0     H94192   0.732   8.265   3.095  0.4387 -0.8324  2.3670
  698MOL0     H94193   0.697   8.363   3.228 -1.1355 -1.5240 -0.0505
  698MOL0     H94194   0.843   8.146   2.838  0.1174 -1.7789 -0.7654
  698MOL0     H94195   0.893   7.907   2.744 -2.4168 -4.1854 -0.4560
  698MOL0     H94196   0.879   7.680   2.515  0.7747 -1.7489  0.9497
  698MOL0     H94197   0.871   7.684   2.694  4.6693 -1.6354 -1.7014
  698MOL0     H94198   0.642   7.565   2.523  0.5368  0.1271  0.0878
  698MOL0     H94199   0.782   7.463   2.554  1.9726  1.2087 -1.8943
  698MOL0     H94200   0.564   7.480   2.711 -0.4375 -0.8902  1.2299
  698MOL0     H94201   0.661   7.599   2.792  1.1308  0.6566 -1.3762
  698MOL0     H94202   0.754   7.316   2.746 -0.1835 -0.2112  0.7864
  698MOL0     H94203   0.861   7.454   2.784  1.1968 -2.6560 -0.2378
  698MOL0     H94204   0.633   7.363   2.954  0.3922 -1.7385 -0.4650
  698MOL0     H94205   0.736   7.491   3.005 -0.6639  1.5485 -3.2813
  698MOL0     H94206   0.867   7.217   2.958 -1.3147 -0.4978 -0.8236
  698MOL0     H94207   0.945   7.364   3.014  0.6819 -1.5085  0.0816
  698MOL0     H94208   0.752   7.206   3.167 -0.5864  1.5059  1.7430
  698MOL0     H94209   0.788   7.377   3.217  1.1040  0.4327  1.8652
  698MOL0     H94210   0.997   7.155   3.173  4.2816  0.7012  0.4834
  698MOL0     H94211   0.929   7.187   3.328  0.5970 -1.9685 -1.3845
  698MOL0     H94212   0.500   7.885   2.621 -1.5299  1.8275  1.5567
  698MOL0     H94213   0.441   8.113   2.743  1.3789  0.7643  1.4780
  698MOL0     H94214   0.664   8.625   2.728  1.3845  1.1317  0.3953
  698MOL0     H94215   0.644   8.829   2.874 -0.5839  1.3419  2.4166
  698MOL0     H94216   0.563   7.921   4.223 -0.5027  0.6385  0.2612
  698MOL0     H94217   0.708   7.739   4.218 -1.5195  1.0627  1.4362
  698MOL0     H94218   1.265   7.658   4.338  1.2398  1.0949 -1.3859
  698MOL0     H94219   1.433   7.522   4.280  0.6212  1.7683 -1.1446
  698MOL0     H94220   1.314   7.119   4.184 -0.1196  0.5817  0.4821
  698MOL0     H94221   1.302   7.146   4.014 -0.1389 -0.7500  0.3232
  698MOL0     H94222   1.461   6.967   4.088 -2.5642  0.4863 -2.3582
  698MOL0     H94223   1.570   7.096   4.145  2.8642 -0.5929 -2.8029
  698MOL0     H94224   1.659   7.085   3.928  0.0745 -0.5907  1.6826
  698MOL0     H94225   1.505   7.183   3.897 -2.1610 -1.0362 -0.1176
  698MOL0     H94226   1.399   6.984   3.833  0.6938 -0.2019  0.3514
  698MOL0     H94227   1.541   6.872   3.855 -1.8306 -1.1396 -1.4146
  698MOL0     H94228   1.605   7.050   3.478  2.5968  1.6264  1.7229
  698MOL0     H94229   1.189   7.334   3.979  1.7859 -0.4800  0.9963
  698MOL0     H94230   1.023   7.513   4.008  0.2551  3.5578 -1.1762
  699MOL0     O94231   9.721   4.187  10.319  0.3980 -0.3265 -0.1128
  699MOL0     C94232   9.797   4.282  10.305 -0.0491  0.2614 -0.5868
  699MOL0     O94233   9.925   4.280  10.253  0.3184  0.0647 -0.0076
  699MOL0     C94234   9.978   4.164  10.192  0.4248  0.0837  0.2020
  699MOL0     C94235  10.121   4.143  10.174 -0.1587  0.4894 -0.4646
  699MOL0     C94236  10.178   4.036  10.109  0.2588  0.2536  1.0163
  699MOL0     C94237  10.100   3.948  10.029  0.9501 -1.3200 -0.4946
  699MOL0     O94238  10.151   3.860   9.942  0.0312 -0.2916 -0.0569
  699MOL0     C94239  10.186   3.736  10.005  0.7888  0.2593  0.5944
  699MOL0     C94240  10.138   3.616   9.919  0.6966  0.5996 -0.2117
  699MOL0     C94241  10.197   3.480   9.977  0.3092 -0.0655  0.1648
  699MOL0     C94242  10.110   3.362   9.919  0.4295 -0.5958  0.0026
  699MOL0     C94243  10.193   3.235   9.950  0.0303  0.3249 -0.1430
  699MOL0     C94244  10.308   3.217   9.849  0.1086 -0.3824  0.1112
  699MOL0     C94245  10.433   3.175   9.920 -0.5619  0.1179  0.4205
  699MOL0     C94246  10.441   3.055  10.009 -0.9426 -0.3776 -1.2222
  699MOL0     N94247  10.577   3.041  10.075  0.0151 -0.0920  0.7367
  699MOL0     C94248  10.701   3.010  10.020  0.0230  0.1960 -1.0303
  699MOL0     C94249  10.782   3.011  10.127 -0.8350 -0.0235  0.0127
  699MOL0     C94250  10.927   2.962  10.126  0.8267 -1.1717 -0.8882
  699MOL0     C94251  10.933   2.820  10.155 -0.1060  0.1432  0.4328
  699MOL0     C94252  10.944   2.795  10.307 -0.0557  0.3944  0.4368
  699MOL0     C94253  10.926   2.642  10.332 -0.4158  0.3287  0.4612
  699MOL0     O94254  10.910   2.619  10.481 -0.9041  0.6511  0.7348
  699MOL0     C94255  10.785   2.593  10.529  0.5706  0.1693 -0.3576
  699MOL0     C94256  10.677   2.533  10.451  0.1948  0.5291  0.6433
  699MOL0     C94257  10.553   2.513  10.518  0.6483 -0.0726 -0.0504
  699MOL0     C94258  10.439   2.460  10.429  0.2015  0.3332  0.1716
  699MOL0     C94259  10.530   2.552  10.656 -0.6686  0.4998  1.5333
  699MOL0     C94260  10.401   2.554  10.731 -0.8310  1.0662  0.3891
  699MOL0     O94261  10.409   2.546  10.864 -0.0598  0.5786 -0.2606
  699MOL0     C94262  10.295   2.530  10.936 -0.5700 -0.2507 -0.2508
  699MOL0     C94263  10.176   2.600  10.914 -0.5190 -1.1828 -0.5163
  699MOL0     C94264  10.062   2.564  10.980  0.1191 -0.7104 -1.3918
  699MOL0     C94265  10.063   2.453  11.071 -0.6833  0.5481 -0.3397
  699MOL0     O94266   9.945   2.419  11.132  0.4734 -0.4656 -0.2973
  699MOL0     C94267   9.940   2.309  11.232 -0.0642  0.5085  0.0374
  699MOL0     C94268  10.004   2.360  11.360  0.0889 -0.8351  0.4043
  699MOL0     C94269   9.999   2.252  11.470  0.4393  0.9317  0.3859
  699MOL0     C94270  10.050   2.328  11.588  0.6586  0.1694 -0.9308
  699MOL0     C94271  10.058   2.235  11.712  0.3724  0.5658 -0.2202
  699MOL0     C94272  10.126   2.303  11.834  0.2542  0.1240 -0.5509
  699MOL0     C94273  10.124   2.200  11.947  0.2030 -0.8644  0.2946
  699MOL0     C94274  10.174   2.276  12.072 -0.8915 -0.2768  0.6144
  699MOL0    Cl94275  10.149   2.172  12.216 -0.0193  0.1246 -0.0069
  699MOL0     C94276  10.186   2.386  11.091  0.0421  0.7082 -0.3061
  699MOL0     C94277  10.307   2.430  11.033 -0.8747 -0.9085  0.4285
  699MOL0     O94278  10.297   2.545  10.666 -0.0020 -0.2114  0.4950
  699MOL0     C94279  10.647   2.576  10.727  0.8554  0.2623  0.0731
  699MOL0     C94280  10.771   2.611  10.667  1.0230  0.3418  0.8142
  699MOL0     N94281  10.720   3.063  10.236 -0.3865  0.5095  0.0783
  699MOL0     N94282  10.597   3.071  10.209 -0.3058 -0.7546 -0.5232
  699MOL0     C94283   9.960   3.961  10.045  0.1866  0.0143 -0.2390
  699MOL0     C94284   9.905   4.060  10.121  0.3874 -0.0103 -0.8762
  699MOL0     C94285   9.745   4.426  10.341 -0.4130  0.5971 -0.0379
  699MOL0     C94286   9.824   4.530  10.319 -0.3822  0.3525 -0.2556
  699MOL0     C94287   9.776   4.666  10.343 -0.2467  0.2441  0.3643
  699MOL0     C94288   9.645   4.676  10.404 -0.5466 -0.0033  0.4152
  699MOL0     O94289   9.603   4.810  10.434 -0.5648  0.6936 -0.4556
  699MOL0     C94290   9.515   4.827  10.545 -1.0092  0.7074  0.8044
  699MOL0     C94291   9.500   4.976  10.588  0.4362 -0.3961 -0.1712
  699MOL0     C94292   9.467   4.981  10.737 -0.1421  0.2905 -0.6833
  699MOL0     C94293   9.474   5.124  10.801  0.0846 -0.4283  0.3348
  699MOL0     C94294   9.518   5.112  10.941 -0.3839 -1.2219 -0.2909
  699MOL0     C94295   9.562   5.100  11.054  0.4246  0.4559 -0.1631
  699MOL0     C94296   9.570   4.567  10.435 -0.7085 -0.2902 -0.9124
  699MOL0     C94297   9.613   4.444  10.396 -0.2279 -0.3505 -0.3885
  699MOL0     H94298  10.192   4.220  10.202  2.3459 -1.3994 -1.2388
  699MOL0     H94299  10.286   4.036  10.105  0.2793  2.4012 -1.4305
  699MOL0     H94300  10.295   3.736  10.005  0.9038 -2.6239 -2.0699
  699MOL0     H94301  10.142   3.734  10.106 -0.1876  0.8506  0.1940
  699MOL0     H94302  10.029   3.605   9.921  0.8396 -1.2400 -0.5768
  699MOL0     H94303  10.169   3.628   9.815  2.1266 -0.2195  0.0979
  699MOL0     H94304  10.302   3.464   9.949  1.0092  0.7536  2.1505
  699MOL0     H94305  10.200   3.479  10.086  3.1900  2.5606  0.2478
  699MOL0     H94306  10.011   3.361   9.965 -0.7680  4.0695 -1.9574
  699MOL0     H94307  10.089   3.383   9.814  3.6051 -1.8043 -0.9803
  699MOL0     H94308  10.227   3.244  10.054 -1.9560  1.9726  0.4297
  699MOL0     H94309  10.122   3.152   9.940 -0.0106  0.5742 -2.6658
  699MOL0     H94310  10.284   3.148   9.767  0.8230 -1.7814  1.0267
  699MOL0     H94311  10.327   3.317   9.811 -3.3907  1.2967  2.2948
  699MOL0     H94312  10.511   3.153   9.846 -0.8024 -0.1515  0.2438
  699MOL0     H94313  10.451   3.264   9.980 -1.7456  1.2301 -0.8065
  699MOL0     H94314  10.423   2.960   9.957 -1.3341 -1.4946  0.8153
  699MOL0     H94315  10.366   3.069  10.087  1.2675  2.8978  0.5759
  699MOL0     H94316  10.732   2.989   9.918  3.8767 -1.3388  0.2805
  699MOL0     H94317  10.979   2.977  10.031 -1.5364  0.6085 -1.9952
  699MOL0     H94318  10.983   3.010  10.206 -0.3252 -0.4543 -0.4872
  699MOL0     H94319  11.021   2.779  10.104  0.9366  2.3359  0.3903
  699MOL0     H94320  10.847   2.760  10.122  1.9162 -2.9997  0.3972
  699MOL0     H94321  10.868   2.849  10.364 -1.4044 -0.2456 -0.6889
  699MOL0     H94322  11.047   2.811  10.340  1.4711 -4.4013 -1.3185
  699MOL0     H94323  11.012   2.587  10.294 -0.4153 -0.0020  0.9287
  699MOL0     H94324  10.835   2.613  10.279  0.3512 -0.6140 -0.3718
  699MOL0     H94325  10.691   2.505  10.347 -1.6491  4.8303 -1.0283
  699MOL0     H94326  10.464   2.429  10.327 -2.1266 -1.5054  0.0940
  699MOL0     H94327  10.391   2.374  10.477 -1.0102  0.1181 -1.3772
  699MOL0     H94328  10.369   2.544  10.425 -0.4823 -0.2720 -1.0891
  699MOL0     H94329  10.174   2.673  10.833 -0.3730 -1.5532 -0.8536
  699MOL0     H94330   9.970   2.621  10.972 -0.7515 -2.2013 -2.3275
  699MOL0     H94331   9.833   2.289  11.245  0.2072 -0.4282  1.0442
  699MOL0     H94332   9.998   2.222  11.200 -1.0766 -0.0266 -0.3724
  699MOL0     H94333  10.112   2.373  11.351  0.2810 -0.9468  2.1014
  699MOL0     H94334   9.958   2.456  11.385 -0.1257 -0.4018 -1.4817
  699MOL0     H94335  10.070   2.180  11.429  1.1709  0.4710  2.3523
  699MOL0     H94336   9.903   2.203  11.489  1.4944 -0.9264  1.1591
  699MOL0     H94337  10.144   2.381  11.568  0.7362  0.3284 -0.1801
  699MOL0     H94338   9.977   2.396  11.633 -0.7184 -1.8868  0.0765
  699MOL0     H94339  10.116   2.146  11.688 -0.0798  0.1345  0.2631
  699MOL0     H94340   9.959   2.201  11.743  0.6245  0.5234  0.5508
  699MOL0     H94341  10.226   2.343  11.816  0.4211  1.4882  2.7762
  699MOL0     H94342  10.063   2.390  11.855  0.2388  0.0346 -0.2271
  699MOL0     H94343  10.183   2.110  11.930 -0.3416 -0.9545 -1.2489
  699MOL0     H94344  10.015   2.188  11.951 -0.2270  2.3722  1.5849
  699MOL0     H94345  10.110   2.362  12.096 -0.6370  0.8820 -2.4692
  699MOL0     H94346  10.276   2.312  12.056 -1.4221  1.1674  0.3015
  699MOL0     H94347  10.184   2.305  11.163 -0.7518  0.3891 -0.6782
  699MOL0     H94348  10.401   2.384  11.060 -0.7352  0.3568  2.3196
  699MOL0     H94349  10.646   2.583  10.835  3.4931 -3.8023  0.5703
  699MOL0     H94350  10.855   2.654  10.721  0.1681  1.4007  1.3496
  699MOL0     H94351   9.890   3.894   9.995  1.5279 -0.4728 -1.5177
  699MOL0     H94352   9.797   4.072  10.114  0.5247  0.5310 -2.5832
  699MOL0     H94353   9.919   4.517  10.268 -0.9257  0.5674 -1.3466
  699MOL0     H94354   9.828   4.757  10.315  0.3096 -0.8036 -2.2940
  699MOL0     H94355   9.415   4.789  10.521  0.0982 -0.5944 -2.2798
  699MOL0     H94356   9.549   4.776  10.636  0.9743  0.4550 -0.0145
  699MOL0     H94357   9.419   5.030  10.539  0.0835  1.6581  2.4687
  699MOL0     H94358   9.596   5.025  10.567 -0.0724  0.6106 -0.1990
  699MOL0     H94359   9.531   4.915  10.796 -2.8563  0.3260  2.5889
  699MOL0     H94360   9.367   4.944  10.761  0.9773 -0.9400  2.6607
  699MOL0     H94361   9.373   5.166  10.800  0.0940 -0.4078 -0.0918
  699MOL0     H94362   9.528   5.198  10.742 -0.3217 -0.0706  0.4014
  699MOL0     H94363   9.599   5.082  11.153 -0.2512 -1.9543 -0.2811
  699MOL0     H94364   9.470   4.583  10.474  0.2213 -2.8483  3.0777
  699MOL0     H94365   9.553   4.354  10.401 -3.5583  1.5019 -2.9965
  700MOL0     O94366   1.222   7.178   9.374  0.4159 -0.1703  0.3344
  700MOL0     C94367   1.123   7.189   9.300 -0.4851  0.7881  0.1397
  700MOL0     O94368   1.092   7.288   9.212  0.0539 -0.6284 -0.7733
  700MOL0     C94369   1.189   7.379   9.178  0.6977 -0.4194 -0.8105
  700MOL0     C94370   1.155   7.509   9.188  0.1769  0.0662 -0.2582
  700MOL0     C94371   1.243   7.606   9.165 -0.4605  0.0799  0.0354
  700MOL0     C94372   1.374   7.576   9.111  0.6991 -0.3470  0.1471
  700MOL0     O94373   1.458   7.674   9.063 -0.0442  0.1615  1.1092
  700MOL0     C94374   1.408   7.805   9.016  0.0502 -0.1565 -0.1352
  700MOL0     C94375   1.536   7.890   8.996 -0.5125  0.0700  0.2669
  700MOL0     C94376   1.502   8.036   8.973  1.0463  0.2514  0.1032
  700MOL0     C94377   1.510   8.129   9.092 -0.3825  0.8869  0.0063
  700MOL0     C94378   1.494   8.284   9.055  0.3725  0.6955 -0.3885
  700MOL0     C94379   1.347   8.313   9.037  0.9986  0.2901 -0.5953
  700MOL0     C94380   1.312   8.458   9.058  0.0821 -0.1408  0.2147
  700MOL0     C94381   1.319   8.532   8.933  0.3018  0.6988  1.1573
  700MOL0     N94382   1.196   8.522   8.841  0.5121 -0.1573  0.0105
  700MOL0     C94383   1.126   8.627   8.783  0.8992  0.0328  0.9996
  700MOL0     C94384   1.018   8.570   8.725  0.5428  0.0653 -1.1480
  700MOL0     C94385   0.914   8.642   8.634  0.0538  0.5516 -0.0450
  700MOL0     C94386   0.858   8.558   8.517 -0.0128 -0.2618 -0.1937
  700MOL0     C94387   0.967   8.536   8.410  0.1311 -0.4009 -0.5512
  700MOL0     C94388   1.017   8.677   8.355  0.5991 -0.2880  0.1884
  700MOL0     O94389   1.021   8.671   8.210  0.2632 -0.1821 -0.0308
  700MOL0     C94390   1.147   8.696   8.164 -0.5116  0.2570 -0.6971
  700MOL0     C94391   1.203   8.828   8.180  0.1237 -0.3692 -1.4582
  700MOL0     C94392   1.328   8.852   8.120 -0.5373 -0.1302 -1.0441
  700MOL0     C94393   1.394   8.979   8.149  0.1283 -0.3167  0.9317
  700MOL0     C94394   1.379   8.767   8.028 -0.6593  0.4406  0.1299
  700MOL0     C94395   1.496   8.805   7.940  1.1316  0.7319  0.0595
  700MOL0     O94396   1.589   8.714   7.920 -0.6121 -0.0672  0.4343
  700MOL0     C94397   1.721   8.752   7.920 -0.8048  0.1713  0.0343
  700MOL0     C94398   1.828   8.690   7.856 -0.0118 -0.3454 -0.7173
  700MOL0     C94399   1.968   8.730   7.865  0.0799  0.6341  0.1521
  700MOL0     C94400   1.995   8.851   7.928  0.1846 -0.0134  0.1680
  700MOL0     O94401   2.115   8.917   7.923  0.1552 -0.1204  0.1743
  700MOL0     C94402   2.222   8.854   7.982 -0.5943 -0.2178  0.3969
  700MOL0     C94403   2.276   8.948   8.092 -0.6784 -0.2830  0.3054
  700MOL0     C94404   2.376   8.877   8.178 -0.8049  0.9393 -0.1668
  700MOL0     C94405   2.426   8.977   8.278 -1.0508 -0.7347  0.3441
  700MOL0     C94406   2.485   8.900   8.390 -0.3295  0.2775 -0.2641
  700MOL0     C94407   2.545   8.989   8.495  0.2847 -0.5251  0.4593
  700MOL0     C94408   2.642   8.911   8.587  0.1650  0.2155  0.6079
  700MOL0     C94409   2.672   8.978   8.705 -0.5884  0.6453  0.6206
  700MOL0    Cl94410   2.523   8.968   8.809  0.0862 -0.1174 -0.4271
  700MOL0     C94411   1.896   8.917   7.999 -0.3389 -0.1628 -0.5461
  700MOL0     C94412   1.762   8.861   7.997 -0.0529 -0.1083  0.1620
  700MOL0     O94413   1.504   8.913   7.894 -0.3206  0.6655  0.3023
  700MOL0     C94414   1.319   8.644   8.010  0.8887 -0.5533 -0.5574
  700MOL0     C94415   1.209   8.601   8.084  0.0500  0.0171 -0.5940
  700MOL0     N94416   1.023   8.430   8.751 -0.2507  0.1212  0.0500
  700MOL0     N94417   1.120   8.405   8.836 -0.1046 -0.8302 -0.4832
  700MOL0     C94418   1.398   7.437   9.087  0.5876 -1.1111  0.8966
  700MOL0     C94419   1.304   7.341   9.119 -0.3276 -0.1844  0.4882
  700MOL0     C94420   1.024   7.084   9.318 -0.4209 -0.1018 -0.2410
  700MOL0     C94421   1.039   6.984   9.411 -0.1877  0.4850 -0.1832
  700MOL0     C94422   0.940   6.893   9.432 -0.3153  0.6696 -0.6943
  700MOL0     C94423   0.815   6.909   9.359 -0.2034  0.2474  0.1204
  700MOL0     O94424   0.707   6.834   9.383  0.5254  0.1223 -0.0223
  700MOL0     C94425   0.597   6.919   9.420  0.1060  0.5104 -0.3224
  700MOL0     C94426   0.509   6.853   9.526  0.3969 -1.0765 -0.4124
  700MOL0     C94427   0.409   6.751   9.463  0.4696  0.3122  0.3842
  700MOL0     C94428   0.309   6.697   9.567 -1.0971 -0.2773 -0.1182
  700MOL0     C94429   0.377   6.648   9.693  0.7535  0.1947  1.1745
  700MOL0     C94430   0.439   6.590   9.773 -0.7471  0.5154 -0.5520
  700MOL0     C94431   0.806   7.006   9.263  0.5469  0.2018 -0.1821
  700MOL0     C94432   0.907   7.092   9.243 -0.5185  0.6945  0.4424
  700MOL0     H94433   1.057   7.548   9.212  0.2198  0.6658 -1.0526
  700MOL0     H94434   1.210   7.707   9.185 -2.8350  0.5542 -4.8659
  700MOL0     H94435   1.355   7.797   8.921  1.8687  0.6127 -1.2714
  700MOL0     H94436   1.350   7.851   9.097  0.6952 -0.8056  0.7164
  700MOL0     H94437   1.602   7.892   9.083 -0.4946  0.1861  0.2505
  700MOL0     H94438   1.591   7.859   8.906  1.7775  2.6819  0.6339
  700MOL0     H94439   1.569   8.073   8.895  0.5301 -1.9709 -1.4757
  700MOL0     H94440   1.402   8.047   8.930 -1.0707  1.0809  4.5901
  700MOL0     H94441   1.432   8.104   9.164  1.4332  0.5915  1.9510
  700MOL0     H94442   1.604   8.108   9.143 -0.2053  1.1580 -0.2080
  700MOL0     H94443   1.522   8.336   9.147 -0.1301  1.6097 -0.7488
  700MOL0     H94444   1.558   8.323   8.976  1.1710  1.6844  0.7235
  700MOL0     H94445   1.310   8.273   8.942 -0.8621  3.3890 -1.2912
  700MOL0     H94446   1.294   8.262   9.118 -0.2184  2.7173  0.2146
  700MOL0     H94447   1.214   8.483   9.102  1.0535 -2.8150  4.4689
  700MOL0     H94448   1.387   8.491   9.130  1.4174  0.2030 -1.3027
  700MOL0     H94449   1.410   8.508   8.877  1.1759 -2.3654  3.5586
  700MOL0     H94450   1.321   8.637   8.964 -1.6265  0.9873  0.4331
  700MOL0     H94451   1.145   8.734   8.784 -0.5952  0.3815 -1.0576
  700MOL0     H94452   0.825   8.674   8.690 -1.1802  2.8406 -3.0442
  700MOL0     H94453   0.969   8.732   8.607  0.6392  0.1839 -0.0800
  700MOL0     H94454   0.767   8.606   8.480 -1.5493  1.5758  5.0995
  700MOL0     H94455   0.824   8.459   8.550  1.8165 -1.0961 -0.6858
  700MOL0     H94456   0.933   8.466   8.333 -1.7859 -0.8681  0.6444
  700MOL0     H94457   1.043   8.477   8.461  0.5446 -0.3039 -1.0514
  700MOL0     H94458   1.115   8.683   8.403  0.2784  0.0222  0.8084
  700MOL0     H94459   0.954   8.756   8.396  0.3832 -0.9186  1.1129
  700MOL0     H94460   1.150   8.905   8.235  1.0250  0.3630 -1.5886
  700MOL0     H94461   1.359   9.050   8.073  2.6482  1.7541  1.5480
  700MOL0     H94462   1.363   9.001   8.251 -0.5272  2.6991  0.1816
  700MOL0     H94463   1.503   8.976   8.139 -0.0565 -3.3078 -2.0912
  700MOL0     H94464   1.805   8.599   7.802 -0.5748 -0.6499  0.0231
  700MOL0     H94465   2.041   8.674   7.806  1.6505  0.9137  1.7455
  700MOL0     H94466   2.199   8.760   8.034  0.9974 -0.6789  0.3357
  700MOL0     H94467   2.304   8.837   7.912 -1.7892  1.3694 -1.4682
  700MOL0     H94468   2.314   9.039   8.044 -2.0707 -0.6873 -1.6745
  700MOL0     H94469   2.188   8.977   8.150  1.0248  0.5405  2.6452
  700MOL0     H94470   2.456   8.830   8.120 -1.0916  0.2687 -0.0187
  700MOL0     H94471   2.321   8.796   8.226  1.3377 -0.3554  0.1922
  700MOL0     H94472   2.510   9.038   8.244  0.0092 -3.0951 -1.5393
  700MOL0     H94473   2.345   9.039   8.318  0.0043 -0.2869  1.8720
  700MOL0     H94474   2.566   8.837   8.351 -0.6992  2.0218 -4.3724
  700MOL0     H94475   2.414   8.841   8.449 -1.0686  2.8234  1.5615
  700MOL0     H94476   2.597   9.074   8.448  1.3928 -0.6863  1.3570
  700MOL0     H94477   2.457   9.031   8.544  0.1165 -0.6613  0.2719
  700MOL0     H94478   2.733   8.897   8.528 -1.6270  0.1560 -2.2974
  700MOL0     H94479   2.612   8.811   8.621  2.7802 -0.7135  0.4310
  700MOL0     H94480   2.700   9.081   8.680 -1.2676  0.7533  0.2697
  700MOL0     H94481   2.751   8.933   8.766 -0.1278 -1.3888 -1.3388
  700MOL0     H94482   1.904   9.015   8.044 -3.8587  0.3920 -0.7874
  700MOL0     H94483   1.690   8.923   8.050  0.3765  0.1444  0.4488
  700MOL0     H94484   1.346   8.574   7.931 -0.2392  0.8338 -2.2550
  700MOL0     H94485   1.165   8.503   8.070  0.2324 -0.3449  1.1883
  700MOL0     H94486   1.500   7.416   9.055  0.5307 -2.1557  1.3545
  700MOL0     H94487   1.338   7.238   9.106  1.8596  0.6779 -1.3201
  700MOL0     H94488   1.134   6.972   9.462 -1.3116 -2.2856  1.4336
  700MOL0     H94489   0.942   6.817   9.510 -2.1451  2.7078  1.4937
  700MOL0     H94490   0.633   7.019   9.446 -0.4742  1.6459 -3.4030
  700MOL0     H94491   0.540   6.925   9.327  3.0981  4.1623 -2.2021
  700MOL0     H94492   0.456   6.931   9.581  2.5146 -1.2567  2.0398
  700MOL0     H94493   0.581   6.815   9.599 -0.9810  3.1212  3.5916
  700MOL0     H94494   0.462   6.661   9.432  0.1820  0.1783  0.2863
  700MOL0     H94495   0.350   6.797   9.383 -0.6393 -0.5966  0.6503
  700MOL0     H94496   0.259   6.606   9.532 -1.8561 -0.9036  2.4348
  700MOL0     H94497   0.226   6.767   9.580 -0.8779  0.0438 -0.4520
  700MOL0     H94498   0.504   6.537   9.840 -1.5754  0.1017 -0.0617
  700MOL0     H94499   0.711   7.028   9.215  0.9789  1.7874 -0.3710
  700MOL0     H94500   0.880   7.166   9.168 -1.4335  0.9615  1.0248
  701MOL0     O94501   1.136   6.695   3.817 -0.0001  0.4704 -0.0553
  701MOL0     C94502   1.201   6.690   3.919 -0.0880 -0.2996  0.4909
  701MOL0     O94503   1.184   6.781   4.020  0.5550  0.5744  0.6617
  701MOL0     C94504   1.104   6.894   4.008  0.2549  0.5447  0.6091
  701MOL0     C94505   1.014   6.921   4.112  0.3772 -1.1758  0.0670
  701MOL0     C94506   0.913   7.026   4.101  0.1701  0.2398  0.0244
  701MOL0     C94507   0.902   7.100   3.978  0.1482 -0.0823 -0.4968
  701MOL0     O94508   0.803   7.188   3.941 -0.1124 -0.3091  0.6087
  701MOL0     C94509   0.679   7.187   4.009  1.2695  0.1066 -0.2006
  701MOL0     C94510   0.570   7.235   3.914  0.8579 -0.0594 -1.0407
  701MOL0     C94511   0.584   7.377   3.850 -0.1656  0.2340  0.1878
  701MOL0     C94512   0.635   7.484   3.944  0.1934 -0.2775 -0.2992
  701MOL0     C94513   0.541   7.531   4.053 -0.9062 -0.1236 -0.7141
  701MOL0     C94514   0.431   7.617   4.000 -0.7740  0.2287  0.1311
  701MOL0     C94515   0.354   7.666   4.125 -0.1766 -0.6955  1.0884
  701MOL0     C94516   0.231   7.754   4.106  0.1225  0.0532 -0.1143
  701MOL0     N94517   0.198   7.834   4.228 -0.4490  1.2600 -0.1169
  701MOL0     C94518   0.166   7.781   4.354 -0.2987 -0.0336 -0.0394
  701MOL0     C94519   0.158   7.891   4.430  0.3341 -1.0758 -0.5279
  701MOL0     C94520   0.166   7.916   4.575  0.5741 -0.1113 -0.5381
  701MOL0     C94521   0.279   8.013   4.617 -1.1726  0.1146 -0.8105
  701MOL0     C94522   0.404   7.984   4.532 -0.4220 -0.2267  0.4024
  701MOL0     C94523   0.531   8.027   4.604  1.6855  0.0269  0.0386
  701MOL0     O94524   0.633   7.970   4.532 -1.1326  0.1576  0.0178
  701MOL0     C94525   0.767   8.004   4.573  0.1390  0.0076  0.3438
  701MOL0     C94526   0.798   8.095   4.672 -1.9075  0.1860  0.2283
  701MOL0     C94527   0.929   8.116   4.719  0.2615  0.0122  0.3321
  701MOL0     C94528   0.947   8.205   4.842  0.0619 -0.7760  0.3455
  701MOL0     C94529   1.037   8.051   4.644  0.7480  0.4735 -0.4550
  701MOL0     C94530   1.169   8.058   4.693  0.9135  0.3978  0.5773
  701MOL0     O94531   1.246   7.964   4.640 -0.3444 -0.1551  0.1467
  701MOL0     C94532   1.379   7.958   4.686  0.0668  1.0339  0.9033
  701MOL0     C94533   1.419   7.854   4.772  0.3892  0.1081  0.0621
  701MOL0     C94534   1.558   7.834   4.809  0.1468 -1.0326 -0.9029
  701MOL0     C94535   1.645   7.931   4.767  0.0388 -0.1419 -0.3801
  701MOL0     O94536   1.770   7.906   4.816  0.1718 -0.7491 -0.6039
  701MOL0     C94537   1.884   7.961   4.758  0.5611  1.2788 -0.0812
  701MOL0     C94538   2.008   7.912   4.824  0.2317  0.0990 -0.0817
  701MOL0     C94539   2.016   7.759   4.841 -0.3114  0.5914 -0.5456
  701MOL0     C94540   2.058   7.677   4.721 -0.2465 -0.0470 -0.6515
  701MOL0     C94541   2.204   7.696   4.687 -0.6363 -0.0012  0.0339
  701MOL0     C94542   2.221   7.782   4.561  0.8988  0.1647  0.2340
  701MOL0     C94543   2.362   7.807   4.541  0.0943 -0.7126  0.0714
  701MOL0     C94544   2.404   7.938   4.616 -0.2259 -0.3226  0.0360
  701MOL0    Cl94545   2.572   7.971   4.571  0.3784  0.2483 -0.8928
  701MOL0     C94546   1.610   8.039   4.685 -0.0686  0.5428 -0.1337
  701MOL0     C94547   1.474   8.048   4.645  0.1692  0.4041  0.2926
  701MOL0     O94548   1.202   8.125   4.781 -0.0923  0.3461  0.2412
  701MOL0     C94549   1.003   7.970   4.538 -0.1114  0.3706  0.3182
  701MOL0     C94550   0.873   7.938   4.510  0.2948  0.5595 -1.1997
  701MOL0     N94551   0.162   8.003   4.351  0.4715  0.0572  0.8419
  701MOL0     N94552   0.198   7.967   4.232 -0.9812 -0.2753 -0.4489
  701MOL0     C94553   1.008   7.087   3.888  0.4753 -0.0718  0.3153
  701MOL0     C94554   1.096   6.985   3.900 -0.0325 -0.0588  0.4275
  701MOL0     C94555   1.293   6.577   3.944 -0.2060 -0.6055 -0.0390
  701MOL0     C94556   1.376   6.578   4.059  1.5615 -0.9098  0.3341
  701MOL0     C94557   1.460   6.467   4.083 -0.0532 -0.1644 -0.1572
  701MOL0     C94558   1.468   6.357   3.999 -0.4521  0.5050  0.0756
  701MOL0     O94559   1.561   6.265   4.024  0.0864 -0.8158 -1.1405
  701MOL0     C94560   1.575   6.161   3.933  0.2894 -0.3398  0.7223
  701MOL0     C94561   1.719   6.127   3.940  0.2627 -0.8341 -0.3263
  701MOL0     C94562   1.758   6.008   3.862 -0.2362  0.3426  0.4561
  701MOL0     C94563   1.911   6.010   3.838 -0.2733  0.1641  0.0976
  701MOL0     C94564   1.991   6.016   3.959 -0.0491  0.0288  0.2544
  701MOL0     C94565   2.084   6.013   4.041 -0.7849  0.2328  0.3746
  701MOL0     C94566   1.373   6.355   3.887  0.2160  0.6336  0.3252
  701MOL0     C94567   1.291   6.465   3.864  0.0548  0.8671 -0.4417
  701MOL0     H94568   1.027   6.865   4.204  1.5696 -0.9438  0.0521
  701MOL0     H94569   0.856   7.049   4.190 -0.4380  3.1295 -0.9783
  701MOL0     H94570   0.659   7.089   4.054  1.3537  0.8919  1.6775
  701MOL0     H94571   0.685   7.266   4.085 -2.8663 -0.4899  1.0154
  701MOL0     H94572   0.559   7.164   3.832 -0.8259 -1.4235  0.2929
  701MOL0     H94573   0.477   7.236   3.971  0.3970  2.6796 -1.6755
  701MOL0     H94574   0.659   7.358   3.773 -1.4657 -1.8473 -0.6798
  701MOL0     H94575   0.489   7.416   3.811  0.7601  1.6729 -0.7026
  701MOL0     H94576   0.731   7.455   3.988  0.2235 -1.1317 -0.8953
  701MOL0     H94577   0.667   7.569   3.883 -2.5679  0.2230 -1.1624
  701MOL0     H94578   0.505   7.440   4.102  1.7599 -0.3413  1.0824
  701MOL0     H94579   0.601   7.585   4.127 -0.7216  2.5815 -2.6849
  701MOL0     H94580   0.484   7.693   3.941  3.0914 -1.4412  1.1667
  701MOL0     H94581   0.372   7.553   3.933  1.2626 -3.3914  1.5654
  701MOL0     H94582   0.328   7.580   4.188 -0.9746 -0.4879  1.0592
  701MOL0     H94583   0.425   7.730   4.177 -0.2950  1.1019 -0.8216
  701MOL0     H94584   0.153   7.684   4.075 -0.1866  0.2570  0.1913
  701MOL0     H94585   0.252   7.830   4.030  0.0618 -0.2241 -0.4129
  701MOL0     H94586   0.148   7.677   4.380 -0.0748 -0.1309 -0.2683
  701MOL0     H94587   0.077   7.965   4.617  1.6252  1.0630  0.4023
  701MOL0     H94588   0.174   7.815   4.615 -0.7553 -1.2564 -2.8967
  701MOL0     H94589   0.292   8.011   4.725 -1.8975 -0.8564 -0.7255
  701MOL0     H94590   0.252   8.119   4.610  1.1298  0.7456 -0.9047
  701MOL0     H94591   0.402   8.041   4.438 -1.2572 -3.1340 -1.4987
  701MOL0     H94592   0.413   7.878   4.506  1.5540 -0.3289  1.3178
  701MOL0     H94593   0.529   7.986   4.706 -0.0449  2.0968  0.9507
  701MOL0     H94594   0.524   8.137   4.606  0.9092  0.0358 -1.5337
  701MOL0     H94595   0.717   8.142   4.727 -2.1158  0.0750  0.0152
  701MOL0     H94596   1.000   8.295   4.810  1.9704 -2.1590 -0.5672
  701MOL0     H94597   0.853   8.243   4.884  0.1562 -0.0325 -0.0945
  701MOL0     H94598   0.998   8.161   4.928 -2.3506 -0.5239  2.0190
  701MOL0     H94599   1.351   7.778   4.810  1.9755 -1.7531 -0.6858
  701MOL0     H94600   1.582   7.751   4.874  0.6374  1.0769  1.7637
  701MOL0     H94601   1.889   7.940   4.650 -0.6467 -2.0218  0.3881
  701MOL0     H94602   1.868   8.067   4.778 -0.6697  0.7097  2.2109
  701MOL0     H94603   2.098   7.934   4.765  0.0873 -0.3992 -0.4966
  701MOL0     H94604   2.015   7.958   4.923  1.0243 -2.3014  1.0698
  701MOL0     H94605   1.923   7.714   4.878 -0.5018  2.3536  1.2497
  701MOL0     H94606   2.091   7.734   4.916  0.4767 -2.2028 -2.0867
  701MOL0     H94607   2.041   7.575   4.757  0.1652 -0.6584 -2.1214
  701MOL0     H94608   2.006   7.698   4.627  2.1179 -0.4781 -2.1472
  701MOL0     H94609   2.255   7.605   4.655  1.6113  0.9008  0.8456
  701MOL0     H94610   2.265   7.736   4.769 -1.4980 -1.7697  1.5992
  701MOL0     H94611   2.176   7.725   4.479 -0.4856  0.6197  0.6445
  701MOL0     H94612   2.171   7.878   4.578 -0.2994 -0.2723 -0.6612
  701MOL0     H94613   2.376   7.826   4.434  1.1608  1.9156  0.5890
  701MOL0     H94614   2.435   7.730   4.570  1.1762  0.0176 -0.6136
  701MOL0     H94615   2.396   7.937   4.725 -2.4168  0.3121 -0.0608
  701MOL0     H94616   2.347   8.026   4.583  1.0149  0.8299  0.8456
  701MOL0     H94617   1.674   8.114   4.639 -2.3615  1.7412 -1.5959
  701MOL0     H94618   1.455   8.130   4.577  1.4372 -0.8762 -1.7231
  701MOL0     H94619   1.071   7.906   4.483 -3.7365 -3.4222 -0.3272
  701MOL0     H94620   0.845   7.877   4.424  0.7469  0.3380 -1.1903
  701MOL0     H94621   1.014   7.157   3.806 -2.6413 -2.4205 -2.1673
  701MOL0     H94622   1.169   6.955   3.825 -0.0541 -1.5039  0.9493
  701MOL0     H94623   1.380   6.669   4.119  0.2806 -0.0595 -0.8136
  701MOL0     H94624   1.534   6.467   4.162  1.4385  3.9856 -1.2787
  701MOL0     H94625   1.507   6.079   3.954  0.0269 -0.6047 -0.9787
  701MOL0     H94626   1.541   6.189   3.832 -1.1692 -2.3476  0.6023
  701MOL0     H94627   1.740   6.109   4.046 -1.4469  0.9993  0.3901
  701MOL0     H94628   1.768   6.220   3.912  1.9670 -1.3299  0.8354
  701MOL0     H94629   1.699   5.997   3.771  1.1895  2.1468 -0.7498
  701MOL0     H94630   1.741   5.921   3.927 -0.0273 -1.3867 -1.6858
  701MOL0     H94631   1.931   6.093   3.769  1.2021  0.7429  1.1695
  701MOL0     H94632   1.938   5.918   3.786  1.6619  0.3533  0.6782
  701MOL0     H94633   2.175   6.021   4.096  0.2159 -1.6465 -0.9077
  701MOL0     H94634   1.354   6.274   3.817 -0.3476  1.5218 -0.5769
  701MOL0     H94635   1.235   6.451   3.772  0.3279  0.4837 -0.5525
  702MOL0     O94636   4.518   9.240   0.376 -0.2398  1.0297  0.7188
  702MOL0     C94637   4.455   9.208   0.283  0.0112  0.1678  0.2439
  702MOL0     O94638   4.476   9.250   0.157  0.4495 -0.0462  0.2773
  702MOL0     C94639   4.577   9.333   0.123 -0.4166 -0.8010 -0.5841
  702MOL0     C94640   4.554   9.470   0.108  0.4169  0.4102 -0.5619
  702MOL0     C94641   4.662   9.550   0.059  0.0291 -0.0452  0.3136
  702MOL0     C94642   4.799   9.495   0.060 -0.0758  0.7841  0.2748
  702MOL0     O94643   4.910   9.578   0.054  0.2128  0.9285 -0.2816
  702MOL0     C94644   4.887   9.711   0.008 -0.2198 -0.7878  0.2022
  702MOL0     C94645   5.015   9.760  -0.046  0.1879 -0.2001 -0.3496
  702MOL0     C94646   5.061   9.705  -0.182  0.2452 -0.5733 -0.6766
  702MOL0     C94647   5.107   9.562  -0.193 -0.0982  0.4796  0.0619
  702MOL0     C94648   5.169   9.539  -0.341  0.8486  0.7219 -0.0523
  702MOL0     C94649   5.086   9.532  -0.478 -1.0153  0.4831 -0.6172
  702MOL0     C94650   4.939   9.503  -0.463  0.8681  0.0017  0.5331
  702MOL0     C94651   4.928   9.353  -0.462 -0.2575  0.4469 -0.7296
  702MOL0     N94652   4.788   9.326  -0.452 -0.1059  0.1495 -0.0629
  702MOL0     C94653   4.729   9.310  -0.331  0.0342 -0.0729 -0.4050
  702MOL0     C94654   4.609   9.265  -0.359  0.6473 -0.0213  0.0226
  702MOL0     C94655   4.502   9.239  -0.257 -0.1502  0.2614 -0.1793
  702MOL0     C94656   4.415   9.119  -0.295 -0.0107 -0.0716  0.5695
  702MOL0     C94657   4.345   9.043  -0.177  0.2114 -0.4029  0.1222
  702MOL0     C94658   4.232   9.130  -0.099 -0.1031 -0.3848  0.7347
  702MOL0     O94659   4.133   9.143  -0.209  0.4983 -0.1362 -1.1880
  702MOL0     C94660   4.033   9.050  -0.218 -0.2372 -0.4409 -0.1593
  702MOL0     C94661   3.993   8.999  -0.340 -0.6601 -0.2138 -0.4715
  702MOL0     C94662   3.891   8.912  -0.363 -0.3923  0.0701  0.0353
  702MOL0     C94663   3.878   8.858  -0.501 -0.8663 -0.2601 -0.3567
  702MOL0     C94664   3.818   8.869  -0.250  0.3150 -0.5092 -0.7115
  702MOL0     C94665   3.716   8.767  -0.252 -0.3191 -0.0542  0.1711
  702MOL0     O94666   3.701   8.709  -0.132 -0.6513  0.0812  0.1336
  702MOL0     C94667   3.623   8.598  -0.107  0.6563  0.1531 -0.5785
  702MOL0     C94668   3.580   8.586   0.026 -0.5571  0.2413  0.1028
  702MOL0     C94669   3.503   8.474   0.060 -0.3895  0.7007 -0.7169
  702MOL0     C94670   3.470   8.365  -0.027  0.4397 -1.4190  0.2077
  702MOL0     O94671   3.386   8.250  -0.005 -0.5220 -0.3895 -0.6368
  702MOL0     C94672   3.363   8.203   0.137  0.0698  0.0536 -1.1295
  702MOL0     C94673   3.234   8.115   0.134  0.1002 -0.1657  0.6495
  702MOL0     C94674   3.213   8.037   0.263 -0.0207  0.0641 -0.0621
  702MOL0     C94675   3.109   7.923   0.229 -0.4613 -0.0320 -0.8107
  702MOL0     C94676   3.102   7.820   0.344 -0.5305 -0.0986  0.7966
  702MOL0     C94677   3.067   7.866   0.489 -0.2010 -0.1574  0.3767
  702MOL0     C94678   2.930   7.934   0.489 -0.1551 -0.2029 -0.4818
  702MOL0     C94679   2.890   7.973   0.627 -0.9764  0.3697  0.8758
  702MOL0    Cl94680   3.035   8.041   0.725 -0.0436 -0.1529  0.3485
  702MOL0     C94681   3.525   8.386  -0.152 -0.0422  0.3695 -0.6329
  702MOL0     C94682   3.595   8.499  -0.192  0.4713 -0.5049  0.3838
  702MOL0     O94683   3.659   8.739  -0.361 -0.6573  1.0437 -0.1154
  702MOL0     C94684   3.841   8.929  -0.129  0.4375  0.2156 -0.8284
  702MOL0     C94685   3.954   9.002  -0.111  0.3399  0.2900  0.0343
  702MOL0     N94686   4.598   9.253  -0.496 -0.7414  1.1018 -0.2244
  702MOL0     N94687   4.707   9.288  -0.556 -0.5446 -0.8226  0.6578
  702MOL0     C94688   4.819   9.359   0.087  0.3181 -0.6915 -0.8359
  702MOL0     C94689   4.705   9.284   0.098  0.1057  0.2314 -0.5128
  702MOL0     C94690   4.349   9.107   0.300  0.0398 -0.6115  0.2164
  702MOL0     C94691   4.326   9.005   0.207  0.1186 -0.7265 -0.3709
  702MOL0     C94692   4.218   8.918   0.221 -0.3427  0.0781  0.2507
  702MOL0     C94693   4.125   8.919   0.336  0.2270 -0.5756  0.2548
  702MOL0     O94694   4.018   8.845   0.336 -0.5957  0.6693 -0.5192
  702MOL0     C94695   3.898   8.913   0.298  0.6918 -0.0534 -0.6688
  702MOL0     C94696   3.768   8.831   0.327  0.1438  0.2877 -0.0004
  702MOL0     C94697   3.750   8.816   0.478  0.0224 -0.3292  1.2219
  702MOL0     C94698   3.605   8.792   0.511  0.1678 -0.7119 -0.1117
  702MOL0     C94699   3.545   8.660   0.482 -0.0769 -0.2970  0.4606
  702MOL0     C94700   3.494   8.566   0.429 -0.7116  0.8639  0.3238
  702MOL0     C94701   4.153   9.019   0.428  0.1436  0.0748 -0.0737
  702MOL0     C94702   4.269   9.104   0.413 -0.2834 -0.4213  0.2611
  702MOL0     H94703   4.460   9.517   0.137  0.3598 -1.0438  1.8739
  702MOL0     H94704   4.634   9.653   0.040 -3.0343 -0.2821  2.6829
  702MOL0     H94705   4.815   9.708  -0.074  0.2125  0.1700 -0.2145
  702MOL0     H94706   4.854   9.783   0.083  1.5451 -0.2565  0.4991
  702MOL0     H94707   5.006   9.868  -0.066 -3.4144 -0.4145 -0.5248
  702MOL0     H94708   5.105   9.745   0.014 -1.0488 -1.9722  1.1919
  702MOL0     H94709   4.968   9.716  -0.240  0.6544  2.6512 -0.9413
  702MOL0     H94710   5.126   9.775  -0.235 -0.3493 -0.7058 -1.6138
  702MOL0     H94711   5.177   9.538  -0.113  0.0651 -0.1900 -0.2666
  702MOL0     H94712   5.018   9.498  -0.185 -0.1845 -0.1603 -3.7170
  702MOL0     H94713   5.246   9.615  -0.359  1.4009  0.3120  0.5182
  702MOL0     H94714   5.208   9.437  -0.333 -1.1343  0.0876  4.3644
  702MOL0     H94715   5.101   9.628  -0.529  2.8600 -0.3674 -1.4659
  702MOL0     H94716   5.133   9.464  -0.550 -0.6283  1.9640 -1.8376
  702MOL0     H94717   4.889   9.557  -0.381 -1.2144 -1.9199  0.6129
  702MOL0     H94718   4.891   9.528  -0.558 -0.4799 -1.8680  0.6774
  702MOL0     H94719   4.976   9.317  -0.370 -0.1216 -0.4193 -1.1333
  702MOL0     H94720   4.984   9.307  -0.544  2.2795 -1.1972  1.7399
  702MOL0     H94721   4.773   9.313  -0.231 -1.5343  0.4447  0.3030
  702MOL0     H94722   4.551   9.207  -0.164  0.2816  2.4452  0.4054
  702MOL0     H94723   4.439   9.328  -0.251 -1.5340 -0.6336 -0.8954
  702MOL0     H94724   4.482   9.046  -0.342 -0.9570 -0.1832 -0.6523
  702MOL0     H94725   4.336   9.138  -0.368 -0.6433  0.8445  1.4664
  702MOL0     H94726   4.419   9.021  -0.099 -1.2230 -0.5026  1.5019
  702MOL0     H94727   4.311   8.945  -0.212  0.4112 -1.2164  2.0990
  702MOL0     H94728   4.276   9.227  -0.072  0.2097 -0.5908  0.9740
  702MOL0     H94729   4.182   9.080  -0.016 -2.8522  3.0833  1.4025
  702MOL0     H94730   4.037   9.031  -0.434  0.0631  0.3657  0.0461
  702MOL0     H94731   3.840   8.756  -0.506 -0.0784 -0.5602 -0.4671
  702MOL0     H94732   3.809   8.917  -0.562  1.8315  0.4029 -3.0091
  702MOL0     H94733   3.972   8.860  -0.557 -0.4766 -2.0880  0.1670
  702MOL0     H94734   3.595   8.657   0.107  1.4190 -0.9970  0.9031
  702MOL0     H94735   3.455   8.485   0.156  0.6515 -1.8989  0.1867
  702MOL0     H94736   3.448   8.143   0.169 -1.3266 -1.1109  0.5799
  702MOL0     H94737   3.347   8.288   0.203  0.6454 -1.7536  1.4781
  702MOL0     H94738   3.149   8.181   0.114 -0.5679 -0.6525  1.8109
  702MOL0     H94739   3.251   8.043   0.053 -2.2514 -1.7720  1.4754
  702MOL0     H94740   3.169   8.103   0.338 -0.5022  0.0438 -0.3200
  702MOL0     H94741   3.309   8.001   0.301 -0.3011 -1.7379 -0.9485
  702MOL0     H94742   3.010   7.958   0.197 -0.3575 -1.3857 -2.7713
  702MOL0     H94743   3.156   7.880   0.140  2.1709  0.9751  0.0275
  702MOL0     H94744   3.198   7.769   0.329  0.8090  3.0554 -3.4425
  702MOL0     H94745   3.027   7.743   0.328 -2.3731  2.0448 -1.7606
  702MOL0     H94746   3.056   7.774   0.547  1.3993 -0.0978  0.8239
  702MOL0     H94747   3.152   7.919   0.534  0.2650  0.4939 -1.2025
  702MOL0     H94748   2.850   7.871   0.449 -0.5775  0.7876 -1.2360
  702MOL0     H94749   2.937   8.015   0.415 -1.4156  0.4901  0.1298
  702MOL0     H94750   2.847   7.888   0.681 -1.8835  0.2685  0.0229
  702MOL0     H94751   2.805   8.040   0.617 -1.9925 -0.9845  0.1131
  702MOL0     H94752   3.488   8.311  -0.222 -2.0504  0.2040  0.5213
  702MOL0     H94753   3.617   8.503  -0.298 -0.7114  3.1558  0.1266
  702MOL0     H94754   3.777   8.914  -0.042  1.4475  0.2702 -0.0497
  702MOL0     H94755   3.961   9.019  -0.004  1.4348 -1.3642  0.2569
  702MOL0     H94756   4.917   9.314   0.088 -0.1717 -1.9592  2.4464
  702MOL0     H94757   4.718   9.177   0.105 -0.0147  0.2799  1.0027
  702MOL0     H94758   4.389   8.993   0.120 -1.5612  0.9134 -1.8928
  702MOL0     H94759   4.201   8.844   0.143  0.3733  0.8078 -0.6300
  702MOL0     H94760   3.879   9.013   0.338 -3.1303 -1.1844  0.7516
  702MOL0     H94761   3.894   8.914   0.188 -3.4535 -3.5451 -0.8078
  702MOL0     H94762   3.774   8.731   0.284  3.6260  0.3006  0.1688
  702MOL0     H94763   3.684   8.882   0.280  0.4726 -0.1445 -1.0843
  702MOL0     H94764   3.785   8.909   0.524  2.2004  0.4348 -1.7329
  702MOL0     H94765   3.808   8.737   0.526  4.0055  0.6804 -1.4402
  702MOL0     H94766   3.544   8.873   0.470 -0.3184 -0.5567  0.8847
  702MOL0     H94767   3.587   8.797   0.619 -2.8742  2.6185 -0.5936
  702MOL0     H94768   3.452   8.480   0.382 -0.0927  0.1983  0.9582
  702MOL0     H94769   4.080   9.038   0.506 -2.3611 -0.3183 -2.1871
  702MOL0     H94770   4.277   9.181   0.489 -2.1771 -0.6046  0.7044
  703MOL0     O94771  11.100   7.198   2.242  0.6172  0.0831  0.4119
  703MOL0     C94772  10.992   7.255   2.271  0.3846  0.1972  0.1174
  703MOL0     O94773  10.974   7.384   2.301 -0.5981  0.6380 -0.7303
  703MOL0     C94774  11.081   7.465   2.296 -0.5178 -0.6978 -0.8222
  703MOL0     C94775  11.118   7.531   2.176  0.7398  0.5691  0.0480
  703MOL0     C94776  11.240   7.602   2.173 -0.1490  0.1352 -0.1230
  703MOL0     C94777  11.320   7.606   2.288 -1.0285 -0.5464  0.3079
  703MOL0     O94778  11.439   7.682   2.295  0.6439 -0.1663 -0.4012
  703MOL0     C94779  11.431   7.804   2.233 -0.2659 -0.3306  0.2102
  703MOL0     C94780  11.561   7.883   2.241 -0.0241  0.0374 -0.1674
  703MOL0     C94781  11.581   7.967   2.373 -0.6131  0.6214 -0.4575
  703MOL0     C94782  11.735   8.003   2.394 -0.0855  0.4101  0.3647
  703MOL0     C94783  11.754   8.126   2.477 -0.1831  0.5382  0.0012
  703MOL0     C94784  11.735   8.267   2.416  0.0490  0.1303 -0.3792
  703MOL0     C94785  11.764   8.382   2.511 -0.3324  0.0329 -0.4208
  703MOL0     C94786  11.713   8.513   2.456  0.3989  0.2233  0.4147
  703MOL0     N94787  11.781   8.619   2.532  0.3776 -0.1362 -0.9401
  703MOL0     C94788  11.731   8.677   2.643  0.6320  0.1533  1.3092
  703MOL0     C94789  11.791   8.797   2.649  0.7849 -0.7285 -1.0096
  703MOL0     C94790  11.782   8.899   2.767 -1.0424 -0.6085 -0.5045
  703MOL0     C94791  11.722   8.838   2.891  0.1046  0.3008  0.0887
  703MOL0     C94792  11.727   8.943   3.003 -0.3097  0.7839  0.2547
  703MOL0     C94793  11.699   8.865   3.135 -0.4281  0.3079 -0.6506
  703MOL0     O94794  11.702   8.951   3.242  0.3236  0.6337 -1.0616
  703MOL0     C94795  11.658   8.909   3.364 -0.8595  0.9370  0.2062
  703MOL0     C94796  11.613   9.009   3.451 -0.1354  0.2991 -0.2464
  703MOL0     C94797  11.575   8.980   3.584 -0.4214  0.0929  1.2205
  703MOL0     C94798  11.530   9.087   3.678 -0.3971 -0.3683  0.2154
  703MOL0     C94799  11.563   8.843   3.626 -0.4750 -0.4479 -0.4159
  703MOL0     C94800  11.512   8.793   3.760  0.6660 -0.1324  1.4520
  703MOL0     O94801  11.563   8.678   3.806 -0.3547 -0.4654 -0.8584
  703MOL0     C94802  11.526   8.626   3.928 -0.0565 -0.0667 -1.2319
  703MOL0     C94803  11.525   8.713   4.050 -0.1876  0.5138  0.2751
  703MOL0     C94804  11.501   8.660   4.174 -1.1094 -0.0333 -0.5711
  703MOL0     C94805  11.478   8.523   4.184 -0.9529 -0.4600 -0.4023
  703MOL0     O94806  11.441   8.481   4.311 -0.2215  0.3129 -0.5227
  703MOL0     C94807  11.427   8.341   4.336 -0.0655  0.6254  0.2670
  703MOL0     C94808  11.387   8.319   4.482 -0.1774  0.5412 -0.1718
  703MOL0     C94809  11.247   8.353   4.484 -0.3366 -0.0800 -1.1156
  703MOL0     C94810  11.176   8.322   4.621 -0.2368  0.0634  0.0244
  703MOL0     C94811  11.121   8.177   4.645 -0.8944  0.2037  0.0722
  703MOL0     C94812  11.212   8.057   4.632  0.4717 -0.1092  0.6199
  703MOL0     C94813  11.208   8.003   4.492  0.1229  1.5776 -0.1149
  703MOL0     C94814  11.236   7.850   4.486  0.3346  1.1894 -0.2684
  703MOL0    Cl94815  11.084   7.752   4.506  0.8707  0.0875  0.0313
  703MOL0     C94816  11.488   8.437   4.068  1.2390  0.2649 -0.1853
  703MOL0     C94817  11.517   8.495   3.947  0.5665  0.6908  0.5900
  703MOL0     O94818  11.420   8.855   3.805 -0.3659 -0.4094 -0.6807
  703MOL0     C94819  11.594   8.744   3.534 -0.2671  0.0967  0.2635
  703MOL0     C94820  11.645   8.772   3.405  0.5484 -0.2530  0.4943
  703MOL0     N94821  11.881   8.812   2.551 -0.3270  0.1680 -0.6970
  703MOL0     N94822  11.880   8.703   2.479  0.3255  0.0271  0.4317
  703MOL0     C94823  11.275   7.541   2.403 -0.3388 -0.4118  0.2508
  703MOL0     C94824  11.161   7.473   2.407 -0.4031  0.6196 -0.3807
  703MOL0     C94825  10.870   7.172   2.288  0.6578  0.2123  0.2424
  703MOL0     C94826  10.886   7.034   2.267 -0.0142 -0.7359  0.8261
  703MOL0     C94827  10.771   6.953   2.283 -0.5289  0.1814  0.2963
  703MOL0     C94828  10.650   7.000   2.328  0.9179 -0.3547  0.6577
  703MOL0     O94829  10.542   6.914   2.352  0.3450 -0.2116 -0.2079
  703MOL0     C94830  10.534   6.770   2.319  0.6007  0.1260 -0.4274
  703MOL0     C94831  10.395   6.736   2.259 -0.0620 -0.3840 -0.2882
  703MOL0     C94832  10.285   6.742   2.362 -0.0480  0.6551 -0.4081
  703MOL0     C94833  10.148   6.698   2.297 -0.3152 -0.1584 -0.2659
  703MOL0     C94834  10.142   6.555   2.273  0.3378 -0.6616 -0.5342
  703MOL0     C94835  10.129   6.438   2.246 -0.3579  0.2517  0.4252
  703MOL0     C94836  10.632   7.137   2.343 -0.1629 -0.6374  0.1376
  703MOL0     C94837  10.743   7.221   2.328 -0.6593  0.8765  0.1961
  703MOL0     H94838  11.069   7.531   2.079 -0.1707  1.5200  0.4936
  703MOL0     H94839  11.270   7.647   2.079  0.5082 -0.5780 -0.2621
  703MOL0     H94840  11.407   7.788   2.128  0.6642  0.3183 -0.1115
  703MOL0     H94841  11.350   7.864   2.275 -1.6768 -0.7174 -1.7993
  703MOL0     H94842  11.634   7.807   2.210 -0.3436  0.2360 -1.4636
  703MOL0     H94843  11.560   7.968   2.173  0.2540  2.5294  2.7183
  703MOL0     H94844  11.512   8.052   2.373 -0.4580  0.8516  2.2294
  703MOL0     H94845  11.556   7.910   2.464  1.2357  0.6239  0.0976
  703MOL0     H94846  11.789   7.921   2.441 -0.7720 -1.0027 -1.2326
  703MOL0     H94847  11.782   8.023   2.297 -1.7844  1.5259 -0.2734
  703MOL0     H94848  11.704   8.124   2.575 -0.9785 -0.8592 -0.3937
  703MOL0     H94849  11.859   8.110   2.502  0.1883 -0.5078 -2.0703
  703MOL0     H94850  11.797   8.278   2.327  1.3646 -1.2762  0.3203
  703MOL0     H94851  11.632   8.282   2.384 -0.0971 -0.2829 -0.1062
  703MOL0     H94852  11.733   8.371   2.615  1.4230  1.9743  0.3851
  703MOL0     H94853  11.872   8.400   2.508 -0.0927 -0.9791  1.1647
  703MOL0     H94854  11.605   8.527   2.465  0.6178  1.7695  1.0779
  703MOL0     H94855  11.742   8.520   2.350  0.6088 -0.7028  0.4059
  703MOL0     H94856  11.646   8.642   2.701 -2.7851  1.8051 -2.1655
  703MOL0     H94857  11.886   8.930   2.783 -1.1546  0.1664 -1.2060
  703MOL0     H94858  11.730   8.991   2.741  4.5555  2.5711 -2.2070
  703MOL0     H94859  11.784   8.752   2.919  1.0068  0.9677  0.1933
  703MOL0     H94860  11.621   8.802   2.871 -0.6026  3.0986 -2.0298
  703MOL0     H94861  11.661   9.031   2.997  1.0716  1.9757  1.6782
  703MOL0     H94862  11.826   8.988   3.014 -1.0294  2.0196  2.2634
  703MOL0     H94863  11.770   8.784   3.152  0.6805  1.2802 -0.5106
  703MOL0     H94864  11.596   8.829   3.123  0.1288 -0.5079 -3.9218
  703MOL0     H94865  11.632   9.113   3.425  0.3312  0.1494 -0.5301
  703MOL0     H94866  11.560   9.187   3.647 -2.2548 -0.0621 -0.7498
  703MOL0     H94867  11.421   9.092   3.676 -0.5687 -1.5145 -4.2431
  703MOL0     H94868  11.568   9.058   3.777  1.3431 -1.6259 -0.7661
  703MOL0     H94869  11.544   8.818   4.036 -2.6229  0.9705 -0.0567
  703MOL0     H94870  11.503   8.726   4.260  1.2251  0.6369 -1.0914
  703MOL0     H94871  11.351   8.297   4.271 -0.5548  2.6740 -0.6233
  703MOL0     H94872  11.513   8.275   4.322 -0.4456  0.1120  0.3339
  703MOL0     H94873  11.400   8.214   4.507  1.6274  0.4915 -1.1864
  703MOL0     H94874  11.450   8.375   4.551  1.5286  0.4291 -1.5750
  703MOL0     H94875  11.192   8.308   4.401  0.6379 -0.9967 -1.2831
  703MOL0     H94876  11.244   8.462   4.475  0.0005 -0.0196 -0.5651
  703MOL0     H94877  11.248   8.351   4.698  2.1299 -1.9150 -1.3034
  703MOL0     H94878  11.090   8.390   4.626  0.3407  0.8929 -0.8833
  703MOL0     H94879  11.024   8.155   4.599 -0.9499  0.3420  0.1217
  703MOL0     H94880  11.096   8.181   4.751  0.5909  0.1806  0.4363
  703MOL0     H94881  11.314   8.083   4.660  1.9106 -2.4665 -1.9654
  703MOL0     H94882  11.185   7.978   4.703  0.0419 -0.2424  0.3144
  703MOL0     H94883  11.287   8.056   4.439  0.1781  2.5437  0.9014
  703MOL0     H94884  11.114   8.019   4.438  0.8596 -0.8781 -2.3386
  703MOL0     H94885  11.310   7.826   4.563  2.1446  0.5654 -2.1084
  703MOL0     H94886  11.287   7.818   4.395 -0.4997 -1.7582  0.1636
  703MOL0     H94887  11.467   8.331   4.073 -2.0983  0.7947 -0.6213
  703MOL0     H94888  11.548   8.422   3.873 -2.2914 -1.1164  1.0078
  703MOL0     H94889  11.591   8.638   3.557  1.6828  0.2907  1.6428
  703MOL0     H94890  11.677   8.696   3.335  1.4934  0.3927  0.2007
  703MOL0     H94891  11.330   7.557   2.496 -1.5997  0.5208  0.8656
  703MOL0     H94892  11.137   7.441   2.507  1.8341 -3.0591 -0.8432
  703MOL0     H94893  10.982   6.989   2.243  1.5518  1.9305  1.6305
  703MOL0     H94894  10.786   6.848   2.262 -2.4302  0.3874 -2.7203
  703MOL0     H94895  10.608   6.744   2.242 -0.0917  4.1744 -2.7708
  703MOL0     H94896  10.551   6.710   2.409  0.9534  2.2790  0.9959
  703MOL0     H94897  10.400   6.632   2.225  2.0821 -0.9293  1.4728
  703MOL0     H94898  10.366   6.801   2.176 -0.0588  0.6769  0.5106
  703MOL0     H94899  10.280   6.846   2.396  1.6230  1.2196 -1.7342
  703MOL0     H94900  10.305   6.673   2.444 -2.4317 -0.1089 -0.3904
  703MOL0     H94901  10.136   6.764   2.211  0.7036 -0.1514 -0.4169
  703MOL0     H94902  10.068   6.725   2.367 -1.4954  1.3820 -2.1040
  703MOL0     H94903  10.113   6.336   2.217  2.3092  0.4152 -2.0364
  703MOL0     H94904  10.540   7.176   2.384 -0.3074 -1.0264  0.1827
  703MOL0     H94905  10.718   7.323   2.353 -4.0969  0.3400 -0.5468
  704MOL0     O94906   7.830   0.909   2.377  0.5647 -0.5644  1.0023
  704MOL0     C94907   7.872   0.907   2.488 -0.6514 -0.0481  0.0125
  704MOL0     O94908   7.955   0.799   2.532  0.5217 -0.8530 -0.2165
  704MOL0     C94909   8.012   0.711   2.436 -0.5910  1.1303  0.5394
  704MOL0     C94910   7.933   0.633   2.351 -0.2682  0.1354  0.0642
  704MOL0     C94911   7.994   0.544   2.261 -0.0665 -0.3543 -0.9162
  704MOL0     C94912   8.128   0.519   2.269 -0.2119 -0.3364  0.5941
  704MOL0     O94913   8.184   0.437   2.170 -0.1455 -0.0012 -0.2658
  704MOL0     C94914   8.244   0.320   2.224 -0.2740 -0.1826 -0.3320
  704MOL0     C94915   8.164   0.215   2.157 -0.0675 -1.1343  0.6421
  704MOL0     C94916   8.172   0.081   2.219  0.3013 -0.2664  0.1812
  704MOL0     C94917   8.308   0.011   2.231 -0.7168 -0.8788 -1.0220
  704MOL0     C94918   8.309  -0.133   2.291 -0.0355  0.0924 -0.1501
  704MOL0     C94919   8.450  -0.192   2.298 -0.1514 -0.0671  0.0859
  704MOL0     C94920   8.475  -0.286   2.414  0.5514  0.2295 -0.0638
  704MOL0     C94921   8.617  -0.337   2.429  1.5018  0.1994  0.3411
  704MOL0     N94922   8.704  -0.227   2.470  0.1781  0.0347  0.0481
  704MOL0     C94923   8.689  -0.158   2.583  0.4920 -0.3676  0.0947
  704MOL0     C94924   8.784  -0.070   2.599  0.5921 -0.7467  0.4379
  704MOL0     C94925   8.814   0.030   2.716  0.2723  0.2921  0.0743
  704MOL0     C94926   8.934  -0.028   2.802  0.3248 -0.9536  0.4731
  704MOL0     C94927   9.016   0.081   2.871 -0.0538  0.2679  0.6493
  704MOL0     C94928   9.154   0.037   2.927  0.0829  0.5704  0.0721
  704MOL0     O94929   9.230   0.155   2.961  0.3415  0.1946 -0.3011
  704MOL0     C94930   9.356   0.126   3.011  0.4284 -0.0491 -1.1306
  704MOL0     C94931   9.422   0.009   3.039 -0.0336 -0.4105 -0.5610
  704MOL0     C94932   9.555   0.012   3.090  0.4564 -0.3409  0.0944
  704MOL0     C94933   9.625  -0.123   3.100 -0.6587  0.5986  0.1059
  704MOL0     C94934   9.618   0.139   3.124 -0.2742  0.2496 -0.2288
  704MOL0     C94935   9.755   0.147   3.188  0.2381  0.6275  0.1651
  704MOL0     O94936   9.805   0.271   3.196  0.3402 -0.8856 -0.2566
  704MOL0     C94937   9.920   0.291   3.256 -0.8893 -0.8513 -0.5658
  704MOL0     C94938  10.042   0.210   3.233 -0.1004  0.6381 -0.9715
  704MOL0     C94939  10.165   0.245   3.291 -1.0214 -0.7157 -0.3589
  704MOL0     C94940  10.172   0.357   3.372 -1.4474  0.4108  0.3653
  704MOL0     O94941  10.288   0.388   3.441  0.0124  0.3405 -0.8692
  704MOL0     C94942  10.410   0.379   3.363 -0.2923 -0.2610  0.4085
  704MOL0     C94943  10.501   0.262   3.413 -0.8320  0.4525  0.7599
  704MOL0     C94944  10.612   0.236   3.318 -0.6436  0.6982  0.1461
  704MOL0     C94945  10.642   0.087   3.297 -0.7021  1.1955  0.8184
  704MOL0     C94946  10.788   0.070   3.265  0.3273 -0.2917 -0.1943
  704MOL0     C94947  10.824  -0.081   3.231 -0.0454 -0.1805  0.0649
  704MOL0     C94948  10.976  -0.114   3.231  1.3345 -0.0040  0.3247
  704MOL0     C94949  11.055  -0.047   3.118 -0.7175 -0.0765  0.1200
  704MOL0    Cl94950  11.105   0.117   3.178 -0.2863 -0.5542 -0.0684
  704MOL0     C94951  10.065   0.423   3.413 -0.1820 -0.1603  0.2373
  704MOL0     C94952   9.932   0.392   3.356  1.7772  1.7455 -0.8114
  704MOL0     O94953   9.781   0.048   3.254 -0.3131 -0.2593 -0.3994
  704MOL0     C94954   9.546   0.252   3.081 -0.9928  0.1135 -0.1030
  704MOL0     C94955   9.423   0.242   3.033  0.2440  0.2731  0.1136
  704MOL0     N94956   8.854  -0.083   2.478 -0.1685 -0.4314 -0.0399
  704MOL0     N94957   8.814  -0.181   2.405  0.2947  0.4891 -0.0335
  704MOL0     C94958   8.207   0.597   2.354  0.2229  0.4073  0.5463
  704MOL0     C94959   8.146   0.693   2.432 -0.2409  0.2813  0.8040
  704MOL0     C94960   7.828   0.996   2.590 -0.7635 -1.4647  0.9562
  704MOL0     C94961   7.718   1.089   2.565 -0.3568  0.3515  0.0232
  704MOL0     C94962   7.679   1.173   2.662  0.3108  0.1727 -0.0775
  704MOL0     C94963   7.731   1.166   2.789  0.7474 -0.0041  0.6009
  704MOL0     O94964   7.675   1.257   2.880 -0.6737  0.0638  0.3200
  704MOL0     C94965   7.640   1.196   3.007 -0.7826  1.0048  0.0560
  704MOL0     C94966   7.554   1.301   3.075  0.0208  0.2528  0.6913
  704MOL0     C94967   7.420   1.325   3.002  0.0236 -0.9982  0.5351
  704MOL0     C94968   7.357   1.461   3.038  0.2038 -0.3939  0.0555
  704MOL0     C94969   7.349   1.478   3.184  0.3333 -1.0371  0.3594
  704MOL0     C94970   7.331   1.491   3.302  0.0343  1.1577  0.0797
  704MOL0     C94971   7.827   1.078   2.824  0.8337  0.5662  0.0651
  704MOL0     C94972   7.881   0.993   2.718  0.3210  0.5523  0.3664
  704MOL0     H94973   7.825   0.638   2.358 -0.2410 -0.6468  1.3763
  704MOL0     H94974   7.943   0.492   2.180  1.0805 -2.7940 -0.1590
  704MOL0     H94975   8.352   0.310   2.209 -0.0120  2.6309 -0.8406
  704MOL0     H94976   8.225   0.317   2.332  0.6124 -1.6448 -0.1838
  704MOL0     H94977   8.063   0.253   2.141  0.2706  0.2317  1.5842
  704MOL0     H94978   8.208   0.212   2.056 -2.2099  0.2717 -0.4077
  704MOL0     H94979   8.115   0.093   2.312  0.8311  2.4029  0.2392
  704MOL0     H94980   8.117   0.008   2.159  0.5268 -2.4673  2.4460
  704MOL0     H94981   8.357   0.008   2.134  1.5876  1.3410 -0.0559
  704MOL0     H94982   8.373   0.073   2.293  0.4488  2.4402 -5.0819
  704MOL0     H94983   8.280  -0.136   2.396 -1.9761 -3.3460 -0.6477
  704MOL0     H94984   8.243  -0.205   2.242 -0.5132  1.2261 -1.2113
  704MOL0     H94985   8.478  -0.248   2.208 -3.6022 -0.5624 -0.8195
  704MOL0     H94986   8.524  -0.112   2.310 -1.7221  1.5709 -0.7661
  704MOL0     H94987   8.446  -0.235   2.506  0.4292 -0.8010  0.4858
  704MOL0     H94988   8.407  -0.372   2.416  2.4589 -1.3611 -0.1544
  704MOL0     H94989   8.656  -0.384   2.338 -0.4671 -0.9967  0.0518
  704MOL0     H94990   8.622  -0.403   2.515  1.1331  0.7629  0.7979
  704MOL0     H94991   8.606  -0.173   2.651  0.8405 -0.2745  0.5421
  704MOL0     H94992   8.842   0.120   2.661 -0.5022  0.6079  0.1804
  704MOL0     H94993   8.729   0.062   2.778  1.1785  4.3574 -0.5273
  704MOL0     H94994   9.004  -0.076   2.733 -1.4180 -1.7677 -0.8009
  704MOL0     H94995   8.893  -0.102   2.871 -0.2775 -1.7369 -0.6864
  704MOL0     H94996   8.949   0.128   2.944  0.4271 -1.2258  2.1029
  704MOL0     H94997   9.035   0.159   2.796 -1.2982 -0.6603 -0.7092
  704MOL0     H94998   9.207  -0.037   2.866 -1.8606 -1.1759  0.3770
  704MOL0     H94999   9.127  -0.015   3.020 -0.3540  2.1357  0.8577
  704MOL0     H95000   9.362  -0.079   3.018 -0.7280  0.3887 -2.1410
  704MOL0     H95001   9.718  -0.123   3.042 -0.3806  2.3480  0.5007
  704MOL0     H95002   9.643  -0.152   3.203  0.9096  2.8270  0.5244
  704MOL0     H95003   9.569  -0.204   3.052 -0.3849  0.8023 -0.5778
  704MOL0     H95004  10.055   0.120   3.175  2.2600 -1.3614  2.3150
  704MOL0     H95005  10.245   0.173   3.272 -2.5886 -2.1972 -1.6718
  704MOL0     H95006  10.380   0.355   3.261 -1.5575 -0.4996  0.8181
  704MOL0     H95007  10.470   0.470   3.361  2.0414 -1.7226 -0.9215
  704MOL0     H95008  10.539   0.284   3.513  0.9716 -0.0968  0.2350
  704MOL0     H95009  10.440   0.171   3.421 -0.5317  0.1829  0.0935
  704MOL0     H95010  10.702   0.291   3.345  1.0102 -1.4256 -0.7390
  704MOL0     H95011  10.578   0.269   3.220  0.3341  1.9500  0.2158
  704MOL0     H95012  10.615   0.030   3.386  1.8936 -1.8502 -0.1320
  704MOL0     H95013  10.589   0.030   3.220 -3.2366 -0.5335  3.6041
  704MOL0     H95014  10.846   0.099   3.354  2.8158 -2.1077 -1.0991
  704MOL0     H95015  10.815   0.128   3.177 -2.1077 -4.0802 -3.7771
  704MOL0     H95016  10.783  -0.151   3.304 -2.1627  0.6121 -0.2721
  704MOL0     H95017  10.783  -0.109   3.133 -0.8083  0.0179  0.3213
  704MOL0     H95018  10.985  -0.223   3.229  3.4951  0.1233  1.1312
  704MOL0     H95019  11.020  -0.089   3.328 -0.6704 -0.1368  1.3134
  704MOL0     H95020  11.001  -0.036   3.024  0.5076  6.5981 -0.2522
  704MOL0     H95021  11.150  -0.098   3.098  0.7147  1.4649  2.4970
  704MOL0     H95022  10.079   0.509   3.479 -1.6557 -0.0292  0.4213
  704MOL0     H95023   9.846   0.457   3.366  1.2616  1.2036 -1.6123
  704MOL0     H95024   9.585   0.350   3.104 -1.2565  0.3966 -0.8359
  704MOL0     H95025   9.361   0.330   3.018 -1.5023 -0.7724  0.8874
  704MOL0     H95026   8.313   0.575   2.361  0.0396 -1.5853 -1.6149
  704MOL0     H95027   8.211   0.761   2.486  1.5033  0.8038 -1.7424
  704MOL0     H95028   7.673   1.097   2.466 -0.3148  3.0942  0.1404
  704MOL0     H95029   7.599   1.246   2.649  1.2179  1.4978  1.4139
  704MOL0     H95030   7.588   1.102   2.991  3.0493 -1.0574 -1.7989
  704MOL0     H95031   7.731   1.175   3.064  2.3171  1.5136 -4.2192
  704MOL0     H95032   7.610   1.395   3.086  1.1569  0.1524 -2.8623
  704MOL0     H95033   7.521   1.261   3.172 -1.0889  2.4075  1.2654
  704MOL0     H95034   7.346   1.248   3.027 -1.4635  0.3163  0.3452
  704MOL0     H95035   7.441   1.309   2.896  0.8394 -0.0576  0.5416
  704MOL0     H95036   7.261   1.469   2.986  0.0226 -0.0703  0.4359
  704MOL0     H95037   7.416   1.544   2.998 -2.0528  0.6431 -1.3213
  704MOL0     H95038   7.323   1.505   3.408  0.3251 -0.1692  0.2986
  704MOL0     H95039   7.860   1.064   2.927 -0.6817  0.9602  0.6333
  704MOL0     H95040   7.953   0.918   2.749  0.4575 -0.5143 -2.2762
  705MOL0     O95041   6.613   0.745   1.618  0.9171 -0.0944 -0.6407
  705MOL0     C95042   6.550   0.855   1.630  0.4461  0.7892  0.7259
  705MOL0     O95043   6.455   0.907   1.538  0.1135 -0.0640 -0.7119
  705MOL0     C95044   6.401   0.838   1.431  0.8076 -1.0953 -0.3714
  705MOL0     C95045   6.472   0.736   1.353  0.0796  0.5324  0.4030
  705MOL0     C95046   6.404   0.689   1.246  0.0327 -0.0361  0.5485
  705MOL0     C95047   6.282   0.729   1.207 -0.0677 -0.6716  0.4959
  705MOL0     O95048   6.222   0.695   1.084  0.0253 -0.4783 -0.3370
  705MOL0     C95049   6.295   0.687   0.963 -0.5228  0.0810 -0.6996
  705MOL0     C95050   6.206   0.700   0.838  1.1360 -0.0784  0.1308
  705MOL0     C95051   6.140   0.831   0.832 -0.1567 -0.0178 -0.1322
  705MOL0     C95052   6.033   0.829   0.724  0.2253  0.0377  0.2696
  705MOL0     C95053   5.944   0.956   0.721 -0.4743  0.0469 -0.5884
  705MOL0     C95054   5.835   0.945   0.837 -0.3428 -0.2729 -0.6066
  705MOL0     C95055   5.806   1.074   0.904 -0.8341 -0.2588 -0.3614
  705MOL0     C95056   5.757   1.180   0.808 -0.0541 -0.5708 -0.1142
  705MOL0     N95057   5.649   1.144   0.713 -0.3433  0.5950 -0.0158
  705MOL0     C95058   5.523   1.122   0.759  0.1644  0.1445 -0.3531
  705MOL0     C95059   5.452   1.056   0.665 -0.5833  0.7363 -0.6559
  705MOL0     C95060   5.316   1.005   0.678  0.0246 -0.8176  0.4699
  705MOL0     C95061   5.230   1.082   0.782 -0.8011 -1.3616 -0.2190
  705MOL0     C95062   5.091   1.024   0.781 -0.3324 -0.2057  0.1782
  705MOL0     C95063   4.999   1.087   0.887 -0.1010  1.0077 -0.7524
  705MOL0     O95064   4.923   1.207   0.840 -0.4280  0.6453 -0.9007
  705MOL0     C95065   4.857   1.283   0.932 -0.3263 -0.4502  1.1885
  705MOL0     C95066   4.836   1.415   0.898 -0.6749  0.2788 -0.1309
  705MOL0     C95067   4.754   1.499   0.981 -0.1774 -0.0124  0.7772
  705MOL0     C95068   4.737   1.640   0.922  0.5704 -0.0066 -0.1378
  705MOL0     C95069   4.692   1.445   1.104  0.2360  0.2395  0.1705
  705MOL0     C95070   4.595   1.519   1.173  0.4723 -0.1963  0.1461
  705MOL0     O95071   4.560   1.457   1.291  0.0753  0.1217 -0.4940
  705MOL0     C95072   4.461   1.515   1.367  0.8430  0.0089 -0.0323
  705MOL0     C95073   4.464   1.638   1.418 -0.2855 -0.6658  0.4277
  705MOL0     C95074   4.360   1.701   1.492  0.3530 -2.3463 -0.1081
  705MOL0     C95075   4.237   1.637   1.501  0.1090 -0.4677 -0.8575
  705MOL0     O95076   4.133   1.693   1.561 -0.0008 -0.5501  0.8749
  705MOL0     C95077   4.064   1.622   1.664 -0.7836 -0.9665 -1.1398
  705MOL0     C95078   4.138   1.588   1.781 -0.6854  0.4287  0.3656
  705MOL0     C95079   4.208   1.716   1.842 -0.2501  0.7967  0.1828
  705MOL0     C95080   4.101   1.804   1.914 -0.9103 -0.4046  0.2833
  705MOL0     C95081   4.161   1.921   1.992 -0.3815  0.0390 -0.3265
  705MOL0     C95082   4.211   2.045   1.904 -0.4975  0.7667  0.0650
  705MOL0     C95083   4.296   2.149   1.971  0.5567  0.1347 -0.4278
  705MOL0     C95084   4.430   2.094   2.015  0.2931  0.2365  0.6178
  705MOL0    Cl95085   4.528   2.043   1.884  0.0978  0.1883  0.2704
  705MOL0     C95086   4.227   1.503   1.445  0.7193  0.2828 -0.0339
  705MOL0     C95087   4.340   1.443   1.384 -1.1283 -0.7368  0.3454
  705MOL0     O95088   4.543   1.621   1.127 -0.3676  1.1175  0.9948
  705MOL0     C95089   4.708   1.304   1.130 -0.1270  0.1518 -0.2634
  705MOL0     C95090   4.787   1.231   1.040 -0.0179 -0.0832 -0.1684
  705MOL0     N95091   5.541   1.030   0.568 -0.0865 -0.2904  0.5829
  705MOL0     N95092   5.659   1.068   0.597  0.9438  0.5121  0.4909
  705MOL0     C95093   6.213   0.825   1.275  0.7148  0.3276 -0.7847
  705MOL0     C95094   6.274   0.882   1.393  0.3378  0.9683  0.4921
  705MOL0     C95095   6.595   0.929   1.754  0.1700  0.3928  0.3775
  705MOL0     C95096   6.544   1.059   1.765 -0.2272 -0.1318 -0.6672
  705MOL0     C95097   6.579   1.140   1.867 -1.4177 -0.4521 -0.8522
  705MOL0     C95098   6.683   1.102   1.958 -0.3403  0.1542 -0.4509
  705MOL0     O95099   6.738   1.173   2.060  0.4797 -0.5492  0.1491
  705MOL0     C95100   6.790   1.303   2.011  0.5279  0.1490 -0.1194
  705MOL0     C95101   6.874   1.359   2.131 -0.1479  0.3571 -0.4622
  705MOL0     C95102   6.945   1.479   2.085 -0.4386 -0.0840  0.1845
  705MOL0     C95103   7.025   1.551   2.197  0.5288  0.3466 -1.0843
  705MOL0     C95104   7.158   1.497   2.227  0.4906  0.1792  0.1619
  705MOL0     C95105   7.263   1.447   2.258 -0.2678 -0.0454  0.5620
  705MOL0     C95106   6.738   0.972   1.940 -0.4529 -0.2136 -0.4603
  705MOL0     C95107   6.697   0.887   1.839  0.3632 -0.7413  0.4226
  705MOL0     H95108   6.575   0.704   1.368  0.7197  1.2185 -2.0931
  705MOL0     H95109   6.454   0.609   1.192  2.3359 -2.3273  5.5044
  705MOL0     H95110   6.371   0.766   0.966  1.0030 -1.3612  1.3511
  705MOL0     H95111   6.338   0.588   0.946 -1.5111  0.0801 -3.8438
  705MOL0     H95112   6.272   0.701   0.750  0.1045 -0.0545 -0.6613
  705MOL0     H95113   6.131   0.621   0.826 -0.3384  1.4575 -1.3072
  705MOL0     H95114   6.099   0.845   0.932  2.2536 -0.1723  0.9432
  705MOL0     H95115   6.221   0.901   0.806 -1.7032  1.7069 -0.5611
  705MOL0     H95116   6.083   0.822   0.626  1.6426 -0.9922  1.0146
  705MOL0     H95117   5.979   0.734   0.718  3.2314 -1.7960 -0.4389
  705MOL0     H95118   6.004   1.045   0.744  0.3019 -0.7818  0.7658
  705MOL0     H95119   5.911   0.987   0.622 -0.2525  1.4613 -0.2491
  705MOL0     H95120   5.743   0.913   0.787  1.1416 -0.0552 -3.6564
  705MOL0     H95121   5.877   0.878   0.912  0.7959 -0.6378 -1.5461
  705MOL0     H95122   5.730   1.068   0.982 -1.2838  2.4560 -0.4611
  705MOL0     H95123   5.894   1.117   0.953  1.0468 -0.8895 -2.9748
  705MOL0     H95124   5.836   1.206   0.737 -0.5362  2.0468  0.2182
  705MOL0     H95125   5.731   1.275   0.855  2.8377 -0.4353  1.4283
  705MOL0     H95126   5.496   1.153   0.860  2.1892 -1.6743  0.8530
  705MOL0     H95127   5.267   1.024   0.582  0.8816 -1.8421 -0.1913
  705MOL0     H95128   5.325   0.897   0.691 -1.2634 -1.1346 -1.0274
  705MOL0     H95129   5.224   1.188   0.756 -2.6783 -1.1591  0.8898
  705MOL0     H95130   5.288   1.084   0.875  2.4869  1.0972 -2.0863
  705MOL0     H95131   5.106   0.916   0.783 -0.2835 -0.2673 -1.5591
  705MOL0     H95132   5.058   1.051   0.680  2.9563  0.8886 -0.7384
  705MOL0     H95133   5.047   1.107   0.983 -2.8198  1.9552  0.5285
  705MOL0     H95134   4.921   1.013   0.906  2.0931 -0.8510  1.6535
  705MOL0     H95135   4.856   1.446   0.796  2.4105 -2.5694 -0.5714
  705MOL0     H95136   4.636   1.662   0.887  0.8569  1.3523 -0.1444
  705MOL0     H95137   4.769   1.711   0.999 -1.2360  2.2116 -1.3106
  705MOL0     H95138   4.798   1.668   0.835 -2.5832  0.7069 -2.2779
  705MOL0     H95139   4.557   1.694   1.411 -1.6099  1.9426  2.2956
  705MOL0     H95140   4.369   1.803   1.526 -0.6957 -2.0474 -0.6808
  705MOL0     H95141   3.983   1.683   1.705  1.7530  0.4444  2.2034
  705MOL0     H95142   4.017   1.529   1.629 -3.2833 -1.0528  1.9731
  705MOL0     H95143   4.087   1.546   1.869  1.8862 -1.5613  1.0547
  705MOL0     H95144   4.217   1.522   1.744 -0.5537  0.8944 -0.1812
  705MOL0     H95145   4.265   1.770   1.765 -1.4423  0.7148 -0.7759
  705MOL0     H95146   4.275   1.680   1.921 -2.7448 -0.9819  1.6208
  705MOL0     H95147   4.027   1.855   1.852  0.1130 -0.5119 -1.0837
  705MOL0     H95148   4.049   1.750   1.994  0.8655  1.3460  2.7735
  705MOL0     H95149   4.238   1.894   2.065  1.7804  2.5560 -1.5049
  705MOL0     H95150   4.080   1.960   2.055  0.2211  1.0186 -0.1391
  705MOL0     H95151   4.258   2.016   1.809 -0.0223 -2.0751  1.0757
  705MOL0     H95152   4.119   2.097   1.875 -1.7297 -1.7165 -0.8182
  705MOL0     H95153   4.244   2.192   2.057 -1.2282  2.6891 -2.6194
  705MOL0     H95154   4.307   2.231   1.900 -2.0642  1.1134  0.1686
  705MOL0     H95155   4.418   2.020   2.095  1.0769  0.4075  0.8988
  705MOL0     H95156   4.498   2.166   2.062  4.2920 -0.9152 -2.7627
  705MOL0     H95157   4.139   1.440   1.453  1.2519 -0.3534  1.2763
  705MOL0     H95158   4.340   1.340   1.352 -2.3278 -0.1300 -1.8251
  705MOL0     H95159   4.666   1.248   1.213  1.3217 -0.3679  0.1408
  705MOL0     H95160   4.782   1.125   1.058 -1.3144  0.1888  1.3156
  705MOL0     H95161   6.122   0.877   1.246  0.3002 -0.1955 -0.4498
  705MOL0     H95162   6.213   0.953   1.448 -1.4791  0.5139 -0.8658
  705MOL0     H95163   6.483   1.101   1.685 -0.0462  0.2782 -0.5889
  705MOL0     H95164   6.535   1.238   1.881  1.3558  0.7475  0.3510
  705MOL0     H95165   6.839   1.305   1.913 -2.3144  1.8739 -1.6647
  705MOL0     H95166   6.704   1.369   1.991  0.2335 -0.5394 -1.2331
  705MOL0     H95167   6.949   1.289   2.169 -0.1072  1.0846  0.8665
  705MOL0     H95168   6.805   1.379   2.214  0.5572  0.7814  0.0313
  705MOL0     H95169   6.867   1.549   2.052 -0.8919 -0.5587  0.2252
  705MOL0     H95170   7.017   1.470   2.004  0.1926  1.0398  0.5937
  705MOL0     H95171   6.968   1.552   2.290  1.3433 -1.8123 -0.5105
  705MOL0     H95172   7.042   1.657   2.173  1.6365 -0.0601 -2.2356
  705MOL0     H95173   7.353   1.407   2.299 -0.3961  1.0641  2.0354
  705MOL0     H95174   6.823   0.945   2.000  0.0934 -1.1107 -1.6047
  705MOL0     H95175   6.746   0.794   1.816  1.0413 -0.2686 -0.0732
  706MOL0     O95176   4.609   8.318   1.605 -0.8086 -1.0462  0.8147
  706MOL0     C95177   4.657   8.324   1.722 -0.1667 -0.1126  0.4196
  706MOL0     O95178   4.592   8.373   1.827  0.2934 -0.6061  0.0106
  706MOL0     C95179   4.453   8.384   1.826 -0.6082  0.4021 -0.1553
  706MOL0     C95180   4.361   8.282   1.781  0.1035 -0.0993 -0.5387
  706MOL0     C95181   4.222   8.310   1.794 -0.4119  0.7579  0.5549
  706MOL0     C95182   4.171   8.441   1.830 -1.0909 -0.0910  0.4475
  706MOL0     O95183   4.038   8.456   1.831  0.1659 -0.3763 -0.3289
  706MOL0     C95184   3.983   8.586   1.849  0.3516  0.6374 -0.1284
  706MOL0     C95185   3.828   8.563   1.871 -0.0391 -0.4448  0.2385
  706MOL0     C95186   3.749   8.515   1.750 -0.2489  0.0303 -0.4119
  706MOL0     C95187   3.598   8.548   1.746 -0.4763  0.9098  0.8123
  706MOL0     C95188   3.544   8.477   1.619  0.4299  0.3324 -0.5368
  706MOL0     C95189   3.395   8.514   1.613  0.3052 -0.3346  0.3470
  706MOL0     C95190   3.324   8.426   1.506  0.3223 -0.3206  0.4356
  706MOL0     C95191   3.335   8.477   1.367 -0.0521  1.4580 -0.1613
  706MOL0     N95192   3.247   8.397   1.280  0.1377 -0.4269 -0.2225
  706MOL0     C95193   3.266   8.267   1.234 -0.8881 -0.9295  0.5813
  706MOL0     C95194   3.185   8.256   1.131 -0.1716  0.7873 -0.7255
  706MOL0     C95195   3.153   8.136   1.038  0.0867  0.6262  0.2040
  706MOL0     C95196   3.167   8.002   1.115  0.4017  0.3919 -0.7722
  706MOL0     C95197   3.103   7.999   1.255  0.7373 -0.5834  0.1701
  706MOL0     C95198   3.045   7.866   1.287  0.0340 -0.6115 -1.1353
  706MOL0     O95199   3.004   7.859   1.428  0.5169 -0.8158  0.5040
  706MOL0     C95200   2.952   7.738   1.487 -1.1189 -0.0732  0.2365
  706MOL0     C95201   2.892   7.744   1.615  0.0927  0.6661 -0.0105
  706MOL0     C95202   2.809   7.639   1.663 -0.1679 -0.2158  0.3462
  706MOL0     C95203   2.736   7.660   1.794  0.6685 -0.0385 -0.2309
  706MOL0     C95204   2.795   7.523   1.586 -1.2356  0.0725 -0.3363
  706MOL0     C95205   2.717   7.404   1.629  0.0951  0.6250 -0.3766
  706MOL0     O95206   2.708   7.302   1.542  0.4011  0.5097 -1.3804
  706MOL0     C95207   2.688   7.176   1.600  0.7102  1.0453  0.1571
  706MOL0     C95208   2.756   7.134   1.717  0.3364  0.8100 -0.6248
  706MOL0     C95209   2.731   7.010   1.769  0.3211 -0.2335  0.5589
  706MOL0     C95210   2.650   6.910   1.709  2.0330 -0.0472  0.6323
  706MOL0     O95211   2.638   6.793   1.777  0.2852  0.1838  0.2755
  706MOL0     C95212   2.509   6.724   1.754 -0.6091  0.9890 -0.2684
  706MOL0     C95213   2.411   6.788   1.834  1.2241  0.2324 -0.1193
  706MOL0     C95214   2.281   6.709   1.845 -0.6861 -0.2744  0.9133
  706MOL0     C95215   2.192   6.770   1.949  1.0951 -0.2512 -0.1682
  706MOL0     C95216   2.043   6.735   1.948 -0.5752 -0.4560 -0.4752
  706MOL0     C95217   2.018   6.586   1.897 -0.4069 -1.1124  0.0935
  706MOL0     C95218   1.873   6.547   1.909 -0.0512 -0.5280  0.2399
  706MOL0     C95219   1.856   6.389   1.895  0.2798 -0.3441 -0.4694
  706MOL0    Cl95220   1.930   6.332   1.743 -0.2751 -0.0205 -0.0430
  706MOL0     C95221   2.582   6.950   1.583 -0.1646 -0.6184 -0.4116
  706MOL0     C95222   2.598   7.085   1.537  0.1470 -0.2082  0.1684
  706MOL0     O95223   2.661   7.403   1.740  0.1302 -0.0059  0.1938
  706MOL0     C95224   2.875   7.507   1.478  0.0988 -0.3015  0.1885
  706MOL0     C95225   2.945   7.615   1.420  0.4419  0.5343  1.0134
  706MOL0     N95226   3.119   8.375   1.118 -0.0424  0.1447 -0.3487
  706MOL0     N95227   3.153   8.460   1.207  0.0638  0.1466 -0.2029
  706MOL0     C95228   4.261   8.542   1.872 -0.2109  0.1294 -0.7546
  706MOL0     C95229   4.395   8.507   1.872  0.5051  0.4948  0.2327
  706MOL0     C95230   4.796   8.268   1.743  0.4693  0.5720 -1.2859
  706MOL0     C95231   4.837   8.224   1.866  0.3215  0.5575  0.3561
  706MOL0     C95232   4.965   8.162   1.889  0.5420 -0.5097  0.3545
  706MOL0     C95233   5.045   8.136   1.778 -0.4101 -0.5520 -0.1099
  706MOL0     O95234   5.155   8.055   1.785 -0.2595  0.0630  0.0813
  706MOL0     C95235   5.255   8.063   1.690 -0.3179 -0.6849 -0.1129
  706MOL0     C95236   5.353   7.970   1.756  0.5828  0.7792  0.2564
  706MOL0     C95237   5.487   7.975   1.686 -0.2117  0.2196 -0.1465
  706MOL0     C95238   5.489   7.922   1.533  0.2021 -0.2942  0.0817
  706MOL0     C95239   5.426   8.012   1.436 -0.2999 -0.5183  0.0478
  706MOL0     C95240   5.362   8.083   1.358 -0.0248 -0.2948 -0.6777
  706MOL0     C95241   5.006   8.175   1.654  0.0437  0.1341 -0.3079
  706MOL0     C95242   4.890   8.248   1.637  0.1425  0.2751  0.2043
  706MOL0     H95243   4.399   8.182   1.762 -0.4181 -0.4021 -0.0126
  706MOL0     H95244   4.151   8.236   1.758 -0.0748  1.2112 -1.1731
  706MOL0     H95245   4.028   8.629   1.940  1.4355  0.9628 -0.8084
  706MOL0     H95246   3.994   8.655   1.765  1.3588  0.5720 -0.0615
  706MOL0     H95247   3.824   8.487   1.949  3.8447  1.1839  2.2633
  706MOL0     H95248   3.784   8.658   1.904 -0.3817  0.7035 -3.1243
  706MOL0     H95249   3.786   8.556   1.655  0.2578  1.9998  0.5768
  706MOL0     H95250   3.759   8.407   1.737 -1.5227  0.1888 -3.8501
  706MOL0     H95251   3.546   8.510   1.834 -0.4403 -0.7076  0.1663
  706MOL0     H95252   3.582   8.655   1.732 -1.5269  0.4263 -2.6149
  706MOL0     H95253   3.592   8.515   1.528 -1.2903 -0.1652 -1.7011
  706MOL0     H95254   3.561   8.369   1.625  0.4528  0.3799  0.3803
  706MOL0     H95255   3.344   8.479   1.703 -2.2341 -0.0049 -0.9036
  706MOL0     H95256   3.385   8.623   1.607 -1.0144 -0.4950 -0.6237
  706MOL0     H95257   3.362   8.324   1.507  1.4296  0.0370 -0.9183
  706MOL0     H95258   3.217   8.416   1.528  0.5972 -1.6736  1.2472
  706MOL0     H95259   3.442   8.472   1.348  0.3253 -0.6221  1.9730
  706MOL0     H95260   3.293   8.578   1.366  0.0449  1.5043  0.2197
  706MOL0     H95261   3.346   8.206   1.275  0.1568 -1.1378 -1.5925
  706MOL0     H95262   3.050   8.142   1.000 -0.2936 -2.6984  0.4506
  706MOL0     H95263   3.219   8.145   0.951 -2.8350 -0.3219 -2.2919
  706MOL0     H95264   3.266   7.959   1.131 -1.3221 -4.2296 -1.2379
  706MOL0     H95265   3.121   7.926   1.053  0.1928 -0.6242  0.5861
  706MOL0     H95266   3.024   8.074   1.259 -0.4955 -1.8487  0.6148
  706MOL0     H95267   3.174   8.021   1.334  0.8831 -2.5210  0.6454
  706MOL0     H95268   3.124   7.792   1.272  1.6958  0.9303 -0.4078
  706MOL0     H95269   2.957   7.845   1.226 -2.0091  2.9005  0.2894
  706MOL0     H95270   2.912   7.835   1.672  0.5695  0.7618 -0.3238
  706MOL0     H95271   2.767   7.581   1.863  1.9316 -0.6085 -1.4164
  706MOL0     H95272   2.751   7.759   1.838 -1.0727 -0.0914  0.5711
  706MOL0     H95273   2.627   7.647   1.791  0.3152  2.4270 -0.4364
  706MOL0     H95274   2.827   7.198   1.769 -0.1472  0.3643  0.6430
  706MOL0     H95275   2.782   6.977   1.859 -0.3851 -4.1764 -0.3337
  706MOL0     H95276   2.468   6.710   1.654 -0.1732  0.2921 -0.3551
  706MOL0     H95277   2.527   6.628   1.804  2.8013  1.7744  0.2623
  706MOL0     H95278   2.439   6.786   1.940 -4.5633 -2.7256  1.7741
  706MOL0     H95279   2.385   6.883   1.786 -0.2468 -0.7936 -1.4426
  706MOL0     H95280   2.305   6.605   1.872  1.2645 -0.0549  0.1503
  706MOL0     H95281   2.239   6.696   1.745 -0.0295 -2.3643  0.8419
  706MOL0     H95282   2.220   6.739   2.050 -1.0251 -4.0947 -0.5762
  706MOL0     H95283   2.205   6.878   1.937  0.6960 -0.2628 -0.7689
  706MOL0     H95284   1.988   6.802   1.880  2.3755 -0.1780 -2.8382
  706MOL0     H95285   2.011   6.750   2.051  1.3768 -1.4066  0.3092
  706MOL0     H95286   2.058   6.574   1.797  0.6176  3.8175 -0.3468
  706MOL0     H95287   2.072   6.523   1.968 -0.0251 -1.3844 -0.4354
  706MOL0     H95288   1.822   6.587   1.821  2.5632 -0.9157 -1.5501
  706MOL0     H95289   1.817   6.566   2.002 -1.6184 -2.0982 -0.3290
  706MOL0     H95290   1.748   6.378   1.892  0.2520 -0.8230  1.5449
  706MOL0     H95291   1.898   6.338   1.982  0.3395  3.2700  1.8264
  706MOL0     H95292   2.522   6.884   1.522 -0.0643  0.0015 -1.1907
  706MOL0     H95293   2.546   7.113   1.446  2.0855  2.5094 -0.2115
  706MOL0     H95294   2.876   7.411   1.427  1.3631 -1.7986  2.8388
  706MOL0     H95295   2.989   7.606   1.321 -0.6006  1.9333  0.3849
  706MOL0     H95296   4.226   8.643   1.890 -0.5732  0.1449 -1.4878
  706MOL0     H95297   4.460   8.584   1.912 -2.5448  2.3305  1.9803
  706MOL0     H95298   4.774   8.251   1.951 -4.8841 -0.2844 -2.7937
  706MOL0     H95299   4.996   8.115   1.983 -0.4675 -2.1259 -0.0901
  706MOL0     H95300   5.223   8.029   1.591 -2.7558  0.9903  0.0138
  706MOL0     H95301   5.292   8.167   1.688 -1.5820 -0.0709  3.0706
  706MOL0     H95302   5.319   7.866   1.758  0.2380  0.7344 -3.0331
  706MOL0     H95303   5.366   7.989   1.863  1.2805 -0.1575  0.3460
  706MOL0     H95304   5.555   7.909   1.740 -1.1353 -2.1531 -1.7007
  706MOL0     H95305   5.525   8.077   1.679 -3.6981  1.8286  1.6872
  706MOL0     H95306   5.458   7.820   1.510 -1.3481 -0.2915  1.9550
  706MOL0     H95307   5.595   7.922   1.504 -0.3286  2.3262 -2.3210
  706MOL0     H95308   5.303   8.127   1.281 -0.1128 -1.6588 -1.4249
  706MOL0     H95309   5.064   8.176   1.562 -1.6523 -0.5409 -1.4208
  706MOL0     H95310   4.849   8.279   1.542 -2.0213 -0.6882  0.7743
  707MOL0     O95311   9.920   6.498   0.595  0.3321 -0.1055 -0.2150
  707MOL0     C95312   9.901   6.384   0.584  0.3190  0.8681  0.3101
  707MOL0     O95313   9.919   6.304   0.467 -0.2464 -0.5441  0.7444
  707MOL0     C95314   9.961   6.376   0.353 -0.9059 -0.6658  0.3978
  707MOL0     C95315  10.076   6.464   0.356  1.0718 -0.5023 -0.3085
  707MOL0     C95316  10.121   6.522   0.235  0.0396 -0.1670  0.1134
  707MOL0     C95317  10.056   6.506   0.111 -0.2320  0.3120  1.2979
  707MOL0     O95318  10.089   6.558  -0.015 -1.1435  0.0519 -0.7679
  707MOL0     C95319  10.190   6.668  -0.026 -0.5881 -0.2408 -0.2086
  707MOL0     C95320  10.121   6.790   0.030 -0.1305 -1.7668 -0.2032
  707MOL0     C95321   9.985   6.835  -0.053 -1.3384  0.3361 -0.6920
  707MOL0     C95322   9.920   6.962   0.001 -0.0561 -0.9812 -0.1206
  707MOL0     C95323   9.848   7.046  -0.107  0.1671  0.1069 -0.7609
  707MOL0     C95324   9.954   7.129  -0.182 -0.0986 -0.6279  0.2197
  707MOL0     C95325   9.880   7.235  -0.270  0.1249  1.4859 -0.3938
  707MOL0     C95326   9.959   7.293  -0.385  0.0172  0.6730  0.5336
  707MOL0     N95327  10.071   7.375  -0.331 -1.1392 -0.3633  0.1745
  707MOL0     C95328  10.072   7.480  -0.238  0.0384 -0.6624 -1.2338
  707MOL0     C95329  10.200   7.526  -0.218 -0.2042  0.4529  0.2105
  707MOL0     C95330  10.243   7.623  -0.113  0.1076  0.2321  0.2437
  707MOL0     C95331  10.239   7.577   0.030  0.4084  0.0297  0.7387
  707MOL0     C95332  10.289   7.690   0.112 -0.3041 -0.0620  0.4918
  707MOL0     C95333  10.254   7.654   0.259 -0.6554  1.3080 -0.4106
  707MOL0     O95334  10.131   7.717   0.303 -0.0814 -0.0245 -0.0657
  707MOL0     C95335  10.095   7.685   0.423  0.1522 -0.4275  0.3849
  707MOL0     C95336  10.028   7.787   0.488  0.4843 -0.7776 -0.7130
  707MOL0     C95337   9.980   7.778   0.627  0.0904 -0.3408  0.6274
  707MOL0     C95338   9.908   7.903   0.689  0.6186 -0.0911 -0.7391
  707MOL0     C95339   9.986   7.663   0.700  0.3171 -0.3993 -0.4716
  707MOL0     C95340   9.946   7.634   0.840 -0.4813 -0.3743 -1.4242
  707MOL0     O95341   9.908   7.510   0.872  0.6215 -0.2479 -0.5379
  707MOL0     C95342   9.927   7.477   1.000  0.1817  0.6003 -0.6369
  707MOL0     C95343  10.061   7.453   1.045  0.7693  0.0889 -0.2132
  707MOL0     C95344  10.089   7.424   1.178  0.4477 -1.3038 -0.4365
  707MOL0     C95345   9.996   7.426   1.276  0.2682  0.6405  0.4379
  707MOL0     O95346  10.043   7.396   1.402 -0.0091 -0.2841 -0.3429
  707MOL0     C95347   9.945   7.372   1.499 -0.0722  0.1004 -0.4855
  707MOL0     C95348  10.004   7.275   1.613  0.6625 -0.8398  0.1457
  707MOL0     C95349  10.092   7.341   1.710 -0.3594  0.2191 -0.2560
  707MOL0     C95350  10.012   7.401   1.831 -0.0897  0.2839  0.3359
  707MOL0     C95351  10.101   7.472   1.942  0.0048 -0.1679  0.6178
  707MOL0     C95352  10.052   7.436   2.082 -0.7600  0.3564 -0.0950
  707MOL0     C95353   9.904   7.470   2.110 -0.3443  0.1794  0.2806
  707MOL0     C95354   9.897   7.480   2.266 -0.9732  0.1689  0.4972
  707MOL0    Cl95355   9.778   7.604   2.298 -0.4561  0.1300 -0.4025
  707MOL0     C95356   9.859   7.461   1.241 -0.5145  0.5492 -0.0160
  707MOL0     C95357   9.831   7.479   1.102  0.1819  0.4808  0.7573
  707MOL0     O95358   9.949   7.733   0.923  0.1223 -0.0863  0.6915
  707MOL0     C95359  10.049   7.556   0.629  0.1798  1.1899  0.1569
  707MOL0     C95360  10.105   7.564   0.498 -0.3371  0.2875 -0.1356
  707MOL0     N95361  10.285   7.437  -0.287 -0.2007  0.3679  0.0801
  707MOL0     N95362  10.207   7.354  -0.351  0.1739 -0.2768  0.3085
  707MOL0     C95363   9.937   6.435   0.114 -0.3801  0.0863  0.5358
  707MOL0     C95364   9.889   6.369   0.232 -0.8521 -0.3201  0.7679
  707MOL0     C95365   9.886   6.310   0.714 -0.6902 -0.6449  0.4333
  707MOL0     C95366   9.860   6.173   0.709 -0.9644 -0.2683  0.7519
  707MOL0     C95367   9.837   6.097   0.816  0.7308 -0.4527 -0.5525
  707MOL0     C95368   9.853   6.145   0.944 -1.0240 -0.9416  0.0353
  707MOL0     O95369   9.831   6.071   1.051 -0.4254 -0.4459 -0.3995
  707MOL0     C95370   9.955   6.048   1.121 -0.4886  0.2607 -0.0123
  707MOL0     C95371  10.009   5.905   1.106  0.1502 -0.5202  0.1235
  707MOL0     C95372   9.942   5.811   1.201 -0.3983  0.6209 -0.1271
  707MOL0     C95373   9.955   5.660   1.165 -0.4942  0.5979 -0.7853
  707MOL0     C95374   9.918   5.626   1.030 -0.4547  0.2136  0.3806
  707MOL0     C95375   9.897   5.615   0.911 -0.0339  0.6412  0.4335
  707MOL0     C95376   9.868   6.292   0.957  0.4173 -0.7902  0.2425
  707MOL0     C95377   9.881   6.367   0.839  0.9926  0.5535  0.3523
  707MOL0     H95378  10.135   6.463   0.447  1.2864 -0.2169 -0.4426
  707MOL0     H95379  10.213   6.579   0.239  0.1755 -0.3518  4.2913
  707MOL0     H95380  10.286   6.641   0.020  0.9592 -4.9858 -5.1763
  707MOL0     H95381  10.203   6.678  -0.134 -1.7525 -2.7650 -0.6477
  707MOL0     H95382  10.089   6.773   0.133  3.0966 -1.0646  1.0149
  707MOL0     H95383  10.193   6.871   0.016 -0.2259 -1.6544 -0.0500
  707MOL0     H95384  10.033   6.853  -0.150  1.4979 -2.0488  0.1095
  707MOL0     H95385   9.910   6.756  -0.059 -3.5114  2.2853 -0.4747
  707MOL0     H95386   9.850   6.933   0.079 -1.0940 -0.1807 -0.7297
  707MOL0     H95387   9.995   7.028   0.047 -2.4061  0.8787  1.2492
  707MOL0     H95388   9.785   6.992  -0.178 -0.7548 -1.9277  1.4711
  707MOL0     H95389   9.787   7.121  -0.055  0.7799 -0.4735  0.8612
  707MOL0     H95390  10.021   7.178  -0.112 -0.4821 -0.4041  0.4323
  707MOL0     H95391  10.005   7.061  -0.251 -1.9303  0.1287 -1.9972
  707MOL0     H95392   9.802   7.177  -0.320 -0.5000 -3.8343  5.4614
  707MOL0     H95393   9.841   7.315  -0.207  1.2331  1.5631  0.2166
  707MOL0     H95394   9.887   7.354  -0.440  1.8644  2.7631  0.2688
  707MOL0     H95395   9.995   7.215  -0.454 -1.1779  1.2059 -0.7376
  707MOL0     H95396   9.987   7.522  -0.185  1.1542 -1.4782  1.3025
  707MOL0     H95397  10.347   7.652  -0.131  0.4142 -0.0093  1.5683
  707MOL0     H95398  10.177   7.710  -0.120  2.3676  2.0868  0.7258
  707MOL0     H95399  10.302   7.488   0.040 -1.1151 -0.9558  2.0288
  707MOL0     H95400  10.138   7.550   0.060  0.2528 -2.2667 -1.5090
  707MOL0     H95401  10.238   7.784   0.090  0.8687 -0.1420 -3.1660
  707MOL0     H95402  10.397   7.708   0.107  0.0191 -1.3930  1.8776
  707MOL0     H95403  10.339   7.693   0.317  0.5782 -0.4722 -0.9327
  707MOL0     H95404  10.267   7.548   0.282 -0.1518  1.6180  0.8635
  707MOL0     H95405  10.004   7.878   0.434 -3.0315 -1.1813 -0.0648
  707MOL0     H95406   9.875   7.972   0.611 -1.3605  0.4907  0.5241
  707MOL0     H95407   9.812   7.877   0.736 -1.7092 -0.1547 -5.0369
  707MOL0     H95408   9.980   7.944   0.761  1.4510 -2.3876 -0.1732
  707MOL0     H95409  10.141   7.462   0.972 -0.1648 -0.3173 -1.3366
  707MOL0     H95410  10.195   7.409   1.196  0.7137  1.2115  0.5902
  707MOL0     H95411   9.893   7.461   1.537  0.6457  0.6333 -0.7315
  707MOL0     H95412   9.865   7.311   1.457  0.4823 -0.4684 -0.7151
  707MOL0     H95413   9.915   7.234   1.663 -0.3219 -0.8900 -1.5453
  707MOL0     H95414  10.049   7.188   1.564  0.8041  0.1811 -1.6104
  707MOL0     H95415  10.141   7.430   1.669  0.8939 -0.0693  0.5468
  707MOL0     H95416  10.171   7.271   1.739 -1.0726  0.0387  1.3920
  707MOL0     H95417   9.941   7.475   1.795  1.2301  1.4845  0.1331
  707MOL0     H95418   9.955   7.319   1.876  2.1535 -1.3343  0.4713
  707MOL0     H95419  10.107   7.580   1.928  2.2284 -0.5581 -2.7539
  707MOL0     H95420  10.207   7.447   1.925  0.4862  1.7364  0.5962
  707MOL0     H95421  10.077   7.334   2.112 -2.2876  0.0822  0.3416
  707MOL0     H95422  10.127   7.491   2.140  1.6567 -0.8118 -1.9019
  707MOL0     H95423   9.842   7.390   2.068  0.4709 -0.4715  0.2897
  707MOL0     H95424   9.886   7.566   2.062  2.2688  0.4631 -0.2987
  707MOL0     H95425   9.992   7.508   2.311  0.0195  1.6186 -2.2760
  707MOL0     H95426   9.860   7.382   2.300  1.7861 -1.6323 -1.2594
  707MOL0     H95427   9.779   7.481   1.311  0.6947 -0.4774  1.7211
  707MOL0     H95428   9.727   7.505   1.085 -0.8156 -2.1990  2.1309
  707MOL0     H95429  10.070   7.462   0.679  1.6753  0.4549 -1.7380
  707MOL0     H95430  10.163   7.487   0.447  0.9045  2.5405 -2.3508
  707MOL0     H95431   9.886   6.414   0.021 -1.3484 -0.4313  1.1732
  707MOL0     H95432   9.804   6.302   0.229 -1.4047  0.1785  3.1257
  707MOL0     H95433   9.851   6.129   0.610 -0.3587 -0.0018  0.5704
  707MOL0     H95434   9.829   5.991   0.795 -2.0169 -0.3304 -0.4444
  707MOL0     H95435  10.033   6.121   1.099  1.0962 -1.4732 -0.3702
  707MOL0     H95436   9.950   6.056   1.230  4.8623 -4.0094  0.9207
  707MOL0     H95437  10.115   5.920   1.130  0.5320  0.6208 -1.9753
  707MOL0     H95438  10.013   5.872   1.002 -2.3084  0.9399 -0.5172
  707MOL0     H95439   9.834   5.827   1.211 -0.3840  0.4102  0.4251
  707MOL0     H95440   9.987   5.833   1.299  0.6563 -4.0651  0.6647
  707MOL0     H95441   9.879   5.605   1.221  0.4083  0.2466  0.1314
  707MOL0     H95442  10.055   5.623   1.187 -1.3618 -0.8671  1.0041
  707MOL0     H95443   9.862   5.612   0.810 -0.0873  1.3681  0.4261
  707MOL0     H95444   9.852   6.337   1.054 -3.9874 -1.9385  0.2963
  707MOL0     H95445   9.880   6.475   0.854 -0.9150  0.6129  0.0631
  708MOL0     O95446   1.650   3.784   8.471 -0.6943 -0.0351  0.1861
  708MOL0     C95447   1.618   3.899   8.451 -0.4864  0.0286  0.4818
  708MOL0     O95448   1.495   3.960   8.472 -0.3493  0.3208 -0.5568
  708MOL0     C95449   1.403   3.891   8.547 -0.1131  0.0273 -0.3695
  708MOL0     C95450   1.361   3.760   8.529  0.0580 -0.0117  0.9014
  708MOL0     C95451   1.262   3.697   8.610  0.3501  0.0346 -0.4938
  708MOL0     C95452   1.208   3.767   8.715 -0.8744 -0.9553  0.1438
  708MOL0     O95453   1.112   3.711   8.783 -0.3967 -0.1292  0.0492
  708MOL0     C95454   1.127   3.701   8.923  0.7239 -0.4566 -0.7884
  708MOL0     C95455   1.000   3.648   9.003  0.0527 -1.3433 -1.2012
  708MOL0     C95456   0.965   3.504   8.962  0.2643  0.4685  0.8311
  708MOL0     C95457   0.862   3.460   9.057  0.4204  0.4940 -0.4607
  708MOL0     C95458   0.792   3.327   9.024 -0.6548  0.1253 -0.2085
  708MOL0     C95459   0.653   3.316   9.098 -0.5472  1.3714 -0.4781
  708MOL0     C95460   0.672   3.225   9.219  0.8548  0.1461  0.1398
  708MOL0     C95461   0.546   3.230   9.306 -0.8314  0.2282 -0.3492
  708MOL0     N95462   0.463   3.115   9.292  0.8171  0.0422  0.3756
  708MOL0     C95463   0.436   3.049   9.172 -0.1400  0.6822  0.4487
  708MOL0     C95464   0.335   2.961   9.211 -0.2899 -0.1050 -0.2276
  708MOL0     C95465   0.269   2.851   9.123 -0.3063  0.8351 -0.6764
  708MOL0     C95466   0.245   2.924   8.987  0.1889 -0.4707  0.4298
  708MOL0     C95467   0.172   2.837   8.883 -0.6662  0.7856 -0.6010
  708MOL0     C95468   0.269   2.755   8.797 -0.5489 -0.3959 -0.5669
  708MOL0     O95469   0.206   2.727   8.671  1.0640 -0.3053  0.0077
  708MOL0     C95470   0.176   2.822   8.571 -0.4969  1.1758 -0.5285
  708MOL0     C95471   0.257   2.938   8.542 -1.3367 -0.4936  0.4006
  708MOL0     C95472   0.241   3.006   8.428  0.4866 -0.3296  0.1877
  708MOL0     C95473   0.295   3.151   8.419  0.7270  0.0889 -0.0655
  708MOL0     C95474   0.156   2.958   8.325 -0.1384 -0.8065  0.6006
  708MOL0     C95475   0.159   3.011   8.191  0.1116 -0.0831  0.8085
  708MOL0     O95476   0.028   3.039   8.150 -0.7554 -0.1635 -0.2892
  708MOL0     C95477   0.013   3.061   8.018  0.1940  0.0836  1.1407
  708MOL0     C95478   0.022   2.961   7.916  0.1528  0.7846  1.0412
  708MOL0     C95479   0.009   3.009   7.778 -1.3898 -0.2525 -0.1346
  708MOL0     C95480  -0.017   3.144   7.753  0.1944  0.5899 -0.4246
  708MOL0     O95481  -0.019   3.189   7.621  0.0005 -0.4303 -0.0479
  708MOL0     C95482   0.021   3.323   7.589 -0.5638 -0.1314 -0.6216
  708MOL0     C95483   0.003   3.352   7.438 -0.2825 -0.0489  0.0202
  708MOL0     C95484   0.099   3.281   7.337 -0.4674  0.9242 -1.2726
  708MOL0     C95485   0.241   3.313   7.369 -0.9267  1.1846 -0.1958
  708MOL0     C95486   0.333   3.268   7.245 -0.4387 -0.0068 -0.0293
  708MOL0     C95487   0.477   3.304   7.278  0.4248  0.0411 -0.0747
  708MOL0     C95488   0.582   3.275   7.171  0.5261 -0.2184 -0.6548
  708MOL0     C95489   0.718   3.259   7.225 -0.4237  1.4468 -0.2233
  708MOL0    Cl95490   0.811   3.236   7.073  0.3527 -0.1561 -0.1857
  708MOL0     C95491  -0.021   3.238   7.859 -1.1686 -0.7632 -0.1228
  708MOL0     C95492  -0.011   3.199   7.990  0.3382  0.0888  0.2434
  708MOL0     O95493   0.265   3.007   8.125  0.4014  0.0891 -0.0459
  708MOL0     C95494   0.075   2.853   8.354 -0.0206 -0.3430  0.2927
  708MOL0     C95495   0.089   2.784   8.475 -0.2835  0.6912  0.1485
  708MOL0     N95496   0.292   2.993   9.336  0.3657 -0.1370  0.1079
  708MOL0     N95497   0.379   3.078   9.387  0.1168 -0.4555  0.1181
  708MOL0     C95498   1.247   3.904   8.733  0.2310  0.5704  0.4088
  708MOL0     C95499   1.339   3.967   8.645  0.6843  0.5908  0.2789
  708MOL0     C95500   1.731   3.981   8.395  0.6771  0.4739 -0.8936
  708MOL0     C95501   1.722   4.120   8.413  0.1604 -0.4015 -0.7593
  708MOL0     C95502   1.814   4.204   8.347  1.0110 -1.1935 -0.1571
  708MOL0     C95503   1.912   4.158   8.269 -0.9254 -0.0642 -0.1730
  708MOL0     O95504   2.001   4.250   8.217 -0.1931  0.5094 -0.4556
  708MOL0     C95505   2.125   4.210   8.169  0.0666 -0.1031 -1.2516
  708MOL0     C95506   2.213   4.325   8.150 -0.1195  0.2074 -0.1230
  708MOL0     C95507   2.268   4.369   8.292 -0.0274  0.1554 -0.1177
  708MOL0     C95508   2.303   4.518   8.283 -0.0589 -0.5083  0.1892
  708MOL0     C95509   2.404   4.556   8.189 -0.5838 -0.2242  0.1009
  708MOL0     C95510   2.484   4.578   8.099  0.0314 -0.3707 -0.3014
  708MOL0     C95511   1.937   4.017   8.262 -0.0923 -0.4227  0.0735
  708MOL0     C95512   1.847   3.929   8.323  0.2067  0.0633 -0.1126
  708MOL0     H95513   1.392   3.698   8.445 -0.7607 -1.2853  1.5214
  708MOL0     H95514   1.232   3.594   8.595  1.9119 -0.8396  1.7542
  708MOL0     H95515   1.206   3.637   8.964 -2.2772 -2.8482  1.7321
  708MOL0     H95516   1.152   3.801   8.959 -0.8681 -0.9952  2.0694
  708MOL0     H95517   1.027   3.644   9.109 -0.4684 -0.6225 -1.0260
  708MOL0     H95518   0.911   3.710   8.989  0.4953 -0.0531  1.1320
  708MOL0     H95519   0.923   3.508   8.861 -1.7806 -1.6177  1.5168
  708MOL0     H95520   1.039   3.423   8.961 -1.1176 -0.8468  1.2195
  708MOL0     H95521   0.900   3.460   9.160 -2.1049  0.8991  0.5434
  708MOL0     H95522   0.778   3.530   9.049 -1.1306 -0.9957  1.5786
  708MOL0     H95523   0.763   3.316   8.919  0.4752 -1.1794 -0.4123
  708MOL0     H95524   0.858   3.244   9.051  0.3439  1.1519  0.6394
  708MOL0     H95525   0.627   3.417   9.132  3.2141  3.0206 -1.8938
  708MOL0     H95526   0.568   3.286   9.036  0.7324 -3.2639 -0.3783
  708MOL0     H95527   0.701   3.122   9.195 -2.2690 -0.6949 -0.4195
  708MOL0     H95528   0.762   3.266   9.266 -0.1071  2.9613 -0.3203
  708MOL0     H95529   0.495   3.324   9.284  0.4756  0.9762 -0.2901
  708MOL0     H95530   0.578   3.240   9.411  3.4521 -1.5685 -1.2528
  708MOL0     H95531   0.479   3.054   9.073  1.0997  2.1340  1.0278
  708MOL0     H95532   0.345   2.773   9.115 -3.3223 -2.1636 -2.9074
  708MOL0     H95533   0.173   2.819   9.164 -1.8792  2.9482 -2.4566
  708MOL0     H95534   0.343   2.949   8.945 -0.1235  0.6533  0.3374
  708MOL0     H95535   0.194   3.020   9.003  1.8806  0.6853 -0.6965
  708MOL0     H95536   0.116   2.909   8.823  0.0110  1.9697  0.1462
  708MOL0     H95537   0.095   2.777   8.931  0.4855 -2.3717 -2.4230
  708MOL0     H95538   0.277   2.661   8.853 -2.9935  0.3736  1.2702
  708MOL0     H95539   0.365   2.802   8.775  1.2840 -3.9501 -0.8199
  708MOL0     H95540   0.313   2.982   8.625 -1.5711 -0.4116  0.5172
  708MOL0     H95541   0.213   3.223   8.428  0.9039  0.0789  2.0156
  708MOL0     H95542   0.357   3.171   8.507 -0.1879 -0.1940  0.6553
  708MOL0     H95543   0.345   3.166   8.323 -1.1898 -1.1989 -1.3321
  708MOL0     H95544   0.040   2.858   7.943 -1.0014  0.1824 -0.3349
  708MOL0     H95545   0.019   2.936   7.698 -3.5750 -1.9732  1.0369
  708MOL0     H95546  -0.040   3.396   7.643  0.7543  1.6391 -1.4247
  708MOL0     H95547   0.124   3.344   7.619  0.2236  1.2314 -3.8042
  708MOL0     H95548  -0.100   3.324   7.414 -0.4780  0.6401  0.0237
  708MOL0     H95549   0.013   3.461   7.429  3.2090  0.0899  3.2525
  708MOL0     H95550   0.075   3.313   7.235  0.9209  2.5319 -1.1481
  708MOL0     H95551   0.082   3.174   7.324 -3.8974  1.1057  0.6624
  708MOL0     H95552   0.247   3.422   7.376 -3.2381  1.3568 -0.2582
  708MOL0     H95553   0.259   3.256   7.460  0.5640 -0.3038 -1.3559
  708MOL0     H95554   0.300   3.327   7.159  0.3293  0.5347  0.0392
  708MOL0     H95555   0.337   3.165   7.210  2.5291  0.2066 -0.5260
  708MOL0     H95556   0.486   3.408   7.310  0.5160 -0.4424  1.5968
  708MOL0     H95557   0.509   3.231   7.353  0.3223  0.9222  0.8439
  708MOL0     H95558   0.591   3.336   7.081 -0.3832 -1.7960 -1.8473
  708MOL0     H95559   0.553   3.175   7.138  0.2411 -0.5069  0.4289
  708MOL0     H95560   0.716   3.162   7.276  0.3469  1.2825 -0.5003
  708MOL0     H95561   0.766   3.337   7.286  0.4950 -0.3442  1.4636
  708MOL0     H95562  -0.060   3.338   7.844  1.0512  1.0538  4.3400
  708MOL0     H95563  -0.030   3.273   8.067 -1.5722  0.3048 -0.3871
  708MOL0     H95564   0.011   2.818   8.273 -0.5773 -2.1610  1.4647
  708MOL0     H95565   0.030   2.695   8.493 -0.9240  1.2316  0.7660
  708MOL0     H95566   1.203   3.968   8.809  0.2552 -0.9060  1.7080
  708MOL0     H95567   1.365   4.071   8.661  1.4327  0.2278  1.6124
  708MOL0     H95568   1.641   4.167   8.469 -1.1977 -2.5284 -0.8045
  708MOL0     H95569   1.792   4.311   8.342 -3.5985 -1.9632 -0.8917
  708MOL0     H95570   2.183   4.135   8.224  0.8414 -0.2154 -2.1874
  708MOL0     H95571   2.116   4.163   8.071 -0.3656 -2.6886 -0.0565
  708MOL0     H95572   2.159   4.402   8.095  0.8568  0.5083 -0.6667
  708MOL0     H95573   2.296   4.289   8.089 -1.7302 -1.3572 -1.5233
  708MOL0     H95574   2.354   4.310   8.323  0.1241  0.7974  0.7243
  708MOL0     H95575   2.185   4.357   8.364 -0.3535 -1.8744 -0.7705
  708MOL0     H95576   2.331   4.556   8.382  2.0378  0.9706 -0.9040
  708MOL0     H95577   2.214   4.572   8.252  0.3734  1.0631  1.5586
  708MOL0     H95578   2.546   4.601   8.015  2.9338  0.7969  1.9765
  708MOL0     H95579   2.019   3.978   8.203  1.0194  4.5579 -2.1653
  708MOL0     H95580   1.873   3.825   8.303  5.4306  1.0566  0.3201
  709MOL0     O95581   4.392   8.619   9.766  0.2160 -0.9810  0.2689
  709MOL0     C95582   4.419   8.710   9.686  1.1243  0.6601  0.0271
  709MOL0     O95583   4.538   8.782   9.670  0.1094 -0.1374  0.3917
  709MOL0     C95584   4.646   8.771   9.759 -0.3023  0.0646 -0.3245
  709MOL0     C95585   4.728   8.883   9.760 -0.0779  0.2180  1.0238
  709MOL0     C95586   4.837   8.885   9.842  0.0555  0.2730 -0.0682
  709MOL0     C95587   4.861   8.779   9.929 -0.0012 -0.2126  1.2311
  709MOL0     O95588   4.975   8.784  10.005 -0.2143  0.2752 -0.2853
  709MOL0     C95589   5.041   8.663  10.035  0.0246 -0.0868 -0.4326
  709MOL0     C95590   5.194   8.695  10.049  0.2084 -0.4292 -0.6787
  709MOL0     C95591   5.267   8.564  10.039  0.7209  0.2984 -0.9585
  709MOL0     C95592   5.415   8.562  10.085  0.4185  0.4866 -0.4358
  709MOL0     C95593   5.505   8.626   9.977 -0.7476  1.0472  0.0761
  709MOL0     C95594   5.643   8.655  10.031  0.0568 -0.5355 -0.9650
  709MOL0     C95595   5.757   8.681   9.938 -0.5300 -0.3625 -0.3801
  709MOL0     C95596   5.872   8.709  10.036 -0.7680 -0.1858 -0.5595
  709MOL0     N95597   5.997   8.741   9.970 -0.3888  0.1441  0.7461
  709MOL0     C95598   6.089   8.657   9.920  0.0544  0.5469 -0.6062
  709MOL0     C95599   6.192   8.731   9.874  0.4066  0.0032  0.3896
  709MOL0     C95600   6.312   8.670   9.802 -0.2257  0.0663 -0.1043
  709MOL0     C95601   6.329   8.727   9.657 -0.2998 -0.5492 -0.5482
  709MOL0     C95602   6.237   8.644   9.561 -0.1291 -0.4072  0.1590
  709MOL0     C95603   6.213   8.736   9.443  0.5819  1.4222 -0.1639
  709MOL0     O95604   6.324   8.738   9.357 -0.8351 -0.4999 -0.3861
  709MOL0     C95605   6.338   8.834   9.254  0.3623  0.2599 -0.1982
  709MOL0     C95606   6.466   8.850   9.196 -0.5255 -0.8760 -0.6500
  709MOL0     C95607   6.488   8.952   9.111 -0.1913 -1.1668  0.3576
  709MOL0     C95608   6.627   8.954   9.047  0.3258  0.2288 -0.4355
  709MOL0     C95609   6.381   9.031   9.070 -0.3153  0.1097 -0.4415
  709MOL0     C95610   6.378   9.121   8.950 -0.0097  0.1919 -0.5726
  709MOL0     O95611   6.249   9.150   8.909  0.6638 -0.0693  0.1398
  709MOL0     C95612   6.219   9.226   8.798  0.5497 -0.6135  0.2552
  709MOL0     C95613   6.299   9.310   8.717 -0.3893 -0.2716 -0.2175
  709MOL0     C95614   6.253   9.399   8.619  0.2912  0.5177  0.5158
  709MOL0     C95615   6.114   9.419   8.596 -0.6322  0.2317 -0.2233
  709MOL0     O95616   6.067   9.513   8.513 -0.5630 -0.4534 -0.1152
  709MOL0     C95617   5.934   9.529   8.468 -0.1328  0.7316 -0.1440
  709MOL0     C95618   5.838   9.600   8.570  0.6978  0.4762 -0.7197
  709MOL0     C95619   5.682   9.574   8.555 -0.4923 -0.3803  0.8842
  709MOL0     C95620   5.623   9.611   8.420  0.2991 -0.1649  0.1000
  709MOL0     C95621   5.475   9.580   8.410  1.0020 -0.0020 -0.3975
  709MOL0     C95622   5.415   9.643   8.291 -0.3350 -1.1303  0.3773
  709MOL0     C95623   5.259   9.653   8.294  0.6079 -0.6749  0.4648
  709MOL0     C95624   5.203   9.741   8.183  0.0745  0.0015  0.6781
  709MOL0    Cl95625   5.222   9.909   8.236  0.1859 -0.0629 -0.3363
  709MOL0     C95626   6.029   9.339   8.684 -0.7517 -0.1347  0.2340
  709MOL0     C95627   6.085   9.242   8.770  0.3451 -0.3097  0.2711
  709MOL0     O95628   6.485   9.156   8.892  0.4735 -0.5798 -0.6902
  709MOL0     C95629   6.256   9.011   9.125  0.1283  0.4306 -1.3634
  709MOL0     C95630   6.231   8.908   9.215 -0.4752  0.3906  0.4724
  709MOL0     N95631   6.167   8.856   9.905 -0.5812 -0.8406  0.0156
  709MOL0     N95632   6.047   8.868   9.956 -0.5888  0.6865 -0.6314
  709MOL0     C95633   4.791   8.663   9.911  1.2650 -0.3553 -0.0094
  709MOL0     C95634   4.683   8.657   9.828 -0.3903  0.3254 -0.0789
  709MOL0     C95635   4.309   8.747   9.598 -0.0190 -0.0167 -1.4091
  709MOL0     C95636   4.177   8.699   9.620 -0.4035 -0.7625 -0.3391
  709MOL0     C95637   4.079   8.752   9.535 -1.0047  0.5229 -0.0878
  709MOL0     C95638   4.117   8.818   9.419 -0.3785  0.3961  0.2602
  709MOL0     O95639   4.039   8.823   9.308  0.3448 -0.5041  0.0392
  709MOL0     C95640   3.895   8.855   9.350 -0.4182 -0.3520  0.4788
  709MOL0     C95641   3.853   8.983   9.286  0.4903 -0.9018 -0.8740
  709MOL0     C95642   3.743   9.060   9.372  0.0974 -0.3823 -0.2154
  709MOL0     C95643   3.614   8.986   9.404  0.1019  0.0559  0.0287
  709MOL0     C95644   3.533   8.957   9.287 -0.0737 -0.1750 -0.0739
  709MOL0     C95645   3.489   8.938   9.179  1.0317  0.0592  0.6576
  709MOL0     C95646   4.248   8.861   9.403 -0.4672 -0.1144 -0.5017
  709MOL0     C95647   4.341   8.828   9.496  0.2706  1.1638  0.1138
  709MOL0     H95648   4.718   8.965   9.690  0.3098 -2.0444 -1.8784
  709MOL0     H95649   4.915   8.961   9.836  0.1798  0.0436 -2.9613
  709MOL0     H95650   5.005   8.626  10.131  0.0394  2.1401  0.4911
  709MOL0     H95651   5.025   8.587   9.957 -0.9834  0.2039 -0.5162
  709MOL0     H95652   5.225   8.759   9.967  0.4295  2.5016  1.5263
  709MOL0     H95653   5.218   8.756  10.136 -1.3354 -1.5961  0.6358
  709MOL0     H95654   5.210   8.493  10.100 -0.5540  0.6006 -1.7683
  709MOL0     H95655   5.261   8.540   9.933  1.9609  2.6225 -1.6192
  709MOL0     H95656   5.410   8.620  10.177 -1.7269  2.3144 -1.6184
  709MOL0     H95657   5.448   8.460  10.107 -0.3814  0.2657 -0.2489
  709MOL0     H95658   5.528   8.554   9.897  0.3005  2.2749 -0.7646
  709MOL0     H95659   5.453   8.713   9.937 -2.0209  0.3567  0.1600
  709MOL0     H95660   5.628   8.743  10.094  0.3927 -0.2389 -1.2962
  709MOL0     H95661   5.665   8.568  10.093 -1.6103 -2.6918 -3.1804
  709MOL0     H95662   5.768   8.595   9.871 -1.1441  1.7770 -3.4345
  709MOL0     H95663   5.736   8.763   9.868 -0.2713  0.1452  0.1314
  709MOL0     H95664   5.887   8.617  10.094 -2.6615 -1.8999 -2.5841
  709MOL0     H95665   5.840   8.786  10.107 -0.8076 -1.7039  1.1514
  709MOL0     H95666   6.089   8.549   9.911  0.8884  0.5657 -0.9390
  709MOL0     H95667   6.407   8.700   9.847  0.9009 -0.0030 -2.3104
  709MOL0     H95668   6.303   8.562   9.821  4.0637 -0.4864 -0.1361
  709MOL0     H95669   6.431   8.714   9.620 -0.0287  1.4474 -0.5828
  709MOL0     H95670   6.309   8.834   9.651 -2.2431 -0.6750  1.8992
  709MOL0     H95671   6.140   8.612   9.601 -1.0350 -2.5466 -3.2557
  709MOL0     H95672   6.285   8.550   9.531  0.2597 -2.0334  5.1057
  709MOL0     H95673   6.178   8.835   9.473  2.8593  2.8605 -1.8727
  709MOL0     H95674   6.125   8.699   9.389  1.6807 -0.6311 -0.6597
  709MOL0     H95675   6.550   8.793   9.234  1.8739  1.9406 -1.3302
  709MOL0     H95676   6.619   8.989   8.944 -2.1974  2.0849  0.3106
  709MOL0     H95677   6.695   9.023   9.096 -1.5608  1.5562  0.4245
  709MOL0     H95678   6.666   8.852   9.039 -2.0032 -0.7054 -0.5801
  709MOL0     H95679   6.408   9.311   8.718 -0.2420 -0.1181 -3.8705
  709MOL0     H95680   6.310   9.467   8.556 -1.0685  1.4874  0.2815
  709MOL0     H95681   5.937   9.589   8.376 -1.4668 -2.6235 -2.5879
  709MOL0     H95682   5.894   9.434   8.431 -0.5860  1.9075 -3.0035
  709MOL0     H95683   5.864   9.555   8.666  3.0094 -0.3366 -1.6500
  709MOL0     H95684   5.861   9.707   8.567 -0.6406  0.9172  2.0227
  709MOL0     H95685   5.629   9.622   8.637  1.4905 -0.7826  2.4865
  709MOL0     H95686   5.655   9.468   8.557 -2.1106 -0.0239 -0.1475
  709MOL0     H95687   5.635   9.719   8.407 -0.1705 -0.0343  0.6868
  709MOL0     H95688   5.683   9.556   8.346  0.7437 -1.6687  1.5234
  709MOL0     H95689   5.421   9.619   8.497  0.0824  1.1532 -1.4565
  709MOL0     H95690   5.456   9.472   8.410 -1.6934  0.3554  1.5867
  709MOL0     H95691   5.462   9.742   8.284  0.1868 -1.4705 -1.2493
  709MOL0     H95692   5.441   9.595   8.196  0.3802 -0.7690  0.3841
  709MOL0     H95693   5.214   9.691   8.386 -4.5977  1.3074 -2.4416
  709MOL0     H95694   5.215   9.552   8.292 -1.7673  0.2836 -1.0097
  709MOL0     H95695   5.096   9.719   8.179  0.1382 -0.1538 -0.4170
  709MOL0     H95696   5.247   9.721   8.085  0.1266 -0.6344  0.8268
  709MOL0     H95697   5.922   9.324   8.670 -0.4095 -2.2709 -0.3707
  709MOL0     H95698   6.020   9.184   8.834 -1.0748  1.9745  0.9878
  709MOL0     H95699   6.162   9.062   9.108 -0.4524  0.1269  0.6478
  709MOL0     H95700   6.133   8.888   9.258 -0.4561 -2.2147 -0.5068
  709MOL0     H95701   4.814   8.575   9.971 -2.2196  0.8213  3.4236
  709MOL0     H95702   4.626   8.565   9.838  0.6599 -0.3609 -0.1182
  709MOL0     H95703   4.153   8.644   9.711  0.3680 -1.3696 -0.4934
  709MOL0     H95704   3.978   8.730   9.570 -0.5558 -2.3680 -0.3193
  709MOL0     H95705   3.830   8.777   9.312  0.3590 -0.5508 -0.4953
  709MOL0     H95706   3.874   8.861   9.457 -0.5492 -1.2224  0.5067
  709MOL0     H95707   3.820   8.974   9.183 -0.0564 -0.4271 -0.7457
  709MOL0     H95708   3.931   9.060   9.291 -2.7638  2.6874 -0.9205
  709MOL0     H95709   3.731   9.157   9.322  0.3629  0.5049  1.3720
  709MOL0     H95710   3.788   9.085   9.469  1.5564 -2.2188 -0.3583
  709MOL0     H95711   3.554   9.045   9.474 -1.1367 -0.4170 -0.5881
  709MOL0     H95712   3.650   8.891   9.445  0.7236 -0.0889 -0.8287
  709MOL0     H95713   3.437   8.912   9.089 -2.9122  2.1143  2.0888
  709MOL0     H95714   4.266   8.908   9.307 -2.8019  1.6999 -0.1547
  709MOL0     H95715   4.443   8.852   9.466 -0.0442  0.2321 -1.8931
  710MOL0     O95716   6.332  10.986   0.910 -0.8360  0.6626 -0.2703
  710MOL0     C95717   6.414  10.946   0.829  0.0902  0.2030  0.2422
  710MOL0     O95718   6.473  11.023   0.735 -0.7956  1.0130 -0.2637
  710MOL0     C95719   6.446  11.156   0.723  0.5212  0.3061 -0.6635
  710MOL0     C95720   6.330  11.217   0.773  0.9715 -0.4005  0.4239
  710MOL0     C95721   6.314  11.359   0.769  0.8531  0.5598 -0.5487
  710MOL0     C95722   6.400  11.442   0.704 -0.8610 -0.1338  0.0960
  710MOL0     O95723   6.365  11.569   0.684 -0.0427 -0.0516 -0.2836
  710MOL0     C95724   6.460  11.663   0.731 -0.1204 -0.2688  0.3904
  710MOL0     C95725   6.406  11.806   0.695 -0.1166 -0.2589  0.1947
  710MOL0     C95726   6.423  11.836   0.548  0.0554 -0.0626  0.2469
  710MOL0     C95727   6.438  11.983   0.518 -0.0423 -0.2102  0.1860
  710MOL0     C95728   6.501  12.011   0.379  0.2328 -0.0081  0.5459
  710MOL0     C95729   6.491  12.166   0.350 -0.3560  0.7410 -1.1161
  710MOL0     C95730   6.570  12.205   0.224  0.2398  0.1153  0.0005
  710MOL0     C95731   6.716  12.173   0.241  0.0016  0.2298 -0.7483
  710MOL0     N95732   6.805  12.206   0.127 -0.4746 -0.5098  0.2589
  710MOL0     C95733   6.791  12.135   0.001  0.3738 -1.4031 -0.7045
  710MOL0     C95734   6.855  12.223  -0.080 -0.5378  0.1995  0.2497
  710MOL0     C95735   6.896  12.207  -0.219 -0.1957  0.1122  1.3889
  710MOL0     C95736   6.799  12.147  -0.322 -0.2710 -0.4635 -0.2509
  710MOL0     C95737   6.676  12.244  -0.350 -0.1325  0.0957  0.0464
  710MOL0     C95738   6.582  12.185  -0.448  0.1942  0.0645 -0.6578
  710MOL0     O95739   6.538  12.287  -0.539 -0.4333  0.5627  0.7417
  710MOL0     C95740   6.425  12.351  -0.506  0.2190  0.3842  0.5061
  710MOL0     C95741   6.340  12.398  -0.610 -0.6988  0.7141 -0.1928
  710MOL0     C95742   6.217  12.460  -0.597  0.0131 -0.8068 -0.3633
  710MOL0     C95743   6.123  12.462  -0.715  0.5591 -0.3785 -0.6617
  710MOL0     C95744   6.178  12.504  -0.470 -0.5652  0.5825 -0.9719
  710MOL0     C95745   6.063  12.602  -0.442 -0.3937 -0.8958  0.0929
  710MOL0     O95746   5.990  12.592  -0.325  0.9080  1.1060 -0.1717
  710MOL0     C95747   5.883  12.671  -0.296  0.4909  0.5458  0.6531
  710MOL0     C95748   5.763  12.600  -0.282  0.0161 -0.0005 -0.2932
  710MOL0     C95749   5.646  12.676  -0.248 -0.1683  1.1064 -0.8101
  710MOL0     C95750   5.654  12.811  -0.222  0.3150  0.2693  0.1498
  710MOL0     O95751   5.549  12.884  -0.184  0.2666 -0.0871  0.7099
  710MOL0     C95752   5.433  12.821  -0.148 -0.5178  0.6517  0.2566
  710MOL0     C95753   5.320  12.916  -0.123 -0.0694 -0.2011  0.2511
  710MOL0     C95754   5.193  12.851  -0.071 -1.0374  0.0779 -0.4571
  710MOL0     C95755   5.072  12.947  -0.090 -0.4982  0.4154  0.8856
  710MOL0     C95756   4.933  12.880  -0.111  0.5178 -0.8461 -0.4726
  710MOL0     C95757   4.892  12.787  -0.000  1.0699  0.3702 -0.6784
  710MOL0     C95758   4.756  12.729  -0.038  0.4635  0.3349  0.3261
  710MOL0     C95759   4.743  12.572  -0.034  0.7889 -0.6365 -0.0300
  710MOL0    Cl95760   4.771  12.488   0.128 -0.4405 -0.1560  0.0883
  710MOL0     C95761   5.780  12.870  -0.240  0.4931 -1.0304 -0.0725
  710MOL0     C95762   5.895  12.803  -0.286  0.8515 -0.0509 -1.0729
  710MOL0     O95763   6.039  12.684  -0.531 -0.7151 -0.3098 -0.4725
  710MOL0     C95764   6.258  12.457  -0.366 -0.6250  1.1815  0.2781
  710MOL0     C95765   6.375  12.381  -0.382 -0.2945 -0.9409 -0.5687
  710MOL0     N95766   6.890  12.335  -0.019 -0.1449 -0.3194 -0.1951
  710MOL0     N95767   6.871  12.326   0.104  0.4391 -0.4168 -0.0226
  710MOL0     C95768   6.526  11.382   0.660 -0.0021  0.8997 -0.1479
  710MOL0     C95769   6.540  11.242   0.668 -0.4415  0.3723  0.0500
  710MOL0     C95770   6.443  10.803   0.833  1.1681 -0.3687  0.2575
  710MOL0     C95771   6.349  10.703   0.879  0.1263  0.5063  0.5026
  710MOL0     C95772   6.372  10.567   0.851  0.2929 -0.4802 -0.5479
  710MOL0     C95773   6.484  10.531   0.769 -0.1061  0.1234  0.0289
  710MOL0     O95774   6.499  10.395   0.756 -0.2294 -0.3819 -0.1844
  710MOL0     C95775   6.620  10.350   0.701 -0.5307 -1.1135  0.3236
  710MOL0     C95776   6.610  10.203   0.695  0.0680  0.1768  0.7620
  710MOL0     C95777   6.663  10.123   0.813  0.7972 -0.5854  0.2162
  710MOL0     C95778   6.627   9.982   0.818  0.2222  1.1679  0.4971
  710MOL0     C95779   6.494   9.949   0.868  0.8871  0.3829  0.0675
  710MOL0     C95780   6.378   9.944   0.912  0.2835  0.3208  0.0780
  710MOL0     C95781   6.571  10.629   0.716  1.1069  0.8528 -1.0444
  710MOL0     C95782   6.555  10.763   0.755 -0.2163 -0.0626 -0.2398
  710MOL0     H95783   6.241  11.180   0.824  0.5523  2.3549  1.8610
  710MOL0     H95784   6.221  11.399   0.808 -0.2803  0.0088 -2.5286
  710MOL0     H95785   6.472  11.652   0.839 -0.2385 -0.6292  0.3705
  710MOL0     H95786   6.564  11.648   0.700  0.2807 -0.1512  1.6394
  710MOL0     H95787   6.303  11.813   0.732 -1.0129 -0.1499 -2.1695
  710MOL0     H95788   6.471  11.867   0.760 -0.4186  0.5833 -0.2805
  710MOL0     H95789   6.509  11.785   0.504 -1.2985 -0.5205 -2.0517
  710MOL0     H95790   6.331  11.806   0.496  0.0813  0.2056  0.0402
  710MOL0     H95791   6.335  12.021   0.519 -0.6062 -1.5659 -1.3574
  710MOL0     H95792   6.487  12.041   0.597 -0.6471  2.5064 -1.2804
  710MOL0     H95793   6.603  11.977   0.393  0.7524  0.5734 -1.5020
  710MOL0     H95794   6.446  11.953   0.304  0.3124 -2.4074  2.2429
  710MOL0     H95795   6.385  12.193   0.344 -0.3392  1.2048  0.2907
  710MOL0     H95796   6.520  12.230   0.434  0.9810 -0.4673 -0.6161
  710MOL0     H95797   6.533  12.134   0.149  1.8691 -0.2249 -0.5368
  710MOL0     H95798   6.541  12.305   0.190 -1.2470 -0.8116 -1.5744
  710MOL0     H95799   6.731  12.072   0.278  0.1646 -0.1309 -1.7574
  710MOL0     H95800   6.750  12.232   0.327 -3.5808 -0.4043  1.3037
  710MOL0     H95801   6.743  12.043  -0.030 -0.1949 -1.3368 -0.0363
  710MOL0     H95802   6.909  12.309  -0.256 -0.5468 -0.0561  0.7952
  710MOL0     H95803   6.994  12.158  -0.230  0.6235  2.1355 -1.3216
  710MOL0     H95804   6.766  12.052  -0.279 -1.3898  0.0382  0.0719
  710MOL0     H95805   6.852  12.134  -0.416  1.9509  0.6630  0.7799
  710MOL0     H95806   6.723  12.326  -0.405 -3.1282  0.0239 -2.9519
  710MOL0     H95807   6.622  12.270  -0.258 -2.2409  0.3944 -1.2238
  710MOL0     H95808   6.500  12.134  -0.396  2.3318 -0.5593  2.3510
  710MOL0     H95809   6.626  12.116  -0.521 -1.7413 -1.5842 -0.3594
  710MOL0     H95810   6.370  12.380  -0.713 -1.6210  1.2993 -0.5769
  710MOL0     H95811   6.147  12.540  -0.787  1.2713 -1.8955 -2.1462
  710MOL0     H95812   6.131  12.368  -0.771  0.4333 -0.0434 -1.2443
  710MOL0     H95813   6.020  12.474  -0.680  0.1092 -0.8034 -1.7915
  710MOL0     H95814   5.763  12.492  -0.291 -0.1265 -0.2992  2.4206
  710MOL0     H95815   5.553  12.622  -0.233  0.0333  1.2937  1.3446
  710MOL0     H95816   5.395  12.760  -0.231 -3.4450 -1.3695  2.8586
  710MOL0     H95817   5.452  12.762  -0.058  3.0217  1.5826  0.2649
  710MOL0     H95818   5.352  12.978  -0.039  1.9976 -3.0353  1.7110
  710MOL0     H95819   5.297  12.979  -0.209  1.0110  1.5133  1.1578
  710MOL0     H95820   5.208  12.852   0.037 -1.5082  3.5767 -0.3219
  710MOL0     H95821   5.173  12.750  -0.109 -0.8766  0.1810 -0.8216
  710MOL0     H95822   5.069  13.015  -0.004  2.2292  0.6068  0.9127
  710MOL0     H95823   5.094  12.993  -0.186 -0.7729  0.0404  0.6378
  710MOL0     H95824   4.936  12.824  -0.204  1.1897 -0.5848 -0.6157
  710MOL0     H95825   4.864  12.964  -0.121  0.3119 -0.6944  1.7177
  710MOL0     H95826   4.970  12.711   0.007 -0.0646 -0.9275 -1.5690
  710MOL0     H95827   4.877  12.854   0.085 -1.1409  0.3476 -0.9949
  710MOL0     H95828   4.712  12.760  -0.133  1.0989  0.8141  0.1783
  710MOL0     H95829   4.688  12.764   0.040 -2.2583 -3.4471 -0.0725
  710MOL0     H95830   4.829  12.544  -0.096  0.0985 -0.2514 -1.1965
  710MOL0     H95831   4.653  12.534  -0.083 -0.4384  1.5368  0.3935
  710MOL0     H95832   5.785  12.978  -0.239  0.4658 -0.9661 -2.2451
  710MOL0     H95833   5.994  12.848  -0.291  0.7212  0.9229  2.4886
  710MOL0     H95834   6.232  12.490  -0.266  1.1649 -0.1570  1.2364
  710MOL0     H95835   6.419  12.369  -0.284 -0.5119 -1.3736 -0.5211
  710MOL0     H95836   6.598  11.446   0.611 -0.0535  1.3202  0.3194
  710MOL0     H95837   6.636  11.201   0.638  1.1045  2.2061  2.1473
  710MOL0     H95838   6.263  10.720   0.943 -1.7148 -0.2755 -1.6573
  710MOL0     H95839   6.299  10.502   0.898 -1.5373 -0.3289 -2.9592
  710MOL0     H95840   6.629  10.388   0.599 -0.5800 -0.6086  0.5016
  710MOL0     H95841   6.707  10.379   0.761 -1.2615  2.0434  0.0531
  710MOL0     H95842   6.663  10.170   0.605 -1.2315 -0.9424  0.3772
  710MOL0     H95843   6.509  10.167   0.675  0.0405  0.6658 -0.0135
  710MOL0     H95844   6.624  10.164   0.906  0.4960 -2.9932  1.2149
  710MOL0     H95845   6.771  10.133   0.826  0.6414  0.2957  0.9392
  710MOL0     H95846   6.695   9.915   0.871 -2.9247 -1.9902  0.9652
  710MOL0     H95847   6.635   9.951   0.713  0.4955  2.2629  0.1801
  710MOL0     H95848   6.275   9.965   0.933 -0.0160 -0.1743 -0.8273
  710MOL0     H95849   6.662  10.612   0.660  1.8626  0.0250  0.3563
  710MOL0     H95850   6.627  10.835   0.719 -2.7522  2.3087 -0.9417
  711MOL0     O95851  10.995   2.596   9.039  0.8832 -0.2768 -0.5508
  711MOL0     C95852  10.892   2.659   9.050  0.0793 -0.0767 -0.8203
  711MOL0     O95853  10.805   2.638   9.154 -0.1221  0.9638  0.6024
  711MOL0     C95854  10.836   2.544   9.260  1.2141 -0.5701  0.4440
  711MOL0     C95855  10.943   2.567   9.347 -1.0868  0.0500  0.0790
  711MOL0     C95856  10.976   2.477   9.447  0.0865  0.5482  0.3557
  711MOL0     C95857  10.897   2.358   9.460  0.2584 -0.5864  0.3756
  711MOL0     O95858  10.915   2.269   9.557  0.2453  1.0747  0.1084
  711MOL0     C95859  11.050   2.235   9.578  0.2912  0.6034 -0.8151
  711MOL0     C95860  11.068   2.120   9.682  0.5912 -0.8481  0.0077
  711MOL0     C95861  11.207   2.116   9.746  0.2385  0.0228  0.0314
  711MOL0     C95862  11.322   2.091   9.647  0.3306 -0.6684  0.0056
  711MOL0     C95863  11.457   2.101   9.722 -0.6475 -1.2413  0.4792
  711MOL0     C95864  11.498   2.244   9.730 -0.3883 -0.5337  0.8853
  711MOL0     C95865  11.642   2.262   9.763 -0.1869 -0.3326 -0.6595
  711MOL0     C95866  11.737   2.232   9.641 -0.7313  0.3553 -0.1785
  711MOL0     N95867  11.752   2.344   9.546 -0.1426  0.2311 -0.3228
  711MOL0     C95868  11.845   2.445   9.547  0.3274 -0.3682 -0.4006
  711MOL0     C95869  11.815   2.524   9.444  0.4320  0.1468  0.6448
  711MOL0     C95870  11.885   2.649   9.401  0.0055  0.0279  0.3394
  711MOL0     C95871  12.034   2.647   9.433  0.3764  0.6882  0.2800
  711MOL0     C95872  12.099   2.777   9.374  0.7312  0.1652  0.3387
  711MOL0     C95873  12.217   2.816   9.453 -0.0295 -0.2542 -0.6510
  711MOL0     O95874  12.336   2.737   9.439  0.4888  0.6646  0.6618
  711MOL0     C95875  12.410   2.753   9.325 -0.0935 -0.9332  0.2985
  711MOL0     C95876  12.519   2.670   9.301 -0.7076 -0.0318  0.1858
  711MOL0     C95877  12.590   2.664   9.177  0.3387  0.5396  0.0770
  711MOL0     C95878  12.715   2.571   9.168  0.3638 -0.5455 -0.1073
  711MOL0     C95879  12.541   2.746   9.067 -0.2262  0.9226  0.2993
  711MOL0     C95880  12.598   2.740   8.924 -0.3837 -0.4329 -0.1690
  711MOL0     O95881  12.640   2.625   8.880  0.6357 -0.1784 -0.0802
  711MOL0     C95882  12.717   2.623   8.768  0.7423 -0.3045  0.7733
  711MOL0     C95883  12.853   2.574   8.770  1.1673 -0.4485  0.3115
  711MOL0     C95884  12.932   2.590   8.654  1.5885  0.2704 -0.8976
  711MOL0     C95885  12.867   2.637   8.536  0.6905  0.2706  0.2053
  711MOL0     O95886  12.928   2.653   8.419  0.3202  0.7284  0.9776
  711MOL0     C95887  13.067   2.636   8.394 -1.1838 -0.0225 -0.3245
  711MOL0     C95888  13.125   2.490   8.379 -0.7526  1.1384 -0.9339
  711MOL0     C95889  13.278   2.469   8.401 -0.2772  0.3668  0.1252
  711MOL0     C95890  13.345   2.582   8.325  0.0251 -0.2695  0.0238
  711MOL0     C95891  13.490   2.550   8.331 -0.4993 -0.3153 -0.3995
  711MOL0     C95892  13.568   2.675   8.287 -0.2413  0.6698  0.8183
  711MOL0     C95893  13.716   2.620   8.265 -0.3593  0.9985 -0.0046
  711MOL0     C95894  13.804   2.732   8.204 -0.9610 -0.2441  0.2018
  711MOL0    Cl95895  13.857   2.838   8.337 -0.2499  0.1520  0.0232
  711MOL0     C95896  12.733   2.679   8.530  0.5166 -0.2515 -1.0673
  711MOL0     C95897  12.659   2.671   8.648 -0.0721 -0.9338 -0.0363
  711MOL0     O95898  12.592   2.845   8.858 -0.2310 -0.1803  0.0519
  711MOL0     C95899  12.438   2.834   9.092  0.0859 -0.3618 -0.9250
  711MOL0     C95900  12.375   2.847   9.218  0.2460 -0.3163 -0.5105
  711MOL0     N95901  11.707   2.468   9.385  0.1228 -0.1762 -0.2654
  711MOL0     N95902  11.666   2.367   9.443  0.6367 -0.1677  0.9865
  711MOL0     C95903  10.786   2.335   9.378 -0.5202  0.3879  0.5607
  711MOL0     C95904  10.763   2.428   9.277 -1.0295 -0.2997  0.4855
  711MOL0     C95905  10.848   2.752   8.944  0.1933  0.1789 -0.3934
  711MOL0     C95906  10.716   2.814   8.950 -1.4381 -0.7049  0.3245
  711MOL0     C95907  10.686   2.902   8.844  0.0207  0.0828 -0.0187
  711MOL0     C95908  10.767   2.921   8.729  0.6066  0.4434  0.8353
  711MOL0     O95909  10.726   3.004   8.625  0.0726  0.1910  0.7334
  711MOL0     C95910  10.815   3.054   8.519 -0.6061 -0.3202  0.3436
  711MOL0     C95911  10.725   3.098   8.409  0.7370  0.2675 -0.0003
  711MOL0     C95912  10.670   3.233   8.456  0.1758 -0.1700 -0.3281
  711MOL0     C95913  10.562   3.299   8.368 -0.3086  0.3716  0.4538
  711MOL0     C95914  10.432   3.226   8.370 -0.6144  0.6022  0.1333
  711MOL0     C95915  10.327   3.168   8.392  0.6558 -0.3629  0.2573
  711MOL0     C95916  10.898   2.868   8.739 -0.2479  0.5222  0.0880
  711MOL0     C95917  10.939   2.780   8.838  0.3480  0.2128 -0.6013
  711MOL0     H95918  11.005   2.654   9.327 -0.1774 -1.1580 -2.9438
  711MOL0     H95919  11.056   2.516   9.509 -0.2345  1.5124  0.1828
  711MOL0     H95920  11.097   2.182   9.494  0.7546 -0.3177  0.0095
  711MOL0     H95921  11.098   2.326   9.617 -3.1532  1.8616  0.8863
  711MOL0     H95922  10.994   2.135   9.761 -0.3035  0.8080 -1.0980
  711MOL0     H95923  11.060   2.025   9.628  3.0002 -1.3121  0.3898
  711MOL0     H95924  11.235   2.212   9.789 -0.5403 -0.2193  1.1267
  711MOL0     H95925  11.196   2.045   9.828  1.2607 -1.1983 -0.8529
  711MOL0     H95926  11.314   1.991   9.604  3.4987 -1.0455  0.0137
  711MOL0     H95927  11.314   2.160   9.563  0.3598 -1.4773 -0.6708
  711MOL0     H95928  11.453   2.063   9.825  0.3838 -0.3421  0.8822
  711MOL0     H95929  11.530   2.043   9.666  1.1520  0.2154  1.1923
  711MOL0     H95930  11.478   2.302   9.639 -0.2763 -0.8113  0.6815
  711MOL0     H95931  11.438   2.292   9.809 -1.1624  0.7812 -0.4383
  711MOL0     H95932  11.637   2.365   9.799 -1.8626  0.2403 -2.3697
  711MOL0     H95933  11.658   2.189   9.844 -0.9610 -0.5051 -0.6592
  711MOL0     H95934  11.708   2.144   9.584  0.8192 -0.3700  0.1140
  711MOL0     H95935  11.832   2.218   9.694  1.0633  0.2601 -3.2006
  711MOL0     H95936  11.917   2.482   9.620 -2.7570  2.4544  1.4417
  711MOL0     H95937  11.877   2.667   9.294  2.4566  0.6116  0.1929
  711MOL0     H95938  11.836   2.729   9.456  1.9793  1.4974  0.0848
  711MOL0     H95939  12.084   2.559   9.392  2.3173  0.6467  2.5002
  711MOL0     H95940  12.046   2.644   9.542  1.5992 -2.7007  0.1751
  711MOL0     H95941  12.025   2.858   9.373 -1.1359 -1.0867 -5.5929
  711MOL0     H95942  12.120   2.758   9.268  0.2833 -2.3649  0.6640
  711MOL0     H95943  12.195   2.814   9.560  0.1982 -1.5855 -0.6215
  711MOL0     H95944  12.233   2.924   9.437  0.0157  0.1826  2.0043
  711MOL0     H95945  12.551   2.598   9.377 -0.7585 -2.1823 -1.7098
  711MOL0     H95946  12.765   2.551   9.264 -0.9097  1.8750  1.1251
  711MOL0     H95947  12.691   2.472   9.127 -0.9210  0.3469 -1.5862
  711MOL0     H95948  12.788   2.622   9.104  0.4723 -2.7531 -1.8913
  711MOL0     H95949  12.897   2.530   8.858 -2.5662 -3.7646  0.8278
  711MOL0     H95950  13.036   2.558   8.655  1.4290 -0.8480 -4.3244
  711MOL0     H95951  13.078   2.683   8.296  1.2026  0.4274  0.0906
  711MOL0     H95952  13.125   2.701   8.461 -0.1048  0.5526 -1.7558
  711MOL0     H95953  13.081   2.423   8.453 -0.5748  0.3560 -1.5231
  711MOL0     H95954  13.092   2.449   8.284  1.2356 -3.6217  0.1240
  711MOL0     H95955  13.315   2.374   8.361  0.8032  1.8715 -2.6882
  711MOL0     H95956  13.307   2.474   8.507  1.0674 -0.7061 -0.1555
  711MOL0     H95957  13.321   2.590   8.218  1.3144  1.3030 -0.1917
  711MOL0     H95958  13.313   2.668   8.384 -0.2346 -0.5092  0.2369
  711MOL0     H95959  13.506   2.475   8.253 -1.6547 -0.8031 -0.2004
  711MOL0     H95960  13.522   2.514   8.429  0.5717 -2.5170 -1.4807
  711MOL0     H95961  13.549   2.716   8.187  1.2305  0.3584  0.3726
  711MOL0     H95962  13.568   2.748   8.367 -0.9776  2.6402 -0.9018
  711MOL0     H95963  13.715   2.533   8.199 -3.9965  0.0930  1.0536
  711MOL0     H95964  13.752   2.600   8.366 -1.2428  0.9588  0.3093
  711MOL0     H95965  13.754   2.791   8.127  2.3993  1.0634 -1.2059
  711MOL0     H95966  13.889   2.684   8.154  1.4238 -0.2128  3.8030
  711MOL0     H95967  12.687   2.715   8.439 -0.6820  2.1268  0.3679
  711MOL0     H95968  12.557   2.707   8.642 -0.7505 -2.8450 -0.6202
  711MOL0     H95969  12.418   2.916   9.024 -0.1410 -1.2501 -1.9435
  711MOL0     H95970  12.292   2.915   9.223 -0.3982 -1.0580 -0.8466
  711MOL0     H95971  10.727   2.245   9.366  0.1626  0.1053 -0.8675
  711MOL0     H95972  10.692   2.391   9.203 -0.0768  1.1322 -1.2519
  711MOL0     H95973  10.652   2.794   9.035 -1.7168 -1.2199 -0.0029
  711MOL0     H95974  10.595   2.962   8.846  0.0553  0.1402 -0.1610
  711MOL0     H95975  10.872   3.145   8.541 -1.7062  0.5549 -0.3053
  711MOL0     H95976  10.879   2.974   8.482 -0.5301 -0.5266  0.9099
  711MOL0     H95977  10.638   3.032   8.402  1.2021 -0.1955 -2.4606
  711MOL0     H95978  10.789   3.106   8.320 -1.1845  0.6330 -1.4249
  711MOL0     H95979  10.749   3.306   8.476  0.1339  1.3078 -4.6455
  711MOL0     H95980  10.620   3.214   8.552  0.3887 -1.6612 -0.4834
  711MOL0     H95981  10.599   3.299   8.265  1.7217 -0.1889  1.1370
  711MOL0     H95982  10.550   3.404   8.397  3.1775  0.0996  3.6577
  711MOL0     H95983  10.236   3.117   8.415  0.9872 -0.6500  0.9410
  711MOL0     H95984  10.976   2.888   8.666 -0.0477 -0.1380  0.1096
  711MOL0     H95985  11.038   2.738   8.853  0.6350  1.7652  2.8542
  712MOL0     O95986   7.587   4.827   1.603  0.2926  0.2561 -0.1036
  712MOL0     C95987   7.568   4.751   1.695 -0.0296  0.2431 -0.2540
  712MOL0     O95988   7.451   4.680   1.722 -0.1044 -0.0536  0.8984
  712MOL0     C95989   7.348   4.714   1.641 -0.2803 -0.3106 -0.0232
  712MOL0     C95990   7.239   4.785   1.694 -0.1884 -0.6512 -0.0990
  712MOL0     C95991   7.128   4.821   1.625  0.3468 -1.0967  1.1770
  712MOL0     C95992   7.128   4.785   1.483  1.4481  0.1276  0.2045
  712MOL0     O95993   7.026   4.803   1.393 -0.1749 -0.8665 -0.1872
  712MOL0     C95994   6.970   4.943   1.391 -0.1819  0.5224  0.9269
  712MOL0     C95995   7.067   5.052   1.350  0.4671  1.2682 -0.7975
  712MOL0     C95996   6.982   5.177   1.325  0.9762 -0.0120 -0.3443
  712MOL0     C95997   7.070   5.292   1.277 -0.4721  0.4165  0.4941
  712MOL0     C95998   7.013   5.430   1.261 -0.3322 -0.5268 -0.3830
  712MOL0     C95999   6.944   5.488   1.383  0.1906 -0.3390 -0.3728
  712MOL0     C96000   6.927   5.639   1.361 -0.0909  0.2677  0.5384
  712MOL0     C96001   6.895   5.701   1.497 -0.7490  0.4738 -0.5265
  712MOL0     N96002   6.872   5.841   1.491  0.0502 -1.0054  0.5205
  712MOL0     C96003   6.978   5.929   1.475  0.7362  0.0771 -0.9137
  712MOL0     C96004   6.918   6.057   1.471  0.2831  0.8196  0.4138
  712MOL0     C96005   7.006   6.171   1.457 -0.6984  0.2531 -0.9882
  712MOL0     C96006   7.064   6.180   1.318  0.0222 -0.0031 -0.2886
  712MOL0     C96007   7.187   6.273   1.312 -0.0840 -0.0528  0.1978
  712MOL0     C96008   7.237   6.284   1.170 -0.3897  0.0689  0.3391
  712MOL0     O96009   7.295   6.157   1.126 -0.2248 -0.9038 -0.3701
  712MOL0     C96010   7.404   6.158   1.047 -0.0167  0.6085  0.1532
  712MOL0     C96011   7.488   6.048   1.053  0.5942  0.1541 -0.1690
  712MOL0     C96012   7.606   6.037   0.973  0.2437 -0.1478  0.2311
  712MOL0     C96013   7.690   5.912   0.997  0.8310 -0.0460 -0.2758
  712MOL0     C96014   7.633   6.143   0.886 -0.1686  0.3886 -0.3009
  712MOL0     C96015   7.753   6.134   0.802  0.7527 -0.4449 -0.6276
  712MOL0     O96016   7.762   6.031   0.714  0.0902  0.0406 -0.3285
  712MOL0     C96017   7.875   6.002   0.650  0.3064 -0.0923 -1.4083
  712MOL0     C96018   8.008   6.037   0.684 -0.0231  0.8901  0.4132
  712MOL0     C96019   8.118   5.980   0.611 -0.2592  0.2808  0.6527
  712MOL0     C96020   8.094   5.881   0.521 -0.3458 -0.9499  0.0814
  712MOL0     O96021   8.198   5.830   0.450 -0.3587  0.2869 -0.4643
  712MOL0     C96022   8.199   5.828   0.311  0.8708  0.1057  0.0189
  712MOL0     C96023   8.244   5.964   0.244  0.0969  0.4858 -0.3105
  712MOL0     C96024   8.382   6.015   0.284 -0.8412 -0.0027 -0.2696
  712MOL0     C96025   8.488   5.914   0.335 -0.2961  0.2442 -0.4248
  712MOL0     C96026   8.628   5.974   0.322  0.1551 -0.0038  0.3156
  712MOL0     C96027   8.663   6.076   0.435  0.8965 -0.5265 -0.1672
  712MOL0     C96028   8.672   6.027   0.578  0.6971 -0.6033 -0.5209
  712MOL0     C96029   8.641   6.140   0.681  0.5468 -0.3937 -0.2719
  712MOL0    Cl96030   8.464   6.218   0.670 -0.2141 -0.3204 -0.2496
  712MOL0     C96031   7.962   5.850   0.485 -0.0078  0.6730 -1.2468
  712MOL0     C96032   7.854   5.905   0.547 -0.1178 -0.4305  0.0945
  712MOL0     O96033   7.821   6.237   0.799  0.5981 -0.0910  0.4291
  712MOL0     C96034   7.544   6.251   0.872 -1.1275  0.5571 -0.0704
  712MOL0     C96035   7.438   6.265   0.961  0.6602  0.6494 -0.4840
  712MOL0     N96036   6.785   6.037   1.461 -0.1707  0.2566  0.7079
  712MOL0     N96037   6.756   5.912   1.465  1.1003  0.2012 -0.9284
  712MOL0     C96038   7.236   4.718   1.418 -0.3081 -0.8097 -1.0978
  712MOL0     C96039   7.348   4.688   1.498 -0.3301 -0.0400  0.5327
  712MOL0     C96040   7.683   4.723   1.792  0.2222  0.3532 -0.7290
  712MOL0     C96041   7.667   4.625   1.892 -0.3007  0.1983  0.0187
  712MOL0     C96042   7.780   4.599   1.982 -1.0102  0.2226  0.1614
  712MOL0     C96043   7.902   4.663   1.966  0.6538 -0.6261 -0.1078
  712MOL0     O96044   8.000   4.647   2.061 -0.4721  0.0751  0.2590
  712MOL0     C96045   7.978   4.698   2.190  0.1174 -0.5995 -0.8592
  712MOL0     C96046   8.026   4.842   2.200  1.0750 -0.5133 -0.8669
  712MOL0     C96047   8.180   4.859   2.165  0.5059  1.0176 -0.5637
  712MOL0     C96048   8.232   4.992   2.216  0.0457  0.1475 -0.3068
  712MOL0     C96049   8.365   5.039   2.174 -0.1277  0.8534  0.1768
  712MOL0     C96050   8.472   5.083   2.141 -0.5804  0.1880  0.0190
  712MOL0     C96051   7.916   4.768   1.871  0.0360 -0.8221  0.4742
  712MOL0     C96052   7.807   4.793   1.782 -0.7438  0.2515  0.0407
  712MOL0     H96053   7.231   4.812   1.798 -0.4735  1.1385 -0.5557
  712MOL0     H96054   7.043   4.872   1.667 -0.0018 -0.4963 -0.1829
  712MOL0     H96055   6.896   4.940   1.311 -1.0514  1.1518  1.6832
  712MOL0     H96056   6.917   4.969   1.483  1.8550  0.1476  2.2813
  712MOL0     H96057   7.133   5.079   1.433 -2.1758  3.1713  0.8163
  712MOL0     H96058   7.130   5.030   1.263  0.9914 -0.8310  0.0491
  712MOL0     H96059   6.896   5.167   1.258 -0.7551  1.6969  1.4794
  712MOL0     H96060   6.934   5.204   1.420  0.9775 -0.4643 -0.2115
  712MOL0     H96061   7.155   5.293   1.345 -0.5085  3.6579  0.6233
  712MOL0     H96062   7.105   5.262   1.178  0.3915  0.5631  0.7497
  712MOL0     H96063   7.098   5.494   1.235 -1.0414  1.9663  2.8120
  712MOL0     H96064   6.943   5.432   1.177 -2.3173 -0.9621  1.1929
  712MOL0     H96065   6.849   5.439   1.407  0.1455  0.1919  0.5979
  712MOL0     H96066   7.006   5.471   1.471  0.2826 -2.7812 -0.8429
  712MOL0     H96067   7.015   5.692   1.323  0.4167  0.0609  1.4071
  712MOL0     H96068   6.849   5.660   1.288  0.8451  2.2933  0.0598
  712MOL0     H96069   6.973   5.676   1.570 -1.6530 -0.0703  0.2711
  712MOL0     H96070   6.803   5.649   1.525 -1.3106  1.0715 -1.2158
  712MOL0     H96071   7.083   5.900   1.484  0.4490 -0.9396 -0.7817
  712MOL0     H96072   6.952   6.260   1.487 -0.1307 -0.3031  1.9602
  712MOL0     H96073   7.090   6.166   1.527 -1.4281  0.4030 -0.0972
  712MOL0     H96074   6.994   6.211   1.240 -0.5563  3.1059  1.2847
  712MOL0     H96075   7.099   6.080   1.291  0.8173  0.1674  0.0670
  712MOL0     H96076   7.274   6.238   1.368  3.0792  0.3594 -4.0059
  712MOL0     H96077   7.154   6.368   1.355  0.4730 -0.7510  2.3000
  712MOL0     H96078   7.317   6.358   1.177  0.4256 -0.9262  4.3305
  712MOL0     H96079   7.160   6.306   1.096  0.1972  0.9433 -0.0248
  712MOL0     H96080   7.463   5.974   1.128  1.4509 -0.8543 -0.8558
  712MOL0     H96081   7.728   5.912   1.100 -0.2132 -2.4485  0.1732
  712MOL0     H96082   7.626   5.824   0.999 -0.9195  1.1672 -0.6932
  712MOL0     H96083   7.763   5.897   0.917 -1.1532  2.3356 -2.7082
  712MOL0     H96084   8.019   6.124   0.747  0.4936  2.3334 -1.5541
  712MOL0     H96085   8.217   6.022   0.627  1.6134 -3.6520  0.6141
  712MOL0     H96086   8.277   5.758   0.279 -0.9735 -1.6530 -0.7877
  712MOL0     H96087   8.110   5.781   0.270  1.9354 -2.4384  0.4152
  712MOL0     H96088   8.234   5.937   0.138  1.2834  0.5335 -0.4452
  712MOL0     H96089   8.164   6.031   0.274  1.2880  1.0432  1.8406
  712MOL0     H96090   8.363   6.078   0.372 -2.2179 -0.4407 -0.2347
  712MOL0     H96091   8.432   6.081   0.212  0.3050 -1.8904 -1.2683
  712MOL0     H96092   8.471   5.867   0.432 -1.3032 -2.4574 -1.8050
  712MOL0     H96093   8.485   5.832   0.263 -3.0927 -0.2220  0.1135
  712MOL0     H96094   8.638   6.032   0.230 -3.3007  2.9156  1.5778
  712MOL0     H96095   8.701   5.893   0.323 -0.8180 -1.0889 -3.0902
  712MOL0     H96096   8.761   6.118   0.407  1.5084 -1.8769 -0.1265
  712MOL0     H96097   8.593   6.160   0.425  0.8387 -0.3746  1.2916
  712MOL0     H96098   8.773   5.989   0.593  0.7910  0.0692  0.6668
  712MOL0     H96099   8.602   5.943   0.590 -0.5758  0.1012 -2.4690
  712MOL0     H96100   8.702   6.228   0.658 -1.2407  1.3650  1.3363
  712MOL0     H96101   8.648   6.101   0.783  0.9714  0.4440  0.0346
  712MOL0     H96102   7.941   5.800   0.390 -0.6084 -0.1974 -0.6743
  712MOL0     H96103   7.754   5.872   0.521  0.2838 -3.0458  1.5562
  712MOL0     H96104   7.557   6.329   0.797  2.1365  1.9796  1.7604
  712MOL0     H96105   7.361   6.339   0.941 -0.5757 -1.0888 -2.5075
  712MOL0     H96106   7.220   4.677   1.318  1.2128 -1.3582 -1.1431
  712MOL0     H96107   7.421   4.629   1.444  1.2139  2.7929 -0.6728
  712MOL0     H96108   7.568   4.581   1.903 -0.3442 -0.1179 -1.4471
  712MOL0     H96109   7.766   4.540   2.072 -3.0552  2.1716  1.2396
  712MOL0     H96110   7.872   4.700   2.218  0.3052 -1.8156  0.0198
  712MOL0     H96111   8.039   4.651   2.267  1.5752  0.4027 -1.3673
  712MOL0     H96112   8.012   4.877   2.303 -0.9271  1.9437 -1.8684
  712MOL0     H96113   7.965   4.907   2.137  0.6854  1.2768  1.2491
  712MOL0     H96114   8.194   4.847   2.057 -0.2350 -3.4006 -0.3387
  712MOL0     H96115   8.245   4.785   2.212  0.5800  0.1441 -1.9619
  712MOL0     H96116   8.234   4.979   2.325  1.3924 -0.5260 -0.3917
  712MOL0     H96117   8.162   5.067   2.176 -0.3677 -1.8061 -3.6083
  712MOL0     H96118   8.566   5.113   2.100  1.4516 -0.3598  3.8929
  712MOL0     H96119   8.014   4.808   1.847 -0.9156  0.8004 -0.8867
  712MOL0     H96120   7.819   4.860   1.697  1.7380  0.9168  0.8271
  713MOL0     O96121   7.058  10.272   0.789  0.1462  0.3271  0.0253
  713MOL0     C96122   7.146  10.220   0.858 -0.7938 -0.9597 -0.1444
  713MOL0     O96123   7.134  10.149   0.969  0.9260  0.3488 -0.0644
  713MOL0     C96124   7.021  10.184   1.042  0.7233  0.6163  0.2711
  713MOL0     C96125   7.001  10.315   1.094 -0.1076 -0.1071 -0.2158
  713MOL0     C96126   6.880  10.352   1.150  0.1129  0.3535 -1.6721
  713MOL0     C96127   6.778  10.259   1.159  0.6606 -0.0158 -0.1306
  713MOL0     O96128   6.673  10.275   1.241  0.0858 -0.0095  0.4093
  713MOL0     C96129   6.609  10.396   1.242 -0.2442 -0.0542  0.4611
  713MOL0     C96130   6.483  10.394   1.324 -0.1828  0.1520 -1.4644
  713MOL0     C96131   6.389  10.512   1.328  0.0206  0.1881 -0.3220
  713MOL0     C96132   6.294  10.498   1.441  0.1150  0.1232  0.7431
  713MOL0     C96133   6.162  10.567   1.416 -0.2823  0.3962  0.9117
  713MOL0     C96134   6.093  10.543   1.270  0.0036  0.2021  0.1979
  713MOL0     C96135   5.944  10.568   1.287 -0.0780  0.6144  0.1696
  713MOL0     C96136   5.886  10.540   1.152  0.3477 -0.1860 -0.5594
  713MOL0     N96137   5.737  10.544   1.159  0.5775  0.9955 -0.4412
  713MOL0     C96138   5.654  10.441   1.163 -0.1808 -0.2630  0.4591
  713MOL0     C96139   5.529  10.492   1.177  0.2534 -0.5549 -0.6482
  713MOL0     C96140   5.405  10.402   1.178 -0.7945 -0.3180  0.5495
  713MOL0     C96141   5.429  10.264   1.248 -0.0093 -0.1080 -0.3233
  713MOL0     C96142   5.292  10.194   1.278  0.0987  0.0419  0.8429
  713MOL0     C96143   5.181  10.172   1.167 -0.1525  0.4833 -0.4683
  713MOL0     O96144   5.145  10.295   1.108  0.6159 -0.5086 -0.8915
  713MOL0     C96145   5.014  10.336   1.128  0.3971 -0.3322 -0.0068
  713MOL0     C96146   4.908  10.252   1.132 -0.4434  0.4296 -0.4445
  713MOL0     C96147   4.782  10.273   1.190  0.1712  0.2178  0.2848
  713MOL0     C96148   4.679  10.169   1.199  0.9329  0.9857  0.4674
  713MOL0     C96149   4.754  10.414   1.229  0.5599  0.0057  0.1121
  713MOL0     C96150   4.624  10.464   1.280  0.2269  0.3965 -0.6268
  713MOL0     O96151   4.551  10.384   1.365  0.1291  0.3407  0.0084
  713MOL0     C96152   4.434  10.442   1.420  0.8737  0.2277 -0.1906
  713MOL0     C96153   4.319  10.420   1.344  0.5498  0.7245 -0.5586
  713MOL0     C96154   4.195  10.449   1.392 -0.4358 -0.5186 -0.3686
  713MOL0     C96155   4.174  10.532   1.501  0.9851 -0.6438 -0.3871
  713MOL0     O96156   4.045  10.577   1.529 -0.5651 -0.0029  0.2206
  713MOL0     C96157   3.931  10.496   1.491 -0.9844 -0.3398 -0.0107
  713MOL0     C96158   3.840  10.499   1.618  0.1887  0.0424  0.0921
  713MOL0     C96159   3.692  10.478   1.569  0.0918 -0.4064 -0.0951
  713MOL0     C96160   3.577  10.505   1.675  0.2656 -0.3247  0.4853
  713MOL0     C96161   3.441  10.534   1.628 -0.1606  0.1903 -0.5738
  713MOL0     C96162   3.414  10.440   1.509 -0.2944  0.0848 -0.6439
  713MOL0     C96163   3.268  10.434   1.490  0.0618 -0.2076  0.4904
  713MOL0     C96164   3.240  10.296   1.433  0.6394 -0.5038  0.8283
  713MOL0    Cl96165   3.069  10.258   1.392 -0.6623  0.1047  0.0789
  713MOL0     C96166   4.281  10.551   1.584  0.3499  0.0775  0.5069
  713MOL0     C96167   4.416  10.518   1.540 -0.5704  0.3491  0.6661
  713MOL0     O96168   4.585  10.572   1.244 -0.5224 -0.7250  0.6606
  713MOL0     C96169   4.862  10.500   1.217 -0.6678 -0.1436  0.0898
  713MOL0     C96170   4.992  10.466   1.168  0.3444 -0.5863 -0.7209
  713MOL0     N96171   5.532  10.631   1.171  0.0754 -0.2271 -0.4815
  713MOL0     N96172   5.656  10.653   1.151 -0.0532 -0.4115 -0.3007
  713MOL0     C96173   6.803  10.122   1.118 -0.5575 -0.2230 -0.2749
  713MOL0     C96174   6.929  10.083   1.070  0.5225 -1.0630 -1.0886
  713MOL0     C96175   7.285  10.206   0.800 -1.4895 -0.5893  0.2427
  713MOL0     C96176   7.307  10.291   0.690  0.0980 -0.1045  0.8320
  713MOL0     C96177   7.429  10.269   0.623 -0.0899  0.6642 -0.0604
  713MOL0     C96178   7.536  10.191   0.663  1.1929 -0.0807  0.1016
  713MOL0     O96179   7.651  10.183   0.593 -0.7022  0.0960 -0.3099
  713MOL0     C96180   7.775  10.160   0.653  0.0108 -0.4891  0.5735
  713MOL0     C96181   7.809  10.270   0.752 -0.1124  0.3109 -0.9529
  713MOL0     C96182   7.819  10.409   0.695 -0.4089 -0.8092 -0.4829
  713MOL0     C96183   7.847  10.517   0.805  0.2573  0.5859 -0.2128
  713MOL0     C96184   7.987  10.521   0.859  1.2362  0.6134 -0.2514
  713MOL0     C96185   8.105  10.524   0.898  1.1243 -0.2980 -0.3571
  713MOL0     C96186   7.519  10.125   0.788 -0.1122 -0.0784  0.3431
  713MOL0     C96187   7.394  10.127   0.849  1.0770 -0.0490 -0.3808
  713MOL0     H96188   7.075  10.393   1.080  1.2233 -1.2130  0.3982
  713MOL0     H96189   6.867  10.457   1.176  1.3687  0.2606 -0.4900
  713MOL0     H96190   6.682  10.459   1.295  1.6286  1.4350 -3.4938
  713MOL0     H96191   6.587  10.420   1.138 -3.2789  1.2693  1.3106
  713MOL0     H96192   6.423  10.305   1.308  0.6860 -0.8682  0.5484
  713MOL0     H96193   6.521  10.378   1.425 -0.1702 -1.7526 -1.7490
  713MOL0     H96194   6.454  10.599   1.329 -0.1010  0.2869  1.4528
  713MOL0     H96195   6.332  10.514   1.234 -1.1059  1.7919  0.3539
  713MOL0     H96196   6.266  10.392   1.441  0.3233  0.0579  1.5206
  713MOL0     H96197   6.342  10.529   1.534  0.5052 -0.1867  0.6468
  713MOL0     H96198   6.095  10.527   1.494 -0.8601 -1.0548 -0.2685
  713MOL0     H96199   6.164  10.673   1.442 -0.2339  0.5606  0.2401
  713MOL0     H96200   6.133  10.617   1.200 -1.9507  1.5827  0.4605
  713MOL0     H96201   6.116  10.442   1.236 -2.4858 -0.2323 -0.4019
  713MOL0     H96202   5.901  10.504   1.364  1.7982  1.6914  2.2175
  713MOL0     H96203   5.938  10.673   1.315 -2.2440  0.4130  0.6797
  713MOL0     H96204   5.917  10.440   1.118  0.7521 -0.2866  0.0808
  713MOL0     H96205   5.940  10.614   1.093 -0.3651  3.5611  3.0472
  713MOL0     H96206   5.674  10.334   1.162  0.1432 -0.2660 -3.0392
  713MOL0     H96207   5.328  10.455   1.236  0.0071  1.6965 -0.1539
  713MOL0     H96208   5.368  10.391   1.076 -1.3750  3.4501  0.2099
  713MOL0     H96209   5.479  10.286   1.343  0.9417 -1.3818 -0.5094
  713MOL0     H96210   5.489  10.199   1.184 -0.9548 -1.2045 -0.1222
  713MOL0     H96211   5.251  10.252   1.361 -2.1818  1.6317 -1.2153
  713MOL0     H96212   5.307  10.092   1.312  0.2842  1.0237  3.9789
  713MOL0     H96213   5.105  10.118   1.225  1.7860 -0.2703  1.5307
  713MOL0     H96214   5.221  10.102   1.093 -2.8023 -1.2061 -0.4383
  713MOL0     H96215   4.931  10.153   1.094 -2.7526 -0.3160 -0.0867
  713MOL0     H96216   4.728  10.076   1.229  0.1930  0.6712  0.7261
  713MOL0     H96217   4.609  10.175   1.283  1.7235  0.4252  1.1859
  713MOL0     H96218   4.619  10.156   1.109 -1.6880  1.0340  2.1045
  713MOL0     H96219   4.332  10.370   1.249  1.7491 -1.4085  0.6426
  713MOL0     H96220   4.114  10.443   1.319 -0.6166  3.4164 -0.7379
  713MOL0     H96221   3.896  10.552   1.404  0.5792  0.3624 -0.2225
  713MOL0     H96222   3.955  10.391   1.473 -0.5204 -0.6874  2.3461
  713MOL0     H96223   3.864  10.416   1.685 -3.0235 -1.3693 -0.3379
  713MOL0     H96224   3.853  10.595   1.668  0.2378 -0.5750  1.2988
  713MOL0     H96225   3.684  10.379   1.524 -0.3464  1.0978 -3.7010
  713MOL0     H96226   3.673  10.541   1.481  1.7350  1.4311  0.7926
  713MOL0     H96227   3.570  10.416   1.738 -0.4714  0.2692  1.2696
  713MOL0     H96228   3.600  10.591   1.740 -4.2287 -1.1685  3.6378
  713MOL0     H96229   3.430  10.639   1.599  2.2408  1.7021  3.2056
  713MOL0     H96230   3.370  10.522   1.710  0.6416 -2.3337 -0.1494
  713MOL0     H96231   3.463  10.471   1.417  0.7082 -0.2589 -0.2410
  713MOL0     H96232   3.457  10.342   1.533 -0.9561  0.0857  0.6444
  713MOL0     H96233   3.241  10.510   1.417 -0.7804 -1.0719 -0.1327
  713MOL0     H96234   3.215  10.453   1.584  2.9948 -3.7286  3.1937
  713MOL0     H96235   3.278  10.220   1.502  1.3420  0.3615  1.4226
  713MOL0     H96236   3.298  10.280   1.342 -1.7130 -2.0013 -0.5222
  713MOL0     H96237   4.276  10.603   1.679 -1.3535  4.2629 -1.6446
  713MOL0     H96238   4.504  10.546   1.597 -0.7153  2.8623 -0.2187
  713MOL0     H96239   4.835  10.601   1.243 -1.7980 -0.8437  1.8578
  713MOL0     H96240   5.065  10.546   1.167 -0.9430  0.8051  2.4641
  713MOL0     H96241   6.728  10.047   1.139 -1.8454  1.5508  1.8920
  713MOL0     H96242   6.954   9.981   1.042  0.4948 -1.0724 -1.0797
  713MOL0     H96243   7.235  10.367   0.662 -0.7963 -0.9907  0.6673
  713MOL0     H96244   7.431  10.329   0.533  0.9709  0.0213 -0.4836
  713MOL0     H96245   7.776  10.056   0.686  0.1827 -1.3009 -1.7907
  713MOL0     H96246   7.848  10.163   0.571 -1.4627  2.0486 -0.7953
  713MOL0     H96247   7.899  10.235   0.804 -1.3936  0.2630  1.3517
  713MOL0     H96248   7.733  10.268   0.830  2.0388 -0.9597  1.2417
  713MOL0     H96249   7.723  10.435   0.650  0.2962  1.3510 -0.8594
  713MOL0     H96250   7.897  10.426   0.619 -1.0866  0.9488 -0.8233
  713MOL0     H96251   7.767  10.509   0.879  1.3965  0.9246  1.0840
  713MOL0     H96252   7.839  10.616   0.758  0.2932 -0.6426 -2.9885
  713MOL0     H96253   8.204  10.488   0.919  0.0002 -3.8888 -0.4953
  713MOL0     H96254   7.594  10.065   0.839  1.1467  2.0416  1.1079
  713MOL0     H96255   7.374  10.060   0.933 -2.4502 -0.1924 -1.1714
  714MOL0     O96256   6.939   9.235   1.260 -0.2711 -0.7604  0.2693
  714MOL0     C96257   6.917   9.134   1.316 -0.6412 -0.1436  0.2479
  714MOL0     O96258   6.799   9.070   1.321 -0.1884  0.3216  0.3113
  714MOL0     C96259   6.698   9.119   1.249 -0.2460  0.4154  0.4330
  714MOL0     C96260   6.696   9.131   1.107 -0.1056  0.5461 -0.3070
  714MOL0     C96261   6.584   9.168   1.029 -0.1691  0.2142  0.5143
  714MOL0     C96262   6.470   9.220   1.102 -0.4999  0.4429 -0.1266
  714MOL0     O96263   6.351   9.271   1.058  0.3425  0.5559  0.8263
  714MOL0     C96264   6.340   9.305   0.917  0.2886 -0.6069 -0.1469
  714MOL0     C96265   6.193   9.329   0.875  0.4734 -0.6663 -0.3416
  714MOL0     C96266   6.190   9.380   0.731  0.0261 -0.1296  0.5229
  714MOL0     C96267   6.260   9.516   0.720 -0.4309  0.4936 -0.0722
  714MOL0     C96268   6.226   9.595   0.597  0.8328 -1.1191  0.3177
  714MOL0     C96269   6.310   9.719   0.594  0.7517  0.1921  1.0925
  714MOL0     C96270   6.277   9.816   0.490  0.0775  0.5289  0.2696
  714MOL0     C96271   6.389   9.842   0.394  0.6363  0.0229  0.2999
  714MOL0     N96272   6.351   9.955   0.303  0.2615  0.7151 -0.3976
  714MOL0     C96273   6.309  10.083   0.340  1.1172  0.0622 -0.2929
  714MOL0     C96274   6.273  10.145   0.228  0.3714  0.5811  0.3451
  714MOL0     C96275   6.226  10.290   0.207  0.0567  1.3059 -1.2042
  714MOL0     C96276   6.336  10.407   0.230 -0.1437  0.6188 -0.4628
  714MOL0     C96277   6.467  10.394   0.147  1.6747  0.0266  0.8930
  714MOL0     C96278   6.438  10.389  -0.005  0.0580  0.1631 -0.2790
  714MOL0     O96279   6.554  10.408  -0.075  0.3398 -0.4243  0.3190
  714MOL0     C96280   6.666  10.323  -0.061  0.4554  0.5186  0.2676
  714MOL0     C96281   6.639  10.188  -0.023  0.0931  0.4246 -0.4064
  714MOL0     C96282   6.747  10.098  -0.013 -0.0509 -0.4289  0.6189
  714MOL0     C96283   6.710   9.962   0.040  0.4277  0.1332  0.2307
  714MOL0     C96284   6.879  10.144  -0.034 -0.3749 -0.7776  0.0608
  714MOL0     C96285   7.006  10.063  -0.020  0.1480 -1.3321  0.6746
  714MOL0     O96286   7.113  10.138   0.037 -0.4178 -0.5702  0.1644
  714MOL0     C96287   7.235  10.080   0.054 -0.6711 -0.6291 -0.4051
  714MOL0     C96288   7.348  10.132  -0.011  0.0951 -0.5733  0.7565
  714MOL0     C96289   7.468  10.068  -0.018 -0.7859 -0.3234  0.1528
  714MOL0     C96290   7.479   9.954   0.058 -0.6251  0.1142  0.3801
  714MOL0     O96291   7.597   9.898   0.060 -0.6711  0.6939 -0.0786
  714MOL0     C96292   7.612   9.751   0.064 -0.1323  0.0461 -0.3099
  714MOL0     C96293   7.717   9.712  -0.047  0.2954 -0.0956  0.0793
  714MOL0     C96294   7.854   9.751  -0.015 -0.5522  0.6337 -0.0808
  714MOL0     C96295   7.953   9.742  -0.133  0.4720  0.9778  0.7835
  714MOL0     C96296   8.104   9.781  -0.104  0.1186  0.0872  0.0676
  714MOL0     C96297   8.193   9.677  -0.025  0.0618 -0.3151 -0.1721
  714MOL0     C96298   8.331   9.723   0.012  0.0246  0.6792 -0.8097
  714MOL0     C96299   8.380   9.649   0.134  0.1331 -0.1948  0.3542
  714MOL0    Cl96300   8.425   9.484   0.068 -0.0220  0.0660 -0.6242
  714MOL0     C96301   7.380   9.904   0.142  0.5944  0.0689  0.5643
  714MOL0     C96302   7.252   9.973   0.140 -1.1265 -0.2340  1.0383
  714MOL0     O96303   7.012   9.949  -0.060  0.4878 -0.4076  0.1578
  714MOL0     C96304   6.902  10.273  -0.082 -0.8424 -0.1136  0.4486
  714MOL0     C96305   6.793  10.365  -0.096 -0.5951 -0.1931  0.1810
  714MOL0     N96306   6.300  10.060   0.126 -0.3758  0.5447 -0.6198
  714MOL0     N96307   6.338   9.939   0.171 -0.3444  0.6422  0.0643
  714MOL0     C96308   6.481   9.209   1.241 -0.2981  0.0556  0.2194
  714MOL0     C96309   6.591   9.155   1.317 -0.1171 -0.2083 -0.3539
  714MOL0     C96310   7.039   9.052   1.350 -0.2315  0.6722 -0.0387
  714MOL0     C96311   7.168   9.085   1.307  0.4152  0.0434  0.1671
  714MOL0     C96312   7.281   9.027   1.350  0.5718  0.4012  0.1650
  714MOL0     C96313   7.265   8.940   1.463 -0.8617 -0.0309 -0.2629
  714MOL0     O96314   7.381   8.900   1.511 -0.1968  0.3171  0.1045
  714MOL0     C96315   7.375   8.782   1.584  0.0375  0.0278  0.2768
  714MOL0     C96316   7.518   8.755   1.631  1.0080 -0.4974 -0.3741
  714MOL0     C96317   7.544   8.618   1.706 -0.2139 -0.1097 -0.5255
  714MOL0     C96318   7.542   8.498   1.619 -0.1329 -0.3251  0.0032
  714MOL0     C96319   7.649   8.479   1.514  1.0230  0.1219  1.4059
  714MOL0     C96320   7.744   8.489   1.442  0.1328 -0.3090 -0.3959
  714MOL0     C96321   7.138   8.893   1.503 -0.0580  0.0772  0.5995
  714MOL0     C96322   7.033   8.948   1.440 -0.3351  0.4295  0.6120
  714MOL0     H96323   6.779   9.083   1.058 -2.2939 -2.8116 -1.0907
  714MOL0     H96324   6.593   9.167   0.921  0.3095  0.0206  0.5546
  714MOL0     H96325   6.390   9.401   0.899 -1.0773  0.2687  0.5679
  714MOL0     H96326   6.386   9.228   0.854  2.3060  0.9567 -0.7157
  714MOL0     H96327   6.143   9.232   0.883  0.0730 -0.6104 -1.8850
  714MOL0     H96328   6.139   9.393   0.946 -0.7823 -1.6723 -0.3489
  714MOL0     H96329   6.237   9.302   0.671  0.0156 -0.2593  0.6831
  714MOL0     H96330   6.088   9.387   0.692  0.7358 -0.1860 -1.4190
  714MOL0     H96331   6.259   9.579   0.809  4.0173  0.0854  0.4913
  714MOL0     H96332   6.366   9.492   0.723 -0.5124 -0.2309  4.5996
  714MOL0     H96333   6.257   9.527   0.516 -2.2983  0.3131 -2.3353
  714MOL0     H96334   6.120   9.617   0.582  1.0455 -0.5591 -0.4641
  714MOL0     H96335   6.298   9.770   0.690 -0.9073 -3.0784  2.8089
  714MOL0     H96336   6.411   9.684   0.570 -1.3210 -4.3606 -2.6372
  714MOL0     H96337   6.191   9.780   0.432 -0.9096  2.4600  0.4573
  714MOL0     H96338   6.245   9.909   0.537  4.1639  2.2713 -0.0458
  714MOL0     H96339   6.423   9.755   0.338 -0.2271  0.2928 -0.6623
  714MOL0     H96340   6.477   9.881   0.447  1.1534 -1.3478  0.4722
  714MOL0     H96341   6.325  10.131   0.437 -0.5080  0.3483 -0.1474
  714MOL0     H96342   6.168  10.287   0.115 -3.2780  0.2237  0.7610
  714MOL0     H96343   6.153  10.313   0.285 -2.0016 -0.3449 -2.5602
  714MOL0     H96344   6.370  10.405   0.334  1.8927  1.3045 -1.0709
  714MOL0     H96345   6.295  10.506   0.208 -0.9035  1.0729  2.6369
  714MOL0     H96346   6.517  10.304   0.185 -0.6679 -1.1391  1.4389
  714MOL0     H96347   6.525  10.485   0.165 -0.4943  1.6292  0.1538
  714MOL0     H96348   6.366  10.466  -0.034  0.3830  0.3443 -0.6143
  714MOL0     H96349   6.400  10.291  -0.035  0.7482 -0.9109  2.1592
  714MOL0     H96350   6.541  10.147  -0.000  0.1051  0.2152 -0.7318
  714MOL0     H96351   6.601   9.957   0.035  0.2435  1.7445  1.7420
  714MOL0     H96352   6.742   9.896  -0.041  1.8331  3.2371 -1.9982
  714MOL0     H96353   6.748   9.938   0.139 -2.4876 -1.9579  0.9432
  714MOL0     H96354   7.341  10.231  -0.056  0.6977 -1.4876 -1.4865
  714MOL0     H96355   7.545  10.111  -0.081 -0.6034  2.1420  1.8985
  714MOL0     H96356   7.650   9.724   0.163 -1.2561 -1.7512 -0.3256
  714MOL0     H96357   7.518   9.700   0.043  0.6183 -0.8944 -1.5022
  714MOL0     H96358   7.709   9.604  -0.065 -2.4778  0.2137 -1.0607
  714MOL0     H96359   7.694   9.758  -0.144  0.0284  3.2679  1.5989
  714MOL0     H96360   7.882   9.678   0.061  1.3747 -1.0338 -2.2278
  714MOL0     H96361   7.857   9.853   0.025 -1.2112  1.1605 -1.3059
  714MOL0     H96362   7.961   9.642  -0.176  0.5980  0.1567  2.6020
  714MOL0     H96363   7.914   9.810  -0.210  0.7799  0.6849  0.3704
  714MOL0     H96364   8.112   9.871  -0.043 -0.5368 -0.3262  0.7787
  714MOL0     H96365   8.146   9.797  -0.204  3.6677  0.8102  1.5231
  714MOL0     H96366   8.142   9.665   0.071  0.5958 -0.8256  0.0521
  714MOL0     H96367   8.206   9.582  -0.078  0.8740 -1.5760  2.1398
  714MOL0     H96368   8.331   9.831   0.029 -1.2829  0.4856  0.7062
  714MOL0     H96369   8.396   9.712  -0.075  1.9077 -0.5164  0.6650
  714MOL0     H96370   8.309   9.650   0.217 -1.6932  2.5508 -1.0996
  714MOL0     H96371   8.478   9.684   0.169  0.1755 -0.2139  0.2548
  714MOL0     H96372   7.397   9.826   0.216  3.1510  0.3593  0.3562
  714MOL0     H96373   7.166   9.942   0.198 -0.7893 -3.3727  0.0198
  714MOL0     H96374   7.005  10.308  -0.089 -1.2037  1.1796  1.2658
  714MOL0     H96375   6.817  10.458  -0.146 -1.4294 -0.1851 -0.2281
  714MOL0     H96376   6.400   9.225   1.312 -1.5950  2.5517 -1.6862
  714MOL0     H96377   6.605   9.162   1.424 -0.0068  0.6076 -0.4144
  714MOL0     H96378   7.177   9.161   1.230  2.6424  1.2438  1.4981
  714MOL0     H96379   7.381   9.058   1.322  1.5542 -3.1010 -0.6579
  714MOL0     H96380   7.322   8.788   1.680  0.5996  0.0121  0.5903
  714MOL0     H96381   7.342   8.696   1.524  0.1682 -0.5776  1.0470
  714MOL0     H96382   7.543   8.842   1.693  0.0735 -1.4732  1.4714
  714MOL0     H96383   7.587   8.744   1.547 -0.5993 -2.6861 -1.4901
  714MOL0     H96384   7.473   8.597   1.786 -1.1939  0.3074 -1.2607
  714MOL0     H96385   7.642   8.625   1.754  0.1053 -0.5890 -1.0904
  714MOL0     H96386   7.447   8.492   1.565 -0.1072 -1.5522  0.0678
  714MOL0     H96387   7.550   8.407   1.679  0.5023 -0.6329 -0.5304
  714MOL0     H96388   7.841   8.498   1.396 -0.8940  1.1456 -2.4318
  714MOL0     H96389   7.128   8.813   1.576 -1.8542 -2.5548 -2.2547
  714MOL0     H96390   6.940   8.897   1.461  0.7690 -2.2894 -0.6336
  715MOL0     O96391   6.841   0.618   9.211 -1.1558 -0.3689  0.4644
  715MOL0     C96392   6.890   0.511   9.245 -0.2467  0.2709 -0.1498
  715MOL0     O96393   7.021   0.491   9.283 -0.1086 -0.7275 -0.7626
  715MOL0     C96394   7.108   0.601   9.300  0.6155 -0.1815  0.6079
  715MOL0     C96395   7.151   0.685   9.193 -0.1816  0.7526 -0.0112
  715MOL0     C96396   7.226   0.800   9.221 -0.3918 -0.0699 -1.0089
  715MOL0     C96397   7.262   0.828   9.359  0.9961  0.6348  0.4638
  715MOL0     O96398   7.336   0.933   9.401  0.4138  0.2322  0.1566
  715MOL0     C96399   7.400   1.012   9.297  0.8997  0.8478 -0.1577
  715MOL0     C96400   7.477   1.114   9.378  0.4307 -0.0652 -0.5365
  715MOL0     C96401   7.513   1.235   9.293  0.2858  0.4065  0.2141
  715MOL0     C96402   7.573   1.337   9.383 -0.1046 -0.0369 -0.9975
  715MOL0     C96403   7.638   1.452   9.300 -0.6470  0.4683  0.8298
  715MOL0     C96404   7.556   1.529   9.195 -0.3231 -0.0226  0.6359
  715MOL0     C96405   7.429   1.591   9.247  0.6213 -0.1110 -0.7555
  715MOL0     C96406   7.426   1.696   9.363 -1.0837  0.1478  1.0244
  715MOL0     N96407   7.549   1.773   9.346  0.1947 -0.2166 -0.1844
  715MOL0     C96408   7.572   1.876   9.253 -0.0754  0.4264 -0.2376
  715MOL0     C96409   7.693   1.926   9.281 -0.7341  0.6286 -0.0427
  715MOL0     C96410   7.774   2.033   9.211 -0.4071 -0.2580 -0.5889
  715MOL0     C96411   7.686   2.148   9.168 -0.3653 -1.1162 -0.0348
  715MOL0     C96412   7.774   2.256   9.088  0.8719 -0.2388 -0.5489
  715MOL0     C96413   7.688   2.368   9.028 -0.1575 -0.2516  0.3278
  715MOL0     O96414   7.630   2.303   8.914  0.3156 -0.0837 -0.1498
  715MOL0     C96415   7.506   2.363   8.879 -0.2878  0.2279 -0.2886
  715MOL0     C96416   7.479   2.504   8.898 -0.4378  0.3293 -0.0339
  715MOL0     C96417   7.353   2.555   8.868 -0.1042 -0.8182 -0.2342
  715MOL0     C96418   7.342   2.700   8.904 -0.2759 -0.4314 -0.7272
  715MOL0     C96419   7.247   2.469   8.828  0.5446 -0.5887  0.3424
  715MOL0     C96420   7.118   2.521   8.784 -0.7772 -0.3350  0.0908
  715MOL0     O96421   7.048   2.622   8.852 -0.4155  0.2482  0.0461
  715MOL0     C96422   6.915   2.653   8.817 -0.8455 -0.3177 -0.4646
  715MOL0     C96423   6.822   2.670   8.916 -0.0631  0.4390 -0.5801
  715MOL0     C96424   6.692   2.720   8.893 -0.0954 -0.9197 -0.6847
  715MOL0     C96425   6.636   2.717   8.766  0.9303 -0.0287  0.1628
  715MOL0     O96426   6.506   2.770   8.763 -0.2092  0.4107 -0.8726
  715MOL0     C96427   6.493   2.881   8.674 -0.1172 -0.1798  0.3493
  715MOL0     C96428   6.394   2.976   8.745 -0.2951 -0.4041 -0.2021
  715MOL0     C96429   6.378   3.105   8.672  0.4817  0.3374 -0.2380
  715MOL0     C96430   6.466   3.212   8.732 -0.3205  0.0361  0.1539
  715MOL0     C96431   6.464   3.339   8.646  0.3917  0.7750 -0.1748
  715MOL0     C96432   6.588   3.437   8.677  0.1059 -0.5431  0.8785
  715MOL0     C96433   6.584   3.547   8.574  0.6241 -0.7935  0.7427
  715MOL0     C96434   6.696   3.650   8.580  0.4092  0.2183 -0.4955
  715MOL0    Cl96435   6.670   3.753   8.717 -0.1758  0.4033  0.3635
  715MOL0     C96436   6.725   2.683   8.661  0.0958  0.4813  0.3489
  715MOL0     C96437   6.864   2.648   8.688  0.2784 -1.3296 -0.2099
  715MOL0     O96438   7.072   2.454   8.684  0.0685 -0.4222 -0.1850
  715MOL0     C96439   7.275   2.332   8.814 -0.3057  0.8807  0.2193
  715MOL0     C96440   7.401   2.286   8.834 -0.0199 -0.4365 -0.6140
  715MOL0     N96441   7.754   1.843   9.382  0.5290  0.5288 -0.6203
  715MOL0     N96442   7.661   1.759   9.423 -0.0608 -0.3253  0.3459
  715MOL0     C96443   7.226   0.745   9.464  0.6399 -0.4002  0.3298
  715MOL0     C96444   7.143   0.630   9.436  0.1591 -0.1066 -0.7536
  715MOL0     C96445   6.794   0.397   9.239  0.0450  1.0961  1.0672
  715MOL0     C96446   6.850   0.264   9.246 -0.1143 -0.3399 -0.3542
  715MOL0     C96447   6.758   0.153   9.247 -0.7259  0.6612  0.1706
  715MOL0     C96448   6.622   0.175   9.219 -0.5212 -0.5503 -0.0723
  715MOL0     O96449   6.545   0.065   9.203  0.1868  0.6512  0.4632
  715MOL0     C96450   6.402   0.075   9.188 -0.6612 -0.2941 -1.4327
  715MOL0     C96451   6.317   0.113   9.310  0.2378 -0.9262 -0.5099
  715MOL0     C96452   6.365   0.036   9.433 -0.0962 -0.6999  0.1074
  715MOL0     C96453   6.261   0.034   9.547 -0.8345 -0.0148  0.6682
  715MOL0     C96454   6.284  -0.071   9.643 -0.2769 -0.6550 -0.0568
  715MOL0     C96455   6.309  -0.163   9.714  0.4151  0.1624 -0.6875
  715MOL0     C96456   6.573   0.308   9.215  0.2366  0.3000 -0.8223
  715MOL0     C96457   6.655   0.421   9.229 -0.2418  0.5314  0.0872
  715MOL0     H96458   7.115   0.667   9.093 -0.5991  0.3571  0.2036
  715MOL0     H96459   7.250   0.862   9.136  1.0582 -0.7692 -1.1265
  715MOL0     H96460   7.468   0.957   9.231  2.2564  2.1143  0.1115
  715MOL0     H96461   7.314   1.060   9.249 -3.3940 -3.9607  1.8126
  715MOL0     H96462   7.409   1.135   9.461  1.6817 -1.8992  1.0261
  715MOL0     H96463   7.568   1.076   9.425  0.5741  0.8116 -0.0834
  715MOL0     H96464   7.590   1.209   9.219 -2.7773 -3.1172 -2.0716
  715MOL0     H96465   7.434   1.279   9.232 -0.0190 -0.2892  0.0948
  715MOL0     H96466   7.503   1.373   9.459  0.3018  0.9534 -1.0765
  715MOL0     H96467   7.653   1.290   9.440 -1.8880  0.1140  1.8274
  715MOL0     H96468   7.666   1.515   9.384 -1.0788  0.4137  1.0212
  715MOL0     H96469   7.726   1.408   9.253 -2.7595 -2.5476 -0.6918
  715MOL0     H96470   7.619   1.606   9.150  0.0971 -1.2398 -0.9719
  715MOL0     H96471   7.536   1.461   9.112 -0.1343 -1.5944  1.8215
  715MOL0     H96472   7.390   1.646   9.162 -0.7949  0.8930  0.4838
  715MOL0     H96473   7.352   1.514   9.265 -0.5900  0.5131 -2.9781
  715MOL0     H96474   7.429   1.635   9.454  3.3290 -0.0887  0.9512
  715MOL0     H96475   7.330   1.748   9.368 -2.1418 -1.6481  0.5796
  715MOL0     H96476   7.509   1.929   9.182 -1.6486  0.6372  1.2424
  715MOL0     H96477   7.864   2.062   9.268  0.6633 -2.0595 -1.2749
  715MOL0     H96478   7.806   1.982   9.120 -0.7026  1.8508 -1.9469
  715MOL0     H96479   7.636   2.183   9.258  0.2697  0.6433 -0.3139
  715MOL0     H96480   7.600   2.109   9.114 -3.1658  1.1334  2.4567
  715MOL0     H96481   7.829   2.193   9.018  0.2973 -0.4647 -0.8080
  715MOL0     H96482   7.840   2.303   9.161 -1.8219  0.3514  1.6942
  715MOL0     H96483   7.752   2.449   8.992  1.3590 -1.8460 -0.7172
  715MOL0     H96484   7.616   2.404   9.103  1.5557  0.2030  1.8399
  715MOL0     H96485   7.567   2.568   8.907  1.0331 -1.7701  1.1243
  715MOL0     H96486   7.244   2.740   8.878 -0.9781 -0.5749  1.4728
  715MOL0     H96487   7.347   2.709   9.013 -2.3339 -1.9311 -0.4468
  715MOL0     H96488   7.419   2.761   8.857 -0.7877  0.9774  0.2027
  715MOL0     H96489   6.857   2.676   9.018  2.1550 -0.9087 -1.1897
  715MOL0     H96490   6.637   2.766   8.974 -2.3714 -2.9709 -0.9603
  715MOL0     H96491   6.592   2.926   8.669 -0.4257  1.0354  3.1686
  715MOL0     H96492   6.457   2.854   8.574  1.4882 -1.0286 -0.0429
  715MOL0     H96493   6.295   2.932   8.729 -0.4409  0.2830 -1.2838
  715MOL0     H96494   6.428   2.991   8.848  3.1931  1.8019 -1.4961
  715MOL0     H96495   6.279   3.148   8.690  1.9152  3.2851  1.3701
  715MOL0     H96496   6.386   3.085   8.565 -2.8053 -2.3559 -0.1317
  715MOL0     H96497   6.426   3.243   8.830 -0.8153  0.7398 -0.2588
  715MOL0     H96498   6.567   3.170   8.726  0.1216  1.1448 -0.3193
  715MOL0     H96499   6.373   3.392   8.675 -0.6771 -0.5150 -1.0570
  715MOL0     H96500   6.458   3.310   8.541 -1.4027  2.0896 -0.4787
  715MOL0     H96501   6.565   3.475   8.778 -3.5546  2.5117 -0.8170
  715MOL0     H96502   6.681   3.382   8.691 -0.3782 -1.8901 -0.8686
  715MOL0     H96503   6.486   3.595   8.569  0.0596 -1.9940 -1.9469
  715MOL0     H96504   6.596   3.495   8.478 -1.3840 -0.8472  0.4790
  715MOL0     H96505   6.688   3.702   8.484 -1.3927 -0.6359 -0.8705
  715MOL0     H96506   6.795   3.606   8.586  0.8178  1.0391 -1.0298
  715MOL0     H96507   6.693   2.688   8.557  2.1094  1.1140 -0.2897
  715MOL0     H96508   6.922   2.615   8.603  1.1200  1.9100 -1.0445
  715MOL0     H96509   7.198   2.264   8.779  1.9008 -1.4750 -0.3265
  715MOL0     H96510   7.433   2.183   8.823  1.9443 -0.0036  0.6295
  715MOL0     H96511   7.266   0.770   9.562 -0.0595 -1.6295  0.9572
  715MOL0     H96512   7.112   0.561   9.514  1.5386  1.0790  0.9420
  715MOL0     H96513   6.958   0.261   9.260 -0.0436 -1.4762 -1.0596
  715MOL0     H96514   6.810   0.061   9.271 -2.7167 -0.8051 -0.8556
  715MOL0     H96515   6.372   0.121   9.094 -2.5367  0.8407 -0.3283
  715MOL0     H96516   6.375  -0.030   9.173  0.1792 -1.1122  1.9537
  715MOL0     H96517   6.214   0.088   9.286 -0.2560  1.3954 -1.1126
  715MOL0     H96518   6.325   0.220   9.332 -0.7129 -1.4039  2.6705
  715MOL0     H96519   6.464   0.076   9.457 -0.3915  0.9154 -1.1944
  715MOL0     H96520   6.364  -0.067   9.397 -0.7638 -0.5032 -0.4618
  715MOL0     H96521   6.164   0.009   9.502 -0.7842 -1.8042  1.4655
  715MOL0     H96522   6.255   0.129   9.602 -0.0342 -1.2834  3.0884
  715MOL0     H96523   6.318  -0.245   9.782 -1.1389 -1.6749 -2.5453
  715MOL0     H96524   6.468   0.324   9.195 -0.6196 -0.0984  2.7229
  715MOL0     H96525   6.616   0.522   9.225 -2.0953 -0.1632 -3.3042
  716MOL0     O96526  11.270   9.141   2.836  0.2165  0.5378 -0.9256
  716MOL0     C96527  11.373   9.188   2.868  0.4447  0.4138  0.5371
  716MOL0     O96528  11.483   9.215   2.779 -0.7283  0.2297  0.4807
  716MOL0     C96529  11.512   9.132   2.668  0.6758  0.7133 -0.2488
  716MOL0     C96530  11.604   9.177   2.566  0.0431 -1.2351 -0.4083
  716MOL0     C96531  11.635   9.105   2.452  0.3366  0.0627 -0.2255
  716MOL0     C96532  11.584   8.978   2.438 -0.1574 -0.7815  0.7606
  716MOL0     O96533  11.601   8.897   2.331 -1.2650  0.9921  0.4918
  716MOL0     C96534  11.713   8.916   2.238 -0.4802 -1.0885  0.5834
  716MOL0     C96535  11.681   8.847   2.112  1.4068  0.7376  0.4593
  716MOL0     C96536  11.700   8.689   2.136 -0.3719  0.0397 -0.7023
  716MOL0     C96537  11.644   8.608   2.019 -0.4045  0.4148  0.1208
  716MOL0     C96538  11.661   8.456   2.048 -0.2879 -0.3708 -0.0811
  716MOL0     C96539  11.576   8.380   1.942  0.6980  0.4060 -0.0823
  716MOL0     C96540  11.603   8.228   1.965 -0.1342  0.6814 -0.1133
  716MOL0     C96541  11.519   8.151   1.862  1.0431  0.3276 -0.4356
  716MOL0     N96542  11.527   8.009   1.879 -0.2751 -0.6983 -0.3408
  716MOL0     C96543  11.637   7.939   1.913 -0.2099  0.6808  0.2342
  716MOL0     C96544  11.592   7.810   1.926 -0.5696  1.8802 -0.9068
  716MOL0     C96545  11.687   7.693   1.927  0.3663  0.2167  0.0224
  716MOL0     C96546  11.767   7.673   1.788  0.4496  0.1298 -0.7262
  716MOL0     C96547  11.827   7.531   1.784  0.3381 -0.2009  0.8395
  716MOL0     C96548  11.945   7.500   1.872 -0.2987 -0.0208  0.0028
  716MOL0     O96549  12.039   7.426   1.787 -0.1723 -0.5616  0.2722
  716MOL0     C96550  12.042   7.286   1.784  1.0466 -0.6923 -0.3124
  716MOL0     C96551  12.147   7.217   1.728 -0.0550  0.2203 -0.1047
  716MOL0     C96552  12.161   7.075   1.729 -0.4629  0.2782  0.3021
  716MOL0     C96553  12.297   7.023   1.686  0.3074 -0.0045 -0.4058
  716MOL0     C96554  12.053   7.004   1.775  0.4853  0.3431 -0.7954
  716MOL0     C96555  12.055   6.852   1.765 -0.3772  1.0935  1.1047
  716MOL0     O96556  11.981   6.787   1.853 -0.0774  0.0946 -0.0530
  716MOL0     C96557  12.001   6.655   1.873  0.7812  0.3113 -0.1660
  716MOL0     C96558  11.925   6.570   1.795  1.0989  0.2940  0.3699
  716MOL0     C96559  11.956   6.434   1.774  0.5348 -1.1974 -0.6998
  716MOL0     C96560  12.060   6.380   1.855  0.0062  1.0420 -0.1275
  716MOL0     O96561  12.096   6.244   1.857  0.3696 -0.2750 -0.2835
  716MOL0     C96562  12.003   6.138   1.817  0.9790  0.0049 -0.1387
  716MOL0     C96563  12.030   6.125   1.668  0.5763 -0.0193  0.4253
  716MOL0     C96564  11.998   5.986   1.612 -0.9431  0.5843 -0.4887
  716MOL0     C96565  11.871   5.919   1.666 -0.6770 -1.0250 -0.1330
  716MOL0     C96566  11.833   5.790   1.593 -0.5727 -0.6374  0.0929
  716MOL0     C96567  11.923   5.673   1.614  0.2092  0.2186 -0.9249
  716MOL0     C96568  11.895   5.564   1.503  0.2455 -1.0059  0.4495
  716MOL0     C96569  11.888   5.422   1.548 -1.0835  0.5069 -0.6118
  716MOL0    Cl96570  11.791   5.388   1.689 -0.0487 -0.5819  0.3464
  716MOL0     C96571  12.143   6.464   1.928  0.1266 -0.6262 -0.0359
  716MOL0     C96572  12.120   6.606   1.931 -0.1356 -0.0732 -0.3763
  716MOL0     O96573  12.119   6.793   1.673  0.0088 -0.2688 -0.2515
  716MOL0     C96574  11.936   7.072   1.820  0.4892  0.0353  0.1560
  716MOL0     C96575  11.936   7.210   1.820 -0.1130 -0.5096  0.8126
  716MOL0     N96576  11.460   7.808   1.898  0.4681 -0.0198 -0.5958
  716MOL0     N96577  11.417   7.929   1.886 -0.6081  0.3193  0.6169
  716MOL0     C96578  11.492   8.931   2.532  0.5967  0.1364  0.9448
  716MOL0     C96579  11.452   9.006   2.638 -0.4620 -0.6581  0.1211
  716MOL0     C96580  11.373   9.251   3.010  0.2529 -0.8252  0.8358
  716MOL0     C96581  11.492   9.311   3.069 -0.6705  0.0857  0.1737
  716MOL0     C96582  11.484   9.380   3.190 -0.3131  0.5869 -0.4334
  716MOL0     C96583  11.366   9.387   3.269 -0.2305 -0.9574  0.0990
  716MOL0     O96584  11.357   9.433   3.400 -0.0352  0.1228  0.4946
  716MOL0     C96585  11.480   9.462   3.477  0.5483  0.5751  0.6162
  716MOL0     C96586  11.431   9.531   3.611 -0.1098 -0.5893 -0.1806
  716MOL0     C96587  11.339   9.426   3.686 -0.4615  0.9311  0.1094
  716MOL0     C96588  11.267   9.475   3.811  0.4955  0.2180  0.6806
  716MOL0     C96589  11.361   9.541   3.901  0.6617 -0.6247 -0.2131
  716MOL0     C96590  11.444   9.586   3.976 -1.3957 -0.5108  0.3149
  716MOL0     C96591  11.250   9.331   3.208  0.0068  0.1267 -1.6728
  716MOL0     C96592  11.253   9.274   3.083  0.6252 -0.3189  0.5149
  716MOL0     H96593  11.642   9.278   2.571 -0.9407 -0.7512 -1.9946
  716MOL0     H96594  11.689   9.157   2.374  0.0516  0.6002 -0.0765
  716MOL0     H96595  11.727   9.023   2.221 -2.2604 -0.9110 -0.0799
  716MOL0     H96596  11.809   8.886   2.281  0.5331  0.5203 -0.4261
  716MOL0     H96597  11.583   8.864   2.068  0.7754  0.4438  1.6783
  716MOL0     H96598  11.755   8.885   2.041  1.2315  0.0245 -0.1156
  716MOL0     H96599  11.806   8.665   2.147 -0.5061 -1.2634 -2.0226
  716MOL0     H96600  11.654   8.660   2.231  3.0908  0.8446  1.3707
  716MOL0     H96601  11.540   8.641   2.015 -0.1860  1.0463 -0.4855
  716MOL0     H96602  11.698   8.635   1.928 -1.5695  0.5654 -0.5435
  716MOL0     H96603  11.763   8.418   2.040  0.6151  1.0052  3.1663
  716MOL0     H96604  11.616   8.432   2.144 -1.0266  0.8446 -0.0978
  716MOL0     H96605  11.469   8.397   1.953 -0.1071 -0.2472 -4.7286
  716MOL0     H96606  11.603   8.409   1.840  0.4478  0.9062 -0.0095
  716MOL0     H96607  11.712   8.222   1.956  0.1369  2.4824  1.2567
  716MOL0     H96608  11.566   8.206   2.066  0.5452  1.0041  0.2131
  716MOL0     H96609  11.553   8.174   1.760  0.2795 -1.4287 -1.1261
  716MOL0     H96610  11.416   8.186   1.859  0.5974 -0.9114 -0.0505
  716MOL0     H96611  11.741   7.970   1.915  1.0503 -3.0789  0.8043
  716MOL0     H96612  11.752   7.712   2.013 -0.4076 -0.3367  0.7390
  716MOL0     H96613  11.615   7.612   1.943 -3.3024  2.9420 -1.2820
  716MOL0     H96614  11.843   7.749   1.767 -1.2796  2.4295  0.9020
  716MOL0     H96615  11.696   7.684   1.706 -1.3076 -0.5598  0.6377
  716MOL0     H96616  11.863   7.513   1.682 -0.0264  0.8514  0.5057
  716MOL0     H96617  11.751   7.457   1.814  1.4907 -0.9402  2.0550
  716MOL0     H96618  11.910   7.438   1.955  0.5700 -1.3034 -0.5476
  716MOL0     H96619  11.984   7.596   1.905 -3.0722  0.5920  1.7928
  716MOL0     H96620  12.233   7.274   1.694  1.0152 -0.4132  1.4008
  716MOL0     H96621  12.381   7.092   1.698 -1.6633  2.0520  3.4988
  716MOL0     H96622  12.323   6.940   1.752 -0.5134 -0.8003 -1.0573
  716MOL0     H96623  12.293   6.970   1.590 -1.4163  3.5425 -2.5093
  716MOL0     H96624  11.836   6.613   1.750 -0.6868 -0.3220  3.1108
  716MOL0     H96625  11.891   6.374   1.712 -0.4445  1.1298 -2.0869
  716MOL0     H96626  12.015   6.044   1.872 -2.3137 -0.8695 -0.6876
  716MOL0     H96627  11.900   6.167   1.839  1.4590  2.4198 -0.7960
  716MOL0     H96628  11.969   6.191   1.605 -1.4288 -2.1193  0.0680
  716MOL0     H96629  12.139   6.133   1.654  0.6367 -1.0616  0.2475
  716MOL0     H96630  12.078   5.919   1.645 -3.3970 -1.5103  1.6764
  716MOL0     H96631  11.994   5.988   1.503 -2.4138 -4.7418 -0.7806
  716MOL0     H96632  11.877   5.908   1.775 -1.5447  0.7259  0.1322
  716MOL0     H96633  11.788   5.986   1.639 -0.2618 -0.8001 -0.8744
  716MOL0     H96634  11.838   5.813   1.486 -0.3493 -0.4938  0.1323
  716MOL0     H96635  11.728   5.772   1.618 -0.0083  0.8653  4.1609
  716MOL0     H96636  12.031   5.694   1.613  0.8195 -2.1904  1.4165
  716MOL0     H96637  11.896   5.633   1.712  0.2130  1.5737 -0.3547
  716MOL0     H96638  11.968   5.582   1.423  0.9795 -2.0802  0.8610
  716MOL0     H96639  11.796   5.593   1.466  0.7121  0.6709  0.4332
  716MOL0     H96640  11.993   5.402   1.572 -0.9422  0.3746 -1.3319
  716MOL0     H96641  11.856   5.358   1.466  3.3971 -0.8012 -1.6528
  716MOL0     H96642  12.233   6.427   1.977  1.0945  0.5371 -0.8747
  716MOL0     H96643  12.190   6.679   1.972 -1.4536  1.0331 -0.0297
  716MOL0     H96644  11.858   7.005   1.857  0.2701 -0.9380 -1.9171
  716MOL0     H96645  11.839   7.253   1.845 -0.6827 -1.4437  0.3026
  716MOL0     H96646  11.460   8.829   2.514  2.2310 -0.6293  2.0860
  716MOL0     H96647  11.390   8.972   2.720 -1.1690  0.7098  0.1802
  716MOL0     H96648  11.585   9.286   3.019 -2.3306 -1.4753 -2.3474
  716MOL0     H96649  11.580   9.419   3.223  0.3443 -0.1994 -1.3628
  716MOL0     H96650  11.535   9.368   3.484 -1.3123 -0.7901 -1.5204
  716MOL0     H96651  11.542   9.538   3.430  0.9461  0.5120  1.0283
  716MOL0     H96652  11.368   9.612   3.574  0.2966 -0.0605  0.2549
  716MOL0     H96653  11.511   9.566   3.677 -0.9882  2.9551 -0.7597
  716MOL0     H96654  11.399   9.337   3.707  1.2592  1.5881 -1.6802
  716MOL0     H96655  11.264   9.384   3.619 -1.4686  0.7017  1.3543
  716MOL0     H96656  11.217   9.382   3.841 -1.9459  2.0013  2.5451
  716MOL0     H96657  11.184   9.545   3.795  0.1314  0.1432  2.0829
  716MOL0     H96658  11.525   9.618   4.037 -0.6864 -2.2400  0.3255
  716MOL0     H96659  11.161   9.364   3.261  1.4274  0.9887  0.3083
  716MOL0     H96660  11.161   9.240   3.036 -0.9454  1.9467  1.7631
  717MOL0     O96661   9.219   6.120   3.114  0.0804 -1.0527  0.0878
  717MOL0     C96662   9.234   6.235   3.153 -0.4066  0.4617 -0.2421
  717MOL0     O96663   9.315   6.271   3.268  0.1181 -0.0925 -0.5366
  717MOL0     C96664   9.376   6.171   3.338  0.4960  0.8429  0.5996
  717MOL0     C96665   9.300   6.085   3.430 -0.7218  0.2369  0.0974
  717MOL0     C96666   9.364   5.984   3.508  0.3808 -0.2240  0.4568
  717MOL0     C96667   9.500   5.964   3.487 -0.1691  0.0908  0.8299
  717MOL0     O96668   9.555   5.861   3.557  0.4930  0.2710 -0.9560
  717MOL0     C96669   9.693   5.833   3.572 -0.7525 -0.9798  0.2747
  717MOL0     C96670   9.725   5.844   3.715 -1.6516  0.9076  0.1547
  717MOL0     C96671   9.681   5.715   3.793 -0.6119 -0.0225 -0.2167
  717MOL0     C96672   9.522   5.713   3.816 -0.2066 -0.3175  0.1850
  717MOL0     C96673   9.480   5.593   3.903  0.5247 -1.0033  0.4344
  717MOL0     C96674   9.334   5.608   3.943  0.0116 -0.6423 -0.1366
  717MOL0     C96675   9.264   5.476   3.969  0.1601 -0.2546  0.1852
  717MOL0     C96676   9.278   5.370   3.850 -0.3203  0.5672 -0.4766
  717MOL0     N96677   9.240   5.415   3.723  0.0737  0.5436 -0.3327
  717MOL0     C96678   9.118   5.475   3.696 -0.0263 -0.0365  0.0201
  717MOL0     C96679   9.136   5.530   3.573 -0.2581 -0.2617 -0.6663
  717MOL0     C96680   9.022   5.595   3.506  0.7340  0.0049  0.2699
  717MOL0     C96681   8.970   5.728   3.573 -0.3431  0.2367 -0.4360
  717MOL0     C96682   8.846   5.782   3.496 -0.3135  0.1404  0.3917
  717MOL0     C96683   8.823   5.929   3.474  0.2374  0.2911 -0.1395
  717MOL0     O96684   8.810   5.982   3.610 -0.4639 -0.7703 -0.2792
  717MOL0     C96685   8.789   6.119   3.624  0.5769  0.6147 -1.1515
  717MOL0     C96686   8.770   6.159   3.758 -0.0636 -0.2408 -0.6591
  717MOL0     C96687   8.739   6.297   3.783 -0.1590 -0.7839  0.7216
  717MOL0     C96688   8.747   6.350   3.930 -0.4171  0.1079  0.3824
  717MOL0     C96689   8.725   6.391   3.675 -0.2198  0.0340 -0.2667
  717MOL0     C96690   8.711   6.545   3.691 -0.0381  0.7273 -0.3110
  717MOL0     O96691   8.743   6.617   3.585  0.3874  0.2331 -0.7817
  717MOL0     C96692   8.720   6.749   3.586 -0.3138  0.6885  0.5743
  717MOL0     C96693   8.795   6.834   3.665 -0.2873  0.6333  0.1465
  717MOL0     C96694   8.764   6.968   3.657 -0.4201 -0.1753 -0.3991
  717MOL0     C96695   8.676   7.020   3.561  0.7545  0.5762 -0.9421
  717MOL0     O96696   8.662   7.158   3.559  0.3671 -0.3588 -0.5328
  717MOL0     C96697   8.548   7.206   3.488 -0.8249 -0.3720 -0.1230
  717MOL0     C96698   8.520   7.366   3.500  0.5761  0.0911 -0.1477
  717MOL0     C96699   8.624   7.445   3.428  0.0610 -0.2864  0.4979
  717MOL0     C96700   8.619   7.604   3.424 -0.8669  0.3883 -1.4184
  717MOL0     C96701   8.503   7.677   3.367  0.2469 -1.0120 -0.7515
  717MOL0     C96702   8.485   7.642   3.224 -1.2231  0.6553  1.0296
  717MOL0     C96703   8.410   7.757   3.166 -0.6987 -0.5585 -0.5824
  717MOL0     C96704   8.368   7.735   3.018  0.2266  0.2877 -0.1172
  717MOL0    Cl96705   8.214   7.623   3.031 -0.5266 -0.3479 -0.1482
  717MOL0     C96706   8.609   6.925   3.482  0.4357  0.2168  0.1238
  717MOL0     C96707   8.625   6.792   3.493 -0.5492 -0.4149 -0.1688
  717MOL0     O96708   8.653   6.581   3.796 -0.0763  0.2703  0.6198
  717MOL0     C96709   8.750   6.345   3.550 -0.5587  0.1563 -0.2899
  717MOL0     C96710   8.780   6.209   3.523  0.3782 -0.4108  0.7354
  717MOL0     N96711   9.262   5.504   3.524 -0.3059 -0.0929 -0.8046
  717MOL0     N96712   9.323   5.436   3.617  0.5297 -0.5102  0.0124
  717MOL0     C96713   9.579   6.042   3.385  0.5467  0.3010 -0.2516
  717MOL0     C96714   9.514   6.148   3.323  1.3293 -0.0452 -0.7275
  717MOL0     C96715   9.166   6.346   3.093  0.4490  0.1116  0.2295
  717MOL0     C96716   9.074   6.322   2.984 -0.3071 -0.2234 -0.5020
  717MOL0     C96717   9.020   6.435   2.922 -0.3188  0.9551  0.6148
  717MOL0     C96718   9.037   6.562   2.975  0.8183 -0.2515 -0.1799
  717MOL0     O96719   8.971   6.669   2.926  0.9302 -0.5944  0.0130
  717MOL0     C96720   8.902   6.659   2.801 -0.2456  0.6847 -0.9070
  717MOL0     C96721   8.822   6.787   2.772 -0.3625 -0.1597  0.1791
  717MOL0     C96722   8.720   6.758   2.655  1.0921  0.3472 -0.3268
  717MOL0     C96723   8.677   6.887   2.590  1.0593  0.5366 -0.1896
  717MOL0     C96724   8.603   6.977   2.673 -0.0867 -0.1487 -0.9392
  717MOL0     C96725   8.540   7.068   2.730 -0.2429  0.0252 -0.0260
  717MOL0     C96726   9.113   6.581   3.085  0.1050 -0.9196 -0.0768
  717MOL0     C96727   9.191   6.476   3.143 -0.9834 -0.7739 -0.5195
  717MOL0     H96728   9.199   6.122   3.443  0.1133  2.4962  0.7666
  717MOL0     H96729   9.313   5.912   3.572 -0.1148  0.5614  0.9567
  717MOL0     H96730   9.699   5.731   3.534 -4.8926 -1.6134  0.8789
  717MOL0     H96731   9.755   5.900   3.511  0.6699 -3.5151 -1.2645
  717MOL0     H96732   9.834   5.836   3.720 -1.7604 -0.9862  0.2440
  717MOL0     H96733   9.698   5.937   3.765 -4.1364  0.4225 -0.1475
  717MOL0     H96734   9.698   5.624   3.734  0.2647  0.1759 -0.2788
  717MOL0     H96735   9.730   5.705   3.890  2.5405  0.0107 -1.6603
  717MOL0     H96736   9.491   5.806   3.864  2.9870  0.1935  1.5261
  717MOL0     H96737   9.465   5.701   3.724  1.3940 -1.8341 -0.6854
  717MOL0     H96738   9.505   5.498   3.856 -1.0919 -1.3219  0.1621
  717MOL0     H96739   9.542   5.588   3.993  1.4419 -3.3881 -0.2683
  717MOL0     H96740   9.332   5.680   4.025 -0.3715 -0.4378 -0.3228
  717MOL0     H96741   9.275   5.649   3.861 -2.6847 -2.3710  0.7976
  717MOL0     H96742   9.301   5.439   4.065 -0.7812 -2.5419 -0.2638
  717MOL0     H96743   9.156   5.493   3.978 -0.0073 -2.2171  3.2736
  717MOL0     H96744   9.228   5.273   3.865  1.1864  0.0653  1.8131
  717MOL0     H96745   9.383   5.339   3.837  0.0923  1.3207  0.8678
  717MOL0     H96746   9.026   5.473   3.753 -0.0143  0.1358  0.0434
  717MOL0     H96747   9.062   5.615   3.406  0.8473 -1.6941 -0.0568
  717MOL0     H96748   8.934   5.532   3.489 -0.9361  2.5872 -1.2222
  717MOL0     H96749   9.049   5.799   3.598 -1.5654  1.5330 -0.1324
  717MOL0     H96750   8.930   5.702   3.672  0.7101  0.0874 -0.0267
  717MOL0     H96751   8.755   5.745   3.543 -1.0895  1.1606 -0.2461
  717MOL0     H96752   8.853   5.744   3.394 -0.6783  1.7385 -0.2632
  717MOL0     H96753   8.725   5.937   3.426  0.7792 -2.0917 -1.8304
  717MOL0     H96754   8.900   5.984   3.421 -0.9840  0.1352 -2.1574
  717MOL0     H96755   8.786   6.096   3.845 -0.9868 -0.4365 -0.6157
  717MOL0     H96756   8.790   6.448   3.952  2.0004 -0.6756 -0.5522
  717MOL0     H96757   8.661   6.345   3.998 -0.3048 -1.4522  0.4430
  717MOL0     H96758   8.808   6.285   3.993  0.9818 -0.1628 -1.1775
  717MOL0     H96759   8.870   6.790   3.730 -1.3288  0.5041  1.2869
  717MOL0     H96760   8.817   7.041   3.718 -1.3232  1.3677 -1.3923
  717MOL0     H96761   8.567   7.184   3.382 -0.9522  0.2567 -0.2819
  717MOL0     H96762   8.456   7.158   3.522 -1.6868  0.9711 -0.4745
  717MOL0     H96763   8.423   7.388   3.455 -0.4281  1.3196  2.4438
  717MOL0     H96764   8.515   7.394   3.605  2.7085  0.8008 -0.1846
  717MOL0     H96765   8.640   7.416   3.323  0.7493  0.1349  0.4781
  717MOL0     H96766   8.721   7.415   3.468  1.3983  2.2317 -0.5540
  717MOL0     H96767   8.616   7.640   3.528  0.2673 -1.4059 -0.7228
  717MOL0     H96768   8.716   7.635   3.384  0.7234 -1.9401  0.3439
  717MOL0     H96769   8.517   7.784   3.385  1.7230 -1.2830 -0.1944
  717MOL0     H96770   8.415   7.630   3.411  1.1843 -1.5695  0.5655
  717MOL0     H96771   8.576   7.625   3.167 -2.0620 -3.4546  0.6130
  717MOL0     H96772   8.437   7.544   3.222  2.6333 -1.5219  3.3558
  717MOL0     H96773   8.473   7.846   3.168 -3.1211  1.2558  1.3684
  717MOL0     H96774   8.326   7.787   3.229  0.1954  2.8847 -0.8391
  717MOL0     H96775   8.441   7.682   2.957 -0.0498 -1.9589  1.3358
  717MOL0     H96776   8.323   7.822   2.969 -3.8707 -1.3026  0.3948
  717MOL0     H96777   8.524   6.949   3.418 -0.2246  0.5639  1.1042
  717MOL0     H96778   8.557   6.726   3.440 -3.2026  0.4717  1.9017
  717MOL0     H96779   8.753   6.406   3.460 -0.5400 -0.0597 -0.4371
  717MOL0     H96780   8.795   6.179   3.420 -0.5995 -0.0865  0.4930
  717MOL0     H96781   9.682   6.032   3.353  1.0578  2.1636  0.6869
  717MOL0     H96782   9.566   6.208   3.250  0.5586  1.5700  0.0003
  717MOL0     H96783   9.054   6.221   2.950  4.3967 -1.9448  1.0639
  717MOL0     H96784   8.960   6.416   2.834  2.1310  0.3041 -1.0100
  717MOL0     H96785   8.975   6.629   2.725 -0.3751  1.7504 -1.4684
  717MOL0     H96786   8.833   6.575   2.811  1.0095 -0.0571  3.9443
  717MOL0     H96787   8.893   6.869   2.761 -0.2032 -0.3187  0.0093
  717MOL0     H96788   8.764   6.809   2.862 -1.2626  0.2715 -0.4878
  717MOL0     H96789   8.632   6.706   2.693  0.7569  0.2242 -1.2571
  717MOL0     H96790   8.776   6.696   2.584 -0.9705 -1.4448 -0.4860
  717MOL0     H96791   8.610   6.861   2.509  0.3490 -0.2717  0.6306
  717MOL0     H96792   8.756   6.942   2.537  0.0484  0.3556 -1.9349
  717MOL0     H96793   8.484   7.146   2.777 -1.5596 -1.4941  1.0413
  717MOL0     H96794   9.110   6.680   3.131  1.6626 -1.2381  0.7727
  717MOL0     H96795   9.254   6.508   3.225 -0.3422  2.6702 -2.2101
  718MOL0     O96796   5.610   2.587   2.691  0.5090  0.7937 -0.1421
  718MOL0     C96797   5.625   2.555   2.806  0.1054 -1.4205 -0.4217
  718MOL0     O96798   5.750   2.561   2.865 -0.1643 -0.2718  0.8891
  718MOL0     C96799   5.860   2.610   2.796 -0.6296 -0.3212 -0.0631
  718MOL0     C96800   5.934   2.704   2.866 -0.2275 -0.2229 -0.8483
  718MOL0     C96801   6.062   2.750   2.822 -0.2554 -0.3746 -0.0290
  718MOL0     C96802   6.101   2.694   2.692  0.3819 -1.1331 -0.7670
  718MOL0     O96803   6.219   2.740   2.646 -0.5656  0.0063  0.2542
  718MOL0     C96804   6.308   2.634   2.609 -0.0800 -0.1818  0.9764
  718MOL0     C96805   6.451   2.691   2.643  0.4766 -0.0762  0.0520
  718MOL0     C96806   6.489   2.804   2.558  0.2312  0.1062  0.0489
  718MOL0     C96807   6.495   2.768   2.407  0.4930  0.7795 -0.2286
  718MOL0     C96808   6.560   2.887   2.323 -0.0235  0.8061  0.1087
  718MOL0     C96809   6.709   2.897   2.344 -0.1379 -0.4247 -0.1200
  718MOL0     C96810   6.783   2.991   2.241  0.2429 -0.0680 -0.7067
  718MOL0     C96811   6.883   3.073   2.310 -0.0328 -0.8517 -0.0130
  718MOL0     N96812   6.811   3.198   2.364 -1.2558 -0.2395  0.3628
  718MOL0     C96813   6.876   3.322   2.375  0.4586  0.9720  0.0478
  718MOL0     C96814   6.774   3.408   2.421 -0.3689  1.5036 -0.6960
  718MOL0     C96815   6.793   3.557   2.437  0.9197 -0.9593  0.6298
  718MOL0     C96816   6.744   3.623   2.305  0.5783 -0.0829  0.3567
  718MOL0     C96817   6.750   3.778   2.291 -0.4233  1.2630 -0.4617
  718MOL0     C96818   6.650   3.847   2.376 -0.7585  0.2388 -0.0224
  718MOL0     O96819   6.665   3.991   2.359 -0.3995  0.1748  0.2892
  718MOL0     C96820   6.572   4.050   2.268  0.9229 -0.7610 -0.0767
  718MOL0     C96821   6.506   3.994   2.155 -0.9275  0.0026 -0.2624
  718MOL0     C96822   6.406   4.058   2.086  0.8614 -0.4589  0.9031
  718MOL0     C96823   6.363   3.993   1.956 -0.3657 -0.4001  0.2337
  718MOL0     C96824   6.381   4.196   2.117  0.3482  0.5301 -0.0337
  718MOL0     C96825   6.293   4.283   2.039  0.5443  0.4724  0.6903
  718MOL0     O96826   6.196   4.228   1.955  0.1177  0.1019 -0.5518
  718MOL0     C96827   6.100   4.302   1.891 -1.1027 -0.5719  1.2513
  718MOL0     C96828   6.121   4.437   1.857  0.0788  0.7343  0.1560
  718MOL0     C96829   6.028   4.513   1.797 -0.9810  0.6510 -1.0415
  718MOL0     C96830   5.907   4.451   1.761 -0.1558 -0.0780 -1.0543
  718MOL0     O96831   5.814   4.523   1.679  0.1710  0.4655 -0.3214
  718MOL0     C96832   5.809   4.667   1.663  0.4251 -0.1438  0.6370
  718MOL0     C96833   5.679   4.732   1.614  0.4268  0.0176  0.7485
  718MOL0     C96834   5.560   4.705   1.700 -0.2811  0.0260 -0.9280
  718MOL0     C96835   5.510   4.564   1.677 -0.3187  0.0494 -1.1866
  718MOL0     C96836   5.365   4.529   1.722 -0.4865 -1.0741 -0.3757
  718MOL0     C96837   5.306   4.420   1.633  0.2609 -0.9981 -0.7382
  718MOL0     C96838   5.172   4.372   1.674  0.2549  0.0440 -0.2200
  718MOL0     C96839   5.136   4.258   1.592  0.9806  0.4746 -0.1432
  718MOL0    Cl96840   5.107   4.315   1.423 -0.2409  0.2486  0.0596
  718MOL0     C96841   5.880   4.316   1.794  0.2006 -0.8604  0.4253
  718MOL0     C96842   5.978   4.240   1.854  0.6470  0.6400 -0.6780
  718MOL0     O96843   6.312   4.401   2.064  0.0853  0.7896 -0.3664
  718MOL0     C96844   6.440   4.252   2.232  0.3074 -0.3240  1.1804
  718MOL0     C96845   6.533   4.176   2.303 -0.3271  0.1491 -0.1622
  718MOL0     N96846   6.652   3.341   2.435  0.5640  0.7108 -0.8009
  718MOL0     N96847   6.683   3.222   2.397 -0.0607  0.0521  0.1343
  718MOL0     C96848   6.026   2.598   2.631  0.4459 -0.2643 -0.3792
  718MOL0     C96849   5.904   2.557   2.686 -0.8340  0.3743  0.3212
  718MOL0     C96850   5.504   2.527   2.889  0.8713 -0.5984  0.3364
  718MOL0     C96851   5.387   2.492   2.824  0.8833  0.2822 -0.1666
  718MOL0     C96852   5.271   2.458   2.890  0.9753 -0.2496  0.3767
  718MOL0     C96853   5.268   2.476   3.029  0.7388  0.3745 -0.9721
  718MOL0     O96854   5.157   2.426   3.096  0.4990 -0.5258  0.7472
  718MOL0     C96855   5.037   2.504   3.062  0.3118  0.3484  0.3691
  718MOL0     C96856   4.915   2.448   3.133  0.1409  0.0837 -0.2608
  718MOL0     C96857   4.878   2.305   3.072 -0.8540 -0.1699 -0.1829
  718MOL0     C96858   4.756   2.252   3.149 -0.7563  1.1864  0.5664
  718MOL0     C96859   4.786   2.182   3.276  1.0180 -0.5149 -0.8336
  718MOL0     C96860   4.800   2.135   3.386 -0.2154  0.9234 -0.2604
  718MOL0     C96861   5.384   2.508   3.095  0.8918 -0.8385  0.0145
  718MOL0     C96862   5.502   2.531   3.025 -0.2955  0.1286 -0.4058
  718MOL0     H96863   5.894   2.742   2.959  1.4422 -0.2067 -0.1069
  718MOL0     H96864   6.143   2.808   2.865  0.6826 -1.5923 -0.1233
  718MOL0     H96865   6.292   2.542   2.667  0.2144 -1.1452 -0.4115
  718MOL0     H96866   6.281   2.603   2.507 -1.2108 -2.3049  1.8651
  718MOL0     H96867   6.454   2.724   2.747  1.5727 -2.4567  0.8496
  718MOL0     H96868   6.534   2.622   2.627 -0.2247 -1.6365  2.4981
  718MOL0     H96869   6.416   2.886   2.563  0.4094  0.3290 -0.8921
  718MOL0     H96870   6.587   2.838   2.593  1.3772 -1.2534 -1.6687
  718MOL0     H96871   6.537   2.671   2.380 -1.1917  0.0091 -0.2573
  718MOL0     H96872   6.391   2.757   2.373 -0.4174  1.9228  1.9612
  718MOL0     H96873   6.529   2.865   2.221  1.1499 -3.3994  0.4523
  718MOL0     H96874   6.521   2.986   2.348  0.0250  1.1102 -0.9747
  718MOL0     H96875   6.733   2.925   2.447 -1.4794 -2.7575  0.8990
  718MOL0     H96876   6.740   2.792   2.349 -1.2180 -0.7036  1.2641
  718MOL0     H96877   6.846   2.936   2.170  0.0795 -2.8666  1.1392
  718MOL0     H96878   6.705   3.052   2.195 -0.2971  3.2858  3.9641
  718MOL0     H96879   6.958   3.105   2.237  1.2748 -2.6148  0.5014
  718MOL0     H96880   6.932   3.023   2.394  0.3067  1.0815  1.0177
  718MOL0     H96881   6.977   3.348   2.347 -0.0994 -0.0362 -3.3635
  718MOL0     H96882   6.737   3.592   2.523 -2.6391 -3.4323 -0.4403
  718MOL0     H96883   6.897   3.586   2.454  0.5412  0.6723  0.3443
  718MOL0     H96884   6.642   3.584   2.291  0.9188 -0.8347 -0.0856
  718MOL0     H96885   6.806   3.580   2.227 -1.4691 -1.5096 -0.5848
  718MOL0     H96886   6.742   3.803   2.184  1.7780 -4.0430 -2.1979
  718MOL0     H96887   6.851   3.806   2.321  0.0685 -1.2515  0.4917
  718MOL0     H96888   6.654   3.820   2.481  0.5435  0.9057  0.1185
  718MOL0     H96889   6.549   3.815   2.349 -0.3772 -0.5827 -0.5226
  718MOL0     H96890   6.545   3.896   2.131  2.0353  0.5285  1.8826
  718MOL0     H96891   6.418   3.899   1.948 -1.4869 -1.1675  1.1999
  718MOL0     H96892   6.255   3.979   1.945 -0.2768  0.3120 -2.0679
  718MOL0     H96893   6.389   4.050   1.866 -2.3408 -1.2452 -0.9569
  718MOL0     H96894   6.223   4.473   1.864  0.7394 -0.4947 -2.1106
  718MOL0     H96895   6.045   4.616   1.767  0.1508  1.1473  1.1273
  718MOL0     H96896   5.833   4.709   1.761 -1.5699 -2.8099  2.3978
  718MOL0     H96897   5.886   4.694   1.590 -0.9685  2.5045  0.0189
  718MOL0     H96898   5.695   4.840   1.609 -2.9000  0.5708  0.3529
  718MOL0     H96899   5.662   4.700   1.511  2.8589  3.2063 -0.8240
  718MOL0     H96900   5.472   4.765   1.679  1.1073  2.7230  0.4799
  718MOL0     H96901   5.579   4.719   1.807 -1.7918  2.0108 -0.8777
  718MOL0     H96902   5.522   4.541   1.571  0.0954  0.6051 -1.2657
  718MOL0     H96903   5.583   4.501   1.730 -1.7062  1.4970  2.7872
  718MOL0     H96904   5.299   4.615   1.707  0.7977  0.9118  3.9192
  718MOL0     H96905   5.342   4.513   1.828 -0.0960 -4.5674 -0.6825
  718MOL0     H96906   5.315   4.449   1.528 -2.4402  1.7784 -0.3503
  718MOL0     H96907   5.381   4.341   1.642  5.0452  3.0576 -1.3687
  718MOL0     H96908   5.103   4.456   1.664  1.6172  1.2524  0.1889
  718MOL0     H96909   5.181   4.340   1.779  3.6679  0.0105 -0.3860
  718MOL0     H96910   5.041   4.215   1.626 -0.8575  2.7174 -2.0434
  718MOL0     H96911   5.210   4.178   1.587 -2.0990 -2.4789 -2.9707
  718MOL0     H96912   5.787   4.268   1.765  0.5153 -1.8435  0.9660
  718MOL0     H96913   5.970   4.135   1.879  0.0326  1.2961  2.1774
  718MOL0     H96914   6.421   4.354   2.265 -2.0480 -1.1859  2.7609
  718MOL0     H96915   6.574   4.216   2.395  1.2425 -3.0402  0.6502
  718MOL0     H96916   6.065   2.550   2.541  2.0797  1.7960 -0.8482
  718MOL0     H96917   5.847   2.475   2.642  0.9790  0.0813 -1.6407
  718MOL0     H96918   5.390   2.488   2.716 -0.3081  1.3427 -0.2669
  718MOL0     H96919   5.186   2.423   2.831  0.0850 -0.9345  2.0041
  718MOL0     H96920   5.055   2.608   3.091 -0.7261  0.0356  2.2549
  718MOL0     H96921   5.015   2.493   2.955 -0.3755  1.2382  0.4163
  718MOL0     H96922   4.828   2.512   3.123 -0.2112 -0.3616 -0.0841
  718MOL0     H96923   4.932   2.437   3.241 -0.1781 -0.4662 -0.2595
  718MOL0     H96924   4.966   2.240   3.070  0.0938  0.9863  1.0694
  718MOL0     H96925   4.844   2.314   2.969 -1.4421 -1.5715 -0.1310
  718MOL0     H96926   4.695   2.192   3.081  2.0232 -0.0368 -1.0242
  718MOL0     H96927   4.700   2.343   3.174 -1.1041  1.1587 -0.0763
  718MOL0     H96928   4.804   2.088   3.482 -1.1885 -0.5476 -0.9079
  718MOL0     H96929   5.361   2.516   3.201 -1.1811  0.2190 -0.4608
  718MOL0     H96930   5.597   2.542   3.077  0.4847 -3.7617 -0.6996
  719MOL0     O96931   9.205   2.151   4.671 -0.5715 -0.2503  0.0450
  719MOL0     C96932   9.142   2.063   4.719 -0.2115  0.4309 -0.2899
  719MOL0     O96933   9.106   1.944   4.657  0.6758  0.2928  0.1088
  719MOL0     C96934   9.122   1.928   4.523  0.0166  1.2198  0.5110
  719MOL0     C96935   9.015   1.955   4.430 -0.5476  0.2532 -0.0948
  719MOL0     C96936   9.054   1.958   4.295  0.0787 -0.1562  0.1556
  719MOL0     C96937   9.184   1.922   4.244  0.3503  0.0091 -0.6196
  719MOL0     O96938   9.205   1.912   4.114 -0.0430  1.0536  0.3269
  719MOL0     C96939   9.346   1.940   4.075  1.0767 -0.2979 -0.4884
  719MOL0     C96940   9.335   1.984   3.920 -0.0138 -0.8278  0.5726
  719MOL0     C96941   9.471   1.955   3.852  0.0093  0.2034 -0.3305
  719MOL0     C96942   9.586   2.036   3.905 -0.3510 -0.4253 -0.1752
  719MOL0     C96943   9.738   1.998   3.855 -0.7442  0.3525  0.1430
  719MOL0     C96944   9.840   2.099   3.920 -1.0001 -0.1136  0.0057
  719MOL0     C96945   9.992   2.054   3.922 -0.4341 -0.3495  0.0471
  719MOL0     C96946  10.064   2.145   4.010  0.1878  0.4477 -0.7678
  719MOL0     N96947  10.118   2.266   3.931  0.0466  0.3721  0.1291
  719MOL0     C96948  10.137   2.392   3.985 -0.9505  0.0366 -0.3064
  719MOL0     C96949  10.209   2.459   3.898  0.0064 -0.4746 -0.5698
  719MOL0     C96950  10.261   2.594   3.917  0.0215  0.3109  0.1535
  719MOL0     C96951  10.304   2.661   3.784 -0.3655 -0.5841 -1.1662
  719MOL0     C96952  10.362   2.810   3.797  0.2888 -0.8394  0.3932
  719MOL0     C96953  10.515   2.832   3.788 -1.3539  0.3663  0.3008
  719MOL0     O96954  10.583   2.751   3.884 -0.2109 -0.8040  0.0256
  719MOL0     C96955  10.717   2.774   3.883 -0.0481  0.1137 -1.3703
  719MOL0     C96956  10.797   2.669   3.925 -0.8926  0.1145 -0.4888
  719MOL0     C96957  10.935   2.680   3.942 -0.2253  0.8031 -0.3328
  719MOL0     C96958  11.021   2.554   3.947 -0.6039  1.2670  0.2570
  719MOL0     C96959  10.996   2.809   3.952 -0.1187 -0.6827 -0.2819
  719MOL0     C96960  11.143   2.849   3.970 -0.9760  0.4462 -0.6154
  719MOL0     O96961  11.185   2.976   3.922 -1.1380  0.1192 -0.3009
  719MOL0     C96962  11.292   3.054   3.959  0.0816  0.0062 -0.5668
  719MOL0     C96963  11.387   3.016   4.057 -0.0195  0.4798 -0.3947
  719MOL0     C96964  11.493   3.088   4.089  0.9218  0.2284 -1.1323
  719MOL0     C96965  11.512   3.208   4.022 -0.0201  0.2959  0.6371
  719MOL0     O96966  11.622   3.285   4.066  0.1835  0.5861 -0.0575
  719MOL0     C96967  11.709   3.352   3.970  0.6085  0.6792 -0.0990
  719MOL0     C96968  11.772   3.470   4.031 -0.3068 -0.4610  0.3555
  719MOL0     C96969  11.672   3.589   4.067 -0.5997  0.5851  0.2764
  719MOL0     C96970  11.752   3.709   4.123 -1.2210  0.8478  0.1418
  719MOL0     C96971  11.664   3.819   4.185  0.3764 -0.1675 -0.9135
  719MOL0     C96972  11.687   3.950   4.112 -0.6040 -0.0607  0.3535
  719MOL0     C96973  11.634   4.074   4.186  0.9389  0.4310 -0.8153
  719MOL0     C96974  11.555   4.179   4.106 -0.9598  1.0228  0.6554
  719MOL0    Cl96975  11.477   4.270   4.230 -0.3764  0.2451  0.0828
  719MOL0     C96976  11.425   3.250   3.919  0.2304 -0.2374 -0.8194
  719MOL0     C96977  11.308   3.175   3.892 -0.5889 -0.2937  0.1162
  719MOL0     O96978  11.214   2.756   4.013 -0.3003 -0.4405  0.2346
  719MOL0     C96979  10.912   2.919   3.919 -1.2560  0.0679  0.1765
  719MOL0     C96980  10.779   2.902   3.885  0.2652  0.4329 -0.7181
  719MOL0     N96981  10.229   2.378   3.787 -0.5081 -0.5043  0.0206
  719MOL0     N96982  10.172   2.267   3.808 -0.6339  0.1621  0.1520
  719MOL0     C96983   9.273   1.881   4.344  0.0438  0.3650 -0.3056
  719MOL0     C96984   9.248   1.878   4.479 -0.5696  1.3379  0.1374
  719MOL0     C96985   9.090   2.078   4.858  0.3763 -0.3052 -0.2963
  719MOL0     C96986   9.096   2.207   4.917 -0.3287  0.3708  0.2564
  719MOL0     C96987   9.039   2.232   5.038  0.9948  0.6142  0.2766
  719MOL0     C96988   8.973   2.129   5.109  0.5657  0.7011  0.7062
  719MOL0     O96989   8.921   2.165   5.225  0.7094 -0.2696  0.2409
  719MOL0     C96990   8.892   2.067   5.326  0.1755  0.6302  0.1224
  719MOL0     C96991   8.746   2.019   5.300  0.3126  0.1031  0.5879
  719MOL0     C96992   8.647   2.126   5.345 -0.8440  0.3504 -0.0380
  719MOL0     C96993   8.512   2.074   5.315  0.8647 -0.5597 -0.1421
  719MOL0     C96994   8.397   2.172   5.324  0.7981 -0.1877 -1.3423
  719MOL0     C96995   8.305   2.247   5.357  0.1991 -0.5858 -0.3584
  719MOL0     C96996   8.971   1.995   5.049  0.4998 -0.3971 -0.4981
  719MOL0     C96997   9.024   1.979   4.920  0.4395 -0.8424  1.1094
  719MOL0     H96998   8.916   1.993   4.453 -0.5558 -0.3741  0.9668
  719MOL0     H96999   8.970   1.976   4.229 -0.5203 -1.8741  0.4048
  719MOL0     H97000   9.392   2.023   4.129 -6.1709  2.9066  2.1127
  719MOL0     H97001   9.405   1.849   4.075  2.2588  0.4559 -0.3104
  719MOL0     H97002   9.259   1.924   3.870  0.0049 -0.3803 -0.0053
  719MOL0     H97003   9.312   2.091   3.919  3.2246  0.0024  2.0697
  719MOL0     H97004   9.503   1.854   3.879 -0.8470  0.0961  0.3137
  719MOL0     H97005   9.460   1.976   3.745 -1.0085 -1.1782 -0.5300
  719MOL0     H97006   9.558   2.138   3.878 -2.9011 -1.1314 -0.4229
  719MOL0     H97007   9.598   2.012   4.011  1.4679 -1.2526 -0.5232
  719MOL0     H97008   9.758   1.895   3.888  0.8007  0.4173 -0.4809
  719MOL0     H97009   9.747   2.008   3.747 -1.4380  0.0050  0.0526
  719MOL0     H97010   9.827   2.192   3.863 -5.2268 -0.4451  0.0902
  719MOL0     H97011   9.815   2.117   4.025 -1.0899  1.9471 -0.3160
  719MOL0     H97012  10.003   1.956   3.969 -2.2616 -0.7178 -0.2363
  719MOL0     H97013  10.034   2.051   3.820 -1.9489  1.9959 -0.7346
  719MOL0     H97014  10.151   2.099   4.058 -2.1519 -0.8444  2.5309
  719MOL0     H97015   9.995   2.176   4.089  0.6025 -1.2471  0.3102
  719MOL0     H97016  10.111   2.439   4.079  0.7085  0.9037 -0.2399
  719MOL0     H97017  10.172   2.653   3.937 -0.0885  0.9870 -2.0668
  719MOL0     H97018  10.335   2.597   3.997 -1.6286 -0.5482  1.7945
  719MOL0     H97019  10.217   2.652   3.719  0.0475 -0.4750 -1.7437
  719MOL0     H97020  10.379   2.602   3.730 -0.2001  0.1225 -1.7144
  719MOL0     H97021  10.333   2.857   3.891 -3.1169  2.2910 -1.9286
  719MOL0     H97022  10.314   2.875   3.723  4.1782  1.2454 -0.5609
  719MOL0     H97023  10.531   2.939   3.800 -2.4201  0.5342  0.3104
  719MOL0     H97024  10.565   2.816   3.693 -1.0446  0.1115  0.5028
  719MOL0     H97025  10.753   2.570   3.936 -0.1630 -0.4296 -2.2302
  719MOL0     H97026  11.126   2.562   3.919  0.2377 -3.7924  0.9833
  719MOL0     H97027  11.009   2.493   4.036  2.2389 -0.3004 -0.3226
  719MOL0     H97028  10.987   2.481   3.872 -3.4623  2.8075 -0.0857
  719MOL0     H97029  11.366   2.924   4.110 -1.1763 -0.0518 -1.7362
  719MOL0     H97030  11.566   3.052   4.161 -0.3676 -2.4524 -1.0588
  719MOL0     H97031  11.786   3.284   3.932  0.8267  1.8665 -1.9393
  719MOL0     H97032  11.646   3.385   3.886 -1.7283  0.6811  1.5691
  719MOL0     H97033  11.810   3.423   4.122 -1.3634  0.3284  1.2234
  719MOL0     H97034  11.851   3.497   3.960 -2.0894 -3.8250 -3.2998
  719MOL0     H97035  11.603   3.547   4.140  2.3117 -1.2999  2.1943
  719MOL0     H97036  11.624   3.615   3.973  0.6831 -3.5456 -1.7814
  719MOL0     H97037  11.806   3.671   4.210 -0.8828 -0.4096 -0.5965
  719MOL0     H97038  11.834   3.741   4.057  1.4312 -1.7210  1.9887
  719MOL0     H97039  11.691   3.837   4.290  0.7636  1.3414 -1.2461
  719MOL0     H97040  11.559   3.790   4.177 -0.2829  1.8885 -0.4832
  719MOL0     H97041  11.794   3.963   4.098 -1.0970  3.0557 -1.4560
  719MOL0     H97042  11.642   3.931   4.013  3.1723 -0.7995 -1.4086
  719MOL0     H97043  11.721   4.125   4.226 -0.4122  1.5613  0.8388
  719MOL0     H97044  11.581   4.053   4.279  1.3547  2.6785 -0.0062
  719MOL0     H97045  11.492   4.127   4.033  0.6980  0.9882 -0.8451
  719MOL0     H97046  11.617   4.252   4.054 -1.7232  0.0383 -1.7762
  719MOL0     H97047  11.455   3.339   3.864  0.0956  1.8114  2.1655
  719MOL0     H97048  11.236   3.209   3.818 -0.9376 -1.8667 -0.3100
  719MOL0     H97049  10.962   3.015   3.918 -0.7145 -0.0407  3.6936
  719MOL0     H97050  10.725   2.995   3.869  2.0450  1.6585  0.1852
  719MOL0     H97051   9.374   1.850   4.318  0.8236  0.5994  2.1747
  719MOL0     H97052   9.327   1.844   4.546 -0.9431  2.8805  1.4283
  719MOL0     H97053   9.157   2.288   4.879  1.6572 -1.0153  0.3273
  719MOL0     H97054   9.054   2.328   5.087 -0.5196  2.5546 -2.7516
  719MOL0     H97055   8.957   1.980   5.312 -4.8207 -3.5138 -0.0683
  719MOL0     H97056   8.909   2.111   5.424 -1.1360  2.7842 -0.5445
  719MOL0     H97057   8.742   1.932   5.367  0.5477 -1.6106 -1.5338
  719MOL0     H97058   8.727   2.004   5.194  0.5534  2.5264  0.1317
  719MOL0     H97059   8.665   2.225   5.303 -0.1727  0.9854  1.6600
  719MOL0     H97060   8.656   2.138   5.454 -0.2105 -0.2990 -0.0127
  719MOL0     H97061   8.480   1.996   5.386 -3.4712 -0.2094 -1.4184
  719MOL0     H97062   8.506   2.038   5.212  1.6416 -0.4814 -0.2185
  719MOL0     H97063   8.222   2.311   5.380 -1.8321 -2.5024 -1.8551
  719MOL0     H97064   8.917   1.919   5.104  1.0339  0.2284  0.9484
  719MOL0     H97065   9.010   1.886   4.866  0.3780  0.0688 -0.4900
  720MOL0     O97066   0.417  10.189   8.624  0.9943 -0.2898  0.0475
  720MOL0     C97067   0.415  10.288   8.547 -0.1988  0.8556  0.7972
  720MOL0     O97068   0.519  10.377   8.524  0.5510  0.0608  0.2308
  720MOL0     C97069   0.625  10.371   8.612 -0.1521  0.8790  0.1384
  720MOL0     C97070   0.727  10.276   8.592 -0.4496  0.1711 -0.9213
  720MOL0     C97071   0.846  10.283   8.670  0.4446  0.4028 -0.5329
  720MOL0     C97072   0.857  10.375   8.778 -0.4842 -1.0210 -0.9454
  720MOL0     O97073   0.960  10.359   8.881  0.6801  0.4229 -0.6499
  720MOL0     C97074   0.976  10.473   8.977 -0.0883  0.7351  0.8248
  720MOL0     C97075   1.083  10.428   9.088  0.5305 -0.3644  0.5465
  720MOL0     C97076   1.154  10.535   9.174  1.2838 -0.3525  0.2230
  720MOL0     C97077   1.054  10.641   9.230 -0.0192  0.4465  1.0667
  720MOL0     C97078   1.134  10.756   9.297  1.0618  0.4736 -1.5939
  720MOL0     C97079   1.183  10.719   9.436  0.2670  0.3226  0.4205
  720MOL0     C97080   1.205  10.849   9.514 -0.5686 -0.7146  0.1988
  720MOL0     C97081   1.310  10.946   9.436  0.0800  0.2970 -0.4118
  720MOL0     N97082   1.349  11.060   9.522  0.3436 -0.5243  0.6445
  720MOL0     C97083   1.291  11.188   9.509 -1.5951  0.5260 -0.0487
  720MOL0     C97084   1.369  11.266   9.585 -0.1370 -0.5128  0.5641
  720MOL0     C97085   1.335  11.413   9.615  0.5968  0.1074 -0.2030
  720MOL0     C97086   1.443  11.483   9.704 -0.3404  0.2614 -0.2976
  720MOL0     C97087   1.423  11.631   9.728  1.1757  1.3652 -0.1696
  720MOL0     C97088   1.467  11.702   9.591 -1.2317  1.0900 -0.3072
  720MOL0     O97089   1.468  11.840   9.596 -0.5402  1.3370 -1.2164
  720MOL0     C97090   1.478  11.893   9.471 -0.0562  0.0351 -0.3763
  720MOL0     C97091   1.521  11.838   9.350  0.3067 -0.1678 -0.0058
  720MOL0     C97092   1.539  11.911   9.233  0.2492  0.8044  0.5656
  720MOL0     C97093   1.572  11.837   9.111 -0.6612 -0.0543  0.3008
  720MOL0     C97094   1.497  12.045   9.233  0.3920  0.1500  0.1403
  720MOL0     C97095   1.496  12.121   9.113 -0.3316  0.6125  1.4691
  720MOL0     O97096   1.545  12.257   9.124  0.1938  0.3702 -0.3411
  720MOL0     C97097   1.522  12.347   9.031 -0.6459  0.2010 -0.4143
  720MOL0     C97098   1.445  12.459   9.073  0.1460  0.1617 -0.2830
  720MOL0     C97099   1.417  12.555   8.980 -0.7309 -1.3202  0.5892
  720MOL0     C97100   1.467  12.547   8.849  0.1785  0.1903 -0.1923
  720MOL0     O97101   1.444  12.655   8.774  0.0736  0.0332  0.0523
  720MOL0     C97102   1.468  12.654   8.629 -0.3039 -0.4328 -0.5742
  720MOL0     C97103   1.412  12.764   8.536 -0.5582  0.4012 -0.1384
  720MOL0     C97104   1.438  12.893   8.610 -0.8406  0.5500  0.6129
  720MOL0     C97105   1.388  13.013   8.540 -0.6825 -0.9255  0.5893
  720MOL0     C97106   1.394  13.023   8.393 -0.3076  0.3025  0.4349
  720MOL0     C97107   1.535  13.049   8.341 -0.2581  0.6398  1.1047
  720MOL0     C97108   1.544  13.113   8.198  0.8713  0.1132 -0.2270
  720MOL0     C97109   1.682  13.170   8.155  0.1370 -0.7873 -0.7214
  720MOL0    Cl97110   1.656  13.251   8.000 -0.1989 -0.3950  0.2698
  720MOL0     C97111   1.547  12.436   8.808 -0.0023 -0.0986  0.0097
  720MOL0     C97112   1.573  12.334   8.903  0.0482 -0.6362  0.7653
  720MOL0     O97113   1.431  12.076   9.014 -0.3569  0.1593 -0.6342
  720MOL0     C97114   1.470  12.107   9.354 -0.0155  0.6469  0.2143
  720MOL0     C97115   1.453  12.027   9.472 -0.5793 -0.8463  0.2514
  720MOL0     N97116   1.467  11.188   9.640  0.1713  0.0512  0.2597
  720MOL0     N97117   1.453  11.070   9.613 -0.0376  0.3704  0.7499
  720MOL0     C97118   0.750  10.475   8.789 -1.0490 -0.4732  0.3595
  720MOL0     C97119   0.640  10.470   8.709  0.8680 -0.2865  0.0296
  720MOL0     C97120   0.298  10.315   8.466 -0.2984  0.1869  0.8206
  720MOL0     C97121   0.179  10.257   8.501 -0.1598 -0.2753  0.2222
  720MOL0     C97122   0.072  10.281   8.414 -0.5953 -0.2538  0.0856
  720MOL0     C97123   0.071  10.362   8.300 -0.1549 -0.6769 -0.9569
  720MOL0     O97124  -0.046  10.356   8.225 -0.1667 -0.2345 -0.6254
  720MOL0     C97125  -0.075  10.448   8.122 -0.4830 -0.2348 -0.3485
  720MOL0     C97126  -0.227  10.455   8.106  0.0744 -0.7425  0.1252
  720MOL0     C97127  -0.266  10.519   7.972  0.8211 -0.8444  0.3576
  720MOL0     C97128  -0.227  10.666   7.949 -0.3760 -0.7678  0.3451
  720MOL0     C97129  -0.298  10.752   8.039 -1.3326  0.1206 -0.1671
  720MOL0     C97130  -0.356  10.832   8.112  0.4380  0.6961 -0.2322
  720MOL0     C97131   0.190  10.432   8.280 -0.5945 -0.1571 -0.3507
  720MOL0     C97132   0.306  10.400   8.355  0.1601  0.6728  0.1772
  720MOL0     H97133   0.715  10.193   8.524 -2.9572  0.0262 -0.3924
  720MOL0     H97134   0.919  10.203   8.660 -1.2490 -1.0274 -2.0098
  720MOL0     H97135   1.015  10.555   8.917  6.2253 -0.8509  1.9785
  720MOL0     H97136   0.883  10.502   9.027 -0.5651 -0.3818  0.6226
  720MOL0     H97137   1.042  10.362   9.165  2.2642  1.0207  2.7827
  720MOL0     H97138   1.165  10.369   9.045 -1.3579 -1.9399 -1.1202
  720MOL0     H97139   1.215  10.487   9.251  1.2552 -1.6871 -0.5687
  720MOL0     H97140   1.224  10.585   9.107 -0.9309  1.5565 -0.8328
  720MOL0     H97141   0.991  10.684   9.151 -1.2029 -1.8391  0.6589
  720MOL0     H97142   0.984  10.602   9.304  1.1699 -0.2524  1.8589
  720MOL0     H97143   1.226  10.778   9.243  1.6492 -2.7670 -2.0533
  720MOL0     H97144   1.067  10.843   9.290 -1.0225 -1.1214 -2.7911
  720MOL0     H97145   1.110  10.651   9.480  0.2099 -0.4115 -0.7450
  720MOL0     H97146   1.279  10.667   9.421  0.2475  0.6596 -1.0465
  720MOL0     H97147   1.114  10.908   9.529 -0.1683 -0.6129  2.4732
  720MOL0     H97148   1.250  10.820   9.609  0.1111 -0.9656 -0.1971
  720MOL0     H97149   1.252  10.988   9.354 -2.2192  0.8184  1.3862
  720MOL0     H97150   1.402  10.892   9.409  1.6578  1.5102  2.1084
  720MOL0     H97151   1.201  11.213   9.454 -0.8847  0.5469 -1.2359
  720MOL0     H97152   1.320  11.474   9.525  0.2956 -0.6419 -0.6679
  720MOL0     H97153   1.236  11.415   9.660 -0.6105  0.5291 -2.6762
  720MOL0     H97154   1.537  11.465   9.651 -1.0387  0.7356 -1.7406
  720MOL0     H97155   1.441  11.429   9.800  0.6239 -2.9302 -1.9317
  720MOL0     H97156   1.485  11.660   9.813  1.5595 -0.8326  0.3745
  720MOL0     H97157   1.320  11.653   9.755  0.5162  0.4248 -1.7757
  720MOL0     H97158   1.410  11.663   9.506 -1.3537 -0.2563  0.3554
  720MOL0     H97159   1.572  11.672   9.589 -1.3055  0.3220  2.4242
  720MOL0     H97160   1.562  11.738   9.340  2.2210  0.6829 -1.1649
  720MOL0     H97161   1.651  11.880   9.050  1.4931 -2.0059  1.5517
  720MOL0     H97162   1.622  11.743   9.137 -0.8299 -0.3630 -0.4638
  720MOL0     H97163   1.483  11.814   9.052 -1.4376 -1.7353  1.9985
  720MOL0     H97164   1.402  12.471   9.172  1.0288 -1.3026  0.3024
  720MOL0     H97165   1.362  12.644   9.007  1.0436 -0.1466  0.5380
  720MOL0     H97166   1.573  12.652   8.598 -0.2036 -1.1447 -0.1855
  720MOL0     H97167   1.429  12.561   8.586  4.2736 -3.2863  0.7457
  720MOL0     H97168   1.465  12.775   8.441 -1.4508  0.5034 -0.6446
  720MOL0     H97169   1.303  12.755   8.529 -0.7545  2.5312 -0.6280
  720MOL0     H97170   1.547  12.903   8.621 -0.6600 -1.3096  0.7617
  720MOL0     H97171   1.405  12.905   8.714  1.8790 -0.5607  1.7048
  720MOL0     H97172   1.282  13.007   8.563 -1.0967 -1.7574 -1.3549
  720MOL0     H97173   1.426  13.108   8.579  0.6673  0.7070 -4.0136
  720MOL0     H97174   1.338  13.111   8.361 -2.2206 -0.2495  2.0591
  720MOL0     H97175   1.342  12.939   8.346 -2.6566  3.0613 -2.2924
  720MOL0     H97176   1.581  13.127   8.403  2.2605  0.3116 -0.2020
  720MOL0     H97177   1.600  12.961   8.343 -1.2357 -0.3376 -2.6735
  720MOL0     H97178   1.479  13.199   8.213 -0.1526 -0.6100 -0.4233
  720MOL0     H97179   1.507  13.047   8.119 -0.8662  1.1899 -0.3435
  720MOL0     H97180   1.755  13.091   8.138 -0.1996 -1.5134  1.0601
  720MOL0     H97181   1.714  13.241   8.232 -0.1975  0.0494 -1.3354
  720MOL0     H97182   1.589  12.427   8.709  4.0462  0.0699  1.5009
  720MOL0     H97183   1.640  12.255   8.869 -2.8963 -2.8901 -0.1695
  720MOL0     H97184   1.453  12.214   9.349 -0.2137  0.5486 -3.4302
  720MOL0     H97185   1.419  12.076   9.563 -1.7906 -0.6910 -0.2567
  720MOL0     H97186   0.755  10.564   8.851  0.7887 -0.0237 -0.3709
  720MOL0     H97187   0.561  10.544   8.710  1.7507  0.7466  2.8259
  720MOL0     H97188   0.175  10.178   8.575  3.9206 -2.7474 -1.8593
  720MOL0     H97189  -0.027  10.241   8.434 -2.3607  2.5957 -2.1858
  720MOL0     H97190  -0.048  10.547   8.159  0.4047  0.2488 -2.1794
  720MOL0     H97191  -0.013  10.426   8.035  1.6610  1.3203  0.6939
  720MOL0     H97192  -0.266  10.500   8.198 -0.8977  1.9706 -1.4995
  720MOL0     H97193  -0.259  10.351   8.114  1.9398 -1.2018  3.5783
  720MOL0     H97194  -0.372  10.506   7.946  1.3211 -2.2350 -1.2149
  720MOL0     H97195  -0.210  10.455   7.903  1.0535  0.4413 -0.6877
  720MOL0     H97196  -0.275  10.698   7.856  0.5580  0.4538  0.2521
  720MOL0     H97197  -0.118  10.676   7.937 -0.4793  2.7672  1.2110
  720MOL0     H97198  -0.423  10.889   8.173 -0.2296  0.0527 -0.3491
  720MOL0     H97199   0.193  10.496   8.193 -0.1044 -0.5255 -0.6093
  720MOL0     H97200   0.389  10.466   8.332  0.8993 -0.7419 -1.4737
  721MOL0     O97201   5.671   9.652   8.089 -0.0052 -0.3157  0.2331
  721MOL0     C97202   5.693   9.640   7.969  2.0399  0.0556  0.1733
  721MOL0     O97203   5.764   9.546   7.907 -0.0524  0.4271  0.8627
  721MOL0     C97204   5.808   9.444   7.989  0.2354  0.2848  0.3577
  721MOL0     C97205   5.721   9.376   8.078  0.1239 -0.7899  0.1314
  721MOL0     C97206   5.772   9.275   8.157 -0.7202  1.0820 -0.0375
  721MOL0     C97207   5.908   9.236   8.146  0.5002  0.6886 -0.3937
  721MOL0     O97208   5.955   9.149   8.244 -0.4083 -0.5649  0.2005
  721MOL0     C97209   6.090   9.179   8.297 -0.3191 -0.2142 -0.2597
  721MOL0     C97210   6.083   9.116   8.442 -0.4538  0.2245  0.3890
  721MOL0     C97211   6.094   8.966   8.441 -0.7859  1.0778 -0.2803
  721MOL0     C97212   6.168   8.919   8.566  0.6040 -0.6796  0.4309
  721MOL0     C97213   6.309   8.945   8.562 -0.1824 -0.2470  0.5972
  721MOL0     C97214   6.388   8.841   8.638  0.0957 -0.0701  0.3976
  721MOL0     C97215   6.525   8.888   8.671 -0.3296  0.6275 -0.0895
  721MOL0     C97216   6.613   8.948   8.563  0.5775 -0.1160 -0.0180
  721MOL0     N97217   6.738   8.999   8.602 -0.4790 -0.2766  0.2337
  721MOL0     C97218   6.747   9.124   8.662 -0.1295  0.1730 -0.1004
  721MOL0     C97219   6.876   9.125   8.701  0.4862  0.5429 -0.4109
  721MOL0     C97220   6.950   9.236   8.758 -0.4770 -0.0104  0.4249
  721MOL0     C97221   6.957   9.230   8.907  0.0914  0.2522  0.1282
  721MOL0     C97222   7.022   9.116   8.968 -0.1548 -0.6069  0.0155
  721MOL0     C97223   7.178   9.115   8.927  0.8465 -0.3974  0.1070
  721MOL0     O97224   7.238   9.007   8.998  0.2670 -0.4271  0.0926
  721MOL0     C97225   7.343   9.032   9.080  0.0356 -0.5114 -0.2863
  721MOL0     C97226   7.448   8.938   9.109 -0.4346 -1.1031  0.1124
  721MOL0     C97227   7.545   8.947   9.212 -1.1461  0.3684  0.0167
  721MOL0     C97228   7.625   8.816   9.228  0.6564 -0.4588  0.0029
  721MOL0     C97229   7.551   9.071   9.287 -0.4587  0.2572 -0.2561
  721MOL0     C97230   7.653   9.101   9.390 -0.0581  0.1224 -0.6075
  721MOL0     O97231   7.653   9.221   9.458 -0.1191 -0.3292  1.3922
  721MOL0     C97232   7.751   9.276   9.533 -0.2313  0.8762  0.7634
  721MOL0     C97233   7.705   9.368   9.626 -0.2610  0.5182  0.4950
  721MOL0     C97234   7.801   9.432   9.707 -0.9667  0.5839 -0.5136
  721MOL0     C97235   7.941   9.408   9.701 -0.1214 -0.4963  0.7511
  721MOL0     O97236   8.031   9.487   9.779 -0.0541  0.4511 -0.0659
  721MOL0     C97237   8.149   9.421   9.840 -0.0265 -0.0137  0.2577
  721MOL0     C97238   8.128   9.382   9.978 -0.3851  0.0752  0.0271
  721MOL0     C97239   8.239   9.291  10.027 -0.6149  0.7105  0.0385
  721MOL0     C97240   8.251   9.285  10.175 -0.2100  0.8677  0.1745
  721MOL0     C97241   8.364   9.187  10.220  0.5093 -0.7337  0.3198
  721MOL0     C97242   8.380   9.176  10.376 -0.1689  0.3472  0.8930
  721MOL0     C97243   8.254   9.136  10.456 -0.2390 -0.3171 -0.2824
  721MOL0     C97244   8.287   9.139  10.603 -0.1660 -0.2222 -0.4133
  721MOL0    Cl97245   8.309   9.315  10.647  0.0752 -0.0675  0.2316
  721MOL0     C97246   7.981   9.308   9.608 -0.4433 -0.1054 -0.4066
  721MOL0     C97247   7.889   9.246   9.523  0.0605  0.1243  0.5508
  721MOL0     O97248   7.739   9.017   9.403  0.0497  0.3266  0.5599
  721MOL0     C97249   7.450   9.163   9.265  1.4143 -0.2396  0.5687
  721MOL0     C97250   7.345   9.147   9.167  0.0184  0.0298  0.0474
  721MOL0     N97251   6.930   9.004   8.665  0.5233 -0.0308 -0.3440
  721MOL0     N97252   6.846   8.924   8.618  0.1722  0.1063 -0.7962
  721MOL0     C97253   5.990   9.297   8.045 -0.2630  0.2836 -1.3113
  721MOL0     C97254   5.940   9.403   7.975  0.1470 -0.0012 -0.0933
  721MOL0     C97255   5.653   9.760   7.884 -0.2592 -0.4254 -1.2985
  721MOL0     C97256   5.607   9.880   7.943  0.8799 -0.7192  0.5958
  721MOL0     C97257   5.549   9.985   7.869 -0.0001 -0.6003 -0.4340
  721MOL0     C97258   5.548   9.983   7.733 -0.2898  0.4813  0.2955
  721MOL0     O97259   5.482  10.077   7.667 -0.5261  0.0900  0.6244
  721MOL0     C97260   5.484  10.089   7.526 -0.5084  0.1420  0.1960
  721MOL0     C97261   5.412  10.216   7.487  0.1331  0.2952  0.4759
  721MOL0     C97262   5.501  10.341   7.508  0.0815  0.1949  0.1029
  721MOL0     C97263   5.438  10.465   7.442 -0.0747 -0.4198 -0.0528
  721MOL0     C97264   5.497  10.586   7.489 -0.2441 -0.5513  0.5103
  721MOL0     C97265   5.532  10.700   7.502  0.1104  0.5339  0.5080
  721MOL0     C97266   5.615   9.876   7.670 -0.9638  0.0025 -0.1235
  721MOL0     C97267   5.665   9.764   7.745 -0.1372 -0.6035 -1.2159
  721MOL0     H97268   5.618   9.409   8.072  0.6991  0.8359 -2.3236
  721MOL0     H97269   5.709   9.225   8.230  1.6187  1.6944  2.5309
  721MOL0     H97270   6.154   9.128   8.224 -0.3290 -1.2541  0.4217
  721MOL0     H97271   6.096   9.288   8.301  0.9654 -0.2378 -0.9343
  721MOL0     H97272   6.172   9.157   8.489  0.3776 -1.2190  0.1352
  721MOL0     H97273   5.987   9.143   8.487 -1.3929 -1.4062 -0.4828
  721MOL0     H97274   5.992   8.926   8.443 -0.7556  0.8247 -2.3360
  721MOL0     H97275   6.133   8.925   8.348 -2.1709  0.1343 -0.4891
  721MOL0     H97276   6.124   8.962   8.657  1.2745  0.8757  0.0555
  721MOL0     H97277   6.154   8.811   8.577 -1.6204 -0.5400 -0.5067
  721MOL0     H97278   6.354   8.944   8.463 -0.6281  0.7275  0.3716
  721MOL0     H97279   6.323   9.048   8.597 -2.9055 -0.4376  2.6702
  721MOL0     H97280   6.338   8.803   8.727 -1.2684  1.8644  0.5177
  721MOL0     H97281   6.401   8.755   8.573  1.5671  0.0520  0.4814
  721MOL0     H97282   6.507   8.959   8.751  1.8487 -1.4613  2.4774
  721MOL0     H97283   6.592   8.805   8.698  0.2703  1.5349  1.2880
  721MOL0     H97284   6.559   9.032   8.519  2.3708  2.3301  2.1164
  721MOL0     H97285   6.623   8.877   8.480 -1.4626 -1.3444  0.7186
  721MOL0     H97286   6.690   9.215   8.646  1.1789  1.1487  0.6131
  721MOL0     H97287   7.048   9.249   8.712 -1.3788  1.5516 -1.2076
  721MOL0     H97288   6.878   9.317   8.741 -0.1563 -0.2766 -3.0758
  721MOL0     H97289   6.859   9.230   8.955  0.4745 -2.1153  1.0732
  721MOL0     H97290   7.009   9.322   8.935  2.4496 -0.3041 -2.0724
  721MOL0     H97291   6.982   9.017   8.940 -0.2703 -1.0602  1.6998
  721MOL0     H97292   7.021   9.118   9.077  4.2987 -0.2238  0.2248
  721MOL0     H97293   7.217   9.215   8.951 -1.7148  0.7216 -0.0057
  721MOL0     H97294   7.179   9.086   8.822  1.1195  0.7941 -0.2331
  721MOL0     H97295   7.438   8.855   9.039 -1.5734  0.2029 -1.3466
  721MOL0     H97296   7.564   8.740   9.178  1.7478 -1.4006  0.0560
  721MOL0     H97297   7.723   8.822   9.181  0.5200  0.0165 -0.2334
  721MOL0     H97298   7.636   8.784   9.332  0.1712  4.1052  1.7121
  721MOL0     H97299   7.601   9.398   9.622  0.1302  2.2440  1.8886
  721MOL0     H97300   7.760   9.499   9.782  2.8070  2.2743  0.2757
  721MOL0     H97301   8.163   9.321   9.797  1.0216  0.1312  0.2442
  721MOL0     H97302   8.227   9.498   9.832 -1.0788  1.4039  2.5878
  721MOL0     H97303   8.124   9.474  10.037 -1.0675  0.3969 -0.5119
  721MOL0     H97304   8.030   9.337   9.994 -1.1744  1.6732 -0.1170
  721MOL0     H97305   8.331   9.344  10.000  0.9205 -1.7775  0.1369
  721MOL0     H97306   8.241   9.191   9.984  0.2526  0.9274 -0.4554
  721MOL0     H97307   8.278   9.387  10.202 -1.9250  3.0694 -5.0613
  721MOL0     H97308   8.162   9.238  10.220  1.0545 -2.4478 -0.5201
  721MOL0     H97309   8.454   9.214  10.163 -0.7827 -0.1700 -1.5541
  721MOL0     H97310   8.339   9.084  10.193 -0.9648 -0.6072  1.1173
  721MOL0     H97311   8.465   9.112  10.400 -0.0136  1.2540  2.9509
  721MOL0     H97312   8.418   9.270  10.416 -3.0295  1.5379  1.0554
  721MOL0     H97313   8.219   9.039  10.420 -1.4486  0.1529 -0.4197
  721MOL0     H97314   8.173   9.209  10.446  0.4569  0.5885  0.4763
  721MOL0     H97315   8.378   9.087  10.634  0.7094  2.6139  2.2145
  721MOL0     H97316   8.206   9.088  10.655  1.3076 -1.2469  0.9801
  721MOL0     H97317   8.085   9.289   9.583  0.0147  0.2849  1.0877
  721MOL0     H97318   7.921   9.182   9.442 -0.3797 -0.3561  0.7570
  721MOL0     H97319   7.449   9.258   9.316 -0.0735 -0.8204  1.7078
  721MOL0     H97320   7.267   9.222   9.171  0.4461  0.4279  1.4520
  721MOL0     H97321   6.094   9.269   8.026  0.3308  1.8263 -0.4815
  721MOL0     H97322   6.000   9.464   7.909  0.0828  0.8597  0.6347
  721MOL0     H97323   5.610   9.900   8.050  4.6673 -1.0001  0.6934
  721MOL0     H97324   5.488  10.055   7.925  3.5618  2.7230 -0.2372
  721MOL0     H97325   5.588  10.102   7.492 -0.5102 -0.4240 -0.0448
  721MOL0     H97326   5.449   9.994   7.483 -0.1504  0.2678 -0.3969
  721MOL0     H97327   5.320  10.219   7.547  1.3465  0.2395  2.4306
  721MOL0     H97328   5.397  10.209   7.379 -0.6904 -0.2668  0.6169
  721MOL0     H97329   5.607  10.328   7.485  0.2489 -2.5645  1.9402
  721MOL0     H97330   5.510  10.361   7.616 -0.0935 -1.6639  0.4892
  721MOL0     H97331   5.331  10.461   7.461  0.0154  0.3220  0.6554
  721MOL0     H97332   5.457  10.456   7.335  4.8271  0.6475  0.4632
  721MOL0     H97333   5.550  10.802   7.530  0.3714 -0.1225  2.9445
  721MOL0     H97334   5.640   9.877   7.564 -0.7450 -1.6674 -0.1151
  721MOL0     H97335   5.722   9.685   7.696  1.9196  1.3844 -2.2089
  722MOL0     O97336   2.025   0.876   9.032 -0.0548 -0.3676  0.2274
  722MOL0     C97337   1.956   0.795   8.969 -1.0495 -0.1643  1.2584
  722MOL0     O97338   1.887   0.694   9.016  0.6856 -1.2473 -0.6006
  722MOL0     C97339   1.892   0.658   9.150 -0.3649 -0.5825  0.1047
  722MOL0     C97340   1.925   0.523   9.173 -0.5355 -0.4322 -0.3387
  722MOL0     C97341   1.927   0.468   9.304 -0.4099  0.2400 -0.6387
  722MOL0     C97342   1.907   0.554   9.409 -0.6181 -0.3524  0.1996
  722MOL0     O97343   1.937   0.511   9.532  0.7373 -0.0602 -0.5347
  722MOL0     C97344   1.828   0.464   9.611 -0.2764 -0.4089  0.9063
  722MOL0     C97345   1.885   0.384   9.720  1.1213 -0.8883 -0.4147
  722MOL0     C97346   1.770   0.373   9.826  0.7424 -0.3314 -0.0156
  722MOL0     C97347   1.814   0.302   9.948  0.2771  0.4253  0.0428
  722MOL0     C97348   1.701   0.233  10.024  0.0111  0.0667 -0.4039
  722MOL0     C97349   1.750   0.222  10.172 -0.2436  0.3756 -0.0450
  722MOL0     C97350   1.654   0.139  10.257 -0.3843  0.0199 -0.0972
  722MOL0     C97351   1.708   0.122  10.405 -0.0969 -0.1630  0.6409
  722MOL0     N97352   1.845   0.061  10.422  0.3479 -0.2173  0.6585
  722MOL0     C97353   1.902  -0.043  10.358 -0.4750 -0.5678  0.8474
  722MOL0     C97354   2.027  -0.060  10.406 -0.3371 -0.0111 -0.7093
  722MOL0     C97355   2.108  -0.194  10.374  0.2593 -0.0105  0.1176
  722MOL0     C97356   2.232  -0.177  10.283  0.3500  0.7265 -0.7502
  722MOL0     C97357   2.212  -0.132  10.138  0.2322  0.1895  0.1700
  722MOL0     C97358   2.157   0.009  10.131  0.8716 -0.1509 -0.0088
  722MOL0     O97359   2.220   0.110  10.210 -0.0661  0.0767  0.1036
  722MOL0     C97360   2.206   0.236  10.170 -0.3225 -0.3883 -0.2041
  722MOL0     C97361   2.103   0.312  10.225 -0.9590 -0.2051  0.1073
  722MOL0     C97362   2.083   0.441  10.183  0.0769 -0.0827 -0.5082
  722MOL0     C97363   1.981   0.524  10.267  0.3305  1.1301 -0.8151
  722MOL0     C97364   2.155   0.488  10.066  0.7120  0.0586  0.1740
  722MOL0     C97365   2.113   0.607   9.990 -0.0621 -0.8289 -0.3874
  722MOL0     O97366   2.166   0.628   9.868  0.1295 -0.1086 -0.1697
  722MOL0     C97367   2.161   0.763   9.838 -0.7221  0.7139 -0.3583
  722MOL0     C97368   2.063   0.807   9.750  0.8923  0.7673  0.5159
  722MOL0     C97369   2.049   0.941   9.711  0.0557  0.4649  0.0193
  722MOL0     C97370   2.133   1.033   9.761 -0.3347 -0.2324  0.3388
  722MOL0     O97371   2.111   1.165   9.738 -0.2770 -0.5082 -0.1013
  722MOL0     C97372   1.991   1.220   9.801 -0.0547  0.3824 -0.3605
  722MOL0     C97373   1.996   1.379   9.796 -0.6064  0.4372  0.0379
  722MOL0     C97374   2.101   1.407   9.896 -0.5824 -0.0594 -0.0385
  722MOL0     C97375   2.121   1.558   9.903 -0.2434 -0.7822 -0.4038
  722MOL0     C97376   2.244   1.583  10.006 -0.1413  0.0412  0.9289
  722MOL0     C97377   2.241   1.715  10.079  0.5220  0.1725 -0.4010
  722MOL0     C97378   2.131   1.712  10.188 -0.7760 -0.4231  0.7011
  722MOL0     C97379   2.150   1.816  10.298 -1.3959 -0.1966 -0.0226
  722MOL0    Cl97380   2.314   1.808  10.378 -0.4002  0.0915 -0.2087
  722MOL0     C97381   2.239   0.995   9.852 -0.2524  0.6331 -0.9582
  722MOL0     C97382   2.247   0.862   9.891 -0.8313 -0.4862 -0.3125
  722MOL0     O97383   2.042   0.686  10.051 -0.3158 -0.3826 -1.1472
  722MOL0     C97384   2.260   0.407  10.019  0.5420  0.0649  0.2890
  722MOL0     C97385   2.288   0.287  10.072 -0.4081 -0.3754  0.1689
  722MOL0     N97386   2.050   0.037  10.506  0.5743 -0.1022 -0.2272
  722MOL0     N97387   1.941   0.100  10.517 -0.2171  0.3944 -0.4789
  722MOL0     C97388   1.883   0.698   9.392 -1.2450  0.7756 -0.3805
  722MOL0     C97389   1.868   0.745   9.260 -0.7892  1.1855 -0.6289
  722MOL0     C97390   1.948   0.837   8.823  0.1193  0.3509 -0.7180
  722MOL0     C97391   1.961   0.969   8.779 -0.2200  0.0310 -0.4744
  722MOL0     C97392   1.928   1.013   8.646 -0.2472 -0.5163 -0.2793
  722MOL0     C97393   1.884   0.918   8.557  0.1864 -0.2316  0.7367
  722MOL0     O97394   1.855   0.954   8.431  0.3384 -0.1916  0.3118
  722MOL0     C97395   1.726   1.007   8.403 -0.6338 -1.2206 -0.2107
  722MOL0     C97396   1.619   0.892   8.383  0.3004  0.5207  0.0911
  722MOL0     C97397   1.652   0.799   8.266  0.4877 -0.4603  0.1931
  722MOL0     C97398   1.658   0.870   8.128 -0.4351  0.4393 -1.0503
  722MOL0     C97399   1.706   0.761   8.041  0.1138 -0.6338 -0.1533
  722MOL0     C97400   1.730   0.666   7.973  0.2798 -0.3048 -0.2628
  722MOL0     C97401   1.880   0.783   8.592  0.4409  0.1203 -1.0348
  722MOL0     C97402   1.914   0.740   8.723  0.5144 -0.2757  0.0972
  722MOL0     H97403   1.943   0.452   9.093 -1.2996  0.8240 -1.6880
  722MOL0     H97404   1.948   0.364   9.327 -0.0554  0.1533 -1.3384
  722MOL0     H97405   1.765   0.544   9.652  0.3176  0.2401  0.5640
  722MOL0     H97406   1.771   0.395   9.548 -0.2718  0.2364  0.1802
  722MOL0     H97407   1.918   0.287   9.681 -2.2550 -1.6000 -1.8270
  722MOL0     H97408   1.976   0.416   9.772  1.1496 -1.9413  0.2209
  722MOL0     H97409   1.724   0.468   9.853  2.8960  0.8860 -0.3463
  722MOL0     H97410   1.692   0.315   9.777  0.7158 -0.4053  0.1140
  722MOL0     H97411   1.890   0.226   9.932  0.8415  1.0167 -0.1558
  722MOL0     H97412   1.851   0.385  10.010 -1.0184  2.1718 -1.4076
  722MOL0     H97413   1.604   0.282  10.011 -1.0496 -1.3851  1.5396
  722MOL0     H97414   1.684   0.134   9.980  0.6328 -1.3401  2.3251
  722MOL0     H97415   1.852   0.187  10.187 -1.3902 -2.9436  0.7937
  722MOL0     H97416   1.755   0.327  10.204 -1.7350  1.1214 -2.0369
  722MOL0     H97417   1.555   0.185  10.262  0.1556  1.1899  0.0460
  722MOL0     H97418   1.646   0.043  10.206 -2.7249  0.7405 -1.2278
  722MOL0     H97419   1.633   0.075  10.469  0.1460 -2.0250 -0.3527
  722MOL0     H97420   1.727   0.223  10.443  0.4229 -1.0068  2.7721
  722MOL0     H97421   1.849  -0.092  10.277 -0.7258  2.6618 -1.1467
  722MOL0     H97422   2.137  -0.233  10.472 -1.1918 -1.3241  0.0598
  722MOL0     H97423   2.040  -0.265  10.326 -1.0611  0.6649  0.9177
  722MOL0     H97424   2.292  -0.268  10.279  1.8070  1.5405  1.1854
  722MOL0     H97425   2.303  -0.113  10.335 -0.6785  0.7716  0.6646
  722MOL0     H97426   2.142  -0.202  10.092  0.1072 -1.1389  2.2576
  722MOL0     H97427   2.305  -0.135  10.081  1.5768  0.0290  2.2474
  722MOL0     H97428   2.053   0.029  10.155  0.9373  4.7270 -2.4819
  722MOL0     H97429   2.144   0.025  10.023 -3.2035 -1.3948  0.1372
  722MOL0     H97430   2.050   0.269  10.310  1.5994 -2.8439  0.5005
  722MOL0     H97431   1.980   0.482  10.368  2.2739 -2.2617 -2.0503
  722MOL0     H97432   2.023   0.621  10.297 -0.3766  0.9365  0.9083
  722MOL0     H97433   1.881   0.534  10.223 -0.2692 -2.4301 -0.5306
  722MOL0     H97434   1.995   0.735   9.704  0.5994  0.7825  0.9137
  722MOL0     H97435   1.982   0.974   9.632 -0.4622 -2.1580 -0.7382
  722MOL0     H97436   1.900   1.178   9.757  1.6412 -2.3982 -1.4146
  722MOL0     H97437   1.986   1.196   9.908 -0.9700  1.4952 -0.1241
  722MOL0     H97438   2.025   1.419   9.698 -0.3142  0.0336 -0.0447
  722MOL0     H97439   1.896   1.410   9.828 -0.5607 -1.1846  1.8971
  722MOL0     H97440   2.197   1.360   9.875 -0.5275 -1.5138  2.8810
  722MOL0     H97441   2.064   1.362   9.989 -1.9079  2.9452  1.0365
  722MOL0     H97442   2.157   1.597   9.808  1.1760  0.8624  0.7551
  722MOL0     H97443   2.027   1.603   9.936  1.3666  1.7775  0.9977
  722MOL0     H97444   2.338   1.567   9.953  1.1453  1.4714  2.6593
  722MOL0     H97445   2.248   1.500  10.077  2.8167 -2.2366 -1.6290
  722MOL0     H97446   2.341   1.729  10.123  2.0618  0.4093 -3.6593
  722MOL0     H97447   2.227   1.794  10.004  2.3869 -0.5010 -1.5506
  722MOL0     H97448   2.114   1.611  10.227  0.6416 -0.5439  1.0330
  722MOL0     H97449   2.048   1.735  10.120  0.4676 -1.1974 -1.1604
  722MOL0     H97450   2.070   1.797  10.371 -1.2398 -4.0982 -0.6516
  722MOL0     H97451   2.142   1.915  10.253  2.8459  1.2852  1.9017
  722MOL0     H97452   2.293   1.080   9.894 -2.4927  1.2548  0.8706
  722MOL0     H97453   2.325   0.826   9.957 -1.4266 -1.0379  0.1064
  722MOL0     H97454   2.324   0.427   9.933  1.6786  3.3424  1.7317
  722MOL0     H97455   2.363   0.219  10.030 -0.9899 -0.5072 -0.6936
  722MOL0     H97456   1.886   0.771   9.472  1.9645  1.3930 -0.9295
  722MOL0     H97457   1.849   0.851   9.243  4.3791  2.6506  1.0060
  722MOL0     H97458   1.993   1.041   8.853 -0.2973 -0.3315 -0.0836
  722MOL0     H97459   1.936   1.116   8.613 -2.3602 -0.6088 -1.2465
  722MOL0     H97460   1.691   1.081   8.475  2.7073  2.6482 -2.1593
  722MOL0     H97461   1.739   1.068   8.313 -2.8268 -0.2094  0.0905
  722MOL0     H97462   1.532   0.952   8.355  0.5981  1.2901  0.7576
  722MOL0     H97463   1.608   0.832   8.474 -0.3765 -2.5077 -1.8351
  722MOL0     H97464   1.576   0.721   8.257  0.2420 -0.0795 -1.3012
  722MOL0     H97465   1.747   0.746   8.280  0.3001 -1.4763 -2.0440
  722MOL0     H97466   1.735   0.947   8.134  0.4173 -0.4948  0.7504
  722MOL0     H97467   1.568   0.917   8.088 -1.8105 -0.9007  0.3323
  722MOL0     H97468   1.751   0.571   7.928 -1.3927 -0.1821 -1.3935
  722MOL0     H97469   1.837   0.708   8.526 -1.3299 -0.1668  0.3586
  722MOL0     H97470   1.897   0.635   8.746 -0.4229  0.0563  1.0192
  723MOL0     O97471   3.099   9.354   9.243  0.9393 -0.1602  0.0693
  723MOL0     C97472   3.172   9.256   9.275  1.3050 -0.4640 -0.6533
  723MOL0     O97473   3.303   9.236   9.259 -0.0099  0.1757  0.3294
  723MOL0     C97474   3.386   9.343   9.246  0.1022  0.1598  0.4276
  723MOL0     C97475   3.468   9.345   9.136 -0.7208 -0.5561 -0.2167
  723MOL0     C97476   3.567   9.442   9.125 -0.2537 -0.5782 -0.5270
  723MOL0     C97477   3.591   9.535   9.227  0.4478  0.0501 -0.3970
  723MOL0     O97478   3.682   9.632   9.198 -0.0314  0.0040 -0.1126
  723MOL0     C97479   3.759   9.671   9.310  0.7653 -0.1459 -0.4644
  723MOL0     C97480   3.834   9.790   9.269 -1.1532 -0.7296 -0.1890
  723MOL0     C97481   3.747   9.910   9.212  0.2918  0.4613  0.3616
  723MOL0     C97482   3.795  10.052   9.234  0.6866 -0.6470 -0.4920
  723MOL0     C97483   3.731  10.137   9.341  0.0650  0.1689  1.1169
  723MOL0     C97484   3.584  10.157   9.355  0.9192  0.3045 -0.4929
  723MOL0     C97485   3.509  10.187   9.227 -0.4470  0.7951 -0.1304
  723MOL0     C97486   3.351  10.203   9.241 -0.0922  0.3751 -0.2528
  723MOL0     N97487   3.291  10.223   9.110 -0.6139 -0.0853  0.6836
  723MOL0     C97488   3.223  10.331   9.062  0.3138  0.1629 -0.7968
  723MOL0     C97489   3.172  10.290   8.942 -1.0170 -0.1673 -0.3711
  723MOL0     C97490   3.099  10.384   8.851  0.2330 -0.1868 -0.0402
  723MOL0     C97491   2.953  10.350   8.848 -0.2729  0.7979 -0.8545
  723MOL0     C97492   2.907  10.434   8.721 -0.1024  0.1339 -0.5894
  723MOL0     C97493   2.757  10.431   8.710 -0.2421 -1.4675 -0.0638
  723MOL0     O97494   2.694  10.315   8.677  0.2820  0.1624  0.2708
  723MOL0     C97495   2.703  10.261   8.554  0.0046 -0.3336  0.3003
  723MOL0     C97496   2.621  10.152   8.539  0.7862  0.0513 -0.2253
  723MOL0     C97497   2.604  10.086   8.411 -0.4780 -0.1793 -1.6174
  723MOL0     C97498   2.523   9.958   8.404 -0.4004 -0.7451  0.1580
  723MOL0     C97499   2.674  10.136   8.297 -0.3081 -0.1591 -0.5800
  723MOL0     C97500   2.677  10.085   8.158 -1.2458  0.0825  0.1796
  723MOL0     O97501   2.638   9.954   8.135 -0.3120 -0.3094  0.4431
  723MOL0     C97502   2.652   9.901   8.016  0.4980 -0.1013  0.3132
  723MOL0     C97503   2.541   9.917   7.936  0.1563 -0.0315  0.8727
  723MOL0     C97504   2.547   9.862   7.807 -0.0729  0.1418  0.1946
  723MOL0     C97505   2.667   9.798   7.769  0.2005  0.9901 -0.2143
  723MOL0     O97506   2.682   9.745   7.646  1.0202 -0.1689  0.1758
  723MOL0     C97507   2.765   9.632   7.621 -0.6532  0.3324 -0.8941
  723MOL0     C97508   2.690   9.533   7.530  0.9460  0.6059  0.1498
  723MOL0     C97509   2.719   9.389   7.568 -0.9101  0.5015 -0.3129
  723MOL0     C97510   2.740   9.303   7.437 -0.8671 -0.1192 -0.3014
  723MOL0     C97511   2.616   9.302   7.350 -0.0427  0.1252 -0.1822
  723MOL0     C97512   2.645   9.203   7.235  0.3115 -0.2685 -0.1738
  723MOL0     C97513   2.517   9.177   7.155  0.3298 -0.0406  0.3535
  723MOL0     C97514   2.562   9.111   7.023 -0.3979 -0.9840 -0.1661
  723MOL0    Cl97515   2.432   9.129   6.904  0.4158  0.4221 -0.4864
  723MOL0     C97516   2.783   9.800   7.847  0.7533  0.1991 -0.2720
  723MOL0     C97517   2.773   9.839   7.977  0.8120 -0.0804  0.0122
  723MOL0     O97518   2.725  10.162   8.070  0.1740  0.0687 -0.4643
  723MOL0     C97519   2.752  10.252   8.316 -0.0301 -0.3042  0.8532
  723MOL0     C97520   2.775  10.316   8.442  0.1718 -0.3101  0.3444
  723MOL0     N97521   3.217  10.162   8.918  0.4857 -0.0843  0.2828
  723MOL0     N97522   3.290  10.129   9.015 -0.6506 -0.2169 -0.0522
  723MOL0     C97523   3.515   9.519   9.348  0.2100 -0.0683  0.5941
  723MOL0     C97524   3.410   9.426   9.351 -0.1574  0.4787 -0.4779
  723MOL0     C97525   3.093   9.133   9.319  0.4284 -0.0916  0.1297
  723MOL0     C97526   2.955   9.133   9.335  0.2283  1.1994 -0.2955
  723MOL0     C97527   2.885   9.017   9.363 -0.0919 -0.0831 -0.0088
  723MOL0     C97528   2.956   8.896   9.378  0.2979 -0.3181 -0.5346
  723MOL0     O97529   2.882   8.780   9.397  0.7025 -0.3443 -0.8394
  723MOL0     C97530   2.893   8.720   9.525 -0.4861 -0.4367  0.3667
  723MOL0     C97531   2.925   8.572   9.498  0.1767 -0.1041 -0.4611
  723MOL0     C97532   2.945   8.490   9.631  0.4094 -0.5653  0.8371
  723MOL0     C97533   2.960   8.340   9.614 -0.2448 -0.1218  0.3232
  723MOL0     C97534   2.974   8.277   9.743  0.2068 -0.0707 -0.6746
  723MOL0     C97535   2.967   8.235   9.853 -0.5433 -0.2778 -0.0322
  723MOL0     C97536   3.099   8.906   9.382  0.0591  0.3850  0.0141
  723MOL0     C97537   3.165   9.020   9.350 -0.1238 -0.1868  1.1947
  723MOL0     H97538   3.454   9.269   9.059  2.4506 -4.0392  2.2391
  723MOL0     H97539   3.617   9.453   9.030 -0.1338  1.8810 -0.2522
  723MOL0     H97540   3.697   9.711   9.390 -1.1040 -1.5268 -1.1502
  723MOL0     H97541   3.806   9.584   9.357 -2.4796 -0.6312  2.2890
  723MOL0     H97542   3.876   9.824   9.364 -0.9921 -1.4207 -0.0073
  723MOL0     H97543   3.925   9.772   9.210  0.0350  0.6139  1.1396
  723MOL0     H97544   3.755   9.901   9.103 -2.0194  3.4397 -0.2053
  723MOL0     H97545   3.639   9.902   9.227 -0.4076  2.7285 -2.6048
  723MOL0     H97546   3.903  10.059   9.245  0.4625  0.1613  1.7018
  723MOL0     H97547   3.765  10.109   9.145  2.2008 -0.2888 -0.8017
  723MOL0     H97548   3.763  10.098   9.438 -1.6083  2.1092  2.5542
  723MOL0     H97549   3.769  10.238   9.326  1.6317 -0.5561 -0.0135
  723MOL0     H97550   3.548  10.065   9.402 -0.8462  0.7338 -0.9265
  723MOL0     H97551   3.568  10.239   9.425  0.7049 -1.5781  1.7910
  723MOL0     H97552   3.555  10.276   9.183  0.6418  0.0464 -0.5576
  723MOL0     H97553   3.526  10.101   9.163  1.5602 -0.3493  1.8032
  723MOL0     H97554   3.334  10.289   9.306  2.5987  1.0812 -0.3385
  723MOL0     H97555   3.316  10.114   9.295 -1.1985  1.0384  0.1539
  723MOL0     H97556   3.221  10.430   9.106  0.1940 -0.5523  0.8610
  723MOL0     H97557   3.106  10.485   8.891 -0.1524  0.3710 -1.3589
  723MOL0     H97558   3.152  10.376   8.756  0.4668 -1.4584  0.1690
  723MOL0     H97559   2.900  10.371   8.941 -1.7246  0.9790 -1.6927
  723MOL0     H97560   2.931  10.245   8.824 -2.5878  1.4150 -1.6670
  723MOL0     H97561   2.965  10.392   8.638  2.2796 -3.7486  2.6231
  723MOL0     H97562   2.933  10.540   8.732 -3.7360  0.9337  2.5590
  723MOL0     H97563   2.720  10.503   8.636 -0.6089 -0.5677  0.9744
  723MOL0     H97564   2.715  10.457   8.807 -1.3230 -1.2304 -0.5776
  723MOL0     H97565   2.573  10.114   8.629  0.9362 -3.3679 -1.4493
  723MOL0     H97566   2.448   9.958   8.324  0.8039 -3.1304 -1.0772
  723MOL0     H97567   2.585   9.869   8.389  1.9188  0.9258 -0.6040
  723MOL0     H97568   2.469   9.948   8.499 -3.5896  1.5465 -1.2471
  723MOL0     H97569   2.453   9.972   7.966 -1.7425 -1.9477 -0.8534
  723MOL0     H97570   2.468   9.854   7.733  1.1987  2.2515 -1.4818
  723MOL0     H97571   2.856   9.670   7.575  0.1139  0.2405  0.4948
  723MOL0     H97572   2.796   9.575   7.709  0.8495  2.4960  0.0394
  723MOL0     H97573   2.586   9.565   7.530  0.2209 -1.5166  1.0923
  723MOL0     H97574   2.728   9.557   7.431 -0.5020 -1.3662 -0.9573
  723MOL0     H97575   2.645   9.341   7.632  0.3919 -3.9396 -1.7372
  723MOL0     H97576   2.817   9.384   7.617 -0.6495 -0.4886 -0.8920
  723MOL0     H97577   2.811   9.342   7.364  0.6830 -0.8117  0.7956
  723MOL0     H97578   2.762   9.198   7.456 -2.0577 -0.1890  0.8804
  723MOL0     H97579   2.593   9.394   7.295  3.6107 -0.6115 -3.3317
  723MOL0     H97580   2.520   9.271   7.393 -1.9606  1.4498 -3.1528
  723MOL0     H97581   2.705   9.260   7.164 -0.0814  1.0049  0.4797
  723MOL0     H97582   2.687   9.104   7.257  1.4995 -0.8637 -4.2380
  723MOL0     H97583   2.470   9.273   7.133 -0.5972 -0.2875  1.1945
  723MOL0     H97584   2.450   9.111   7.211 -0.2024  2.7832  3.3337
  723MOL0     H97585   2.582   9.007   7.051 -0.1339 -0.2630  2.6938
  723MOL0     H97586   2.656   9.152   6.985 -1.2182 -0.5281 -1.7818
  723MOL0     H97587   2.877   9.770   7.802  1.2008  2.9070 -1.3144
  723MOL0     H97588   2.862   9.858   8.036  0.4031  2.2071 -0.0274
  723MOL0     H97589   2.803  10.300   8.233 -2.7077  1.9883  0.3719
  723MOL0     H97590   2.830  10.409   8.442  1.0724 -0.8081 -1.0551
  723MOL0     H97591   3.531   9.593   9.425 -0.1035  0.5862  0.0396
  723MOL0     H97592   3.345   9.410   9.436  0.3102 -1.0422 -0.3790
  723MOL0     H97593   2.910   9.230   9.322  0.7374  1.6698  1.2317
  723MOL0     H97594   2.779   9.017   9.385  0.6859  1.5992  4.7806
  723MOL0     H97595   2.974   8.755   9.589  0.9826  2.1786 -2.6418
  723MOL0     H97596   2.800   8.724   9.582  0.5401  2.4339  2.0418
  723MOL0     H97597   3.015   8.561   9.435  0.3166  1.6833 -0.6099
  723MOL0     H97598   2.836   8.529   9.451 -0.1674  1.1917 -1.0318
  723MOL0     H97599   2.861   8.506   9.699  0.1782 -0.9214  0.6382
  723MOL0     H97600   3.038   8.518   9.681  1.8929 -1.4465 -1.2501
  723MOL0     H97601   3.053   8.326   9.558 -0.4599  1.5192 -0.5297
  723MOL0     H97602   2.873   8.287   9.575 -0.8899 -1.2320  3.0738
  723MOL0     H97603   2.960   8.194   9.952 -0.5502 -0.5579 -0.1463
  723MOL0     H97604   3.153   8.813   9.394  1.3905  1.2121  0.6539
  723MOL0     H97605   3.272   9.014   9.331 -0.3224  0.8548 -0.5166
  724MOL0     O97606   2.171   1.394   2.891  0.4682 -0.2209  0.0686
  724MOL0     C97607   2.229   1.299   2.940 -1.4293  0.1208  0.4219
  724MOL0     O97608   2.185   1.171   2.933 -0.8068  0.1084  0.3575
  724MOL0     C97609   2.073   1.144   2.859 -0.7734  0.8759 -0.0131
  724MOL0     C97610   1.949   1.207   2.862 -0.2855  0.0869  0.2954
  724MOL0     C97611   1.846   1.194   2.766 -0.7375  0.1699  0.0370
  724MOL0     C97612   1.854   1.079   2.686 -0.0768 -0.9939 -0.1571
  724MOL0     O97613   1.753   1.074   2.599 -0.0547  0.9159 -0.1538
  724MOL0     C97614   1.640   0.999   2.646  0.1439  0.4307 -0.7511
  724MOL0     C97615   1.539   1.007   2.527 -0.0326 -0.4512  0.0890
  724MOL0     C97616   1.492   1.150   2.498  0.2626 -0.7676  0.0299
  724MOL0     C97617   1.594   1.249   2.432  0.4822  0.4678  0.0263
  724MOL0     C97618   1.519   1.363   2.363  0.6971 -0.1076 -0.1998
  724MOL0     C97619   1.632   1.461   2.314 -0.4087 -0.4192  0.9313
  724MOL0     C97620   1.577   1.589   2.254 -1.1084  0.1291  0.2724
  724MOL0     C97621   1.485   1.579   2.127  0.5923  0.9231 -0.4531
  724MOL0     N97622   1.563   1.521   2.011  1.0260  0.0425 -0.0873
  724MOL0     C97623   1.653   1.598   1.934  0.1482  0.6812 -1.1757
  724MOL0     C97624   1.684   1.519   1.830 -0.2651  0.8640 -0.4738
  724MOL0     C97625   1.782   1.554   1.730 -0.5821  0.5976  0.1753
  724MOL0     C97626   1.813   1.444   1.634  0.6937 -0.2533  0.1005
  724MOL0     C97627   1.706   1.420   1.527 -0.2213  0.4432  0.5661
  724MOL0     C97628   1.677   1.541   1.435  0.8641 -0.3977 -0.6763
  724MOL0     O97629   1.598   1.492   1.326  0.0141 -0.4195  0.1392
  724MOL0     C97630   1.463   1.473   1.350  0.0009  0.3865 -0.7750
  724MOL0     C97631   1.375   1.478   1.460 -0.2653 -0.8289 -0.3595
  724MOL0     C97632   1.236   1.461   1.455  0.0630  0.5832  1.0029
  724MOL0     C97633   1.152   1.443   1.584 -0.0243  0.3099 -0.2838
  724MOL0     C97634   1.178   1.443   1.313 -0.7864  0.3783 -0.5610
  724MOL0     C97635   1.037   1.413   1.290  0.9586 -0.7503  0.6961
  724MOL0     O97636   0.952   1.394   1.394 -0.6171 -1.2453  0.3190
  724MOL0     C97637   0.825   1.363   1.365  0.6741  0.0054  0.4841
  724MOL0     C97638   0.730   1.437   1.426  0.6698  0.6870  0.5366
  724MOL0     C97639   0.592   1.425   1.391  0.2986 -0.5401  0.4194
  724MOL0     C97640   0.552   1.327   1.297  0.5318  0.2917  0.0357
  724MOL0     O97641   0.413   1.309   1.279  0.1151 -0.0244 -0.7497
  724MOL0     C97642   0.382   1.227   1.168  0.2741 -0.6866 -0.8538
  724MOL0     C97643   0.233   1.259   1.142  0.6701 -0.4991  1.5338
  724MOL0     C97644   0.142   1.205   1.246  0.3204  0.2294  0.0739
  724MOL0     C97645  -0.005   1.205   1.190 -0.1342 -0.2684 -0.5929
  724MOL0     C97646  -0.111   1.179   1.300  0.4675  0.1474  0.0072
  724MOL0     C97647  -0.255   1.195   1.261 -0.2997  0.3286 -0.3805
  724MOL0     C97648  -0.353   1.141   1.372  0.7875 -1.1650 -0.0084
  724MOL0     C97649  -0.361   1.223   1.505 -0.1671  0.1520 -0.0294
  724MOL0    Cl97650  -0.473   1.157   1.626 -0.2813  0.2072  0.2243
  724MOL0     C97651   0.651   1.250   1.226 -0.1114 -0.1274  1.0596
  724MOL0     C97652   0.783   1.258   1.274  0.2511 -0.1790  0.0345
  724MOL0     O97653   0.999   1.413   1.172 -0.2885 -0.7425 -0.4157
  724MOL0     C97654   1.270   1.441   1.211 -0.0046  1.4548 -0.6648
  724MOL0     C97655   1.406   1.450   1.228 -0.0354  0.5460 -0.0843
  724MOL0     N97656   1.610   1.408   1.838  0.0206 -0.0801 -0.2194
  724MOL0     N97657   1.528   1.417   1.933  0.0786 -0.1526  0.4676
  724MOL0     C97658   1.967   1.006   2.688 -0.2182 -0.1408 -0.6236
  724MOL0     C97659   2.086   1.033   2.768  0.5809 -0.6421 -0.1459
  724MOL0     C97660   2.360   1.326   3.004 -0.6185 -0.1551  0.2360
  724MOL0     C97661   2.395   1.453   3.056 -0.8219 -0.7387 -0.3647
  724MOL0     C97662   2.507   1.478   3.124  0.0524 -0.5089 -0.6119
  724MOL0     C97663   2.605   1.387   3.146 -0.5411  0.0094 -0.0121
  724MOL0     O97664   2.707   1.436   3.229 -0.0063  0.6135 -0.1260
  724MOL0     C97665   2.804   1.335   3.272  0.6006  0.0275  0.4103
  724MOL0     C97666   2.926   1.391   3.345 -0.0155 -0.4359 -0.5847
  724MOL0     C97667   2.869   1.443   3.481 -1.2218  0.0050 -0.4817
  724MOL0     C97668   2.980   1.533   3.548  0.0784 -0.3987 -0.3418
  724MOL0     C97669   2.913   1.627   3.638 -0.2062  0.2575  0.8673
  724MOL0     C97670   2.868   1.707   3.724 -0.7260 -0.3672  0.1304
  724MOL0     C97671   2.586   1.262   3.083 -0.2402  0.1460  0.2085
  724MOL0     C97672   2.472   1.234   3.011  1.5075  0.8604  0.2379
  724MOL0     H97673   1.953   1.279   2.943  0.3144  0.9089 -0.4482
  724MOL0     H97674   1.753   1.249   2.777 -0.0173  1.2320  1.0568
  724MOL0     H97675   1.673   0.896   2.664  1.7902  1.2841  1.5587
  724MOL0     H97676   1.606   1.046   2.738  0.7519 -1.3041  0.4140
  724MOL0     H97677   1.586   0.959   2.440 -0.9835 -0.0441 -0.6616
  724MOL0     H97678   1.460   0.942   2.564  1.8409 -2.1621  1.2940
  724MOL0     H97679   1.410   1.133   2.428 -1.3884  2.4795  1.0126
  724MOL0     H97680   1.460   1.205   2.587  0.7514  1.4451 -1.0841
  724MOL0     H97681   1.658   1.292   2.509 -0.4241 -0.2959  1.2255
  724MOL0     H97682   1.661   1.201   2.359  1.5407  1.0587  0.5841
  724MOL0     H97683   1.463   1.333   2.274  3.7966  0.2610 -2.4653
  724MOL0     H97684   1.460   1.421   2.434  2.8102 -2.1881  3.5968
  724MOL0     H97685   1.689   1.493   2.402 -1.3888  5.8610 -0.3036
  724MOL0     H97686   1.696   1.416   2.236 -0.4354  2.8519 -1.1811
  724MOL0     H97687   1.520   1.633   2.336  0.0801 -1.7909  2.2381
  724MOL0     H97688   1.667   1.644   2.225 -0.3081 -1.4994 -0.4524
  724MOL0     H97689   1.439   1.675   2.105  2.5291  1.4766 -2.2977
  724MOL0     H97690   1.404   1.511   2.156  3.3574 -2.5488 -0.2174
  724MOL0     H97691   1.697   1.696   1.948  3.7155 -0.7981 -1.0535
  724MOL0     H97692   1.760   1.646   1.675 -0.4829  1.4317  1.5125
  724MOL0     H97693   1.877   1.574   1.781  0.8876 -0.8456 -1.8347
  724MOL0     H97694   1.836   1.348   1.682 -4.4805 -0.9539  1.8253
  724MOL0     H97695   1.898   1.471   1.570 -1.3207 -1.6026 -3.4342
  724MOL0     H97696   1.612   1.384   1.570 -0.4691  0.5362  0.1168
  724MOL0     H97697   1.744   1.345   1.456  0.3944  1.3355 -0.0792
  724MOL0     H97698   1.770   1.594   1.411  1.5709  0.7898  3.6698
  724MOL0     H97699   1.622   1.613   1.497  4.1728  2.9602 -1.3055
  724MOL0     H97700   1.419   1.505   1.556  0.4240  3.0182 -1.5977
  724MOL0     H97701   1.080   1.525   1.580 -1.5644 -0.8791  1.4888
  724MOL0     H97702   1.095   1.349   1.590 -0.7462  0.8537  2.7295
  724MOL0     H97703   1.201   1.448   1.681  2.0849  1.7063 -1.3619
  724MOL0     H97704   0.763   1.508   1.500  0.6287  0.7310  0.5124
  724MOL0     H97705   0.520   1.477   1.453  1.0672  2.2593 -0.9181
  724MOL0     H97706   0.443   1.254   1.081  0.6415 -0.9842 -0.6922
  724MOL0     H97707   0.397   1.129   1.214  1.9861 -0.0327  0.0398
  724MOL0     H97708   0.222   1.368   1.132 -1.0891 -0.7675 -0.0932
  724MOL0     H97709   0.222   1.208   1.046  0.4194  0.2414  1.1607
  724MOL0     H97710   0.138   1.262   1.340 -0.2860 -1.3516  1.0605
  724MOL0     H97711   0.167   1.100   1.266  0.7554  0.6771  2.1455
  724MOL0     H97712  -0.017   1.308   1.155 -1.5870  0.4794  1.8931
  724MOL0     H97713  -0.016   1.134   1.108 -0.9161 -0.3551 -0.4198
  724MOL0     H97714  -0.087   1.228   1.395  0.2701 -1.8391  1.1421
  724MOL0     H97715  -0.103   1.075   1.334 -0.2498 -0.7105 -2.2800
  724MOL0     H97716  -0.276   1.298   1.232  2.2542  0.8017 -0.8131
  724MOL0     H97717  -0.278   1.136   1.172  3.0564 -1.6336 -0.1189
  724MOL0     H97718  -0.337   1.036   1.396 -2.3059 -2.7192 -3.6553
  724MOL0     H97719  -0.455   1.135   1.333  0.3861 -0.7829  0.9530
  724MOL0     H97720  -0.388   1.325   1.476 -0.5897 -0.2969 -1.2642
  724MOL0     H97721  -0.263   1.223   1.553 -0.7339  3.9307  1.4729
  724MOL0     H97722   0.626   1.168   1.159 -0.1822 -0.6132  1.6749
  724MOL0     H97723   0.862   1.195   1.233  1.9430  1.9092 -0.1236
  724MOL0     H97724   1.229   1.409   1.116 -1.2336 -2.1867  0.9244
  724MOL0     H97725   1.473   1.453   1.142 -0.5242  0.5435 -0.4666
  724MOL0     H97726   1.970   0.924   2.617  1.9177 -1.0608  0.4266
  724MOL0     H97727   2.173   0.969   2.759  1.5454  0.6603 -0.3976
  724MOL0     H97728   2.319   1.529   3.042  0.1204 -0.0008 -1.7015
  724MOL0     H97729   2.515   1.579   3.163 -3.5553 -0.9832  1.8507
  724MOL0     H97730   2.753   1.256   3.329 -2.3806  0.1596 -1.8708
  724MOL0     H97731   2.838   1.288   3.180  0.0117  2.1627 -0.9701
  724MOL0     H97732   2.976   1.465   3.283  0.8854 -1.6171 -1.3205
  724MOL0     H97733   2.986   1.300   3.355 -0.3956 -0.6168  0.0918
  724MOL0     H97734   2.855   1.363   3.553 -0.0550 -1.7292 -2.0891
  724MOL0     H97735   2.777   1.497   3.457 -1.5834 -1.2553 -2.1466
  724MOL0     H97736   3.022   1.596   3.469 -1.8501  0.4888 -0.7243
  724MOL0     H97737   3.062   1.475   3.590  1.6444  1.2862 -0.9457
  724MOL0     H97738   2.827   1.767   3.803 -0.5265 -1.0114  0.7268
  724MOL0     H97739   2.658   1.182   3.099  1.9303  2.4035  2.4492
  724MOL0     H97740   2.454   1.143   2.953 -0.8766  1.9805 -0.9671
  725MOL0     O97741   0.386   8.494   0.215  0.5035  0.9875 -0.4209
  725MOL0     C97742   0.298   8.479   0.297  0.2944  0.1956 -0.4108
  725MOL0     O97743   0.296   8.553   0.414 -0.1742 -0.4606  0.2243
  725MOL0     C97744   0.413   8.610   0.462  0.1353  0.4609 -0.4632
  725MOL0     C97745   0.392   8.743   0.512  0.3169 -0.2004  0.2907
  725MOL0     C97746   0.502   8.821   0.550  0.1061  1.0106 -0.0044
  725MOL0     C97747   0.629   8.763   0.575 -0.2756  0.6873  0.3175
  725MOL0     O97748   0.731   8.825   0.648  0.0929 -0.4016 -0.4285
  725MOL0     C97749   0.691   8.933   0.732 -0.0057  0.8364 -0.4307
  725MOL0     C97750   0.807   8.974   0.825 -0.4278  0.1595  0.0308
  725MOL0     C97751   0.852   8.874   0.930  0.2493  0.5004  0.4129
  725MOL0     C97752   0.974   8.941   0.993 -0.0874  0.5636 -0.4935
  725MOL0     C97753   1.055   8.862   1.093  0.3114 -0.0626 -0.4066
  725MOL0     C97754   1.146   8.744   1.053 -0.7146  0.3022  0.0485
  725MOL0     C97755   1.220   8.674   1.172  0.2359 -0.3934  0.1558
  725MOL0     C97756   1.335   8.585   1.130 -0.0336  0.8390  0.2637
  725MOL0     N97757   1.416   8.530   1.241  0.5938  0.6939 -0.5837
  725MOL0     C97758   1.552   8.517   1.247 -0.0921  0.9179 -0.5929
  725MOL0     C97759   1.583   8.475   1.370 -0.3028  0.5051 -0.6105
  725MOL0     C97760   1.722   8.426   1.422  1.5087 -0.7613  0.5850
  725MOL0     C97761   1.792   8.528   1.512  0.0318  0.2352 -0.0093
  725MOL0     C97762   1.940   8.509   1.523  0.4688  0.2153 -0.2802
  725MOL0     C97763   2.014   8.577   1.640  0.2842 -0.5010  0.8179
  725MOL0     O97764   1.967   8.515   1.766  0.3684  0.2800  0.6926
  725MOL0     C97765   2.047   8.552   1.873  0.3308  1.2482 -0.8231
  725MOL0     C97766   2.017   8.498   1.997  0.1148 -0.4013  0.1237
  725MOL0     C97767   2.081   8.533   2.118 -0.3382 -1.1234 -0.1593
  725MOL0     C97768   2.046   8.471   2.248  0.2824  0.2807 -0.1586
  725MOL0     C97769   2.185   8.632   2.110 -0.2438  0.6384 -0.4682
  725MOL0     C97770   2.271   8.673   2.221 -0.4839  0.0121 -0.0737
  725MOL0     O97771   2.388   8.739   2.185  0.1693 -0.4996  0.0694
  725MOL0     C97772   2.459   8.797   2.286 -0.5105 -0.2840 -0.1154
  725MOL0     C97773   2.580   8.753   2.343  0.8179 -0.0281 -0.0930
  725MOL0     C97774   2.640   8.831   2.447  0.2173  0.3687 -0.1789
  725MOL0     C97775   2.586   8.943   2.496 -0.2683 -0.0467  0.8184
  725MOL0     O97776   2.665   9.016   2.583  0.1673  0.1831  0.7819
  725MOL0     C97777   2.640   9.154   2.606 -0.1396  0.7374  0.3055
  725MOL0     C97778   2.717   9.184   2.734 -1.0398 -0.2351 -0.4404
  725MOL0     C97779   2.876   9.181   2.709  0.8717 -0.4456  0.8251
  725MOL0     C97780   2.956   9.236   2.825  0.2031  0.4183 -0.3474
  725MOL0     C97781   3.112   9.237   2.800 -0.0537 -0.5449 -0.1505
  725MOL0     C97782   3.181   9.307   2.911  0.0990  0.6866 -0.3758
  725MOL0     C97783   3.330   9.344   2.879  0.1328 -0.2395  0.1230
  725MOL0     C97784   3.413   9.375   2.997 -0.3391  0.6857  0.2558
  725MOL0    Cl97785   3.370   9.521   3.085  0.0538  0.3280  0.4475
  725MOL0     C97786   2.464   8.990   2.431 -0.0206 -0.2952  0.1558
  725MOL0     C97787   2.404   8.920   2.335 -0.2997 -0.1978  0.5842
  725MOL0     O97788   2.243   8.654   2.340  0.0613  0.3845  0.2413
  725MOL0     C97789   2.216   8.690   1.986  0.3291 -0.1247  0.3213
  725MOL0     C97790   2.154   8.652   1.864  0.4718 -0.0113 -0.7377
  725MOL0     N97791   1.472   8.449   1.444 -0.4974 -1.2813 -0.2969
  725MOL0     N97792   1.370   8.477   1.361 -1.2478  0.2154  0.1567
  725MOL0     C97793   0.639   8.619   0.545  0.1703  0.2211 -0.4509
  725MOL0     C97794   0.530   8.547   0.485  0.2798  0.4629 -0.0624
  725MOL0     C97795   0.175   8.394   0.267  0.6230 -0.9561  1.1247
  725MOL0     C97796   0.160   8.314   0.148  0.7626 -0.6109 -0.4712
  725MOL0     C97797   0.047   8.256   0.119  1.6001  0.1018 -0.2595
  725MOL0     C97798  -0.071   8.273   0.195 -0.8042 -0.0711 -0.4331
  725MOL0     O97799  -0.190   8.206   0.161  0.0060 -0.3252  0.1725
  725MOL0     C97800  -0.284   8.156   0.261 -0.2695  0.6833  0.3732
  725MOL0     C97801  -0.222   8.053   0.361  1.3442 -0.3825  0.3787
  725MOL0     C97802  -0.186   7.924   0.296 -0.5055  0.2971  0.4784
  725MOL0     C97803  -0.195   7.800   0.406 -0.5569 -0.4067 -0.1320
  725MOL0     C97804  -0.177   7.669   0.340 -0.0625 -0.6305  0.1352
  725MOL0     C97805  -0.150   7.570   0.267  0.5541  0.2683 -0.2830
  725MOL0     C97806  -0.057   8.333   0.322 -0.0022  0.4837 -0.2731
  725MOL0     C97807   0.060   8.409   0.351 -0.0701 -0.0476 -0.5926
  725MOL0     H97808   0.303   8.797   0.482  0.3016 -0.5978 -0.4003
  725MOL0     H97809   0.483   8.927   0.564  2.7352  1.3138  2.1422
  725MOL0     H97810   0.658   9.012   0.664  0.2778  0.1311 -1.4040
  725MOL0     H97811   0.602   8.904   0.789  0.3629 -0.0962 -0.3205
  725MOL0     H97812   0.891   9.014   0.767 -2.2718  2.1619 -1.4413
  725MOL0     H97813   0.770   9.065   0.874 -1.3665 -0.0827 -0.2208
  725MOL0     H97814   0.782   8.849   1.010  1.7957 -2.3574  1.0153
  725MOL0     H97815   0.880   8.780   0.880 -0.3361  0.3783  0.3096
  725MOL0     H97816   1.044   8.967   0.912  0.9662 -0.4885  0.0479
  725MOL0     H97817   0.949   9.037   1.039  2.0083  2.5788 -3.2017
  725MOL0     H97818   1.122   8.932   1.145 -1.4276  0.6586  0.9619
  725MOL0     H97819   0.979   8.816   1.156  0.7169 -2.2450 -1.4172
  725MOL0     H97820   1.085   8.673   0.996  2.1895 -2.6152  0.2589
  725MOL0     H97821   1.219   8.785   0.984 -0.4878  0.7564  0.5500
  725MOL0     H97822   1.250   8.759   1.235 -3.9112  1.8321 -0.4804
  725MOL0     H97823   1.143   8.616   1.225 -0.5151  2.1953  2.1196
  725MOL0     H97824   1.401   8.652   1.075 -1.1233  2.3433  0.7361
  725MOL0     H97825   1.293   8.504   1.069  1.7008  2.3464 -3.2329
  725MOL0     H97826   1.612   8.538   1.159  1.7305 -1.4008 -0.0065
  725MOL0     H97827   1.695   8.336   1.479 -3.0150 -1.4479 -2.1791
  725MOL0     H97828   1.786   8.398   1.338 -2.9792 -0.6358 -3.2853
  725MOL0     H97829   1.751   8.505   1.610 -0.9538 -1.3233 -0.7409
  725MOL0     H97830   1.758   8.629   1.487  0.6748  0.3740 -0.3563
  725MOL0     H97831   1.989   8.534   1.429  2.1423 -2.3492 -0.2060
  725MOL0     H97832   1.970   8.404   1.528  2.3437  0.7060 -0.4508
  725MOL0     H97833   2.007   8.685   1.625  1.1068 -0.3402  1.4955
  725MOL0     H97834   2.121   8.567   1.624  0.3522  2.2264 -1.0517
  725MOL0     H97835   1.940   8.423   2.009 -0.5093  0.5203  2.6903
  725MOL0     H97836   2.025   8.551   2.319  3.0950  0.8596  0.1527
  725MOL0     H97837   1.955   8.413   2.230 -0.2038  0.9767  0.0099
  725MOL0     H97838   2.128   8.408   2.283 -1.2705 -1.1870  1.0230
  725MOL0     H97839   2.609   8.653   2.311 -0.8631 -0.3600 -0.7021
  725MOL0     H97840   2.742   8.806   2.476  0.6406 -1.3825 -2.8649
  725MOL0     H97841   2.667   9.217   2.521 -0.9242  0.8613  0.1449
  725MOL0     H97842   2.534   9.165   2.630  0.0491  0.6403  1.2369
  725MOL0     H97843   2.703   9.283   2.779 -1.3063 -0.2800 -0.4230
  725MOL0     H97844   2.700   9.116   2.818  0.3944 -1.1132 -0.8142
  725MOL0     H97845   2.899   9.228   2.613  0.8688 -3.3691 -0.7009
  725MOL0     H97846   2.914   9.081   2.688 -0.7282 -0.5018 -2.3526
  725MOL0     H97847   2.930   9.339   2.849 -1.4828  0.2810 -1.4252
  725MOL0     H97848   2.940   9.180   2.917 -0.1170 -1.7474 -1.6428
  725MOL0     H97849   3.134   9.294   2.709  0.4354 -2.5098 -1.3372
  725MOL0     H97850   3.144   9.135   2.776 -5.1325 -2.5490  0.4334
  725MOL0     H97851   3.137   9.402   2.943  2.6698  1.4190  1.2983
  725MOL0     H97852   3.186   9.233   2.991 -1.2286 -1.7555 -2.4287
  725MOL0     H97853   3.335   9.434   2.817 -1.3167  0.0638  0.4054
  725MOL0     H97854   3.374   9.265   2.819  1.8640  0.0247  0.9878
  725MOL0     H97855   3.512   9.395   2.956  0.2547 -0.1628  1.2146
  725MOL0     H97856   3.421   9.290   3.066  0.5982  0.8141  0.3090
  725MOL0     H97857   2.415   9.078   2.471 -3.5693 -2.4141  0.9000
  725MOL0     H97858   2.312   8.965   2.297 -0.0859  1.7798  2.2380
  725MOL0     H97859   2.283   8.774   1.973 -1.5203  1.7156  1.9425
  725MOL0     H97860   2.190   8.698   1.773  3.7527 -0.0121  0.4279
  725MOL0     H97861   0.724   8.569   0.592  0.8410  0.4446 -1.3984
  725MOL0     H97862   0.545   8.441   0.470 -2.5413  0.2933 -2.3601
  725MOL0     H97863   0.245   8.298   0.082  1.8869  2.0322  0.2064
  725MOL0     H97864   0.036   8.245   0.011  2.3838  5.3997 -1.1336
  725MOL0     H97865  -0.323   8.238   0.322 -0.7780  0.8981 -0.2256
  725MOL0     H97866  -0.373   8.118   0.210 -1.0534 -0.0140  2.1828
  725MOL0     H97867  -0.298   8.030   0.436 -0.3357 -2.5748 -1.8784
  725MOL0     H97868  -0.135   8.104   0.404  3.8850 -1.4105 -3.1158
  725MOL0     H97869  -0.091   7.922   0.241 -0.2530 -0.1307  0.9215
  725MOL0     H97870  -0.270   7.909   0.227  1.9523 -1.5727 -2.3931
  725MOL0     H97871  -0.291   7.800   0.457 -1.6087 -2.0040 -1.9555
  725MOL0     H97872  -0.109   7.824   0.470 -0.2326  3.0730 -1.6558
  725MOL0     H97873  -0.132   7.486   0.204  0.6140  1.6849 -2.2318
  725MOL0     H97874  -0.142   8.342   0.388  1.2432  0.4235  1.3920
  725MOL0     H97875   0.070   8.486   0.426  2.0414  3.8431 -4.4158
  726MOL0     O97876   0.203   2.699   4.488  0.5934  0.3395 -0.7239
  726MOL0     C97877   0.262   2.636   4.577 -0.2201 -0.2493  0.2971
  726MOL0     O97878   0.388   2.652   4.616 -0.3536 -0.1040  0.2498
  726MOL0     C97879   0.477   2.719   4.542 -0.2595  0.1696  0.1368
  726MOL0     C97880   0.466   2.855   4.524 -0.7612  0.0095 -0.1580
  726MOL0     C97881   0.565   2.926   4.452  0.0965 -0.5521  0.4270
  726MOL0     C97882   0.679   2.856   4.397  0.3060 -0.4201 -0.1504
  726MOL0     O97883   0.769   2.937   4.343  0.0096 -0.6104  0.5353
  726MOL0     C97884   0.900   2.883   4.303  0.0229  0.4087  0.0076
  726MOL0     C97885   0.983   2.990   4.249  0.1326 -0.6129 -0.4829
  726MOL0     C97886   0.940   3.021   4.107 -0.1258 -0.3426  0.1592
  726MOL0     C97887   1.035   3.135   4.055 -0.0521 -0.6134  0.1319
  726MOL0     C97888   1.014   3.139   3.904 -0.5239 -0.2079  0.3569
  726MOL0     C97889   1.067   3.262   3.823  0.2163 -0.1056  0.2655
  726MOL0     C97890   1.217   3.241   3.791 -0.6787 -0.5096 -0.1493
  726MOL0     C97891   1.267   3.367   3.704 -0.0138 -0.3271  0.4599
  726MOL0     N97892   1.200   3.359   3.572 -0.2516 -0.6422 -0.0356
  726MOL0     C97893   1.216   3.257   3.483  0.2333  0.4012  0.9268
  726MOL0     C97894   1.128   3.283   3.375  0.6259  0.3562 -0.8204
  726MOL0     C97895   1.111   3.185   3.262 -1.0818  0.0133 -0.7470
  726MOL0     C97896   1.237   3.176   3.167  0.8173 -0.5348  0.2675
  726MOL0     C97897   1.305   3.310   3.127 -0.3794  0.4890  0.0473
  726MOL0     C97898   1.442   3.283   3.053 -0.4580 -0.5856  0.0378
  726MOL0     O97899   1.436   3.207   2.936  0.4631  0.7661  0.4973
  726MOL0     C97900   1.371   3.252   2.823  0.3721  0.3779 -0.4273
  726MOL0     C97901   1.347   3.386   2.777 -0.2962  0.4150 -0.5761
  726MOL0     C97902   1.266   3.412   2.667  0.9047 -0.5116 -0.3647
  726MOL0     C97903   1.220   3.559   2.649 -0.2421  1.0149  0.3313
  726MOL0     C97904   1.220   3.312   2.579 -0.3540  0.3452  0.0287
  726MOL0     C97905   1.119   3.333   2.461 -0.4418 -0.7827 -0.1840
  726MOL0     O97906   1.088   3.461   2.415  0.0203 -0.5268  0.6159
  726MOL0     C97907   1.007   3.484   2.304 -0.4472 -0.2932  0.6001
  726MOL0     C97908   0.957   3.389   2.208 -0.5636  0.2153  0.5677
  726MOL0     C97909   0.886   3.435   2.090 -0.2806  0.3019 -0.4726
  726MOL0     C97910   0.831   3.558   2.102 -0.4326 -1.1020 -0.5857
  726MOL0     O97911   0.738   3.616   2.014  0.5130  0.5750 -0.7774
  726MOL0     C97912   0.648   3.540   1.917  0.3603  0.6103  0.8950
  726MOL0     C97913   0.516   3.501   1.991 -0.3673  0.0352  0.2002
  726MOL0     C97914   0.537   3.386   2.091 -0.2475 -0.3735  0.9407
  726MOL0     C97915   0.399   3.328   2.147 -0.6877 -0.7222  0.2037
  726MOL0     C97916   0.327   3.239   2.039 -0.4688 -0.7956 -0.3642
  726MOL0     C97917   0.198   3.172   2.108 -0.2241  0.6928  0.4579
  726MOL0     C97918   0.074   3.249   2.125 -0.0066 -0.3758  0.5447
  726MOL0     C97919  -0.048   3.162   2.156 -1.1973  0.2784  0.2363
  726MOL0    Cl97920  -0.190   3.263   2.208 -0.2797  0.3836 -0.1811
  726MOL0     C97921   0.886   3.655   2.193  0.3243 -0.7395 -0.2301
  726MOL0     C97922   0.979   3.621   2.287 -0.0903  1.1834  0.3070
  726MOL0     O97923   1.058   3.232   2.427 -0.3405  0.8703 -0.2016
  726MOL0     C97924   1.254   3.179   2.615 -0.1654  0.3663 -0.2590
  726MOL0     C97925   1.330   3.151   2.737  1.0769  0.0729 -0.2840
  726MOL0     N97926   1.049   3.391   3.419 -0.6561  0.6495 -0.4959
  726MOL0     N97927   1.095   3.437   3.531  0.7683 -0.4158  0.4870
  726MOL0     C97928   0.687   2.716   4.426 -0.5283 -0.2497 -0.0501
  726MOL0     C97929   0.579   2.648   4.489  1.0516 -0.1572  0.0145
  726MOL0     C97930   0.194   2.524   4.647  0.2396  0.6356 -0.1803
  726MOL0     C97931   0.055   2.525   4.667 -0.2216 -0.0602 -0.6772
  726MOL0     C97932  -0.010   2.413   4.727 -0.5592  0.4172 -0.7088
  726MOL0     C97933   0.064   2.305   4.773  0.1335 -0.2614  0.8917
  726MOL0     O97934   0.014   2.196   4.838  0.5581 -0.3639  0.6692
  726MOL0     C97935  -0.123   2.157   4.822 -0.7489  0.4760 -0.1621
  726MOL0     C97936  -0.124   2.007   4.789  0.3744  0.3242 -0.2280
  726MOL0     C97937  -0.029   1.963   4.672 -0.7477 -0.2290 -0.1186
  726MOL0     C97938  -0.037   1.821   4.641 -0.0065  0.5233 -0.2210
  726MOL0     C97939   0.054   1.767   4.546 -0.0345  0.2085  0.0065
  726MOL0     C97940   0.130   1.717   4.463 -0.1408  0.3932 -0.9210
  726MOL0     C97941   0.202   2.303   4.755 -0.3047 -0.7392  0.8767
  726MOL0     C97942   0.268   2.412   4.691 -0.3881 -0.1607  0.2090
  726MOL0     H97943   0.379   2.907   4.563  0.7120  0.9090  2.1458
  726MOL0     H97944   0.551   3.034   4.458 -1.8276 -0.6719 -1.1522
  726MOL0     H97945   0.948   2.837   4.390 -3.6109 -1.2371  1.3072
  726MOL0     H97946   0.890   2.804   4.229 -0.6773  0.0437  0.4842
  726MOL0     H97947   0.964   3.078   4.312  1.6379 -1.0030  0.5602
  726MOL0     H97948   1.087   2.958   4.252  0.6124  0.8689 -0.6721
  726MOL0     H97949   0.966   2.926   4.060  0.4344  1.1259 -2.6702
  726MOL0     H97950   0.833   3.044   4.101 -0.0999  0.5001  2.0721
  726MOL0     H97951   1.015   3.225   4.114 -0.1616 -1.6716  1.7658
  726MOL0     H97952   1.140   3.112   4.074  0.3553  2.3489  2.1554
  726MOL0     H97953   1.064   3.053   3.857  0.2220  0.5701 -0.3029
  726MOL0     H97954   0.908   3.131   3.881  0.0311 -3.3312 -1.7303
  726MOL0     H97955   1.015   3.266   3.727 -0.8276 -3.2188  0.5701
  726MOL0     H97956   1.049   3.357   3.875  2.3499 -0.1837  1.2364
  726MOL0     H97957   1.282   3.227   3.878 -0.6835 -1.7185 -0.3244
  726MOL0     H97958   1.229   3.153   3.727 -3.2795  1.3393 -3.4999
  726MOL0     H97959   1.374   3.360   3.688 -0.2875  1.2262 -2.6908
  726MOL0     H97960   1.251   3.469   3.740 -1.2949  1.0722 -3.5163
  726MOL0     H97961   1.289   3.179   3.499  2.0323  2.2187  2.0608
  726MOL0     H97962   1.099   3.085   3.305  1.0914 -0.2852 -0.7511
  726MOL0     H97963   1.027   3.193   3.192  1.6782  1.2977 -4.2434
  726MOL0     H97964   1.213   3.115   3.079  1.7915 -1.6748  0.7537
  726MOL0     H97965   1.307   3.114   3.224  0.5012  0.9827  2.4005
  726MOL0     H97966   1.334   3.376   3.210 -1.4048  0.8843  0.1059
  726MOL0     H97967   1.244   3.364   3.054  2.8972  0.4602 -2.9494
  726MOL0     H97968   1.506   3.244   3.132  1.3548  1.5209 -0.2814
  726MOL0     H97969   1.486   3.382   3.038  3.6210 -1.9725  1.5547
  726MOL0     H97970   1.374   3.473   2.835 -1.4509  0.0688  0.5377
  726MOL0     H97971   1.277   3.631   2.708 -0.6009 -1.0231  3.3692
  726MOL0     H97972   1.241   3.577   2.543 -0.3165 -1.9725 -0.2881
  726MOL0     H97973   1.116   3.580   2.673  0.1621  0.2210  3.0950
  726MOL0     H97974   0.992   3.286   2.207 -0.5168  0.2285  0.9939
  726MOL0     H97975   0.853   3.364   2.015  0.4566 -0.5759  0.0101
  726MOL0     H97976   0.622   3.613   1.840  0.3337 -2.0827 -1.8263
  726MOL0     H97977   0.697   3.458   1.863 -1.3573  0.1139 -0.0051
  726MOL0     H97978   0.477   3.584   2.050  1.1052 -0.1093  1.4464
  726MOL0     H97979   0.436   3.468   1.924 -0.6582  1.1132 -0.0033
  726MOL0     H97980   0.597   3.419   2.177 -1.8985  0.6456  1.7722
  726MOL0     H97981   0.593   3.315   2.030  0.3092 -1.5491  2.7407
  726MOL0     H97982   0.427   3.260   2.228  1.9889  0.6171  0.5203
  726MOL0     H97983   0.333   3.406   2.188 -2.4713 -2.3083  0.4988
  726MOL0     H97984   0.393   3.163   1.997 -1.3379 -1.8954  0.2285
  726MOL0     H97985   0.304   3.312   1.960  0.7319  1.6378  1.3962
  726MOL0     H97986   0.176   3.074   2.064  2.2982 -1.9304  4.3811
  726MOL0     H97987   0.230   3.127   2.202 -1.3951 -1.3833 -0.0622
  726MOL0     H97988   0.052   3.302   2.032 -0.4757 -0.9995  0.2873
  726MOL0     H97989   0.087   3.327   2.200  1.5091 -0.7193  0.6732
  726MOL0     H97990  -0.009   3.105   2.241  0.2541  0.5026 -0.2564
  726MOL0     H97991  -0.077   3.093   2.076  0.9272  0.6740 -0.9469
  726MOL0     H97992   0.852   3.758   2.192  1.0973 -0.3484  2.5991
  726MOL0     H97993   1.021   3.689   2.361 -0.4976 -1.1594  2.8413
  726MOL0     H97994   1.226   3.090   2.560 -2.2505  0.3976  0.6772
  726MOL0     H97995   1.365   3.054   2.771  3.9761  1.2206  0.3178
  726MOL0     H97996   0.780   2.675   4.388  1.1088  3.6609 -0.6873
  726MOL0     H97997   0.585   2.541   4.506 -1.1226 -0.5293 -1.1685
  726MOL0     H97998  -0.006   2.596   4.613  1.7954  1.9821 -0.3847
  726MOL0     H97999  -0.117   2.404   4.718 -0.2598 -2.5411 -2.6229
  726MOL0     H98000  -0.183   2.182   4.910  1.7765 -1.0647  2.1608
  726MOL0     H98001  -0.176   2.196   4.735 -0.4067 -0.2136 -0.6891
  726MOL0     H98002  -0.225   1.981   4.757  0.0995  1.0385  0.0431
  726MOL0     H98003  -0.096   1.956   4.881  0.1383  0.2728 -0.1830
  726MOL0     H98004   0.076   1.983   4.694 -0.3914  1.1542 -2.6715
  726MOL0     H98005  -0.037   2.028   4.585  0.8872  0.1626 -0.0101
  726MOL0     H98006  -0.136   1.803   4.598 -0.0045 -0.2103  0.0757
  726MOL0     H98007  -0.027   1.774   4.739  1.5939  2.2828  0.5231
  726MOL0     H98008   0.209   1.684   4.399 -0.3590 -0.6399 -0.6850
  726MOL0     H98009   0.261   2.222   4.795 -0.5267  0.2160  3.3047
  726MOL0     H98010   0.376   2.415   4.688 -0.3343 -1.6099  0.2228
  727MOL0     O98011   1.006   2.413  10.080 -0.2018  0.2341  0.2136
  727MOL0     C98012   1.088   2.449  10.169 -0.3447  0.1974  0.0647
  727MOL0     O98013   1.085   2.405  10.301  0.4583  0.6830 -0.7040
  727MOL0     C98014   0.961   2.365  10.356 -0.2321  1.2588 -0.6353
  727MOL0     C98015   0.856   2.444  10.393  0.0079  0.3820  0.0561
  727MOL0     C98016   0.748   2.397  10.474 -0.5275 -1.1146  0.9867
  727MOL0     C98017   0.748   2.267  10.519 -0.4517 -0.1337 -0.5357
  727MOL0     O98018   0.653   2.220  10.614 -0.0378 -0.1497  0.5852
  727MOL0     C98019   0.653   2.088  10.661  0.0462  0.7558 -0.4035
  727MOL0     C98020   0.547   2.064  10.764 -0.0416 -0.6353 -0.0237
  727MOL0     C98021   0.414   2.116  10.713 -0.5261  0.7517 -0.0380
  727MOL0     C98022   0.300   2.031  10.774 -0.0828 -0.1387 -0.6612
  727MOL0     C98023   0.160   2.090  10.716  0.2799  0.5261 -1.0141
  727MOL0     C98024   0.034   2.021  10.770  0.4062  0.0351 -0.5630
  727MOL0     C98025   0.042   1.875  10.738 -0.0378 -0.1596  0.0442
  727MOL0     C98026  -0.104   1.814  10.755  0.5883  0.6039  0.1232
  727MOL0     N98027  -0.179   1.867  10.641  1.2431 -1.0873 -0.1840
  727MOL0     C98028  -0.270   1.979  10.650  1.4179 -0.4153  0.5919
  727MOL0     C98029  -0.304   2.004  10.522  0.1020  0.7024  0.1038
  727MOL0     C98030  -0.397   2.117  10.466  0.2843 -0.4240 -0.1757
  727MOL0     C98031  -0.542   2.060  10.460 -0.5706 -0.2286  0.8890
  727MOL0     C98032  -0.564   1.947  10.358 -0.3224  0.2237 -0.1315
  727MOL0     C98033  -0.706   1.892  10.363 -0.4175  0.2373  0.4465
  727MOL0     O98034  -0.727   1.820  10.235 -0.5198 -0.8152  0.2042
  727MOL0     C98035  -0.790   1.698  10.249  0.5504 -0.9210  0.3386
  727MOL0     C98036  -0.929   1.685  10.283 -0.7926 -0.3903 -0.0829
  727MOL0     C98037  -0.986   1.561  10.295 -0.9764  0.3559 -0.3025
  727MOL0     C98038  -1.130   1.567  10.328 -0.5315  0.4143  0.4111
  727MOL0     C98039  -0.912   1.445  10.258  0.5466  0.6675  0.5184
  727MOL0     C98040  -0.967   1.307  10.249 -0.7373  0.1062  0.6045
  727MOL0     O98041  -0.880   1.192  10.242  0.1133 -0.4527  0.0037
  727MOL0     C98042  -0.905   1.083  10.165  1.2563 -0.0796  0.2432
  727MOL0     C98043  -1.024   1.020  10.150 -0.0521 -0.5716  0.6197
  727MOL0     C98044  -1.026   0.906  10.068  0.3262 -0.6725 -0.0397
  727MOL0     C98045  -0.917   0.853  10.001  0.0875 -0.0020 -0.0971
  727MOL0     O98046  -0.926   0.747   9.916 -0.5086  0.5928  0.3630
  727MOL0     C98047  -0.829   0.640   9.929  0.7823 -0.3217  0.8716
  727MOL0     C98048  -0.841   0.559  10.060 -0.5513  0.9438 -1.2108
  727MOL0     C98049  -0.757   0.428  10.056 -0.0273 -0.0578 -0.6859
  727MOL0     C98050  -0.761   0.357  10.192  0.2593 -0.4566  0.1084
  727MOL0     C98051  -0.675   0.232  10.203  0.3520 -0.4803  0.0757
  727MOL0     C98052  -0.691   0.176  10.340  0.1629  0.3314 -0.0549
  727MOL0     C98053  -0.622   0.036  10.343  0.4312  0.3082  0.2146
  727MOL0     C98054  -0.488   0.051  10.415  0.7781 -0.6270  0.1946
  727MOL0    Cl98055  -0.421  -0.114  10.462  0.0493 -0.2737  0.1308
  727MOL0     C98056  -0.799   0.926  10.011 -0.3264  0.0765 -0.7562
  727MOL0     C98057  -0.798   1.034  10.095 -1.0972  0.4659  0.0672
  727MOL0     O98058  -1.084   1.305  10.236 -0.0057 -0.3674  1.0334
  727MOL0     C98059  -0.786   1.464  10.214  0.4079  0.5863  0.3052
  727MOL0     C98060  -0.720   1.584  10.225 -0.3196  0.1537 -0.1267
  727MOL0     N98061  -0.232   1.915  10.440  0.5064  0.1388  0.0032
  727MOL0     N98062  -0.157   1.837  10.514  0.1811  0.1548  0.0392
  727MOL0     C98063   0.846   2.175  10.462 -0.3522  0.2989 -0.0851
  727MOL0     C98064   0.954   2.226  10.379  0.0730 -0.1715 -0.5333
  727MOL0     C98065   1.217   2.499  10.113 -0.8675 -0.5833  0.8932
  727MOL0     C98066   1.210   2.594  10.013 -0.6444 -0.5221  1.2616
  727MOL0     C98067   1.322   2.649   9.956 -0.5011  0.1006  0.9063
  727MOL0     C98068   1.453   2.610  10.000  0.7078 -0.0809  1.4516
  727MOL0     O98069   1.569   2.675   9.962  0.4869  0.6760 -0.6599
  727MOL0     C98070   1.581   2.765   9.848  0.6106  1.2755 -0.3299
  727MOL0     C98071   1.582   2.909   9.900 -0.6803  0.2795 -1.0137
  727MOL0     C98072   1.547   3.021   9.793 -0.6245 -0.2243  0.4574
  727MOL0     C98073   1.658   3.043   9.683 -0.7820 -0.2518  0.6920
  727MOL0     C98074   1.702   3.188   9.678  0.1058 -0.1839  0.7825
  727MOL0     C98075   1.729   3.308   9.645  0.5828  0.6293 -0.3865
  727MOL0     C98076   1.464   2.520  10.106  0.0781 -0.8695 -0.0763
  727MOL0     C98077   1.341   2.476  10.172 -1.0046  0.5675 -0.2990
  727MOL0     H98078   0.866   2.547  10.362  0.9017  0.6472  1.1399
  727MOL0     H98079   0.676   2.474  10.499  2.0537  2.4704 -1.4480
  727MOL0     H98080   0.644   2.020  10.576  2.3784  1.0362 -0.9377
  727MOL0     H98081   0.752   2.074  10.707  0.2832 -2.9989 -1.6856
  727MOL0     H98082   0.526   1.961  10.793  0.6132 -0.2585  1.9316
  727MOL0     H98083   0.570   2.120  10.855  0.3259 -0.5798 -0.1488
  727MOL0     H98084   0.396   2.221  10.739  2.2154  1.3910 -0.4737
  727MOL0     H98085   0.402   2.107  10.605 -0.4981  1.3775 -0.0973
  727MOL0     H98086   0.304   1.925  10.752 -2.0237 -0.8633  1.8980
  727MOL0     H98087   0.301   2.054  10.881 -1.3921  2.2755 -1.0849
  727MOL0     H98088   0.158   2.198  10.735  2.1559  0.2273  1.4254
  727MOL0     H98089   0.171   2.074  10.609  3.5669 -0.7572 -0.6046
  727MOL0     H98090   0.019   2.040  10.877 -2.3126 -0.0659 -0.8559
  727MOL0     H98091  -0.052   2.072  10.727 -0.2188  1.8800  2.5419
  727MOL0     H98092   0.082   1.859  10.637  1.6824 -2.7108  1.0213
  727MOL0     H98093   0.113   1.824  10.803 -1.5989  0.1329  2.0799
  727MOL0     H98094  -0.144   1.836  10.854  1.7685 -0.0857  0.7805
  727MOL0     H98095  -0.102   1.705  10.750  1.7704  0.5472  1.2946
  727MOL0     H98096  -0.297   2.039  10.735 -2.1882  1.2983 -1.5678
  727MOL0     H98097  -0.402   2.206  10.529  1.2933  0.4946 -1.3314
  727MOL0     H98098  -0.352   2.150  10.372 -0.7127 -0.5761 -0.7212
  727MOL0     H98099  -0.607   2.142  10.428  1.7416  1.4566  0.2399
  727MOL0     H98100  -0.590   2.035  10.555 -5.6415 -0.1321 -1.3594
  727MOL0     H98101  -0.486   1.873  10.379 -2.0025 -0.4620  5.2356
  727MOL0     H98102  -0.558   1.994  10.260 -1.7351 -3.6928 -2.3398
  727MOL0     H98103  -0.780   1.972  10.367  1.2382  2.1681 -2.8575
  727MOL0     H98104  -0.725   1.840  10.457  1.4592  2.1602  2.0063
  727MOL0     H98105  -0.983   1.777  10.301 -0.3941 -0.0982 -0.3674
  727MOL0     H98106  -1.184   1.547  10.235  1.6965 -0.8438 -0.6995
  727MOL0     H98107  -1.153   1.487  10.399  3.6760 -1.9062 -0.5151
  727MOL0     H98108  -1.167   1.665  10.360 -2.2561  0.8056 -2.3599
  727MOL0     H98109  -1.108   1.073  10.193  1.1233  1.3628  0.6803
  727MOL0     H98110  -1.124   0.859  10.073  1.1105 -3.0060 -3.0204
  727MOL0     H98111  -0.853   0.581   9.841 -2.7995  1.6014  0.3556
  727MOL0     H98112  -0.724   0.670   9.915  1.1320 -2.1560 -0.9020
  727MOL0     H98113  -0.810   0.626  10.141 -0.9141 -3.1975  2.7579
  727MOL0     H98114  -0.947   0.538  10.078 -0.9393  2.4633 -1.5810
  727MOL0     H98115  -0.656   0.447  10.017  1.0825 -3.9851 -0.1414
  727MOL0     H98116  -0.814   0.360   9.991 -4.2428  2.5076 -0.0221
  727MOL0     H98117  -0.753   0.418  10.282  1.2938 -2.9662  1.8308
  727MOL0     H98118  -0.865   0.324  10.204  0.7407 -2.7668 -1.5201
  727MOL0     H98119  -0.570   0.252  10.180  0.1212  2.3663  1.0670
  727MOL0     H98120  -0.719   0.165  10.129 -3.8011  1.8886  0.1113
  727MOL0     H98121  -0.637   0.240  10.411  2.2533 -3.1080  1.7037
  727MOL0     H98122  -0.796   0.175  10.373  0.3668  3.4883  1.0289
  727MOL0     H98123  -0.598  -0.005  10.245 -0.3463 -2.4463  1.0877
  727MOL0     H98124  -0.684  -0.027  10.408  1.1282  1.2238  1.8197
  727MOL0     H98125  -0.495   0.110  10.506  0.0512 -2.7419  1.5994
  727MOL0     H98126  -0.433   0.099  10.334 -2.1580  0.6975 -1.1938
  727MOL0     H98127  -0.708   0.900   9.957 -1.0803 -0.8295 -1.6237
  727MOL0     H98128  -0.705   1.089  10.109 -1.4062  0.5881  1.8552
  727MOL0     H98129  -0.745   1.373  10.171 -1.3359  0.8550 -2.1175
  727MOL0     H98130  -0.615   1.606  10.213 -0.1426 -0.9322 -0.6833
  727MOL0     H98131   0.854   2.073  10.496 -1.3588  0.8273  1.8820
  727MOL0     H98132   1.030   2.156  10.346 -0.3562 -0.5181 -0.7898
  727MOL0     H98133   1.118   2.631   9.968  1.5500  3.3835 -0.4895
  727MOL0     H98134   1.304   2.715   9.872  0.5525 -1.0153 -0.2265
  727MOL0     H98135   1.672   2.729   9.800  0.0368  0.8399 -1.1106
  727MOL0     H98136   1.496   2.757   9.779 -1.7378 -0.2390  2.4891
  727MOL0     H98137   1.664   2.932   9.968 -0.0353 -2.9295 -0.5538
  727MOL0     H98138   1.496   2.921   9.967 -1.4527  0.1238 -1.9409
  727MOL0     H98139   1.540   3.115   9.849 -3.9147 -0.1704  0.1178
  727MOL0     H98140   1.453   2.995   9.745  2.2735 -2.3753 -4.9270
  727MOL0     H98141   1.621   3.004   9.587  0.6987  1.9587 -0.8733
  727MOL0     H98142   1.744   2.983   9.714  0.7517  0.4384 -1.9268
  727MOL0     H98143   1.763   3.410   9.637  1.6478  0.3506  0.3991
  727MOL0     H98144   1.564   2.496  10.140  0.6304 -1.7324 -2.1278
  727MOL0     H98145   1.356   2.421  10.265 -0.6418  2.2755  0.7031
  728MOL0     O98146   0.177   3.249   0.942 -0.1263 -0.0526 -0.1577
  728MOL0     C98147   0.229   3.155   0.879  0.2816 -0.7447 -0.4957
  728MOL0     O98148   0.169   3.049   0.828  0.3679 -0.0049  0.1082
  728MOL0     C98149   0.038   3.026   0.860 -0.5750  0.9624  0.7401
  728MOL0     C98150   0.001   2.935   0.957 -0.4248  0.0475  0.1745
  728MOL0     C98151  -0.130   2.889   0.967  0.4913  1.1586 -0.0343
  728MOL0     C98152  -0.241   2.936   0.888  0.0775 -0.2462  0.8542
  728MOL0     O98153  -0.368   2.909   0.916  0.0777 -0.9958  0.2287
  728MOL0     C98154  -0.474   3.006   0.868  0.3242 -0.1864  0.2919
  728MOL0     C98155  -0.553   2.938   0.751 -0.1092  0.3895 -0.0602
  728MOL0     C98156  -0.668   3.020   0.696  0.7616  0.4999 -0.7776
  728MOL0     C98157  -0.803   2.945   0.704  0.1129  0.7614 -0.3089
  728MOL0     C98158  -0.925   3.027   0.643 -1.0710 -0.3907 -0.4644
  728MOL0     C98159  -1.003   3.117   0.737 -0.1603 -0.2193  0.4117
  728MOL0     C98160  -1.069   3.243   0.664 -0.7032  0.1122  0.4763
  728MOL0     C98161  -1.165   3.203   0.550  0.3905  0.0999  0.4404
  728MOL0     N98162  -1.266   3.115   0.614  1.0758 -0.1073 -0.0016
  728MOL0     C98163  -1.360   3.153   0.708 -0.0848  0.1790 -0.2278
  728MOL0     C98164  -1.431   3.044   0.727  0.5519 -0.6625  0.6912
  728MOL0     C98165  -1.529   3.011   0.837  0.0954  0.3016 -0.7238
  728MOL0     C98166  -1.679   3.037   0.805  0.2676  0.6231 -1.2721
  728MOL0     C98167  -1.750   2.925   0.738 -0.8892  0.0005  0.3038
  728MOL0     C98168  -1.894   2.950   0.691  0.6424 -0.3725  0.1312
  728MOL0     O98169  -1.982   2.963   0.812 -0.1136  0.5075  0.4808
  728MOL0     C98170  -2.104   2.973   0.773 -0.3408 -0.2211 -0.0750
  728MOL0     C98171  -2.169   3.085   0.737 -0.5316 -1.4265  0.6418
  728MOL0     C98172  -2.309   3.104   0.723 -0.2110 -0.9134 -0.0269
  728MOL0     C98173  -2.373   3.241   0.702  0.3454  0.6964  0.3263
  728MOL0     C98174  -2.386   2.989   0.743 -0.3762 -0.2487  0.5733
  728MOL0     C98175  -2.540   2.985   0.721  0.9247  0.2544  0.5791
  728MOL0     O98176  -2.597   2.861   0.743  0.0964  0.3917 -0.1504
  728MOL0     C98177  -2.738   2.858   0.750  0.6337 -0.3655 -0.6209
  728MOL0     C98178  -2.814   2.878   0.633  0.3088  0.6280  0.8369
  728MOL0     C98179  -2.952   2.885   0.624 -0.3412  0.1347 -0.5273
  728MOL0     C98180  -3.022   2.872   0.743 -0.0620  0.2605 -1.1512
  728MOL0     O98181  -3.155   2.886   0.740 -0.8029  0.3234 -0.0464
  728MOL0     C98182  -3.206   2.968   0.848  0.0485 -0.4663 -0.1789
  728MOL0     C98183  -3.330   3.051   0.811  0.3462  0.0648  0.2801
  728MOL0     C98184  -3.328   3.089   0.658  0.4242 -0.0641  0.4902
  728MOL0     C98185  -3.454   3.168   0.615  0.4187 -0.0315 -0.1750
  728MOL0     C98186  -3.449   3.225   0.470 -1.1945  0.0306 -0.3527
  728MOL0     C98187  -3.587   3.242   0.414 -1.1880  0.6939 -1.1002
  728MOL0     C98188  -3.575   3.309   0.279 -0.1868  0.1100  0.3955
  728MOL0     C98189  -3.702   3.329   0.207  0.2677 -0.0726 -0.3540
  728MOL0    Cl98190  -3.783   3.169   0.194 -0.1268  0.0303 -0.3375
  728MOL0     C98191  -2.953   2.850   0.865  0.2987 -0.2628 -0.1558
  728MOL0     C98192  -2.810   2.836   0.863 -0.2728 -0.4853 -0.3404
  728MOL0     O98193  -2.610   3.086   0.688 -0.1610 -0.2822 -0.3152
  728MOL0     C98194  -2.320   2.863   0.768 -0.3165 -0.5768  0.2561
  728MOL0     C98195  -2.186   2.863   0.785 -0.1511  1.0483 -0.9112
  728MOL0     N98196  -1.401   2.947   0.629  0.2479 -0.1881  0.1928
  728MOL0     N98197  -1.289   2.994   0.566  0.3452 -0.5995  0.0069
  728MOL0     C98198  -0.202   3.028   0.781  0.1506 -0.3711  0.0965
  728MOL0     C98199  -0.064   3.060   0.768  0.0322 -0.5647 -1.0812
  728MOL0     C98200   0.372   3.164   0.853 -0.6391  0.3798  0.2239
  728MOL0     C98201   0.433   3.065   0.768  0.4037 -0.4382 -0.1136
  728MOL0     C98202   0.568   3.074   0.739  0.1543 -0.3874  0.1015
  728MOL0     C98203   0.645   3.181   0.784  0.0619 -0.0142 -0.3365
  728MOL0     O98204   0.783   3.190   0.781 -0.6226 -0.1100 -0.2826
  728MOL0     C98205   0.861   3.077   0.730  0.5817  0.2732 -0.8791
  728MOL0     C98206   1.011   3.119   0.729 -0.1949  0.2883  0.2548
  728MOL0     C98207   1.063   3.129   0.873  0.1555  0.4469  0.5189
  728MOL0     C98208   1.129   3.266   0.893  0.3329 -0.0892 -0.4202
  728MOL0     C98209   1.187   3.274   1.025  0.4095 -0.4785 -0.9609
  728MOL0     C98210   1.218   3.271   1.139 -0.3697  0.2237 -0.1348
  728MOL0     C98211   0.587   3.286   0.855 -0.8889  0.4261 -0.3089
  728MOL0     C98212   0.455   3.273   0.898  0.1224 -0.0642 -0.0644
  728MOL0     H98213   0.077   2.899   1.026 -2.6839  1.6797  3.7820
  728MOL0     H98214  -0.156   2.818   1.044 -0.2388  0.6582 -0.7259
  728MOL0     H98215  -0.554   3.031   0.938  1.4587  1.1742  1.1628
  728MOL0     H98216  -0.427   3.103   0.850 -1.7385  0.8114  0.0350
  728MOL0     H98217  -0.482   2.921   0.670  1.0119  1.4222  0.6593
  728MOL0     H98218  -0.586   2.840   0.785 -1.1182  0.4994 -0.6877
  728MOL0     H98219  -0.685   3.107   0.760 -0.4765 -0.6434  0.4994
  728MOL0     H98220  -0.646   3.051   0.593 -0.8046 -0.0662 -1.3088
  728MOL0     H98221  -0.804   2.858   0.637  0.8481  0.9419 -0.5649
  728MOL0     H98222  -0.823   2.899   0.801 -2.3010  0.7939 -0.7395
  728MOL0     H98223  -0.897   3.083   0.553 -2.1433  2.2349  0.7639
  728MOL0     H98224  -0.982   2.944   0.599 -0.6074 -0.1524 -1.5624
  728MOL0     H98225  -1.079   3.053   0.783 -3.2596  2.9520  0.1487
  728MOL0     H98226  -0.938   3.165   0.811  0.0556 -1.3782  0.9865
  728MOL0     H98227  -1.119   3.318   0.726 -1.9327  0.9229 -1.4040
  728MOL0     H98228  -0.982   3.292   0.620 -0.2366 -0.7202  0.4531
  728MOL0     H98229  -1.105   3.152   0.474 -2.1406 -1.4975 -0.6308
  728MOL0     H98230  -1.225   3.280   0.500  0.3230 -0.3922 -0.2447
  728MOL0     H98231  -1.364   3.244   0.768 -0.0113  1.8552 -2.6228
  728MOL0     H98232  -1.504   2.915   0.882 -2.2758 -0.6639 -1.3014
  728MOL0     H98233  -1.503   3.088   0.910  1.1366 -1.2950  0.6501
  728MOL0     H98234  -1.698   3.130   0.750  1.6587  1.3125 -0.6479
  728MOL0     H98235  -1.733   3.060   0.897 -2.6672 -2.2090 -2.0819
  728MOL0     H98236  -1.752   2.838   0.804 -1.8526  1.2321  2.0203
  728MOL0     H98237  -1.695   2.899   0.648  0.9761 -1.2358  1.7202
  728MOL0     H98238  -1.933   2.873   0.623  0.8699 -3.0355  2.8308
  728MOL0     H98239  -1.885   3.043   0.635  2.4138 -0.2828  0.5056
  728MOL0     H98240  -2.113   3.175   0.713 -1.7502 -0.8326 -0.0361
  728MOL0     H98241  -2.431   3.256   0.610  1.6606  2.9449 -0.2263
  728MOL0     H98242  -2.439   3.263   0.787 -0.7937  0.9789 -0.6022
  728MOL0     H98243  -2.298   3.321   0.702  0.3101  0.7539  1.8045
  728MOL0     H98244  -2.762   2.889   0.539 -0.8138 -3.1387 -0.4051
  728MOL0     H98245  -3.007   2.920   0.537 -1.3316 -1.3485 -0.5390
  728MOL0     H98246  -3.239   2.907   0.933  0.8098 -1.0209 -0.2730
  728MOL0     H98247  -3.137   3.042   0.889 -2.2661  0.8992  1.5011
  728MOL0     H98248  -3.421   3.000   0.844  1.9106 -1.3325  2.7429
  728MOL0     H98249  -3.335   3.150   0.859 -2.0045  0.9652 -1.6074
  728MOL0     H98250  -3.329   2.996   0.601  0.3100 -0.9414  1.8617
  728MOL0     H98251  -3.235   3.141   0.633  0.1142 -0.0595 -0.7190
  728MOL0     H98252  -3.550   3.117   0.621 -0.6017  1.4797 -2.3701
  728MOL0     H98253  -3.475   3.249   0.686 -0.2007 -0.0900 -0.2870
  728MOL0     H98254  -3.380   3.164   0.411  1.2221  1.9424  0.3580
  728MOL0     H98255  -3.385   3.314   0.466  1.7628 -1.9606  0.0879
  728MOL0     H98256  -3.653   3.155   0.419 -0.5917  0.2847 -0.2090
  728MOL0     H98257  -3.637   3.309   0.485 -1.6985 -0.4364 -0.3684
  728MOL0     H98258  -3.503   3.252   0.219  0.3474  0.3676  0.7849
  728MOL0     H98259  -3.532   3.407   0.298 -0.3807  0.1084  0.8381
  728MOL0     H98260  -3.686   3.364   0.105  0.3085  1.5364  0.1748
  728MOL0     H98261  -3.769   3.400   0.257  0.7842  1.5336 -1.8558
  728MOL0     H98262  -3.006   2.837   0.958  0.4882 -1.0746 -0.1599
  728MOL0     H98263  -2.757   2.816   0.956 -1.5803 -0.5366  0.4185
  728MOL0     H98264  -2.389   2.781   0.791 -1.4566  1.0864  3.4492
  728MOL0     H98265  -2.132   2.771   0.809  0.1156  1.6263  0.8198
  728MOL0     H98266  -0.275   3.065   0.709  0.4656 -1.4219 -0.7706
  728MOL0     H98267  -0.032   3.125   0.687 -2.0126 -3.5166 -4.5520
  728MOL0     H98268   0.377   2.975   0.747  1.1268 -0.9069 -0.0849
  728MOL0     H98269   0.621   2.995   0.685 -0.2680 -0.5391 -0.0929
  728MOL0     H98270   0.836   2.996   0.799 -1.3818  1.2212 -0.4026
  728MOL0     H98271   0.827   3.048   0.630 -0.9123  2.8574 -1.2188
  728MOL0     H98272   1.025   3.211   0.671  2.2742 -1.2040 -1.7349
  728MOL0     H98273   1.061   3.039   0.673  0.3889 -0.3227  1.6134
  728MOL0     H98274   1.148   3.060   0.868 -0.3510 -0.1059 -0.9751
  728MOL0     H98275   0.996   3.105   0.955  0.7701 -1.4911  0.5001
  728MOL0     H98276   1.054   3.344   0.876  2.1167  1.5645 -1.1406
  728MOL0     H98277   1.201   3.289   0.813 -1.7125  2.1979 -1.7285
  728MOL0     H98278   1.229   3.259   1.245 -2.5448  0.3569  0.1462
  728MOL0     H98279   0.636   3.379   0.884 -0.2842  0.8946 -2.6285
  728MOL0     H98280   0.414   3.350   0.963  0.0914  0.3576 -0.5815
  729MOL0     O98281  10.723   1.480   1.328  0.9689  0.6805 -0.0217
  729MOL0     C98282  10.674   1.478   1.215  0.3179  0.0349  0.0300
  729MOL0     O98283  10.739   1.518   1.102  0.1346  0.2134  0.1724
  729MOL0     C98284  10.854   1.585   1.122 -0.6761  0.4696  0.3118
  729MOL0     C98285  10.878   1.714   1.065  0.3996 -0.1734 -0.3187
  729MOL0     C98286  11.005   1.771   1.071  0.0241  0.8290  0.4708
  729MOL0     C98287  11.113   1.700   1.132 -0.3809 -0.3949 -0.5461
  729MOL0     O98288  11.227   1.770   1.129 -0.2783 -0.2136  0.2770
  729MOL0     C98289  11.357   1.702   1.156  0.0423 -0.5955 -0.0967
  729MOL0     C98290  11.416   1.641   1.027 -0.2868 -0.6055  0.1082
  729MOL0     C98291  11.565   1.651   1.021 -0.4803 -0.5670 -0.1486
  729MOL0     C98292  11.631   1.557   0.925 -0.1976 -0.3508  0.7065
  729MOL0     C98293  11.783   1.554   0.949  0.5016  0.6914  0.5476
  729MOL0     C98294  11.845   1.480   0.837  1.8690  0.0901  0.3238
  729MOL0     C98295  12.000   1.480   0.859 -0.2224  0.6705  0.5517
  729MOL0     C98296  12.067   1.602   0.784 -0.2395  0.0892 -0.0082
  729MOL0     N98297  12.071   1.610   0.636  0.1545  0.2035 -0.6471
  729MOL0     C98298  12.135   1.515   0.558  0.0063  0.3910 -0.1769
  729MOL0     C98299  12.139   1.556   0.432 -0.0201 -1.3219  0.1521
  729MOL0     C98300  12.201   1.482   0.318 -0.0018  0.4992 -0.2042
  729MOL0     C98301  12.356   1.467   0.317  0.2145 -0.5409  1.1002
  729MOL0     C98302  12.403   1.380   0.199 -0.1836 -0.3180 -0.0411
  729MOL0     C98303  12.437   1.448   0.069 -0.1479 -0.1519  0.5084
  729MOL0     O98304  12.501   1.360  -0.017  0.2389  0.8207 -0.3462
  729MOL0     C98305  12.574   1.421  -0.109 -0.1841 -0.3530 -0.3044
  729MOL0     C98306  12.688   1.351  -0.133 -0.4822 -0.5650  0.2692
  729MOL0     C98307  12.768   1.392  -0.246  0.9977  0.6791  0.0060
  729MOL0     C98308  12.889   1.302  -0.261  0.9622  0.2953  0.7648
  729MOL0     C98309  12.747   1.519  -0.302 -0.1619  0.0816  0.4514
  729MOL0     C98310  12.847   1.593  -0.381  0.7422  0.1947 -0.3798
  729MOL0     O98311  12.917   1.515  -0.468 -0.8160 -0.1323  0.0290
  729MOL0     C98312  13.040   1.566  -0.512  0.6623  0.3404 -1.0833
  729MOL0     C98313  13.149   1.488  -0.481  0.4317 -0.3902  0.0180
  729MOL0     C98314  13.268   1.507  -0.549  0.9464  0.0781  0.3504
  729MOL0     C98315  13.281   1.621  -0.630  0.2643 -0.6932  0.8472
  729MOL0     O98316  13.402   1.660  -0.678  0.4517  0.0808 -0.1993
  729MOL0     C98317  13.455   1.770  -0.614 -0.7042 -0.8943 -0.4988
  729MOL0     C98318  13.587   1.828  -0.681 -0.3656  0.8403 -0.1515
  729MOL0     C98319  13.701   1.722  -0.712  0.3477  0.1106  0.2015
  729MOL0     C98320  13.825   1.794  -0.734 -0.4619 -0.7238  0.6704
  729MOL0     C98321  13.951   1.700  -0.761 -0.4119 -0.3213 -0.6450
  729MOL0     C98322  14.087   1.775  -0.782 -0.1666 -0.5140  0.6983
  729MOL0     C98323  14.129   1.744  -0.930 -1.2804 -1.2927  0.3580
  729MOL0     C98324  14.269   1.805  -0.972  0.6920 -0.3921 -0.2073
  729MOL0    Cl98325  14.234   1.983  -0.981  0.0451  0.0008 -0.4415
  729MOL0     C98326  13.166   1.705  -0.645  0.1033  0.7384  1.0789
  729MOL0     C98327  13.048   1.674  -0.592 -0.5181 -0.4885  0.8154
  729MOL0     O98328  12.871   1.710  -0.348 -0.3063  1.1579 -0.2461
  729MOL0     C98329  12.631   1.597  -0.267 -0.1048  0.3076 -0.0504
  729MOL0     C98330  12.543   1.542  -0.169 -0.2544  0.1650  0.1218
  729MOL0     N98331  12.074   1.681   0.431 -0.1818  0.6924  0.7760
  729MOL0     N98332  12.042   1.713   0.553  0.5166  0.3980  0.1387
  729MOL0     C98333  11.091   1.577   1.190  0.4285  0.0689 -0.2531
  729MOL0     C98334  10.962   1.528   1.192  0.0928 -0.4736  0.7727
  729MOL0     C98335  10.535   1.425   1.205 -0.4915 -0.4743 -0.8559
  729MOL0     C98336  10.488   1.359   1.087 -0.4993 -0.2182 -0.4444
  729MOL0     C98337  10.357   1.313   1.081  0.5689  0.8420 -0.3380
  729MOL0     C98338  10.273   1.327   1.189  0.2274  0.9896  0.1641
  729MOL0     O98339  10.141   1.281   1.190 -0.3973 -0.1529  0.2661
  729MOL0     C98340  10.088   1.192   1.090 -0.2586 -0.2056  0.6458
  729MOL0     C98341  10.026   1.270   0.971 -1.3763  0.6426 -0.3404
  729MOL0     C98342  10.031   1.175   0.845 -0.8963 -0.3515 -0.4783
  729MOL0     C98343   9.971   1.231   0.726  0.5644  0.0194  0.5588
  729MOL0     C98344  10.027   1.169   0.600 -0.8168 -0.0949 -0.1862
  729MOL0     C98345  10.071   1.124   0.492 -1.4036 -0.4842  0.4676
  729MOL0     C98346  10.320   1.386   1.304 -0.7124 -0.1958 -0.6809
  729MOL0     C98347  10.446   1.438   1.315  0.2002 -0.6173  0.2263
  729MOL0     H98348  10.796   1.767   1.016 -0.6549  0.8732  2.4076
  729MOL0     H98349  11.028   1.865   1.021 -0.2185  1.5037  1.5989
  729MOL0     H98350  11.421   1.778   1.200 -1.8487 -0.0458  1.8628
  729MOL0     H98351  11.353   1.624   1.232  0.4211 -1.1659 -0.6419
  729MOL0     H98352  11.388   1.535   1.031  1.8809 -1.1880  1.9144
  729MOL0     H98353  11.370   1.684   0.938 -0.9161 -1.4714 -0.0076
  729MOL0     H98354  11.606   1.744   0.981  2.7749 -2.0535 -0.6077
  729MOL0     H98355  11.610   1.621   1.116  1.9312 -2.2617 -1.7007
  729MOL0     H98356  11.592   1.455   0.935 -3.2950  0.8113  1.8716
  729MOL0     H98357  11.607   1.581   0.821  1.5373  0.0716  0.3781
  729MOL0     H98358  11.829   1.653   0.956  1.4656  0.1865  1.8457
  729MOL0     H98359  11.813   1.509   1.044  0.8968  3.2364  1.7147
  729MOL0     H98360  11.812   1.376   0.833  3.4718 -0.4666  0.6423
  729MOL0     H98361  11.810   1.520   0.742 -2.1453  0.1344  1.6165
  729MOL0     H98362  12.015   1.472   0.967 -0.0222 -0.1598  0.4698
  729MOL0     H98363  12.029   1.388   0.807 -2.4641 -0.3068  0.9148
  729MOL0     H98364  12.173   1.611   0.810 -0.2166 -0.3583  0.0675
  729MOL0     H98365  12.016   1.693   0.816  1.0397  0.1523  2.0273
  729MOL0     H98366  12.159   1.415   0.596 -0.8523 -0.1702 -1.0685
  729MOL0     H98367  12.162   1.380   0.314  3.0753 -0.8104  0.2366
  729MOL0     H98368  12.177   1.545   0.232 -1.7632 -0.2199 -0.2908
  729MOL0     H98369  12.394   1.434   0.414  1.9874  3.1583  1.8427
  729MOL0     H98370  12.407   1.564   0.318  0.6586 -0.7209 -0.4712
  729MOL0     H98371  12.321   1.308   0.188 -4.3558  3.7792  0.8572
  729MOL0     H98372  12.494   1.332   0.234 -0.0812 -0.6369 -0.7226
  729MOL0     H98373  12.503   1.529   0.102 -1.6889 -0.4311  4.9011
  729MOL0     H98374  12.348   1.490   0.021 -0.8902 -2.3917 -0.1839
  729MOL0     H98375  12.724   1.267  -0.074  1.4013 -0.3154 -0.4611
  729MOL0     H98376  12.876   1.208  -0.207  0.2399 -0.5076 -0.7395
  729MOL0     H98377  12.893   1.261  -0.362 -2.5796  0.6371  0.3305
  729MOL0     H98378  12.985   1.350  -0.240 -0.7421  4.1932  0.4686
  729MOL0     H98379  13.144   1.407  -0.409 -2.6109 -0.3088  0.0096
  729MOL0     H98380  13.355   1.443  -0.540  1.2649  0.0453 -2.3136
  729MOL0     H98381  13.392   1.859  -0.602  1.2527  0.7160 -1.5432
  729MOL0     H98382  13.481   1.741  -0.512 -1.7916 -0.9017 -0.2105
  729MOL0     H98383  13.558   1.877  -0.774  0.2938  0.0579 -0.7897
  729MOL0     H98384  13.637   1.899  -0.615  0.6467  0.3028 -0.3232
  729MOL0     H98385  13.671   1.656  -0.793  0.3223 -1.4517  1.4336
  729MOL0     H98386  13.716   1.664  -0.620 -0.8277  0.6693  0.7626
  729MOL0     H98387  13.826   1.869  -0.814  4.3203 -0.3110  0.8199
  729MOL0     H98388  13.859   1.842  -0.643  1.2142 -0.9876  0.2104
  729MOL0     H98389  13.925   1.644  -0.852  0.9543 -0.7412 -0.8023
  729MOL0     H98390  13.952   1.628  -0.679  0.0019  0.8593  0.3984
  729MOL0     H98391  14.072   1.880  -0.758  2.1888 -0.4994  2.4714
  729MOL0     H98392  14.161   1.727  -0.717 -0.0962  0.0769  1.0592
  729MOL0     H98393  14.046   1.779  -0.991 -1.3249 -1.2599  0.4364
  729MOL0     H98394  14.131   1.636  -0.950  1.4923 -1.6568  1.9732
  729MOL0     H98395  14.289   1.771  -1.074 -1.3889  1.4987 -1.3541
  729MOL0     H98396  14.358   1.793  -0.910  3.0966  0.9484 -3.1491
  729MOL0     H98397  13.186   1.795  -0.703  0.9356 -0.1591 -0.0709
  729MOL0     H98398  12.963   1.736  -0.619 -1.0602 -1.5806 -0.0804
  729MOL0     H98399  12.606   1.692  -0.314  3.0156  0.0995 -2.4224
  729MOL0     H98400  12.453   1.594  -0.137 -0.4692 -1.2265  1.9170
  729MOL0     H98401  11.159   1.527   1.258  0.2373  0.1251 -0.0193
  729MOL0     H98402  10.947   1.430   1.237 -0.3044 -1.0116 -0.4858
  729MOL0     H98403  10.560   1.346   1.007  2.5812  1.6610  1.8022
  729MOL0     H98404  10.312   1.263   0.996  0.4628 -0.2214  0.3266
  729MOL0     H98405  10.159   1.123   1.044 -0.7604 -0.9631  0.9850
  729MOL0     H98406  10.015   1.131   1.144 -1.9175  2.1398  1.1812
  729MOL0     H98407  10.085   1.359   0.949 -3.0868  2.3120  1.3667
  729MOL0     H98408   9.927   1.311   0.995  0.1464  3.0300  2.6407
  729MOL0     H98409   9.984   1.079   0.870  4.0989 -3.3496 -1.0607
  729MOL0     H98410  10.136   1.171   0.812 -0.2843  1.6591  1.0027
  729MOL0     H98411   9.989   1.339   0.721  3.7590 -0.4557 -3.1753
  729MOL0     H98412   9.863   1.217   0.725  0.8075 -2.5693  2.5823
  729MOL0     H98413  10.097   1.077   0.399 -3.5340 -0.8025 -0.0213
  729MOL0     H98414  10.257   1.384   1.392 -0.2729  1.5770 -0.2871
  729MOL0     H98415  10.479   1.498   1.399  0.6195  1.0043 -1.0341
  730MOL0     O98416   1.409   7.165   4.995 -0.3681 -0.6929 -0.3951
  730MOL0     C98417   1.445   7.256   4.920  0.1445 -0.8725 -0.1245
  730MOL0     O98418   1.567   7.271   4.867 -0.0371  0.4129  0.2611
  730MOL0     C98419   1.654   7.167   4.886 -0.3838  0.1503 -0.7991
  730MOL0     C98420   1.629   7.038   4.848  0.8094 -0.8203  0.3678
  730MOL0     C98421   1.700   6.927   4.888  0.0426 -0.4244 -0.9161
  730MOL0     C98422   1.813   6.946   4.971  0.0906  0.4279 -0.5103
  730MOL0     O98423   1.894   6.846   5.027 -0.3203 -0.5273  0.1217
  730MOL0     C98424   1.854   6.709   5.002 -0.0111 -0.3385 -0.9161
  730MOL0     C98425   1.933   6.602   5.066  0.0821  0.3647 -0.2291
  730MOL0     C98426   1.897   6.461   5.020  0.2714 -0.0525  0.0633
  730MOL0     C98427   1.963   6.349   5.101 -0.2223 -0.1518 -0.2708
  730MOL0     C98428   1.895   6.215   5.076 -0.1129 -0.6742 -0.0016
  730MOL0     C98429   1.918   6.170   4.928 -0.6405 -0.2837 -0.8359
  730MOL0     C98430   1.877   6.026   4.898 -0.3892 -1.9314  0.9563
  730MOL0     C98431   1.727   6.001   4.912  0.5965  0.0629  0.6487
  730MOL0     N98432   1.649   5.979   4.790 -0.1357  0.2068 -0.1186
  730MOL0     C98433   1.637   6.056   4.681 -0.6044  0.1703  0.3868
  730MOL0     C98434   1.589   5.977   4.587  0.6411  0.8816 -0.0396
  730MOL0     C98435   1.558   6.024   4.450 -0.9711 -0.0437 -0.1904
  730MOL0     C98436   1.673   5.975   4.344 -0.5182 -0.7812 -0.1581
  730MOL0     C98437   1.809   6.040   4.357 -1.2383  0.7784 -0.3488
  730MOL0     C98438   1.822   6.174   4.297  0.0621  0.0486 -0.4235
  730MOL0     O98439   1.826   6.268   4.403  0.2096  0.2815  0.5230
  730MOL0     C98440   1.795   6.398   4.377 -0.1705 -0.3877 -0.8172
  730MOL0     C98441   1.796   6.462   4.254  1.2510 -0.0244  0.5078
  730MOL0     C98442   1.771   6.606   4.249  0.4444 -0.0789 -0.2894
  730MOL0     C98443   1.761   6.662   4.112 -0.7146  0.1406  0.4234
  730MOL0     C98444   1.733   6.681   4.360  0.1585  0.4466 -0.2323
  730MOL0     C98445   1.674   6.826   4.360 -0.9299  0.8058 -0.2224
  730MOL0     O98446   1.642   6.888   4.484 -0.6343 -0.2531  0.0153
  730MOL0     C98447   1.650   7.028   4.489  0.1250  0.0138  0.1375
  730MOL0     C98448   1.758   7.081   4.556 -0.0372 -0.1474 -0.0605
  730MOL0     C98449   1.776   7.221   4.560  0.6084  0.0074 -0.0792
  730MOL0     C98450   1.681   7.304   4.502  0.7555 -0.8449  0.9492
  730MOL0     O98451   1.686   7.444   4.483  0.0748 -0.1460 -0.1817
  730MOL0     C98452   1.762   7.524   4.579 -0.5481  1.4565  0.3358
  730MOL0     C98453   1.725   7.668   4.561 -0.1003 -0.6024  0.0979
  730MOL0     C98454   1.758   7.725   4.416  0.1568  0.0097 -0.2219
  730MOL0     C98455   1.714   7.872   4.407 -1.0498 -0.8635  0.0205
  730MOL0     C98456   1.766   7.919   4.272 -0.1621 -1.4891 -1.1641
  730MOL0     C98457   1.918   7.944   4.274 -0.3333 -0.5057 -0.3647
  730MOL0     C98458   1.964   8.074   4.205 -0.0633 -0.3684 -0.1576
  730MOL0     C98459   2.117   8.087   4.181 -0.5047  0.0975  0.1475
  730MOL0    Cl98460   2.201   8.100   4.336  0.1152  0.1168 -0.1865
  730MOL0     C98461   1.562   7.247   4.442  0.7433  0.1319  0.4270
  730MOL0     C98462   1.548   7.111   4.431  0.9801  0.6225 -0.2469
  730MOL0     O98463   1.661   6.885   4.254  0.2650  0.4390  0.1386
  730MOL0     C98464   1.728   6.606   4.479  0.7125 -0.1170 -0.3712
  730MOL0     C98465   1.752   6.469   4.483  0.7373 -0.2095 -0.0912
  730MOL0     N98466   1.568   5.848   4.639 -0.6513  0.1629 -0.3570
  730MOL0     N98467   1.605   5.858   4.755 -0.4269  0.8342 -0.1151
  730MOL0     C98468   1.849   7.078   5.005 -0.1029 -0.0001  0.5133
  730MOL0     C98469   1.775   7.191   4.958  0.4013 -0.8151  0.9865
  730MOL0     C98470   1.346   7.363   4.865  0.3640  0.4620 -0.3437
  730MOL0     C98471   1.378   7.455   4.768 -0.4065 -0.4946  0.1326
  730MOL0     C98472   1.294   7.550   4.721 -0.8084 -0.0858 -0.9120
  730MOL0     C98473   1.167   7.567   4.778  0.3917 -0.8432  0.0081
  730MOL0     O98474   1.090   7.665   4.728 -0.2887  0.0787  0.3276
  730MOL0     C98475   0.957   7.692   4.776 -0.8147  0.2245  0.2931
  730MOL0     C98476   0.964   7.758   4.904 -0.9319  0.4552  0.1634
  730MOL0     C98477   0.828   7.806   4.947 -0.2776  0.0029 -1.0528
  730MOL0     C98478   0.836   7.881   5.090  0.2834  0.0155 -0.2810
  730MOL0     C98479   0.710   7.954   5.111  0.4645  0.7498 -0.5421
  730MOL0     C98480   0.605   8.019   5.119  0.8119 -0.1404 -0.6559
  730MOL0     C98481   1.136   7.479   4.877 -0.2051 -0.7181 -0.0879
  730MOL0     C98482   1.216   7.379   4.921  0.1047 -0.1499  0.1796
  730MOL0     H98483   1.537   7.026   4.792 -0.5467  3.3116  1.3384
  730MOL0     H98484   1.673   6.832   4.843 -0.4947 -0.6721 -0.1041
  730MOL0     H98485   1.751   6.696   5.037 -0.1295  2.5888  0.1047
  730MOL0     H98486   1.862   6.685   4.896  2.2404 -0.8475 -0.6935
  730MOL0     H98487   2.036   6.636   5.050  0.0036  0.7069 -0.0289
  730MOL0     H98488   1.913   6.600   5.173  1.1107 -0.6601 -0.0445
  730MOL0     H98489   1.787   6.458   5.022  0.1686  1.9910  0.4438
  730MOL0     H98490   1.930   6.445   4.917 -2.0571  3.2188 -1.3713
  730MOL0     H98491   2.068   6.355   5.073  0.4415  2.0682  2.1865
  730MOL0     H98492   1.955   6.372   5.208  5.3777 -4.6200  1.6002
  730MOL0     H98493   1.917   6.139   5.152 -3.7246 -0.1785  1.7063
  730MOL0     H98494   1.788   6.236   5.079 -0.2890 -0.9518 -2.5072
  730MOL0     H98495   1.868   6.243   4.865  2.6646  3.3854  0.3276
  730MOL0     H98496   2.027   6.174   4.912 -0.3206 -0.1083  1.0899
  730MOL0     H98497   1.899   6.017   4.791  1.7942 -3.1051  1.4485
  730MOL0     H98498   1.943   5.960   4.955  0.9481  0.4128  2.2730
  730MOL0     H98499   1.672   6.081   4.963  0.7361  3.0580 -3.3850
  730MOL0     H98500   1.714   5.912   4.974 -0.3035  1.1493  2.0919
  730MOL0     H98501   1.668   6.159   4.668  2.6020 -0.7090  0.2082
  730MOL0     H98502   1.454   5.996   4.430 -1.8212  1.8240  1.2432
  730MOL0     H98503   1.560   6.133   4.457  2.4632 -0.0806  1.0730
  730MOL0     H98504   1.650   5.973   4.237 -0.9591  2.6265 -0.2493
  730MOL0     H98505   1.707   5.873   4.365  1.5886  0.4230  2.9279
  730MOL0     H98506   1.878   5.975   4.303  0.5295  0.6842  1.8854
  730MOL0     H98507   1.847   6.048   4.459  0.3467  0.8797 -0.9151
  730MOL0     H98508   1.742   6.194   4.225  1.0427  0.4027 -1.4416
  730MOL0     H98509   1.912   6.184   4.236 -0.4154 -2.4298 -1.6602
  730MOL0     H98510   1.813   6.403   4.165  0.3930 -0.2999  0.5099
  730MOL0     H98511   1.657   6.689   4.091 -0.9188 -1.6484 -1.0789
  730MOL0     H98512   1.839   6.738   4.112  1.8924 -2.3378  1.6209
  730MOL0     H98513   1.785   6.585   4.038 -1.1896  0.7250 -0.3436
  730MOL0     H98514   1.834   7.014   4.594 -1.9984 -1.4571  1.7552
  730MOL0     H98515   1.860   7.262   4.616 -1.6315  3.3570  1.1802
  730MOL0     H98516   1.743   7.490   4.681  2.2905 -0.6507  0.2747
  730MOL0     H98517   1.870   7.513   4.565  0.1948  0.7122  4.9875
  730MOL0     H98518   1.617   7.674   4.578 -0.2088 -1.3131 -0.3126
  730MOL0     H98519   1.767   7.733   4.638 -0.7356  1.3114 -1.0836
  730MOL0     H98520   1.705   7.659   4.346 -1.1451 -0.2948  1.0116
  730MOL0     H98521   1.866   7.721   4.401  0.5797 -0.5170  2.5296
  730MOL0     H98522   1.606   7.889   4.411 -0.9341 -0.1789  0.4855
  730MOL0     H98523   1.768   7.927   4.485  1.4654 -0.7727 -1.6647
  730MOL0     H98524   1.712   8.014   4.263  0.4403 -0.8895  0.8263
  730MOL0     H98525   1.737   7.849   4.194 -2.3181  0.1474 -1.9358
  730MOL0     H98526   1.959   7.946   4.376 -2.0851  0.5741  0.3611
  730MOL0     H98527   1.961   7.855   4.228 -1.4344 -1.9549  1.2570
  730MOL0     H98528   1.929   8.168   4.249 -1.7221 -0.4931 -1.1383
  730MOL0     H98529   1.915   8.083   4.107  2.3189  0.5830 -1.3585
  730MOL0     H98530   2.143   8.176   4.124 -0.3889 -0.0173  0.0183
  730MOL0     H98531   2.156   7.992   4.144 -1.4078 -0.6307  0.9869
  730MOL0     H98532   1.483   7.315   4.412 -0.1680 -1.5933 -1.3117
  730MOL0     H98533   1.464   7.070   4.375  1.7694 -0.2703 -0.8030
  730MOL0     H98534   1.678   6.649   4.565 -2.1166 -2.3337 -0.7848
  730MOL0     H98535   1.759   6.426   4.582 -0.2364  1.6462  0.8509
  730MOL0     H98536   1.936   7.079   5.070  0.0233 -1.0456  0.3902
  730MOL0     H98537   1.806   7.294   4.975  0.3589 -0.9434  1.9060
  730MOL0     H98538   1.471   7.451   4.712 -0.7805  1.5612 -0.7377
  730MOL0     H98539   1.326   7.614   4.639 -1.9940  3.5199  1.2034
  730MOL0     H98540   0.893   7.756   4.715  1.8646  2.7231 -0.1145
  730MOL0     H98541   0.903   7.597   4.777 -0.5410  0.0281 -1.0291
  730MOL0     H98542   1.036   7.837   4.879 -0.4150 -0.1123 -0.1773
  730MOL0     H98543   1.003   7.698   4.986 -1.1951  1.1185  0.7797
  730MOL0     H98544   0.747   7.734   4.943 -0.6234  0.3620 -0.6082
  730MOL0     H98545   0.795   7.881   4.874 -0.3730  1.0517  0.0344
  730MOL0     H98546   0.922   7.948   5.079 -0.0019  0.2416 -1.2728
  730MOL0     H98547   0.860   7.802   5.162 -1.5638 -1.0963 -0.8301
  730MOL0     H98548   0.518   8.082   5.115 -0.8212 -2.3703 -3.9737
  730MOL0     H98549   1.040   7.481   4.928  0.5728 -1.9829  1.5135
  730MOL0     H98550   1.182   7.305   4.993  0.0887  1.0253  1.4075
  731MOL0     O98551  10.868   1.796  11.391  0.2059 -0.6101  0.2490
  731MOL0     C98552  10.822   1.907  11.419  0.0261 -0.4267 -0.2190
  731MOL0     O98553  10.896   2.015  11.441 -0.1048 -0.2850 -0.0864
  731MOL0     C98554  11.025   2.012  11.379  0.0282  0.0637  0.1389
  731MOL0     C98555  11.128   2.068  11.453  0.0148 -0.3357 -0.0581
  731MOL0     C98556  11.266   2.063  11.406  0.1425 -0.1883 -0.1696
  731MOL0     C98557  11.293   2.002  11.281  0.2651 -0.5418 -0.2345
  731MOL0     O98558  11.420   1.984  11.222  0.0760 -0.4223  0.2335
  731MOL0     C98559  11.540   2.027  11.291  0.1543 -0.2548 -0.3005
  731MOL0     C98560  11.662   1.967  11.230 -0.9058  0.1702  0.1017
  731MOL0     C98561  11.796   2.042  11.260  0.8398 -0.3801  0.8033
  731MOL0     C98562  11.908   1.995  11.160  0.2762  0.9059 -0.7366
  731MOL0     C98563  12.029   2.088  11.159 -0.1060  0.5482  0.1700
  731MOL0     C98564  12.003   2.225  11.106  0.3983  1.0497  0.8196
  731MOL0     C98565  12.122   2.302  11.066 -1.2420 -0.5466 -0.2064
  731MOL0     C98566  12.259   2.311  11.149  0.1258  0.4685 -0.5510
  731MOL0     N98567  12.323   2.439  11.135 -0.7747  0.8271 -0.0309
  731MOL0     C98568  12.437   2.463  11.062 -0.2551  0.0636 -0.3064
  731MOL0     C98569  12.434   2.599  11.042 -1.0589  0.1290  0.1805
  731MOL0     C98570  12.541   2.662  10.960  0.0516  0.1831  0.3606
  731MOL0     C98571  12.618   2.774  11.026  0.3501 -0.6881 -0.0009
  731MOL0     C98572  12.714   2.850  10.933  0.4952  0.1317 -0.5260
  731MOL0     C98573  12.838   2.896  11.012  0.3122 -0.1667  1.1854
  731MOL0     O98574  12.935   2.953  10.915 -0.0632 -0.4867 -0.1144
  731MOL0     C98575  12.913   3.083  10.879  0.1504 -0.5793 -0.0430
  731MOL0     C98576  12.883   3.187  10.974 -0.0280  0.0670 -0.4553
  731MOL0     C98577  12.861   3.318  10.923  0.3025 -0.0569 -0.2966
  731MOL0     C98578  12.853   3.438  11.020 -0.3746 -0.0731 -0.2488
  731MOL0     C98579  12.851   3.334  10.783  0.1348  0.4498  0.4415
  731MOL0     C98580  12.834   3.465  10.715  0.3139 -0.0538  0.3919
  731MOL0     O98581  12.916   3.488  10.613  0.4805 -0.0701  0.0571
  731MOL0     C98582  12.975   3.609  10.576 -1.2102  1.0528  0.1627
  731MOL0     C98583  13.041   3.620  10.451 -0.7160  0.0363 -0.2020
  731MOL0     C98584  13.116   3.741  10.421  0.5991  0.4996  0.9212
  731MOL0     C98585  13.136   3.842  10.514 -0.6960 -0.1978  0.0945
  731MOL0     O98586  13.220   3.946  10.477  0.1525 -0.8344  0.0712
  731MOL0     C98587  13.220   4.067  10.556  0.0757 -0.1949 -0.2452
  731MOL0     C98588  13.303   4.184  10.482 -0.0896 -0.1002 -0.6348
  731MOL0     C98589  13.345   4.291  10.578  0.8098 -0.5073  0.5879
  731MOL0     C98590  13.404   4.420  10.515  0.8415 -0.3401 -0.2480
  731MOL0     C98591  13.402   4.535  10.613  0.0583  0.8748  0.0902
  731MOL0     C98592  13.485   4.653  10.551 -0.0333 -0.9281 -0.6209
  731MOL0     C98593  13.507   4.759  10.647 -0.4473 -0.3127 -1.1019
  731MOL0     C98594  13.590   4.878  10.590 -0.6634 -0.3172  0.2298
  731MOL0    Cl98595  13.511   4.957  10.453 -0.4209 -0.0047 -0.2798
  731MOL0     C98596  13.069   3.828  10.643  1.2235 -0.6806  0.2930
  731MOL0     C98597  12.998   3.706  10.669  0.2285 -0.5935 -0.4818
  731MOL0     O98598  12.742   3.538  10.744  0.0619 -0.3417 -0.1692
  731MOL0     C98599  12.866   3.225  10.695  0.9316 -0.9277  0.0703
  731MOL0     C98600  12.890   3.104  10.747 -0.9444 -1.0814 -0.0391
  731MOL0     N98601  12.356   2.651  11.140 -0.6839  0.2978  0.7573
  731MOL0     N98602  12.276   2.550  11.188 -0.6804 -0.5542  0.5177
  731MOL0     C98603  11.186   1.949  11.211  0.4658 -1.1813 -0.8383
  731MOL0     C98604  11.051   1.953  11.253  0.0094 -0.4001 -0.1388
  731MOL0     C98605  10.679   1.916  11.436 -0.6210  0.2549 -0.0202
  731MOL0     C98606  10.600   1.808  11.416  0.6886  0.1523  0.1249
  731MOL0     C98607  10.457   1.818  11.429 -0.2270 -0.8610  0.1990
  731MOL0     C98608  10.392   1.942  11.463  0.6617  0.7244  0.1162
  731MOL0     O98609  10.257   1.960  11.464 -0.3443  0.2397 -0.1380
  731MOL0     C98610  10.183   1.882  11.555 -0.7124  0.3465 -0.7713
  731MOL0     C98611  10.035   1.893  11.542  0.2283 -0.5000  0.0374
  731MOL0     C98612   9.986   1.811  11.425  0.3934  0.2535 -0.0232
  731MOL0     C98613  10.021   1.664  11.413 -0.5247 -0.0454  0.9594
  731MOL0     C98614   9.994   1.583  11.533  0.0343  0.7526 -0.1431
  731MOL0     C98615  10.012   1.515  11.637  0.3300  1.1811  0.2746
  731MOL0     C98616  10.473   2.052  11.477 -0.3109 -0.2257  0.2472
  731MOL0     C98617  10.612   2.035  11.458 -0.7986 -0.2615  0.2602
  731MOL0     H98618  11.107   2.104  11.553  2.0479  0.5554  0.1058
  731MOL0     H98619  11.337   2.114  11.470 -1.8647  1.9968  0.4494
  731MOL0     H98620  11.544   2.136  11.303 -0.1853 -0.4299  2.0270
  731MOL0     H98621  11.538   1.992  11.395 -1.3865  1.0315  0.1499
  731MOL0     H98622  11.675   1.862  11.259 -3.4784 -0.1438  0.3676
  731MOL0     H98623  11.643   1.964  11.122 -0.9985 -2.5588  0.1287
  731MOL0     H98624  11.775   2.147  11.234  1.6040 -0.2632  0.6162
  731MOL0     H98625  11.833   2.032  11.362  4.7991  1.5025 -0.2373
  731MOL0     H98626  11.934   1.892  11.183 -0.0376  1.2800  1.4764
  731MOL0     H98627  11.882   2.010  11.055 -0.5736  0.8218 -0.5471
  731MOL0     H98628  12.065   2.114  11.259  0.1926  5.1492 -0.9139
  731MOL0     H98629  12.100   2.037  11.093 -0.3323  0.1538  0.2219
  731MOL0     H98630  11.934   2.217  11.022  1.9439  0.7912 -0.4746
  731MOL0     H98631  11.956   2.281  11.187  0.4164 -0.7087  2.1087
  731MOL0     H98632  12.138   2.276  10.961  2.8736  0.6691 -0.0788
  731MOL0     H98633  12.076   2.401  11.073 -0.0017 -0.0218  4.3501
  731MOL0     H98634  12.315   2.230  11.102 -2.1427 -0.3843 -1.9362
  731MOL0     H98635  12.251   2.282  11.254  0.2058 -1.7373 -1.1139
  731MOL0     H98636  12.499   2.384  11.020 -1.4593 -0.8996 -0.3467
  731MOL0     H98637  12.613   2.584  10.934 -0.5643 -0.1159 -0.4801
  731MOL0     H98638  12.497   2.696  10.866 -1.7385  1.8308  1.7031
  731MOL0     H98639  12.679   2.746  11.113  2.0102 -1.0087 -1.2265
  731MOL0     H98640  12.530   2.833  11.054  0.3697 -0.4802 -0.3672
  731MOL0     H98641  12.666   2.935  10.883 -0.8709  0.5361  1.3539
  731MOL0     H98642  12.743   2.785  10.851 -1.7157  0.0307 -1.2987
  731MOL0     H98643  12.900   2.827  11.069  1.6723  0.5795  0.6770
  731MOL0     H98644  12.795   2.966  11.084 -4.5428 -0.2043 -1.2994
  731MOL0     H98645  12.891   3.165  11.080  1.3075  1.6611 -0.1770
  731MOL0     H98646  12.931   3.514  11.009 -1.7675  1.8713  2.2235
  731MOL0     H98647  12.760   3.494  11.013  0.0957  1.4060  3.2756
  731MOL0     H98648  12.877   3.402  11.121  0.5648 -1.3397 -0.8963
  731MOL0     H98649  13.045   3.537  10.382  0.9755 -1.5284  1.6170
  731MOL0     H98650  13.155   3.753  10.321 -0.8652  0.5268  0.3286
  731MOL0     H98651  13.127   4.103  10.601  0.7466 -0.3836  1.3529
  731MOL0     H98652  13.270   4.035  10.648 -0.9737 -0.4467  0.2553
  731MOL0     H98653  13.387   4.139  10.429 -1.4780 -1.4541 -1.7793
  731MOL0     H98654  13.238   4.222  10.404 -0.7135 -0.6533 -0.3968
  731MOL0     H98655  13.419   4.255  10.649  0.1108  0.0352  1.6209
  731MOL0     H98656  13.256   4.321  10.634 -2.2277 -0.6703 -3.6405
  731MOL0     H98657  13.504   4.400  10.475  1.2222  1.6883 -0.4029
  731MOL0     H98658  13.344   4.449  10.429  0.4247 -3.3598 -1.0966
  731MOL0     H98659  13.450   4.498  10.704  2.2960 -0.9647 -1.7350
  731MOL0     H98660  13.301   4.572  10.634 -0.0012  1.3150 -0.9058
  731MOL0     H98661  13.577   4.625  10.498  0.2391  1.6430 -1.6234
  731MOL0     H98662  13.425   4.700  10.473 -1.3974 -0.1424  0.8434
  731MOL0     H98663  13.568   4.712  10.725 -1.9781 -2.6971 -1.2333
  731MOL0     H98664  13.411   4.792  10.687  0.7603  0.9628  0.9042
  731MOL0     H98665  13.685   4.836  10.556  0.2075 -0.4597  2.6577
  731MOL0     H98666  13.607   4.953  10.668 -0.6324 -0.6206  0.5177
  731MOL0     H98667  13.084   3.896  10.726 -2.2595 -1.9583  2.2114
  731MOL0     H98668  12.954   3.696  10.767 -0.9876 -1.7175 -1.1077
  731MOL0     H98669  12.858   3.247  10.589  1.0136 -1.3503 -0.0284
  731MOL0     H98670  12.905   3.014  10.688 -1.0502 -0.5540 -0.8926
  731MOL0     H98671  11.211   1.896  11.119  1.7981 -1.1559 -0.5076
  731MOL0     H98672  10.969   1.920  11.190  0.8207 -1.9733 -0.4481
  731MOL0     H98673  10.631   1.707  11.391 -1.7856 -1.0233  1.3840
  731MOL0     H98674  10.402   1.724  11.427 -2.5002  0.3755  1.1212
  731MOL0     H98675  10.204   1.775  11.550  0.7412  0.2785  3.1645
  731MOL0     H98676  10.213   1.910  11.656  1.2349 -0.4778 -1.0576
  731MOL0     H98677  10.010   1.999  11.528 -0.9855 -0.2608  3.0514
  731MOL0     H98678   9.988   1.845  11.629 -0.4892  1.4651  0.8138
  731MOL0     H98679  10.024   1.851  11.331 -0.7878  1.1756 -0.1278
  731MOL0     H98680   9.877   1.804  11.417  0.2089 -2.5017  2.9273
  731MOL0     H98681  10.127   1.678  11.388 -0.2333 -1.0368  1.5771
  731MOL0     H98682   9.966   1.617  11.331 -3.7837  3.2632  1.0080
  731MOL0     H98683  10.045   1.460  11.723 -0.8936 -1.0573 -0.5869
  731MOL0     H98684  10.427   2.147  11.504 -1.3008 -0.0760 -1.7894
  731MOL0     H98685  10.670   2.123  11.483 -1.8551 -0.2236  2.8936
  732MOL0     O98686   7.807   4.918   9.513 -0.0128 -0.2480  0.3775
  732MOL0     C98687   7.816   4.806   9.476  0.3320 -0.2140 -0.3671
  732MOL0     O98688   7.767   4.757   9.356 -0.1025 -0.7871  0.2338
  732MOL0     C98689   7.691   4.832   9.272  0.9521 -0.8042 -0.5166
  732MOL0     C98690   7.575   4.772   9.233  0.1438 -0.0992 -1.0661
  732MOL0     C98691   7.482   4.840   9.156 -0.6100 -0.9835 -0.0654
  732MOL0     C98692   7.497   4.971   9.120 -0.5058  0.5434  0.0728
  732MOL0     O98693   7.413   5.038   9.035  0.3263  0.3789  0.2776
  732MOL0     C98694   7.315   4.967   8.952  0.3550 -0.3899  0.2025
  732MOL0     C98695   7.260   5.066   8.844 -0.7535 -0.0748  0.4399
  732MOL0     C98696   7.139   5.156   8.882 -0.2274 -0.0605  0.9015
  732MOL0     C98697   7.013   5.069   8.883 -0.1424  0.0771  0.4702
  732MOL0     C98698   6.893   5.143   8.940 -0.1194 -0.5724  0.1709
  732MOL0     C98699   6.866   5.276   8.868  0.3202  1.0409 -0.2092
  732MOL0     C98700   6.757   5.351   8.952 -0.0359 -0.1126 -0.0152
  732MOL0     C98701   6.730   5.484   8.895 -0.9089 -0.2981 -0.4533
  732MOL0     N98702   6.636   5.569   8.972  0.6485  0.8256 -0.3326
  732MOL0     C98703   6.652   5.621   9.097  0.0675  1.0544  0.1779
  732MOL0     C98704   6.540   5.647   9.151  0.1738  0.5867 -0.4385
  732MOL0     C98705   6.488   5.701   9.282 -0.5495  0.3204  0.4579
  732MOL0     C98706   6.511   5.592   9.388  0.2896 -0.9617 -0.3792
  732MOL0     C98707   6.486   5.643   9.529  0.7085 -0.0411 -0.3383
  732MOL0     C98708   6.342   5.611   9.578 -0.4438 -0.4365  0.2032
  732MOL0     O98709   6.316   5.473   9.616 -0.2324 -0.0108 -0.7579
  732MOL0     C98710   6.196   5.441   9.669 -0.7221 -0.6916  0.3222
  732MOL0     C98711   6.085   5.531   9.679  0.3613  0.7285  0.0470
  732MOL0     C98712   5.956   5.496   9.715 -0.4363 -1.1114  0.3646
  732MOL0     C98713   5.850   5.614   9.725  0.2727 -0.0328  0.0624
  732MOL0     C98714   5.933   5.361   9.742  0.4215 -0.3618 -1.0566
  732MOL0     C98715   5.800   5.326   9.787  1.0589 -0.1942  0.1940
  732MOL0     O98716   5.697   5.368   9.712 -0.4842  0.6001  0.1385
  732MOL0     C98717   5.577   5.374   9.767  0.7847  0.0826  0.8514
  732MOL0     C98718   5.483   5.283   9.725  0.0919  0.4654  0.2724
  732MOL0     C98719   5.361   5.293   9.783 -0.7253  1.3989 -0.4394
  732MOL0     C98720   5.327   5.375   9.893  1.0446  0.1214 -0.3987
  732MOL0     O98721   5.193   5.398   9.920  0.0139  0.7227  0.3318
  732MOL0     C98722   5.140   5.515   9.856  0.5321 -0.4092 -0.0485
  732MOL0     C98723   5.053   5.466   9.746  0.1598  0.3219 -1.2157
  732MOL0     C98724   4.972   5.574   9.673  0.6699 -0.1265  0.2315
  732MOL0     C98725   5.055   5.669   9.590 -1.0030  0.9886  0.0332
  732MOL0     C98726   4.958   5.776   9.532  0.1931  0.2993 -0.0140
  732MOL0     C98727   4.890   5.737   9.402  0.8371 -0.4461 -0.4609
  732MOL0     C98728   4.988   5.724   9.294  0.0796 -0.2078 -0.1251
  732MOL0     C98729   4.958   5.653   9.159 -0.0597  0.3186  0.0875
  732MOL0    Cl98730   4.804   5.710   9.079 -0.3105 -0.2165 -0.3446
  732MOL0     C98731   5.424   5.471   9.929  0.1004  0.9152  0.2520
  732MOL0     C98732   5.545   5.466   9.871  1.2110  0.6030 -0.2022
  732MOL0     O98733   5.787   5.266   9.896 -0.6938 -0.3597  0.4154
  732MOL0     C98734   6.038   5.269   9.728  0.8785 -0.7708  0.0343
  732MOL0     C98735   6.161   5.309   9.681  0.3568 -0.1425  0.1006
  732MOL0     N98736   6.450   5.628   9.047  0.6803 -0.6243 -0.0643
  732MOL0     N98737   6.509   5.569   8.953  0.1557  0.2719 -0.1691
  732MOL0     C98738   7.615   5.035   9.156 -0.4786 -0.3340  0.6585
  732MOL0     C98739   7.719   4.972   9.221  0.4191  0.1851  0.2819
  732MOL0     C98740   7.906   4.719   9.553 -0.7745 -0.2562  0.5897
  732MOL0     C98741   7.978   4.760   9.671  0.1112  0.2964  0.3926
  732MOL0     C98742   8.072   4.671   9.725  0.0555 -0.8437  0.3885
  732MOL0     C98743   8.110   4.545   9.672  0.4396 -0.3828 -0.6755
  732MOL0     O98744   8.210   4.480   9.738 -0.3641 -1.3012 -0.4458
  732MOL0     C98745   8.272   4.361   9.676  0.1205 -0.0989  0.0857
  732MOL0     C98746   8.337   4.269   9.782  1.1667  0.3412  0.4384
  732MOL0     C98747   8.421   4.162   9.713 -0.0134  0.4127  0.2607
  732MOL0     C98748   8.534   4.096   9.804  0.2641 -0.1910 -0.2375
  732MOL0     C98749   8.456   3.990   9.866  0.1743  0.0119 -0.1028
  732MOL0     C98750   8.375   3.918   9.916 -0.7128 -0.0568  0.2656
  732MOL0     C98751   8.031   4.497   9.569  0.2148 -1.1204  0.4897
  732MOL0     C98752   7.932   4.587   9.509  0.1981  0.0797 -0.2516
  732MOL0     H98753   7.553   4.666   9.238  3.3939 -0.8767 -1.0483
  732MOL0     H98754   7.391   4.795   9.118 -0.9394  0.4618 -1.0913
  732MOL0     H98755   7.352   4.879   8.900  1.9450  0.4011 -0.0788
  732MOL0     H98756   7.236   4.937   9.022  0.1594 -2.0924 -0.7065
  732MOL0     H98757   7.339   5.142   8.835 -0.5986 -0.3952 -1.1814
  732MOL0     H98758   7.240   5.019   8.747 -4.0976  2.8780 -0.4977
  732MOL0     H98759   7.141   5.205   8.979 -3.8964 -3.4100  2.9161
  732MOL0     H98760   7.133   5.241   8.813 -3.4370 -0.9910 -0.1118
  732MOL0     H98761   6.987   5.046   8.779 -1.0823  3.9255 -0.2975
  732MOL0     H98762   7.032   4.988   8.954  3.0334 -0.0738 -0.3853
  732MOL0     H98763   6.816   5.066   8.931  1.5102 -2.1255 -1.4294
  732MOL0     H98764   6.908   5.159   9.047 -0.7237  3.9058 -0.2288
  732MOL0     H98765   6.949   5.347   8.867  3.1193 -2.0066 -0.9518
  732MOL0     H98766   6.818   5.266   8.770 -1.2028  3.5178  0.1792
  732MOL0     H98767   6.659   5.303   8.950 -0.4523  0.7111 -2.2828
  732MOL0     H98768   6.786   5.358   9.057 -0.9955  1.0968  0.1934
  732MOL0     H98769   6.694   5.478   8.791 -2.0482 -4.3335  0.0222
  732MOL0     H98770   6.828   5.531   8.891 -0.5154 -1.1063 -0.3810
  732MOL0     H98771   6.754   5.625   9.134  1.6221 -0.0995 -3.5556
  732MOL0     H98772   6.538   5.797   9.297 -1.6660  0.8616  0.8040
  732MOL0     H98773   6.383   5.729   9.269 -0.7616 -1.0446 -1.0538
  732MOL0     H98774   6.615   5.560   9.399 -0.0426 -1.1489  4.7743
  732MOL0     H98775   6.452   5.504   9.363  1.0813 -1.1890 -1.5703
  732MOL0     H98776   6.496   5.751   9.546 -4.0617  0.9038 -1.8727
  732MOL0     H98777   6.551   5.582   9.591 -0.0755  0.2422  0.8052
  732MOL0     H98778   6.266   5.629   9.501 -0.4480 -2.9264 -0.4483
  732MOL0     H98779   6.322   5.681   9.660  0.3739 -0.6418  0.5879
  732MOL0     H98780   6.100   5.637   9.658  4.0495 -0.0404 -1.9828
  732MOL0     H98781   5.799   5.618   9.822 -0.3928 -0.9662 -0.2353
  732MOL0     H98782   5.899   5.712   9.718  0.5553 -0.0687  1.2644
  732MOL0     H98783   5.780   5.600   9.642 -0.1270 -2.8681  0.7891
  732MOL0     H98784   5.514   5.228   9.636 -0.8589 -0.5448  0.5353
  732MOL0     H98785   5.284   5.237   9.731 -1.4669 -0.3414  2.3483
  732MOL0     H98786   5.071   5.566   9.924 -0.4508 -3.5170  1.4620
  732MOL0     H98787   5.219   5.581   9.818  0.0599  0.9711  1.2819
  732MOL0     H98788   5.110   5.406   9.674 -0.2439 -0.4692 -0.8944
  732MOL0     H98789   4.989   5.391   9.793  0.2281 -0.3098 -2.0844
  732MOL0     H98790   4.931   5.631   9.757  2.0268  0.3893  0.5750
  732MOL0     H98791   4.888   5.523   9.626  0.3692 -1.0506  1.7149
  732MOL0     H98792   5.137   5.717   9.645  0.5288  1.8077 -2.7446
  732MOL0     H98793   5.096   5.607   9.509  0.7804  1.8157  0.2465
  732MOL0     H98794   5.011   5.866   9.503 -3.0727  2.0220 -1.2148
  732MOL0     H98795   4.883   5.814   9.602 -0.2414  1.4922 -1.1032
  732MOL0     H98796   4.844   5.638   9.411  1.0467 -0.7236 -2.2223
  732MOL0     H98797   4.808   5.805   9.379  0.2636 -1.2074 -0.6973
  732MOL0     H98798   5.088   5.692   9.322 -0.5804 -2.3188 -0.0236
  732MOL0     H98799   5.001   5.822   9.248 -1.1571 -0.1172 -0.3311
  732MOL0     H98800   4.947   5.546   9.178 -0.7064  0.4852  0.7287
  732MOL0     H98801   5.046   5.659   9.095  0.8445  1.3175  1.3746
  732MOL0     H98802   5.395   5.541  10.007 -0.4030  0.6988  0.2614
  732MOL0     H98803   5.622   5.534   9.908  3.0446 -3.4402  4.6274
  732MOL0     H98804   6.025   5.163   9.745 -0.1616 -0.5828  0.4917
  732MOL0     H98805   6.239   5.234   9.676  0.8444  0.0766  2.7843
  732MOL0     H98806   7.629   5.140   9.130 -1.7087 -0.7856 -2.0949
  732MOL0     H98807   7.810   5.026   9.243 -0.0246  0.4506  1.5340
  732MOL0     H98808   7.959   4.856   9.719  0.7946 -0.8542  3.1502
  732MOL0     H98809   8.127   4.698   9.814 -0.0378  1.7912 -0.2754
  732MOL0     H98810   8.198   4.311   9.612  0.1275  0.4087 -0.3237
  732MOL0     H98811   8.349   4.391   9.606 -1.4659  0.5629 -1.4517
  732MOL0     H98812   8.262   4.221   9.845 -1.1703  1.2397 -1.4787
  732MOL0     H98813   8.402   4.323   9.852  1.7387 -1.2883  1.2167
  732MOL0     H98814   8.467   4.209   9.625  2.1730 -1.0462  0.5430
  732MOL0     H98815   8.355   4.088   9.667  0.0768  0.2246  0.4344
  732MOL0     H98816   8.566   4.168   9.880 -1.3941  0.5998 -0.2484
  732MOL0     H98817   8.612   4.049   9.744  0.9228 -1.9423  1.8678
  732MOL0     H98818   8.311   3.852   9.970  1.7251 -2.1403  0.7760
  732MOL0     H98819   8.040   4.403   9.514 -1.1900 -0.8653 -0.2416
  732MOL0     H98820   7.877   4.535   9.431  0.5893 -3.0259  1.3626
  733MOL0     O98821   9.271   8.077   7.192 -0.2627  0.8193 -0.3197
  733MOL0     C98822   9.340   8.161   7.134  0.0060  0.7859 -0.1449
  733MOL0     O98823   9.311   8.291   7.116  0.4847 -0.1346 -0.2116
  733MOL0     C98824   9.181   8.329   7.128 -0.0741  0.0646 -0.3778
  733MOL0     C98825   9.157   8.411   7.234  0.4938 -1.5586 -0.0029
  733MOL0     C98826   9.029   8.486   7.240  0.1517 -0.6482  1.0999
  733MOL0     C98827   8.937   8.477   7.136 -0.1437  0.0319 -0.5790
  733MOL0     O98828   8.811   8.524   7.152 -0.5467 -0.4344  0.2553
  733MOL0     C98829   8.722   8.526   7.036 -0.6744  0.9997 -0.8444
  733MOL0     C98830   8.585   8.572   7.074 -0.1724 -0.2043  0.4720
  733MOL0     C98831   8.473   8.576   6.961  0.0684  0.7247 -0.5542
  733MOL0     C98832   8.372   8.685   6.986  0.4412  0.7702  0.2594
  733MOL0     C98833   8.251   8.675   6.898 -1.7534  0.7748 -1.2012
  733MOL0     C98834   8.142   8.770   6.942  0.0433 -0.0640  0.8262
  733MOL0     C98835   8.004   8.709   6.903  0.3412  0.9831  0.6417
  733MOL0     C98836   8.002   8.680   6.753  0.9434  0.3402  0.1078
  733MOL0     N98837   7.858   8.650   6.716 -0.3550  0.2564 -0.1883
  733MOL0     C98838   7.749   8.734   6.739 -0.3572  0.6721  0.3028
  733MOL0     C98839   7.639   8.663   6.690  0.3232 -0.3118 -0.3920
  733MOL0     C98840   7.492   8.718   6.675  0.7454  0.1474 -0.2048
  733MOL0     C98841   7.396   8.598   6.707 -0.7549 -0.9578  0.1389
  733MOL0     C98842   7.358   8.523   6.580  0.4096 -0.4899 -0.2955
  733MOL0     C98843   7.227   8.436   6.607  0.1519  0.9286 -0.4592
  733MOL0     O98844   7.219   8.345   6.491 -0.3019 -0.4976  0.5654
  733MOL0     C98845   7.151   8.230   6.511  0.2809 -0.0638 -0.5678
  733MOL0     C98846   7.078   8.186   6.622 -0.2436  0.2664 -0.4485
  733MOL0     C98847   7.020   8.057   6.614  0.4638 -0.2459  0.8235
  733MOL0     C98848   6.963   8.011   6.739  0.8096  0.6422 -0.7871
  733MOL0     C98849   7.006   7.992   6.490 -0.0795  0.2988  0.1968
  733MOL0     C98850   6.906   7.887   6.459 -0.0810  0.2768  0.4369
  733MOL0     O98851   6.931   7.820   6.338 -0.3797 -0.9618 -0.3846
  733MOL0     C98852   6.833   7.727   6.314 -0.5390  0.2363 -0.0238
  733MOL0     C98853   6.720   7.762   6.244 -0.4901  0.0005  0.0890
  733MOL0     C98854   6.598   7.682   6.240 -0.5128 -0.1318  0.1993
  733MOL0     C98855   6.596   7.561   6.305 -0.1575  0.6158 -0.0573
  733MOL0     O98856   6.482   7.486   6.314  0.2777 -0.1987  0.4214
  733MOL0     C98857   6.461   7.412   6.187  0.9208 -0.3998  0.2234
  733MOL0     C98858   6.316   7.420   6.146 -0.8471 -0.3837  0.4283
  733MOL0     C98859   6.213   7.334   6.232 -1.1387 -0.0923  0.6471
  733MOL0     C98860   6.071   7.368   6.194  0.0749 -0.2696  0.5149
  733MOL0     C98861   6.025   7.494   6.272 -0.5601 -0.5785  0.0029
  733MOL0     C98862   5.890   7.547   6.215 -0.0111  0.0901  1.4638
  733MOL0     C98863   5.823   7.662   6.289  0.0375 -0.5532  0.3177
  733MOL0     C98864   5.899   7.789   6.300 -0.9597  0.2418 -0.5561
  733MOL0    Cl98865   5.964   7.838   6.142  0.0779  0.0389 -0.3633
  733MOL0     C98866   6.719   7.520   6.359  1.0210 -0.6972  0.8144
  733MOL0     C98867   6.833   7.599   6.365 -0.1551  0.5165 -0.3149
  733MOL0     O98868   6.808   7.882   6.534  0.4783 -0.4921 -0.3318
  733MOL0     C98869   7.095   8.037   6.391 -0.6108 -0.8758  1.5208
  733MOL0     C98870   7.174   8.147   6.404  1.0643  0.3136  0.3442
  733MOL0     N98871   7.684   8.533   6.668  0.2380 -0.1659  0.0744
  733MOL0     N98872   7.805   8.527   6.683 -0.2954 -0.2107  0.2873
  733MOL0     C98873   8.972   8.396   7.026  0.4873 -0.1839  0.0087
  733MOL0     C98874   9.092   8.324   7.022 -0.1472  0.0009  0.9013
  733MOL0     C98875   9.459   8.101   7.069 -0.6504  0.2771  0.1670
  733MOL0     C98876   9.483   7.964   7.080  0.4301 -0.6467 -0.6611
  733MOL0     C98877   9.606   7.910   7.040 -0.2715  0.4214 -0.1801
  733MOL0     C98878   9.705   7.994   6.984 -0.0765 -0.0437  0.5641
  733MOL0     O98879   9.824   7.933   6.949  0.5507  0.0806 -0.0789
  733MOL0     C98880   9.923   8.015   6.883  0.3439  0.2937  0.1643
  733MOL0     C98881  10.041   7.919   6.845  0.0129 -0.0994 -0.8573
  733MOL0     C98882  10.126   7.996   6.743  0.5075  0.4130  0.6125
  733MOL0     C98883  10.242   7.914   6.700 -1.1390  0.0146  0.0552
  733MOL0     C98884  10.333   7.867   6.803  0.2677 -0.5969 -0.6688
  733MOL0     C98885  10.393   7.831   6.902  0.5076  0.7775 -0.0997
  733MOL0     C98886   9.687   8.130   6.982  0.1551 -0.1619 -0.4468
  733MOL0     C98887   9.562   8.189   7.024  0.4430  1.0738 -0.9029
  733MOL0     H98888   9.222   8.423   7.319  0.2825 -0.2069 -0.0031
  733MOL0     H98889   8.994   8.549   7.321 -1.4845  1.4654 -1.0893
  733MOL0     H98890   8.761   8.600   6.965  1.0913  1.1182  0.1971
  733MOL0     H98891   8.708   8.426   6.992 -2.7260  1.9979 -2.7163
  733MOL0     H98892   8.546   8.508   7.154 -0.1817 -1.9959 -0.9100
  733MOL0     H98893   8.603   8.675   7.106  1.8951 -0.3580 -0.0833
  733MOL0     H98894   8.518   8.601   6.865 -1.1617 -0.7914 -1.5717
  733MOL0     H98895   8.430   8.477   6.943  1.1635  0.5333 -2.3578
  733MOL0     H98896   8.351   8.686   7.093 -0.5423 -2.2451  0.1756
  733MOL0     H98897   8.419   8.782   6.966 -1.3552  1.9509  1.5063
  733MOL0     H98898   8.272   8.672   6.791 -1.5096 -1.9383 -1.1246
  733MOL0     H98899   8.220   8.572   6.913 -0.6135  0.0581 -3.3430
  733MOL0     H98900   8.138   8.794   7.049 -1.4945 -0.4568  0.8864
  733MOL0     H98901   8.180   8.867   6.907 -1.1968  0.3897  0.6868
  733MOL0     H98902   7.984   8.619   6.960 -2.3098 -0.3807 -2.1483
  733MOL0     H98903   7.919   8.768   6.937 -1.6578 -1.8589  0.8863
  733MOL0     H98904   8.070   8.600   6.719  2.5420  2.5660 -2.2992
  733MOL0     H98905   8.023   8.772   6.698 -1.7065  2.7026  2.7023
  733MOL0     H98906   7.751   8.838   6.768  0.3915  1.1097 -1.2411
  733MOL0     H98907   7.469   8.791   6.753 -2.8204 -1.7203  0.7277
  733MOL0     H98908   7.475   8.769   6.580  3.1326  0.7804 -0.3573
  733MOL0     H98909   7.308   8.649   6.749  1.1620 -0.3113  3.8407
  733MOL0     H98910   7.429   8.535   6.791  1.6820 -0.2863 -0.2565
  733MOL0     H98911   7.432   8.450   6.549 -0.0845 -1.2330  0.2387
  733MOL0     H98912   7.342   8.597   6.500  1.5800 -0.6243 -0.6647
  733MOL0     H98913   7.133   8.493   6.616  0.5433  2.2990 -3.7228
  733MOL0     H98914   7.240   8.373   6.695 -0.3912  0.5202 -0.6630
  733MOL0     H98915   7.070   8.251   6.709 -0.8923  2.0112 -1.7563
  733MOL0     H98916   7.017   8.046   6.828 -0.3419  1.2192 -0.2868
  733MOL0     H98917   6.858   8.040   6.749  0.0466 -1.7160 -1.2473
  733MOL0     H98918   6.952   7.903   6.756 -2.1650  0.9497 -0.2155
  733MOL0     H98919   6.723   7.860   6.199  0.0399 -0.6747 -1.4366
  733MOL0     H98920   6.512   7.719   6.183  1.1337  3.0529 -0.4618
  733MOL0     H98921   6.527   7.454   6.112  0.5382 -0.9311 -0.4223
  733MOL0     H98922   6.493   7.307   6.184  1.6551 -0.1894  0.5992
  733MOL0     H98923   6.286   7.525   6.143  2.1116  0.5559  1.0121
  733MOL0     H98924   6.313   7.386   6.042  0.7129 -1.7495  0.7848
  733MOL0     H98925   6.235   7.363   6.335 -2.3104  0.8822  0.6424
  733MOL0     H98926   6.225   7.228   6.208 -0.4229  0.3875 -1.3192
  733MOL0     H98927   6.060   7.389   6.088  1.6457  1.9825  0.7190
  733MOL0     H98928   6.001   7.285   6.208 -1.9132  1.3780  0.8071
  733MOL0     H98929   6.110   7.562   6.256  0.2540 -1.8804 -1.4120
  733MOL0     H98930   6.011   7.472   6.378 -2.0346  0.7384  0.1306
  733MOL0     H98931   5.905   7.578   6.111 -2.5418  1.8605  1.5138
  733MOL0     H98932   5.817   7.467   6.202 -0.5454  1.0127 -2.4014
  733MOL0     H98933   5.804   7.639   6.394 -0.4961 -1.4379  0.0389
  733MOL0     H98934   5.733   7.689   6.233  2.3428  2.3136 -2.4390
  733MOL0     H98935   5.984   7.758   6.360  1.8355  0.4664 -4.0580
  733MOL0     H98936   5.849   7.876   6.344  0.2231 -1.0008  3.6690
  733MOL0     H98937   6.731   7.421   6.400  1.3171 -1.0833 -0.1821
  733MOL0     H98938   6.917   7.563   6.423  1.1948  2.2761 -1.0740
  733MOL0     H98939   7.109   7.984   6.297  3.8952 -2.6105  2.9329
  733MOL0     H98940   7.240   8.183   6.326  0.8024 -0.4595 -0.2440
  733MOL0     H98941   8.902   8.382   6.945  0.9741 -0.7787 -0.3203
  733MOL0     H98942   9.110   8.246   6.949  0.4899  1.9732 -1.1522
  733MOL0     H98943   9.410   7.900   7.128 -0.1872  2.1454  2.4643
  733MOL0     H98944   9.633   7.805   7.037  0.3705  0.6180 -2.2313
  733MOL0     H98945   9.881   8.069   6.798  1.7567  1.7455  0.3354
  733MOL0     H98946   9.964   8.089   6.952  3.5684 -1.9928  0.9486
  733MOL0     H98947  10.007   7.821   6.810 -0.4631 -0.3440  0.2426
  733MOL0     H98948  10.083   7.901   6.945 -2.0081  2.4728  0.5549
  733MOL0     H98949  10.143   8.098   6.780 -2.5124  0.6976  1.4568
  733MOL0     H98950  10.080   8.000   6.644  2.6132 -1.4094 -0.5193
  733MOL0     H98951  10.286   7.957   6.610 -1.4593  3.8880  1.5372
  733MOL0     H98952  10.202   7.818   6.665 -1.5073  0.3711 -0.5007
  733MOL0     H98953  10.450   7.805   6.989 -0.2736  4.7272  1.8229
  733MOL0     H98954   9.759   8.204   6.949  0.8368 -0.8945 -0.6249
  733MOL0     H98955   9.559   8.298   7.029 -3.1253  1.0563  0.0119
  734MOL0     O98956  10.725   3.133   6.371 -0.1913  0.4730 -0.1011
  734MOL0     C98957  10.693   3.162   6.258  0.4082 -0.3802  0.4299
  734MOL0     O98958  10.762   3.238   6.162 -0.0397  0.0181 -0.3671
  734MOL0     C98959  10.887   3.297   6.173  0.4141 -0.0666  0.4821
  734MOL0     C98960  10.915   3.391   6.070  1.3379 -0.2170 -0.4221
  734MOL0     C98961  11.040   3.457   6.058 -0.1797  0.5320  0.0979
  734MOL0     C98962  11.143   3.411   6.142 -0.0042 -0.2986  0.0220
  734MOL0     O98963  11.267   3.469   6.138  0.7332  0.2345 -0.1192
  734MOL0     C98964  11.267   3.588   6.216  0.0762  0.1180 -0.0778
  734MOL0     C98965  11.406   3.644   6.234  0.3237 -0.6524 -0.2376
  734MOL0     C98966  11.496   3.547   6.305 -0.2339  0.1214 -1.2687
  734MOL0     C98967  11.638   3.597   6.352  0.3167  1.0114  0.1232
  734MOL0     C98968  11.739   3.478   6.353 -0.0138 -0.3985 -0.0075
  734MOL0     C98969  11.807   3.438   6.217  0.1383 -0.5634  0.0386
  734MOL0     C98970  11.920   3.340   6.234  0.1159 -0.2127 -0.3273
  734MOL0     C98971  12.024   3.338   6.123  0.0430  1.0204 -0.6440
  734MOL0     N98972  12.129   3.248   6.175  0.6651  0.4698  0.3301
  734MOL0     C98973  12.110   3.107   6.204  0.2637 -0.2427  0.3953
  734MOL0     C98974  12.225   3.055   6.247 -0.9606 -0.3185  0.4008
  734MOL0     C98975  12.262   2.921   6.292 -0.2011  0.0708 -0.5246
  734MOL0     C98976  12.200   2.805   6.200  0.1203  0.0391 -0.4111
  734MOL0     C98977  12.215   2.662   6.257 -0.1423  0.2083  1.2681
  734MOL0     C98978  12.078   2.593   6.282  0.0277  0.3691  0.6311
  734MOL0     O98979  12.008   2.555   6.160 -0.5302  0.0076 -0.2440
  734MOL0     C98980  11.880   2.529   6.194  0.7221  0.4393 -0.3032
  734MOL0     C98981  11.844   2.401   6.242 -0.3567  0.6770  0.2558
  734MOL0     C98982  11.708   2.366   6.250  0.7983 -1.1773 -0.6992
  734MOL0     C98983  11.676   2.225   6.300  0.4997 -0.0742  1.0596
  734MOL0     C98984  11.611   2.469   6.228 -0.8153  0.0007 -0.7193
  734MOL0     C98985  11.471   2.426   6.217 -0.2765 -0.5170 -1.6167
  734MOL0     O98986  11.447   2.328   6.122  0.0822  0.7883 -0.0536
  734MOL0     C98987  11.315   2.285   6.130 -0.6115  0.0807  0.6511
  734MOL0     C98988  11.242   2.265   6.012 -0.9189  1.7082  0.5057
  734MOL0     C98989  11.122   2.205   6.005 -0.0417  0.2827  0.0143
  734MOL0     C98990  11.069   2.149   6.123  0.7082  0.6574 -0.5679
  734MOL0     O98991  10.954   2.068   6.123 -0.1045 -0.5494  0.0545
  734MOL0     C98992  10.962   1.948   6.043 -0.3586 -0.8838  0.0279
  734MOL0     C98993  10.964   1.836   6.144  0.3248  0.8508 -0.8628
  734MOL0     C98994  10.830   1.842   6.218  0.8906  0.0387  0.0757
  734MOL0     C98995  10.820   1.728   6.320  0.1345 -0.1735  1.0497
  734MOL0     C98996  10.879   1.768   6.448 -0.2641  0.4739 -0.0058
  734MOL0     C98997  10.880   1.660   6.555  0.6506  0.6426 -0.6118
  734MOL0     C98998  10.943   1.725   6.684  0.4395  0.8955  0.1257
  734MOL0     C98999  10.832   1.797   6.759 -0.3340  0.2436 -0.1774
  734MOL0    Cl99000  10.897   1.914   6.864  0.1673 -0.0631 -0.2694
  734MOL0     C99001  11.137   2.163   6.242  0.9944  0.0119  0.1513
  734MOL0     C99002  11.261   2.230   6.248  0.4652  0.2670  0.6072
  734MOL0     O99003  11.385   2.490   6.283  0.1377 -0.1208  0.2259
  734MOL0     C99004  11.646   2.597   6.198  0.1635  0.5907 -0.3022
  734MOL0     C99005  11.776   2.622   6.173  0.2356  0.5359 -0.7726
  734MOL0     N99006  12.309   3.163   6.252 -0.3730 -0.0558  1.0772
  734MOL0     N99007  12.257   3.272   6.206  0.1571 -0.0859 -0.9085
  734MOL0     C99008  11.121   3.311   6.238  0.0988  0.0464  0.3321
  734MOL0     C99009  10.985   3.261   6.257 -1.1191 -0.8472 -0.8635
  734MOL0     C99010  10.568   3.104   6.202 -1.3829  0.3810  0.4254
  734MOL0     C99011  10.474   3.036   6.281 -0.4028 -0.5152  0.2411
  734MOL0     C99012  10.359   3.002   6.218  1.2987 -0.2186 -0.2892
  734MOL0     C99013  10.342   2.999   6.076 -0.7663  0.0576 -0.7106
  734MOL0     O99014  10.228   2.965   6.012  0.3886  0.5624 -0.1339
  734MOL0     C99015  10.162   2.856   6.079  0.9213  0.2784  0.5970
  734MOL0     C99016  10.079   2.778   5.974 -0.1211  0.1234 -0.0881
  734MOL0     C99017   9.953   2.844   5.936  0.5440 -0.2876  1.0418
  734MOL0     C99018   9.841   2.822   6.043 -0.3078  0.8949  0.2052
  734MOL0     C99019   9.728   2.893   5.980  0.0067  1.5571 -0.5743
  734MOL0     C99020   9.630   2.939   5.928  1.1496 -0.0479 -0.4467
  734MOL0     C99021  10.437   3.054   5.997  0.5399 -0.2407  0.8354
  734MOL0     C99022  10.552   3.104   6.060 -0.8493  0.5286  0.0310
  734MOL0     H99023  10.831   3.410   6.003 -0.0062  0.0670  1.2614
  734MOL0     H99024  11.053   3.533   5.981 -1.6506 -0.7670 -1.5287
  734MOL0     H99025  11.212   3.668   6.167 -0.8196 -0.0988  0.5449
  734MOL0     H99026  11.221   3.563   6.313 -1.7610  4.3642  0.3623
  734MOL0     H99027  11.452   3.666   6.138 -2.8121 -0.7489 -1.9031
  734MOL0     H99028  11.389   3.734   6.295 -4.9119 -2.4236  1.4811
  734MOL0     H99029  11.451   3.501   6.393 -0.3200  2.9480  0.2863
  734MOL0     H99030  11.521   3.469   6.232 -1.9574 -2.0662  0.3460
  734MOL0     H99031  11.678   3.669   6.279 -0.1113 -0.4710 -1.6449
  734MOL0     H99032  11.639   3.641   6.452  1.7898  4.2839 -1.1761
  734MOL0     H99033  11.822   3.490   6.424  0.0225 -0.3986 -0.0497
  734MOL0     H99034  11.682   3.388   6.379 -0.5961 -0.8942 -2.6590
  734MOL0     H99035  11.728   3.393   6.157  0.2169  1.9463 -2.1195
  734MOL0     H99036  11.834   3.534   6.171 -2.4492  2.1064  3.4997
  734MOL0     H99037  11.963   3.365   6.331 -2.8332  2.2188  0.4969
  734MOL0     H99038  11.877   3.239   6.236 -1.7400  0.4849  3.5121
  734MOL0     H99039  12.068   3.437   6.111  0.9509  0.8187  0.7425
  734MOL0     H99040  11.978   3.305   6.030 -0.7986  2.1995 -0.6711
  734MOL0     H99041  12.021   3.051   6.176 -0.4733  0.3288  1.5149
  734MOL0     H99042  12.371   2.913   6.292 -0.1837  0.2999 -0.0705
  734MOL0     H99043  12.226   2.914   6.395  2.0756 -2.0963  0.2122
  734MOL0     H99044  12.212   2.809   6.091 -0.8084 -2.3811 -0.6641
  734MOL0     H99045  12.093   2.823   6.189  0.2193  0.0342 -1.5671
  734MOL0     H99046  12.270   2.684   6.349  2.0638  0.3926 -0.0249
  734MOL0     H99047  12.270   2.598   6.187  1.4542  2.3045  0.5301
  734MOL0     H99048  12.022   2.671   6.334 -0.6853  0.3703 -0.1147
  734MOL0     H99049  12.094   2.512   6.354  2.9604 -2.5181 -2.8268
  734MOL0     H99050  11.926   2.330   6.247  1.6505  2.5914 -2.6614
  734MOL0     H99051  11.737   2.172   6.374 -3.0063 -3.5812  1.7957
  734MOL0     H99052  11.573   2.209   6.332 -0.9689 -2.4775 -3.7839
  734MOL0     H99053  11.678   2.161   6.211 -0.2214  0.9392  0.3066
  734MOL0     H99054  11.288   2.310   5.924  1.2139  2.0463  1.7175
  734MOL0     H99055  11.069   2.176   5.915 -1.1432  0.4947  0.5780
  734MOL0     H99056  10.871   1.951   5.981  1.3956  1.5175 -2.6704
  734MOL0     H99057  11.044   1.937   5.971  0.0959  0.2212  0.3637
  734MOL0     H99058  10.963   1.743   6.085 -1.1227 -0.3746  0.9885
  734MOL0     H99059  11.055   1.822   6.203  0.9531 -0.0912 -2.0051
  734MOL0     H99060  10.758   1.825   6.137  1.0893 -0.2225 -0.0489
  734MOL0     H99061  10.811   1.939   6.264  0.8547 -0.3775  0.9597
  734MOL0     H99062  10.712   1.712   6.321  0.6630 -5.0228  1.8676
  734MOL0     H99063  10.866   1.639   6.278  0.6912  0.7204 -0.3051
  734MOL0     H99064  10.821   1.853   6.485 -1.4020 -0.3840  0.2404
  734MOL0     H99065  10.981   1.804   6.432  0.8937 -2.0192  1.2085
  734MOL0     H99066  10.784   1.612   6.571  0.9892  0.5706  1.4938
  734MOL0     H99067  10.949   1.582   6.521  0.2288  0.6304 -1.4637
  734MOL0     H99068  11.023   1.794   6.656  1.9206  1.1274  4.2619
  734MOL0     H99069  10.983   1.642   6.743 -0.7741 -0.0800 -0.3770
  734MOL0     H99070  10.755   1.744   6.816 -1.8011  0.0529 -2.1964
  734MOL0     H99071  10.767   1.837   6.680 -0.7790 -1.1289 -0.5301
  734MOL0     H99072  11.098   2.120   6.334  2.0363 -0.2383  0.4788
  734MOL0     H99073  11.327   2.246   6.332  1.5964 -2.6727  0.3642
  734MOL0     H99074  11.572   2.675   6.179  2.4708  3.9393  2.9742
  734MOL0     H99075  11.806   2.722   6.142 -0.0314  0.7361 -0.3968
  734MOL0     H99076  11.204   3.280   6.301  0.5160  0.7704  0.1541
  734MOL0     H99077  10.958   3.183   6.327  0.5951 -1.9533 -1.3829
  734MOL0     H99078  10.486   3.042   6.389  1.3399  1.0606  0.0212
  734MOL0     H99079  10.269   2.978   6.275  1.0604  2.1192  0.4005
  734MOL0     H99080  10.235   2.780   6.109  1.5495  0.4237 -0.5121
  734MOL0     H99081  10.106   2.872   6.172  0.1816 -2.1811  0.6556
  734MOL0     H99082  10.062   2.678   6.016  1.3699  0.0568  0.4201
  734MOL0     H99083  10.135   2.761   5.881 -0.9570 -1.0203 -0.4205
  734MOL0     H99084   9.929   2.792   5.843 -1.7490  1.5135  0.5437
  734MOL0     H99085   9.954   2.950   5.910 -2.6461 -0.7070 -1.3416
  734MOL0     H99086   9.864   2.868   6.140 -0.6380  0.7795  0.3416
  734MOL0     H99087   9.811   2.718   6.059 -0.0010  0.5415 -1.3473
  734MOL0     H99088   9.539   2.984   5.892 -0.1199 -1.6465  0.6377
  734MOL0     H99089  10.421   3.067   5.890  3.9356  0.0818  0.2668
  734MOL0     H99090  10.632   3.142   5.998  0.0323 -0.2522  0.6543
  735MOL0     O99091   4.881   6.718   8.416  0.2742  0.3172  0.6435
  735MOL0     C99092   4.895   6.659   8.305 -0.3419  0.6456  0.5129
  735MOL0     O99093   4.797   6.594   8.236 -0.3181 -0.2904  0.0604
  735MOL0     C99094   4.665   6.598   8.279 -0.4765 -0.2591  1.0498
  735MOL0     C99095   4.626   6.542   8.402  0.6004 -0.5841 -0.0942
  735MOL0     C99096   4.486   6.541   8.433  0.2391 -0.5535  0.7616
  735MOL0     C99097   4.389   6.597   8.348  0.6324 -0.0045 -0.7427
  735MOL0     O99098   4.266   6.613   8.404  0.0519  0.9940 -0.1986
  735MOL0     C99099   4.157   6.601   8.311  0.5650 -0.1397 -0.9099
  735MOL0     C99100   4.022   6.594   8.388  0.2687 -0.0705 -0.2707
  735MOL0     C99101   3.971   6.723   8.454  0.0420 -0.9253  0.6669
  735MOL0     C99102   3.850   6.688   8.532  0.3708 -0.0590  0.7050
  735MOL0     C99103   3.779   6.815   8.575  0.5274 -0.2866  0.5241
  735MOL0     C99104   3.629   6.799   8.608 -0.2242  0.3090 -0.0899
  735MOL0     C99105   3.559   6.929   8.639  0.1942  0.4897 -0.3042
  735MOL0     C99106   3.431   6.897   8.716 -0.5092 -0.1854 -0.1564
  735MOL0     N99107   3.359   7.010   8.764  0.0558 -0.1320 -0.4474
  735MOL0     C99108   3.406   7.120   8.828  0.1685 -0.0266 -0.3923
  735MOL0     C99109   3.297   7.168   8.886  0.3396 -0.9849 -0.6652
  735MOL0     C99110   3.288   7.273   8.993 -0.2265 -0.4377 -0.0049
  735MOL0     C99111   3.324   7.404   8.935 -0.6650  0.1417 -0.5222
  735MOL0     C99112   3.218   7.451   8.834  0.1278 -0.0863  0.3539
  735MOL0     C99113   3.220   7.594   8.798 -0.0623  0.2073 -0.6274
  735MOL0     O99114   3.227   7.668   8.916 -0.3831 -0.4438  0.1280
  735MOL0     C99115   3.154   7.785   8.913 -0.0983 -0.0765 -0.0727
  735MOL0     C99116   3.163   7.875   8.806 -0.7468  0.8320 -0.1183
  735MOL0     C99117   3.086   7.981   8.797  0.2516 -0.5041  0.1260
  735MOL0     C99118   3.113   8.070   8.676  0.2895  0.1266 -0.1033
  735MOL0     C99119   2.998   8.015   8.898 -0.7534  0.1979 -0.3023
  735MOL0     C99120   2.915   8.138   8.899 -0.3346 -0.0189 -0.0662
  735MOL0     O99121   2.800   8.114   8.970 -0.1145  0.2784  0.1251
  735MOL0     C99122   2.706   8.205   8.928  0.6963  0.7301 -0.0494
  735MOL0     C99123   2.579   8.162   8.873  0.8976  0.5449 -0.1050
  735MOL0     C99124   2.462   8.246   8.868  1.2914 -0.6096  0.2682
  735MOL0     C99125   2.471   8.381   8.909 -0.9345 -0.5044  0.1219
  735MOL0     O99126   2.364   8.472   8.892 -0.0167 -0.3681  0.3136
  735MOL0     C99127   2.389   8.613   8.940  0.7374  0.3095 -0.6966
  735MOL0     C99128   2.389   8.624   9.096 -0.2542  1.3845  0.2027
  735MOL0     C99129   2.240   8.623   9.142  0.1231  0.4083 -0.5364
  735MOL0     C99130   2.209   8.628   9.287  0.4135 -0.4213  0.5286
  735MOL0     C99131   2.238   8.503   9.357 -0.5367  0.6978  0.3082
  735MOL0     C99132   2.222   8.496   9.510 -0.5420 -0.1005  0.1352
  735MOL0     C99133   2.301   8.374   9.571  0.6123 -0.2419  0.4018
  735MOL0     C99134   2.309   8.379   9.722 -0.5390 -0.1658 -0.3565
  735MOL0    Cl99135   2.154   8.384   9.805 -0.3979  0.1019  0.8084
  735MOL0     C99136   2.604   8.425   8.948 -0.6802  0.2098  0.5178
  735MOL0     C99137   2.715   8.340   8.955  0.0790  0.0115  0.0123
  735MOL0     O99138   2.946   8.240   8.838  0.5148  0.4197  0.6078
  735MOL0     C99139   2.993   7.935   9.015 -0.6843 -0.0085 -0.0769
  735MOL0     C99140   3.077   7.817   9.025  0.0558 -0.4649 -0.8738
  735MOL0     N99141   3.181   7.105   8.844 -0.3824 -1.1238 -0.5820
  735MOL0     N99142   3.223   7.012   8.777  0.1867 -0.1669 -0.5941
  735MOL0     C99143   4.432   6.647   8.225  1.0406  0.4905  0.0672
  735MOL0     C99144   4.571   6.645   8.189  0.1314  0.4449 -0.3325
  735MOL0     C99145   5.040   6.644   8.258  0.2978 -0.1128 -0.1008
  735MOL0     C99146   5.084   6.582   8.131 -0.4455  0.0195  0.6596
  735MOL0     C99147   5.217   6.572   8.094 -0.9178 -0.0591 -0.2027
  735MOL0     C99148   5.314   6.622   8.176 -0.0847 -0.5484  0.6946
  735MOL0     O99149   5.449   6.618   8.148 -0.1112  0.3022  0.2666
  735MOL0     C99150   5.485   6.509   8.058  0.0814 -0.0748  0.0632
  735MOL0     C99151   5.632   6.513   8.027  0.3273 -0.5900  0.2662
  735MOL0     C99152   5.663   6.466   7.882  0.7696 -0.0309  0.2441
  735MOL0     C99153   5.816   6.459   7.880  0.0507  1.0133 -0.1853
  735MOL0     C99154   5.882   6.592   7.867  0.6389 -0.3554  0.1177
  735MOL0     C99155   5.909   6.708   7.855 -0.3304  0.0382 -0.4918
  735MOL0     C99156   5.281   6.685   8.292 -0.1381  0.7167 -0.6532
  735MOL0     C99157   5.145   6.692   8.341 -0.3716 -0.0598  0.0763
  735MOL0     H99158   4.697   6.497   8.471 -1.0395 -0.3247  1.8699
  735MOL0     H99159   4.466   6.502   8.532  0.0346 -0.4735  0.7520
  735MOL0     H99160   4.155   6.689   8.246  0.5693  0.1780 -0.4829
  735MOL0     H99161   4.169   6.517   8.242  4.9535  1.2704 -2.1366
  735MOL0     H99162   3.946   6.562   8.316  2.9348  1.5523 -4.1392
  735MOL0     H99163   4.023   6.525   8.472  1.9640 -1.0943 -1.0798
  735MOL0     H99164   4.041   6.765   8.527 -0.7950  0.3461  0.7701
  735MOL0     H99165   3.943   6.796   8.377 -3.5361 -1.2354  1.4984
  735MOL0     H99166   3.775   6.628   8.480 -0.3730 -1.6261  3.3697
  735MOL0     H99167   3.873   6.619   8.613 -0.2952 -2.3364 -0.9516
  735MOL0     H99168   3.831   6.878   8.647  0.9185 -0.6027  0.5183
  735MOL0     H99169   3.759   6.868   8.481 -0.6358 -3.1411 -0.9693
  735MOL0     H99170   3.570   6.757   8.527  0.4410 -1.1489  0.1380
  735MOL0     H99171   3.632   6.732   8.695 -1.4675  0.1232 -0.1695
  735MOL0     H99172   3.608   7.002   8.704 -3.3272  3.2603 -0.4498
  735MOL0     H99173   3.533   6.982   8.547 -1.9051  2.7113  1.4439
  735MOL0     H99174   3.457   6.832   8.800  0.8268  0.4251 -0.0662
  735MOL0     H99175   3.364   6.843   8.649 -0.1830  1.4342 -1.8977
  735MOL0     H99176   3.510   7.141   8.851 -0.3050  0.6068  1.3353
  735MOL0     H99177   3.191   7.285   9.041  1.1313  2.2447  2.3722
  735MOL0     H99178   3.360   7.245   9.071  0.6538 -0.0813 -0.6730
  735MOL0     H99179   3.423   7.408   8.889 -0.0375 -2.6943  0.3788
  735MOL0     H99180   3.328   7.470   9.021  1.7910  2.5168 -2.3051
  735MOL0     H99181   3.119   7.419   8.867  0.5547 -0.9456  0.8300
  735MOL0     H99182   3.237   7.395   8.742 -1.6150  1.0427 -0.7425
  735MOL0     H99183   3.132   7.624   8.741 -1.4803 -2.4998  0.0265
  735MOL0     H99184   3.315   7.615   8.747  0.7669  0.4902  0.9425
  735MOL0     H99185   3.223   7.851   8.719 -0.4156  1.8356 -0.1816
  735MOL0     H99186   3.018   8.088   8.625 -0.0553 -2.0729 -0.3510
  735MOL0     H99187   3.156   8.163   8.714 -1.6422  0.6382  1.0153
  735MOL0     H99188   3.172   8.018   8.601 -0.5267  1.2143 -1.5482
  735MOL0     H99189   2.572   8.061   8.833  2.5143  0.8885 -1.3760
  735MOL0     H99190   2.371   8.206   8.826  1.4554  0.7750 -1.5534
  735MOL0     H99191   2.484   8.645   8.898  0.8862  1.4512  0.4635
  735MOL0     H99192   2.316   8.681   8.893  0.4335 -0.1471 -0.9018
  735MOL0     H99193   2.441   8.537   9.137  0.7452  1.8929  0.0443
  735MOL0     H99194   2.439   8.717   9.124  0.2008  0.9993  0.6877
  735MOL0     H99195   2.206   8.524   9.112  1.6791 -0.2205 -0.3356
  735MOL0     H99196   2.185   8.705   9.094 -3.7590 -1.5171  0.2977
  735MOL0     H99197   2.267   8.708   9.336  2.1701 -0.8520 -0.7525
  735MOL0     H99198   2.104   8.650   9.309  0.5273 -0.3940  1.0646
  735MOL0     H99199   2.343   8.483   9.332  0.2354  3.5573  0.8833
  735MOL0     H99200   2.189   8.416   9.312  1.4119  0.3694 -1.3927
  735MOL0     H99201   2.264   8.590   9.548 -1.0218 -0.0745  0.6110
  735MOL0     H99202   2.114   8.488   9.525 -0.5636 -0.5798 -0.2530
  735MOL0     H99203   2.399   8.372   9.522 -0.8295  0.5930 -2.8226
  735MOL0     H99204   2.250   8.286   9.533 -0.3635 -0.7495  2.7458
  735MOL0     H99205   2.377   8.462   9.745  0.0024 -1.1442  1.8842
  735MOL0     H99206   2.360   8.285   9.748 -0.4522 -0.9465 -3.0342
  735MOL0     H99207   2.623   8.529   8.975  1.0035  0.3761 -1.1164
  735MOL0     H99208   2.801   8.374   9.012 -1.1176  1.7777  0.8467
  735MOL0     H99209   2.937   7.962   9.104  0.5765 -2.7093  1.6688
  735MOL0     H99210   3.079   7.750   9.110  0.4654  0.2247 -0.3283
  735MOL0     H99211   4.365   6.676   8.145  0.5015 -0.8393  0.0044
  735MOL0     H99212   4.609   6.701   8.104 -0.4504 -1.4926 -1.9618
  735MOL0     H99213   5.006   6.561   8.059 -0.3125  0.5720  0.3532
  735MOL0     H99214   5.238   6.546   7.990  1.3919  0.0784  0.1807
  735MOL0     H99215   5.461   6.424   8.123 -0.6992 -0.6022 -0.8722
  735MOL0     H99216   5.426   6.518   7.966 -0.2767  1.7457  0.4419
  735MOL0     H99217   5.678   6.446   8.100  0.9730 -0.4321  0.0082
  735MOL0     H99218   5.663   6.618   8.032  1.9962 -1.1224  2.3686
  735MOL0     H99219   5.624   6.528   7.801  1.2705 -2.7443 -2.2263
  735MOL0     H99220   5.627   6.365   7.863  1.1640  0.1047 -1.3542
  735MOL0     H99221   5.851   6.402   7.793  1.1769  1.8183 -0.2772
  735MOL0     H99222   5.863   6.399   7.958 -2.9367 -2.4891 -0.8142
  735MOL0     H99223   5.926   6.810   7.829  1.5221  1.2008  4.2516
  735MOL0     H99224   5.360   6.731   8.350 -0.0590 -2.5860  2.1929
  735MOL0     H99225   5.130   6.750   8.431  1.1365  0.3802  0.0653
  736MOL0     O99226   4.090   9.196   8.568  0.4368  0.0733  0.2610
  736MOL0     C99227   4.132   9.147   8.465 -0.0724  0.0156 -0.0141
  736MOL0     O99228   4.104   9.192   8.338 -0.1708  0.7062 -0.7820
  736MOL0     C99229   3.999   9.291   8.329  0.9463  0.3486  0.1435
  736MOL0     C99230   4.030   9.428   8.315  1.1808  0.1868  0.2831
  736MOL0     C99231   3.931   9.528   8.336 -0.1787 -0.7210  0.5654
  736MOL0     C99232   3.797   9.492   8.351  0.3543  0.2309  0.8293
  736MOL0     O99233   3.697   9.580   8.360 -0.4087  0.3734 -0.7392
  736MOL0     C99234   3.701   9.677   8.261 -0.7272  0.2617 -0.1291
  736MOL0     C99235   3.619   9.798   8.305  0.4282  0.4917  0.9295
  736MOL0     C99236   3.640   9.917   8.210 -0.6517  1.4648 -0.0463
  736MOL0     C99237   3.550  10.047   8.240  0.6636  0.4840 -0.6080
  736MOL0     C99238   3.607  10.150   8.337 -0.3932 -0.1567  0.0099
  736MOL0     C99239   3.723  10.229   8.268  0.2580  0.3368 -0.0754
  736MOL0     C99240   3.825  10.255   8.380 -0.0287 -0.1906  1.1392
  736MOL0     C99241   3.910  10.382   8.361  0.5998 -0.0214  0.0337
  736MOL0     N99242   4.005  10.381   8.250  0.8494 -0.8655 -0.4517
  736MOL0     C99243   3.985  10.422   8.114 -0.0296 -0.4623 -0.0924
  736MOL0     C99244   4.100  10.402   8.054  0.1204 -0.0523  0.7196
  736MOL0     C99245   4.130  10.443   7.913 -0.1332 -0.0013  0.0411
  736MOL0     C99246   4.160  10.320   7.825 -0.0649  0.5999 -0.2947
  736MOL0     C99247   4.102  10.340   7.682 -0.4390 -0.2812 -0.2446
  736MOL0     C99248   4.099  10.206   7.601  0.7478 -0.3507 -0.6802
  736MOL0     O99249   3.998  10.118   7.666  0.0596 -0.5815 -0.4339
  736MOL0     C99250   3.968   9.983   7.656 -0.2188  0.7877  0.3845
  736MOL0     C99251   3.868   9.927   7.735 -0.2442 -0.0153  0.5628
  736MOL0     C99252   3.810   9.802   7.709  0.0573  0.2850 -0.3331
  736MOL0     C99253   3.683   9.769   7.787 -0.5210 -0.1216  0.2206
  736MOL0     C99254   3.856   9.722   7.600 -0.5952  0.1063 -0.5769
  736MOL0     C99255   3.800   9.590   7.569  0.8242 -0.1063 -0.3917
  736MOL0     O99256   3.888   9.484   7.567 -0.2153 -0.4752 -1.4256
  736MOL0     C99257   3.846   9.365   7.513  0.1702 -0.5145 -0.6165
  736MOL0     C99258   3.889   9.252   7.580 -0.2994 -0.5478 -0.8386
  736MOL0     C99259   3.867   9.124   7.532 -0.7256 -0.1463 -0.0046
  736MOL0     C99260   3.816   9.103   7.404 -0.7052 -0.2924 -0.3642
  736MOL0     O99261   3.794   8.984   7.348 -0.1353  0.2430  0.1003
  736MOL0     C99262   3.898   8.882   7.378 -0.4235  0.6685  0.3133
  736MOL0     C99263   3.886   8.772   7.270 -0.2714 -0.5152  0.4730
  736MOL0     C99264   3.768   8.683   7.293  0.1303  0.2207  0.1107
  736MOL0     C99265   3.754   8.600   7.162  0.2979 -0.0322 -0.0655
  736MOL0     C99266   3.635   8.520   7.169 -0.1822  0.1990  0.2686
  736MOL0     C99267   3.653   8.407   7.269  0.1702  0.0223  0.1132
  736MOL0     C99268   3.532   8.328   7.296 -0.1841  0.0819 -0.5502
  736MOL0     C99269   3.461   8.293   7.171  0.7998 -0.2051 -0.1308
  736MOL0    Cl99270   3.317   8.216   7.224 -0.0872  0.7185  0.4528
  736MOL0     C99271   3.780   9.219   7.336  0.0353 -0.1066  0.7340
  736MOL0     C99272   3.790   9.343   7.387  0.1006 -0.5844 -0.1057
  736MOL0     O99273   3.678   9.584   7.553  0.1104  0.4361  0.4877
  736MOL0     C99274   3.965   9.777   7.521  0.1085  0.2001 -0.0693
  736MOL0     C99275   4.024   9.900   7.552  0.2331 -0.1145 -0.0354
  736MOL0     N99276   4.190  10.332   8.138  0.5889 -0.0763  0.5748
  736MOL0     N99277   4.125  10.321   8.251  0.0913 -0.3662 -0.3441
  736MOL0     C99278   3.766   9.346   8.344  0.3271  0.2006  1.0086
  736MOL0     C99279   3.863   9.259   8.344 -0.2982 -0.5867  0.1482
  736MOL0     C99280   4.212   9.017   8.484  0.5943  0.1740 -0.4613
  736MOL0     C99281   4.237   8.953   8.612 -0.0872 -0.5350  0.8275
  736MOL0     C99282   4.313   8.836   8.621  0.5229  0.7842  0.2662
  736MOL0     C99283   4.380   8.788   8.507  0.3023 -0.4444  0.2877
  736MOL0     O99284   4.465   8.678   8.520  0.1507  0.0890 -0.5050
  736MOL0     C99285   4.550   8.626   8.420 -0.7256  0.2743 -0.2320
  736MOL0     C99286   4.615   8.522   8.509 -0.8508 -0.2249  0.3052
  736MOL0     C99287   4.528   8.409   8.561  0.6921  0.7213 -0.7853
  736MOL0     C99288   4.607   8.310   8.646 -0.0905  0.4407 -0.9075
  736MOL0     C99289   4.546   8.177   8.628  0.7743 -0.8586 -1.1325
  736MOL0     C99290   4.490   8.068   8.614 -1.2998  0.3254  0.9003
  736MOL0     C99291   4.367   8.857   8.382  0.1957 -0.2749 -0.2394
  736MOL0     C99292   4.279   8.969   8.371 -0.5361  0.2306 -0.6412
  736MOL0     H99293   4.136   9.448   8.308  1.1643  0.8562  1.6147
  736MOL0     H99294   3.967   9.630   8.333 -0.4814 -0.6358 -1.5962
  736MOL0     H99295   3.806   9.698   8.239 -0.3774  0.0388  1.2187
  736MOL0     H99296   3.653   9.631   8.174 -1.3455  0.1584  0.2652
  736MOL0     H99297   3.516   9.759   8.301  0.5662 -0.1137  2.7496
  736MOL0     H99298   3.647   9.819   8.408  2.3377 -1.9025  0.9891
  736MOL0     H99299   3.746   9.945   8.205  0.1607 -1.5226 -3.1323
  736MOL0     H99300   3.606   9.873   8.116  1.3683  0.3017 -0.3016
  736MOL0     H99301   3.506  10.090   8.150 -2.3215  1.0498  1.0047
  736MOL0     H99302   3.458  10.010   8.287 -0.6441  1.0262 -2.6367
  736MOL0     H99303   3.528  10.216   8.374  0.9754  1.7724 -0.3610
  736MOL0     H99304   3.643  10.091   8.422 -2.9847 -1.3758  0.3522
  736MOL0     H99305   3.764  10.177   8.181  0.6301  2.6166 -1.3336
  736MOL0     H99306   3.687  10.322   8.224 -0.9059  0.5282  1.2158
  736MOL0     H99307   3.776  10.265   8.477  0.0981 -3.1868  1.6072
  736MOL0     H99308   3.880  10.161   8.385 -1.0566 -0.7731  1.9686
  736MOL0     H99309   3.956  10.415   8.455 -1.2784  0.9926  0.6377
  736MOL0     H99310   3.841  10.463   8.336  0.7972  0.3578  0.6766
  736MOL0     H99311   3.900  10.463   8.060 -1.4038 -3.1176 -0.1162
  736MOL0     H99312   4.044  10.496   7.871  0.0830 -0.0903 -0.5287
  736MOL0     H99313   4.218  10.508   7.915 -0.7556  0.8531  2.1791
  736MOL0     H99314   4.110  10.232   7.867  1.4883 -1.0410 -1.7717
  736MOL0     H99315   4.268  10.304   7.821  0.1779  1.2499  1.9693
  736MOL0     H99316   4.146  10.417   7.618 -0.0791 -2.2393 -2.5170
  736MOL0     H99317   4.003  10.382   7.699 -0.2821  0.5855 -1.4008
  736MOL0     H99318   4.201  10.168   7.590  0.1774 -1.7203 -1.4263
  736MOL0     H99319   4.067  10.241   7.502 -0.9800  0.9318  0.2668
  736MOL0     H99320   3.838   9.975   7.828  0.5729 -0.2895  0.9784
  736MOL0     H99321   3.607   9.711   7.732  0.8685 -3.1264  1.2368
  736MOL0     H99322   3.716   9.708   7.872  2.6123  3.4020  1.7861
  736MOL0     H99323   3.636   9.861   7.822 -0.3664 -0.4500  1.3408
  736MOL0     H99324   3.936   9.259   7.678 -0.5028  0.0628 -0.7801
  736MOL0     H99325   3.911   9.050   7.599 -0.9201 -1.2096 -1.0155
  736MOL0     H99326   4.000   8.921   7.374  0.0677 -0.3374  2.0298
  736MOL0     H99327   3.886   8.841   7.479 -2.7959  0.1023 -0.1427
  736MOL0     H99328   3.895   8.815   7.170 -3.2311 -0.4234  0.1553
  736MOL0     H99329   3.972   8.704   7.281 -1.6392 -2.3290  0.5033
  736MOL0     H99330   3.678   8.744   7.298 -1.2135 -1.7721  1.4773
  736MOL0     H99331   3.782   8.628   7.387  3.6751 -0.4286 -0.6303
  736MOL0     H99332   3.738   8.654   7.069 -0.9168 -0.0824  0.0968
  736MOL0     H99333   3.834   8.526   7.150  2.3941  1.9696  0.8085
  736MOL0     H99334   3.613   8.483   7.069 -0.0338 -0.3248  0.4232
  736MOL0     H99335   3.547   8.579   7.196 -0.0603  0.5261 -0.0456
  736MOL0     H99336   3.727   8.335   7.231 -0.0396  0.5981 -1.4536
  736MOL0     H99337   3.680   8.449   7.366  1.8584  1.9198 -1.0692
  736MOL0     H99338   3.469   8.386   7.364 -0.3295 -1.8642  1.0714
  736MOL0     H99339   3.548   8.233   7.348  0.1928  1.6292  2.4024
  736MOL0     H99340   3.526   8.223   7.118  4.0157  1.0270  1.8516
  736MOL0     H99341   3.434   8.374   7.102  0.4782  0.3133  0.5900
  736MOL0     H99342   3.739   9.213   7.235 -1.7665 -1.3682  1.4953
  736MOL0     H99343   3.748   9.426   7.331 -0.6856 -2.8162 -3.0456
  736MOL0     H99344   3.998   9.714   7.440 -0.3218 -0.2205  0.0812
  736MOL0     H99345   4.106   9.943   7.497 -1.8138  2.5803 -1.2256
  736MOL0     H99346   3.661   9.318   8.347  0.2017  0.6156  0.6896
  736MOL0     H99347   3.835   9.154   8.347  2.3559 -1.3777  0.2308
  736MOL0     H99348   4.175   8.989   8.692 -0.3208  1.4193 -0.1696
  736MOL0     H99349   4.302   8.778   8.712  0.6345  0.2116 -0.0750
  736MOL0     H99350   4.489   8.575   8.345 -1.5114 -2.0449  1.8271
  736MOL0     H99351   4.626   8.697   8.385 -0.8413  1.0406  0.9995
  736MOL0     H99352   4.670   8.575   8.587  2.3340  0.6391 -2.3035
  736MOL0     H99353   4.687   8.470   8.445  0.8677  1.1652  1.0285
  736MOL0     H99354   4.488   8.365   8.469 -0.1322  2.7818 -1.4828
  736MOL0     H99355   4.448   8.441   8.628  0.1806 -2.2496  0.1643
  736MOL0     H99356   4.624   8.339   8.750 -1.9632 -3.1346  0.5699
  736MOL0     H99357   4.708   8.303   8.606  0.7441 -2.1056  1.3577
  736MOL0     H99358   4.472   7.963   8.609 -1.0474  0.1512  2.8774
  736MOL0     H99359   4.426   8.824   8.297  3.8412 -0.1245  2.0295
  736MOL0     H99360   4.267   9.012   8.272 -5.1293 -1.9279 -1.2827
  737MOL0     O99361  10.687   5.832   5.076  0.4092  1.1633 -0.0443
  737MOL0     C99362  10.694   5.760   5.176 -0.1864 -1.0555 -0.0999
  737MOL0     O99363  10.805   5.697   5.227  0.1029 -0.0631  1.2285
  737MOL0     C99364  10.912   5.673   5.143 -1.1282 -0.6342 -0.1812
  737MOL0     C99365  11.038   5.631   5.205 -0.1337 -0.3158 -0.3175
  737MOL0     C99366  11.159   5.630   5.125 -0.2936 -0.9456  0.3081
  737MOL0     C99367  11.155   5.640   4.990  0.5711  0.7345  0.0726
  737MOL0     O99368  11.263   5.596   4.912  0.5249 -0.1533  0.4480
  737MOL0     C99369  11.332   5.480   4.941  0.0875  0.0821 -0.5873
  737MOL0     C99370  11.482   5.511   4.965 -0.5217  0.0630 -0.4268
  737MOL0     C99371  11.579   5.540   4.848  0.5623 -0.0703 -0.5486
  737MOL0     C99372  11.542   5.515   4.701  0.0008  0.0160 -0.5661
  737MOL0     C99373  11.635   5.568   4.592 -0.3131  0.4384 -0.1937
  737MOL0     C99374  11.784   5.515   4.615  0.7386  0.4727  0.3778
  737MOL0     C99375  11.849   5.541   4.477  0.0164  0.4683 -0.0801
  737MOL0     C99376  12.000   5.515   4.464 -0.1306  0.3858  0.5762
  737MOL0     N99377  12.023   5.368   4.484  0.1404  0.4455  0.7780
  737MOL0     C99378  12.025   5.295   4.600 -0.4138  1.2726  0.0777
  737MOL0     C99379  12.047   5.167   4.556 -0.0008  0.3416  1.1130
  737MOL0     C99380  12.055   5.041   4.631  1.0258  0.3144  0.2110
  737MOL0     C99381  11.959   4.928   4.596  0.0820 -0.3080  0.0785
  737MOL0     C99382  11.813   4.970   4.566 -0.0479 -0.0824  0.9761
  737MOL0     C99383  11.728   4.840   4.585  0.0609  0.8337  0.9866
  737MOL0     O99384  11.598   4.843   4.519 -0.6193  0.2113 -0.6424
  737MOL0     C99385  11.507   4.882   4.604  0.1328  1.0978 -0.9158
  737MOL0     C99386  11.453   4.791   4.705 -0.2389  0.3572  0.0130
  737MOL0     C99387  11.334   4.814   4.769  0.2154 -0.0659  0.0831
  737MOL0     C99388  11.287   4.711   4.870 -0.2391  0.9151 -0.1666
  737MOL0     C99389  11.265   4.943   4.744  0.1180  0.0775 -0.2224
  737MOL0     C99390  11.126   4.977   4.788  1.1668 -0.5615 -0.5191
  737MOL0     O99391  11.042   4.885   4.819 -0.3872  0.9455  0.3427
  737MOL0     C99392  10.917   4.933   4.849  0.4835  0.9327  0.2328
  737MOL0     C99393  10.891   4.980   4.978  0.2834 -0.5275  0.2143
  737MOL0     C99394  10.762   5.015   5.006  0.4101  0.1663  0.3144
  737MOL0     C99395  10.658   5.019   4.922  0.0477 -0.0843  1.1144
  737MOL0     O99396  10.529   5.064   4.956 -0.9325  0.3860 -0.5160
  737MOL0     C99397  10.431   5.092   4.855  0.5826  0.1366  0.4462
  737MOL0     C99398  10.298   5.124   4.940  0.9376 -0.0211  0.0290
  737MOL0     C99399  10.328   5.240   5.035  0.8411  0.2139  0.5119
  737MOL0     C99400  10.228   5.283   5.153  0.8451 -0.7887 -0.0351
  737MOL0     C99401  10.276   5.406   5.239 -0.6735  1.7717  0.2780
  737MOL0     C99402  10.165   5.454   5.335 -0.0300 -0.3069 -0.3452
  737MOL0     C99403  10.062   5.547   5.266  0.5187  0.0112  0.3788
  737MOL0     C99404   9.949   5.591   5.358  0.0399 -0.4233 -0.2229
  737MOL0    Cl99405   9.818   5.685   5.257 -0.0360  0.2128 -0.0341
  737MOL0     C99406  10.685   4.980   4.787  0.2986 -0.0459  0.1536
  737MOL0     C99407  10.817   4.928   4.754 -0.0722 -0.1609 -0.5788
  737MOL0     O99408  11.097   5.093   4.782 -0.2464 -1.0269 -0.0151
  737MOL0     C99409  11.336   5.035   4.661  0.3307  0.1288  0.0853
  737MOL0     C99410  11.445   5.001   4.586 -0.7220  0.1402  0.0748
  737MOL0     N99411  12.076   5.169   4.422 -0.2787  0.1451  0.3106
  737MOL0     N99412  12.059   5.290   4.372  1.5723  0.0862 -0.6670
  737MOL0     C99413  11.034   5.670   4.925  0.0397 -0.5874 -0.3722
  737MOL0     C99414  10.916   5.686   5.002 -0.5691 -0.0843 -0.2169
  737MOL0     C99415  10.572   5.764   5.265 -0.4099 -0.2422 -0.8904
  737MOL0     C99416  10.560   5.683   5.376 -0.0140  0.7611  0.0248
  737MOL0     C99417  10.448   5.688   5.465  0.3256  0.6281 -0.2457
  737MOL0     C99418  10.350   5.783   5.450 -0.2130 -0.1521 -0.5392
  737MOL0     O99419  10.252   5.804   5.543 -0.3733 -0.5006  0.3589
  737MOL0     C99420  10.264   5.751   5.678  0.6371  0.0746  0.6376
  737MOL0     C99421  10.193   5.620   5.700  0.0007 -0.3904  0.9704
  737MOL0     C99422  10.155   5.580   5.842  0.1597 -0.5153  0.5455
  737MOL0     C99423  10.073   5.453   5.858 -0.8676 -0.4599 -0.0866
  737MOL0     C99424   9.934   5.461   5.795  0.1410  1.0671  0.2772
  737MOL0     C99425   9.816   5.458   5.745  0.0921 -0.6943 -0.5347
  737MOL0     C99426  10.359   5.871   5.343  0.0250  0.5282 -0.3209
  737MOL0     C99427  10.470   5.861   5.251  0.8081  0.2775 -0.9824
  737MOL0     H99428  11.045   5.616   5.313  0.1673  2.6222  0.1423
  737MOL0     H99429  11.253   5.593   5.166  0.0038  0.2644  0.7486
  737MOL0     H99430  11.297   5.433   5.034  1.1505  1.1837  0.4072
  737MOL0     H99431  11.321   5.411   4.857 -1.0048  1.0919 -1.3014
  737MOL0     H99432  11.487   5.600   5.029  1.7711 -0.6672  0.5391
  737MOL0     H99433  11.522   5.432   5.028  0.4569  1.8405  1.3158
  737MOL0     H99434  11.604   5.647   4.855  2.1280 -0.3646 -1.4489
  737MOL0     H99435  11.670   5.482   4.866  0.9520  0.6038 -0.2962
  737MOL0     H99436  11.523   5.409   4.688  2.3900 -0.3841 -1.2884
  737MOL0     H99437  11.447   5.571   4.700  0.1554  0.5891  2.8767
  737MOL0     H99438  11.601   5.535   4.493  0.8331  3.0979 -1.5843
  737MOL0     H99439  11.635   5.677   4.586 -0.0936  0.3742 -2.6391
  737MOL0     H99440  11.842   5.577   4.684  0.2637  2.4808 -0.9423
  737MOL0     H99441  11.794   5.411   4.649  0.7186  0.4981  0.4627
  737MOL0     H99442  11.800   5.478   4.402 -1.5205  2.9643 -1.3188
  737MOL0     H99443  11.834   5.646   4.450 -2.5515 -0.0755 -1.0703
  737MOL0     H99444  12.060   5.577   4.531 -1.0779  1.9854 -0.0157
  737MOL0     H99445  12.028   5.545   4.363  0.4695  3.6472  1.6046
  737MOL0     H99446  12.022   5.326   4.704  0.8107  1.4208  0.0843
  737MOL0     H99447  12.152   4.990   4.636 -0.7126 -3.1598  3.1772
  737MOL0     H99448  12.027   5.074   4.731 -1.7822 -1.2951  0.0659
  737MOL0     H99449  11.951   4.862   4.682 -1.5680 -0.9867 -0.5691
  737MOL0     H99450  11.994   4.873   4.508  0.3427 -0.2265  0.1303
  737MOL0     H99451  11.804   5.006   4.463  4.6268  2.8116  1.2713
  737MOL0     H99452  11.788   5.053   4.633  0.3778  1.0765 -0.2578
  737MOL0     H99453  11.722   4.807   4.689 -0.3862  0.0884  0.7322
  737MOL0     H99454  11.781   4.762   4.530 -1.5380  0.5761 -0.2804
  737MOL0     H99455  11.501   4.696   4.720 -1.4857 -0.1908  0.6967
  737MOL0     H99456  11.376   4.666   4.914  0.6829  0.9540 -1.8767
  737MOL0     H99457  11.233   4.759   4.952 -1.4579  1.3196 -1.1821
  737MOL0     H99458  11.218   4.637   4.828  0.8913 -0.9207  1.0950
  737MOL0     H99459  10.967   4.977   5.056  1.5025 -2.6927 -0.9383
  737MOL0     H99460  10.745   5.036   5.111 -0.1543  1.7169 -0.0571
  737MOL0     H99461  10.473   5.171   4.793 -1.9338 -0.3223 -2.0402
  737MOL0     H99462  10.410   5.002   4.796  1.4811 -0.2651  0.7268
  737MOL0     H99463  10.215   5.159   4.878 -1.6141  0.3574  3.4042
  737MOL0     H99464  10.258   5.035   4.989  0.7615 -0.8988 -1.6386
  737MOL0     H99465  10.332   5.329   4.971  1.4288 -0.9771 -1.1791
  737MOL0     H99466  10.416   5.211   5.094  0.8071  1.1234  1.0323
  737MOL0     H99467  10.132   5.308   5.106  0.1320  0.5503  2.0054
  737MOL0     H99468  10.203   5.199   5.218  0.3171  0.6915  1.7498
  737MOL0     H99469  10.305   5.490   5.175  1.1378  0.9555 -0.0274
  737MOL0     H99470  10.369   5.375   5.286 -0.5598  1.1890 -0.3240
  737MOL0     H99471  10.111   5.366   5.369 -1.4130 -0.7074 -3.2537
  737MOL0     H99472  10.212   5.499   5.423 -0.2732  1.3145 -0.9964
  737MOL0     H99473  10.033   5.486   5.180  1.1091 -2.3222  1.7560
  737MOL0     H99474  10.108   5.635   5.221 -3.4645  0.4708 -3.5612
  737MOL0     H99475   9.992   5.663   5.427 -1.8448  1.8990 -1.3422
  737MOL0     H99476   9.900   5.512   5.416  1.6105 -1.3556 -0.1246
  737MOL0     H99477  10.610   4.986   4.708 -1.4204  3.8308  1.8017
  737MOL0     H99478  10.836   4.896   4.652  3.2547 -3.1361  0.7378
  737MOL0     H99479  11.297   5.133   4.640  2.9416  1.4466  0.8937
  737MOL0     H99480  11.489   5.065   4.510 -0.4113 -0.2380 -0.0688
  737MOL0     H99481  11.004   5.687   4.822 -0.8145 -0.4489 -0.1005
  737MOL0     H99482  10.830   5.699   4.937  1.0335  0.9520 -2.2211
  737MOL0     H99483  10.637   5.607   5.390 -1.1754 -0.6050 -0.7262
  737MOL0     H99484  10.452   5.615   5.545 -1.1445 -0.3651 -1.0468
  737MOL0     H99485  10.366   5.761   5.714  2.0865  0.7781 -3.2329
  737MOL0     H99486  10.206   5.821   5.739 -2.8535 -1.2960 -0.8347
  737MOL0     H99487  10.261   5.542   5.662  3.3590  3.4746 -1.8553
  737MOL0     H99488  10.098   5.622   5.647  1.3025 -1.0986 -1.5721
  737MOL0     H99489  10.088   5.662   5.870 -0.7110 -0.7634 -0.7192
  737MOL0     H99490  10.234   5.558   5.915  1.0285  0.6161 -0.0069
  737MOL0     H99491  10.055   5.413   5.958 -0.4101 -2.3635 -0.7194
  737MOL0     H99492  10.126   5.373   5.806  1.3308  2.2004 -2.2229
  737MOL0     H99493   9.714   5.444   5.713 -0.6684  2.8180 -0.0962
  737MOL0     H99494  10.292   5.957   5.341  0.4940  1.0660  2.8540
  737MOL0     H99495  10.473   5.911   5.155 -0.3951 -3.9156 -3.4708
  738MOL0     O99496   2.607   9.306   5.739 -0.3596 -0.0318  0.0955
  738MOL0     C99497   2.678   9.323   5.641  0.6403  0.1499 -0.2011
  738MOL0     O99498   2.714   9.451   5.605 -0.3302 -0.2421  0.2732
  738MOL0     C99499   2.672   9.560   5.681  0.1360 -0.0592 -0.0704
  738MOL0     C99500   2.582   9.658   5.628 -0.7341 -1.2300  0.8526
  738MOL0     C99501   2.544   9.779   5.702 -0.8882  0.6383  0.1608
  738MOL0     C99502   2.596   9.788   5.833 -0.3377  0.7126  0.2074
  738MOL0     O99503   2.566   9.882   5.919 -0.4429  0.2737  0.1689
  738MOL0     C99504   2.504  10.003   5.869 -0.5262 -0.2138  0.3832
  738MOL0     C99505   2.518  10.117   5.973  0.4512  0.4501  0.4206
  738MOL0     C99506   2.445  10.252   5.934 -0.0317  0.6942 -0.7199
  738MOL0     C99507   2.483  10.315   5.800  0.2564  0.2903  0.9800
  738MOL0     C99508   2.512  10.457   5.813  0.3467 -0.7586  1.6820
  738MOL0     C99509   2.637  10.490   5.890  0.4035 -0.1490 -0.0326
  738MOL0     C99510   2.761  10.488   5.792  0.6301 -0.4127 -0.4932
  738MOL0     C99511   2.890  10.519   5.876 -0.2314 -0.3725 -0.2752
  738MOL0     N99512   3.014  10.472   5.816  0.4651  0.0188  0.4708
  738MOL0     C99513   3.092  10.358   5.842 -0.0031 -0.3027  0.3119
  738MOL0     C99514   3.186  10.355   5.746  0.1948  0.0388  0.7582
  738MOL0     C99515   3.296  10.254   5.741  0.4466 -0.2549  0.2850
  738MOL0     C99516   3.285  10.170   5.610  1.2627 -0.4486 -0.0102
  738MOL0     C99517   3.282  10.242   5.477  0.1115 -1.0524  0.2293
  738MOL0     C99518   3.313  10.132   5.375  0.3830 -0.0334  0.4002
  738MOL0     O99519   3.202  10.036   5.362 -0.0910  0.1058 -0.4080
  738MOL0     C99520   3.193   9.913   5.414 -0.2244 -0.5248  0.3808
  738MOL0     C99521   3.065   9.844   5.404 -0.1667  0.0717 -0.1359
  738MOL0     C99522   3.049   9.719   5.456  0.0942 -0.2871  0.9610
  738MOL0     C99523   2.906   9.675   5.452 -0.0920  0.0672 -0.2730
  738MOL0     C99524   3.162   9.641   5.500 -0.8061  0.2257 -0.3526
  738MOL0     C99525   3.159   9.499   5.513 -0.6088 -0.4697  0.0547
  738MOL0     O99526   3.069   9.421   5.448 -1.2812 -0.2981  0.1988
  738MOL0     C99527   3.082   9.286   5.465  0.6867  0.7013  0.1346
  738MOL0     C99528   3.129   9.205   5.355 -0.2933 -0.6984 -0.5983
  738MOL0     C99529   3.136   9.070   5.360  0.4994  0.1327 -0.2525
  738MOL0     C99530   3.106   8.997   5.482 -0.2974 -0.6706  0.6224
  738MOL0     O99531   3.089   8.862   5.488  0.3875 -0.1302 -0.6147
  738MOL0     C99532   3.137   8.781   5.380 -0.4700 -0.0960 -0.3007
  738MOL0     C99533   3.130   8.643   5.423  1.0749 -0.2339  0.2110
  738MOL0     C99534   3.198   8.544   5.328  0.8374  0.0994  0.4133
  738MOL0     C99535   3.346   8.539   5.332 -0.4857  1.1278 -0.0666
  738MOL0     C99536   3.415   8.474   5.206 -0.1145 -0.2932 -1.1498
  738MOL0     C99537   3.558   8.426   5.236  0.3745 -0.4258  0.3329
  738MOL0     C99538   3.628   8.368   5.113  0.6363 -0.2189 -0.9629
  738MOL0     C99539   3.755   8.292   5.141  0.1689 -0.3428  0.2028
  738MOL0    Cl99540   3.877   8.406   5.215  0.3725 -0.0695 -0.2908
  738MOL0     C99541   3.062   9.078   5.589 -0.0050  0.8713 -0.7481
  738MOL0     C99542   3.056   9.215   5.586  0.5689 -0.7647  0.4085
  738MOL0     O99543   3.229   9.462   5.614  0.2926 -0.4856  0.6522
  738MOL0     C99544   3.277   9.710   5.530 -0.0504  0.2096  0.2617
  738MOL0     C99545   3.298   9.838   5.476  0.8046 -0.0249  1.0265
  738MOL0     N99546   3.168  10.463   5.658 -0.0838 -0.5762  0.6901
  738MOL0     N99547   3.067  10.530   5.701  0.2140  0.5658 -0.7825
  738MOL0     C99548   2.687   9.690   5.879  0.0428 -1.3404 -0.7635
  738MOL0     C99549   2.726   9.586   5.805  0.0427  0.2718  0.5580
  738MOL0     C99550   2.713   9.210   5.564 -0.6453 -0.0723  0.1721
  738MOL0     C99551   2.759   9.225   5.431  0.3698 -0.2408 -0.1870
  738MOL0     C99552   2.765   9.113   5.349  0.0117  0.9829 -0.7769
  738MOL0     C99553   2.730   8.984   5.390  0.7499  0.5959 -0.5700
  738MOL0     O99554   2.733   8.878   5.308 -0.5458 -0.9446  0.0247
  738MOL0     C99555   2.808   8.879   5.186 -1.6480  0.7974  0.5448
  738MOL0     C99556   2.832   8.722   5.171 -0.3246 -0.4386 -0.5820
  738MOL0     C99557   2.909   8.670   5.058  0.0579 -0.2018 -0.5409
  738MOL0     C99558   2.944   8.526   5.032  0.1876  1.0969 -0.8413
  738MOL0     C99559   3.018   8.532   4.907  0.6132 -0.0514 -0.2354
  738MOL0     C99560   3.067   8.565   4.801  0.6272 -0.1187 -0.1979
  738MOL0     C99561   2.690   8.963   5.527 -0.7161 -0.8644  0.7331
  738MOL0     C99562   2.696   9.075   5.610  0.4051 -0.0438 -0.2844
  738MOL0     H99563   2.558   9.651   5.522  0.6657 -0.4946  0.4615
  738MOL0     H99564   2.469   9.840   5.653 -0.8179  1.5573  1.1670
  738MOL0     H99565   2.555  10.036   5.778  1.6683  1.5321  2.1202
  738MOL0     H99566   2.400   9.983   5.843 -0.6088  0.7978 -0.1044
  738MOL0     H99567   2.486  10.091   6.074 -1.0519 -1.7945 -0.5621
  738MOL0     H99568   2.627  10.129   5.984  0.6903 -0.6973 -0.5104
  738MOL0     H99569   2.339  10.231   5.921  0.4768 -0.8962 -2.7266
  738MOL0     H99570   2.455  10.316   6.022 -0.4879 -1.7684  1.2662
  738MOL0     H99571   2.566  10.259   5.755 -1.7801  0.4307 -3.4193
  738MOL0     H99572   2.407  10.294   5.725  2.4147  0.4544 -1.4062
  738MOL0     H99573   2.527  10.495   5.712 -5.7788  1.7700  1.3067
  738MOL0     H99574   2.419  10.501   5.849 -0.7706 -0.5409 -1.2218
  738MOL0     H99575   2.625  10.589   5.937  2.5820  0.0503  0.2086
  738MOL0     H99576   2.643  10.413   5.967  0.9982  0.8808  0.9904
  738MOL0     H99577   2.765  10.386   5.753 -0.6874 -0.5394 -0.3439
  738MOL0     H99578   2.761  10.556   5.706  0.1050  0.9764  0.5796
  738MOL0     H99579   2.880  10.478   5.977  2.0845 -0.9096 -0.2151
  738MOL0     H99580   2.907  10.626   5.883  2.4875 -0.8250  1.8717
  738MOL0     H99581   3.087  10.289   5.925 -2.9572  0.5306  0.9457
  738MOL0     H99582   3.397  10.296   5.740  1.9116 -3.4787 -0.8086
  738MOL0     H99583   3.296  10.191   5.831 -1.7832  1.5061  1.6238
  738MOL0     H99584   3.193  10.113   5.622 -0.8800  2.4938 -1.3953
  738MOL0     H99585   3.372  10.103   5.614  0.4228 -1.5278  3.1088
  738MOL0     H99586   3.357  10.321   5.487 -0.1235 -0.9793  1.5765
  738MOL0     H99587   3.182  10.283   5.460  0.6595 -0.6804 -2.4967
  738MOL0     H99588   3.406  10.081   5.402  0.3638  0.2471  1.0197
  738MOL0     H99589   3.341  10.165   5.274  0.2613 -3.5398 -0.9007
  738MOL0     H99590   2.977   9.892   5.363 -2.1740 -3.3638 -0.2063
  738MOL0     H99591   2.876   9.640   5.353 -0.2044 -1.6983  0.3499
  738MOL0     H99592   2.892   9.586   5.515 -1.8853 -0.7349 -1.7006
  738MOL0     H99593   2.834   9.751   5.482 -0.1558  0.1992 -0.7471
  738MOL0     H99594   3.154   9.262   5.266 -1.7123  0.2326 -0.4336
  738MOL0     H99595   3.177   9.026   5.270  0.4037  1.1597 -0.8139
  738MOL0     H99596   3.090   8.801   5.283  0.1553  1.6696 -0.2627
  738MOL0     H99597   3.242   8.792   5.350  0.0343 -4.1242 -0.5603
  738MOL0     H99598   3.179   8.623   5.519  3.3033 -1.8523 -1.1535
  738MOL0     H99599   3.026   8.609   5.425  1.3210 -1.3091 -1.9765
  738MOL0     H99600   3.168   8.555   5.223 -1.3791 -2.0044  0.7522
  738MOL0     H99601   3.161   8.448   5.364  0.2961 -0.0344 -0.4709
  738MOL0     H99602   3.382   8.643   5.331 -0.0626  0.9808 -0.4275
  738MOL0     H99603   3.385   8.499   5.426 -2.3087 -0.2500  0.1402
  738MOL0     H99604   3.407   8.545   5.123 -0.8176  1.1867  0.1313
  738MOL0     H99605   3.361   8.383   5.176  1.8582 -2.4114  1.1681
  738MOL0     H99606   3.619   8.499   5.289 -0.3829 -1.4691  2.7625
  738MOL0     H99607   3.548   8.344   5.308  3.4325  1.1896  2.8321
  738MOL0     H99608   3.651   8.449   5.043 -0.3309 -0.1588 -1.2217
  738MOL0     H99609   3.555   8.295   5.075 -2.9058  2.7684 -0.4886
  738MOL0     H99610   3.796   8.271   5.042 -0.2643  3.3202 -0.9055
  738MOL0     H99611   3.752   8.200   5.200  0.3191  0.9782  2.3845
  738MOL0     H99612   3.032   9.015   5.672  3.2772  0.7381  0.4935
  738MOL0     H99613   3.012   9.268   5.670 -1.7640 -0.8789 -0.6857
  738MOL0     H99614   3.365   9.657   5.566  0.3183  2.4485  2.9339
  738MOL0     H99615   3.403   9.868   5.474  2.5077 -4.9088 -2.0135
  738MOL0     H99616   2.730   9.705   5.978 -2.8790  1.9385  0.2168
  738MOL0     H99617   2.791   9.515   5.856  1.6343  2.1793  1.3183
  738MOL0     H99618   2.771   9.321   5.382 -4.1305 -0.8468 -3.0820
  738MOL0     H99619   2.792   9.132   5.245  2.4790  0.8295 -0.2239
  738MOL0     H99620   2.757   8.923   5.100 -0.2079 -1.1960 -1.4576
  738MOL0     H99621   2.904   8.929   5.197 -2.7026  3.4316 -1.3073
  738MOL0     H99622   2.738   8.667   5.178 -0.3016 -0.7318 -2.1889
  738MOL0     H99623   2.888   8.688   5.258 -0.5306 -2.1823 -1.0773
  738MOL0     H99624   3.005   8.722   5.055  0.9305 -1.7175 -0.2736
  738MOL0     H99625   2.844   8.703   4.977  1.7281 -0.2592 -1.9730
  738MOL0     H99626   2.851   8.470   5.018 -1.3024  3.9100 -3.6776
  738MOL0     H99627   3.001   8.485   5.115 -2.2614 -0.8192  0.0040
  738MOL0     H99628   3.131   8.610   4.729  1.2373 -2.2256 -1.0597
  738MOL0     H99629   2.658   8.868   5.569 -3.4065  0.7630  2.6921
  738MOL0     H99630   2.663   9.063   5.713  1.0902 -0.4736 -0.1128
  739MOL0     O99631  10.749  10.675   5.313  0.4596  0.1925  0.3838
  739MOL0     C99632  10.826  10.589   5.353 -0.5635  0.6882  0.4514
  739MOL0     O99633  10.807  10.459   5.336  0.0697 -0.3527  0.2808
  739MOL0     C99634  10.703  10.417   5.261 -0.3163  0.0184  0.0682
  739MOL0     C99635  10.580  10.453   5.304 -0.3018 -0.2153  0.4983
  739MOL0     C99636  10.470  10.389   5.251 -0.9962  0.0040 -1.4721
  739MOL0     C99637  10.482  10.309   5.142  1.0410  0.2459  0.8859
  739MOL0     O99638  10.367  10.266   5.090  0.1476  0.1014 -0.3025
  739MOL0     C99639  10.368  10.251   4.953 -0.7957 -0.6230 -0.0414
  739MOL0     C99640  10.227  10.274   4.906 -0.4321 -0.3906  0.4837
  739MOL0     C99641  10.232  10.307   4.761  0.9161 -0.2008  0.8171
  739MOL0     C99642  10.084  10.325   4.712 -0.3684 -0.2624  0.2565
  739MOL0     C99643  10.093  10.335   4.553 -0.2445 -0.2402  0.9053
  739MOL0     C99644  10.087  10.195   4.495 -0.5487  0.1787  0.2321
  739MOL0     C99645  10.145  10.195   4.355 -0.3587 -0.2994  0.2802
  739MOL0     C99646  10.110  10.071   4.278  0.0161  1.0542 -0.1707
  739MOL0     N99647  10.188  10.066   4.152 -0.3523 -0.6501 -0.2825
  739MOL0     C99648  10.320  10.040   4.143 -0.2025  0.5703 -0.0611
  739MOL0     C99649  10.351  10.071   4.013  0.5901  0.3319 -0.8539
  739MOL0     C99650  10.479  10.076   3.944 -0.3232 -0.4372  0.3166
  739MOL0     C99651  10.535   9.935   3.904 -0.7291  0.2712 -0.5951
  739MOL0     C99652  10.684   9.922   3.934 -0.0294 -0.3431  0.0789
  739MOL0     C99653  10.710   9.932   4.089  0.0409  0.2456  1.0258
  739MOL0     O99654  10.840   9.878   4.119 -0.1378 -0.3179 -0.6573
  739MOL0     C99655  10.959   9.950   4.106 -0.0473 -0.1136 -0.6649
  739MOL0     C99656  11.066   9.868   4.134 -0.2082  0.7513  0.6488
  739MOL0     C99657  11.188   9.915   4.138 -0.4510  0.9190 -1.1171
  739MOL0     C99658  11.295   9.836   4.196 -0.7619 -0.3221 -0.6223
  739MOL0     C99659  11.209  10.048   4.089 -0.5990  0.1594  0.4819
  739MOL0     C99660  11.355  10.105   4.066  0.8183  0.6470  0.9765
  739MOL0     O99661  11.366  10.207   3.981  0.2050 -0.4868  0.1878
  739MOL0     C99662  11.482  10.276   3.966  0.5404  1.1880  0.2240
  739MOL0     C99663  11.479  10.408   4.021  0.4934 -0.7743 -0.8347
  739MOL0     C99664  11.592  10.497   4.004 -0.3527  0.5181 -0.3819
  739MOL0     C99665  11.708  10.437   3.936 -0.2353  0.4323  0.4929
  739MOL0     O99666  11.827  10.509   3.909 -0.0520 -0.4054 -0.1078
  739MOL0     C99667  11.856  10.616   4.004  0.4427  0.0761  0.3942
  739MOL0     C99668  11.952  10.718   3.947 -0.1709 -0.0900  1.2029
  739MOL0     C99669  11.960  10.849   4.015  0.1712 -0.0714 -0.0913
  739MOL0     C99670  12.060  10.945   3.943 -0.0936 -0.6711 -0.7720
  739MOL0     C99671  12.013  11.021   3.814 -0.2097  0.9502 -0.0679
  739MOL0     C99672  12.142  11.092   3.749  0.0984 -0.3984 -0.4716
  739MOL0     C99673  12.117  11.146   3.607  0.5021  0.6858 -0.0450
  739MOL0     C99674  12.240  11.226   3.555  0.1004  0.3522  0.0999
  739MOL0    Cl99675  12.387  11.145   3.579  0.5252  0.1647 -0.1718
  739MOL0     C99676  11.706  10.306   3.893 -0.0261  0.3688 -0.2086
  739MOL0     C99677  11.593  10.229   3.904 -0.0733 -0.4269 -0.2870
  739MOL0     O99678  11.449  10.063   4.135 -0.3608  0.5233 -0.5435
  739MOL0     C99679  11.099  10.130   4.050  0.6433  0.0567 -0.9733
  739MOL0     C99680  10.972  10.080   4.060 -0.4582 -0.4076  0.6959
  739MOL0     N99681  10.230  10.113   3.951  0.2303  0.3476 -0.2149
  739MOL0     N99682  10.134  10.100   4.032 -0.7442  0.1254 -0.5245
  739MOL0     C99683  10.607  10.278   5.089 -0.4781  0.3522  0.4235
  739MOL0     C99684  10.721  10.326   5.152 -0.5158 -0.2703 -0.1037
  739MOL0     C99685  10.928  10.640   5.451 -0.4952  0.0870 -0.2619
  739MOL0     C99686  10.928  10.775   5.500 -0.1542 -0.9320  0.3776
  739MOL0     C99687  11.033  10.812   5.591 -0.2422 -0.0227  1.1154
  739MOL0     C99688  11.119  10.719   5.651 -1.2419 -0.7236 -0.5130
  739MOL0     O99689  11.206  10.753   5.745  0.0022 -0.3150 -0.0367
  739MOL0     C99690  11.218  10.683   5.867  0.5220  0.5254  0.7646
  739MOL0     C99691  11.273  10.774   5.975  0.3442  0.2332  0.0105
  739MOL0     C99692  11.170  10.884   6.007 -0.0215  0.0012 -0.7477
  739MOL0     C99693  11.051  10.842   6.098 -0.2447  0.0762  0.4346
  739MOL0     C99694  10.996  10.964   6.164 -0.5254 -0.3410 -0.3106
  739MOL0     C99695  10.924  11.049   6.204  0.0407  0.4520  0.5929
  739MOL0     C99696  11.109  10.586   5.608 -0.2174  0.3961  0.3508
  739MOL0     C99697  11.015  10.548   5.509  0.1564  0.2796 -0.7652
  739MOL0     H99698  10.569  10.515   5.392  1.5198 -1.4958  1.6842
  739MOL0     H99699  10.377  10.404   5.304  0.6502  1.0931  1.3183
  739MOL0     H99700  10.435  10.324   4.906 -1.8042  0.1160 -0.3653
  739MOL0     H99701  10.396  10.152   4.916 -0.4930 -1.2362  1.7248
  739MOL0     H99702  10.172  10.180   4.912  2.5514 -2.2985 -0.1095
  739MOL0     H99703  10.189  10.360   4.963  2.8433  1.3262  0.2866
  739MOL0     H99704  10.286  10.400   4.742  0.6811 -0.3388 -0.6764
  739MOL0     H99705  10.281  10.225   4.709 -3.2996 -1.8905 -1.0240
  739MOL0     H99706  10.011  10.247   4.737 -3.1990  1.0826 -2.9676
  739MOL0     H99707  10.036  10.414   4.754 -3.1941 -0.2650 -2.5731
  739MOL0     H99708  10.015  10.403   4.519  1.5278  2.3252  1.6496
  739MOL0     H99709  10.179  10.390   4.514 -1.7787  0.4443 -1.8106
  739MOL0     H99710  10.133  10.111   4.548  0.2922 -1.2679 -2.5529
  739MOL0     H99711   9.981  10.175   4.482 -0.8401  1.2040  0.9101
  739MOL0     H99712  10.103  10.285   4.308  0.4579 -0.2247 -0.3281
  739MOL0     H99713  10.253  10.207   4.360 -0.3274 -0.3297 -0.2087
  739MOL0     H99714  10.003  10.072   4.260 -0.2765  1.5879  1.4751
  739MOL0     H99715  10.133   9.984   4.340 -1.1245  0.7375 -0.1846
  739MOL0     H99716  10.390  10.041   4.227 -2.6702  1.1577  2.1416
  739MOL0     H99717  10.465  10.135   3.853 -2.8343  0.6935  1.3288
  739MOL0     H99718  10.550  10.131   4.008 -1.2529 -0.3273  1.2918
  739MOL0     H99719  10.521   9.924   3.796  0.6580  5.6711 -1.6283
  739MOL0     H99720  10.487   9.850   3.954 -0.2917  0.7475  0.6573
  739MOL0     H99721  10.744   9.996   3.880 -1.0562  1.5982  1.5064
  739MOL0     H99722  10.725   9.825   3.902  0.7599  0.1528 -0.4567
  739MOL0     H99723  10.636   9.864   4.131  1.7490 -2.8271 -0.6016
  739MOL0     H99724  10.699  10.035   4.126  1.1547  1.7220 -2.3650
  739MOL0     H99725  11.049   9.767   4.171 -0.6612  0.2497 -0.8825
  739MOL0     H99726  11.379   9.824   4.127  0.9791 -1.0934  1.5088
  739MOL0     H99727  11.334   9.885   4.286 -0.6772 -0.4360 -0.5982
  739MOL0     H99728  11.252   9.741   4.227 -0.5308  0.5552  2.8324
  739MOL0     H99729  11.385  10.443   4.060  0.3766 -0.4258 -1.4228
  739MOL0     H99730  11.586  10.602   4.031 -2.0272  0.2893  0.2714
  739MOL0     H99731  11.766  10.673   4.028 -0.3893 -1.4802  1.1928
  739MOL0     H99732  11.911  10.573   4.089  1.6363  2.2760  0.7987
  739MOL0     H99733  12.052  10.676   3.937  0.3276  1.5855 -4.0188
  739MOL0     H99734  11.936  10.746   3.842  1.4507 -2.0905  0.3602
  739MOL0     H99735  12.013  10.836   4.109 -0.7749  3.8922  1.1548
  739MOL0     H99736  11.864  10.900   4.018 -1.0547 -2.1140 -1.8803
  739MOL0     H99737  12.062  11.030   4.013  2.1768 -0.3716 -1.1313
  739MOL0     H99738  12.162  10.907   3.937  1.2300  2.6446 -1.6856
  739MOL0     H99739  11.929  11.080   3.852 -1.4808 -1.3599  0.9780
  739MOL0     H99740  11.966  10.950   3.745  1.9180 -0.2394 -0.3773
  739MOL0     H99741  12.174  11.174   3.814  2.5325 -1.3220 -0.4206
  739MOL0     H99742  12.230  11.027   3.754  0.9508  0.7822  0.9106
  739MOL0     H99743  12.027  11.208   3.604  2.5520  4.0026  0.6331
  739MOL0     H99744  12.096  11.061   3.541  2.1489 -0.4884  0.8711
  739MOL0     H99745  12.238  11.317   3.616 -0.8586 -1.0600  2.3164
  739MOL0     H99746  12.220  11.254   3.451  0.4011 -2.3831 -0.7686
  739MOL0     H99747  11.792  10.269   3.839  0.9880  2.0764  0.1813
  739MOL0     H99748  11.593  10.134   3.851 -1.1842 -0.0573 -1.0101
  739MOL0     H99749  11.111  10.227   4.003  3.0528  0.1131 -0.3767
  739MOL0     H99750  10.888  10.144   4.033  0.1614 -0.5232 -1.7513
  739MOL0     H99751  10.612  10.218   4.999 -2.0903  3.1844 -1.7441
  739MOL0     H99752  10.817  10.285   5.125  0.3279  0.0385  2.1617
  739MOL0     H99753  10.864  10.857   5.469 -0.2964 -2.0672 -2.7700
  739MOL0     H99754  11.053  10.915   5.616 -0.2238  0.1289  0.5027
  739MOL0     H99755  11.125  10.634   5.894  1.0523  0.6417  2.9818
  739MOL0     H99756  11.294  10.604   5.856 -0.8974 -0.8299  0.4344
  739MOL0     H99757  11.366  10.821   5.942  1.7808 -1.8281  0.9115
  739MOL0     H99758  11.307  10.716   6.061  0.9059 -0.4728 -0.6613
  739MOL0     H99759  11.125  10.926   5.917 -0.4768 -0.9120 -0.9588
  739MOL0     H99760  11.219  10.962   6.066 -0.2566 -1.5846  1.6824
  739MOL0     H99761  11.086  10.767   6.170  2.7912  2.1660  1.3573
  739MOL0     H99762  10.980  10.795   6.030 -1.6260  1.5172  0.8207
  739MOL0     H99763  10.851  11.123   6.233 -1.9516 -0.9872 -0.5183
  739MOL0     H99764  11.173  10.514   5.657 -1.1932 -1.8194 -1.4295
  739MOL0     H99765  11.013  10.443   5.481  0.7171  0.2633 -0.7570
  740MOL0     O99766   8.920   5.580   0.901  0.9833 -0.6988 -0.0595
  740MOL0     C99767   9.008   5.642   0.839  0.2351  1.1810  1.8377
  740MOL0     O99768   9.035   5.773   0.836 -0.1447 -0.1791  0.3671
  740MOL0     C99769   8.958   5.866   0.916 -1.5798  0.0764  0.0492
  740MOL0     C99770   9.028   5.963   0.997  0.1526 -0.6879 -0.2254
  740MOL0     C99771   8.951   6.050   1.086  0.6376  0.2562  0.2096
  740MOL0     C99772   8.817   6.030   1.104  0.6217  0.1154 -0.0890
  740MOL0     O99773   8.751   6.100   1.205  0.2793  0.0597  0.5320
  740MOL0     C99774   8.764   6.045   1.340  0.0815  0.4498  0.5024
  740MOL0     C99775   8.656   5.939   1.368  0.3094  0.7413 -0.5461
  740MOL0     C99776   8.518   5.988   1.406  0.2687  0.0357 -0.1341
  740MOL0     C99777   8.444   5.885   1.488  0.6378 -0.5936  0.0140
  740MOL0     C99778   8.293   5.893   1.484 -0.0414 -0.0885  0.8991
  740MOL0     C99779   8.227   5.811   1.597  0.2886 -0.1695 -0.2702
  740MOL0     C99780   8.306   5.674   1.620 -0.1269  0.0723  0.0026
  740MOL0     C99781   8.213   5.566   1.673 -0.2699 -0.3404 -0.3424
  740MOL0     N99782   8.286   5.439   1.674  0.1700 -0.2806  0.9063
  740MOL0     C99783   8.278   5.341   1.768  0.4393  0.3676  0.4674
  740MOL0     C99784   8.363   5.242   1.724  0.7219 -0.6674 -0.5029
  740MOL0     C99785   8.394   5.109   1.777 -0.6920  0.2191 -0.0596
  740MOL0     C99786   8.292   5.017   1.719  0.5187  0.9374  0.4778
  740MOL0     C99787   8.306   4.873   1.766 -0.2725  0.5087  1.1948
  740MOL0     C99788   8.430   4.797   1.704  0.7802 -0.5834 -0.4714
  740MOL0     O99789   8.538   4.822   1.796  0.6492  0.4961 -0.5306
  740MOL0     C99790   8.638   4.734   1.804 -0.9499 -0.2735  0.7083
  740MOL0     C99791   8.692   4.663   1.686  0.5409 -0.1195  0.1524
  740MOL0     C99792   8.807   4.582   1.691  0.1536 -0.1035 -1.1762
  740MOL0     C99793   8.845   4.501   1.565  0.3071 -1.1470 -0.5142
  740MOL0     C99794   8.889   4.574   1.814 -0.1979 -0.0328  0.5860
  740MOL0     C99795   9.018   4.501   1.831 -0.3798  0.2011 -0.2408
  740MOL0     O99796   9.069   4.446   1.726 -0.3335 -1.0930 -0.3825
  740MOL0     C99797   9.164   4.342   1.749  0.1474  0.6153  0.4091
  740MOL0     C99798   9.108   4.221   1.707 -0.4619  0.5218  0.6387
  740MOL0     C99799   9.188   4.107   1.697  1.4245 -0.9892  0.4908
  740MOL0     C99800   9.319   4.114   1.734 -0.2951  0.6411 -0.7458
  740MOL0     O99801   9.390   3.994   1.717 -0.3484  0.1510 -0.6296
  740MOL0     C99802   9.525   3.988   1.743  0.1928  0.9380  0.6994
  740MOL0     C99803   9.575   3.853   1.715  0.3002 -0.9592  0.0644
  740MOL0     C99804   9.728   3.833   1.767  0.0246 -0.4531 -0.1103
  740MOL0     C99805   9.748   3.855   1.920  0.0547 -0.1803  0.2405
  740MOL0     C99806   9.899   3.859   1.958 -0.4260 -0.3136  0.4141
  740MOL0     C99807   9.980   3.990   1.915  0.2129  0.8239 -0.6021
  740MOL0     C99808  10.134   3.970   1.955  0.0293 -0.3680 -0.0610
  740MOL0     C99809  10.217   4.089   1.934  0.6978 -0.3981  0.0621
  740MOL0    Cl99810  10.230   4.110   1.756 -0.1855 -0.1878  0.2274
  740MOL0     C99811   9.369   4.232   1.788 -0.1148 -0.4017 -0.0145
  740MOL0     C99812   9.295   4.350   1.792  0.6387  1.2512  1.0706
  740MOL0     O99813   9.047   4.472   1.944  0.3788  0.1094  0.3399
  740MOL0     C99814   8.836   4.648   1.917 -0.8229  0.5349 -0.4441
  740MOL0     C99815   8.720   4.730   1.919 -0.3212  1.3139 -0.0846
  740MOL0     N99816   8.422   5.282   1.608 -0.2694 -0.1436 -0.1471
  740MOL0     N99817   8.372   5.396   1.581  0.4597  0.9041  0.2443
  740MOL0     C99818   8.750   5.933   1.016 -0.4053 -0.3512 -0.5185
  740MOL0     C99819   8.819   5.854   0.923 -0.3760  0.0594 -0.6549
  740MOL0     C99820   9.089   5.555   0.750 -1.2467  0.1831 -0.0797
  740MOL0     C99821   9.179   5.600   0.647  0.5794  0.4999  0.0838
  740MOL0     C99822   9.258   5.509   0.578  0.7279 -0.6568 -0.2706
  740MOL0     C99823   9.249   5.372   0.598 -0.0221 -0.8540 -0.5473
  740MOL0     O99824   9.324   5.289   0.519  0.0323 -0.4519 -0.3495
  740MOL0     C99825   9.398   5.186   0.588 -0.8268 -0.1363  0.5327
  740MOL0     C99826   9.531   5.239   0.631  0.2767  0.5359 -0.2200
  740MOL0     C99827   9.624   5.279   0.522  1.1256 -0.0921  0.5780
  740MOL0     C99828   9.739   5.362   0.578 -0.0813  0.2600  0.3170
  740MOL0     C99829   9.843   5.374   0.476  0.9696  0.5249 -0.5051
  740MOL0     C99830   9.920   5.390   0.386 -0.3024 -0.4198  0.2347
  740MOL0     C99831   9.153   5.332   0.689 -0.1695 -0.1835 -1.1205
  740MOL0     C99832   9.085   5.414   0.773  0.4722 -0.2435  0.2630
  740MOL0     H99833   9.137   5.967   0.989  0.1234 -2.2606 -1.9275
  740MOL0     H99834   8.990   6.135   1.140 -0.9302 -0.0320  1.9018
  740MOL0     H99835   8.865   6.004   1.353  0.0440  0.2334  0.1246
  740MOL0     H99836   8.769   6.127   1.413  0.4556  1.5892 -0.7636
  740MOL0     H99837   8.654   5.863   1.290  1.5525 -1.1339  1.1460
  740MOL0     H99838   8.698   5.898   1.461  1.0522  2.2414 -0.1734
  740MOL0     H99839   8.523   6.083   1.461 -0.3385  0.9252 -1.5579
  740MOL0     H99840   8.465   6.016   1.315  0.7050  1.5411  0.0422
  740MOL0     H99841   8.481   5.786   1.461  0.5739 -1.1174  1.6865
  740MOL0     H99842   8.477   5.899   1.592  0.6185 -0.8821  0.0590
  740MOL0     H99843   8.258   5.997   1.488  1.2970  0.3457  1.7829
  740MOL0     H99844   8.272   5.849   1.386  1.9636  1.7162 -0.4370
  740MOL0     H99845   8.216   5.864   1.692 -1.7645  0.7883 -0.9870
  740MOL0     H99846   8.126   5.800   1.558  0.3179 -0.9668 -0.1482
  740MOL0     H99847   8.347   5.631   1.529  2.0756  1.1456  0.4307
  740MOL0     H99848   8.389   5.691   1.689  0.0685  4.0152 -0.9794
  740MOL0     H99849   8.125   5.547   1.611 -0.0216 -2.3556 -0.1485
  740MOL0     H99850   8.178   5.593   1.773  1.5927  0.6397  0.0881
  740MOL0     H99851   8.210   5.355   1.851 -1.4472  0.2849 -0.9756
  740MOL0     H99852   8.492   5.084   1.734  0.8691  1.2827  2.5772
  740MOL0     H99853   8.412   5.118   1.885  1.7767 -0.1920 -0.3601
  740MOL0     H99854   8.282   5.016   1.610 -2.1115  2.5527  0.6235
  740MOL0     H99855   8.194   5.048   1.757 -1.9767 -0.0122 -4.3180
  740MOL0     H99856   8.211   4.827   1.740 -0.4476 -1.0765  4.1297
  740MOL0     H99857   8.304   4.869   1.876 -0.9704  2.0461  1.2648
  740MOL0     H99858   8.460   4.843   1.609 -0.6733 -1.8720 -1.6085
  740MOL0     H99859   8.407   4.690   1.699  0.2584 -0.4064 -2.9545
  740MOL0     H99860   8.630   4.668   1.596 -0.7936 -1.3492  0.9611
  740MOL0     H99861   8.938   4.550   1.535  0.2954 -1.1207 -0.5083
  740MOL0     H99862   8.850   4.392   1.578  1.9551 -0.7694  3.0624
  740MOL0     H99863   8.765   4.498   1.490 -0.3521 -0.0002  0.1091
  740MOL0     H99864   9.007   4.225   1.668  0.4750 -0.5216 -2.1350
  740MOL0     H99865   9.152   4.019   1.644  0.3975  0.1902 -0.8912
  740MOL0     H99866   9.588   4.056   1.684  3.6268 -2.6736 -0.2819
  740MOL0     H99867   9.527   4.002   1.852  0.2493 -0.8792  0.9506
  740MOL0     H99868   9.514   3.775   1.761 -3.1230  0.0056 -2.4123
  740MOL0     H99869   9.574   3.843   1.606 -2.0854  0.0046 -0.0685
  740MOL0     H99870   9.792   3.905   1.715 -2.3666 -0.9347 -4.2268
  740MOL0     H99871   9.759   3.732   1.738  0.8459 -0.1621 -0.2586
  740MOL0     H99872   9.690   3.939   1.959 -0.1338 -0.2064  0.0130
  740MOL0     H99873   9.694   3.771   1.966 -0.9460  1.5462  2.4440
  740MOL0     H99874   9.948   3.772   1.913  0.5209  0.0369  0.7489
  740MOL0     H99875   9.905   3.859   2.067 -0.9133 -2.2788  0.4885
  740MOL0     H99876   9.966   4.007   1.808 -1.1150 -0.2511 -0.6230
  740MOL0     H99877   9.948   4.085   1.959 -0.9086 -0.9856  2.8571
  740MOL0     H99878  10.186   3.883   1.913  0.6064 -0.6015  1.0875
  740MOL0     H99879  10.137   3.957   2.063  1.7659 -1.2705 -0.1804
  740MOL0     H99880  10.318   4.082   1.975  0.8844 -0.0070 -0.3166
  740MOL0     H99881  10.173   4.180   1.976  2.1458  1.0955 -1.4701
  740MOL0     H99882   9.466   4.243   1.837 -0.4815  0.7595  0.4832
  740MOL0     H99883   9.334   4.446   1.822  0.4614  2.2576 -1.6206
  740MOL0     H99884   8.894   4.652   2.009  0.4626  3.0597 -1.2568
  740MOL0     H99885   8.708   4.778   2.015 -1.5464  1.0361 -0.0807
  740MOL0     H99886   8.641   5.928   1.018 -0.4595  0.6649 -0.5185
  740MOL0     H99887   8.762   5.782   0.866 -0.1925 -0.4088 -0.2501
  740MOL0     H99888   9.166   5.699   0.604 -2.0850 -0.5638 -1.8259
  740MOL0     H99889   9.327   5.547   0.503 -0.8916 -0.8249 -1.8975
  740MOL0     H99890   9.344   5.145   0.673 -1.0750 -0.1779  0.3587
  740MOL0     H99891   9.431   5.104   0.524  4.1812 -0.2616  2.8623
  740MOL0     H99892   9.569   5.147   0.677 -0.5749  1.2573  2.0842
  740MOL0     H99893   9.510   5.315   0.707 -2.8046  0.3003 -0.6895
  740MOL0     H99894   9.573   5.330   0.439 -1.2909  0.3168  2.1858
  740MOL0     H99895   9.663   5.185   0.484  3.4989  0.9254  0.3249
  740MOL0     H99896   9.777   5.313   0.668  0.4600 -2.3874 -1.2240
  740MOL0     H99897   9.699   5.461   0.602  0.5953  0.8108 -0.7304
  740MOL0     H99898   9.997   5.410   0.315 -2.2603  1.4380 -1.4992
  740MOL0     H99899   9.136   5.226   0.704  1.4184 -0.3310 -0.1051
  740MOL0     H99900   9.030   5.359   0.849  0.1394 -0.3586 -0.0651
  741MOL0     O99901   7.461  10.191   4.636 -0.3943 -0.3260  0.0453
  741MOL0     C99902   7.450  10.161   4.752 -0.0981  0.2322  0.2290
  741MOL0     O99903   7.426  10.035   4.800 -0.2803  0.2666 -0.3904
  741MOL0     C99904   7.413   9.927   4.715 -0.2604  0.5365 -0.0053
  741MOL0     C99905   7.290   9.850   4.708 -0.0727  0.1653  0.0706
  741MOL0     C99906   7.278   9.744   4.626  0.1092  0.0494 -1.0537
  741MOL0     C99907   7.384   9.693   4.551 -0.4625  0.1009  0.0169
  741MOL0     O99908   7.407   9.596   4.461 -0.0846 -0.0549 -0.2481
  741MOL0     C99909   7.305   9.508   4.441 -0.1198  0.0485  1.2929
  741MOL0     C99910   7.271   9.414   4.559 -0.9848 -0.6534  0.5355
  741MOL0     C99911   7.147   9.338   4.531  0.7618 -0.4513  0.3139
  741MOL0     C99912   7.116   9.253   4.652  0.4963 -0.4896 -0.9968
  741MOL0     C99913   6.991   9.158   4.625  0.9662 -0.4838  0.2882
  741MOL0     C99914   6.941   9.102   4.755  0.0088 -0.2852 -0.9186
  741MOL0     C99915   6.845   8.986   4.738 -0.0917  0.4661  0.0834
  741MOL0     C99916   6.719   9.032   4.650  0.4477 -0.3224  0.1544
  741MOL0     N99917   6.608   8.936   4.652  0.0683 -0.5319 -0.1832
  741MOL0     C99918   6.505   8.947   4.735  0.0071  0.4171 -0.4758
  741MOL0     C99919   6.430   8.848   4.704 -0.3958  0.9823 -0.0780
  741MOL0     C99920   6.301   8.810   4.785 -0.7777 -0.3503  0.2267
  741MOL0     C99921   6.321   8.674   4.846  0.2586  0.4876 -0.8747
  741MOL0     C99922   6.416   8.674   4.967  0.0988 -0.1857  0.0054
  741MOL0     C99923   6.375   8.764   5.084  1.3510 -0.0349  0.1702
  741MOL0     O99924   6.433   8.719   5.210  0.3142  0.1112 -0.4648
  741MOL0     C99925   6.560   8.742   5.243 -0.4453  0.0639  0.8839
  741MOL0     C99926   6.606   8.878   5.230  1.0726 -0.0449  1.0330
  741MOL0     C99927   6.741   8.916   5.261 -0.7284 -0.2946 -0.1552
  741MOL0     C99928   6.779   9.053   5.220 -0.5738  0.6007  0.2221
  741MOL0     C99929   6.828   8.815   5.315 -0.0926  0.2775  0.2721
  741MOL0     C99930   6.975   8.839   5.344 -1.1308 -0.4336 -0.4271
  741MOL0     O99931   7.054   8.731   5.362  0.4979  0.4323  0.0553
  741MOL0     C99932   7.190   8.737   5.380 -0.0125  0.6812 -0.8625
  741MOL0     C99933   7.253   8.624   5.341 -0.0305 -0.0589  0.3660
  741MOL0     C99934   7.397   8.607   5.335  0.0662 -0.2614  0.1016
  741MOL0     C99935   7.472   8.689   5.410 -0.6891 -0.6074 -0.4171
  741MOL0     O99936   7.600   8.640   5.428  0.2557 -0.1104 -0.1326
  741MOL0     C99937   7.714   8.728   5.454  0.1124 -0.2701 -0.8866
  741MOL0     C99938   7.843   8.655   5.499  0.3108 -0.8761  0.4124
  741MOL0     C99939   7.836   8.541   5.605 -0.5113 -0.5172  0.1018
  741MOL0     C99940   7.931   8.423   5.571  0.6178 -0.3168  0.2605
  741MOL0     C99941   7.903   8.294   5.654 -1.0776  0.0805 -0.5339
  741MOL0     C99942   7.923   8.312   5.803  0.8200  0.7473 -0.2340
  741MOL0     C99943   8.069   8.335   5.843 -0.2833 -0.4142  0.0863
  741MOL0     C99944   8.083   8.354   6.003 -0.3129  0.3133  0.5641
  741MOL0    Cl99945   8.108   8.192   6.076  0.3559  0.4779  0.4385
  741MOL0     C99946   7.411   8.804   5.460  1.0694  0.8290 -1.0447
  741MOL0     C99947   7.272   8.833   5.432  0.5969  0.3112  0.3538
  741MOL0     O99948   7.027   8.953   5.337  0.4131 -0.5832  0.4502
  741MOL0     C99949   6.776   8.679   5.340  0.1784 -0.3939 -0.2801
  741MOL0     C99950   6.640   8.655   5.321 -0.5776 -0.0439  0.4681
  741MOL0     N99951   6.484   8.784   4.591  0.1798 -0.2687 -0.3087
  741MOL0     N99952   6.601   8.833   4.568  0.2943  0.0228  0.7660
  741MOL0     C99953   7.497   9.767   4.564  0.9294  0.9699  0.4045
  741MOL0     C99954   7.512   9.882   4.634  0.4111 -0.0198 -0.5162
  741MOL0     C99955   7.441  10.278   4.835 -1.0621  0.4696 -0.1252
  741MOL0     C99956   7.460  10.410   4.795 -0.4623  0.0154 -0.2388
  741MOL0     C99957   7.451  10.526   4.885  0.2222  0.5714 -0.2073
  741MOL0     C99958   7.421  10.500   5.020  0.5508 -0.5744  0.0246
  741MOL0     O99959   7.394  10.604   5.111 -0.9630  0.0814  0.3022
  741MOL0     C99960   7.334  10.725   5.063  0.4255 -0.1336 -0.0704
  741MOL0     C99961   7.326  10.827   5.181 -0.2060  0.1607  0.1740
  741MOL0     C99962   7.458  10.836   5.260 -0.0141  0.9235 -0.0381
  741MOL0     C99963   7.457  10.934   5.377 -0.0936  0.5231 -0.0687
  741MOL0     C99964   7.418  11.064   5.325  0.3070 -0.1512  0.3244
  741MOL0     C99965   7.409  11.185   5.299  0.2376 -0.0569 -0.4231
  741MOL0     C99966   7.415  10.372   5.061  0.2462 -0.5389  0.1535
  741MOL0     C99967   7.431  10.263   4.974 -0.1451 -0.4664  0.4250
  741MOL0     H99968   7.205   9.887   4.765 -1.7499 -0.0580 -2.1651
  741MOL0     H99969   7.178   9.708   4.604 -0.8019  1.1086  1.0678
  741MOL0     H99970   7.217   9.569   4.420  0.6065  0.4773 -0.7721
  741MOL0     H99971   7.329   9.444   4.356 -2.4616  0.1119  0.4952
  741MOL0     H99972   7.352   9.348   4.590 -0.2043  0.1786  0.3199
  741MOL0     H99973   7.260   9.475   4.649  0.8372  0.4336  0.0708
  741MOL0     H99974   7.056   9.397   4.512  1.8574  1.7449  1.4367
  741MOL0     H99975   7.167   9.265   4.452 -3.9238  1.3823 -3.0008
  741MOL0     H99976   7.209   9.196   4.657  0.8754  0.0955 -1.1979
  741MOL0     H99977   7.088   9.315   4.737 -3.8316  1.1360 -3.3152
  741MOL0     H99978   6.903   9.215   4.595  1.2276 -0.7216 -1.0052
  741MOL0     H99979   7.019   9.077   4.557 -1.3410 -1.1873  0.0842
  741MOL0     H99980   7.028   9.079   4.817  1.5985 -1.1047 -3.3240
  741MOL0     H99981   6.894   9.180   4.816 -2.9243 -2.3544 -0.3004
  741MOL0     H99982   6.903   8.904   4.692  0.4161  1.4014 -1.0050
  741MOL0     H99983   6.804   8.957   4.834 -2.2336  0.3551 -0.8158
  741MOL0     H99984   6.743   9.043   4.544 -0.1541  0.9264  0.1371
  741MOL0     H99985   6.692   9.133   4.680  2.1894 -0.0116  0.7757
  741MOL0     H99986   6.496   9.016   4.819  3.4430 -1.4823  1.7018
  741MOL0     H99987   6.256   8.887   4.848  0.3249  1.6019 -1.2340
  741MOL0     H99988   6.227   8.810   4.704 -2.5920 -4.6883  1.6297
  741MOL0     H99989   6.356   8.605   4.768 -0.7834 -0.4366 -0.5422
  741MOL0     H99990   6.219   8.645   4.871  0.6931 -0.6588 -0.3934
  741MOL0     H99991   6.522   8.693   4.953  0.8849 -2.3916  2.1322
  741MOL0     H99992   6.415   8.567   4.992  1.3434 -0.7185 -1.9996
  741MOL0     H99993   6.268   8.759   5.106  1.7873  1.0976  2.9684
  741MOL0     H99994   6.399   8.868   5.063 -1.6212  0.9278  1.0632
  741MOL0     H99995   6.546   8.954   5.181  1.8532 -0.0900 -0.0141
  741MOL0     H99996   6.808   9.116   5.304 -0.3702  1.7727 -0.6981
  741MOL0     H99997   6.871   9.042   5.161 -0.9164 -2.9927  0.1477
  741MOL0     H99998   6.697   9.103   5.168 -2.5066 -1.5492  1.0260
  741MOL0     H99999   7.188   8.545   5.303  0.3293 -0.6153  0.8878
  741MOL0     H    0   7.440   8.509   5.316 -3.7458 -1.9190 -0.9362
  741MOL0     H    1   7.732   8.788   5.365  2.3240 -0.1392 -0.4047
  741MOL0     H    2   7.690   8.797   5.535  0.7303 -1.6669  0.5353
  741MOL0     H    3   7.883   8.613   5.406 -2.1750 -0.4977 -0.9270
  741MOL0     H    4   7.907   8.738   5.531 -0.5789  0.1977 -0.4841
  741MOL0     H    5   7.734   8.503   5.605 -1.0477  0.7744 -1.6949
  741MOL0     H    6   7.872   8.590   5.696  3.3871 -2.3175 -0.2457
  741MOL0     H    7   7.933   8.393   5.465  0.8873  3.0578 -0.8103
  741MOL0     H    8   8.033   8.460   5.583  1.0738 -1.8072  1.3033
  741MOL0     H    9   7.959   8.205   5.624 -0.7667 -0.4852  1.5557
  741MOL0     H   10   7.801   8.260   5.636 -1.3855  1.4447 -1.4508
  741MOL0     H   11   7.849   8.381   5.845 -2.2639 -0.9699 -2.3792
  741MOL0     H   12   7.891   8.217   5.846  0.0810  1.6816  1.3922
  741MOL0     H   13   8.112   8.418   5.787  1.3471 -0.2073  1.5356
  741MOL0     H   14   8.135   8.248   5.833  1.6140  1.1606 -2.4122
  741MOL0     H   15   7.995   8.400   6.049 -0.1117 -0.5336  1.8523
  741MOL0     H   16   8.172   8.417   6.014  1.5626 -1.3359 -3.2711
  741MOL0     H   17   7.469   8.875   5.519  0.8788  0.0240  0.1415
  741MOL0     H   18   7.228   8.928   5.460  0.2357  0.4648 -0.7113
  741MOL0     H   19   6.833   8.604   5.393  0.1879  1.2797  2.2400
  741MOL0     H   20   6.603   8.561   5.360 -1.0108  0.6474  1.7558
  741MOL0     H   21   7.580   9.730   4.505 -0.3144 -2.6278  0.6863
  741MOL0     H   22   7.604   9.937   4.613  0.1544  0.5186 -0.2675
  741MOL0     H   23   7.481  10.435   4.692 -0.3434  2.7276  0.3774
  741MOL0     H   24   7.483  10.625   4.855 -2.5221  1.3090 -1.0208
  741MOL0     H   25   7.399  10.776   4.991  1.0776 -0.6505  0.1426
  741MOL0     H   26   7.235  10.725   5.016  0.6545  2.5661 -0.7077
  741MOL0     H   27   7.252  10.789   5.253  2.3752 -0.7429  2.5537
  741MOL0     H   28   7.301  10.925   5.141  1.1640  0.2187 -0.5638
  741MOL0     H   29   7.542  10.849   5.191  1.3959 -3.5378  0.4406
  741MOL0     H   30   7.475  10.734   5.297  0.6483  0.8116 -0.6336
  741MOL0     H   31   7.557  10.943   5.420 -0.0714 -1.9019  0.5205
  741MOL0     H   32   7.378  10.904   5.446 -0.0717 -0.8687 -0.6171
  741MOL0     H   33   7.414  11.290   5.277  1.7402  0.2472  1.1683
  741MOL0     H   34   7.412  10.341   5.165  1.6532  0.5430  0.5547
  741MOL0     H   35   7.435  10.159   5.006  0.0992 -0.6205 -0.0826
  742MOL0     O   36   3.438   7.669   3.499  0.2147 -0.7925 -0.1001
  742MOL0     C   37   3.457   7.794   3.502  0.0926 -0.2721 -0.2892
  742MOL0     O   38   3.574   7.854   3.528 -0.2112  0.4838 -0.0129
  742MOL0     C   39   3.688   7.782   3.537  0.1799  0.9061  1.0101
  742MOL0     C   40   3.712   7.666   3.615  0.0558 -0.2487  0.1012
  742MOL0     C   41   3.839   7.605   3.638  0.8655 -1.3297 -0.8365
  742MOL0     C   42   3.945   7.671   3.585  0.0700  0.4366  0.5587
  742MOL0     O   43   4.072   7.631   3.601  0.3051  0.1559 -0.3148
  742MOL0     C   44   4.106   7.496   3.583 -0.7826  1.5125 -0.5661
  742MOL0     C   45   4.263   7.484   3.595  0.5301  0.2443 -0.0248
  742MOL0     C   46   4.340   7.500   3.465 -0.3497 -0.4856 -0.1415
  742MOL0     C   47   4.367   7.649   3.452  1.1070 -0.7089  0.4919
  742MOL0     C   48   4.422   7.681   3.314  0.1003 -0.1705 -0.1062
  742MOL0     C   49   4.443   7.833   3.295 -0.4153 -0.2251  0.1239
  742MOL0     C   50   4.523   7.918   3.401  0.3531  0.0455 -0.4329
  742MOL0     C   51   4.673   7.849   3.403 -0.8413 -1.1374 -0.6415
  742MOL0     N   52   4.769   7.942   3.472 -0.2632  0.4845 -0.8693
  742MOL0     C   53   4.893   7.897   3.510 -0.6736  0.8718  0.1614
  742MOL0     C   54   4.961   8.006   3.528  0.3421 -0.1632 -0.0717
  742MOL0     C   55   5.102   8.021   3.562 -0.8676 -0.4681 -0.5324
  742MOL0     C   56   5.129   8.068   3.714  0.5626  0.8561  0.3102
  742MOL0     C   57   5.272   8.023   3.757 -0.5288  0.1359 -0.4314
  742MOL0     C   58   5.313   8.104   3.878  0.1104 -0.1387  0.1175
  742MOL0     O   59   5.300   8.240   3.852 -0.2189 -0.8850 -0.3621
  742MOL0     C   60   5.248   8.318   3.955 -0.4481 -0.2848  0.4697
  742MOL0     C   61   5.321   8.337   4.070 -0.3784  0.4769 -0.0766
  742MOL0     C   62   5.276   8.432   4.176 -0.0383 -0.5829  1.1194
  742MOL0     C   63   5.368   8.442   4.297 -0.1425  0.2152 -0.2224
  742MOL0     C   64   5.138   8.489   4.156  0.0041  0.1139 -0.5867
  742MOL0     C   65   5.066   8.568   4.254  0.5108  0.3739 -0.2351
  742MOL0     O   66   4.931   8.585   4.228 -0.6156 -0.3741 -0.1387
  742MOL0     C   67   4.841   8.597   4.333 -0.9831 -0.8483  1.1087
  742MOL0     C   68   4.856   8.560   4.470  0.3316 -0.0195  0.0441
  742MOL0     C   69   4.751   8.584   4.566  0.0631 -0.2727  1.0340
  742MOL0     C   70   4.631   8.643   4.527  0.0859 -0.5818 -0.2131
  742MOL0     O   71   4.525   8.664   4.606  0.1206 -0.4372 -0.8792
  742MOL0     C   72   4.521   8.619   4.740  0.0480 -0.7098  0.1565
  742MOL0     C   73   4.390   8.549   4.777 -0.8812  0.5393  0.6109
  742MOL0     C   74   4.383   8.515   4.928  1.1975  0.5948 -0.9603
  742MOL0     C   75   4.269   8.415   4.946  0.7214  0.0418 -0.3410
  742MOL0     C   76   4.329   8.271   4.928 -0.9120  0.5861  0.0269
  742MOL0     C   77   4.214   8.160   4.917 -0.1435 -0.9771  0.0272
  742MOL0     C   78   4.130   8.154   5.049  0.5453  0.2128  0.2481
  742MOL0     C   79   4.038   8.025   5.029  0.3882 -0.6695 -0.5801
  742MOL0    Cl   80   3.909   8.064   4.918 -0.1455  0.1044 -0.1840
  742MOL0     C   81   4.618   8.680   4.393 -0.5503 -0.5062 -0.7923
  742MOL0     C   82   4.718   8.662   4.297  0.1154  0.7324 -0.1998
  742MOL0     O   83   5.124   8.599   4.360 -0.2154  0.2453 -0.6393
  742MOL0     C   84   5.071   8.462   4.031  0.5835 -0.8732  0.0469
  742MOL0     C   85   5.137   8.389   3.930  0.1962  0.4523 -0.4644
  742MOL0     N   86   4.874   8.120   3.513  0.5749 -1.0668 -0.6180
  742MOL0     N   87   4.763   8.077   3.468 -0.2740 -0.4970  0.3189
  742MOL0     C   88   3.926   7.787   3.504 -0.5969  0.0968  0.1606
  742MOL0     C   89   3.802   7.845   3.492  0.1129 -0.3946 -0.3113
  742MOL0     C   90   3.342   7.889   3.492 -0.0341 -0.5670  0.4202
  742MOL0     C   91   3.362   8.030   3.506  0.2017 -0.2975  0.1673
  742MOL0     C   92   3.255   8.111   3.517  0.2813  0.0290 -0.2997
  742MOL0     C   93   3.123   8.063   3.510  0.2159 -0.9251  0.7102
  742MOL0     O   94   3.017   8.148   3.520 -0.5222  0.2968  0.1952
  742MOL0     C   95   2.887   8.097   3.557 -0.4207  0.3542 -0.2156
  742MOL0     C   96   2.812   8.208   3.639 -0.1992  0.5195  0.4364
  742MOL0     C   97   2.658   8.169   3.673  0.0675  0.8627  1.1001
  742MOL0     C   98   2.593   8.232   3.791  0.4209 -0.2767  0.4986
  742MOL0     C   99   2.620   8.170   3.923  0.5542 -0.1654 -0.3124
  742MOL0     C  100   2.618   8.113   4.027  0.0251 -0.9639 -0.8073
  742MOL0     C  101   3.102   7.927   3.487  0.7848  0.5074  0.1876
  742MOL0     C  102   3.210   7.839   3.488 -0.8904  0.2041  0.9998
  742MOL0     H  103   3.620   7.620   3.649 -1.0824  0.6079 -1.6241
  742MOL0     H  104   3.836   7.514   3.697 -1.2978 -0.1391  1.0088
  742MOL0     H  105   4.058   7.438   3.663  2.5558 -3.4098 -1.6594
  742MOL0     H  106   4.086   7.438   3.492  0.0383 -2.5027  1.5562
  742MOL0     H  107   4.281   7.574   3.655  0.0648 -0.5348  1.3181
  742MOL0     H  108   4.291   7.395   3.652  0.6076 -0.3507 -0.9646
  742MOL0     H  109   4.434   7.445   3.480 -0.1649 -0.1664 -0.1336
  742MOL0     H  110   4.290   7.454   3.379 -2.0953 -1.2180  1.2091
  742MOL0     H  111   4.270   7.698   3.447  0.3104 -2.2916 -0.2769
  742MOL0     H  112   4.425   7.688   3.536 -0.8366 -0.5809  1.8189
  742MOL0     H  113   4.522   7.638   3.303  0.4445 -0.0462  2.1047
  742MOL0     H  114   4.360   7.633   3.237 -2.0268  1.2599  0.6127
  742MOL0     H  115   4.490   7.849   3.198  0.9127  0.6517  0.8841
  742MOL0     H  116   4.342   7.875   3.300 -0.4594 -0.4600  1.4610
  742MOL0     H  117   4.526   8.026   3.384 -1.5666  0.4322  1.2842
  742MOL0     H  118   4.476   7.913   3.499 -1.7277 -1.7660 -1.4070
  742MOL0     H  119   4.700   7.835   3.298  1.8958 -1.6998  0.0763
  742MOL0     H  120   4.680   7.746   3.439  0.9245 -1.5798 -2.1337
  742MOL0     H  121   4.922   7.792   3.502  0.5599  1.2966 -1.3509
  742MOL0     H  122   5.146   7.922   3.550 -0.0121 -0.1929  0.2242
  742MOL0     H  123   5.145   8.085   3.484  1.8219  0.2301  1.3946
  742MOL0     H  124   5.056   8.033   3.787 -2.4054 -0.5744 -3.0300
  742MOL0     H  125   5.123   8.176   3.705  0.8000  1.0208  1.8872
  742MOL0     H  126   5.345   8.051   3.681 -0.0951 -0.5929 -0.2978
  742MOL0     H  127   5.287   7.916   3.775  1.5072 -0.1580 -3.1919
  742MOL0     H  128   5.416   8.075   3.900  0.6102  1.9482  0.7487
  742MOL0     H  129   5.266   8.069   3.970  1.8091 -1.5646  0.5084
  742MOL0     H  130   5.420   8.290   4.070  0.6442  2.3987 -2.2761
  742MOL0     H  131   5.468   8.422   4.256 -0.6681  1.3434 -2.1792
  742MOL0     H  132   5.373   8.543   4.338  1.7213 -0.6298  1.8428
  742MOL0     H  133   5.332   8.372   4.373  0.4813 -2.3885 -2.1697
  742MOL0     H  134   4.949   8.511   4.497  1.1224 -0.0114 -2.3995
  742MOL0     H  135   4.788   8.565   4.666 -0.8150 -1.3803  1.1710
  742MOL0     H  136   4.600   8.546   4.760  0.4649  0.0659  1.4659
  742MOL0     H  137   4.552   8.705   4.801 -0.2932  1.5700 -2.6484
  742MOL0     H  138   4.300   8.602   4.746 -0.9373 -0.2538 -0.6792
  742MOL0     H  139   4.403   8.459   4.716 -1.8608  0.0190  1.1384
  742MOL0     H  140   4.368   8.613   4.973  3.5062 -0.1769  1.7675
  742MOL0     H  141   4.477   8.472   4.964  1.0587  2.1956  1.6070
  742MOL0     H  142   4.215   8.428   5.040  3.9877  0.2522  1.6563
  742MOL0     H  143   4.192   8.438   4.872 -1.5354  1.2624  2.2244
  742MOL0     H  144   4.380   8.242   5.020 -3.3014  2.6769  2.1714
  742MOL0     H  145   4.396   8.272   4.841 -3.4225  3.4460 -2.0909
  742MOL0     H  146   4.148   8.185   4.833  3.0708  2.1023 -1.8466
  742MOL0     H  147   4.254   8.065   4.880  0.6690 -1.4995  2.1221
  742MOL0     H  148   4.075   8.246   5.068  1.1021  0.6278 -0.1272
  742MOL0     H  149   4.187   8.123   5.137 -2.2178  0.5979  2.3184
  742MOL0     H  150   4.002   7.993   5.127  1.9598 -1.6328 -0.2780
  742MOL0     H  151   4.101   7.941   4.998  0.3211 -0.4375 -1.3746
  742MOL0     H  152   4.531   8.733   4.356 -0.4814  0.1519 -0.0219
  742MOL0     H  153   4.702   8.696   4.196  2.6434  1.4082 -0.4338
  742MOL0     H  154   4.973   8.503   4.011  1.5025  1.8960  0.7768
  742MOL0     H  155   5.089   8.385   3.832 -0.1535  0.5569 -0.2975
  742MOL0     H  156   4.016   7.836   3.468 -1.7088  2.5356  0.4595
  742MOL0     H  157   3.787   7.941   3.443 -1.4505  0.3552  1.4796
  742MOL0     H  158   3.463   8.065   3.527  1.0426 -1.5514 -1.5434
  742MOL0     H  159   3.261   8.215   3.550  2.8880 -1.0849  3.4218
  742MOL0     H  160   2.838   8.074   3.462  1.1641 -0.7260 -0.8268
  742MOL0     H  161   2.883   8.005   3.617  4.7735  0.5418  0.8875
  742MOL0     H  162   2.805   8.306   3.590  0.0823 -0.3932 -1.5014
  742MOL0     H  163   2.863   8.224   3.735  2.0938  1.6306 -0.8848
  742MOL0     H  164   2.650   8.060   3.681  0.7821  0.4764 -1.9228
  742MOL0     H  165   2.601   8.187   3.581  1.7579  1.0025  0.0315
  742MOL0     H  166   2.488   8.251   3.770  0.9410  1.3835 -0.9467
  742MOL0     H  167   2.653   8.324   3.787  1.8916 -1.2431 -1.8314
  742MOL0     H  168   2.617   8.045   4.109  1.4501 -0.5097 -0.3820
  742MOL0     H  169   3.004   7.882   3.472  2.1496 -2.8483  0.3087
  742MOL0     H  170   3.193   7.734   3.466 -1.5760  0.4114  0.5122
  743MOL0     O  171   0.511   8.093   1.772  0.3324  0.5330 -0.3368
  743MOL0     C  172   0.621   8.125   1.719 -0.3973 -0.0769 -0.1593
  743MOL0     O  173   0.644   8.242   1.650  0.2671 -0.2011  0.2531
  743MOL0     C  174   0.546   8.339   1.645 -0.4326  1.5399  0.1097
  743MOL0     C  175   0.542   8.439   1.739  0.1122  0.2506 -0.2029
  743MOL0     C  176   0.441   8.532   1.740 -0.5901 -0.0164  0.5388
  743MOL0     C  177   0.343   8.531   1.644 -0.2995 -0.6248 -0.5573
  743MOL0     O  178   0.243   8.625   1.655 -0.2211 -0.2253 -0.7326
  743MOL0     C  179   0.176   8.640   1.535  0.1960 -0.9959 -0.4256
  743MOL0     C  180   0.072   8.739   1.572 -0.3182 -0.4545 -0.0407
  743MOL0     C  181   0.110   8.879   1.611 -0.2045  0.2781  0.1448
  743MOL0     C  182   0.189   8.956   1.505 -1.4442 -0.4937  0.2826
  743MOL0     C  183   0.223   9.097   1.554 -0.3876 -0.9429  1.0160
  743MOL0     C  184   0.275   9.176   1.421  1.4489  0.2594 -0.0803
  743MOL0     C  185   0.163   9.254   1.348  0.2040 -0.0303 -0.6947
  743MOL0     C  186   0.219   9.365   1.254 -0.2406  0.0243 -1.0350
  743MOL0     N  187   0.114   9.464   1.230  0.5847  0.2823  0.0103
  743MOL0     C  188   0.062   9.554   1.316 -0.2159  0.5795 -0.1229
  743MOL0     C  189  -0.028   9.623   1.245 -0.5112  0.5935 -0.0181
  743MOL0     C  190  -0.120   9.728   1.311 -0.1243 -0.9228  0.4320
  743MOL0     C  191  -0.215   9.795   1.207 -0.2611  0.2672 -0.9012
  743MOL0     C  192  -0.266   9.942   1.234 -0.2508  0.2121  0.0827
  743MOL0     C  193  -0.161  10.045   1.280 -0.3861  0.2921  0.0583
  743MOL0     O  194  -0.085  10.085   1.169 -0.5651  0.0666  0.1677
  743MOL0     C  195   0.028  10.146   1.185 -0.1312 -0.6303  0.0198
  743MOL0     C  196   0.107  10.172   1.072  0.1330 -0.1607  0.0543
  743MOL0     C  197   0.229  10.239   1.068 -0.3747  0.2810 -0.1385
  743MOL0     C  198   0.281  10.276   0.938 -0.1877  0.1324  0.3097
  743MOL0     C  199   0.284  10.281   1.194  0.4091  0.6568 -0.7577
  743MOL0     C  200   0.412  10.348   1.213  0.8393  1.1010  0.7185
  743MOL0     O  201   0.412  10.440   1.311 -0.3840  0.6919  0.1411
  743MOL0     C  202   0.521  10.526   1.305  0.0241  0.0581 -0.5096
  743MOL0     C  203   0.606  10.528   1.416  0.5230  0.4713 -0.1337
  743MOL0     C  204   0.724  10.606   1.416 -0.0242  0.4632 -0.6829
  743MOL0     C  205   0.750  10.689   1.299  0.2595  0.0128 -0.8045
  743MOL0     O  206   0.862  10.770   1.289  0.2089 -0.3754 -0.1150
  743MOL0     C  207   0.985  10.758   1.362  0.8746  0.0389  0.3428
  743MOL0     C  208   1.029  10.880   1.446  0.0063  0.6727  0.8952
  743MOL0     C  209   0.934  10.902   1.567  0.5336  0.2152  1.0158
  743MOL0     C  210   0.977  10.816   1.683 -0.0147  0.6163  0.3707
  743MOL0     C  211   0.887  10.828   1.800  0.5255  0.6362 -0.4055
  743MOL0     C  212   0.906  10.973   1.873 -0.3056 -0.2710 -0.4368
  743MOL0     C  213   0.811  10.999   1.995 -0.0778 -0.0916 -0.1305
  743MOL0     C  214   0.664  11.025   1.945 -0.0621 -0.3008  0.2937
  743MOL0    Cl  215   0.665  11.176   1.846 -0.1532 -0.0431  0.3924
  743MOL0     C  216   0.654  10.700   1.204  0.7433 -0.6472 -0.9868
  743MOL0     C  217   0.548  10.622   1.205  0.2145  0.3543  0.6976
  743MOL0     O  218   0.506  10.286   1.161 -0.7317 -0.4344  0.1826
  743MOL0     C  219   0.209  10.253   1.312  0.8478 -0.0604 -1.2267
  743MOL0     C  220   0.084  10.184   1.311  1.6463 -0.3282  0.1382
  743MOL0     N  221  -0.042   9.570   1.118 -0.1177  0.2447  0.0020
  743MOL0     N  222   0.041   9.470   1.114  0.3066  0.1254 -0.7213
  743MOL0     C  223   0.337   8.426   1.553  0.2293 -0.0491  0.4325
  743MOL0     C  224   0.442   8.331   1.552 -0.1946  0.5816  0.6005
  743MOL0     C  225   0.730   8.023   1.727  0.1563 -0.1363  0.7786
  743MOL0     C  226   0.859   8.048   1.672  0.2791 -0.7739  0.3412
  743MOL0     C  227   0.958   7.949   1.687 -0.7138  0.2324 -0.7905
  743MOL0     C  228   0.943   7.839   1.769  0.6275 -0.5114  0.0270
  743MOL0     O  229   1.047   7.745   1.778  0.6602 -0.7109  0.3354
  743MOL0     C  230   1.030   7.628   1.858 -0.4539  0.6009 -0.6468
  743MOL0     C  231   1.135   7.525   1.835 -0.4808 -0.3640  0.5317
  743MOL0     C  232   1.146   7.416   1.936 -0.1963  0.0626 -0.3681
  743MOL0     C  233   1.019   7.326   1.935  0.1024 -0.0763 -0.4758
  743MOL0     C  234   1.053   7.185   1.955 -0.8234  0.6803 -0.1771
  743MOL0     C  235   1.086   7.070   1.957 -0.6296  0.2027  0.4114
  743MOL0     C  236   0.820   7.821   1.823 -0.0682 -0.0650 -0.0931
  743MOL0     C  237   0.714   7.916   1.806  0.0010 -0.2095  0.0027
  743MOL0     H  238   0.632   8.443   1.799 -1.0776  4.7682  1.6709
  743MOL0     H  239   0.450   8.615   1.810 -0.1967 -0.5549  1.1361
  743MOL0     H  240   0.237   8.666   1.448  2.5932  0.5550  1.5770
  743MOL0     H  241   0.113   8.553   1.512 -1.9741  0.6718 -1.1879
  743MOL0     H  242   0.009   8.760   1.484  3.1806  1.4752 -2.3416
  743MOL0     H  243   0.014   8.694   1.653 -3.5547  3.4998  0.1938
  743MOL0     H  244   0.017   8.930   1.638 -0.6077 -0.1462 -0.4215
  743MOL0     H  245   0.172   8.870   1.701 -2.3802  0.8020  1.8120
  743MOL0     H  246   0.275   8.896   1.474 -1.8370  0.4387 -2.8926
  743MOL0     H  247   0.136   8.965   1.410 -1.5260  3.1898  0.5619
  743MOL0     H  248   0.147   9.156   1.606 -0.1081 -1.2269  1.7517
  743MOL0     H  249   0.299   9.085   1.631  1.4160  2.0243 -0.1234
  743MOL0     H  250   0.349   9.250   1.454 -0.8379  3.2003 -1.1154
  743MOL0     H  251   0.325   9.106   1.353  0.2897 -1.0762  0.3951
  743MOL0     H  252   0.106   9.180   1.291 -1.0075  0.4745 -0.1748
  743MOL0     H  253   0.093   9.300   1.418 -0.3789  1.5549 -2.2650
  743MOL0     H  254   0.274   9.337   1.164  2.1500  1.2610 -0.0580
  743MOL0     H  255   0.298   9.414   1.312  0.7924 -0.7144 -1.7911
  743MOL0     H  256   0.076   9.566   1.423  0.2494  1.0614 -0.2346
  743MOL0     H  257  -0.177   9.683   1.393 -0.5267 -0.9422  0.1423
  743MOL0     H  258  -0.040   9.799   1.335 -0.4003  0.4299 -2.2578
  743MOL0     H  259  -0.287   9.719   1.173  3.0956 -2.7911 -1.7852
  743MOL0     H  260  -0.135   9.821   1.138  2.7643 -2.8547  1.0850
  743MOL0     H  261  -0.344   9.940   1.310 -2.5528  1.9926 -2.0938
  743MOL0     H  262  -0.319   9.974   1.144  0.1168 -4.8821 -2.2918
  743MOL0     H  263  -0.091  10.002   1.352 -3.1252 -0.0755  2.6747
  743MOL0     H  264  -0.214  10.129   1.327 -1.1052 -0.7489  1.1626
  743MOL0     H  265   0.078  10.126   0.978  0.9415 -0.0425 -0.2570
  743MOL0     H  266   0.256  10.380   0.913 -0.0026  0.6200  2.0215
  743MOL0     H  267   0.390  10.263   0.940 -0.1703  0.2785  0.3502
  743MOL0     H  268   0.239  10.208   0.863  0.4188 -0.9474  0.9285
  743MOL0     H  269   0.591  10.448   1.488  2.0620 -0.0891 -0.4053
  743MOL0     H  270   0.798  10.620   1.495 -0.9830  0.5091  0.2376
  743MOL0     H  271   0.985  10.668   1.424 -3.4175  0.1417  0.8033
  743MOL0     H  272   1.059  10.750   1.281  0.9034  0.2164  0.3497
  743MOL0     H  273   1.135  10.866   1.466  0.5563  1.7865 -0.9428
  743MOL0     H  274   1.020  10.964   1.376 -3.2794  1.0626  1.6441
  743MOL0     H  275   0.829  10.883   1.542  1.2833 -1.4929 -1.1541
  743MOL0     H  276   0.937  11.007   1.597  0.6326  1.1514 -2.0170
  743MOL0     H  277   0.982  10.708   1.662  0.4957  0.4405  1.3491
  743MOL0     H  278   1.079  10.841   1.714  0.2205  0.4696 -0.2746
  743MOL0     H  279   0.911  10.754   1.877  0.1560 -0.1628 -1.0446
  743MOL0     H  280   0.786  10.818   1.759  0.3759  0.5866 -0.0242
  743MOL0     H  281   1.006  10.991   1.913 -0.0371  1.4194 -1.7546
  743MOL0     H  282   0.883  11.053   1.802 -0.3779 -0.8601 -1.0868
  743MOL0     H  283   0.848  11.084   2.053  0.6741  1.0982 -2.2132
  743MOL0     H  284   0.804  10.910   2.058 -0.7441 -1.9279 -2.5989
  743MOL0     H  285   0.592  11.031   2.028 -1.9404 -2.4160 -1.0933
  743MOL0     H  286   0.622  10.937   1.896 -3.8611  0.7630  1.3336
  743MOL0     H  287   0.681  10.768   1.124  0.3467  1.7548  0.8364
  743MOL0     H  288   0.487  10.620   1.115  0.3102 -2.6616  0.6069
  743MOL0     H  289   0.230  10.289   1.412 -0.2758 -0.2575 -0.9007
  743MOL0     H  290   0.015  10.173   1.394 -1.9662  2.3304 -2.1869
  743MOL0     H  291   0.250   8.403   1.492  1.8057 -0.3550 -1.8083
  743MOL0     H  292   0.455   8.246   1.485 -0.2623  1.6481 -0.8045
  743MOL0     H  293   0.869   8.143   1.621 -1.1972  0.5456  2.3222
  743MOL0     H  294   1.057   7.959   1.643  0.1534  0.2865  1.0479
  743MOL0     H  295   1.041   7.641   1.966 -1.9545 -0.3520 -0.3572
  743MOL0     H  296   0.928   7.589   1.852  0.0653 -0.5467 -3.2295
  743MOL0     H  297   1.222   7.591   1.847 -1.7959  1.7799 -0.9759
  743MOL0     H  298   1.139   7.494   1.730  0.2630  1.3887  0.0053
  743MOL0     H  299   1.157   7.471   2.030  0.8414 -0.2533 -0.2951
  743MOL0     H  300   1.235   7.355   1.918 -0.0754 -0.7041  2.3565
  743MOL0     H  301   0.958   7.332   1.845 -1.0438 -0.0749  0.2664
  743MOL0     H  302   0.951   7.352   2.017 -1.4643 -4.9133  0.0918
  743MOL0     H  303   1.130   6.974   1.975  1.8914  0.1685 -4.3480
  743MOL0     H  304   0.784   7.744   1.891 -0.8883  0.0498 -0.3788
  743MOL0     H  305   0.629   7.893   1.870 -0.3443 -1.1205 -0.7692
  744MOL0     O  306   4.307   6.974   1.729  0.3758 -0.5548 -0.9176
  744MOL0     C  307   4.397   6.969   1.644  0.4052  0.4607  0.4667
  744MOL0     O  308   4.382   6.935   1.515 -0.5146 -0.0308  0.0453
  744MOL0     C  309   4.254   6.910   1.476  0.5958 -0.1219 -0.3855
  744MOL0     C  310   4.190   7.007   1.401  0.8726 -0.5516  0.9513
  744MOL0     C  311   4.066   6.982   1.336 -0.7219 -0.1148  0.2628
  744MOL0     C  312   3.981   6.872   1.377 -0.3484  0.8431 -0.2710
  744MOL0     O  313   3.848   6.879   1.335  0.0957  0.2239 -1.0194
  744MOL0     C  314   3.773   6.779   1.392  0.5146  0.1897 -0.8680
  744MOL0     C  315   3.639   6.800   1.324 -0.0234 -0.2215 -0.4982
  744MOL0     C  316   3.547   6.691   1.352  0.4465 -0.5209  0.8053
  744MOL0     C  317   3.478   6.693   1.491 -0.1634 -0.4933  0.3968
  744MOL0     C  318   3.382   6.811   1.515  0.6227 -0.1271  0.3503
  744MOL0     C  319   3.278   6.765   1.615  0.2807 -0.6155  1.0841
  744MOL0     C  320   3.153   6.707   1.543 -0.7229 -0.4886  0.9294
  744MOL0     C  321   3.040   6.679   1.638  0.1558  0.1975 -0.3748
  744MOL0     N  322   2.929   6.621   1.569 -0.6754 -0.2068 -0.6088
  744MOL0     C  323   2.885   6.498   1.602 -0.4096  0.5254 -0.9906
  744MOL0     C  324   2.763   6.484   1.540  1.1411  0.7521  0.1965
  744MOL0     C  325   2.660   6.369   1.545 -0.5602 -0.4752 -0.0137
  744MOL0     C  326   2.670   6.284   1.671  0.1077  0.0842 -0.1666
  744MOL0     C  327   2.650   6.372   1.792 -0.2430 -0.3504 -0.3846
  744MOL0     C  328   2.710   6.308   1.912  0.4320  0.4252  0.1578
  744MOL0     O  329   2.852   6.323   1.901 -0.6429  0.3070  0.3173
  744MOL0     C  330   2.931   6.317   2.009 -0.1212  0.0794 -0.0194
  744MOL0     C  331   3.059   6.389   2.009  0.0579 -0.3441 -0.3917
  744MOL0     C  332   3.147   6.380   2.119 -0.0409 -0.1235 -0.4911
  744MOL0     C  333   3.282   6.436   2.103  0.4420 -0.7966 -0.0062
  744MOL0     C  334   3.105   6.306   2.237  0.0961 -0.4540  0.4417
  744MOL0     C  335   3.200   6.280   2.347  0.5943 -0.9961 -0.1576
  744MOL0     O  336   3.191   6.158   2.403 -0.1706  0.2074 -0.3578
  744MOL0     C  337   3.233   6.133   2.528  0.3579 -0.6156  0.1607
  744MOL0     C  338   3.226   6.228   2.637  0.9018  0.5294  0.3799
  744MOL0     C  339   3.263   6.187   2.764  0.1031 -0.6656  0.7908
  744MOL0     C  340   3.307   6.065   2.796  0.3273  0.4949 -0.6971
  744MOL0     O  341   3.338   6.019   2.920  0.2907  0.0386 -0.3641
  744MOL0     C  342   3.255   6.066   3.031  0.2949 -0.2022  0.0353
  744MOL0     C  343   3.257   5.963   3.147  0.3360  0.0558 -0.8580
  744MOL0     C  344   3.389   5.956   3.231  0.8990  0.0856 -0.0605
  744MOL0     C  345   3.365   5.893   3.367 -0.4510  0.3686  0.6448
  744MOL0     C  346   3.483   5.838   3.435 -0.6692  0.0988  0.4020
  744MOL0     C  347   3.445   5.787   3.579  0.5864  0.1521 -0.3108
  744MOL0     C  348   3.560   5.744   3.666  0.4904 -0.1675 -1.1716
  744MOL0     C  349   3.517   5.668   3.790  0.0673  0.2987  0.2140
  744MOL0    Cl  350   3.458   5.503   3.729  0.6161  0.4692 -0.2908
  744MOL0     C  351   3.322   5.976   2.690  0.0442  0.1954 -0.7061
  744MOL0     C  352   3.280   6.008   2.557 -0.8088 -0.4608  0.5146
  744MOL0     O  353   3.271   6.367   2.391  0.3357  0.9929  0.3109
  744MOL0     C  354   2.979   6.240   2.229 -0.7777 -0.1288 -0.0986
  744MOL0     C  355   2.892   6.255   2.126  0.6253 -0.2338  0.0087
  744MOL0     N  356   2.739   6.601   1.486 -0.4856  0.1094  0.2543
  744MOL0     N  357   2.829   6.684   1.502 -0.3233  0.5636  0.2095
  744MOL0     C  358   4.048   6.776   1.460  0.8527  0.3683 -0.5298
  744MOL0     C  359   4.177   6.795   1.510  1.3302  0.1390 -0.3108
  744MOL0     C  360   4.535   6.967   1.696  0.0109 -0.0034 -0.1780
  744MOL0     C  361   4.637   6.939   1.609  0.5294  0.1210 -0.3218
  744MOL0     C  362   4.772   6.952   1.648  0.2341  0.3256  1.0469
  744MOL0     C  363   4.799   6.998   1.779  0.3703  0.7809 -1.0345
  744MOL0     O  364   4.923   7.003   1.835  0.3860 -0.2225  0.0190
  744MOL0     C  365   5.042   7.040   1.760 -0.0805 -0.1441 -0.2641
  744MOL0     C  366   5.011   7.183   1.699 -0.0445 -0.4322  0.4756
  744MOL0     C  367   5.052   7.292   1.812  0.0180  0.3647  0.8211
  744MOL0     C  368   5.024   7.426   1.753 -0.3115  0.5822 -0.2042
  744MOL0     C  369   5.073   7.534   1.846  0.1265 -1.7221 -0.0793
  744MOL0     C  370   5.112   7.640   1.907 -0.1405 -0.3010  0.3124
  744MOL0     C  371   4.692   7.016   1.871  0.1352 -0.1136 -0.6119
  744MOL0     C  372   4.562   6.995   1.828 -0.5792  0.6683  0.1734
  744MOL0     H  373   4.248   7.096   1.381  1.5200 -0.5126  2.8002
  744MOL0     H  374   4.023   7.068   1.284  1.2531  0.8048  0.0819
  744MOL0     H  375   3.800   6.674   1.377 -3.0164 -0.9057 -0.5058
  744MOL0     H  376   3.775   6.775   1.501 -0.8051 -4.5311 -0.8136
  744MOL0     H  377   3.598   6.900   1.340  2.7440  0.8688  0.2901
  744MOL0     H  378   3.656   6.783   1.217  2.6406  0.2326 -0.2029
  744MOL0     H  379   3.464   6.695   1.281  1.5378 -0.8869 -0.5341
  744MOL0     H  380   3.603   6.597   1.353  1.1018 -0.1726  3.5140
  744MOL0     H  381   3.425   6.598   1.501  1.5096 -1.2110  4.0972
  744MOL0     H  382   3.558   6.687   1.566 -0.7766  1.5402  1.2780
  744MOL0     H  383   3.429   6.896   1.566  0.0883  1.2393 -1.3074
  744MOL0     H  384   3.330   6.841   1.423  0.0057 -0.7162  0.4990
  744MOL0     H  385   3.311   6.703   1.698 -1.0624 -2.7649  0.1139
  744MOL0     H  386   3.250   6.860   1.660  3.1321  1.1882 -0.6652
  744MOL0     H  387   3.124   6.783   1.469 -0.8703  0.9678  2.4251
  744MOL0     H  388   3.171   6.616   1.485 -0.6503 -0.6223  1.1650
  744MOL0     H  389   2.988   6.766   1.680 -1.8957  0.4500 -3.2018
  744MOL0     H  390   3.084   6.614   1.715 -1.2603 -1.2811 -0.7581
  744MOL0     H  391   2.932   6.429   1.672 -0.7075  1.7319  0.4607
  744MOL0     H  392   2.556   6.404   1.543 -0.6667 -0.7813 -2.1742
  744MOL0     H  393   2.681   6.314   1.452  1.6509 -0.6700  0.5564
  744MOL0     H  394   2.760   6.222   1.677 -0.3739 -0.6950 -0.8590
  744MOL0     H  395   2.585   6.217   1.658 -0.1003  0.4356 -0.6778
  744MOL0     H  396   2.543   6.379   1.812 -0.3113 -0.9541 -0.5206
  744MOL0     H  397   2.689   6.474   1.778 -0.8158  0.9160  4.9485
  744MOL0     H  398   2.694   6.201   1.905  1.8472  0.2169 -0.2693
  744MOL0     H  399   2.685   6.350   2.010 -1.7577 -0.0633 -0.1355
  744MOL0     H  400   3.080   6.446   1.920 -3.2800  3.9576  1.2076
  744MOL0     H  401   3.282   6.522   2.170  2.5736 -3.0407  3.1461
  744MOL0     H  402   3.351   6.360   2.142 -0.1775 -0.6298  1.4823
  744MOL0     H  403   3.293   6.458   1.996  1.1660  2.3582  0.6199
  744MOL0     H  404   3.176   6.322   2.615  0.8712 -0.0648 -2.4402
  744MOL0     H  405   3.256   6.273   2.830 -0.3330 -0.4456  0.4641
  744MOL0     H  406   3.297   6.158   3.073  0.4975 -0.1038 -0.3742
  744MOL0     H  407   3.150   6.084   3.004  1.4721  2.4780 -3.5104
  744MOL0     H  408   3.174   5.978   3.217  0.4671 -1.5488 -0.3130
  744MOL0     H  409   3.245   5.860   3.111  1.4754 -0.7140  0.8263
  744MOL0     H  410   3.422   6.058   3.253 -4.2230  2.6074 -2.3220
  744MOL0     H  411   3.470   5.911   3.173  1.6644  0.3792  0.7623
  744MOL0     H  412   3.322   5.964   3.437 -2.6890 -0.1970 -0.0784
  744MOL0     H  413   3.297   5.809   3.348  1.6950 -0.9348 -2.0829
  744MOL0     H  414   3.560   5.915   3.426  4.1671 -4.3184 -0.9124
  744MOL0     H  415   3.518   5.753   3.375 -0.6421  0.0017  0.5563
  744MOL0     H  416   3.403   5.873   3.630 -3.6039 -2.5695  1.2820
  744MOL0     H  417   3.365   5.713   3.571  1.0648 -0.2852 -1.2383
  744MOL0     H  418   3.599   5.841   3.698  3.8490 -2.2354  1.8328
  744MOL0     H  419   3.638   5.687   3.614  1.2362 -0.5286  0.2932
  744MOL0     H  420   3.438   5.718   3.848  0.3947  0.1658  0.7718
  744MOL0     H  421   3.601   5.666   3.859 -0.2065 -1.4047  0.5461
  744MOL0     H  422   3.350   5.873   2.710  1.2195  0.1832 -2.1804
  744MOL0     H  423   3.264   5.936   2.478  0.3063  1.0141 -1.1479
  744MOL0     H  424   2.933   6.178   2.305  0.3691 -0.2841  0.4909
  744MOL0     H  425   2.790   6.219   2.135  0.7943 -0.7412 -0.0443
  744MOL0     H  426   3.995   6.687   1.494 -2.2180  2.5228  0.7597
  744MOL0     H  427   4.208   6.727   1.589  0.1794 -0.8495 -0.6726
  744MOL0     H  428   4.614   6.903   1.510  0.3111 -0.4676 -0.0586
  744MOL0     H  429   4.854   6.923   1.583  0.0554  0.7339  0.6363
  744MOL0     H  430   5.141   7.034   1.805 -0.1293 -0.5354 -0.2104
  744MOL0     H  431   5.036   6.968   1.678  1.5369 -1.7282  0.9328
  744MOL0     H  432   4.911   7.205   1.659  0.7584 -0.9581 -1.9578
  744MOL0     H  433   5.071   7.196   1.609 -1.0056  0.1053 -0.1067
  744MOL0     H  434   5.150   7.268   1.853 -0.8436 -2.8329  1.2991
  744MOL0     H  435   4.977   7.267   1.888  1.7925 -1.3054  2.1105
  744MOL0     H  436   4.925   7.439   1.709 -0.2943 -1.5503 -1.0030
  744MOL0     H  437   5.091   7.429   1.667  0.5460 -2.3093  0.2433
  744MOL0     H  438   5.138   7.731   1.956 -0.6973 -0.4990  0.9902
  744MOL0     H  439   4.711   7.045   1.974 -2.3503 -1.4912  0.3178
  744MOL0     H  440   4.481   7.027   1.893  0.3056  1.3476  0.9665
  745MOL0     O  441  10.375   6.017   5.929 -0.1920 -0.0238 -0.2124
  745MOL0     C  442  10.335   6.134   5.935 -0.0787  0.4181  0.3028
  745MOL0     O  443  10.420   6.239   5.923 -0.2624 -0.3969  0.2955
  745MOL0     C  444  10.517   6.236   5.826  0.0919 -0.6016 -0.3418
  745MOL0     C  445  10.498   6.175   5.700 -1.1292  0.3393 -0.5528
  745MOL0     C  446  10.600   6.166   5.600 -0.5151  0.3869 -0.4977
  745MOL0     C  447  10.726   6.210   5.642  0.3714  0.2841  0.9157
  745MOL0     O  448  10.834   6.201   5.556 -0.1642  0.0117  0.0773
  745MOL0     C  449  10.894   6.073   5.563 -0.0009  0.0607 -0.3120
  745MOL0     C  450  11.026   6.092   5.486  0.6510 -0.1961 -0.6724
  745MOL0     C  451  11.019   6.072   5.339 -0.6316  0.4426  0.5226
  745MOL0     C  452  11.101   5.951   5.286 -0.3115  0.7748 -0.4563
  745MOL0     C  453  11.253   5.952   5.279 -0.1196  1.2194  0.6954
  745MOL0     C  454  11.294   6.055   5.172 -0.3390 -0.6638 -0.9273
  745MOL0     C  455  11.387   6.150   5.237 -0.7032  0.5013 -0.6577
  745MOL0     C  456  11.390   6.277   5.148 -0.5823  0.3293  0.0152
  745MOL0     N  457  11.470   6.256   5.021  0.8631  0.7706  0.7779
  745MOL0     C  458  11.401   6.233   4.903  0.2280 -0.4908  0.3804
  745MOL0     C  459  11.502   6.215   4.821 -0.2021  0.7950 -0.7168
  745MOL0     C  460  11.493   6.164   4.681 -0.6255  0.2196 -1.1846
  745MOL0     C  461  11.450   6.017   4.692 -0.8110  0.1732  0.4943
  745MOL0     C  462  11.340   5.970   4.595 -0.2894 -0.9652 -0.3823
  745MOL0     C  463  11.204   6.045   4.620  0.5056  0.2108  0.2635
  745MOL0     O  464  11.141   5.993   4.734  0.3423 -0.1204 -0.0546
  745MOL0     C  465  11.037   6.059   4.796 -0.0230 -0.3352 -0.2454
  745MOL0     C  466  10.978   6.181   4.740 -0.7264 -0.4660  0.0735
  745MOL0     C  467  10.880   6.254   4.808 -1.0850 -0.4296 -0.2703
  745MOL0     C  468  10.837   6.389   4.755  0.0762 -0.2010 -0.9556
  745MOL0     C  469  10.825   6.194   4.936  0.4603 -0.5178  1.5532
  745MOL0     C  470  10.716   6.258   5.007 -0.1610  1.2839 -0.0110
  745MOL0     O  471  10.722   6.293   5.141  0.2579  0.0592 -0.3194
  745MOL0     C  472  10.598   6.307   5.209 -0.4407  0.6001 -0.4235
  745MOL0     C  473  10.483   6.228   5.195 -0.6936 -0.2557 -0.4078
  745MOL0     C  474  10.383   6.237   5.288  0.3057  0.2890 -0.3970
  745MOL0     C  475  10.376   6.329   5.393 -1.0128  0.6050 -0.3301
  745MOL0     O  476  10.278   6.334   5.494 -0.1865  0.3739  0.3246
  745MOL0     C  477  10.188   6.227   5.495  0.2872  0.3562  0.5293
  745MOL0     C  478  10.076   6.257   5.601  0.3334  0.2016  0.0393
  745MOL0     C  479   9.954   6.156   5.599  0.4752 -0.2610  0.0540
  745MOL0     C  480  10.007   6.011   5.605  0.6106 -0.4861  0.1122
  745MOL0     C  481   9.911   5.911   5.681 -0.1115  0.8168  0.1890
  745MOL0     C  482   9.778   5.897   5.596 -1.3704 -0.0062  0.6090
  745MOL0     C  483   9.674   5.805   5.669  0.5888  0.4602 -0.0952
  745MOL0     C  484   9.532   5.825   5.610  0.1420 -0.5717 -0.7931
  745MOL0    Cl  485   9.536   5.759   5.445  0.8351  0.5388 -0.1556
  745MOL0     C  486  10.499   6.399   5.412 -0.5213 -1.2776  0.1956
  745MOL0     C  487  10.602   6.394   5.318 -0.4010 -0.0358 -0.1395
  745MOL0     O  488  10.616   6.280   4.930  0.2378  0.2078 -0.0413
  745MOL0     C  489  10.891   6.081   4.985  0.2269 -0.4525  0.9631
  745MOL0     C  490  10.996   6.010   4.923  0.5986  0.4718 -0.0537
  745MOL0     N  491  11.625   6.215   4.885  0.5507  0.1423  1.2089
  745MOL0     N  492  11.605   6.246   5.006  0.3276 -0.1651  0.1204
  745MOL0     C  493  10.736   6.280   5.760 -0.1894 -0.2627  0.5351
  745MOL0     C  494  10.637   6.291   5.862 -0.7711  0.0657  1.3542
  745MOL0     C  495  10.202   6.153   5.996 -0.9687  0.7715  0.3323
  745MOL0     C  496  10.112   6.042   6.016  0.1847  0.0294 -1.0747
  745MOL0     C  497   9.985   6.068   6.058 -0.6461  0.4898 -0.5561
  745MOL0     C  498   9.927   6.191   6.064  0.4659  0.2355  0.1915
  745MOL0     O  499   9.790   6.193   6.106 -0.2073 -0.0012 -0.2951
  745MOL0     C  500   9.717   6.313   6.116 -0.6967 -0.7328  0.2459
  745MOL0     C  501   9.640   6.320   5.985  0.1294 -0.5867 -0.6013
  745MOL0     C  502   9.526   6.217   5.973  0.3056 -0.0970  0.2891
  745MOL0     C  503   9.572   6.078   5.918 -0.5195 -0.6210 -1.1779
  745MOL0     C  504   9.470   5.980   5.947 -0.3506 -0.1374  0.9097
  745MOL0     C  505   9.384   5.904   5.976  0.4673 -0.3670 -0.0834
  745MOL0     C  506  10.014   6.301   6.051 -0.0029 -0.1498 -0.3121
  745MOL0     C  507  10.153   6.285   6.012 -0.1324 -0.2971  0.8230
  745MOL0     H  508  10.399   6.134   5.682 -0.3822 -0.6178 -2.7973
  745MOL0     H  509  10.579   6.124   5.502 -2.0960  2.5490 -1.1653
  745MOL0     H  510  10.912   6.043   5.667  0.7395  0.4531 -0.3161
  745MOL0     H  511  10.830   5.998   5.515  0.7697  0.8142 -2.6558
  745MOL0     H  512  11.062   6.194   5.500 -0.6080 -0.0978  2.5908
  745MOL0     H  513  11.093   6.013   5.522  1.4449 -1.2057 -3.9761
  745MOL0     H  514  10.916   6.048   5.311 -0.4485  0.8125 -0.5115
  745MOL0     H  515  11.045   6.160   5.279  1.7720  0.6005  1.6755
  745MOL0     H  516  11.067   5.857   5.332 -1.7249  0.2352 -2.4465
  745MOL0     H  517  11.069   5.934   5.183  0.2499 -1.7075 -0.2903
  745MOL0     H  518  11.300   5.963   5.377  2.1688 -1.5317  0.0578
  745MOL0     H  519  11.271   5.851   5.240  2.2768  0.4939  3.3401
  745MOL0     H  520  11.343   6.001   5.090  1.4791 -0.4147 -0.0494
  745MOL0     H  521  11.214   6.118   5.133  0.1341  0.4804 -0.1015
  745MOL0     H  522  11.347   6.184   5.334 -1.7275 -0.3915 -0.7557
  745MOL0     H  523  11.491   6.122   5.252 -1.0238 -0.1237  0.5430
  745MOL0     H  524  11.441   6.354   5.207 -0.0143 -0.8565  1.1087
  745MOL0     H  525  11.293   6.321   5.125  0.5014  1.8974 -1.9295
  745MOL0     H  526  11.297   6.229   4.872  1.4057 -1.6611 -4.0504
  745MOL0     H  527  11.424   6.217   4.615 -1.0952 -3.3773 -3.8232
  745MOL0     H  528  11.597   6.165   4.647 -0.0242 -2.2880  0.3323
  745MOL0     H  529  11.418   5.989   4.793  3.2389 -0.3023  1.8112
  745MOL0     H  530  11.540   5.955   4.682  0.9957  2.3874  2.1716
  745MOL0     H  531  11.317   5.867   4.622 -3.3224 -0.1722  0.5386
  745MOL0     H  532  11.370   5.977   4.490  4.5798 -0.2794  0.8440
  745MOL0     H  533  11.134   6.013   4.543 -0.0764 -2.5755  1.8257
  745MOL0     H  534  11.208   6.154   4.624 -0.7166  0.3785 -1.8372
  745MOL0     H  535  11.014   6.219   4.645  1.7192 -1.9531  0.3104
  745MOL0     H  536  10.862   6.409   4.650 -0.8815 -3.5287 -1.9532
  745MOL0     H  537  10.728   6.395   4.760 -0.0153 -0.5691 -2.1505
  745MOL0     H  538  10.875   6.470   4.818  3.0098 -2.2308  0.1203
  745MOL0     H  539  10.481   6.153   5.117 -0.5571 -1.0082  0.2935
  745MOL0     H  540  10.304   6.164   5.268  1.0016  0.0898 -2.6588
  745MOL0     H  541  10.138   6.223   5.397  1.2432  3.9357 -0.2382
  745MOL0     H  542  10.230   6.129   5.519 -0.0187 -0.9415 -3.4946
  745MOL0     H  543  10.122   6.273   5.699  1.9760  1.7862 -0.9249
  745MOL0     H  544  10.045   6.361   5.584 -1.0908 -0.5329 -2.3504
  745MOL0     H  545   9.900   6.183   5.508  0.1290 -3.1944 -0.7299
  745MOL0     H  546   9.883   6.185   5.677  2.1075  3.6735  0.2946
  745MOL0     H  547  10.014   5.969   5.505  3.1708  0.2640 -0.1073
  745MOL0     H  548  10.106   6.005   5.651  0.1054  0.3179  1.3608
  745MOL0     H  549   9.876   5.965   5.769 -0.8029  2.2562 -0.9212
  745MOL0     H  550   9.958   5.814   5.698  2.6359  1.5276 -2.5224
  745MOL0     H  551   9.744   6.001   5.590 -4.0941 -0.8800 -0.9713
  745MOL0     H  552   9.798   5.857   5.496 -1.4020  2.4419 -0.4345
  745MOL0     H  553   9.675   5.820   5.777 -2.2072 -2.8831  0.5896
  745MOL0     H  554   9.692   5.697   5.664 -1.1995  0.1799 -2.0282
  745MOL0     H  555   9.508   5.932   5.611  0.4017 -0.5048  0.2565
  745MOL0     H  556   9.449   5.778   5.663 -1.2811 -0.1832 -2.5701
  745MOL0     H  557  10.510   6.462   5.500  2.6447 -3.4602  1.5785
  745MOL0     H  558  10.699   6.438   5.339  0.6792 -2.5568  0.4400
  745MOL0     H  559  10.845   6.049   5.078  0.6744 -1.4824  0.8351
  745MOL0     H  560  11.043   5.919   4.959 -0.5306  0.2457  0.8978
  745MOL0     H  561  10.830   6.333   5.775  0.7762 -2.0387  1.0487
  745MOL0     H  562  10.649   6.349   5.953  0.3995 -3.0062  3.2906
  745MOL0     H  563  10.141   5.940   5.996  1.5342  0.4225 -1.2470
  745MOL0     H  564   9.921   5.983   6.080  2.2707 -2.1259 -1.4995
  745MOL0     H  565   9.647   6.320   6.199 -0.5308 -0.0156  0.3402
  745MOL0     H  566   9.782   6.399   6.137 -3.1529  1.0993  0.7029
  745MOL0     H  567   9.700   6.315   5.894  0.0072 -2.3550 -0.6256
  745MOL0     H  568   9.591   6.417   5.997 -2.4037 -1.5254 -2.5207
  745MOL0     H  569   9.437   6.246   5.916  0.1783 -0.7825  0.1341
  745MOL0     H  570   9.484   6.212   6.074 -2.3605  1.1827 -0.6513
  745MOL0     H  571   9.658   6.031   5.967 -0.7637 -0.4467 -0.5759
  745MOL0     H  572   9.585   6.086   5.810 -0.3910 -3.5630 -1.4521
  745MOL0     H  573   9.299   5.843   5.997 -0.1915  0.4659 -0.2478
  745MOL0     H  574   9.969   6.399   6.064 -1.2625 -0.8013  0.4574
  745MOL0     H  575  10.217   6.371   5.996 -0.6655  0.0427  0.4562
  746MOL0     O  576   5.220   8.547   1.192  0.5195  0.0289  0.1838
  746MOL0     C  577   5.277   8.493   1.283 -0.1575  0.2750  0.0309
  746MOL0     O  578   5.211   8.437   1.385 -0.5397  0.5237 -0.5618
  746MOL0     C  579   5.090   8.483   1.423  0.1211  0.7681  0.1815
  746MOL0     C  580   4.973   8.470   1.344  0.4490 -0.4763 -0.9579
  746MOL0     C  581   4.857   8.532   1.392 -0.5977 -0.1948  0.3332
  746MOL0     C  582   4.851   8.587   1.517 -0.3384  0.4526 -0.8963
  746MOL0     O  583   4.735   8.627   1.583  0.8975 -0.4375 -0.0617
  746MOL0     C  584   4.619   8.643   1.507  0.0665 -0.4504  0.3718
  746MOL0     C  585   4.493   8.668   1.580 -0.4150 -0.0862  1.1511
  746MOL0     C  586   4.375   8.671   1.487 -0.0356  0.4599 -0.2880
  746MOL0     C  587   4.301   8.536   1.476  0.0180  0.8615 -0.3978
  746MOL0     C  588   4.180   8.547   1.388 -0.3958 -0.1371  0.5157
  746MOL0     C  589   4.124   8.410   1.338 -0.1961  0.5004  1.3632
  746MOL0     C  590   4.034   8.340   1.445  0.5795 -0.6934  0.1609
  746MOL0     C  591   3.884   8.378   1.439 -0.7383  0.9499 -0.4024
  746MOL0     N  592   3.810   8.347   1.313  0.0870  0.1820 -1.0182
  746MOL0     C  593   3.838   8.280   1.200  0.2708 -0.6420 -0.7242
  746MOL0     C  594   3.730   8.286   1.122  0.2228 -0.0005  0.0085
  746MOL0     C  595   3.738   8.243   0.975  0.1899  0.6194  0.2912
  746MOL0     C  596   3.834   8.330   0.893  0.5872  0.3185 -0.8727
  746MOL0     C  597   3.776   8.427   0.793 -0.4026 -0.3584  0.0990
  746MOL0     C  598   3.900   8.501   0.733  0.2381  0.5914 -0.1679
  746MOL0     O  599   3.943   8.421   0.622 -0.0688 -0.6497  1.2729
  746MOL0     C  600   4.046   8.474   0.539  0.2024 -0.6199  0.0093
  746MOL0     C  601   4.100   8.391   0.438  0.4877  0.4460 -0.1871
  746MOL0     C  602   4.218   8.426   0.377  0.5847  0.3438  0.1254
  746MOL0     C  603   4.258   8.320   0.271 -0.6250 -0.3022  0.3000
  746MOL0     C  604   4.279   8.546   0.411  0.1236 -0.6525  0.2400
  746MOL0     C  605   4.409   8.590   0.363  0.1432 -0.1280 -0.4628
  746MOL0     O  606   4.496   8.482   0.355 -0.2867  0.7510 -0.2174
  746MOL0     C  607   4.627   8.488   0.321  1.1959 -0.2083  0.5498
  746MOL0     C  608   4.666   8.439   0.202  0.1544 -0.7359  0.0470
  746MOL0     C  609   4.795   8.455   0.154 -0.4660  0.3984 -0.4935
  746MOL0     C  610   4.893   8.506   0.234 -0.2766  0.6967  0.2134
  746MOL0     O  611   5.019   8.519   0.180 -0.3446 -0.2236  0.3953
  746MOL0     C  612   5.118   8.584   0.261 -0.4968 -0.9776 -0.2567
  746MOL0     C  613   5.258   8.579   0.201  0.8596 -0.2429  1.3283
  746MOL0     C  614   5.311   8.708   0.168 -0.6155 -0.2306  0.3821
  746MOL0     C  615   5.247   8.759   0.037 -0.0747 -0.4630  0.4824
  746MOL0     C  616   5.262   8.914   0.031  0.5139 -0.3481 -0.5712
  746MOL0     C  617   5.247   8.954  -0.112  0.0993 -0.3999  0.0963
  746MOL0     C  618   5.287   9.098  -0.131 -0.6596 -1.4957 -0.0783
  746MOL0     C  619   5.188   9.206  -0.061  0.4711  0.0164  0.1720
  746MOL0    Cl  620   5.034   9.184  -0.135 -0.0842 -0.3281 -0.1515
  746MOL0     C  621   4.852   8.551   0.359 -0.0797 -0.0058  0.2591
  746MOL0     C  622   4.722   8.537   0.405  0.5915  0.2619  0.3806
  746MOL0     O  623   4.443   8.708   0.346  0.1254 -0.0121  0.3993
  746MOL0     C  624   4.220   8.632   0.500  0.3988 -0.4661  0.4791
  746MOL0     C  625   4.106   8.595   0.568 -0.3983 -0.0103  0.3773
  746MOL0     N  626   3.642   8.352   1.199  0.4776 -0.1341 -1.2482
  746MOL0     N  627   3.682   8.394   1.313  0.0162 -0.0830 -0.0066
  746MOL0     C  628   4.963   8.586   1.597 -0.8637  0.4057  0.1445
  746MOL0     C  629   5.083   8.542   1.546 -0.7813 -0.3606 -0.1506
  746MOL0     C  630   5.422   8.470   1.270 -0.0730 -1.2650 -0.0863
  746MOL0     C  631   5.478   8.386   1.360 -0.3952  1.1009  0.4418
  746MOL0     C  632   5.614   8.369   1.351  0.5276 -0.5550  0.0163
  746MOL0     C  633   5.693   8.436   1.249  0.7102  0.7848 -0.9785
  746MOL0     O  634   5.827   8.429   1.239 -0.5793 -0.9080 -0.0603
  746MOL0     C  635   5.899   8.362   1.341 -0.8817  0.1369  0.5617
  746MOL0     C  636   5.898   8.212   1.339  0.2072 -0.3422  0.3529
  746MOL0     C  637   5.936   8.162   1.480 -0.2432  0.2783 -0.0819
  746MOL0     C  638   5.918   8.010   1.486 -0.1982  0.7046 -0.0352
  746MOL0     C  639   6.040   7.928   1.493  0.0122  0.3548  0.5501
  746MOL0     C  640   6.137   7.859   1.466 -0.5586 -0.0637  0.0368
  746MOL0     C  641   5.628   8.496   1.153  0.4676  0.5695  0.5627
  746MOL0     C  642   5.493   8.525   1.158 -0.7680 -0.1713  0.3767
  746MOL0     H  643   4.968   8.442   1.239 -0.1909  0.9478 -1.3339
  746MOL0     H  644   4.770   8.528   1.327 -0.2630  1.6948 -0.3001
  746MOL0     H  645   4.629   8.713   1.423  1.7634  0.3130  1.1560
  746MOL0     H  646   4.596   8.545   1.463 -3.9767  0.4827  0.0654
  746MOL0     H  647   4.492   8.589   1.656  1.3683  1.2386  2.6758
  746MOL0     H  648   4.509   8.759   1.640  0.8116  2.4581 -2.6688
  746MOL0     H  649   4.300   8.739   1.529 -2.3750 -0.0390 -3.2653
  746MOL0     H  650   4.399   8.720   1.392 -3.1723 -1.2062 -2.1312
  746MOL0     H  651   4.367   8.460   1.432  1.6349  1.9388  0.0798
  746MOL0     H  652   4.263   8.494   1.569 -3.6504  0.6305 -1.8575
  746MOL0     H  653   4.107   8.593   1.455  1.5169  1.7309  1.4699
  746MOL0     H  654   4.208   8.615   1.308  1.1319 -1.1838  0.1132
  746MOL0     H  655   4.063   8.434   1.250 -2.9954 -0.0113  3.0452
  746MOL0     H  656   4.200   8.339   1.304 -0.3639  1.0937 -0.3632
  746MOL0     H  657   4.045   8.231   1.438  1.1357 -0.6065 -0.5387
  746MOL0     H  658   4.077   8.378   1.538 -2.1266  0.3980  1.0366
  746MOL0     H  659   3.876   8.487   1.441 -3.2799  0.8102  0.8226
  746MOL0     H  660   3.834   8.347   1.530  1.0149  0.3064  0.3837
  746MOL0     H  661   3.930   8.229   1.175  0.1991 -0.0092 -2.4491
  746MOL0     H  662   3.755   8.135   0.964  1.2137  0.7909  0.0971
  746MOL0     H  663   3.642   8.259   0.925  1.0068 -0.7356 -1.8837
  746MOL0     H  664   3.904   8.263   0.843  2.8547  1.8687  0.0624
  746MOL0     H  665   3.907   8.383   0.955  1.7773 -0.0753 -1.9002
  746MOL0     H  666   3.700   8.494   0.835  0.3244 -0.6417  1.9839
  746MOL0     H  667   3.721   8.377   0.713 -0.5066  2.4864 -1.7353
  746MOL0     H  668   3.975   8.513   0.812  0.1978  0.2968 -0.0823
  746MOL0     H  669   3.862   8.598   0.699 -1.3341 -0.2891 -1.0203
  746MOL0     H  670   4.061   8.290   0.429 -0.9071  1.0860 -1.9095
  746MOL0     H  671   4.366   8.320   0.258 -0.7861 -2.2097 -1.5020
  746MOL0     H  672   4.232   8.218   0.300 -1.1496  0.1042  1.3047
  746MOL0     H  673   4.210   8.348   0.176  1.4004  2.1639 -0.1067
  746MOL0     H  674   4.589   8.387   0.145  0.4347  0.5121 -1.5706
  746MOL0     H  675   4.830   8.430   0.054  0.2145  1.9692 -0.6778
  746MOL0     H  676   5.103   8.692   0.271  2.6597 -0.1377 -2.8779
  746MOL0     H  677   5.119   8.552   0.366 -1.4385 -4.5195 -1.1799
  746MOL0     H  678   5.317   8.528   0.277  1.0210  0.5462  1.7447
  746MOL0     H  679   5.255   8.515   0.112 -0.6584 -0.1401  1.2706
  746MOL0     H  680   5.418   8.699   0.146 -0.4313  0.4664  0.9508
  746MOL0     H  681   5.318   8.779   0.252  2.3973 -1.6473  1.4646
  746MOL0     H  682   5.309   8.705  -0.035  2.3083  3.2719 -0.5764
  746MOL0     H  683   5.139   8.744   0.030 -0.2914  1.1847 -0.0841
  746MOL0     H  684   5.357   8.939   0.080 -0.8315 -1.4638  2.9138
  746MOL0     H  685   5.198   8.967   0.102  1.8017 -1.0451  1.1993
  746MOL0     H  686   5.306   8.890  -0.179  0.8666  0.9762 -0.5796
  746MOL0     H  687   5.142   8.938  -0.138  0.5923 -1.6340 -1.2746
  746MOL0     H  688   5.270   9.133  -0.233 -3.9232 -0.3425  0.7142
  746MOL0     H  689   5.387   9.110  -0.088 -0.9872 -1.4513  0.7038
  746MOL0     H  690   5.209   9.312  -0.074 -0.9707  0.3521  0.3537
  746MOL0     H  691   5.171   9.191   0.046  1.2840 -0.9307  0.1762
  746MOL0     H  692   4.919   8.598   0.430 -0.9901  1.5362  0.1452
  746MOL0     H  693   4.681   8.566   0.502 -3.2464 -0.3959 -0.8818
  746MOL0     H  694   4.265   8.728   0.522 -2.1248  0.3721  2.4680
  746MOL0     H  695   4.070   8.671   0.637 -0.4194 -0.3247  0.7214
  746MOL0     H  696   4.952   8.632   1.694  0.7142  1.4396 -0.1297
  746MOL0     H  697   5.177   8.552   1.601 -0.0286  3.0351 -1.8153
  746MOL0     H  698   5.426   8.343   1.445  2.2505  1.0288  2.1421
  746MOL0     H  699   5.649   8.320   1.441  2.3212  1.7289  0.6814
  746MOL0     H  700   6.003   8.392   1.329 -0.3053 -1.2272  1.8495
  746MOL0     H  701   5.867   8.377   1.445  0.1697 -1.9997  1.2526
  746MOL0     H  702   5.973   8.183   1.265 -1.0710  0.5806 -1.3961
  746MOL0     H  703   5.796   8.174   1.321  0.0017  1.3337 -2.7010
  746MOL0     H  704   5.864   8.200   1.553  1.3899  1.2109  1.1120
  746MOL0     H  705   6.035   8.204   1.498  1.5686 -2.2853 -3.1311
  746MOL0     H  706   5.862   7.979   1.397 -0.5533 -1.9024  1.0036
  746MOL0     H  707   5.860   7.992   1.577 -0.6956  0.0405 -0.4746
  746MOL0     H  708   6.231   7.812   1.448 -1.2328 -1.1764 -0.7173
  746MOL0     H  709   5.687   8.533   1.070 -1.7190  2.1780 -0.3713
  746MOL0     H  710   5.450   8.597   1.090 -0.8236  0.6816  1.2917
  747MOL0     O  711   2.803  10.554   3.991  0.3622  1.0658  0.1497
  747MOL0     C  712   2.716  10.471   4.007 -0.3992 -0.8593  0.0542
  747MOL0     O  713   2.592  10.480   3.950  0.0968  0.4218  0.4259
  747MOL0     C  714   2.550  10.580   3.862 -0.4296 -0.3070  0.2738
  747MOL0     C  715   2.412  10.600   3.862 -0.6229 -1.0089 -0.4919
  747MOL0     C  716   2.352  10.690   3.775  0.1432  0.7765 -0.0002
  747MOL0     C  717   2.430  10.738   3.671 -0.3607 -0.2610  0.0582
  747MOL0     O  718   2.366  10.792   3.566 -0.0086  0.5594 -1.3600
  747MOL0     C  719   2.387  10.928   3.549 -1.2804  0.2730 -0.2676
  747MOL0     C  720   2.299  10.983   3.437  0.6366  0.3941 -0.6745
  747MOL0     C  721   2.147  10.951   3.463  0.4381  0.8998 -0.2048
  747MOL0     C  722   2.067  10.985   3.337 -0.0631 -1.5701  0.0547
  747MOL0     C  723   1.926  10.940   3.364  0.6013 -0.6054  0.0222
  747MOL0     C  724   1.849  10.936   3.227 -0.3789  0.7297 -0.0155
  747MOL0     C  725   1.700  10.908   3.256 -1.2053  0.2946 -0.2591
  747MOL0     C  726   1.617  10.907   3.133 -0.4899  0.0454  0.0807
  747MOL0     N  727   1.476  10.877   3.158 -0.5165 -0.0464 -0.4343
  747MOL0     C  728   1.389  10.943   3.245 -0.4051 -0.2013 -0.9104
  747MOL0     C  729   1.263  10.902   3.204  0.2119  0.6176 -0.2874
  747MOL0     C  730   1.127  10.952   3.257 -0.2054 -0.9288 -0.1470
  747MOL0     C  731   1.050  11.007   3.140  0.4475 -0.0078 -0.2942
  747MOL0     C  732   0.916  11.051   3.172  0.4076  0.4034 -0.0868
  747MOL0     C  733   0.806  10.942   3.192 -1.2376  1.4019 -1.0796
  747MOL0     O  734   0.695  11.003   3.257 -0.5278  0.0062 -0.2759
  747MOL0     C  735   0.573  10.944   3.243 -0.1183 -0.4531  0.0562
  747MOL0     C  736   0.546  10.809   3.215 -0.3741 -0.5951 -0.3167
  747MOL0     C  737   0.422  10.766   3.183 -0.0419 -0.4397  0.5297
  747MOL0     C  738   0.415  10.623   3.131 -0.3626 -0.1948 -0.7498
  747MOL0     C  739   0.309  10.852   3.184  0.2804 -0.5627  0.4015
  747MOL0     C  740   0.168  10.809   3.166 -0.1043 -0.7126  0.5991
  747MOL0     O  741   0.072  10.907   3.193 -0.2850 -0.0845 -0.2601
  747MOL0     C  742  -0.050  10.876   3.146  0.2984 -0.6536 -0.5654
  747MOL0     C  743  -0.137  10.764   3.177  0.0110 -0.5689  0.8396
  747MOL0     C  744  -0.257  10.755   3.112  0.3087  0.8067 -0.4095
  747MOL0     C  745  -0.300  10.854   3.029 -0.1357  0.7480 -0.2486
  747MOL0     O  746  -0.420  10.844   2.972  0.4595  0.3782 -0.5188
  747MOL0     C  747  -0.513  10.955   2.987 -1.2900  0.4097  0.1546
  747MOL0     C  748  -0.616  10.934   2.883  0.1767 -0.1902  0.7814
  747MOL0     C  749  -0.669  10.788   2.894  1.1212 -0.6106  0.4462
  747MOL0     C  750  -0.813  10.773   2.845 -0.1762 -0.5442 -0.2656
  747MOL0     C  751  -0.912  10.804   2.956 -0.5029 -0.4670  0.0778
  747MOL0     C  752  -1.049  10.767   2.903  0.0311 -0.0318  0.4557
  747MOL0     C  753  -1.106  10.861   2.793 -0.6446 -0.2361  0.3377
  747MOL0     C  754  -1.094  10.792   2.657 -1.1454 -0.9859 -0.6663
  747MOL0    Cl  755  -1.223  10.684   2.626  0.1101 -0.2108 -0.6724
  747MOL0     C  756  -0.215  10.962   3.000 -0.3157 -0.5781 -0.6037
  747MOL0     C  757  -0.092  10.968   3.047 -0.8611  0.6491 -0.6857
  747MOL0     O  758   0.153  10.704   3.101  0.1098  0.2165 -0.0876
  747MOL0     C  759   0.329  10.983   3.245 -0.4560  0.0922  0.6313
  747MOL0     C  760   0.468  11.033   3.266 -0.1160 -0.0613 -0.0877
  747MOL0     N  761   1.284  10.811   3.099  0.2043  0.6325  0.4537
  747MOL0     N  762   1.406  10.792   3.068  0.0387  0.3544  0.2891
  747MOL0     C  763   2.571  10.707   3.669  0.1469 -0.2919  0.6040
  747MOL0     C  764   2.636  10.630   3.768 -0.5701 -0.1648 -0.3090
  747MOL0     C  765   2.753  10.345   4.083  0.3712 -0.0459  0.2959
  747MOL0     C  766   2.893  10.297   4.094  0.3676 -0.1342  0.1655
  747MOL0     C  767   2.934  10.190   4.173 -0.6138  0.4441  0.7033
  747MOL0     C  768   2.840  10.122   4.249  0.4496  0.0445 -0.2136
  747MOL0     O  769   2.875  10.009   4.329 -0.2366  0.4673  0.2817
  747MOL0     C  770   3.012  10.005   4.373 -0.3653  0.2325  0.3386
  747MOL0     C  771   3.050   9.870   4.430  0.0587  0.9188  0.5899
  747MOL0     C  772   2.970   9.862   4.563 -0.2018 -1.0401  0.3210
  747MOL0     C  773   3.012   9.756   4.673 -0.3623 -0.8873 -0.5370
  747MOL0     C  774   2.969   9.618   4.631 -0.0348 -0.0024  0.8324
  747MOL0     C  775   2.934   9.511   4.598 -0.2633 -0.6162 -0.0475
  747MOL0     C  776   2.709  10.166   4.247  1.0471 -0.2078  0.9851
  747MOL0     C  777   2.664  10.272   4.166  0.4650 -0.2478  0.3383
  747MOL0     H  778   2.362  10.556   3.948 -1.2397 -0.9730 -0.8222
  747MOL0     H  779   2.248  10.716   3.790  0.5382  2.1899  0.4332
  747MOL0     H  780   2.365  10.980   3.643 -0.3763  0.0275  0.0901
  747MOL0     H  781   2.491  10.953   3.523 -0.2620 -1.1417  2.1715
  747MOL0     H  782   2.305  11.087   3.405 -0.0122  0.4141 -0.7653
  747MOL0     H  783   2.315  10.916   3.352 -1.4965 -3.3526  1.5631
  747MOL0     H  784   2.136  10.846   3.494  1.0572  1.5751  2.6218
  747MOL0     H  785   2.117  11.006   3.553  1.4986 -0.2907  0.9429
  747MOL0     H  786   2.064  11.092   3.311 -0.5248 -1.8721 -1.1945
  747MOL0     H  787   2.103  10.936   3.247 -1.9619  0.9613 -2.2448
  747MOL0     H  788   1.918  10.839   3.404 -0.8369 -1.3249 -1.8951
  747MOL0     H  789   1.886  11.011   3.436  4.1327 -0.4112  2.0204
  747MOL0     H  790   1.850  11.042   3.201  3.0744  0.7833 -0.1126
  747MOL0     H  791   1.900  10.879   3.149  1.2741  2.1344 -0.0254
  747MOL0     H  792   1.700  10.806   3.296 -0.8213 -0.4097 -1.9833
  747MOL0     H  793   1.664  10.983   3.326 -2.7019  1.6327 -2.3477
  747MOL0     H  794   1.662  10.839   3.060  1.3360  1.4375 -0.1836
  747MOL0     H  795   1.629  11.005   3.085  0.3866 -0.3204 -0.4834
  747MOL0     H  796   1.408  11.025   3.314 -0.2999  1.1788 -2.5212
  747MOL0     H  797   1.076  10.866   3.303 -1.6731 -0.6710 -1.2430
  747MOL0     H  798   1.141  11.032   3.330 -0.9952  1.1420 -2.1679
  747MOL0     H  799   1.030  10.940   3.056 -0.3413  3.2161 -2.8568
  747MOL0     H  800   1.105  11.095   3.106 -1.0100  1.2054  0.4177
  747MOL0     H  801   0.879  11.118   3.093 -0.0229  3.0804  2.2190
  747MOL0     H  802   0.931  11.100   3.268 -1.3171  0.5283  0.1491
  747MOL0     H  803   0.840  10.859   3.254 -2.9228  0.0187 -1.9128
  747MOL0     H  804   0.786  10.897   3.094  0.4222 -2.5496  0.2430
  747MOL0     H  805   0.632  10.745   3.201 -1.2686 -1.4915 -1.8958
  747MOL0     H  806   0.506  10.563   3.141 -0.5730 -1.0304 -3.0808
  747MOL0     H  807   0.337  10.557   3.170 -0.0504 -0.9136 -1.3160
  747MOL0     H  808   0.384  10.617   3.026 -5.0630 -1.1910  0.4451
  747MOL0     H  809  -0.102  10.689   3.247 -1.2403  0.6440  2.8760
  747MOL0     H  810  -0.312  10.663   3.133  2.7996  0.0010  3.8026
  747MOL0     H  811  -0.561  10.942   3.084 -0.1976 -0.1691  0.6319
  747MOL0     H  812  -0.471  11.054   2.967 -1.8529  0.8424  1.0672
  747MOL0     H  813  -0.697  11.006   2.900 -1.3696 -0.7884 -3.0816
  747MOL0     H  814  -0.576  10.944   2.782 -0.0901  2.2334  0.8595
  747MOL0     H  815  -0.667  10.756   2.998  1.6613 -1.5781  0.1511
  747MOL0     H  816  -0.602  10.716   2.846  1.3721  0.6974 -1.3016
  747MOL0     H  817  -0.836  10.834   2.757 -1.7132 -2.3744 -1.2018
  747MOL0     H  818  -0.818  10.674   2.800 -0.5840 -1.0872  0.9450
  747MOL0     H  819  -0.898  10.906   2.992 -0.9292  0.1312 -1.3574
  747MOL0     H  820  -0.890  10.731   3.034  2.7655 -0.4927 -0.7299
  747MOL0     H  821  -1.068  10.666   2.864  0.4497 -0.2297  0.7509
  747MOL0     H  822  -1.113  10.789   2.989  0.1613  0.3523  0.4537
  747MOL0     H  823  -1.052  10.956   2.798 -3.9665  1.7877  0.5834
  747MOL0     H  824  -1.210  10.884   2.816 -0.5588 -2.0906  3.1422
  747MOL0     H  825  -1.005  10.729   2.651  0.0319  0.1253  2.7548
  747MOL0     H  826  -1.090  10.869   2.580 -0.9388 -1.5241 -1.2040
  747MOL0     H  827  -0.246  11.044   2.937  0.0650 -0.1789 -0.2753
  747MOL0     H  828  -0.030  11.055   3.028 -1.1027  1.1273  0.5832
  747MOL0     H  829   0.254  11.048   3.289  1.8133  0.7745  3.8265
  747MOL0     H  830   0.483  11.139   3.283 -2.2185  0.5306 -1.5704
  747MOL0     H  831   2.626  10.738   3.580 -0.6338  1.7797  0.8055
  747MOL0     H  832   2.742  10.611   3.758 -0.3188  0.2753  1.3287
  747MOL0     H  833   2.978  10.342   4.043  2.1042 -0.0953  2.8929
  747MOL0     H  834   3.035  10.157   4.153 -2.2609 -3.5056 -2.2911
  747MOL0     H  835   3.075  10.031   4.287 -2.3360  3.6870 -0.2479
  747MOL0     H  836   3.018  10.082   4.450 -2.8178  1.6069 -0.7215
  747MOL0     H  837   3.155   9.870   4.462 -0.3782 -0.7298  2.2276
  747MOL0     H  838   3.039   9.790   4.356  0.6237 -2.1923  3.5914
  747MOL0     H  839   2.862   9.852   4.548 -0.2327 -1.6127  0.8789
  747MOL0     H  840   2.971   9.957   4.618 -3.0179 -0.0448 -1.1349
  747MOL0     H  841   2.975   9.783   4.772 -0.3887  1.4343 -1.1111
  747MOL0     H  842   3.121   9.753   4.684 -0.5302  1.2812  4.3148
  747MOL0     H  843   2.885   9.419   4.572 -1.7458  0.1910 -0.1787
  747MOL0     H  844   2.642  10.121   4.321  2.1124  0.3129  2.3130
  747MOL0     H  845   2.566  10.311   4.189  0.0416 -0.0187 -1.7188
  748MOL0     O  846   4.906   5.322   5.517  0.1358 -0.2394  0.2290
  748MOL0     C  847   4.852   5.374   5.616 -0.5744  1.2303  0.4211
  748MOL0     O  848   4.901   5.368   5.744  0.3552  0.1183 -0.3442
  748MOL0     C  849   5.043   5.359   5.756 -0.7055  0.1917 -1.0434
  748MOL0     C  850   5.141   5.427   5.686 -0.1919  0.5247  0.1988
  748MOL0     C  851   5.279   5.409   5.717 -0.6681  0.3339 -0.5704
  748MOL0     C  852   5.331   5.336   5.825  0.5778  0.6163  0.6175
  748MOL0     O  853   5.469   5.311   5.829  0.9732 -0.5438  0.0941
  748MOL0     C  854   5.538   5.289   5.955 -0.1541  1.2080  0.0723
  748MOL0     C  855   5.689   5.301   5.924 -0.5237  0.1916  0.0675
  748MOL0     C  856   5.776   5.255   6.041 -0.3130 -0.2554  0.4947
  748MOL0     C  857   5.795   5.104   6.032  0.9786 -0.2647  0.3209
  748MOL0     C  858   5.896   5.087   6.146 -0.4509  1.0021  0.3389
  748MOL0     C  859   5.965   4.945   6.156  0.1328 -0.8311  0.2313
  748MOL0     C  860   5.869   4.828   6.148  1.1372  0.6293  0.5128
  748MOL0     C  861   5.951   4.699   6.180 -0.3908 -0.0813  0.8397
  748MOL0     N  862   5.865   4.584   6.155 -0.2316  0.7392 -0.4455
  748MOL0     C  863   5.747   4.560   6.229  0.1683 -1.0352  0.4672
  748MOL0     C  864   5.685   4.461   6.168  0.0714 -0.5046 -0.1111
  748MOL0     C  865   5.549   4.405   6.192  0.0261 -0.8742  0.0680
  748MOL0     C  866   5.517   4.384   6.337  0.0890  0.1968 -0.7872
  748MOL0     C  867   5.374   4.342   6.375  0.5179 -0.3051 -0.4485
  748MOL0     C  868   5.330   4.388   6.507 -0.3072  0.4916  0.0467
  748MOL0     O  869   5.339   4.527   6.525 -0.0933 -0.7157 -0.1234
  748MOL0     C  870   5.273   4.603   6.442  0.8999  0.3815 -0.1765
  748MOL0     C  871   5.327   4.722   6.392  0.7886 -0.6919 -0.5379
  748MOL0     C  872   5.260   4.816   6.314  1.1417  0.3943 -0.5711
  748MOL0     C  873   5.332   4.954   6.284 -0.5692  0.6924 -0.2821
  748MOL0     C  874   5.115   4.802   6.290 -0.3944  0.5035 -0.7640
  748MOL0     C  875   5.023   4.895   6.215  0.0945  0.1363 -0.9667
  748MOL0     O  876   4.898   4.848   6.199 -0.2840  0.5098 -0.5414
  748MOL0     C  877   4.816   4.914   6.113 -0.2049  0.3870 -0.0705
  748MOL0     C  878   4.683   4.899   6.150  0.9440 -0.5228 -0.5610
  748MOL0     C  879   4.574   4.957   6.082  0.2715 -0.2893  0.0039
  748MOL0     C  880   4.606   5.037   5.972  0.6784 -0.2207 -0.0677
  748MOL0     O  881   4.521   5.121   5.901  0.7404 -0.2728 -0.3199
  748MOL0     C  882   4.387   5.133   5.949 -0.5603 -0.1749 -0.0911
  748MOL0     C  883   4.316   5.237   5.871 -0.1370  0.7278  0.3634
  748MOL0     C  884   4.269   5.179   5.743  0.2675  1.1962  0.3365
  748MOL0     C  885   4.181   5.051   5.740 -1.0726 -0.0714  0.4835
  748MOL0     C  886   4.149   5.016   5.593  0.2671  0.0624 -0.6706
  748MOL0     C  887   4.018   4.940   5.576  0.0116 -0.3253 -0.1964
  748MOL0     C  888   4.001   4.906   5.429 -0.0701  0.1574  0.0555
  748MOL0     C  889   3.864   4.838   5.416 -0.6229  0.2792 -0.3374
  748MOL0    Cl  890   3.826   4.840   5.244 -0.2344 -0.2705 -0.0932
  748MOL0     C  891   4.740   5.064   5.945  0.4010  0.9066 -0.8066
  748MOL0     C  892   4.846   4.996   6.008  0.0395  0.1642 -0.1982
  748MOL0     O  893   5.065   5.001   6.173  0.1929  0.0978 -0.0737
  748MOL0     C  894   5.059   4.677   6.339  0.7353 -0.3664 -0.3786
  748MOL0     C  895   5.131   4.584   6.414 -0.6949  0.4777  0.0309
  748MOL0     N  896   5.773   4.421   6.061  0.2357  0.0058 -0.1680
  748MOL0     N  897   5.877   4.485   6.069 -0.3424 -0.1882 -0.0037
  748MOL0     C  898   5.230   5.275   5.896  0.6311 -0.8108 -1.0039
  748MOL0     C  899   5.090   5.286   5.868  0.3936  0.0760 -0.2189
  748MOL0     C  900   4.720   5.441   5.598 -1.4002 -0.4199 -0.3256
  748MOL0     C  901   4.663   5.453   5.472  0.4986 -0.5932 -1.0825
  748MOL0     C  902   4.529   5.511   5.463 -0.0099 -0.3865  0.2362
  748MOL0     C  903   4.458   5.553   5.567  0.2176  0.2216  0.2302
  748MOL0     O  904   4.328   5.607   5.536 -0.2108  0.2136  0.7159
  748MOL0     C  905   4.241   5.649   5.655  0.0796 -0.1011  0.5019
  748MOL0     C  906   4.141   5.743   5.592  0.1200 -1.4220 -0.6237
  748MOL0     C  907   4.196   5.856   5.505 -0.1424 -0.4774  0.6605
  748MOL0     C  908   4.098   5.935   5.422 -0.3142  0.5274 -0.5386
  748MOL0     C  909   4.034   5.849   5.332 -0.2983 -0.6081 -0.5621
  748MOL0     C  910   3.982   5.770   5.260 -0.2090 -0.4187  0.3323
  748MOL0     C  911   4.518   5.545   5.695 -0.0381 -0.4747  0.1188
  748MOL0     C  912   4.648   5.495   5.715  0.6201  0.2981  0.2832
  748MOL0     H  913   5.110   5.506   5.619  1.5382  1.5810  0.5878
  748MOL0     H  914   5.346   5.475   5.662 -0.6683  0.5403 -0.3259
  748MOL0     H  915   5.505   5.357   6.034 -0.0909  2.9951 -1.3702
  748MOL0     H  916   5.519   5.185   5.983  2.0618  0.6356 -0.3584
  748MOL0     H  917   5.719   5.236   5.842  1.0589  1.4201 -0.3851
  748MOL0     H  918   5.706   5.402   5.886 -2.5218  0.2035 -0.9278
  748MOL0     H  919   5.871   5.309   6.043  0.0311 -0.5404 -2.8607
  748MOL0     H  920   5.726   5.281   6.135 -0.3478  0.8104  0.1845
  748MOL0     H  921   5.712   5.033   6.043  0.1489  0.7144  0.5650
  748MOL0     H  922   5.849   5.090   5.938 -1.5395  2.1550 -1.6415
  748MOL0     H  923   5.970   5.167   6.138  0.8589 -0.3890 -2.9456
  748MOL0     H  924   5.844   5.084   6.243 -1.4518 -2.0115 -0.1974
  748MOL0     H  925   6.031   4.935   6.069  0.2277  1.6510 -0.0440
  748MOL0     H  926   6.027   4.940   6.246 -0.1070 -0.4719  0.4180
  748MOL0     H  927   5.788   4.848   6.218  0.2003  0.7605 -0.5853
  748MOL0     H  928   5.831   4.816   6.046 -0.6696 -0.4662  1.2831
  748MOL0     H  929   5.991   4.705   6.282  2.5536 -1.6991 -0.0696
  748MOL0     H  930   6.039   4.684   6.115  0.7223 -0.9636  2.4830
  748MOL0     H  931   5.700   4.624   6.303 -0.5289 -0.0437 -0.7848
  748MOL0     H  932   5.473   4.462   6.137 -1.7660 -2.1410  1.1032
  748MOL0     H  933   5.535   4.306   6.146 -0.4591 -0.1847 -1.3367
  748MOL0     H  934   5.533   4.476   6.394 -2.1605  0.9742 -1.3230
  748MOL0     H  935   5.597   4.316   6.367  1.3638  2.6364  1.9185
  748MOL0     H  936   5.377   4.233   6.378 -1.4302 -0.3929 -0.9577
  748MOL0     H  937   5.307   4.361   6.291  1.8810  1.3292 -1.2287
  748MOL0     H  938   5.399   4.340   6.576 -1.7788 -0.9571  0.5867
  748MOL0     H  939   5.226   4.359   6.529  0.3274 -1.2536  0.9304
  748MOL0     H  940   5.425   4.742   6.434  0.3295  1.5321 -0.4339
  748MOL0     H  941   5.276   5.035   6.332 -0.7076 -1.0676  2.8124
  748MOL0     H  942   5.427   4.970   6.335 -1.3856 -2.0307  2.3601
  748MOL0     H  943   5.334   4.978   6.178 -2.5304 -0.8785 -0.7339
  748MOL0     H  944   4.666   4.820   6.222 -1.9821 -0.0423 -0.6040
  748MOL0     H  945   4.475   4.939   6.123  0.5551  2.3627  2.1629
  748MOL0     H  946   4.340   5.034   5.951 -2.5308  0.6445  3.3446
  748MOL0     H  947   4.400   5.171   6.051  1.2903 -0.8113 -0.0455
  748MOL0     H  948   4.226   5.254   5.931  0.0318  1.4721  0.4094
  748MOL0     H  949   4.379   5.325   5.858  0.7327 -0.1461 -1.7224
  748MOL0     H  950   4.356   5.169   5.677 -0.0069 -0.1611  0.1497
  748MOL0     H  951   4.206   5.258   5.700 -0.3726  0.5976  0.1663
  748MOL0     H  952   4.234   4.968   5.787 -0.3814  0.1821  0.1760
  748MOL0     H  953   4.086   5.077   5.787 -1.0056  1.4964 -0.1927
  748MOL0     H  954   4.234   4.970   5.542  0.2306 -0.5509 -0.1979
  748MOL0     H  955   4.137   5.101   5.526 -0.6373 -0.8203 -1.6804
  748MOL0     H  956   4.016   4.842   5.625 -2.7339 -0.8406 -1.1564
  748MOL0     H  957   3.931   4.999   5.608  0.4833 -1.2627  3.2042
  748MOL0     H  958   4.084   4.841   5.399 -1.3209 -1.0951 -0.8270
  748MOL0     H  959   4.001   4.992   5.361 -3.7449  1.6405  1.6347
  748MOL0     H  960   3.781   4.895   5.459 -0.2749  1.8396 -1.6284
  748MOL0     H  961   3.870   4.743   5.469 -2.4818  1.0950  1.4385
  748MOL0     H  962   4.770   5.129   5.863 -0.7427  0.2541 -1.7703
  748MOL0     H  963   4.943   5.007   5.960 -0.8464  2.3586 -1.6575
  748MOL0     H  964   4.954   4.661   6.319  0.0777  0.7553  1.7836
  748MOL0     H  965   5.084   4.500   6.463 -1.3240 -0.0583 -1.4357
  748MOL0     H  966   5.247   5.209   5.981 -1.1185 -0.3880 -0.2793
  748MOL0     H  967   5.010   5.239   5.924  0.3649  1.5137  1.0229
  748MOL0     H  968   4.717   5.428   5.381  2.8236  2.5665 -0.7489
  748MOL0     H  969   4.500   5.539   5.362  1.6370  1.6449  0.2527
  748MOL0     H  970   4.181   5.562   5.684  0.5613 -0.7711 -0.4755
  748MOL0     H  971   4.288   5.702   5.739  0.3489  1.4800 -0.6020
  748MOL0     H  972   4.073   5.784   5.668 -0.5742 -0.1014 -1.8996
  748MOL0     H  973   4.075   5.679   5.532 -4.2028  1.5989  0.4257
  748MOL0     H  974   4.271   5.820   5.435 -0.0154 -0.0049  0.5516
  748MOL0     H  975   4.238   5.926   5.578 -0.0829  0.6388 -0.4237
  748MOL0     H  976   4.155   6.009   5.366 -0.9886  0.1487 -1.7639
  748MOL0     H  977   4.021   5.976   5.487 -1.2243 -1.7168 -0.0835
  748MOL0     H  978   3.941   5.707   5.184  2.4453  1.1194 -2.6271
  748MOL0     H  979   4.454   5.569   5.780  1.4950 -1.5373  1.6318
  748MOL0     H  980   4.694   5.510   5.812 -0.7952  0.4255  0.9628
  749MOL0     O  981   1.344   6.463  10.863 -0.3620 -0.3570 -0.2664
  749MOL0     C  982   1.385   6.581  10.880 -0.5394  0.5329  0.1416
  749MOL0     O  983   1.422   6.628  11.008 -0.9168 -0.2200  0.4885
  749MOL0     C  984   1.393   6.559  11.114 -0.6887 -0.0068  0.0702
  749MOL0     C  985   1.502   6.498  11.187 -0.4905  0.5444  0.1988
  749MOL0     C  986   1.474   6.421  11.300 -0.3015  0.2763  0.1047
  749MOL0     C  987   1.346   6.388  11.336 -1.2811 -1.2465 -0.3294
  749MOL0     O  988   1.315   6.332  11.459 -0.5706 -0.1494 -0.7140
  749MOL0     C  989   1.272   6.196  11.440 -0.2956  0.0158 -0.0046
  749MOL0     C  990   1.272   6.122  11.566  0.2999  0.0828 -0.0311
  749MOL0     C  991   1.165   6.182  11.660 -0.1974 -0.3532 -0.4814
  749MOL0     C  992   1.064   6.069  11.712 -0.1377 -0.2138 -0.2677
  749MOL0     C  993   0.940   6.119  11.783  0.0347 -0.5652 -0.6962
  749MOL0     C  994   0.853   6.021  11.857 -0.0692 -0.6903  1.6323
  749MOL0     C  995   0.730   6.096  11.924 -0.6596  0.4090  0.1904
  749MOL0     C  996   0.642   6.008  12.011  0.0353  0.0100  0.0368
  749MOL0     N  997   0.714   5.979  12.143  0.1624 -0.0832  0.0626
  749MOL0     C  998   0.722   6.056  12.255  0.1325  0.4549 -0.4779
  749MOL0     C  999   0.791   5.984  12.349  1.0145 -0.3629 -0.4531
  749MOL0     C 1000   0.825   6.035  12.483 -0.8285  0.5811 -0.4041
  749MOL0     C 1001   0.869   5.921  12.580 -0.3806 -0.2368 -0.7737
  749MOL0     C 1002   0.902   5.976  12.715  0.4550 -0.6783  0.0476
  749MOL0     C 1003   1.018   6.079  12.708 -0.0762 -0.4764 -0.3598
  749MOL0     O 1004   1.055   6.090  12.843  0.0310 -0.3352  0.2782
  749MOL0     C 1005   1.152   6.182  12.880 -1.4137  0.0551  0.3127
  749MOL0     C 1006   1.247   6.123  12.961  1.4307  1.2892  0.5347
  749MOL0     C 1007   1.359   6.186  13.010 -0.4189  0.1047  0.3295
  749MOL0     C 1008   1.465   6.104  13.090 -1.1261 -0.2696  0.1334
  749MOL0     C 1009   1.380   6.314  12.970  0.1180  0.1528  0.8787
  749MOL0     C 1010   1.498   6.392  13.010 -0.0363 -0.1691 -0.0287
  749MOL0     O 1011   1.538   6.491  12.929 -0.5453 -0.1955  0.5229
  749MOL0     C 1012   1.642   6.570  12.976  0.4563  0.3943 -0.1715
  749MOL0     C 1013   1.616   6.707  12.999  0.0980 -0.0405  0.3657
  749MOL0     C 1014   1.728   6.796  13.031  0.0430 -0.1181  0.4869
  749MOL0     C 1015   1.862   6.748  13.019 -0.3748 -0.0034 -0.0176
  749MOL0     O 1016   1.986   6.815  13.043  0.1756  0.0061 -0.1155
  749MOL0     C 1017   2.001   6.946  12.978  0.0993  0.4843 -0.6841
  749MOL0     C 1018   2.141   7.009  13.030  0.9438  1.4491  0.3624
  749MOL0     C 1019   2.173   7.148  12.973 -0.5982 -0.1617 -0.3723
  749MOL0     C 1020   2.214   7.153  12.834 -0.2104  0.0070  0.9909
  749MOL0     C 1021   2.220   7.302  12.803 -0.6478  0.5665 -0.3231
  749MOL0     C 1022   2.085   7.360  12.750 -0.3057  0.2954  0.4661
  749MOL0     C 1023   2.088   7.492  12.666 -0.5260 -0.0899 -0.3419
  749MOL0     C 1024   2.107   7.608  12.764  0.5975  0.2788 -0.4790
  749MOL0    Cl 1025   2.125   7.755  12.668 -0.9034  0.0182 -0.1726
  749MOL0     C 1026   1.887   6.618  12.974  0.6166  1.6571 -0.1449
  749MOL0     C 1027   1.773   6.533  12.946 -0.4912  0.2427  0.3984
  749MOL0     O 1028   1.539   6.380  13.130 -0.3085 -0.2162 -0.1524
  749MOL0     C 1029   1.290   6.375  12.871 -1.0248 -1.2154 -0.1826
  749MOL0     C 1030   1.176   6.312  12.824  0.0154  0.2998 -0.2580
  749MOL0     N 1031   0.831   5.871  12.274 -0.2260 -0.4039  0.1539
  749MOL0     N 1032   0.782   5.865  12.157  0.1815 -0.0311  0.0672
  749MOL0     C 1033   1.242   6.441  11.259  0.3136  0.5964  0.6441
  749MOL0     C 1034   1.263   6.532  11.151 -0.2752 -0.0545 -0.3901
  749MOL0     C 1035   1.416   6.663  10.764  0.7262  0.2455  0.4897
  749MOL0     C 1036   1.435   6.801  10.775 -0.3598 -0.0487  1.1088
  749MOL0     C 1037   1.467   6.877  10.659  0.3096  0.6400  0.4675
  749MOL0     C 1038   1.473   6.814  10.535  0.5820  0.6489  0.4686
  749MOL0     O 1039   1.508   6.870  10.410 -0.8974 -0.9085 -0.2250
  749MOL0     C 1040   1.577   6.997  10.411 -0.0579 -0.7948  0.0152
  749MOL0     C 1041   1.718   6.978  10.469 -0.1827  0.0225  0.6358
  749MOL0     C 1042   1.798   7.104  10.468 -0.1493  0.1832 -0.2159
  749MOL0     C 1043   1.934   7.078  10.534 -0.4006  0.8200 -0.5422
  749MOL0     C 1044   1.926   7.030  10.674 -0.6551  0.1749  0.7453
  749MOL0     C 1045   1.918   7.007  10.791  1.2241  0.5364 -0.0863
  749MOL0     C 1046   1.422   6.685  10.520  0.0608 -0.3237 -0.1104
  749MOL0     C 1047   1.404   6.605  10.634 -0.8470 -0.3482  0.9199
  749MOL0     H 1048   1.606   6.521  11.168  0.1705 -0.7340  2.0125
  749MOL0     H 1049   1.562   6.375  11.345  0.7448  0.3957 -1.7098
  749MOL0     H 1050   1.174   6.197  11.391 -0.1117 -1.2959 -0.4233
  749MOL0     H 1051   1.341   6.150  11.369  0.2066  1.4558 -0.4907
  749MOL0     H 1052   1.254   6.016  11.549 -3.0234  0.3579  1.0633
  749MOL0     H 1053   1.371   6.133  11.611 -0.5051  0.3222  1.7700
  749MOL0     H 1054   1.215   6.235  11.743 -1.6435 -1.4657  1.1793
  749MOL0     H 1055   1.099   6.249  11.604 -1.1590 -1.4632 -0.7076
  749MOL0     H 1056   1.031   5.998  11.636 -0.9459  0.1108 -0.2307
  749MOL0     H 1057   1.128   6.001  11.769 -0.3752 -1.7646 -1.7724
  749MOL0     H 1058   0.975   6.187  11.861  0.3812 -1.4740 -0.0519
  749MOL0     H 1059   0.886   6.195  11.725  1.9161  0.9622 -0.5324
  749MOL0     H 1060   0.811   5.952  11.783 -2.8006  1.0542  1.4110
  749MOL0     H 1061   0.915   5.962  11.925  1.2977 -2.3097 -0.8754
  749MOL0     H 1062   0.781   6.183  11.966  0.8184  0.7247 -2.0873
  749MOL0     H 1063   0.665   6.125  11.841 -1.6912 -3.4877 -0.5555
  749MOL0     H 1064   0.620   5.911  11.965 -0.6847 -0.5753  1.5363
  749MOL0     H 1065   0.546   6.058  12.030  0.9595  1.5059  0.9379
  749MOL0     H 1066   0.669   6.147  12.282 -0.7787  0.2939 -1.6662
  749MOL0     H 1067   0.910   6.101  12.462  1.2643 -1.6263  0.6624
  749MOL0     H 1068   0.746   6.102  12.518 -1.4784  0.8083 -2.2156
  749MOL0     H 1069   0.949   5.860  12.538  1.2418  1.3827 -0.1164
  749MOL0     H 1070   0.782   5.855  12.594  2.1226 -3.8508 -0.9662
  749MOL0     H 1071   0.933   5.893  12.779 -0.5269 -0.2826  1.0720
  749MOL0     H 1072   0.811   6.018  12.760  1.0576 -1.1766  1.8184
  749MOL0     H 1073   0.974   6.173  12.676  0.8922  0.7006  1.5602
  749MOL0     H 1074   1.108   6.043  12.656  0.7474 -1.4250  1.5838
  749MOL0     H 1075   1.226   6.017  12.972 -1.1116  1.6992  0.3131
  749MOL0     H 1076   1.562   6.150  13.069 -1.3507 -0.8507 -2.5092
  749MOL0     H 1077   1.453   6.082  13.197 -1.7684  2.6418  0.7526
  749MOL0     H 1078   1.474   6.010  13.035  1.3087 -0.7294  1.1664
  749MOL0     H 1079   1.515   6.746  13.007  0.5428  2.0808 -2.7299
  749MOL0     H 1080   1.713   6.902  13.047  1.5987  0.3102 -0.6172
  749MOL0     H 1081   2.006   6.926  12.870  2.1106 -1.3419 -0.3212
  749MOL0     H 1082   1.922   7.011  13.017 -1.3039 -2.5013  1.9169
  749MOL0     H 1083   2.127   7.021  13.138 -0.5676 -0.3806  0.4168
  749MOL0     H 1084   2.218   6.940  12.996  1.1505  1.6177  0.4858
  749MOL0     H 1085   2.259   7.182  13.031  0.1335  2.8685 -2.9347
  749MOL0     H 1086   2.086   7.211  12.993  0.0281  0.5037  0.3234
  749MOL0     H 1087   2.306   7.095  12.819  0.1193  0.2333  2.0110
  749MOL0     H 1088   2.136   7.112  12.770  0.4676  1.3665 -0.7800
  749MOL0     H 1089   2.289   7.312  12.719  0.7303 -0.6924  0.6068
  749MOL0     H 1090   2.266   7.362  12.881 -2.0183  1.6360 -0.2980
  749MOL0     H 1091   2.050   7.279  12.685 -0.8285  0.6910  0.2512
  749MOL0     H 1092   2.011   7.364  12.831  0.6932 -0.7378  1.4685
  749MOL0     H 1093   1.997   7.504  12.607  0.3775  4.9308 -1.2193
  749MOL0     H 1094   2.164   7.469  12.591 -2.2867 -2.4898 -1.4986
  749MOL0     H 1095   2.196   7.593  12.825  1.2792  4.2930 -0.2147
  749MOL0     H 1096   2.020   7.616  12.831  0.6554  0.2067 -0.3957
  749MOL0     H 1097   1.985   6.572  12.964 -0.0920  0.1617 -0.4552
  749MOL0     H 1098   1.797   6.436  12.906 -2.1486  0.7220 -2.0062
  749MOL0     H 1099   1.307   6.475  12.832  0.6677 -2.0985 -1.8586
  749MOL0     H 1100   1.102   6.353  12.756  1.3063 -0.6554 -2.3333
  749MOL0     H 1101   1.139   6.413  11.280  0.2484  2.7125  3.6105
  749MOL0     H 1102   1.170   6.569  11.107 -1.4950  1.1597  2.8958
  749MOL0     H 1103   1.427   6.854  10.869 -3.6787  2.4615 -0.3659
  749MOL0     H 1104   1.495   6.979  10.683  0.9503  0.8986 -1.2298
  749MOL0     H 1105   1.584   7.038  10.310  0.4307  1.2134  0.8147
  749MOL0     H 1106   1.519   7.068  10.471 -1.1828 -0.4459 -1.4292
  749MOL0     H 1107   1.761   6.895  10.411 -0.3958  1.1385 -1.2165
  749MOL0     H 1108   1.713   6.951  10.575  2.2012 -0.1714  0.7445
  749MOL0     H 1109   1.749   7.180  10.528 -1.4753 -0.0675 -0.9334
  749MOL0     H 1110   1.826   7.131  10.366  0.3110  0.3211 -0.0561
  749MOL0     H 1111   1.998   7.167  10.541  2.1873 -1.0522  1.6967
  749MOL0     H 1112   1.993   7.005  10.479  2.2918  1.5221  1.1707
  749MOL0     H 1113   1.904   6.992  10.896 -3.4534 -0.1121 -0.6150
  749MOL0     H 1114   1.406   6.630  10.428 -0.1069  1.4784 -1.2156
  749MOL0     H 1115   1.384   6.498  10.638  1.6278 -0.8354  3.3053
  750MOL0     O 1116   9.946   2.551   8.014  0.3863  0.0371 -0.1503
  750MOL0     C 1117   9.988   2.468   7.938 -0.1587 -0.2083 -0.1287
  750MOL0     O 1118   9.991   2.476   7.794  0.7082 -0.3682 -0.2902
  750MOL0     C 1119   9.925   2.577   7.742 -0.3373  0.4734 -0.4346
  750MOL0     C 1120   9.799   2.547   7.703  0.3196 -0.0903  0.2695
  750MOL0     C 1121   9.731   2.629   7.608  0.4930  0.2238 -0.4738
  750MOL0     C 1122   9.790   2.751   7.569  0.2241  0.2622 -0.6685
  750MOL0     O 1123   9.728   2.817   7.469 -0.2349  0.4456 -0.6187
  750MOL0     C 1124   9.804   2.870   7.362 -0.7001  0.4208 -0.8258
  750MOL0     C 1125   9.708   2.953   7.269 -0.0648 -0.0198  0.3684
  750MOL0     C 1126   9.572   2.883   7.241 -0.1239 -0.2624  0.3251
  750MOL0     C 1127   9.478   2.969   7.151  0.6908  0.4665  0.3095
  750MOL0     C 1128   9.331   2.947   7.200 -0.6120  0.0705  0.1542
  750MOL0     C 1129   9.242   3.048   7.128 -1.5229  0.0213  0.1994
  750MOL0     C 1130   9.088   3.014   7.143  0.1240 -0.2755  0.1242
  750MOL0     C 1131   9.037   2.986   7.277  0.2710  0.2635  0.4026
  750MOL0     N 1132   8.894   2.969   7.273 -0.3026  0.4575 -0.1659
  750MOL0     C 1133   8.835   2.850   7.228 -0.5790 -0.5749 -0.2422
  750MOL0     C 1134   8.708   2.877   7.193 -0.4814 -0.4678 -0.5731
  750MOL0     C 1135   8.608   2.792   7.137 -0.4402 -0.7177  0.1419
  750MOL0     C 1136   8.618   2.648   7.166  0.6674  0.8232  0.8765
  750MOL0     C 1137   8.563   2.613   7.303 -0.6840  0.7878 -0.3894
  750MOL0     C 1138   8.539   2.460   7.316 -0.2813 -0.0644  0.2509
  750MOL0     O 1139   8.483   2.444   7.440 -0.2407  0.7045  0.1221
  750MOL0     C 1140   8.359   2.395   7.443  0.1588  0.0956  0.7207
  750MOL0     C 1141   8.319   2.278   7.513  0.7367 -0.8223 -0.9584
  750MOL0     C 1142   8.186   2.233   7.505 -0.6259  0.4598 -0.9176
  750MOL0     C 1143   8.164   2.106   7.580  0.0345  0.1335 -0.0582
  750MOL0     C 1144   8.090   2.316   7.451  0.4796  0.1751  0.1424
  750MOL0     C 1145   7.946   2.281   7.448 -0.2073  0.1822  0.4851
  750MOL0     O 1146   7.869   2.348   7.362  0.0565  0.8092 -0.1188
  750MOL0     C 1147   7.731   2.348   7.385 -0.0121  0.4214  0.0297
  750MOL0     C 1148   7.645   2.309   7.278  0.2794  0.8666  0.2000
  750MOL0     C 1149   7.504   2.318   7.283 -0.7587  0.3657 -0.0831
  750MOL0     C 1150   7.447   2.384   7.392  0.0850 -0.6492  0.2457
  750MOL0     O 1151   7.312   2.391   7.389 -0.8633 -0.6031 -0.1000
  750MOL0     C 1152   7.244   2.512   7.432  0.5674 -0.1782  0.3572
  750MOL0     C 1153   7.103   2.474   7.471  0.7519  0.5540  0.5624
  750MOL0     C 1154   7.033   2.589   7.544  0.0028  0.3717  0.0631
  750MOL0     C 1155   6.882   2.578   7.544  1.3524 -0.0897 -0.1784
  750MOL0     C 1156   6.811   2.701   7.602 -0.0311 -0.6934  0.5614
  750MOL0     C 1157   6.827   2.721   7.750 -0.4625 -0.0590  0.4105
  750MOL0     C 1158   6.758   2.856   7.782 -0.0353  0.5550 -0.7245
  750MOL0     C 1159   6.708   2.860   7.924  1.3064  0.3773  0.0090
  750MOL0    Cl 1160   6.656   3.038   7.933 -0.1269  0.2419  0.1628
  750MOL0     C 1161   7.527   2.412   7.508 -0.5193 -0.2850  0.0043
  750MOL0     C 1162   7.667   2.403   7.501  0.1735  0.0258 -0.8112
  750MOL0     O 1163   7.903   2.211   7.538 -0.7233  0.1878 -0.0099
  750MOL0     C 1164   8.130   2.432   7.381  0.3034 -0.7977 -0.2288
  750MOL0     C 1165   8.262   2.470   7.381  1.1118 -0.5752  0.7294
  750MOL0     N 1166   8.685   3.006   7.232  0.3210 -0.9331 -0.2180
  750MOL0     N 1167   8.794   3.056   7.269 -0.1161  0.0743  0.0904
  750MOL0     C 1168   9.915   2.777   7.619 -0.5555 -0.6356  0.3718
  750MOL0     C 1169   9.993   2.695   7.708  0.8004 -0.4988 -0.0437
  750MOL0     C 1170  10.071   2.370   7.999 -0.2446  0.4376  0.9549
  750MOL0     C 1171  10.076   2.356   8.140 -0.1161 -0.3130 -0.9801
  750MOL0     C 1172  10.165   2.258   8.192 -0.9786 -0.0874 -0.0208
  750MOL0     C 1173  10.255   2.188   8.105 -0.9852 -0.4200 -0.3402
  750MOL0     O 1174  10.358   2.107   8.162 -0.0261  0.4179  1.2277
  750MOL0     C 1175  10.338   2.051   8.292 -0.0936  0.0794 -0.0019
  750MOL0     C 1176  10.227   1.944   8.288  0.1060 -0.1864  0.0249
  750MOL0     C 1177  10.213   1.900   8.435 -0.0547  0.8264 -0.7640
  750MOL0     C 1178  10.073   1.851   8.468 -0.1896 -0.0186 -0.6096
  750MOL0     C 1179  10.064   1.705   8.441  0.6072 -0.8048  0.2237
  750MOL0     C 1180  10.053   1.587   8.406 -0.9470  0.1836  0.5599
  750MOL0     C 1181  10.258   2.210   7.969  0.6196  0.5629  0.6725
  750MOL0     C 1182  10.151   2.287   7.914  0.2313 -0.0238  0.2550
  750MOL0     H 1183   9.739   2.460   7.728  1.2898 -0.4799  1.3375
  750MOL0     H 1184   9.635   2.605   7.563  0.0197  0.1992  0.5192
  750MOL0     H 1185   9.885   2.934   7.400 -1.0765  0.5024 -0.1394
  750MOL0     H 1186   9.843   2.780   7.314  1.6399 -0.0115  1.6470
  750MOL0     H 1187   9.690   3.047   7.321 -0.3208  0.6273 -0.8520
  750MOL0     H 1188   9.752   2.975   7.171 -1.4566 -1.6083 -0.6822
  750MOL0     H 1189   9.589   2.793   7.182 -0.1290 -2.0692  2.8913
  750MOL0     H 1190   9.525   2.855   7.336 -1.0557 -1.0782 -0.3582
  750MOL0     H 1191   9.512   3.073   7.164 -0.4404  0.8291  0.5133
  750MOL0     H 1192   9.496   2.925   7.053 -1.8486 -0.0499  0.0069
  750MOL0     H 1193   9.306   2.844   7.172  0.9934 -0.5087  0.7453
  750MOL0     H 1194   9.319   2.946   7.309 -0.6248  0.8640  0.1682
  750MOL0     H 1195   9.263   3.150   7.162  2.6437 -0.5562 -0.0653
  750MOL0     H 1196   9.271   3.045   7.023 -0.7054  0.3632  0.4015
  750MOL0     H 1197   9.023   3.082   7.087  0.3209  0.7438  1.0947
  750MOL0     H 1198   9.079   2.929   7.074 -2.1298  0.4033 -0.4680
  750MOL0     H 1199   9.056   3.071   7.342  1.3254  0.3203  0.0558
  750MOL0     H 1200   9.092   2.899   7.315 -0.8858 -1.1002 -0.9316
  750MOL0     H 1201   8.887   2.754   7.221  1.0513  0.2890 -0.4113
  750MOL0     H 1202   8.502   2.811   7.153 -1.5390 -4.8108 -1.0584
  750MOL0     H 1203   8.621   2.794   7.028  0.3623  0.4629  0.2374
  750MOL0     H 1204   8.722   2.622   7.147  0.2230  0.1809 -0.9462
  750MOL0     H 1205   8.545   2.596   7.103 -0.6446  0.9289  2.2464
  750MOL0     H 1206   8.468   2.666   7.309 -1.4504 -0.4250 -1.3604
  750MOL0     H 1207   8.646   2.642   7.369  1.3312 -0.2482 -2.3303
  750MOL0     H 1208   8.633   2.405   7.314 -0.2894 -0.0672 -0.0236
  750MOL0     H 1209   8.489   2.418   7.228  0.9449 -3.7913  1.1372
  750MOL0     H 1210   8.393   2.224   7.571  0.5142 -0.9353 -0.7799
  750MOL0     H 1211   8.078   2.052   7.540 -0.7329  2.3782 -1.5840
  750MOL0     H 1212   8.246   2.036   7.563 -0.1283  0.3826 -2.0314
  750MOL0     H 1213   8.152   2.118   7.688 -1.7335 -0.7276 -0.1179
  750MOL0     H 1214   7.695   2.253   7.199 -0.0634 -0.4344  0.8894
  750MOL0     H 1215   7.443   2.272   7.206  0.3264 -1.4988  0.1352
  750MOL0     H 1216   7.281   2.563   7.521  0.0615  3.0182 -1.1174
  750MOL0     H 1217   7.252   2.577   7.345  2.7243 -1.4947 -0.5299
  750MOL0     H 1218   7.048   2.454   7.379  3.5063 -1.4813 -0.8081
  750MOL0     H 1219   7.107   2.384   7.533  2.9194 -0.8323 -1.4213
  750MOL0     H 1220   7.058   2.692   7.516  0.1288  0.8084  1.6259
  750MOL0     H 1221   7.057   2.583   7.651 -0.6597  0.2197  0.2091
  750MOL0     H 1222   6.846   2.567   7.441  1.0891 -2.8360  0.1206
  750MOL0     H 1223   6.854   2.489   7.601 -1.0443  0.5710 -0.2367
  750MOL0     H 1224   6.705   2.691   7.579 -0.1280 -3.9570  1.9397
  750MOL0     H 1225   6.847   2.794   7.558 -0.0013 -0.9457  0.0493
  750MOL0     H 1226   6.766   2.641   7.791 -2.2093  1.2348  0.4621
  750MOL0     H 1227   6.927   2.709   7.792 -0.3594 -0.3828  0.0770
  750MOL0     H 1228   6.670   2.862   7.718  0.6858 -3.1242 -2.2796
  750MOL0     H 1229   6.840   2.927   7.766 -1.0192  1.3827 -2.3425
  750MOL0     H 1230   6.787   2.839   7.996 -0.6632  0.8006  2.4366
  750MOL0     H 1231   6.627   2.787   7.936  1.2089  0.6356  1.0203
  750MOL0     H 1232   7.479   2.450   7.598  1.7492  1.0895  0.7438
  750MOL0     H 1233   7.722   2.431   7.591 -1.2259 -1.4794  0.5755
  750MOL0     H 1234   8.057   2.492   7.328 -0.8654 -2.4116 -0.5048
  750MOL0     H 1235   8.295   2.559   7.328  0.6179  0.1920  1.6797
  750MOL0     H 1236   9.964   2.869   7.589 -1.0993  0.2889  2.1739
  750MOL0     H 1237  10.091   2.722   7.747  1.3287 -2.3424  0.0024
  750MOL0     H 1238  10.019   2.413   8.213  1.0817 -0.4610  0.1139
  750MOL0     H 1239  10.150   2.248   8.299  1.6930  2.6256  0.7374
  750MOL0     H 1240  10.435   2.010   8.321  0.5138  1.5039  0.1079
  750MOL0     H 1241  10.335   2.132   8.366  0.2675 -0.9505  1.1760
  750MOL0     H 1242  10.250   1.870   8.211  1.1661  2.5293 -2.4640
  750MOL0     H 1243  10.130   1.986   8.260  0.0999 -0.8504 -1.0230
  750MOL0     H 1244  10.238   1.977   8.509 -1.5771  1.6117 -1.0279
  750MOL0     H 1245  10.280   1.816   8.457 -0.5765  0.7139  0.5076
  750MOL0     H 1246  10.000   1.917   8.419 -1.6784 -0.8773  0.3815
  750MOL0     H 1247  10.043   1.870   8.571  0.5361  2.3240 -0.7674
  750MOL0     H 1248  10.037   1.486   8.376 -0.6617  0.2346  0.2295
  750MOL0     H 1249  10.346   2.170   7.920 -0.3320  0.3814 -0.9601
  750MOL0     H 1250  10.158   2.313   7.809  1.1806 -0.0274  0.3017
  751MOL0     O 1251   2.978   8.970   6.455 -0.6593  0.1208 -0.3600
  751MOL0     C 1252   2.936   8.881   6.382  0.0513  0.2266 -0.1997
  751MOL0     O 1253   2.833   8.883   6.294  0.7681 -0.4817  0.5148
  751MOL0     C 1254   2.723   8.955   6.341  0.8405  0.8267  0.5779
  751MOL0     C 1255   2.635   8.882   6.423 -0.5211  0.0386  0.0455
  751MOL0     C 1256   2.521   8.946   6.475 -0.8344  0.4255  0.3119
  751MOL0     C 1257   2.513   9.085   6.462  0.9585 -0.3579 -0.5368
  751MOL0     O 1258   2.410   9.158   6.509 -0.3593 -0.1137  0.0305
  751MOL0     C 1259   2.282   9.097   6.534  0.1210 -0.1928 -0.1157
  751MOL0     C 1260   2.179   9.204   6.531  0.4979  0.7938  1.0286
  751MOL0     C 1261   2.046   9.130   6.536  0.3959 -0.7072  0.7190
  751MOL0     C 1262   1.935   9.228   6.508 -0.3866  0.4629 -0.2739
  751MOL0     C 1263   1.789   9.156   6.505 -0.0544  0.0160 -0.0772
  751MOL0     C 1264   1.710   9.155   6.635  0.1642  0.6545 -0.8106
  751MOL0     C 1265   1.602   9.043   6.644  0.4108 -0.0924  0.3970
  751MOL0     C 1266   1.504   9.051   6.530 -0.4418 -0.3754 -0.1206
  751MOL0     N 1267   1.418   9.175   6.532 -0.4652  0.1755 -0.0812
  751MOL0     C 1268   1.345   9.226   6.636 -0.0640  0.0542 -0.4892
  751MOL0     C 1269   1.304   9.346   6.584  0.0279  0.5716 -0.4350
  751MOL0     C 1270   1.214   9.447   6.648 -0.5081  0.2064  0.0921
  751MOL0     C 1271   1.075   9.403   6.701 -0.2027  0.5390 -0.6935
  751MOL0     C 1272   0.962   9.386   6.594 -1.0904 -0.6582  0.5580
  751MOL0     C 1273   0.973   9.255   6.527 -0.0081  0.1466 -0.6037
  751MOL0     O 1274   0.987   9.150   6.622  0.1377  0.3303 -0.0072
  751MOL0     C 1275   0.891   9.059   6.623  0.3285 -0.4460 -0.6313
  751MOL0     C 1276   0.749   9.093   6.618 -0.4043 -0.5074 -0.8741
  751MOL0     C 1277   0.647   8.989   6.616 -0.0116 -1.3943  0.3617
  751MOL0     C 1278   0.501   9.033   6.609 -0.3216 -0.0791 -0.2394
  751MOL0     C 1279   0.684   8.853   6.599 -0.8992  0.0590  0.4961
  751MOL0     C 1280   0.587   8.742   6.571  0.2531 -0.4587  0.4897
  751MOL0     O 1281   0.646   8.616   6.567 -0.0265  0.3208 -0.2300
  751MOL0     C 1282   0.567   8.508   6.531 -0.2852 -0.6638  0.7718
  751MOL0     C 1283   0.513   8.501   6.408 -0.7392  0.1056 -0.3929
  751MOL0     C 1284   0.435   8.397   6.362 -0.4099  1.0648  0.2188
  751MOL0     C 1285   0.396   8.294   6.442  0.3399 -0.4879  0.0999
  751MOL0     O 1286   0.323   8.199   6.388  0.3811  0.3084 -0.1049
  751MOL0     C 1287   0.187   8.220   6.411 -0.3262  0.5273 -0.4072
  751MOL0     C 1288   0.103   8.101   6.375  0.1347  0.3536  0.1388
  751MOL0     C 1289   0.075   8.086   6.231 -0.0995 -1.3414 -0.2862
  751MOL0     C 1290  -0.009   7.958   6.207  0.2789 -0.3455  0.5188
  751MOL0     C 1291  -0.097   7.979   6.084  0.5667 -0.2615  0.0322
  751MOL0     C 1292  -0.154   7.845   6.021 -0.4143  0.2521  0.8079
  751MOL0     C 1293  -0.208   7.853   5.884 -0.4451  0.7981  0.0811
  751MOL0     C 1294  -0.278   7.981   5.860  0.8458 -0.4364 -0.5870
  751MOL0    Cl 1295  -0.330   8.007   5.696  0.3336  0.0325 -0.2630
  751MOL0     C 1296   0.445   8.291   6.571  0.5399  0.1184  0.1050
  751MOL0     C 1297   0.531   8.398   6.618  0.9123 -1.0144 -0.4640
  751MOL0     O 1298   0.471   8.764   6.563 -0.0087 -0.1090  0.4124
  751MOL0     C 1299   0.826   8.820   6.602  0.1833 -0.3560 -0.9773
  751MOL0     C 1300   0.919   8.921   6.626 -0.3550 -0.0545 -0.9825
  751MOL0     N 1301   1.349   9.359   6.457 -0.5169 -0.7199 -0.6358
  751MOL0     N 1302   1.405   9.255   6.423 -0.0561  0.3437 -0.7180
  751MOL0     C 1303   2.609   9.161   6.396 -0.9690  0.8901  0.5074
  751MOL0     C 1304   2.716   9.095   6.328  0.5647 -1.1503  0.6872
  751MOL0     C 1305   3.012   8.752   6.376 -0.7301 -0.1094 -0.0797
  751MOL0     C 1306   3.110   8.722   6.469 -0.0421 -0.8215 -0.2047
  751MOL0     C 1307   3.187   8.608   6.467  0.2800  0.0441 -0.6864
  751MOL0     C 1308   3.171   8.511   6.373  0.0848  0.0298 -0.4233
  751MOL0     O 1309   3.247   8.393   6.364  0.2752 -0.3904  1.3117
  751MOL0     C 1310   3.364   8.358   6.437  0.4703 -0.5417  0.0006
  751MOL0     C 1311   3.483   8.444   6.421  0.4642  0.3231 -0.5706
  751MOL0     C 1312   3.520   8.465   6.278  0.3120  0.0403  0.5246
  751MOL0     C 1313   3.660   8.535   6.262 -0.2980  0.1031  0.0212
  751MOL0     C 1314   3.666   8.670   6.320 -0.6107 -0.2786  0.4295
  751MOL0     C 1315   3.689   8.776   6.367  0.2478 -0.2811 -0.4492
  751MOL0     C 1316   3.072   8.531   6.274 -0.6422  0.1443 -1.0627
  751MOL0     C 1317   2.994   8.649   6.278 -0.0619 -0.0138 -0.0037
  751MOL0     H 1318   2.658   8.776   6.427  2.5194  0.4495 -2.1820
  751MOL0     H 1319   2.443   8.886   6.519 -1.1547 -0.4686 -1.3893
  751MOL0     H 1320   2.257   9.021   6.460  0.6075 -0.8748  0.4039
  751MOL0     H 1321   2.279   9.056   6.636  2.9964  0.1274  0.1745
  751MOL0     H 1322   2.185   9.277   6.612 -0.5796  0.0826  1.7945
  751MOL0     H 1323   2.191   9.260   6.439  1.5765 -0.0385  0.6395
  751MOL0     H 1324   2.054   9.058   6.454  1.5836 -2.2113  2.0955
  751MOL0     H 1325   2.038   9.083   6.634 -0.1668 -1.6573  0.2294
  751MOL0     H 1326   1.929   9.303   6.588  4.2342  0.7802  0.0139
  751MOL0     H 1327   1.962   9.281   6.416 -0.2844  0.7446 -0.0812
  751MOL0     H 1328   1.726   9.227   6.450 -2.5193 -0.8683  1.4268
  751MOL0     H 1329   1.803   9.060   6.454  0.7504 -0.7492  1.5014
  751MOL0     H 1330   1.785   9.136   6.712 -1.2553 -1.5724  0.1241
  751MOL0     H 1331   1.666   9.254   6.651  1.2498  1.1975 -1.1165
  751MOL0     H 1332   1.652   8.946   6.639 -3.3168 -2.2326  0.9850
  751MOL0     H 1333   1.556   9.053   6.742  5.2097  0.6128  2.8806
  751MOL0     H 1334   1.439   8.963   6.525  0.2117 -0.8792  0.2290
  751MOL0     H 1335   1.554   9.043   6.433  0.6221 -0.4417  0.4291
  751MOL0     H 1336   1.325   9.178   6.731  0.1387  1.2630  0.1870
  751MOL0     H 1337   1.275   9.487   6.729  1.7766 -2.6996 -0.0278
  751MOL0     H 1338   1.187   9.527   6.578 -2.3563  0.4169  0.9801
  751MOL0     H 1339   1.038   9.478   6.772  0.2882  0.6456 -0.5416
  751MOL0     H 1340   1.096   9.307   6.748 -1.0929 -0.3901 -2.1240
  751MOL0     H 1341   0.961   9.467   6.521 -0.7381  0.2332  1.5285
  751MOL0     H 1342   0.873   9.392   6.657 -2.3814 -2.0275 -1.0230
  751MOL0     H 1343   1.065   9.249   6.468  0.2311 -1.5386 -0.1174
  751MOL0     H 1344   0.892   9.237   6.456 -1.9243  1.3741  1.1671
  751MOL0     H 1345   0.727   9.199   6.621 -0.9334 -0.6345  0.4189
  751MOL0     H 1346   0.453   8.994   6.699  1.1380 -1.9037 -0.1927
  751MOL0     H 1347   0.504   9.143   6.610 -3.8680  0.1506 -1.1484
  751MOL0     H 1348   0.451   8.998   6.518  0.3070 -1.7328  0.0162
  751MOL0     H 1349   0.541   8.572   6.332  0.1712  0.0359 -0.1321
  751MOL0     H 1350   0.410   8.402   6.257  0.9435  0.5370 -0.1551
  751MOL0     H 1351   0.157   8.236   6.515  0.4907  2.2788 -0.3991
  751MOL0     H 1352   0.164   8.308   6.350 -0.2552  1.1213  0.4152
  751MOL0     H 1353   0.158   8.008   6.393 -1.6834 -0.3977  2.2862
  751MOL0     H 1354   0.011   8.099   6.433 -0.5051 -0.3693 -0.8648
  751MOL0     H 1355   0.170   8.070   6.180 -1.0101  0.4328 -2.7623
  751MOL0     H 1356   0.037   8.175   6.180  2.4812 -1.1318 -2.0136
  751MOL0     H 1357   0.059   7.874   6.189 -0.8381 -1.4859  1.4942
  751MOL0     H 1358  -0.062   7.932   6.299  1.0569 -0.8420  0.8416
  751MOL0     H 1359  -0.036   8.028   6.007  2.4322 -3.4883 -0.7497
  751MOL0     H 1360  -0.184   8.035   6.118  1.2924  0.2529  1.1323
  751MOL0     H 1361  -0.072   7.773   6.028  0.7254  1.6649  3.8268
  751MOL0     H 1362  -0.234   7.807   6.084 -1.9263  3.6062  1.1352
  751MOL0     H 1363  -0.278   7.771   5.866  1.7777 -0.8856 -1.5507
  751MOL0     H 1364  -0.125   7.840   5.814  0.0492 -1.4880  0.9918
  751MOL0     H 1365  -0.212   8.066   5.878  0.3938 -0.2876  0.4456
  751MOL0     H 1366  -0.365   7.992   5.926 -1.0741 -0.4637 -2.9457
  751MOL0     H 1367   0.435   8.208   6.640 -0.0882 -0.3561 -0.5433
  751MOL0     H 1368   0.569   8.410   6.719 -0.9505  4.6717 -0.0871
  751MOL0     H 1369   0.854   8.715   6.605 -0.0243 -0.4144 -1.0644
  751MOL0     H 1370   1.021   8.890   6.647 -1.3519 -3.0432  0.0159
  751MOL0     H 1371   2.588   9.267   6.381  1.0127  1.8447  3.5600
  751MOL0     H 1372   2.796   9.150   6.280 -0.7659  0.4987  0.2622
  751MOL0     H 1373   3.129   8.801   6.541  2.7623 -1.9141  0.3813
  751MOL0     H 1374   3.269   8.591   6.535  2.4236  2.3428 -2.4923
  751MOL0     H 1375   3.352   8.358   6.545 -0.8778  1.7254 -0.0936
  751MOL0     H 1376   3.374   8.254   6.402 -0.0023 -1.2763  1.9628
  751MOL0     H 1377   3.566   8.404   6.480  0.0309  0.8958  0.4497
  751MOL0     H 1378   3.456   8.536   6.473 -3.5545 -0.6359 -0.6294
  751MOL0     H 1379   3.450   8.513   6.209  2.9081  0.2595 -2.1920
  751MOL0     H 1380   3.531   8.361   6.247 -1.7379 -0.2900  0.8225
  751MOL0     H 1381   3.686   8.535   6.156  0.7787  1.1358  0.2501
  751MOL0     H 1382   3.740   8.482   6.315  1.2776 -0.1453 -2.4257
  751MOL0     H 1383   3.712   8.875   6.403 -0.6986  0.9045 -2.8797
  751MOL0     H 1384   3.046   8.451   6.205 -2.2187 -0.8698  0.6311
  751MOL0     H 1385   2.925   8.662   6.194 -0.1810 -1.8143 -0.2266
  752MOL0     O 1386  10.146   0.286   7.101  0.5495  0.1566 -0.6573
  752MOL0     C 1387  10.155   0.280   7.225  0.1717  1.0307 -0.4346
  752MOL0     O 1388  10.255   0.215   7.294 -0.8203  0.1499  0.0621
  752MOL0     C 1389  10.354   0.148   7.229 -0.2055  0.0701 -0.2017
  752MOL0     C 1390  10.356   0.007   7.226 -0.2851  0.3026  0.0223
  752MOL0     C 1391  10.467  -0.062   7.175 -0.2629 -1.0852  0.0888
  752MOL0     C 1392  10.577   0.005   7.124  0.4940  0.3301  0.3846
  752MOL0     O 1393  10.688  -0.050   7.064  0.4120 -0.3280  1.0475
  752MOL0     C 1394  10.678  -0.182   7.025  0.1919  0.5448 -0.3189
  752MOL0     C 1395  10.790  -0.222   6.927 -0.4784 -1.0480 -0.0960
  752MOL0     C 1396  10.773  -0.366   6.874  0.9319  0.1192 -0.0107
  752MOL0     C 1397  10.888  -0.385   6.769 -1.0711 -0.8566 -0.3010
  752MOL0     C 1398  10.909  -0.531   6.728  0.4934  0.1214 -0.4742
  752MOL0     C 1399  11.037  -0.559   6.648  0.0389 -0.2009  0.6342
  752MOL0     C 1400  11.001  -0.573   6.501  0.1481  0.4017 -0.1453
  752MOL0     C 1401  10.932  -0.716   6.477 -0.1052 -0.2589  0.1312
  752MOL0     N 1402  10.957  -0.827   6.571  0.2253 -0.5292  0.3971
  752MOL0     C 1403  10.892  -0.851   6.694 -0.6830  0.0001  0.8875
  752MOL0     C 1404  10.934  -0.972   6.717 -0.1071 -0.0121  0.1110
  752MOL0     C 1405  10.887  -1.060   6.829  0.1827  0.7545  0.4275
  752MOL0     C 1406  10.747  -1.117   6.804 -1.0386  0.0735  0.7915
  752MOL0     C 1407  10.702  -1.200   6.923  0.6595 -0.6446  1.2024
  752MOL0     C 1408  10.556  -1.257   6.904  1.2154 -0.3410 -0.3644
  752MOL0     O 1409  10.459  -1.142   6.907 -0.6598  0.0885 -0.3161
  752MOL0     C 1410  10.356  -1.164   6.997 -0.6994 -0.9804  0.2522
  752MOL0     C 1411  10.378  -1.216   7.125 -0.1038 -0.6211 -0.1001
  752MOL0     C 1412  10.269  -1.240   7.214  0.3604 -0.3585  0.4762
  752MOL0     C 1413  10.301  -1.290   7.346  0.0640 -0.9422  0.2288
  752MOL0     C 1414  10.138  -1.199   7.173  0.9168 -0.2991  0.0675
  752MOL0     C 1415  10.006  -1.218   7.247 -0.1682  0.5934 -0.9254
  752MOL0     O 1416   9.892  -1.242   7.176  0.6955 -1.2035 -0.1885
  752MOL0     C 1417   9.769  -1.244   7.231  0.8299  0.3250 -0.1510
  752MOL0     C 1418   9.728  -1.147   7.324  1.0729 -0.3048  0.0467
  752MOL0     C 1419   9.598  -1.141   7.381 -0.4904 -0.4070  0.4502
  752MOL0     C 1420   9.503  -1.236   7.332 -0.0896  0.5668 -0.7629
  752MOL0     O 1421   9.380  -1.236   7.378 -0.0278  0.0976  0.4903
  752MOL0     C 1422   9.291  -1.169   7.282 -0.0688 -0.4061 -0.9249
  752MOL0     C 1423   9.153  -1.169   7.353  0.3459  0.7332  0.1658
  752MOL0     C 1424   9.052  -1.082   7.273  0.6264 -0.2162 -0.3187
  752MOL0     C 1425   8.912  -1.097   7.340 -0.3310 -0.1696  0.5685
  752MOL0     C 1426   8.811  -1.000   7.286  0.1745  0.6414  0.1075
  752MOL0     C 1427   8.685  -1.022   7.373 -0.1551 -0.3069  0.1653
  752MOL0     C 1428   8.563  -0.944   7.324 -1.1854  0.9938 -0.8824
  752MOL0     C 1429   8.445  -0.961   7.419 -0.6684  0.8639  0.4862
  752MOL0    Cl 1430   8.315  -0.861   7.367 -0.3532  0.4469  0.0768
  752MOL0     C 1431   9.536  -1.334   7.232 -0.1352  0.0095  0.8175
  752MOL0     C 1432   9.667  -1.327   7.176  1.3201 -0.8874  0.3346
  752MOL0     O 1433  10.018  -1.216   7.369 -0.0481  0.2263 -0.9779
  752MOL0     C 1434  10.125  -1.159   7.037  0.2414 -1.0265 -0.9886
  752MOL0     C 1435  10.228  -1.137   6.954 -0.4387  0.2755  0.0983
  752MOL0     N 1436  11.015  -1.027   6.615  0.1964  0.1440 -0.7304
  752MOL0     N 1437  11.039  -0.930   6.543  0.1833 -0.1226  0.3660
  752MOL0     C 1438  10.568   0.143   7.122 -0.0509 -0.5255 -1.0490
  752MOL0     C 1439  10.456   0.213   7.175  0.3404  1.2177 -0.6642
  752MOL0     C 1440  10.058   0.336   7.321  0.2184 -0.4399  0.1477
  752MOL0     C 1441  10.007   0.464   7.292 -0.7469 -0.1204 -0.3970
  752MOL0     C 1442   9.912   0.526   7.376  0.4038 -0.9496  0.6067
  752MOL0     C 1443   9.875   0.459   7.488  0.2595 -0.6677  0.5116
  752MOL0     O 1444   9.772   0.526   7.555 -0.5184  0.5906 -0.0403
  752MOL0     C 1445   9.836   0.592   7.658 -0.2680  0.0006  0.0876
  752MOL0     C 1446   9.721   0.655   7.741  0.0878  0.6081  1.0636
  752MOL0     C 1447   9.765   0.736   7.867 -0.1223 -0.1140 -0.4963
  752MOL0     C 1448   9.633   0.765   7.953  0.1800  0.3094  0.4490
  752MOL0     C 1449   9.566   0.877   7.895  0.6002 -0.3884  0.9552
  752MOL0     C 1450   9.491   0.964   7.867 -0.1560 -1.0019  0.0355
  752MOL0     C 1451   9.933   0.345   7.532  0.4103  0.7567 -0.1595
  752MOL0     C 1452  10.022   0.278   7.443 -1.7035  0.2491  0.0321
  752MOL0     H 1453  10.264  -0.041   7.259 -0.7232  0.7140 -0.5516
  752MOL0     H 1454  10.464  -0.170   7.173 -3.9018 -1.1474  0.9661
  752MOL0     H 1455  10.683  -0.248   7.111  0.0699  1.6090  0.5311
  752MOL0     H 1456  10.580  -0.180   6.976  0.7315  0.0729 -1.4625
  752MOL0     H 1457  10.790  -0.147   6.847 -1.1557 -1.1641 -0.2093
  752MOL0     H 1458  10.885  -0.220   6.982  0.5394  1.2629 -1.7951
  752MOL0     H 1459  10.761  -0.434   6.958 -3.2484  0.6948  0.0664
  752MOL0     H 1460  10.675  -0.362   6.826  0.5695 -1.7794  0.5191
  752MOL0     H 1461  10.861  -0.325   6.682 -0.7169  2.4309  1.6756
  752MOL0     H 1462  10.980  -0.338   6.804 -1.0600  0.9167 -2.4975
  752MOL0     H 1463  10.916  -0.593   6.817 -3.9220  1.6073  1.2070
  752MOL0     H 1464  10.823  -0.573   6.675  0.5989 -2.8639  1.4858
  752MOL0     H 1465  11.104  -0.474   6.661 -1.4289  0.8785  1.4090
  752MOL0     H 1466  11.095  -0.645   6.684  0.3152 -0.7539 -1.0098
  752MOL0     H 1467  10.938  -0.491   6.467  0.3506  0.3897 -0.5575
  752MOL0     H 1468  11.089  -0.571   6.436 -1.1188 -0.1997 -1.9447
  752MOL0     H 1469  10.954  -0.757   6.378 -1.1055  4.2642 -2.2542
  752MOL0     H 1470  10.825  -0.697   6.488 -0.0677 -1.0036  2.0959
  752MOL0     H 1471  10.814  -0.803   6.752 -2.2084 -1.5207  0.1862
  752MOL0     H 1472  10.951  -1.145   6.852 -4.1012 -2.6693  0.9884
  752MOL0     H 1473  10.885  -1.001   6.921 -0.1582 -1.6434  2.0412
  752MOL0     H 1474  10.753  -1.183   6.717  0.4437 -0.3782  1.2061
  752MOL0     H 1475  10.683  -1.034   6.776 -1.3119 -0.2344  0.5001
  752MOL0     H 1476  10.707  -1.138   7.013 -0.8398  2.6493 -0.8064
  752MOL0     H 1477  10.766  -1.289   6.931 -0.7344 -1.7159  0.8586
  752MOL0     H 1478  10.528  -1.343   6.965  1.5133  0.0810  0.3816
  752MOL0     H 1479  10.550  -1.292   6.800  1.2107  0.1381 -0.5303
  752MOL0     H 1480  10.477  -1.249   7.156 -0.0523 -0.9344 -0.5893
  752MOL0     H 1481  10.214  -1.317   7.406  0.0457 -2.1415 -0.3046
  752MOL0     H 1482  10.364  -1.380   7.339  0.4202 -0.7215  0.5447
  752MOL0     H 1483  10.361  -1.218   7.402 -0.5978 -0.4772  0.3411
  752MOL0     H 1484   9.792  -1.066   7.356 -1.1825  1.3292  0.7489
  752MOL0     H 1485   9.587  -1.074   7.466  0.2039 -1.5982  1.5103
  752MOL0     H 1486   9.330  -1.067   7.280 -0.3517 -0.2832 -0.4698
  752MOL0     H 1487   9.293  -1.223   7.187 -2.4952 -3.6840  0.6524
  752MOL0     H 1488   9.113  -1.267   7.380 -1.3284  1.8800  2.0873
  752MOL0     H 1489   9.164  -1.121   7.450  3.3360  0.5205  0.0402
  752MOL0     H 1490   9.046  -1.096   7.165 -0.6564  0.1460 -0.3119
  752MOL0     H 1491   9.076  -0.976   7.285 -1.9115  0.5363 -1.1370
  752MOL0     H 1492   8.870  -1.196   7.321  2.9783 -1.5493 -0.4063
  752MOL0     H 1493   8.922  -1.088   7.449 -0.6346  0.9139  0.5134
  752MOL0     H 1494   8.791  -1.017   7.180 -4.3234  2.6904  0.3951
  752MOL0     H 1495   8.843  -0.895   7.293 -3.0230  1.6493  1.7344
  752MOL0     H 1496   8.653  -1.126   7.379 -4.1742  0.8098  1.5658
  752MOL0     H 1497   8.718  -1.003   7.475  0.0115 -0.1170  0.0773
  752MOL0     H 1498   8.530  -0.968   7.223  0.6762 -2.7396 -0.7771
  752MOL0     H 1499   8.593  -0.838   7.325 -1.0775  0.9873  0.8979
  752MOL0     H 1500   8.459  -0.923   7.520 -6.6713  0.1830  1.9507
  752MOL0     H 1501   8.413  -1.065   7.415  0.9606  0.3544 -0.6787
  752MOL0     H 1502   9.467  -1.408   7.193  0.2867  0.7949 -1.6285
  752MOL0     H 1503   9.689  -1.399   7.098  1.0228 -0.1469 -0.4463
  752MOL0     H 1504  10.026  -1.146   6.993 -0.1779  0.4079  0.2803
  752MOL0     H 1505  10.219  -1.108   6.850  4.0142 -0.7802 -0.7588
  752MOL0     H 1506  10.649   0.198   7.074 -0.3503 -0.4349 -1.4533
  752MOL0     H 1507  10.457   0.321   7.184 -1.7585  1.0755  2.6566
  752MOL0     H 1508  10.037   0.502   7.195 -0.5406  0.8215  0.0201
  752MOL0     H 1509   9.891   0.631   7.359  2.0427 -0.9015 -1.5833
  752MOL0     H 1510   9.900   0.536   7.726  0.7344  0.2803 -0.6038
  752MOL0     H 1511   9.900   0.673   7.622  0.0186 -0.7923 -1.2713
  752MOL0     H 1512   9.647   0.579   7.767  0.2783 -0.0544 -0.2388
  752MOL0     H 1513   9.661   0.726   7.684 -1.7367 -2.7380 -1.5125
  752MOL0     H 1514   9.811   0.828   7.829  1.5695 -1.2761 -1.3755
  752MOL0     H 1515   9.830   0.670   7.925  1.2371 -0.1255 -1.9776
  752MOL0     H 1516   9.667   0.800   8.051  0.8743 -2.7894  1.4279
  752MOL0     H 1517   9.568   0.678   7.954 -0.5576  0.8279 -0.8385
  752MOL0     H 1518   9.420   1.041   7.846 -1.3042 -2.1836 -0.5291
  752MOL0     H 1519   9.898   0.306   7.627 -1.1012 -0.7264 -1.2793
  752MOL0     H 1520  10.070   0.185   7.471 -0.2839  0.8319 -0.3747
  753MOL0     O 1521   8.106   8.710   4.544 -0.1833 -0.0002 -0.7510
  753MOL0     C 1522   7.994   8.672   4.512 -0.4537 -0.2461  0.0849
  753MOL0     O 1523   7.912   8.610   4.592  0.4019 -0.7614 -1.0105
  753MOL0     C 1524   7.954   8.542   4.705  0.3828 -0.0006  0.1824
  753MOL0     C 1525   7.921   8.599   4.829 -0.6430 -0.0876 -1.0270
  753MOL0     C 1526   7.949   8.539   4.944 -0.8017  0.1937 -0.6451
  753MOL0     C 1527   8.041   8.428   4.947  0.1847  0.0951 -0.3630
  753MOL0     O 1528   8.089   8.361   5.055  0.0406 -0.0366 -0.2460
  753MOL0     C 1529   8.093   8.437   5.174  0.3049 -0.2271 -0.8375
  753MOL0     C 1530   8.141   8.343   5.287  0.0099  0.1623 -0.4284
  753MOL0     C 1531   8.285   8.285   5.265 -0.4572  0.4705 -0.5166
  753MOL0     C 1532   8.277   8.147   5.198  0.2489 -0.2129  0.1019
  753MOL0     C 1533   8.417   8.090   5.187 -1.7226  0.4276  0.5076
  753MOL0     C 1534   8.418   7.979   5.076 -0.9408 -0.4861  0.8775
  753MOL0     C 1535   8.551   7.897   5.063  0.0811 -0.5058 -0.7117
  753MOL0     C 1536   8.564   7.786   5.163 -0.1637 -0.0755 -0.2101
  753MOL0     N 1537   8.513   7.651   5.120 -0.3586  0.2878 -0.7181
  753MOL0     C 1538   8.591   7.540   5.095 -0.3376 -0.1541  0.1640
  753MOL0     C 1539   8.507   7.437   5.080  0.1775 -0.1151  0.3401
  753MOL0     C 1540   8.529   7.291   5.040  0.5981  0.8344  0.4476
  753MOL0     C 1541   8.660   7.261   4.981 -0.5295 -0.0296 -0.3084
  753MOL0     C 1542   8.697   7.324   4.848  1.3629 -0.1559  0.8263
  753MOL0     C 1543   8.841   7.296   4.800 -0.1192  0.1734 -0.0627
  753MOL0     O 1544   8.934   7.373   4.875 -0.5454  0.0961 -0.3654
  753MOL0     C 1545   8.933   7.511   4.873  1.3055 -1.1786  0.3400
  753MOL0     C 1546   8.948   7.577   4.994 -0.6494 -0.1245 -0.0575
  753MOL0     C 1547   8.935   7.720   5.007  1.1038  0.0395  1.0320
  753MOL0     C 1548   8.950   7.773   5.144  0.1563 -0.6292 -1.3268
  753MOL0     C 1549   8.897   7.798   4.882  0.0425 -0.3500 -0.3477
  753MOL0     C 1550   8.867   7.935   4.891  1.1620 -0.0680  0.3367
  753MOL0     O 1551   8.922   8.015   4.995  0.0584  0.1023 -0.0667
  753MOL0     C 1552   8.902   8.149   4.988  0.2549 -0.0889 -0.5297
  753MOL0     C 1553   8.912   8.234   4.868  0.1305 -0.1844 -0.0230
  753MOL0     C 1554   8.888   8.376   4.874  0.1024  0.3873 -0.0753
  753MOL0     C 1555   8.851   8.432   4.999 -0.7442 -0.7688  0.4120
  753MOL0     O 1556   8.813   8.566   5.016 -0.2659 -0.3278 -0.8197
  753MOL0     C 1557   8.687   8.602   4.958  1.0455  0.3844 -1.0395
  753MOL0     C 1558   8.569   8.563   5.042 -0.0904 -0.6170 -0.0714
  753MOL0     C 1559   8.427   8.617   4.987 -0.0818  0.8076  1.4953
  753MOL0     C 1560   8.397   8.769   4.999 -0.7089 -0.6632  0.5759
  753MOL0     C 1561   8.416   8.838   5.136 -0.3766 -0.0201  0.1927
  753MOL0     C 1562   8.319   8.764   5.231  0.1976  0.0300 -0.6279
  753MOL0     C 1563   8.329   8.810   5.372  0.1385 -0.5764 -1.5637
  753MOL0     C 1564   8.207   8.785   5.469  0.2788  0.4842 -0.1008
  753MOL0    Cl 1565   8.241   8.797   5.650 -0.5260  0.5010  0.1874
  753MOL0     C 1566   8.844   8.348   5.112  0.1493  0.0392  0.4226
  753MOL0     C 1567   8.864   8.214   5.104  0.2300 -0.2375 -0.3053
  753MOL0     O 1568   8.816   7.983   4.791  0.0973  0.3646 -0.3321
  753MOL0     C 1569   8.891   7.725   4.761 -0.1160 -0.2139 -0.0047
  753MOL0     C 1570   8.904   7.579   4.756 -0.0813 -0.2796  0.0389
  753MOL0     N 1571   8.386   7.487   5.092 -0.2562  0.4629  0.3323
  753MOL0     N 1572   8.377   7.609   5.131 -0.0491 -0.5185 -0.3630
  753MOL0     C 1573   8.079   8.370   4.826 -0.0786  0.1878 -0.1616
  753MOL0     C 1574   8.031   8.422   4.704 -0.5563 -0.0041  0.0767
  753MOL0     C 1575   7.940   8.708   4.383  0.2315  0.1630  0.4610
  753MOL0     C 1576   7.804   8.663   4.351 -0.1155  0.2228  0.4179
  753MOL0     C 1577   7.758   8.679   4.219  0.2811 -0.2655 -0.5582
  753MOL0     C 1578   7.827   8.755   4.132  0.1604 -0.4165  2.0342
  753MOL0     O 1579   7.756   8.758   4.011 -0.8399 -0.7527  0.5322
  753MOL0     C 1580   7.761   8.889   3.946 -0.2700 -0.0783 -0.6040
  753MOL0     C 1581   7.617   8.914   3.891 -0.2810  0.3474 -0.5656
  753MOL0     C 1582   7.501   8.908   3.994  0.4273  0.2890 -0.5075
  753MOL0     C 1583   7.379   8.922   3.912  0.3504 -0.4211  0.7174
  753MOL0     C 1584   7.339   8.805   3.842 -0.7459  0.4598 -0.4003
  753MOL0     C 1585   7.316   8.699   3.791  0.3155  0.4057 -0.5691
  753MOL0     C 1586   7.949   8.819   4.166 -0.6265  0.5609 -0.2755
  753MOL0     C 1587   8.007   8.798   4.291 -0.5827  0.0626  0.2797
  753MOL0     H 1588   7.868   8.694   4.828  0.9923  0.8705 -2.2570
  753MOL0     H 1589   7.912   8.592   5.031  0.2351 -1.9438  1.2034
  753MOL0     H 1590   8.168   8.515   5.163  0.0120  0.5572  1.9916
  753MOL0     H 1591   8.000   8.492   5.192  2.3141  2.8655  0.8483
  753MOL0     H 1592   8.137   8.408   5.375  0.3954  0.2838 -0.5019
  753MOL0     H 1593   8.084   8.251   5.305 -0.0834  0.6501  2.2887
  753MOL0     H 1594   8.352   8.339   5.197  0.2950 -0.1068 -0.2395
  753MOL0     H 1595   8.336   8.276   5.361 -0.6611 -0.1158 -0.4633
  753MOL0     H 1596   8.219   8.088   5.269  0.2198  0.2579  0.4760
  753MOL0     H 1597   8.231   8.167   5.101 -0.8740  1.1911  0.8821
  753MOL0     H 1598   8.488   8.172   5.173  0.3951 -1.0477  2.0015
  753MOL0     H 1599   8.460   8.049   5.279 -0.4558  1.7186  0.5245
  753MOL0     H 1600   8.337   7.907   5.088  0.9483 -2.7917  0.5618
  753MOL0     H 1601   8.405   8.038   4.985  1.9579  0.2049  0.8297
  753MOL0     H 1602   8.569   7.857   4.963  0.7540  1.9738 -1.6483
  753MOL0     H 1603   8.639   7.960   5.078  0.0209  0.4836 -3.9450
  753MOL0     H 1604   8.499   7.811   5.247  0.4927  0.6494  0.1033
  753MOL0     H 1605   8.670   7.774   5.190  0.2723  0.5315 -1.5614
  753MOL0     H 1606   8.700   7.539   5.094 -0.2583 -1.0838 -3.5374
  753MOL0     H 1607   8.516   7.228   5.129  0.3675 -0.9252 -0.7763
  753MOL0     H 1608   8.451   7.250   4.975  0.7681 -4.7041  3.1212
  753MOL0     H 1609   8.661   7.151   4.976 -5.6614 -0.2975 -1.7798
  753MOL0     H 1610   8.730   7.298   5.056 -2.1261  3.5927 -0.4101
  753MOL0     H 1611   8.684   7.433   4.854  0.2127 -0.0682 -1.8351
  753MOL0     H 1612   8.630   7.287   4.769  0.7292  1.7265  0.4172
  753MOL0     H 1613   8.841   7.312   4.692 -0.1274 -1.7327 -0.3750
  753MOL0     H 1614   8.871   7.191   4.813  0.8381 -0.1210 -3.5864
  753MOL0     H 1615   8.973   7.514   5.079 -0.8524 -0.1451 -0.0120
  753MOL0     H 1616   8.883   7.858   5.162  1.5653  0.5350 -1.4375
  753MOL0     H 1617   8.941   7.706   5.230 -2.1737  2.8564  1.4149
  753MOL0     H 1618   9.053   7.809   5.153  1.1636 -2.2313 -4.6358
  753MOL0     H 1619   8.940   8.191   4.771  2.5800  0.0497  0.5112
  753MOL0     H 1620   8.894   8.451   4.796  1.0334  1.7702  1.2886
  753MOL0     H 1621   8.688   8.710   4.942 -0.6156  0.8271  1.2506
  753MOL0     H 1622   8.660   8.554   4.863 -2.7202 -0.5871  0.3183
  753MOL0     H 1623   8.561   8.454   5.047 -0.1684 -0.6138 -0.1136
  753MOL0     H 1624   8.580   8.606   5.143  1.2799 -0.0319 -0.4470
  753MOL0     H 1625   8.347   8.568   5.043 -0.8558  1.8298  1.3169
  753MOL0     H 1626   8.421   8.590   4.881  2.9124 -0.1458  1.4785
  753MOL0     H 1627   8.472   8.817   4.936 -0.2760 -1.8282  0.1671
  753MOL0     H 1628   8.299   8.794   4.958  1.0750  2.5894 -2.1724
  753MOL0     H 1629   8.402   8.946   5.126  3.4786  0.6189  0.0029
  753MOL0     H 1630   8.518   8.816   5.169 -0.1618  2.6013  1.5173
  753MOL0     H 1631   8.219   8.793   5.195 -0.6100  0.3265  1.6547
  753MOL0     H 1632   8.321   8.655   5.233 -0.9964 -0.0018  1.6306
  753MOL0     H 1633   8.349   8.917   5.384 -3.8452  0.1046  1.0244
  753MOL0     H 1634   8.407   8.759   5.428 -1.1315  0.8501  1.7627
  753MOL0     H 1635   8.175   8.684   5.440 -1.7424  2.1987 -4.6522
  753MOL0     H 1636   8.118   8.841   5.442 -0.3189 -0.7034 -0.6726
  753MOL0     H 1637   8.822   8.379   5.213 -1.7779 -0.6613  0.2624
  753MOL0     H 1638   8.872   8.158   5.196 -1.8104  2.8078  1.9165
  753MOL0     H 1639   8.859   7.775   4.670  0.6259  1.1806  0.4691
  753MOL0     H 1640   8.894   7.525   4.662  2.5057 -0.3224 -0.2838
  753MOL0     H 1641   8.145   8.284   4.825 -0.7490 -0.3281 -1.3579
  753MOL0     H 1642   8.053   8.377   4.607 -0.0359 -2.2688  1.1882
  753MOL0     H 1643   7.739   8.606   4.417  1.0319 -0.1018  1.3100
  753MOL0     H 1644   7.660   8.648   4.185  0.2248  1.8156 -2.5762
  753MOL0     H 1645   7.785   8.957   4.028  0.7546 -2.7864  1.4736
  753MOL0     H 1646   7.839   8.881   3.870  0.8553  1.7469  0.3112
  753MOL0     H 1647   7.600   8.831   3.822  1.7604 -2.2890  1.8535
  753MOL0     H 1648   7.621   9.002   3.826 -0.2303  0.5430 -0.3000
  753MOL0     H 1649   7.497   8.988   4.069  0.9206 -0.7954  0.7167
  753MOL0     H 1650   7.500   8.815   4.052  1.7331 -1.0307 -2.4810
  753MOL0     H 1651   7.387   9.004   3.840  2.1480  0.7556  2.1779
  753MOL0     H 1652   7.299   8.946   3.983 -0.8481 -3.4818  0.5529
  753MOL0     H 1653   7.304   8.599   3.755 -2.2874  0.9757 -1.5402
  753MOL0     H 1654   7.995   8.886   4.094 -0.8604  0.0655 -0.8966
  753MOL0     H 1655   8.108   8.824   4.322 -0.0188  0.2289 -1.5541
  754MOL0     O 1656   5.464   3.733   2.128 -0.0866 -0.0481 -0.0175
  754MOL0     C 1657   5.504   3.680   2.022  0.2850  0.0013  1.0718
  754MOL0     O 1658   5.432   3.595   1.934 -0.0114 -0.1994 -0.4438
  754MOL0     C 1659   5.315   3.536   1.981 -0.0157 -0.4394  0.4291
  754MOL0     C 1660   5.284   3.480   2.104 -0.3714  0.4290 -0.4360
  754MOL0     C 1661   5.156   3.426   2.131 -0.7221 -0.6551  1.3447
  754MOL0     C 1662   5.068   3.412   2.022  0.6307  0.0119  1.0808
  754MOL0     O 1663   4.947   3.361   2.028  0.0381  0.2947 -0.3607
  754MOL0     C 1664   4.903   3.280   2.139 -0.5318  0.2216  0.1112
  754MOL0     C 1665   4.984   3.159   2.194 -0.0629 -0.8453  1.0168
  754MOL0     C 1666   4.903   3.084   2.304 -0.7651  0.1048 -0.0683
  754MOL0     C 1667   4.978   2.971   2.365 -0.2652  1.1105 -0.4858
  754MOL0     C 1668   4.917   2.932   2.501 -0.1849  0.2662  0.7509
  754MOL0     C 1669   4.956   3.026   2.612  0.1188 -0.0662 -0.2485
  754MOL0     C 1670   4.904   2.991   2.751 -0.1082 -0.7364 -0.0166
  754MOL0     C 1671   4.984   3.054   2.862 -0.0223 -0.8495 -0.1279
  754MOL0     N 1672   4.940   2.994   2.995 -0.0352 -0.1741  1.1254
  754MOL0     C 1673   4.816   2.998   3.051 -0.3793 -0.0698 -0.3338
  754MOL0     C 1674   4.841   2.952   3.174  0.7452  0.4538  0.6148
  754MOL0     C 1675   4.726   2.914   3.263 -0.1505 -1.3766  0.3902
  754MOL0     C 1676   4.703   3.023   3.376 -0.3307 -0.7217 -0.0237
  754MOL0     C 1677   4.812   3.037   3.486 -0.0374 -0.3072 -0.0140
  754MOL0     C 1678   4.822   2.907   3.573 -0.1217  0.2644  0.1498
  754MOL0     O 1679   4.900   2.928   3.690 -0.2070  0.5692 -0.4091
  754MOL0     C 1680   5.040   2.910   3.683  0.3458 -0.1372 -0.5710
  754MOL0     C 1681   5.098   2.872   3.556 -0.4057 -0.1570 -0.5050
  754MOL0     C 1682   5.234   2.829   3.551  0.7916  0.6449  0.2713
  754MOL0     C 1683   5.277   2.782   3.411  0.0229  0.0486  0.0959
  754MOL0     C 1684   5.315   2.832   3.671  0.0074 -0.2276 -0.1877
  754MOL0     C 1685   5.458   2.771   3.682 -0.2949 -0.7380 -0.3813
  754MOL0     O 1686   5.525   2.784   3.799  0.7003  0.0081  0.5801
  754MOL0     C 1687   5.656   2.747   3.819 -0.4970  0.2257 -0.2072
  754MOL0     C 1688   5.695   2.681   3.939 -0.7061  0.1775 -0.0153
  754MOL0     C 1689   5.838   2.653   3.952  0.2233  0.2747  0.0348
  754MOL0     C 1690   5.937   2.699   3.866 -0.2806  0.1572  0.4286
  754MOL0     O 1691   6.068   2.657   3.892  0.0644 -0.4639 -0.5594
  754MOL0     C 1692   6.177   2.709   3.818  0.2329  0.1421  0.4991
  754MOL0     C 1693   6.303   2.649   3.884  1.2986 -0.7177  0.0927
  754MOL0     C 1694   6.423   2.716   3.817  0.3863  0.2633 -0.0423
  754MOL0     C 1695   6.551   2.652   3.883 -0.0764 -0.7925 -0.6962
  754MOL0     C 1696   6.675   2.713   3.797 -0.8278 -0.1586 -0.7278
  754MOL0     C 1697   6.803   2.654   3.866 -0.5790  0.4585 -0.6493
  754MOL0     C 1698   6.919   2.651   3.756  0.1615  0.7983  0.0004
  754MOL0     C 1699   7.062   2.640   3.821 -0.8304 -0.9351 -0.1580
  754MOL0    Cl 1700   7.089   2.783   3.945  0.0667 -0.1650 -0.1743
  754MOL0     C 1701   5.897   2.779   3.761  0.5871 -0.5938  0.4898
  754MOL0     C 1702   5.757   2.793   3.728 -0.3580  0.3312  0.4157
  754MOL0     O 1703   5.514   2.722   3.577  0.5022 -0.1394  0.3065
  754MOL0     C 1704   5.261   2.893   3.794 -0.5580  0.1571 -0.1769
  754MOL0     C 1705   5.119   2.935   3.794 -0.6020 -0.2260  0.5031
  754MOL0     N 1706   4.976   2.923   3.196 -0.9202 -0.4686  0.3691
  754MOL0     N 1707   5.033   2.956   3.085  0.7842  0.8153 -0.0252
  754MOL0     C 1708   5.107   3.464   1.896 -0.2699  0.9859 -0.2623
  754MOL0     C 1709   5.227   3.520   1.873 -0.9095  0.0864 -0.3279
  754MOL0     C 1710   5.636   3.743   1.983  0.1506 -0.5578 -0.4222
  754MOL0     C 1711   5.719   3.816   2.065 -0.2892 -0.4729 -0.0486
  754MOL0     C 1712   5.839   3.875   2.012 -0.3061  0.3392  0.5525
  754MOL0     C 1713   5.885   3.854   1.880  0.8721  0.1534 -0.0463
  754MOL0     O 1714   5.998   3.913   1.846  0.6295  0.5063  0.5846
  754MOL0     C 1715   6.056   3.879   1.723 -0.5452 -0.1094  0.2319
  754MOL0     C 1716   6.131   3.752   1.746  0.7290 -0.0967  0.3074
  754MOL0     C 1717   6.182   3.694   1.610  0.2075  0.2263 -1.0879
  754MOL0     C 1718   6.265   3.572   1.628  0.5348  0.2831  0.5939
  754MOL0     C 1719   6.388   3.587   1.707  0.2830  0.2020  0.1298
  754MOL0     C 1720   6.478   3.572   1.779 -0.1391 -0.6535 -0.0938
  754MOL0     C 1721   5.804   3.768   1.803  0.2915  0.4686 -1.1072
  754MOL0     C 1722   5.681   3.722   1.850  0.0917  0.4925  0.9974
  754MOL0     H 1723   5.344   3.483   2.194  0.8390  2.2206 -1.2276
  754MOL0     H 1724   5.118   3.391   2.226  0.4782 -4.6748  0.5192
  754MOL0     H 1725   4.870   3.336   2.227 -2.5538  1.6767 -1.4430
  754MOL0     H 1726   4.810   3.232   2.105 -0.8436  0.9546 -0.0942
  754MOL0     H 1727   4.985   3.085   2.113 -0.2117 -1.1763  1.3116
  754MOL0     H 1728   5.091   3.172   2.217  0.0650  0.0986 -0.0258
  754MOL0     H 1729   4.875   3.165   2.372 -0.8029  0.4903 -0.5317
  754MOL0     H 1730   4.810   3.052   2.256 -0.1058  0.9689 -2.0488
  754MOL0     H 1731   4.990   2.882   2.302  3.4229 -0.1867  1.7448
  754MOL0     H 1732   5.082   3.000   2.382 -0.2886  2.0857 -1.8041
  754MOL0     H 1733   4.807   2.927   2.499 -0.1950 -2.7633 -3.1550
  754MOL0     H 1734   4.959   2.832   2.514  0.2916  0.5821  1.7378
  754MOL0     H 1735   5.065   3.025   2.616  0.1405 -1.2975 -0.6955
  754MOL0     H 1736   4.920   3.129   2.605 -1.2520  0.0679  4.7282
  754MOL0     H 1737   4.799   3.019   2.759  0.9694  3.5400  2.9592
  754MOL0     H 1738   4.921   2.883   2.754 -3.4504 -1.3353  1.7859
  754MOL0     H 1739   4.974   3.163   2.860  0.9423 -0.6764  1.8855
  754MOL0     H 1740   5.089   3.029   2.848 -0.0296 -0.2362 -1.3906
  754MOL0     H 1741   4.724   3.026   3.000 -0.7263  2.0161  1.3367
  754MOL0     H 1742   4.634   2.915   3.205 -0.4102 -5.3804  0.4829
  754MOL0     H 1743   4.734   2.816   3.311 -0.1197 -1.3674  0.4043
  754MOL0     H 1744   4.612   3.009   3.436 -0.2662 -2.0468 -0.2000
  754MOL0     H 1745   4.702   3.123   3.332  1.2602 -1.0397 -0.8563
  754MOL0     H 1746   4.791   3.124   3.548  2.6449  0.1738  0.3323
  754MOL0     H 1747   4.906   3.057   3.434 -0.7224 -0.8545 -1.5270
  754MOL0     H 1748   4.846   2.817   3.515 -1.6452  0.0587 -0.2260
  754MOL0     H 1749   4.721   2.880   3.608 -0.7103  0.6805 -1.1398
  754MOL0     H 1750   5.041   2.857   3.465  1.1713 -2.0332 -1.2666
  754MOL0     H 1751   5.204   2.804   3.332  1.1861  0.5416 -0.8848
  754MOL0     H 1752   5.374   2.823   3.383 -1.5072  2.4373 -2.1778
  754MOL0     H 1753   5.277   2.673   3.401 -1.1021  0.1422 -1.4161
  754MOL0     H 1754   5.626   2.640   4.013  2.0356 -1.9880  1.5818
  754MOL0     H 1755   5.872   2.604   4.042 -1.5412  1.2023  1.2557
  754MOL0     H 1756   6.167   2.688   3.711  0.7617  2.6724 -0.1199
  754MOL0     H 1757   6.174   2.817   3.838  0.0824  0.2182  0.0762
  754MOL0     H 1758   6.297   2.681   3.988 -1.7952  0.7210 -0.4174
  754MOL0     H 1759   6.308   2.540   3.872 -0.4403 -1.2173  2.9734
  754MOL0     H 1760   6.420   2.824   3.832 -0.8195  0.3499 -0.8275
  754MOL0     H 1761   6.422   2.687   3.712 -2.0497 -1.4784  0.3829
  754MOL0     H 1762   6.561   2.683   3.987 -1.2058  0.7619 -1.0078
  754MOL0     H 1763   6.548   2.543   3.870 -1.6017 -1.0251  1.2459
  754MOL0     H 1764   6.674   2.822   3.787 -1.3340 -0.0571  0.3122
  754MOL0     H 1765   6.664   2.688   3.690 -1.7927  1.5036 -1.0588
  754MOL0     H 1766   6.823   2.713   3.956  0.4165  0.5261 -0.8970
  754MOL0     H 1767   6.785   2.549   3.890 -0.5413  0.6935  0.4614
  754MOL0     H 1768   6.908   2.739   3.692  0.7707 -0.2244 -1.5704
  754MOL0     H 1769   6.907   2.562   3.693  0.9569  0.3236  0.4982
  754MOL0     H 1770   7.147   2.658   3.754 -0.3227  2.0174  1.1291
  754MOL0     H 1771   7.073   2.543   3.870  3.9162 -1.1803 -1.2121
  754MOL0     H 1772   5.968   2.840   3.706 -0.6929 -1.2729 -2.0657
  754MOL0     H 1773   5.732   2.866   3.652  2.8592  3.0544  1.7667
  754MOL0     H 1774   5.320   2.899   3.885  0.2512 -0.6052 -0.6406
  754MOL0     H 1775   5.077   2.979   3.884 -0.4827  3.3368 -1.0309
  754MOL0     H 1776   5.037   3.450   1.815  0.3531 -0.3504 -0.5868
  754MOL0     H 1777   5.254   3.564   1.778 -2.2731 -0.1014 -0.8177
  754MOL0     H 1778   5.696   3.831   2.170 -1.5939 -0.6964 -0.2893
  754MOL0     H 1779   5.903   3.928   2.081  0.7495 -1.1837  0.7665
  754MOL0     H 1780   6.004   3.875   1.627  1.4718  0.8804 -0.9614
  754MOL0     H 1781   6.127   3.957   1.695  0.8015 -0.8893  1.3154
  754MOL0     H 1782   6.055   3.679   1.776  1.4628 -1.0669 -0.1302
  754MOL0     H 1783   6.208   3.763   1.823  1.4063 -0.4490 -0.2991
  754MOL0     H 1784   6.248   3.772   1.572 -0.1164  1.7696  1.2896
  754MOL0     H 1785   6.102   3.672   1.539  0.0819  0.8377 -1.1410
  754MOL0     H 1786   6.289   3.528   1.531 -2.3989  1.0684 -0.5782
  754MOL0     H 1787   6.203   3.499   1.682  0.6516 -0.8107 -0.7040
  754MOL0     H 1788   6.562   3.573   1.845  2.7930 -1.2225 -3.5295
  754MOL0     H 1789   5.832   3.748   1.700 -0.6171  3.9287 -2.1730
  754MOL0     H 1790   5.616   3.665   1.784  2.3772 -1.7285  0.4863
  755MOL0     O 1791   3.539   7.968   3.175  0.1381 -0.9421 -0.0383
  755MOL0     C 1792   3.572   7.916   3.072  0.2723  0.3066 -0.4451
  755MOL0     O 1793   3.702   7.929   3.018  0.7675  0.9052  0.0834
  755MOL0     C 1794   3.798   7.987   3.099  0.5420 -0.3044  0.1753
  755MOL0     C 1795   3.787   8.114   3.157  0.0805 -1.0942 -0.3799
  755MOL0     C 1796   3.887   8.175   3.239  0.4352  0.5072 -0.8012
  755MOL0     C 1797   3.995   8.099   3.272 -0.5260  0.4704 -1.2046
  755MOL0     O 1798   4.102   8.131   3.360  0.6399  0.2933  0.1743
  755MOL0     C 1799   4.065   8.229   3.455 -0.1759 -0.4955 -0.8507
  755MOL0     C 1800   4.170   8.228   3.571 -0.0227  0.3437 -0.0019
  755MOL0     C 1801   4.163   8.094   3.650 -0.5059  1.2487 -0.0513
  755MOL0     C 1802   4.069   8.100   3.771  1.1261 -0.7253 -0.6827
  755MOL0     C 1803   4.081   7.975   3.860  0.3771  0.4672 -0.3711
  755MOL0     C 1804   4.004   8.003   3.994  0.0192  0.2160  0.5653
  755MOL0     C 1805   4.020   7.901   4.113 -0.7108  0.5991  0.0683
  755MOL0     C 1806   3.974   7.752   4.083 -0.2079  0.5724  0.0335
  755MOL0     N 1807   4.076   7.653   4.071 -1.1935 -0.2329  1.0300
  755MOL0     C 1808   4.198   7.661   4.003 -0.9865 -0.1640 -0.4803
  755MOL0     C 1809   4.234   7.532   4.015  0.6546  0.7682 -0.3120
  755MOL0     C 1810   4.355   7.471   3.946  0.5997 -0.0140 -0.3781
  755MOL0     C 1811   4.456   7.414   4.034  0.5825 -0.2500  0.3948
  755MOL0     C 1812   4.517   7.517   4.118  0.2134  0.2961 -0.4445
  755MOL0     C 1813   4.633   7.461   4.189  0.4241 -0.6246 -0.2969
  755MOL0     O 1814   4.742   7.450   4.092  0.5580  1.1487 -0.4399
  755MOL0     C 1815   4.853   7.380   4.145 -0.0539 -0.3558 -0.0793
  755MOL0     C 1816   4.881   7.352   4.278 -0.4609  0.4513  0.0414
  755MOL0     C 1817   4.994   7.289   4.327  0.5940  0.6248 -0.0896
  755MOL0     C 1818   5.004   7.270   4.477 -0.0731 -0.1307 -0.2723
  755MOL0     C 1819   5.097   7.255   4.238  0.6600  0.0054  0.5666
  755MOL0     C 1820   5.227   7.205   4.264 -0.7774  0.0992  0.6039
  755MOL0     O 1821   5.282   7.125   4.174  0.3411  0.6939  0.4435
  755MOL0     C 1822   5.416   7.085   4.198 -0.2128  0.1263 -0.2223
  755MOL0     C 1823   5.509   7.171   4.148  0.0266 -0.1647  0.0731
  755MOL0     C 1824   5.639   7.148   4.191  0.3351  0.6785  0.1300
  755MOL0     C 1825   5.676   7.042   4.280  0.3033 -0.9793  0.6332
  755MOL0     O 1826   5.811   7.027   4.321 -0.0796 -0.2078 -0.1835
  755MOL0     C 1827   5.864   7.110   4.426 -0.2476  0.6832  0.0130
  755MOL0     C 1828   6.006   7.059   4.447 -0.3129 -0.9135 -0.1144
  755MOL0     C 1829   6.100   7.069   4.328  0.7422 -0.0977  0.0881
  755MOL0     C 1830   6.164   7.211   4.305 -0.4002  0.1525  0.8952
  755MOL0     C 1831   6.259   7.197   4.176 -0.3290  0.0655 -0.0747
  755MOL0     C 1832   6.305   7.331   4.118 -1.1538  0.0751  0.0139
  755MOL0     C 1833   6.192   7.416   4.065 -0.6831  1.1753  0.2347
  755MOL0     C 1834   6.160   7.386   3.915 -0.4471 -0.0604 -0.9796
  755MOL0    Cl 1835   6.025   7.461   3.842  0.1070 -0.2464 -0.1793
  755MOL0     C 1836   5.577   6.952   4.312 -0.5644  1.4046  0.2636
  755MOL0     C 1837   5.442   6.971   4.275  0.4912  0.1060 -0.5467
  755MOL0     O 1838   5.277   7.241   4.370  0.9370  0.1699  0.0093
  755MOL0     C 1839   5.074   7.288   4.102  0.4169  0.4429 -0.0005
  755MOL0     C 1840   4.951   7.345   4.054  0.1664 -0.2108  0.1593
  755MOL0     N 1841   4.156   7.460   4.097  0.4132  0.3053  0.2469
  755MOL0     N 1842   4.054   7.527   4.120 -0.2973  0.4835 -0.5596
  755MOL0     C 1843   4.016   7.975   3.210 -0.2875 -1.3723  0.1774
  755MOL0     C 1844   3.918   7.922   3.116  0.1388  0.0668  0.2833
  755MOL0     C 1845   3.472   7.835   3.009 -0.1869  0.5663  0.4693
  755MOL0     C 1846   3.356   7.794   3.073 -0.1471  0.1050  0.0954
  755MOL0     C 1847   3.265   7.699   3.017 -0.0874 -0.6575 -0.7893
  755MOL0     C 1848   3.284   7.658   2.885  0.2470  0.4706 -0.0066
  755MOL0     O 1849   3.201   7.594   2.800  0.2072  0.0007 -0.2484
  755MOL0     C 1850   3.070   7.556   2.852 -0.4610  0.6320  0.4612
  755MOL0     C 1851   3.073   7.405   2.901 -0.1444 -0.5654  1.3356
  755MOL0     C 1852   2.930   7.358   2.935  1.3108 -0.1451  0.4739
  755MOL0     C 1853   2.862   7.283   2.812 -0.3819 -0.2508 -0.9456
  755MOL0     C 1854   2.723   7.308   2.793  0.5078  0.0965 -0.2126
  755MOL0     C 1855   2.608   7.351   2.779  0.5615  0.4548  0.5589
  755MOL0     C 1856   3.403   7.694   2.822 -0.3896 -0.2367  0.0081
  755MOL0     C 1857   3.493   7.789   2.877 -0.2023  0.5284 -0.5972
  755MOL0     H 1858   3.697   8.173   3.142  0.5898  0.6950  2.7847
  755MOL0     H 1859   3.870   8.276   3.275 -0.6101  1.5534 -3.8521
  755MOL0     H 1860   4.066   8.326   3.404 -1.0161 -0.5965 -1.0797
  755MOL0     H 1861   3.964   8.221   3.496 -0.7283  3.9978 -0.8541
  755MOL0     H 1862   4.269   8.230   3.524 -0.4974 -0.8897 -1.1285
  755MOL0     H 1863   4.169   8.316   3.635  3.7265 -0.4204  1.3796
  755MOL0     H 1864   4.138   8.008   3.587  1.1632 -1.4875  2.7435
  755MOL0     H 1865   4.264   8.076   3.688  0.7856  4.0402 -1.7928
  755MOL0     H 1866   4.109   8.189   3.821 -0.1007  1.5580 -3.4613
  755MOL0     H 1867   3.966   8.131   3.749  1.2810  0.9482  0.6951
  755MOL0     H 1868   4.037   7.886   3.812  3.8375 -2.0363  0.6917
  755MOL0     H 1869   4.184   7.956   3.891 -0.4060 -3.1509  0.4916
  755MOL0     H 1870   4.032   8.093   4.050  0.0537 -0.6616  2.0356
  755MOL0     H 1871   3.902   8.021   3.960 -0.0695 -2.9400 -1.2448
  755MOL0     H 1872   4.125   7.910   4.143 -0.9458  0.5392  0.9426
  755MOL0     H 1873   3.953   7.942   4.188 -1.6438  0.9952 -0.9574
  755MOL0     H 1874   3.912   7.763   3.994  0.2243  0.4117 -0.2895
  755MOL0     H 1875   3.910   7.728   4.169 -0.9825  1.6610 -0.2192
  755MOL0     H 1876   4.248   7.738   3.946 -0.6669 -0.8922 -1.2076
  755MOL0     H 1877   4.321   7.391   3.878  0.2088  1.0830 -1.5191
  755MOL0     H 1878   4.396   7.551   3.883  0.4221  0.7593  0.4652
  755MOL0     H 1879   4.520   7.364   3.960 -0.1469  0.2741 -0.5976
  755MOL0     H 1880   4.408   7.344   4.103 -3.1151  1.0769 -0.6082
  755MOL0     H 1881   4.451   7.569   4.187  0.6318  0.6186 -0.2797
  755MOL0     H 1882   4.544   7.597   4.048  2.4223 -0.0214 -0.0470
  755MOL0     H 1883   4.595   7.366   4.229 -0.6810  1.1966  3.3918
  755MOL0     H 1884   4.653   7.534   4.268 -1.7933  0.8229 -0.9866
  755MOL0     H 1885   4.812   7.386   4.355  0.7843  0.0418  1.3910
  755MOL0     H 1886   5.091   7.328   4.506 -0.2274  0.4669 -0.9722
  755MOL0     H 1887   4.929   7.310   4.545  0.8448 -1.5932  1.6861
  755MOL0     H 1888   5.012   7.164   4.505  2.7339 -0.1697 -0.9660
  755MOL0     H 1889   5.469   7.253   4.089 -1.5764 -1.9679 -1.4518
  755MOL0     H 1890   5.729   7.206   4.173 -0.6986  3.0475  2.1145
  755MOL0     H 1891   5.859   7.215   4.397 -0.8242  0.3059 -1.3075
  755MOL0     H 1892   5.801   7.097   4.515  0.9154 -1.5501  0.5917
  755MOL0     H 1893   6.053   7.118   4.527  1.2945  1.5419 -2.6610
  755MOL0     H 1894   5.997   6.957   4.483 -0.7721 -0.1565  2.0703
  755MOL0     H 1895   6.041   7.046   4.239 -3.0524 -0.4303  2.4942
  755MOL0     H 1896   6.183   6.997   4.336  1.7022  1.2283  4.0095
  755MOL0     H 1897   6.084   7.280   4.276 -0.5169 -0.8815 -1.4426
  755MOL0     H 1898   6.222   7.230   4.396  3.3723  0.8244 -1.4076
  755MOL0     H 1899   6.194   7.147   4.102 -1.1617  0.1584  0.5777
  755MOL0     H 1900   6.344   7.131   4.196 -0.9204 -0.5314  0.5206
  755MOL0     H 1901   6.354   7.389   4.196  0.0281  0.5617 -1.0594
  755MOL0     H 1902   6.379   7.309   4.041  0.5017  1.5113  1.1266
  755MOL0     H 1903   6.239   7.515   4.061 -0.8396  1.2950  1.1609
  755MOL0     H 1904   6.101   7.415   4.125  0.2339 -1.6023  1.7601
  755MOL0     H 1905   6.131   7.281   3.914 -1.0517  0.0686  0.5988
  755MOL0     H 1906   6.253   7.384   3.857  3.2001 -0.4421  4.1030
  755MOL0     H 1907   5.617   6.875   4.378 -0.9159 -1.6059 -2.7669
  755MOL0     H 1908   5.365   6.900   4.304  0.0168  1.2260  1.0409
  755MOL0     H 1909   5.143   7.284   4.019  0.6845  1.5043  0.1589
  755MOL0     H 1910   4.943   7.364   3.947  3.3142 -0.9177 -0.2948
  755MOL0     H 1911   4.101   7.916   3.244  1.8706  1.0589 -0.6302
  755MOL0     H 1912   3.936   7.827   3.066 -2.4100  0.0696 -0.8061
  755MOL0     H 1913   3.339   7.819   3.178 -1.0541  0.7115 -0.1861
  755MOL0     H 1914   3.185   7.667   3.083  2.2270 -5.7790  0.0336
  755MOL0     H 1915   3.046   7.618   2.938  0.9828  2.3819 -0.3189
  755MOL0     H 1916   2.989   7.565   2.780 -1.8978  1.5210  2.1186
  755MOL0     H 1917   3.135   7.395   2.990  1.5276  2.3737  0.6354
  755MOL0     H 1918   3.111   7.343   2.820 -0.7742 -0.2379  0.7813
  755MOL0     H 1919   2.869   7.444   2.964 -1.4513 -0.7702 -2.8410
  755MOL0     H 1920   2.928   7.298   3.026  1.2828 -1.2207 -0.2120
  755MOL0     H 1921   2.879   7.175   2.820 -1.6853 -0.5636 -2.1306
  755MOL0     H 1922   2.915   7.332   2.730  2.6960  0.0775  1.0691
  755MOL0     H 1923   2.513   7.397   2.762  0.8453 -0.0539 -3.2400
  755MOL0     H 1924   3.431   7.661   2.722 -2.3410 -1.2045 -0.2875
  755MOL0     H 1925   3.573   7.832   2.816 -2.0103  0.1043 -3.4780
  756MOL0     O 1926   7.647   4.368   6.508 -0.1949  0.2992  0.0020
  756MOL0     C 1927   7.707   4.466   6.557 -0.4399 -1.1193 -0.3330
  756MOL0     O 1928   7.651   4.574   6.613 -0.3834  0.8652  0.0919
  756MOL0     C 1929   7.515   4.567   6.626  0.4758  0.3338  0.1836
  756MOL0     C 1930   7.464   4.514   6.750 -0.0471 -0.3571  0.2158
  756MOL0     C 1931   7.327   4.492   6.763 -0.2038  0.3025  0.4405
  756MOL0     C 1932   7.231   4.528   6.672  0.4062  0.1800  0.1981
  756MOL0     O 1933   7.104   4.529   6.721 -0.4799  0.4855  0.5698
  756MOL0     C 1934   7.045   4.654   6.752  0.7945  0.0941 -0.2815
  756MOL0     C 1935   6.899   4.639   6.767  0.5922 -0.7247 -0.0274
  756MOL0     C 1936   6.803   4.567   6.665 -0.2992  0.3749 -0.1462
  756MOL0     C 1937   6.788   4.625   6.532  0.1039  0.1555  0.6147
  756MOL0     C 1938   6.703   4.536   6.441  0.1414 -0.0952  0.7153
  756MOL0     C 1939   6.764   4.400   6.403  0.0501 -0.3304 -0.1615
  756MOL0     C 1940   6.704   4.358   6.272  0.1654 -0.4861  0.2525
  756MOL0     C 1941   6.797   4.290   6.161  0.8058 -0.0208 -1.0333
  756MOL0     N 1942   6.719   4.255   6.043  0.2048  0.1149  0.5803
  756MOL0     C 1943   6.697   4.354   5.951 -0.5813 -0.1546 -0.1684
  756MOL0     C 1944   6.643   4.293   5.848 -0.4029  0.4733 -0.4998
  756MOL0     C 1945   6.604   4.368   5.721 -1.0647 -0.4976  0.6539
  756MOL0     C 1946   6.505   4.300   5.626  0.1431 -0.1170 -0.1613
  756MOL0     C 1947   6.360   4.321   5.670  0.0715 -1.2634  0.0179
  756MOL0     C 1948   6.255   4.233   5.594 -0.2349  0.4114  0.0536
  756MOL0     O 1949   6.289   4.091   5.616  0.5719  0.1047  0.3225
  756MOL0     C 1950   6.192   3.996   5.591 -0.3508 -0.0444  0.9885
  756MOL0     C 1951   6.244   3.868   5.587 -0.0996 -0.0343 -0.0357
  756MOL0     C 1952   6.163   3.759   5.544  0.9201  0.4628 -0.5312
  756MOL0     C 1953   6.222   3.623   5.561  0.4858  0.1193 -0.6958
  756MOL0     C 1954   6.036   3.786   5.487  0.2255 -0.1312  0.1614
  756MOL0     C 1955   5.939   3.688   5.422  0.5539 -0.0262  0.3612
  756MOL0     O 1956   5.819   3.739   5.389 -0.4970  0.1841  0.5271
  756MOL0     C 1957   5.735   3.672   5.306  0.1259 -0.0452  0.4309
  756MOL0     C 1958   5.754   3.705   5.169  0.5766 -0.8721 -0.0473
  756MOL0     C 1959   5.660   3.650   5.080  0.4129 -0.4815 -0.0273
  756MOL0     C 1960   5.558   3.565   5.120 -0.5701 -0.3086  0.4629
  756MOL0     O 1961   5.464   3.521   5.034 -0.3016 -0.7486 -0.4749
  756MOL0     C 1962   5.446   3.540   4.893  0.5076  0.3064  0.1584
  756MOL0     C 1963   5.350   3.433   4.860 -0.1760 -0.0043  0.5630
  756MOL0     C 1964   5.290   3.451   4.717 -0.5402 -0.2208 -0.7495
  756MOL0     C 1965   5.196   3.573   4.702  1.1871 -0.0860  0.0887
  756MOL0     C 1966   5.091   3.561   4.593  1.3452 -0.5310 -0.0769
  756MOL0     C 1967   5.054   3.707   4.548  0.2913  0.5931 -0.7196
  756MOL0     C 1968   5.151   3.787   4.460 -0.3023  0.0528  0.2206
  756MOL0     C 1969   5.131   3.741   4.313  0.1587  0.3786  0.4466
  756MOL0    Cl 1970   4.981   3.808   4.244  0.3611 -0.2748  0.1582
  756MOL0     C 1971   5.567   3.515   5.248 -0.2943 -0.2235 -0.0241
  756MOL0     C 1972   5.661   3.558   5.340 -0.6508 -0.0993 -0.3589
  756MOL0     O 1973   5.980   3.584   5.384 -0.0383 -0.7630  0.2169
  756MOL0     C 1974   5.992   3.923   5.497  0.7605  0.6644 -0.2500
  756MOL0     C 1975   6.065   4.021   5.559 -0.1494  0.8415  0.7447
  756MOL0     N 1976   6.619   4.158   5.877  0.4936  0.8986 -0.9468
  756MOL0     N 1977   6.652   4.143   6.002 -0.3693  0.5356 -0.2574
  756MOL0     C 1978   7.276   4.591   6.556  0.4404 -0.4471 -0.4960
  756MOL0     C 1979   7.418   4.608   6.531 -0.1256  0.2582  0.5212
  756MOL0     C 1980   7.854   4.465   6.548  0.2214 -0.5723  0.5819
  756MOL0     C 1981   7.926   4.350   6.501 -0.3594 -0.0818  0.8121
  756MOL0     C 1982   8.063   4.362   6.487  0.1463 -0.1504 -0.7724
  756MOL0     C 1983   8.125   4.488   6.504  0.0650  0.3977 -0.8395
  756MOL0     O 1984   8.254   4.498   6.476  0.8846 -0.0461 -0.3339
  756MOL0     C 1985   8.320   4.422   6.379  0.6406  0.8448 -1.0271
  756MOL0     C 1986   8.434   4.502   6.324  0.2513  0.4849  0.2912
  756MOL0     C 1987   8.539   4.400   6.278 -0.6997 -0.6907  0.7479
  756MOL0     C 1988   8.664   4.484   6.245  0.0765  0.1208  0.6664
  756MOL0     C 1989   8.777   4.412   6.182 -0.8541  0.1820  0.0666
  756MOL0     C 1990   8.864   4.357   6.113  0.4480 -0.2963  0.9517
  756MOL0     C 1991   8.052   4.597   6.540  0.3997 -1.6200  0.5186
  756MOL0     C 1992   7.918   4.588   6.577 -0.3031 -0.5805  0.2527
  756MOL0     H 1993   7.528   4.486   6.834  0.5375  3.1358  1.1178
  756MOL0     H 1994   7.293   4.429   6.845 -2.2364 -0.7741 -1.1440
  756MOL0     H 1995   7.083   4.698   6.845  0.8769 -1.3473  0.3892
  756MOL0     H 1996   7.072   4.727   6.674  0.6119 -1.4416 -1.8381
  756MOL0     H 1997   6.886   4.579   6.857  1.3866 -0.4240  0.2988
  756MOL0     H 1998   6.850   4.735   6.780 -0.8748 -1.1669 -1.8638
  756MOL0     H 1999   6.837   4.464   6.651  2.6161  1.3059 -0.5854
  756MOL0     H 2000   6.700   4.570   6.701 -1.0826  1.5869 -2.2773
  756MOL0     H 2001   6.741   4.724   6.529  0.3069  0.2818 -3.4341
  756MOL0     H 2002   6.890   4.638   6.496  1.9922 -3.2496  3.9509
  756MOL0     H 2003   6.606   4.518   6.487 -0.1594  1.6520  0.8393
  756MOL0     H 2004   6.686   4.604   6.358  0.8479  0.5753  1.0984
  756MOL0     H 2005   6.870   4.417   6.382  0.3798 -1.5448  0.4310
  756MOL0     H 2006   6.761   4.333   6.489  4.0258 -1.1846 -0.5001
  756MOL0     H 2007   6.629   4.286   6.306 -1.9982  1.4695 -0.1546
  756MOL0     H 2008   6.649   4.440   6.225 -0.4786  0.4007  2.4467
  756MOL0     H 2009   6.843   4.201   6.207 -1.2979 -1.0982 -0.8852
  756MOL0     H 2010   6.875   4.353   6.118 -1.3646  2.0327 -2.1713
  756MOL0     H 2011   6.724   4.459   5.955 -2.1429  0.2814  3.9591
  756MOL0     H 2012   6.575   4.469   5.751  1.6364  0.5924 -0.1293
  756MOL0     H 2013   6.692   4.386   5.659 -2.0599 -0.5916 -0.8343
  756MOL0     H 2014   6.519   4.192   5.626  0.8954 -0.1923 -4.1935
  756MOL0     H 2015   6.530   4.335   5.525 -1.3853 -1.3357 -1.0115
  756MOL0     H 2016   6.328   4.425   5.658  1.3184 -0.8171  0.4869
  756MOL0     H 2017   6.360   4.287   5.774 -0.1189 -2.3176 -0.3209
  756MOL0     H 2018   6.244   4.267   5.491  0.0311  0.6156  0.0927
  756MOL0     H 2019   6.162   4.255   5.647 -0.3569  0.0605 -0.0083
  756MOL0     H 2020   6.349   3.857   5.614 -0.6395  1.5510  3.1064
  756MOL0     H 2021   6.317   3.627   5.614 -0.0547 -0.7924  0.3826
  756MOL0     H 2022   6.152   3.546   5.594  0.2534 -0.3516 -2.1954
  756MOL0     H 2023   6.240   3.586   5.460 -1.6139  0.6690 -1.3301
  756MOL0     H 2024   5.828   3.775   5.133 -1.5713  1.3638 -0.3755
  756MOL0     H 2025   5.657   3.684   4.977  0.1941 -2.4156 -0.7097
  756MOL0     H 2026   5.412   3.641   4.866  2.8183  0.6135 -2.0181
  756MOL0     H 2027   5.544   3.523   4.847  1.2069  4.6743 -0.4564
  756MOL0     H 2028   5.403   3.338   4.874  1.8244  1.0448  0.4028
  756MOL0     H 2029   5.270   3.422   4.934  0.1534 -2.1100  0.6744
  756MOL0     H 2030   5.226   3.364   4.702 -0.4120 -1.3642  3.8514
  756MOL0     H 2031   5.366   3.467   4.640 -0.0080  1.3634  0.0663
  756MOL0     H 2032   5.136   3.572   4.794  0.3448 -6.2145 -0.0953
  756MOL0     H 2033   5.244   3.671   4.711  0.6883  0.4352 -2.3995
  756MOL0     H 2034   5.006   3.505   4.635 -0.6565  3.7146  2.1703
  756MOL0     H 2035   5.119   3.513   4.499  0.7684  2.4538 -1.9104
  756MOL0     H 2036   4.951   3.711   4.514  0.8801  1.7001 -2.5447
  756MOL0     H 2037   5.051   3.764   4.642  2.5616 -0.3517  0.0011
  756MOL0     H 2038   5.249   3.772   4.506 -1.3291 -1.6030  2.0473
  756MOL0     H 2039   5.137   3.895   4.461 -0.3567  0.0980 -1.4235
  756MOL0     H 2040   5.122   3.634   4.291 -2.7089  0.8093 -0.9554
  756MOL0     H 2041   5.213   3.776   4.250 -0.8514 -2.0337 -2.4236
  756MOL0     H 2042   5.495   3.438   5.277 -1.5493  0.6170 -0.8109
  756MOL0     H 2043   5.679   3.524   5.442  2.7084  1.1583 -0.3961
  756MOL0     H 2044   5.905   3.971   5.453  2.1242  1.0121 -2.7823
  756MOL0     H 2045   6.018   4.119   5.565  2.0148  2.0954 -1.1507
  756MOL0     H 2046   7.199   4.614   6.482 -0.7350  1.6032  1.2521
  756MOL0     H 2047   7.465   4.655   6.445  0.0548 -0.7911  0.0373
  756MOL0     H 2048   7.876   4.261   6.463 -1.5550  1.1865 -0.7494
  756MOL0     H 2049   8.128   4.279   6.459 -1.1749 -0.8545 -1.8716
  756MOL0     H 2050   8.360   4.334   6.431  0.9460  2.8976  2.5416
  756MOL0     H 2051   8.250   4.387   6.303 -1.8132 -0.8744  1.7868
  756MOL0     H 2052   8.468   4.578   6.396  2.6741 -1.0625  0.9104
  756MOL0     H 2053   8.389   4.550   6.237 -1.7593 -2.5248 -0.4659
  756MOL0     H 2054   8.514   4.344   6.187  0.0030  1.3047 -0.7474
  756MOL0     H 2055   8.564   4.323   6.351 -0.3012 -0.7831  0.5191
  756MOL0     H 2056   8.709   4.518   6.339  0.4595  1.9095 -0.1215
  756MOL0     H 2057   8.636   4.575   6.192  1.0246  0.3149  0.4793
  756MOL0     H 2058   8.941   4.313   6.054 -1.2907 -2.0074 -0.1705
  756MOL0     H 2059   8.119   4.680   6.562 -0.9977 -0.2198 -0.2175
  756MOL0     H 2060   7.863   4.677   6.604  0.8087 -0.1910  1.3406
  757MOL0     O 2061   8.240   5.586  11.326 -0.4768  0.3834  0.5300
  757MOL0     C 2062   8.311   5.490  11.353 -0.5911  0.0954  0.1946
  757MOL0     O 2063   8.353   5.396  11.260  0.1726 -0.3194 -0.2390
  757MOL0     C 2064   8.334   5.432  11.129 -0.6798  0.5512  0.3809
  757MOL0     C 2065   8.415   5.527  11.063  0.0828 -0.4280  0.3113
  757MOL0     C 2066   8.393   5.556  10.925  0.8286 -0.7545 -0.6463
  757MOL0     C 2067   8.291   5.489  10.854 -0.6131  1.0107 -1.1378
  757MOL0     O 2068   8.279   5.522  10.723  0.4931 -0.4239 -0.3212
  757MOL0     C 2069   8.155   5.489  10.655 -0.2219 -0.4237 -0.6905
  757MOL0     C 2070   8.151   5.516  10.507  0.5589 -0.6372 -0.2691
  757MOL0     C 2071   8.260   5.435  10.434 -0.1595 -0.4392 -0.2188
  757MOL0     C 2072   8.221   5.395  10.288 -0.2607 -0.6624 -0.5259
  757MOL0     C 2073   8.232   5.519  10.194  0.3174 -0.0394 -0.5381
  757MOL0     C 2074   8.109   5.607  10.195  0.8628 -0.4552  0.0902
  757MOL0     C 2075   8.154   5.735  10.112 -0.1746  0.0718 -1.2677
  757MOL0     C 2076   8.036   5.825  10.086  0.1614 -0.8596 -0.0487
  757MOL0     N 2077   8.068   5.963  10.045  0.7120  0.3605  0.3128
  757MOL0     C 2078   8.022   6.083  10.086 -0.5055 -0.0895 -0.6127
  757MOL0     C 2079   8.097   6.177  10.028  0.9711  0.8468  0.3069
  757MOL0     C 2080   8.076   6.323  10.061  0.1650 -0.3643 -0.0547
  757MOL0     C 2081   8.087   6.374  10.207  0.3544 -0.3077  0.1207
  757MOL0     C 2082   8.091   6.524  10.220  0.7059  0.1692 -0.0878
  757MOL0     C 2083   7.946   6.574  10.203  0.8629  0.5637 -0.4990
  757MOL0     O 2084   7.859   6.526  10.306 -0.2422  1.0211 -0.7143
  757MOL0     C 2085   7.726   6.528  10.291 -0.4730 -0.1575  0.4011
  757MOL0     C 2086   7.642   6.476  10.389  0.3959  0.7430  0.2652
  757MOL0     C 2087   7.499   6.455  10.376  0.2863 -0.3169  0.9314
  757MOL0     C 2088   7.429   6.391  10.487  0.3321  0.1335 -0.3588
  757MOL0     C 2089   7.441   6.502  10.250  0.8546 -0.3357 -0.9448
  757MOL0     C 2090   7.299   6.478  10.217  1.1791 -0.4660 -0.2098
  757MOL0     O 2091   7.255   6.503  10.090  0.4316  0.8684 -0.1242
  757MOL0     C 2092   7.167   6.406  10.036  0.1016  0.3718 -0.6907
  757MOL0     C 2093   7.181   6.266  10.062 -0.2375  0.6377 -0.4010
  757MOL0     C 2094   7.072   6.183  10.031  0.1340  0.7588  0.0987
  757MOL0     C 2095   6.967   6.220   9.945  0.6471 -0.2834 -0.2848
  757MOL0     O 2096   6.864   6.142   9.895  0.6917  0.8227 -0.6050
  757MOL0     C 2097   6.853   6.002   9.946  0.1436  0.0201  0.4540
  757MOL0     C 2098   6.728   5.929   9.893  0.1100 -0.1300  0.0629
  757MOL0     C 2099   6.734   5.787   9.961  0.2892 -1.2115 -0.2284
  757MOL0     C 2100   6.627   5.712   9.890  0.1466  0.5976  0.1655
  757MOL0     C 2101   6.634   5.568   9.948 -0.7308  0.2824 -0.1673
  757MOL0     C 2102   6.513   5.476   9.918 -0.1147  0.0558  0.3896
  757MOL0     C 2103   6.511   5.333   9.985 -0.1527  0.5001 -0.1146
  757MOL0     C 2104   6.407   5.238   9.924 -0.5258  0.0903 -0.3343
  757MOL0    Cl 2105   6.425   5.076   9.983  0.2843 -0.2916 -0.7673
  757MOL0     C 2106   6.947   6.362   9.925  0.5716 -0.2591 -0.6152
  757MOL0     C 2107   7.047   6.451   9.967  0.5160 -0.3088 -0.6336
  757MOL0     O 2108   7.220   6.433  10.303  0.8251 -0.9523  0.3523
  757MOL0     C 2109   7.517   6.561  10.154  0.1224 -0.3590  0.0984
  757MOL0     C 2110   7.653   6.589  10.180 -0.7130 -0.2095 -0.6726
  757MOL0     N 2111   8.193   6.112   9.956  0.3408 -0.8810 -0.4881
  757MOL0     N 2112   8.179   5.991   9.969 -0.4894  0.4633  0.3933
  757MOL0     C 2113   8.208   5.397  10.923  0.0411 -0.2865  0.3572
  757MOL0     C 2114   8.236   5.368  11.060 -0.1531  0.1691 -0.2562
  757MOL0     C 2115   8.350   5.471  11.498  0.2907  0.0510  0.0325
  757MOL0     C 2116   8.276   5.531  11.599  0.4008  0.4944  0.2387
  757MOL0     C 2117   8.305   5.497  11.731  0.1168  0.1862  0.6006
  757MOL0     C 2118   8.415   5.417  11.766  0.9800  0.1935 -1.3695
  757MOL0     O 2119   8.444   5.379  11.898 -0.3857 -1.0855  0.0505
  757MOL0     C 2120   8.388   5.442  12.018 -0.1696 -0.1117  0.1052
  757MOL0     C 2121   8.491   5.460  12.131  0.5105  0.1140 -0.0285
  757MOL0     C 2122   8.595   5.571  12.090  0.0551  1.0968 -0.3672
  757MOL0     C 2123   8.704   5.545  11.977  0.4608 -0.5747  0.0151
  757MOL0     C 2124   8.786   5.662  11.967 -0.7363  0.8390  0.3141
  757MOL0     C 2125   8.887   5.726  11.956  0.5519  0.0707 -0.1082
  757MOL0     C 2126   8.495   5.369  11.667 -0.2425 -0.6359  0.0648
  757MOL0     C 2127   8.462   5.392  11.533  0.3170 -0.1297  0.7925
  757MOL0     H 2128   8.485   5.592  11.115 -2.4960 -0.1322  3.7756
  757MOL0     H 2129   8.463   5.613  10.864  1.4669 -0.7032  0.1105
  757MOL0     H 2130   8.129   5.383  10.661 -2.9974  0.2681  1.4041
  757MOL0     H 2131   8.073   5.543  10.704  0.4670  2.3136 -2.3290
  757MOL0     H 2132   8.055   5.483  10.466 -0.6958  1.1733  1.0173
  757MOL0     H 2133   8.157   5.625  10.492 -0.4820 -0.6870 -1.2156
  757MOL0     H 2134   8.350   5.498  10.429 -0.6308  0.3754  1.0615
  757MOL0     H 2135   8.275   5.338  10.482 -1.0923 -0.3504  0.2693
  757MOL0     H 2136   8.294   5.325  10.246  2.7042  1.8299  0.1893
  757MOL0     H 2137   8.123   5.346  10.296 -1.6006  1.7954 -0.8625
  757MOL0     H 2138   8.319   5.566  10.241 -1.2355 -0.0279  2.5397
  757MOL0     H 2139   8.265   5.478  10.098 -0.5386 -1.8883 -0.0905
  757MOL0     H 2140   8.023   5.560  10.147  0.1514  0.4123  0.4863
  757MOL0     H 2141   8.073   5.627  10.296  1.4717  0.6644  0.1010
  757MOL0     H 2142   8.216   5.788  10.184  0.0335  0.7511 -1.9393
  757MOL0     H 2143   8.214   5.701  10.028  0.3902  0.4618 -1.0246
  757MOL0     H 2144   7.984   5.846  10.181  0.2235 -0.7822 -0.0325
  757MOL0     H 2145   7.961   5.772  10.026 -1.3030  0.4043  0.5837
  757MOL0     H 2146   7.940   6.098  10.156  0.8741  0.6959  0.8933
  757MOL0     H 2147   8.153   6.371  10.000  0.8632 -1.1496  0.1849
  757MOL0     H 2148   7.980   6.359  10.024  0.9328  0.4045 -1.3736
  757MOL0     H 2149   8.182   6.348  10.254  0.5420  2.2220  1.3260
  757MOL0     H 2150   8.010   6.328  10.269 -0.2474 -2.4098 -2.0516
  757MOL0     H 2151   8.156   6.570  10.145  0.9401  1.6279  0.9782
  757MOL0     H 2152   8.132   6.558  10.316 -0.1160  0.4848  0.1596
  757MOL0     H 2153   7.908   6.550  10.104 -3.0259 -2.6026  1.4867
  757MOL0     H 2154   7.952   6.680  10.230 -1.4789  0.2329  1.6957
  757MOL0     H 2155   7.694   6.438  10.476  0.7779  0.9568  0.1338
  757MOL0     H 2156   7.369   6.458  10.550 -2.0709  0.0537 -2.4203
  757MOL0     H 2157   7.362   6.313  10.451 -0.3232  0.5915 -0.1428
  757MOL0     H 2158   7.496   6.337  10.554  2.0521  1.4027 -0.9746
  757MOL0     H 2159   7.266   6.227  10.117  0.7624  0.4885 -1.9885
  757MOL0     H 2160   7.072   6.079  10.060 -3.6783  0.4292 -0.5671
  757MOL0     H 2161   6.949   5.961   9.912 -1.6210 -3.3940 -0.9379
  757MOL0     H 2162   6.850   6.012  10.054  0.4473 -1.2746  0.6113
  757MOL0     H 2163   6.630   5.973   9.914  0.3631  0.2600  0.4468
  757MOL0     H 2164   6.743   5.917   9.785 -1.3097 -0.8064 -0.0798
  757MOL0     H 2165   6.716   5.797  10.068 -0.2615 -0.0630 -0.4130
  757MOL0     H 2166   6.838   5.758   9.944  1.3146  3.1845 -3.0658
  757MOL0     H 2167   6.525   5.747   9.905  0.5738  1.3568  1.4382
  757MOL0     H 2168   6.651   5.707   9.784 -2.1220 -1.0641 -0.3391
  757MOL0     H 2169   6.640   5.570  10.057  1.9446  1.8721 -0.2550
  757MOL0     H 2170   6.729   5.529   9.910  0.3355  1.5942  1.0574
  757MOL0     H 2171   6.418   5.523   9.947  1.2081  2.1333  1.5291
  757MOL0     H 2172   6.503   5.453   9.811 -2.0658 -0.7662  0.6958
  757MOL0     H 2173   6.494   5.360  10.089 -0.8140  3.9054 -0.9896
  757MOL0     H 2174   6.610   5.292   9.959  0.5563  1.4731  0.9681
  757MOL0     H 2175   6.406   5.244   9.815  1.4135  0.1282 -0.3803
  757MOL0     H 2176   6.311   5.283   9.953 -1.1918 -0.4206 -1.6798
  757MOL0     H 2177   6.854   6.396   9.881 -1.2889 -3.9037  0.1660
  757MOL0     H 2178   7.037   6.559   9.956 -2.3402 -0.6891 -2.7189
  757MOL0     H 2179   7.469   6.608  10.069 -0.1042 -0.9699 -0.1170
  757MOL0     H 2180   7.709   6.649  10.109  0.3127 -1.5497 -1.0465
  757MOL0     H 2181   8.126   5.347  10.872  1.8216 -1.3457 -1.6220
  757MOL0     H 2182   8.187   5.285  11.110 -1.0959  1.0950  0.4224
  757MOL0     H 2183   8.195   5.597  11.568 -0.4883  0.1983  1.8346
  757MOL0     H 2184   8.252   5.545  11.813  0.2334  1.6501 -0.1610
  757MOL0     H 2185   8.355   5.544  11.996 -0.7749 -0.3693 -0.2006
  757MOL0     H 2186   8.308   5.386  12.066 -0.5445 -0.2430 -0.6666
  757MOL0     H 2187   8.549   5.369  12.147 -1.0788 -0.3546  4.6170
  757MOL0     H 2188   8.445   5.488  12.227  1.6133 -1.7481  1.1145
  757MOL0     H 2189   8.651   5.574  12.184 -0.3402 -3.0525  0.1933
  757MOL0     H 2190   8.549   5.668  12.071 -1.5452  0.0169 -2.5069
  757MOL0     H 2191   8.650   5.545  11.882  0.7724  0.5301 -0.1834
  757MOL0     H 2192   8.754   5.448  11.975 -0.6468 -1.1529  0.0584
  757MOL0     H 2193   8.974   5.789  11.955  0.5075  0.2781 -3.9338
  757MOL0     H 2194   8.590   5.324  11.694 -0.1237 -0.6777 -0.4134
  757MOL0     H 2195   8.523   5.341  11.459 -0.4281 -0.8906  0.6860
  758MOL0     O 2196   3.061   9.513   7.720 -0.4497  0.0064 -0.3632
  758MOL0     C 2197   3.166   9.545   7.660  0.7848 -0.5464 -1.0775
  758MOL0     O 2198   3.264   9.642   7.696  0.1873 -0.4235 -0.9406
  758MOL0     C 2199   3.239   9.720   7.819 -0.2795  0.2935  0.6310
  758MOL0     C 2200   3.332   9.697   7.918  0.6734 -1.4090 -0.3349
  758MOL0     C 2201   3.313   9.772   8.039 -0.3333 -0.8811 -1.1541
  758MOL0     C 2202   3.229   9.881   8.043 -0.2984 -0.0379 -0.3400
  758MOL0     O 2203   3.238   9.946   8.166 -0.5772 -0.1530  0.6286
  758MOL0     C 2204   3.141  10.040   8.205  0.0777  1.2133 -0.7263
  758MOL0     C 2205   3.161  10.108   8.341 -0.0749 -0.6201 -0.5248
  758MOL0     C 2206   3.130  10.023   8.472  0.1990  0.2903 -1.0078
  758MOL0     C 2207   2.989   9.958   8.470 -0.8908  0.0838 -0.2616
  758MOL0     C 2208   2.953   9.860   8.588  0.1382  0.7822  0.1548
  758MOL0     C 2209   2.880   9.939   8.702 -0.4156  0.4047 -0.6316
  758MOL0     C 2210   2.921   9.888   8.839 -0.7712  0.2222 -0.2684
  758MOL0     C 2211   2.840   9.947   8.951  0.3632  0.0001 -1.1885
  758MOL0     N 2212   2.693   9.927   8.925 -0.6632 -0.1375 -0.2327
  758MOL0     C 2213   2.622   9.807   8.937  0.0448  0.5823  0.0548
  758MOL0     C 2214   2.496   9.832   8.912  1.1404 -0.6450 -0.0412
  758MOL0     C 2215   2.376   9.748   8.910 -0.0221  0.4153 -0.2942
  758MOL0     C 2216   2.269   9.758   8.795 -0.3891 -0.6216 -0.4696
  758MOL0     C 2217   2.326   9.784   8.659  0.1898  0.1504 -0.1029
  758MOL0     C 2218   2.248   9.718   8.540  0.7840 -1.2536 -0.6917
  758MOL0     O 2219   2.303   9.739   8.404  0.6043 -0.3618  0.0446
  758MOL0     C 2220   2.221   9.741   8.292  0.1452 -0.8448  0.0499
  758MOL0     C 2221   2.078   9.736   8.288  0.3550 -0.4295  0.7589
  758MOL0     C 2222   2.003   9.740   8.173  0.2726  0.6783  0.7568
  758MOL0     C 2223   1.853   9.745   8.173  0.1545 -0.5371  0.4113
  758MOL0     C 2224   2.065   9.775   8.044  0.9632 -0.1899 -0.3452
  758MOL0     C 2225   1.988   9.782   7.914  0.4454 -0.4906 -0.0245
  758MOL0     O 2226   1.922   9.673   7.879 -1.4141 -0.1465 -0.1008
  758MOL0     C 2227   1.844   9.678   7.768  0.4230 -0.0315  0.8036
  758MOL0     C 2228   1.717   9.728   7.774 -0.2579 -0.3514 -1.1421
  758MOL0     C 2229   1.641   9.737   7.653  0.8461 -1.0936  0.5293
  758MOL0     C 2230   1.689   9.693   7.533  0.3329 -0.0306  0.8342
  758MOL0     O 2231   1.615   9.693   7.414  0.1068  0.5604 -0.5850
  758MOL0     C 2232   1.476   9.665   7.408  0.2721 -0.0042 -0.9302
  758MOL0     C 2233   1.408   9.804   7.402 -0.4275  0.1605  0.1678
  758MOL0     C 2234   1.255   9.802   7.429 -0.4639 -0.6425  0.1200
  758MOL0     C 2235   1.198   9.758   7.296  0.1171 -0.0629 -0.5839
  758MOL0     C 2236   1.036   9.724   7.310 -0.1358 -0.2171 -0.3520
  758MOL0     C 2237   0.975   9.699   7.165 -0.8950  0.0767  0.1338
  758MOL0     C 2238   1.018   9.570   7.092 -0.2180 -0.7026 -0.1260
  758MOL0     C 2239   0.998   9.441   7.167 -1.2101  0.0446 -0.8044
  758MOL0    Cl 2240   1.124   9.420   7.317  0.6813 -0.2262 -0.5876
  758MOL0     C 2241   1.824   9.654   7.524 -0.2836 -0.3896 -1.2506
  758MOL0     C 2242   1.899   9.642   7.643 -0.5462 -0.8102 -0.6775
  758MOL0     O 2243   1.980   9.883   7.846  0.8801 -0.3779 -0.4523
  758MOL0     C 2244   2.199   9.788   8.047 -0.4905 -0.0530  0.1152
  758MOL0     C 2245   2.265   9.770   8.172 -0.1545 -0.0153  0.9073
  758MOL0     N 2246   2.491   9.975   8.894  0.8913 -0.2690  0.2062
  758MOL0     N 2247   2.610  10.027   8.879 -0.4703 -0.4463 -0.4217
  758MOL0     C 2248   3.143   9.908   7.936 -0.3562  0.3143 -0.2732
  758MOL0     C 2249   3.147   9.823   7.823 -0.3310  0.3182 -0.4345
  758MOL0     C 2250   3.212   9.450   7.553 -0.2606 -0.3109 -0.5723
  758MOL0     C 2251   3.323   9.482   7.473  0.1867 -0.1794  0.2089
  758MOL0     C 2252   3.358   9.397   7.369 -0.0772  0.6435  0.2612
  758MOL0     C 2253   3.279   9.288   7.331  0.6817  0.8313 -0.4623
  758MOL0     O 2254   3.294   9.196   7.222 -0.1298 -0.0002  0.6980
  758MOL0     C 2255   3.400   9.213   7.127 -0.1398 -0.3079  0.4046
  758MOL0     C 2256   3.512   9.105   7.148 -0.6323  0.9313 -0.0102
  758MOL0     C 2257   3.460   8.966   7.097  0.2623  0.9703 -0.1204
  758MOL0     C 2258   3.342   8.912   7.182  0.1254  0.0682  0.7036
  758MOL0     C 2259   3.307   8.767   7.150 -0.0698 -0.2816 -1.0739
  758MOL0     C 2260   3.280   8.653   7.118  1.2351 -0.2466  0.1314
  758MOL0     C 2261   3.161   9.259   7.400 -0.0165 -0.7655  0.1073
  758MOL0     C 2262   3.137   9.333   7.517  0.2528  0.2563  0.8593
  758MOL0     H 2263   3.403   9.615   7.910 -0.0876 -2.1480  0.3115
  758MOL0     H 2264   3.382   9.753   8.121  0.2903  1.9128 -0.9478
  758MOL0     H 2265   3.142  10.127   8.139  2.4028  1.5741 -0.2979
  758MOL0     H 2266   3.040  10.000   8.212  0.1641  1.1382  0.1673
  758MOL0     H 2267   3.265  10.141   8.334 -1.0771  2.9268 -0.6121
  758MOL0     H 2268   3.117  10.206   8.360  1.5832 -0.0453  0.6374
  758MOL0     H 2269   3.208   9.946   8.470  0.7257  0.7737 -0.0442
  758MOL0     H 2270   3.161  10.064   8.568  3.1901 -1.9422 -0.8761
  758MOL0     H 2271   2.914  10.036   8.455 -0.2454  0.2445 -3.5875
  758MOL0     H 2272   2.997   9.897   8.380 -2.0558  0.4342 -0.6280
  758MOL0     H 2273   2.892   9.771   8.569  1.2068 -0.1346  0.8774
  758MOL0     H 2274   3.043   9.819   8.636  0.9244  0.0467 -1.8371
  758MOL0     H 2275   2.910  10.044   8.698  0.7523  0.1222  0.2781
  758MOL0     H 2276   2.773   9.926   8.681 -0.0728 -2.9054 -0.8770
  758MOL0     H 2277   2.920   9.780   8.849 -0.9067  0.2346 -0.1367
  758MOL0     H 2278   3.026   9.909   8.861 -1.4627  2.5967  1.2494
  758MOL0     H 2279   2.876  10.050   8.961  0.8947 -0.4247  2.5149
  758MOL0     H 2280   2.860   9.912   9.052 -0.2112 -2.7147 -1.9308
  758MOL0     H 2281   2.660   9.707   8.957 -1.4201 -0.0105  0.0050
  758MOL0     H 2282   2.408   9.644   8.919 -1.5444 -0.3717 -2.8164
  758MOL0     H 2283   2.319   9.764   9.001  1.3769  0.1912  0.6484
  758MOL0     H 2284   2.194   9.835   8.820 -0.3247 -0.4810 -0.7083
  758MOL0     H 2285   2.218   9.661   8.799  1.5962 -1.6593  1.0934
  758MOL0     H 2286   2.412   9.716   8.659 -0.6727 -1.0605  2.7085
  758MOL0     H 2287   2.344   9.890   8.642 -2.3896  0.6765  0.0086
  758MOL0     H 2288   2.146   9.755   8.552  1.0747 -1.2821  3.0581
  758MOL0     H 2289   2.242   9.611   8.561  1.6177 -0.9101  1.6283
  758MOL0     H 2290   2.019   9.744   8.378 -1.0257  1.6087 -0.2484
  758MOL0     H 2291   1.808   9.730   8.272 -2.8413  0.0779 -0.7749
  758MOL0     H 2292   1.815   9.838   8.130  2.1839 -0.0724 -0.4783
  758MOL0     H 2293   1.810   9.666   8.110  1.4588 -0.2932 -0.8344
  758MOL0     H 2294   1.681   9.761   7.871  1.7488  1.4084 -0.9122
  758MOL0     H 2295   1.535   9.759   7.645  1.3287  0.9677 -1.0468
  758MOL0     H 2296   1.451   9.598   7.326  2.3633 -0.4324 -1.2746
  758MOL0     H 2297   1.447   9.609   7.498  2.4641  0.1739 -0.0458
  758MOL0     H 2298   1.453   9.868   7.479  2.3078  0.2481 -1.3846
  758MOL0     H 2299   1.439   9.862   7.315 -0.1964 -0.0210  0.1283
  758MOL0     H 2300   1.210   9.901   7.437 -2.3118 -1.2187 -2.0503
  758MOL0     H 2301   1.221   9.740   7.512 -0.6178 -2.9291 -1.5425
  758MOL0     H 2302   1.208   9.845   7.230  3.0880  1.0704  1.1388
  758MOL0     H 2303   1.253   9.673   7.255 -4.0257 -2.8268 -0.9796
  758MOL0     H 2304   0.984   9.803   7.365  0.5553 -0.6990  1.0193
  758MOL0     H 2305   1.014   9.641   7.378  1.1951 -0.2531  0.0655
  758MOL0     H 2306   0.866   9.691   7.177 -0.9345 -0.1240 -0.3499
  758MOL0     H 2307   0.999   9.784   7.100  0.6707  2.8135  3.9134
  758MOL0     H 2308   1.126   9.578   7.074 -0.4037  0.6322 -0.7984
  758MOL0     H 2309   0.966   9.565   6.996  3.0797 -0.4281 -2.0785
  758MOL0     H 2310   1.006   9.365   7.089  1.9616  1.4038 -2.0115
  758MOL0     H 2311   0.896   9.436   7.205 -0.3719 -0.8752  1.5111
  758MOL0     H 2312   1.872   9.629   7.429  0.0269 -0.1110 -1.1676
  758MOL0     H 2313   1.999   9.599   7.638 -0.8171 -1.5959  0.2868
  758MOL0     H 2314   2.252   9.829   7.961 -0.9713 -0.4015 -0.3565
  758MOL0     H 2315   2.369   9.799   8.168  0.3893 -1.9657  0.0864
  758MOL0     H 2316   3.076   9.993   7.944  0.3699  0.7400  2.4015
  758MOL0     H 2317   3.079   9.822   7.739 -0.0624 -2.1603 -0.7011
  758MOL0     H 2318   3.372   9.577   7.487 -0.5377  0.0952  0.9627
  758MOL0     H 2319   3.446   9.414   7.309  0.9585 -3.8093  0.1871
  758MOL0     H 2320   3.364   9.207   7.024 -0.1371  0.9428  0.3160
  758MOL0     H 2321   3.443   9.313   7.123  0.9766 -0.7119  1.6272
  758MOL0     H 2322   3.536   9.088   7.253 -1.9628 -1.7982 -0.0710
  758MOL0     H 2323   3.609   9.127   7.102 -0.5977 -0.9251 -0.9172
  758MOL0     H 2324   3.535   8.888   7.112 -0.3249  0.4733  0.3179
  758MOL0     H 2325   3.445   8.971   6.989  3.0466  1.0282 -0.5771
  758MOL0     H 2326   3.253   8.963   7.144 -0.2661  0.0922  1.6283
  758MOL0     H 2327   3.353   8.920   7.291  0.1996 -0.6848  0.7622
  758MOL0     H 2328   3.259   8.550   7.096 -3.4256 -0.0039  2.3989
  758MOL0     H 2329   3.095   9.176   7.381 -1.6106  0.7982 -1.5881
  758MOL0     H 2330   3.045   9.301   7.565 -0.3135  0.0013 -0.3629
  759MOL0     O 2331   3.713   7.083   5.055  0.0476 -0.1322  0.1373
  759MOL0     C 2332   3.691   7.189   4.997 -0.4227  0.8798 -0.0024
  759MOL0     O 2333   3.791   7.267   4.944  0.1975  0.7552 -0.2117
  759MOL0     C 2334   3.921   7.232   4.931 -0.4355 -0.4059  0.6159
  759MOL0     C 2335   3.992   7.153   5.020  0.6795 -0.2026  0.1227
  759MOL0     C 2336   4.117   7.093   4.990 -0.2653  0.5362  0.0959
  759MOL0     C 2337   4.175   7.114   4.859  1.0774 -0.4444 -0.0493
  759MOL0     O 2338   4.280   7.039   4.813  0.2513  0.0531  0.0944
  759MOL0     C 2339   4.387   7.022   4.916  1.2170 -0.1872  0.2666
  759MOL0     C 2340   4.523   7.016   4.846  0.9951 -0.1933 -0.4714
  759MOL0     C 2341   4.553   6.879   4.787  0.7705  0.5163  0.0348
  759MOL0     C 2342   4.524   6.751   4.867  0.4023  0.5943  0.6935
  759MOL0     C 2343   4.568   6.621   4.798  0.4976  0.8437 -0.2385
  759MOL0     C 2344   4.555   6.501   4.889  0.9527 -0.7881  0.5644
  759MOL0     C 2345   4.630   6.385   4.812  0.1206 -0.8573  0.5277
  759MOL0     C 2346   4.643   6.262   4.898 -0.8490  0.3456 -0.1442
  759MOL0     N 2347   4.517   6.205   4.942  0.5408  0.9753  0.1659
  759MOL0     C 2348   4.430   6.141   4.865 -0.9555  0.4792 -0.6890
  759MOL0     C 2349   4.338   6.082   4.937  0.8082  0.0718 -0.5327
  759MOL0     C 2350   4.228   6.008   4.867 -0.2058 -0.0382 -0.6878
  759MOL0     C 2351   4.092   6.086   4.864 -0.1666  0.3662  0.1339
  759MOL0     C 2352   3.991   6.002   4.781  0.2093  0.4367  0.0089
  759MOL0     C 2353   3.887   5.913   4.860  0.0008 -0.1747  0.0587
  759MOL0     O 2354   3.767   5.979   4.898 -0.7099 -0.6663  0.3332
  759MOL0     C 2355   3.666   5.899   4.941  0.9472 -0.2092 -0.1584
  759MOL0     C 2356   3.532   5.926   4.911 -0.0229 -0.1598  0.0982
  759MOL0     C 2357   3.421   5.846   4.944  0.2231  0.7991  0.3282
  759MOL0     C 2358   3.285   5.887   4.888  0.4713  0.0050 -0.1631
  759MOL0     C 2359   3.446   5.726   5.017 -0.6433  0.9063  1.1263
  759MOL0     C 2360   3.349   5.634   5.080 -0.2018  0.4540  0.7235
  759MOL0     O 2361   3.382   5.507   5.110 -0.2572 -0.4377  0.6320
  759MOL0     C 2362   3.287   5.434   5.180  0.1677 -0.5635 -0.1882
  759MOL0     C 2363   3.246   5.471   5.312 -0.3679  0.5410  1.0605
  759MOL0     C 2364   3.155   5.386   5.379  0.8753  0.0968  0.2176
  759MOL0     C 2365   3.108   5.267   5.319 -1.0714  0.0094  0.3240
  759MOL0     O 2366   3.022   5.191   5.396  0.4602  0.0208 -0.4417
  759MOL0     C 2367   2.980   5.057   5.354  0.4214 -0.8891 -0.9717
  759MOL0     C 2368   2.908   4.991   5.479  0.2736 -0.5767  0.3628
  759MOL0     C 2369   2.999   4.922   5.569  0.3035  0.1561 -0.2930
  759MOL0     C 2370   2.921   4.844   5.681 -0.7392 -0.2867 -0.1478
  759MOL0     C 2371   3.014   4.732   5.714 -0.1538  0.1461  0.3169
  759MOL0     C 2372   2.950   4.637   5.823  0.1611 -0.2151 -0.9303
  759MOL0     C 2373   3.063   4.533   5.884  0.4240  0.1639  1.0727
  759MOL0     C 2374   2.997   4.472   6.011 -0.2546 -0.9916  0.0046
  759MOL0    Cl 2375   2.843   4.398   5.980  0.5168  0.2743 -0.1105
  759MOL0     C 2376   3.152   5.234   5.192 -1.3472 -0.3353  0.4038
  759MOL0     C 2377   3.240   5.318   5.129  0.6980  0.0906  0.1037
  759MOL0     O 2378   3.242   5.683   5.097  0.0319  0.1420  0.1273
  759MOL0     C 2379   3.581   5.693   5.048  0.0135  0.0342  0.1543
  759MOL0     C 2380   3.687   5.781   5.019 -0.2096 -0.4651  1.3348
  759MOL0     N 2381   4.359   6.121   5.066  0.2690  0.1444 -0.7905
  759MOL0     N 2382   4.469   6.187   5.072  0.4357  0.0002  0.0631
  759MOL0     C 2383   4.100   7.193   4.766  0.5051 -0.2597  0.8118
  759MOL0     C 2384   3.979   7.247   4.802  0.6752  0.4694  0.6559
  759MOL0     C 2385   3.551   7.214   4.974  0.8717 -0.1385  0.2013
  759MOL0     C 2386   3.446   7.127   5.005 -0.2572 -0.0170 -0.4145
  759MOL0     C 2387   3.324   7.150   4.942 -0.4569 -0.6321  0.3953
  759MOL0     C 2388   3.296   7.264   4.866 -0.0582 -0.3162 -0.2418
  759MOL0     O 2389   3.171   7.297   4.821 -0.4110 -0.3778  0.6648
  759MOL0     C 2390   3.066   7.203   4.817 -0.1316 -0.8202 -0.0486
  759MOL0     C 2391   2.943   7.274   4.754 -0.0417 -0.5618 -0.2472
  759MOL0     C 2392   2.865   7.364   4.846 -0.3600  0.0012  0.1575
  759MOL0     C 2393   2.781   7.460   4.759  0.5246 -0.1522  0.0064
  759MOL0     C 2394   2.747   7.588   4.826 -0.6940 -0.4058  0.3058
  759MOL0     C 2395   2.697   7.679   4.872  0.5472  0.5626  0.0025
  759MOL0     C 2396   3.396   7.360   4.852 -0.2567 -0.7939 -0.0230
  759MOL0     C 2397   3.525   7.332   4.904  0.4015 -0.1979  0.2091
  759MOL0     H 2398   3.947   7.127   5.116  0.1962  1.3048  0.3359
  759MOL0     H 2399   4.156   7.029   5.068 -1.3455  1.3716  1.3732
  759MOL0     H 2400   4.362   7.106   4.981  0.3559 -0.0020 -0.2808
  759MOL0     H 2401   4.379   6.938   4.985 -1.1424 -0.0591  0.2455
  759MOL0     H 2402   4.530   7.085   4.761  3.8533 -0.8977 -0.8957
  759MOL0     H 2403   4.589   7.049   4.926  0.9075 -0.7112 -0.1799
  759MOL0     H 2404   4.492   6.876   4.696 -0.8255  3.4249  0.8671
  759MOL0     H 2405   4.655   6.887   4.747  0.3262  4.3245 -0.7485
  759MOL0     H 2406   4.574   6.749   4.964  2.0038 -6.0977  0.2169
  759MOL0     H 2407   4.416   6.746   4.883  0.2702  0.0156 -0.2939
  759MOL0     H 2408   4.509   6.611   4.706  1.0967  1.5326 -0.7077
  759MOL0     H 2409   4.670   6.623   4.758  0.7893 -1.3993  0.2975
  759MOL0     H 2410   4.622   6.516   4.974  0.3681  0.6480  0.8017
  759MOL0     H 2411   4.453   6.470   4.914  0.8982 -0.9759  0.1235
  759MOL0     H 2412   4.571   6.361   4.723 -1.2412 -1.1612  1.4757
  759MOL0     H 2413   4.729   6.423   4.784 -1.0649  2.8196  0.7463
  759MOL0     H 2414   4.709   6.288   4.981 -0.2872 -1.0518 -0.1315
  759MOL0     H 2415   4.701   6.182   4.852 -0.4405  0.1295  0.7332
  759MOL0     H 2416   4.432   6.123   4.758 -0.3021 -0.0813 -0.5899
  759MOL0     H 2417   4.258   5.981   4.766  1.0302  0.0463 -0.3604
  759MOL0     H 2418   4.214   5.911   4.917  0.0472  0.5275  0.5222
  759MOL0     H 2419   4.115   6.181   4.815  2.1375 -0.8830 -1.3608
  759MOL0     H 2420   4.067   6.114   4.967  3.5719  2.8604  0.5757
  759MOL0     H 2421   4.041   5.931   4.713  0.4385  1.8249 -1.3174
  759MOL0     H 2422   3.934   6.066   4.714  3.2515  0.2222 -3.1071
  759MOL0     H 2423   3.939   5.895   4.954 -1.6900  4.5764  2.2021
  759MOL0     H 2424   3.859   5.837   4.786 -0.9038 -0.2290  0.4423
  759MOL0     H 2425   3.516   6.008   4.842 -0.2302 -0.3677 -0.1020
  759MOL0     H 2426   3.294   5.944   4.795  0.8435 -1.3582 -0.9805
  759MOL0     H 2427   3.244   5.789   4.863 -0.6942  0.6681 -0.9229
  759MOL0     H 2428   3.228   5.949   4.958 -0.2443 -1.6331  0.7376
  759MOL0     H 2429   3.277   5.564   5.358 -0.0989  1.0810 -0.1787
  759MOL0     H 2430   3.137   5.411   5.483  1.1593  0.0021  0.2896
  759MOL0     H 2431   2.915   5.070   5.267 -0.2089  0.4585 -0.3257
  759MOL0     H 2432   3.061   4.987   5.334 -2.6033 -4.8822 -0.4336
  759MOL0     H 2433   2.851   5.069   5.529  0.3174  1.9260 -3.0973
  759MOL0     H 2434   2.838   4.922   5.430 -0.5547  0.4503  0.0776
  759MOL0     H 2435   3.059   4.996   5.623 -2.0936  2.1850 -0.2378
  759MOL0     H 2436   3.065   4.857   5.511  0.8418  0.5424 -0.1330
  759MOL0     H 2437   2.916   4.917   5.761 -1.2692  0.5437 -0.9239
  759MOL0     H 2438   2.822   4.819   5.641 -0.0425 -2.2616 -0.8059
  759MOL0     H 2439   3.111   4.766   5.751  1.4939 -0.8657 -2.6769
  759MOL0     H 2440   3.040   4.678   5.622 -0.5724  2.6168 -1.3594
  759MOL0     H 2441   2.910   4.697   5.905  1.8638  1.8950 -1.5431
  759MOL0     H 2442   2.872   4.569   5.789  0.4089  0.5645 -3.2088
  759MOL0     H 2443   3.153   4.587   5.915  1.9800 -2.3663  1.2624
  759MOL0     H 2444   3.095   4.459   5.810  1.7845  1.4099  0.3640
  759MOL0     H 2445   2.989   4.548   6.089  0.6183 -1.7377  0.8448
  759MOL0     H 2446   3.068   4.395   6.044  2.3123 -0.3122 -3.2779
  759MOL0     H 2447   3.119   5.141   5.147 -1.3858 -0.2804  0.3179
  759MOL0     H 2448   3.272   5.287   5.030  4.0567  0.4017  0.9627
  759MOL0     H 2449   3.622   5.614   5.109  2.1308  1.4582  0.6607
  759MOL0     H 2450   3.789   5.753   5.040  0.3974  0.8631  0.2501
  759MOL0     H 2451   4.146   7.208   4.669  0.2438  2.2043  1.0204
  759MOL0     H 2452   3.931   7.305   4.724  1.9316  0.9874  0.2437
  759MOL0     H 2453   3.466   7.033   5.054  0.3498  1.2605  1.9651
  759MOL0     H 2454   3.256   7.065   4.943  2.6878 -3.4529 -1.3248
  759MOL0     H 2455   3.089   7.120   4.749 -0.8237 -0.2349 -1.0246
  759MOL0     H 2456   3.043   7.167   4.918 -0.5123 -1.2166 -0.2739
  759MOL0     H 2457   2.874   7.195   4.721 -3.1065  0.9869  1.9973
  759MOL0     H 2458   2.977   7.335   4.670 -3.8349 -0.3209 -1.7762
  759MOL0     H 2459   2.939   7.419   4.903 -0.0804  1.4593 -1.5134
  759MOL0     H 2460   2.801   7.309   4.915 -1.7264  0.7467 -0.4588
  759MOL0     H 2461   2.694   7.409   4.716 -1.0499  2.8606 -0.6573
  759MOL0     H 2462   2.837   7.492   4.670 -1.3075  2.6686 -0.2464
  759MOL0     H 2463   2.636   7.756   4.914 -0.8745 -0.9302  0.7811
  759MOL0     H 2464   3.367   7.449   4.798  0.1192  1.0937  2.6814
  759MOL0     H 2465   3.604   7.405   4.887  0.1365  0.2295  0.7788
  760MOL0     O 2466   5.810   9.924  10.973 -0.3829 -0.1514  0.0957
  760MOL0     C 2467   5.885   9.953  11.063  0.3056 -0.0738  0.2196
  760MOL0     O 2468   5.856   9.944  11.189 -0.1587  0.1333  0.3814
  760MOL0     C 2469   5.749   9.874  11.235  0.2036  0.5449 -0.8042
  760MOL0     C 2470   5.691   9.763  11.175 -1.0018  0.6591 -0.5601
  760MOL0     C 2471   5.570   9.703  11.219  0.4070  0.2313 -0.8243
  760MOL0     C 2472   5.519   9.737  11.343  0.2752 -0.5225  0.5739
  760MOL0     O 2473   5.421   9.665  11.392 -0.2870  0.0200  0.6778
  760MOL0     C 2474   5.388   9.681  11.530 -0.3877  0.6927  0.7744
  760MOL0     C 2475   5.505   9.627  11.615  1.0163 -0.0152  0.1562
  760MOL0     C 2476   5.442   9.560  11.726  0.0605  0.2209 -0.5571
  760MOL0     C 2477   5.515   9.560  11.859 -0.5796 -0.1706  0.8998
  760MOL0     C 2478   5.435   9.476  11.964  0.1690 -0.1460 -0.4966
  760MOL0     C 2479   5.459   9.325  11.964  0.5810 -0.1927 -0.0200
  760MOL0     C 2480   5.377   9.269  12.081 -0.4103 -0.6548  0.1786
  760MOL0     C 2481   5.293   9.152  12.039 -1.3425 -0.5871  0.7096
  760MOL0     N 2482   5.216   9.087  12.148 -1.6871  0.2158  1.3008
  760MOL0     C 2483   5.110   9.138  12.223  0.5420  0.2871  0.4803
  760MOL0     C 2484   5.097   9.041  12.316 -0.4669 -0.8555 -0.3321
  760MOL0     C 2485   4.982   9.032  12.412  0.7525  0.9454  0.6150
  760MOL0     C 2486   5.024   9.009  12.555  0.2466  0.7414  0.5574
  760MOL0     C 2487   4.908   8.993  12.660  0.1152  0.0356  0.8747
  760MOL0     C 2488   4.798   8.893  12.624 -0.1128  0.7179 -0.0716
  760MOL0     O 2489   4.676   8.945  12.680 -0.6750 -0.1234 -0.5371
  760MOL0     C 2490   4.552   8.896  12.639 -0.5723 -0.6318  0.3489
  760MOL0     C 2491   4.530   8.774  12.570 -0.3411 -0.3778 -1.1589
  760MOL0     C 2492   4.394   8.728  12.551 -0.4520 -0.3672  0.0168
  760MOL0     C 2493   4.381   8.597  12.460  0.4698 -1.0039 -0.5350
  760MOL0     C 2494   4.283   8.816  12.599 -1.0985  0.2878  0.5730
  760MOL0     C 2495   4.148   8.782  12.571 -0.4981  0.5431  0.0436
  760MOL0     O 2496   4.054   8.818  12.666 -0.5857  0.6330 -0.3958
  760MOL0     C 2497   3.930   8.803  12.625 -0.6729 -0.2287  0.6460
  760MOL0     C 2498   3.869   8.682  12.616 -0.2178  0.7552  1.0482
  760MOL0     C 2499   3.737   8.673  12.564  0.4164  0.3030  0.2163
  760MOL0     C 2500   3.677   8.794  12.504  1.2978  0.1440 -0.5003
  760MOL0     O 2501   3.554   8.798  12.441 -0.3824 -0.2412 -1.0595
  760MOL0     C 2502   3.493   8.672  12.413 -0.9200  0.0072  0.5082
  760MOL0     C 2503   3.357   8.686  12.358  0.3196 -0.0482 -0.1149
  760MOL0     C 2504   3.289   8.547  12.330 -0.9866 -0.3251  0.4475
  760MOL0     C 2505   3.195   8.561  12.205  0.1278  0.0927  0.3926
  760MOL0     C 2506   3.132   8.432  12.154 -0.0247  0.5046 -0.1627
  760MOL0     C 2507   3.027   8.460  12.046 -0.2973 -0.2603 -0.5657
  760MOL0     C 2508   2.969   8.327  11.996 -0.2009 -0.2312  0.6023
  760MOL0     C 2509   2.852   8.367  11.899 -0.5725  0.0438 -0.4073
  760MOL0    Cl 2510   2.809   8.239  11.778  0.0705 -0.5692  0.1858
  760MOL0     C 2511   3.742   8.914  12.523 -0.1071  0.3100 -0.3060
  760MOL0     C 2512   3.870   8.918  12.582  0.3487 -0.1698  0.2655
  760MOL0     O 2513   4.121   8.723  12.468 -0.2766 -0.4771  0.7974
  760MOL0     C 2514   4.327   8.930  12.670  0.9202  0.0040  0.1457
  760MOL0     C 2515   4.456   8.971  12.685 -0.3613 -0.0861  0.4801
  760MOL0     N 2516   5.200   8.945  12.291 -0.8557 -0.1742 -0.7714
  760MOL0     N 2517   5.269   8.974  12.191  0.9544  0.4490 -0.5032
  760MOL0     C 2518   5.576   9.849  11.405 -0.9484 -0.4151  0.1187
  760MOL0     C 2519   5.683   9.923  11.348  0.1488  0.3175  0.3066
  760MOL0     C 2520   6.016   9.992  11.021  0.2608  1.0007  0.5782
  760MOL0     C 2521   6.115  10.008  11.118 -0.1751  0.1168 -0.6349
  760MOL0     C 2522   6.246  10.034  11.083 -0.7438  0.9807  0.4942
  760MOL0     C 2523   6.282  10.056  10.958 -0.4252  0.1714  1.5214
  760MOL0     O 2524   6.410  10.094  10.923  0.4573  0.5018 -0.7893
  760MOL0     C 2525   6.461  10.090  10.786  0.3516  0.5611  0.0012
  760MOL0     C 2526   6.605  10.123  10.789 -0.2314 -0.8376  0.0060
  760MOL0     C 2527   6.670  10.093  10.654  0.9707 -0.1616  0.4057
  760MOL0     C 2528   6.674  10.221  10.563  0.4643  0.1483  0.3742
  760MOL0     C 2529   6.777  10.317  10.604 -0.5593 -0.2202 -0.7311
  760MOL0     C 2530   6.854  10.404  10.643 -0.4573  0.2321 -0.0640
  760MOL0     C 2531   6.188  10.027  10.856  0.3104  0.7135  0.1215
  760MOL0     C 2532   6.051  10.002  10.882  0.4469  0.8199  0.8237
  760MOL0     H 2533   5.739   9.724  11.085  0.1328  1.4051 -0.3000
  760MOL0     H 2534   5.519   9.621  11.168 -1.0049  1.9650 -2.3224
  760MOL0     H 2535   5.366   9.787  11.549 -1.1964  0.8428 -0.8249
  760MOL0     H 2536   5.291   9.634  11.547 -0.0222 -0.2538  0.3376
  760MOL0     H 2537   5.572   9.558  11.562 -1.0551 -2.5201  0.5741
  760MOL0     H 2538   5.573   9.709  11.641 -0.5075  0.5177  2.8511
  760MOL0     H 2539   5.346   9.608  11.749 -0.4915  0.0913 -2.4446
  760MOL0     H 2540   5.432   9.454  11.698  0.5479  0.5086 -1.8709
  760MOL0     H 2541   5.616   9.520  11.848 -0.7757 -0.2318 -1.0499
  760MOL0     H 2542   5.526   9.658  11.905 -1.0302 -0.4530  1.6279
  760MOL0     H 2543   5.457   9.515  12.064 -0.1246  0.3729 -0.6313
  760MOL0     H 2544   5.330   9.496  11.941  0.7213  0.5264 -2.5854
  760MOL0     H 2545   5.419   9.296  11.866  1.3954  0.3761 -0.5393
  760MOL0     H 2546   5.560   9.287  11.979 -0.7206 -2.9132  2.9451
  760MOL0     H 2547   5.437   9.245  12.169 -0.4774 -0.2041  0.3492
  760MOL0     H 2548   5.311   9.350  12.115  1.5471  1.3459 -0.5547
  760MOL0     H 2549   5.369   9.081  12.005  0.3142  0.4829  2.0359
  760MOL0     H 2550   5.227   9.169  11.953 -2.2350 -1.9007  1.0969
  760MOL0     H 2551   5.038   9.219  12.208 -3.5228 -3.2307 -1.2009
  760MOL0     H 2552   4.926   9.125  12.404  1.1814  1.3006  1.5846
  760MOL0     H 2553   4.916   8.951  12.379  0.6950  0.5969  1.5518
  760MOL0     H 2554   5.084   9.096  12.583 -0.6571  1.3715  0.5687
  760MOL0     H 2555   5.095   8.928  12.574 -0.6955  0.4916  3.4302
  760MOL0     H 2556   4.856   9.089  12.659  0.0216 -0.0017 -0.6794
  760MOL0     H 2557   4.947   8.970  12.760 -0.5884 -1.3502  0.8514
  760MOL0     H 2558   4.821   8.789  12.649  3.1750  0.7953 -2.1143
  760MOL0     H 2559   4.780   8.902  12.517  2.5635 -1.5468 -0.8315
  760MOL0     H 2560   4.613   8.710  12.541  2.2180  0.4724  3.3951
  760MOL0     H 2561   4.480   8.570  12.422 -0.1959 -1.0177 -2.3623
  760MOL0     H 2562   4.319   8.526  12.516 -1.0733  1.2378  0.7147
  760MOL0     H 2563   4.319   8.617  12.372  2.7003  3.5548 -1.3567
  760MOL0     H 2564   3.909   8.592  12.660  0.6839  1.8710  2.6296
  760MOL0     H 2565   3.681   8.581  12.562 -1.5911  1.3361  3.0308
  760MOL0     H 2566   3.555   8.618  12.340 -2.4086 -1.0618 -0.0123
  760MOL0     H 2567   3.480   8.612  12.504  1.9411  1.3600  1.9539
  760MOL0     H 2568   3.287   8.733  12.428  0.7973  0.8834 -0.2585
  760MOL0     H 2569   3.362   8.747  12.268  1.6719 -0.6896 -0.4948
  760MOL0     H 2570   3.229   8.524  12.419 -0.6986 -1.4440  0.3640
  760MOL0     H 2571   3.361   8.468  12.306  1.0485  1.1554  1.2874
  760MOL0     H 2572   3.115   8.627  12.240  0.5777  1.0735 -0.3564
  760MOL0     H 2573   3.252   8.599  12.119  0.7497 -0.0070  0.7510
  760MOL0     H 2574   3.085   8.382  12.238  0.7615 -1.9221 -1.0910
  760MOL0     H 2575   3.211   8.365  12.120  1.7642  2.8641 -0.9494
  760MOL0     H 2576   2.948   8.518  12.094 -0.1508 -0.5252  0.0001
  760MOL0     H 2577   3.069   8.520  11.964 -0.8540  0.7483 -0.1363
  760MOL0     H 2578   2.927   8.265  12.075  1.9391 -2.7279 -0.0714
  760MOL0     H 2579   3.042   8.266  11.942 -0.4600 -0.5077  0.5636
  760MOL0     H 2580   2.882   8.464  11.858  0.8205  1.5231  3.5149
  760MOL0     H 2581   2.761   8.387  11.956 -1.4822  0.4323 -1.9497
  760MOL0     H 2582   3.703   9.008  12.484  3.8205  3.2071  2.0371
  760MOL0     H 2583   3.907   9.018  12.601  2.0861 -0.2885 -2.1004
  760MOL0     H 2584   4.252   9.006  12.688 -1.8676 -1.5567 -3.5529
  760MOL0     H 2585   4.494   9.062  12.730  3.8319 -0.2957 -2.1229
  760MOL0     H 2586   5.557   9.873  11.509  0.4312 -1.8970  0.7587
  760MOL0     H 2587   5.725  10.014  11.390 -0.8772  1.6926 -1.5052
  760MOL0     H 2588   6.100  10.009  11.225  2.6673 -0.4835 -0.1570
  760MOL0     H 2589   6.323  10.047  11.158 -0.5551  0.4839  0.3930
  760MOL0     H 2590   6.434   9.990  10.751 -1.9797  1.5309 -1.2063
  760MOL0     H 2591   6.410  10.164  10.722 -0.4954 -0.0484 -0.0414
  760MOL0     H 2592   6.667  10.082  10.869  2.4520  1.2153 -0.8700
  760MOL0     H 2593   6.612  10.232  10.793  0.5439 -0.7666 -2.2931
  760MOL0     H 2594   6.613  10.010  10.612  0.0266 -0.9078  2.9471
  760MOL0     H 2595   6.771  10.054  10.671  1.5100  1.6310  1.6217
  760MOL0     H 2596   6.577  10.272  10.555  1.7213  2.4251 -1.4903
  760MOL0     H 2597   6.707  10.192  10.463 -2.4184 -1.1094 -0.3082
  760MOL0     H 2598   6.913  10.490  10.669  1.1129 -0.2990 -1.7080
  760MOL0     H 2599   6.218  10.036  10.752  0.4306 -0.9124 -0.0063
  760MOL0     H 2600   5.981   9.991  10.800  0.3244  0.9687  0.9087
  761MOL0     O 2601   9.354   9.326   6.340 -0.5464 -0.3761  0.2452
  761MOL0     C 2602   9.343   9.451   6.366  0.7068  0.0207  0.5348
  761MOL0     O 2603   9.238   9.532   6.347  0.1806  0.8750  0.5495
  761MOL0     C 2604   9.150   9.513   6.245  0.5603  0.6297  0.1949
  761MOL0     C 2605   9.173   9.439   6.129 -0.1896 -0.4325  0.6706
  761MOL0     C 2606   9.076   9.416   6.024 -0.6263 -0.3616  0.3189
  761MOL0     C 2607   8.951   9.472   6.032  0.0295 -1.3187  0.2982
  761MOL0     O 2608   8.858   9.454   5.927 -0.2787 -0.3027  0.1388
  761MOL0     C 2609   8.795   9.579   5.883 -0.0569 -0.2099  0.2298
  761MOL0     C 2610   8.685   9.551   5.789 -0.6910 -0.2074 -0.0758
  761MOL0     C 2611   8.605   9.680   5.767  0.1630  0.7344 -0.2092
  761MOL0     C 2612   8.513   9.664   5.643  0.3583  0.0798  0.1650
  761MOL0     C 2613   8.369   9.702   5.679  0.1908  0.0144  1.2953
  761MOL0     C 2614   8.357   9.863   5.655 -0.0745  0.5639 -0.4750
  761MOL0     C 2615   8.331   9.908   5.510 -1.0951  0.0627 -0.1454
  761MOL0     C 2616   8.350  10.059   5.502  0.6385  0.3224 -0.0052
  761MOL0     N 2617   8.224  10.130   5.535 -0.0356 -0.3662  0.6076
  761MOL0     C 2618   8.134  10.173   5.437  0.3887 -0.0688 -0.8459
  761MOL0     C 2619   8.031  10.237   5.504 -0.4821 -0.0248 -0.7153
  761MOL0     C 2620   7.904  10.294   5.445  0.0608 -0.0945 -0.1182
  761MOL0     C 2621   7.779  10.206   5.488 -0.0573 -0.7309  0.0368
  761MOL0     C 2622   7.644  10.264   5.448 -0.3070  0.4229  0.2624
  761MOL0     C 2623   7.609  10.394   5.514  0.3830  0.1027 -0.4470
  761MOL0     O 2624   7.589  10.364   5.663  0.5468  0.7375  0.4484
  761MOL0     C 2625   7.527  10.460   5.745  0.1185 -1.0997  0.0227
  761MOL0     C 2626   7.498  10.425   5.873 -0.0302  0.1514  0.0344
  761MOL0     C 2627   7.428  10.504   5.966 -0.7764  0.0346 -0.4122
  761MOL0     C 2628   7.419  10.449   6.104 -0.8689 -0.4634 -0.7604
  761MOL0     C 2629   7.361  10.617   5.910  0.2414  0.0421  0.2355
  761MOL0     C 2630   7.250  10.690   5.987  0.1543  0.1620 -0.6799
  761MOL0     O 2631   7.180  10.784   5.908  0.1459 -0.2883 -0.1570
  761MOL0     C 2632   7.108  10.892   5.954 -0.2103  0.1634  0.2331
  761MOL0     C 2633   7.142  10.968   6.062 -0.1653 -0.6075  0.3310
  761MOL0     C 2634   7.078  11.086   6.101 -0.7644  0.0355  0.2387
  761MOL0     C 2635   6.977  11.140   6.016 -0.6119  0.9397 -0.0669
  761MOL0     O 2636   6.893  11.249   6.045  0.1118 -0.2856  0.1251
  761MOL0     C 2637   6.894  11.302   6.180 -0.3174 -0.5009 -0.0872
  761MOL0     C 2638   6.973  11.440   6.198 -0.0732 -0.2789 -0.3694
  761MOL0     C 2639   6.969  11.499   6.344  0.0587  0.4145 -0.2613
  761MOL0     C 2640   7.053  11.627   6.354 -1.0365 -0.4031  0.2569
  761MOL0     C 2641   7.086  11.656   6.498 -0.3514 -0.4653 -0.9672
  761MOL0     C 2642   7.110  11.807   6.519 -0.4825 -1.2137  0.7107
  761MOL0     C 2643   7.130  11.828   6.664  0.5822 -0.1871 -0.7593
  761MOL0     C 2644   7.127  11.976   6.703 -0.0051  0.2993 -0.4599
  761MOL0    Cl 2645   6.969  12.053   6.653  0.2867 -0.5167  0.6902
  761MOL0     C 2646   6.949  11.065   5.897  0.0576  0.7913 -0.4663
  761MOL0     C 2647   7.004  10.936   5.872  0.6155 -0.2377  0.1905
  761MOL0     O 2648   7.232  10.673   6.105 -0.1604 -0.0315 -0.6144
  761MOL0     C 2649   7.387  10.648   5.775 -0.6927 -0.1758  0.4202
  761MOL0     C 2650   7.474  10.576   5.694  0.9503 -0.8353 -0.4772
  761MOL0     N 2651   8.056  10.216   5.639  0.3933  0.1427 -0.1691
  761MOL0     N 2652   8.169  10.153   5.654 -0.0701  0.3523  0.1932
  761MOL0     C 2653   8.924   9.545   6.151  0.3430 -0.0213  0.1658
  761MOL0     C 2654   9.027   9.572   6.245 -0.5074  0.0539 -0.4987
  761MOL0     C 2655   9.464   9.520   6.418  0.1410  0.2308  0.6113
  761MOL0     C 2656   9.464   9.660   6.441 -0.9115 -0.4036  0.8847
  761MOL0     C 2657   9.580   9.722   6.487  0.2244 -0.1734  0.5897
  761MOL0     C 2658   9.703   9.647   6.505 -0.5400 -0.5977  0.6918
  761MOL0     O 2659   9.802   9.718   6.561 -0.2720 -0.5968 -0.6881
  761MOL0     C 2660   9.927   9.649   6.603 -0.2236 -0.2018  0.7076
  761MOL0     C 2661   9.919   9.606   6.741 -0.9541  0.0943 -0.2519
  761MOL0     C 2662  10.045   9.544   6.796  0.4265  0.6808 -0.5317
  761MOL0     C 2663  10.023   9.500   6.945 -0.0403  0.4761  0.1155
  761MOL0     C 2664   9.928   9.385   6.951 -0.5610  0.3117 -1.6886
  761MOL0     C 2665   9.855   9.288   6.959  0.4407  0.6676  0.0741
  761MOL0     C 2666   9.698   9.510   6.485  0.5449 -0.9550  0.7593
  761MOL0     C 2667   9.582   9.446   6.438  0.0810 -0.2286 -1.2069
  761MOL0     H 2668   9.271   9.393   6.117  2.3588  3.0977  5.1018
  761MOL0     H 2669   9.118   9.364   5.938  3.1127  0.5707  1.3541
  761MOL0     H 2670   8.770   9.635   5.974  4.8177 -1.3425  2.6398
  761MOL0     H 2671   8.870   9.640   5.831  0.3256  1.5226  2.6401
  761MOL0     H 2672   8.734   9.526   5.694  3.0481 -0.1896  1.6910
  761MOL0     H 2673   8.624   9.465   5.818  1.3932 -2.0993 -0.9987
  761MOL0     H 2674   8.548   9.700   5.858  0.1619 -1.0994  0.2339
  761MOL0     H 2675   8.668   9.766   5.743 -1.7195  1.3563 -3.5591
  761MOL0     H 2676   8.549   9.719   5.555  0.9087 -4.1957 -2.6145
  761MOL0     H 2677   8.524   9.565   5.597  0.8772  0.8659 -1.5015
  761MOL0     H 2678   8.310   9.655   5.601  1.2524  1.1799 -0.2648
  761MOL0     H 2679   8.346   9.669   5.781  1.5856  0.6939  1.8662
  761MOL0     H 2680   8.274   9.903   5.714  0.9880  1.7919  0.2130
  761MOL0     H 2681   8.439   9.912   5.708 -0.3340  0.9071 -0.3914
  761MOL0     H 2682   8.405   9.866   5.441 -0.7120  0.4254  0.0439
  761MOL0     H 2683   8.229   9.879   5.484 -1.7724  2.1666 -0.0385
  761MOL0     H 2684   8.368  10.106   5.405  0.9421 -0.4091 -0.3147
  761MOL0     H 2685   8.421  10.095   5.577 -0.8521  2.1140  0.6186
  761MOL0     H 2686   8.143  10.158   5.330 -2.5142 -4.6203 -0.7297
  761MOL0     H 2687   7.907  10.396   5.486  2.8789 -0.4859  0.9381
  761MOL0     H 2688   7.912  10.305   5.337  2.6544 -2.0442 -0.2267
  761MOL0     H 2689   7.782  10.176   5.593 -1.2634  0.3864  0.4177
  761MOL0     H 2690   7.784  10.110   5.436  0.7218 -0.7109  0.0719
  761MOL0     H 2691   7.566  10.190   5.470 -1.1903  1.1745 -0.2474
  761MOL0     H 2692   7.650  10.276   5.339  1.7862 -3.4471 -0.2332
  761MOL0     H 2693   7.518  10.439   5.474 -1.2023  2.7939  5.1967
  761MOL0     H 2694   7.685  10.470   5.494  0.8720 -0.3515 -0.3242
  761MOL0     H 2695   7.545  10.333   5.907  0.0557  0.7197  1.5230
  761MOL0     H 2696   7.406  10.526   6.181  0.7967  1.1629 -1.9888
  761MOL0     H 2697   7.336  10.379   6.111  0.7416 -2.3424  0.7550
  761MOL0     H 2698   7.509  10.392   6.129  0.1907  1.2397 -0.4533
  761MOL0     H 2699   7.218  10.925   6.127 -1.0359 -0.1966  1.6462
  761MOL0     H 2700   7.100  11.124   6.200 -1.6114 -0.6830  0.7101
  761MOL0     H 2701   6.790  11.311   6.210  0.0540 -1.1965  1.5155
  761MOL0     H 2702   6.946  11.237   6.251  1.6672  1.7844  0.7137
  761MOL0     H 2703   7.072  11.404   6.169  0.5533  0.1383  1.1402
  761MOL0     H 2704   6.928  11.520   6.137 -0.7977 -0.3968 -0.0045
  761MOL0     H 2705   7.000  11.415   6.407  2.3083 -0.9276 -2.9155
  761MOL0     H 2706   6.872  11.538   6.373  0.8714  2.1957  0.1636
  761MOL0     H 2707   7.149  11.627   6.301 -0.4198  1.3646  1.2783
  761MOL0     H 2708   6.993  11.709   6.313  0.4003 -1.0475 -3.5155
  761MOL0     H 2709   7.175  11.600   6.530  1.1438  1.4206 -1.6721
  761MOL0     H 2710   6.991  11.626   6.543 -0.0086 -0.1317  0.0105
  761MOL0     H 2711   7.202  11.836   6.466 -1.4188 -1.8445 -1.3782
  761MOL0     H 2712   7.031  11.876   6.489  2.0909  1.2785 -0.9370
  761MOL0     H 2713   7.227  11.791   6.697  0.7774  0.3689 -0.6926
  761MOL0     H 2714   7.049  11.776   6.716 -1.6072  0.7712 -3.0080
  761MOL0     H 2715   7.213  12.023   6.654 -2.0998  1.5449 -3.2171
  761MOL0     H 2716   7.125  11.989   6.812 -1.0342  1.0028 -0.5472
  761MOL0     H 2717   6.873  11.097   5.827 -0.8955  1.2039  0.7291
  761MOL0     H 2718   6.964  10.873   5.793 -0.4285  0.0752  0.4468
  761MOL0     H 2719   7.338  10.732   5.727 -1.1043 -1.3174 -1.2403
  761MOL0     H 2720   7.479  10.600   5.589 -0.3323  3.6270  0.2429
  761MOL0     H 2721   8.824   9.583   6.169  1.0393  3.2666 -1.9486
  761MOL0     H 2722   9.007   9.641   6.326  2.6797  1.2251 -0.5517
  761MOL0     H 2723   9.378   9.720   6.414 -0.5549 -0.8396 -1.3819
  761MOL0     H 2724   9.595   9.828   6.506  1.3924 -0.1586 -0.2957
  761MOL0     H 2725   9.945   9.563   6.538 -1.4978 -0.3936  0.5801
  761MOL0     H 2726  10.017   9.711   6.590 -0.7899  0.9525  2.0110
  761MOL0     H 2727   9.848   9.523   6.746  1.6791 -2.3031 -0.1350
  761MOL0     H 2728   9.904   9.692   6.807  2.6844 -1.0872  2.4614
  761MOL0     H 2729  10.124   9.617   6.776  2.5596 -1.2855  0.2170
  761MOL0     H 2730  10.071   9.458   6.733  0.9700 -0.5721  1.3141
  761MOL0     H 2731   9.984   9.580   7.009 -0.3583  0.2091  0.2620
  761MOL0     H 2732  10.118   9.464   6.987  1.2754 -1.2398 -3.8481
  761MOL0     H 2733   9.794   9.201   6.970  1.0100  0.1001 -1.1389
  761MOL0     H 2734   9.786   9.449   6.499  0.8724 -0.5608  0.4195
  761MOL0     H 2735   9.571   9.338   6.438 -2.0063 -0.0645 -0.3940
  762MOL0     O 2736   0.818   0.536  10.144 -0.3112  0.6483  0.4754
  762MOL0     C 2737   0.900   0.548  10.234 -0.1999  0.7008 -0.2853
  762MOL0     O 2738   0.922   0.455  10.341 -0.3402  0.2303  0.9054
  762MOL0     C 2739   0.862   0.327  10.336 -0.0336  0.2551  0.0184
  762MOL0     C 2740   0.830   0.253  10.212  0.0026 -1.0636 -0.5067
  762MOL0     C 2741   0.785   0.130  10.220  0.4257  0.4913 -0.7834
  762MOL0     C 2742   0.755   0.057  10.340 -0.7068  0.2904 -0.0185
  762MOL0     O 2743   0.688  -0.065  10.330 -0.6349 -0.0645  0.1536
  762MOL0     C 2744   0.606  -0.103  10.445  0.2356  0.4167  0.5184
  762MOL0     C 2745   0.489  -0.201  10.389  0.9268  0.2160  0.0690
  762MOL0     C 2746   0.387  -0.236  10.502 -0.3460  0.5089 -0.2753
  762MOL0     C 2747   0.454  -0.309  10.625 -0.6779  0.0644 -0.4150
  762MOL0     C 2748   0.359  -0.342  10.729 -0.3487 -0.4246 -0.0869
  762MOL0     C 2749   0.419  -0.437  10.833  0.3246  0.0204  0.2122
  762MOL0     C 2750   0.317  -0.447  10.953  0.1772 -0.1184  1.4158
  762MOL0     C 2751   0.405  -0.458  11.077  0.1392 -0.3921  0.6302
  762MOL0     N 2752   0.351  -0.547  11.185  0.0837  0.2334 -0.9275
  762MOL0     C 2753   0.394  -0.674  11.211  0.0792 -0.8584 -1.0785
  762MOL0     C 2754   0.339  -0.698  11.334 -0.9082 -0.8595 -0.4982
  762MOL0     C 2755   0.344  -0.829  11.395 -0.0517  0.5945  0.8134
  762MOL0     C 2756   0.240  -0.839  11.505  0.8227 -0.1088 -0.8545
  762MOL0     C 2757   0.096  -0.846  11.447 -0.2198 -0.3786  0.3588
  762MOL0     C 2758  -0.017  -0.795  11.545 -0.6478  0.7503  0.6033
  762MOL0     O 2759  -0.068  -0.890  11.637 -0.3887  0.2098  0.1919
  762MOL0     C 2760  -0.196  -0.931  11.620  0.6862  0.5224  0.7338
  762MOL0     C 2761  -0.265  -0.990  11.726 -0.1782 -0.0163 -0.3499
  762MOL0     C 2762  -0.388  -1.042  11.723  0.1843  0.3871  0.8746
  762MOL0     C 2763  -0.428  -1.099  11.859  0.2072 -0.4402 -0.1711
  762MOL0     C 2764  -0.463  -1.059  11.605 -0.3274 -0.2987  0.4743
  762MOL0     C 2765  -0.579  -1.137  11.590 -0.0969  0.7211 -0.0746
  762MOL0     O 2766  -0.633  -1.195  11.696 -0.5826  0.7087  0.1229
  762MOL0     C 2767  -0.757  -1.268  11.703 -0.5831 -0.1800 -0.2846
  762MOL0     C 2768  -0.858  -1.266  11.601  0.5082  1.1209 -0.9765
  762MOL0     C 2769  -0.977  -1.345  11.625  0.4493 -0.5860 -0.8189
  762MOL0     C 2770  -0.999  -1.411  11.750 -0.0330 -0.4688  0.5073
  762MOL0     O 2771  -1.121  -1.481  11.754  0.0301 -0.5518  0.6825
  762MOL0     C 2772  -1.146  -1.544  11.881  0.6397  0.1491 -0.6939
  762MOL0     C 2773  -1.071  -1.676  11.893  0.6013 -0.2694  1.1399
  762MOL0     C 2774  -1.067  -1.712  12.047 -0.6636 -0.0584  0.0500
  762MOL0     C 2775  -0.981  -1.842  12.068 -1.0714  0.1736  0.7253
  762MOL0     C 2776  -0.958  -1.895  12.208 -0.1075  0.0184  0.1771
  762MOL0     C 2777  -0.843  -1.996  12.232  0.7480  0.4246 -0.5843
  762MOL0     C 2778  -0.857  -2.057  12.373  0.0124  0.5280  0.3521
  762MOL0     C 2779  -0.833  -1.954  12.483  0.0258 -0.3200 -0.1638
  762MOL0    Cl 2780  -0.778  -2.028  12.632 -0.2101 -0.0102 -0.6449
  762MOL0     C 2781  -0.901  -1.401  11.850  0.2299 -0.3964  0.3814
  762MOL0     C 2782  -0.784  -1.335  11.822 -0.9029  0.2066  0.1809
  762MOL0     O 2783  -0.626  -1.131  11.471  0.0344 -0.0511  0.1530
  762MOL0     C 2784  -0.404  -0.999  11.495 -0.4903  0.2858  0.4346
  762MOL0     C 2785  -0.273  -0.932  11.504  0.6919 -0.3937  0.1680
  762MOL0     N 2786   0.267  -0.588  11.376 -0.8755 -0.4037 -0.6208
  762MOL0     N 2787   0.268  -0.499  11.286 -1.2065  0.0667  0.4429
  762MOL0     C 2788   0.786   0.128  10.457  0.6321 -0.0760 -0.2413
  762MOL0     C 2789   0.835   0.262  10.450  0.0391  0.6957 -0.8779
  762MOL0     C 2790   0.980   0.669  10.245 -0.0349  0.4340 -0.7164
  762MOL0     C 2791   0.934   0.783  10.176  0.2697  0.2731  0.4792
  762MOL0     C 2792   1.009   0.895  10.184  0.2702 -0.4913  0.7810
  762MOL0     C 2793   1.134   0.899  10.258 -0.7100  1.3103 -0.1321
  762MOL0     O 2794   1.238   0.988  10.256 -0.0022 -0.3750 -0.3559
  762MOL0     C 2795   1.211   1.114  10.189  0.4747  0.0488  0.0401
  762MOL0     C 2796   1.116   1.204  10.277 -0.3457 -0.9712  0.0895
  762MOL0     C 2797   1.094   1.350  10.221 -0.0082  0.3905 -0.3202
  762MOL0     C 2798   1.044   1.353  10.080  0.7869  0.0505 -0.0234
  762MOL0     C 2799   1.073   1.476  10.013  0.7504  0.1363  0.9168
  762MOL0     C 2800   1.119   1.574   9.969 -0.1197  0.1487 -0.8277
  762MOL0     C 2801   1.171   0.780  10.336 -0.1516 -0.2680  0.6176
  762MOL0     C 2802   1.091   0.668  10.333 -0.1206  0.7172  0.4391
  762MOL0     H 2803   0.854   0.305  10.120  1.5658 -1.7865 -0.5339
  762MOL0     H 2804   0.768   0.083  10.123 -0.4186  3.4064 -2.1701
  762MOL0     H 2805   0.666  -0.156  10.519  1.3513  2.9802  1.5897
  762MOL0     H 2806   0.559  -0.015  10.491 -2.1913 -1.2231  1.3942
  762MOL0     H 2807   0.434  -0.146  10.312  0.9659  2.6884  1.6834
  762MOL0     H 2808   0.531  -0.296  10.354 -0.4214 -0.8134  1.0986
  762MOL0     H 2809   0.343  -0.143  10.539 -0.3406  0.3011  0.2691
  762MOL0     H 2810   0.303  -0.296  10.468  0.0034 -0.2022  0.0948
  762MOL0     H 2811   0.512  -0.397  10.598  0.6887  1.1288 -1.0838
  762MOL0     H 2812   0.531  -0.246  10.671 -0.2570  0.3990 -1.5339
  762MOL0     H 2813   0.331  -0.248  10.779 -2.4276 -0.9151 -0.2257
  762MOL0     H 2814   0.266  -0.388  10.694  0.6577 -2.6762  0.0510
  762MOL0     H 2815   0.438  -0.538  10.796  0.5262 -0.7672  2.3270
  762MOL0     H 2816   0.514  -0.391  10.862  0.1922  1.9898 -2.1192
  762MOL0     H 2817   0.249  -0.362  10.960  1.9117  1.7067 -1.6162
  762MOL0     H 2818   0.258  -0.539  10.946 -1.4958  0.9050  1.5510
  762MOL0     H 2819   0.407  -0.355  11.114 -1.4708 -0.7925  1.9399
  762MOL0     H 2820   0.504  -0.497  11.051 -0.5076 -1.6979  0.0200
  762MOL0     H 2821   0.453  -0.736  11.144  0.8122 -1.5555  0.1622
  762MOL0     H 2822   0.314  -0.904  11.321 -0.0255  1.5253 -0.1494
  762MOL0     H 2823   0.445  -0.856  11.426  0.3574 -1.4075 -1.9343
  762MOL0     H 2824   0.252  -0.754  11.574 -0.8889 -0.7260  0.2681
  762MOL0     H 2825   0.266  -0.926  11.566  3.1559  1.6550  0.9124
  762MOL0     H 2826   0.090  -0.954  11.433  3.2578 -0.7649  0.9172
  762MOL0     H 2827   0.082  -0.795  11.351  0.9788  0.6855  0.7262
  762MOL0     H 2828  -0.092  -0.751  11.479  1.1624 -0.1936 -2.2723
  762MOL0     H 2829   0.009  -0.709  11.607 -0.1535  2.0408 -1.3060
  762MOL0     H 2830  -0.199  -0.982  11.813 -0.5850 -0.9397  0.0542
  762MOL0     H 2831  -0.362  -1.087  11.946 -1.0709  0.6662  0.6778
  762MOL0     H 2832  -0.523  -1.050  11.880  1.2500  1.7871 -0.3100
  762MOL0     H 2833  -0.442  -1.207  11.851  2.4307 -1.3067  4.1942
  762MOL0     H 2834  -0.862  -1.221  11.502 -0.8075  4.7601  0.5305
  762MOL0     H 2835  -1.058  -1.349  11.553 -1.0236 -1.4297  0.8117
  762MOL0     H 2836  -1.137  -1.482  11.971  0.3456 -0.5344 -0.1752
  762MOL0     H 2837  -1.252  -1.571  11.890  0.4831  1.3600  4.3817
  762MOL0     H 2838  -1.132  -1.749  11.839  0.2933  1.2875 -0.7381
  762MOL0     H 2839  -0.973  -1.666  11.845 -0.0791  3.1141  0.1646
  762MOL0     H 2840  -1.166  -1.731  12.090 -0.1754  0.4135  1.4294
  762MOL0     H 2841  -1.026  -1.633  12.111  1.6997 -3.0282  2.5175
  762MOL0     H 2842  -1.023  -1.924  12.008 -0.9345  1.6976 -1.6031
  762MOL0     H 2843  -0.882  -1.827  12.023 -2.4390 -1.4232 -3.3551
  762MOL0     H 2844  -1.050  -1.954  12.212 -0.5050  0.4418 -1.7878
  762MOL0     H 2845  -0.948  -1.811  12.278  2.5466  0.9584 -1.1784
  762MOL0     H 2846  -0.849  -2.076  12.157 -0.3191 -1.1812  1.1325
  762MOL0     H 2847  -0.739  -1.963  12.218  2.1029 -2.0948  2.3355
  762MOL0     H 2848  -0.773  -2.124  12.394  1.1284  1.8591  0.2991
  762MOL0     H 2849  -0.954  -2.107  12.386 -1.7005  3.3505 -0.6739
  762MOL0     H 2850  -0.932  -1.912  12.504  0.6974  2.0105 -1.2758
  762MOL0     H 2851  -0.764  -1.872  12.461  0.7334 -1.1282 -1.0073
  762MOL0     H 2852  -0.899  -1.453  11.946  0.5507  0.7669  1.0179
  762MOL0     H 2853  -0.707  -1.329  11.899  2.3224  3.7835 -2.8741
  762MOL0     H 2854  -0.449  -0.992  11.396 -3.3705 -0.2296  1.6067
  762MOL0     H 2855  -0.236  -0.892  11.410  2.1360  0.1028  0.9242
  762MOL0     H 2856   0.773   0.084  10.556 -0.0450  2.2259  0.7760
  762MOL0     H 2857   0.854   0.318  10.541 -3.1229  2.7561 -1.3253
  762MOL0     H 2858   0.845   0.761  10.118  2.2389 -1.7755 -2.0313
  762MOL0     H 2859   0.986   0.989  10.135  1.2790 -0.2304  0.7913
  762MOL0     H 2860   1.307   1.162  10.167  1.4384 -2.4720 -1.8252
  762MOL0     H 2861   1.167   1.094  10.091 -1.3192  0.5912  0.6867
  762MOL0     H 2862   1.155   1.213  10.379 -0.7755  0.0466  0.1780
  762MOL0     H 2863   1.013   1.168  10.285 -1.2618  1.5811  0.8233
  762MOL0     H 2864   1.184   1.407  10.246 -0.8083  0.8860  1.6237
  762MOL0     H 2865   1.023   1.403  10.286 -0.7328  0.1561 -0.9120
  762MOL0     H 2866   0.936   1.336  10.081  0.2607  2.8842  1.8874
  762MOL0     H 2867   1.092   1.278  10.016 -1.6561 -1.1194 -0.6004
  762MOL0     H 2868   1.158   1.654   9.909 -1.0198  0.9179 -0.4277
  762MOL0     H 2869   1.259   0.762  10.397  2.0476 -0.8341 -2.4378
  762MOL0     H 2870   1.119   0.585  10.397 -3.0045  1.0706  2.3568
  763MOL0     O 2871   8.761   2.476  10.072 -0.5390  0.2105 -0.1613
  763MOL0     C 2872   8.751   2.602  10.078 -0.2270 -0.4404 -0.1854
  763MOL0     O 2873   8.640   2.673  10.114  0.0076 -0.5088 -0.2610
  763MOL0     C 2874   8.541   2.629  10.040  1.1675 -0.1926 -0.4374
  763MOL0     C 2875   8.538   2.627   9.895  0.2429  0.0612 -0.1977
  763MOL0     C 2876   8.424   2.599   9.816  1.1975 -0.3964 -1.1717
  763MOL0     C 2877   8.301   2.570   9.882 -0.0540 -0.4044  0.6175
  763MOL0     O 2878   8.176   2.561   9.817  0.5268  0.3095 -0.2548
  763MOL0     C 2879   8.180   2.573   9.669 -0.1446 -0.3387  0.6518
  763MOL0     C 2880   8.050   2.500   9.632 -0.0062 -0.2205  0.7553
  763MOL0     C 2881   8.005   2.538   9.484 -0.5496  0.4433 -1.0312
  763MOL0     C 2882   8.120   2.483   9.384  0.0988  0.4720  0.6957
  763MOL0     C 2883   8.076   2.515   9.241  0.5961 -0.0282 -0.8208
  763MOL0     C 2884   8.072   2.661   9.199 -1.4170  0.0793 -0.0445
  763MOL0     C 2885   8.059   2.678   9.043 -0.0789 -0.5193  0.7804
  763MOL0     C 2886   8.094   2.813   8.975  0.1905 -0.4788  0.2227
  763MOL0     N 2887   8.233   2.858   8.962 -0.6141  0.4324 -0.1055
  763MOL0     C 2888   8.316   2.905   9.061  0.5235 -0.0034 -0.3991
  763MOL0     C 2889   8.438   2.930   9.010  0.9310 -0.4123  0.0808
  763MOL0     C 2890   8.545   3.002   9.076 -0.3056  0.8459 -0.4414
  763MOL0     C 2891   8.678   3.011   8.999 -0.0072  0.5185 -0.1281
  763MOL0     C 2892   8.758   2.883   9.007  0.2638 -0.2490 -1.2971
  763MOL0     C 2893   8.855   2.875   8.884 -0.0148  0.0697  0.3668
  763MOL0     O 2894   8.923   2.745   8.877 -0.2497 -0.0184 -0.1213
  763MOL0     C 2895   9.006   2.714   8.974  0.3340 -0.0916  0.3806
  763MOL0     C 2896   9.002   2.591   9.038 -0.6858  0.5531  0.1689
  763MOL0     C 2897   9.095   2.550   9.135  0.4142  0.2085  0.0766
  763MOL0     C 2898   9.067   2.416   9.194 -0.8100  0.0592  0.3435
  763MOL0     C 2899   9.209   2.630   9.161 -0.4797  0.6435 -0.0030
  763MOL0     C 2900   9.331   2.583   9.247 -0.1793 -0.7043 -0.1018
  763MOL0     O 2901   9.434   2.663   9.248  0.9096  0.0196 -0.0370
  763MOL0     C 2902   9.530   2.620   9.335 -0.4837 -0.4024 -0.4480
  763MOL0     C 2903   9.559   2.696   9.455 -0.0883 -0.3522  0.3726
  763MOL0     C 2904   9.667   2.658   9.527 -0.5996 -0.8687 -0.8272
  763MOL0     C 2905   9.741   2.545   9.502 -0.7649 -0.1404  0.7659
  763MOL0     O 2906   9.835   2.491   9.587 -0.1482 -0.4488 -0.4561
  763MOL0     C 2907   9.896   2.584   9.680 -0.3923 -0.5141 -0.0710
  763MOL0     C 2908  10.015   2.523   9.750  0.0332 -0.0452 -0.6199
  763MOL0     C 2909  10.141   2.484   9.669  0.5342 -0.3138  0.5348
  763MOL0     C 2910  10.246   2.423   9.755  0.4333 -0.4515 -0.5567
  763MOL0     C 2911  10.393   2.414   9.720  0.2352 -0.4007  0.4218
  763MOL0     C 2912  10.455   2.546   9.655 -0.5009  0.5360 -0.9842
  763MOL0     C 2913  10.600   2.537   9.644 -0.3626 -0.5696 -0.1802
  763MOL0     C 2914  10.677   2.618   9.763 -1.2221  0.5134  0.7885
  763MOL0    Cl 2915  10.857   2.579   9.747 -0.3946 -0.2401  0.4580
  763MOL0     C 2916   9.724   2.482   9.377  0.0750  0.0430  0.1862
  763MOL0     C 2917   9.628   2.522   9.290  0.7026 -0.6241 -0.5400
  763MOL0     O 2918   9.310   2.486   9.319  0.1182  0.4017 -0.6726
  763MOL0     C 2919   9.213   2.756   9.091 -0.9335 -0.2124 -0.5218
  763MOL0     C 2920   9.121   2.792   9.002 -0.2251  0.1335 -0.4712
  763MOL0     N 2921   8.435   2.888   8.880 -1.0873  0.0074 -0.2045
  763MOL0     N 2922   8.314   2.850   8.851 -0.0782  0.8677 -0.2228
  763MOL0     C 2923   8.304   2.567  10.019  1.1875  0.3314 -0.6033
  763MOL0     C 2924   8.416   2.598  10.094  0.1577  0.7213 -0.0405
  763MOL0     C 2925   8.880   2.687  10.084  0.2523 -0.6520 -0.0904
  763MOL0     C 2926   8.872   2.825  10.049  0.4454  0.5674 -0.5315
  763MOL0     C 2927   8.991   2.892  10.050 -1.0870 -0.5518 -0.5281
  763MOL0     C 2928   9.117   2.841  10.085  0.1235  0.9536  0.1696
  763MOL0     O 2929   9.233   2.909  10.076 -0.0928 -0.3531 -0.6026
  763MOL0     C 2930   9.239   3.056  10.063  1.6370 -0.4827  0.3272
  763MOL0     C 2931   9.380   3.076  10.044 -1.1248  0.2894  0.4928
  763MOL0     C 2932   9.417   3.218   9.999 -0.5664  0.2473  0.0841
  763MOL0     C 2933   9.576   3.223   9.999  0.2805 -0.6478 -0.3266
  763MOL0     C 2934   9.622   3.334   9.913 -0.3787  0.6674 -0.3749
  763MOL0     C 2935   9.657   3.422   9.834 -0.6170 -0.5203  0.5885
  763MOL0     C 2936   9.117   2.701  10.111 -1.7196  1.1906  0.1355
  763MOL0     C 2937   8.999   2.623  10.121 -0.4564  0.8281 -0.9679
  763MOL0     H 2938   8.626   2.633   9.832 -0.3361  0.9902 -0.9659
  763MOL0     H 2939   8.422   2.618   9.710 -3.2971  1.4812 -0.9872
  763MOL0     H 2940   8.180   2.676   9.631  1.0892 -1.3346 -2.3130
  763MOL0     H 2941   8.263   2.525   9.616 -0.6522  4.0340 -4.9878
  763MOL0     H 2942   8.076   2.394   9.636 -4.1252 -1.4617 -0.0317
  763MOL0     H 2943   7.959   2.524   9.688 -1.9361 -0.2386 -2.1444
  763MOL0     H 2944   7.914   2.481   9.464  1.0441 -1.7119 -2.7841
  763MOL0     H 2945   7.990   2.646   9.478 -1.4786  0.4616  0.9857
  763MOL0     H 2946   8.220   2.520   9.403  0.8289 -1.4642  0.8429
  763MOL0     H 2947   8.136   2.375   9.396 -0.5568  0.4184  1.1168
  763MOL0     H 2948   8.146   2.465   9.173 -0.6368 -0.9258 -1.4570
  763MOL0     H 2949   7.974   2.481   9.221  0.6762 -1.3919  0.8915
  763MOL0     H 2950   7.978   2.688   9.249 -1.8789 -1.8329  0.2179
  763MOL0     H 2951   8.157   2.721   9.230  0.9415 -2.9821 -0.1046
  763MOL0     H 2952   8.123   2.602   8.998  0.7040 -1.2724  3.0668
  763MOL0     H 2953   7.958   2.648   9.011 -0.1682 -1.8454  2.2101
  763MOL0     H 2954   8.034   2.897   9.013  0.9417  0.0327  0.2852
  763MOL0     H 2955   8.065   2.791   8.872  1.8322 -1.6105 -0.0336
  763MOL0     H 2956   8.287   2.930   9.163  2.0337  0.1412  0.0121
  763MOL0     H 2957   8.511   3.099   9.111 -1.5306  0.1840  0.2790
  763MOL0     H 2958   8.563   2.946   9.168  2.3285  4.5217  1.5008
  763MOL0     H 2959   8.741   3.091   9.037  3.4840 -3.0316  2.3931
  763MOL0     H 2960   8.673   3.039   8.893  1.2362  1.5465  0.0627
  763MOL0     H 2961   8.696   2.793   9.004 -1.4046  0.5683  2.8952
  763MOL0     H 2962   8.815   2.887   9.100  0.5126 -0.7848 -1.4212
  763MOL0     H 2963   8.920   2.964   8.888  0.9546 -0.6433  0.8121
  763MOL0     H 2964   8.808   2.878   8.786  2.0174 -0.8102 -0.6842
  763MOL0     H 2965   8.923   2.523   9.010 -1.1845  0.4608  1.7096
  763MOL0     H 2966   9.152   2.347   9.194 -0.6687  0.1850 -1.4526
  763MOL0     H 2967   9.050   2.420   9.302  3.9971  2.3523  1.2849
  763MOL0     H 2968   8.983   2.377   9.136  1.2328  2.3905 -4.7990
  763MOL0     H 2969   9.495   2.775   9.491 -0.8913 -1.3202  1.1237
  763MOL0     H 2970   9.683   2.710   9.620 -1.7507  1.8585 -2.0398
  763MOL0     H 2971   9.924   2.679   9.634  0.5545 -0.0112  1.4664
  763MOL0     H 2972   9.822   2.601   9.759 -0.4015 -0.9922  0.0277
  763MOL0     H 2973  10.048   2.601   9.820 -1.4321  0.0317  0.0345
  763MOL0     H 2974   9.979   2.438   9.809 -2.4334  2.0724  1.1943
  763MOL0     H 2975  10.174   2.581   9.632  0.5773 -1.0767 -1.5236
  763MOL0     H 2976  10.106   2.431   9.580 -0.9055 -0.0555  0.9174
  763MOL0     H 2977  10.245   2.477   9.850  0.6744 -3.0843  1.0374
  763MOL0     H 2978  10.208   2.323   9.774  1.9967 -1.1041 -0.7797
  763MOL0     H 2979  10.417   2.328   9.657 -0.1590  0.2648 -0.6814
  763MOL0     H 2980  10.451   2.406   9.812  2.7210  1.1555 -0.8664
  763MOL0     H 2981  10.412   2.571   9.558 -3.5832  0.4466  0.2395
  763MOL0     H 2982  10.426   2.635   9.713  0.8401  0.7703 -0.6251
  763MOL0     H 2983  10.628   2.583   9.549 -1.9737  3.8383  1.2247
  763MOL0     H 2984  10.637   2.435   9.635 -1.4442 -0.7766 -4.8865
  763MOL0     H 2985  10.653   2.573   9.860  1.4641 -0.4484  1.0706
  763MOL0     H 2986  10.645   2.723   9.757 -1.8659  0.3158  0.7272
  763MOL0     H 2987   9.786   2.403   9.337 -1.3067 -1.0967  0.2038
  763MOL0     H 2988   9.610   2.475   9.193 -3.1774 -1.0207  0.1881
  763MOL0     H 2989   9.298   2.813   9.127 -0.3116 -1.4303 -0.0185
  763MOL0     H 2990   9.124   2.890   8.954 -1.5837  0.9869  1.0999
  763MOL0     H 2991   8.217   2.534  10.076 -0.8489  3.1330 -1.8374
  763MOL0     H 2992   8.424   2.601  10.202  1.9261  2.7883 -0.1418
  763MOL0     H 2993   8.776   2.875  10.039 -0.2315 -1.0101 -2.4305
  763MOL0     H 2994   8.987   2.994  10.015  3.2384 -0.4510 -1.3299
  763MOL0     H 2995   9.170   3.090   9.985  3.1849  4.1118  0.6623
  763MOL0     H 2996   9.202   3.107  10.152  0.9886 -1.4070  0.5986
  763MOL0     H 2997   9.407   3.003   9.968  2.0234  1.7150  0.0637
  763MOL0     H 2998   9.435   3.059  10.137 -0.5277  0.0995  0.1101
  763MOL0     H 2999   9.389   3.294  10.073  0.6551  0.3390  0.4749
  763MOL0     H 3000   9.378   3.234   9.898  0.1734 -0.0421 -0.2556
  763MOL0     H 3001   9.610   3.125   9.968 -1.2968 -2.1506  2.2876
  763MOL0     H 3002   9.615   3.243  10.100 -1.6065 -1.4196  0.6142
  763MOL0     H 3003   9.681   3.496   9.760 -1.2215 -1.6392 -0.7770
  763MOL0     H 3004   9.212   2.657  10.140 -0.2552  4.7820  1.3949
  763MOL0     H 3005   9.002   2.519  10.150 -1.3182  0.9589 -0.3862
  764MOL0     O 3006   3.947   7.999  11.262 -0.1407 -0.6209 -0.1826
  764MOL0     C 3007   3.871   8.071  11.200  1.4778  0.1815  0.0164
  764MOL0     O 3008   3.737   8.069  11.222  0.5270 -0.3639 -0.4150
  764MOL0     C 3009   3.684   7.969  11.294 -0.0094 -0.3373  0.5004
  764MOL0     C 3010   3.688   7.839  11.243  0.6405  0.1274 -1.0704
  764MOL0     C 3011   3.627   7.736  11.315  0.3343 -0.6928 -0.1634
  764MOL0     C 3012   3.588   7.754  11.450 -0.0602 -0.6019 -0.5741
  764MOL0     O 3013   3.544   7.660  11.543 -0.8118  0.8114  0.1464
  764MOL0     C 3014   3.532   7.533  11.493 -0.4875  0.5327  0.6954
  764MOL0     C 3015   3.519   7.436  11.616 -0.0911  0.3901  0.2549
  764MOL0     C 3016   3.666   7.400  11.645  0.3623 -0.1904 -0.0199
  764MOL0     C 3017   3.687   7.350  11.777 -0.3555  0.7557 -0.6211
  764MOL0     C 3018   3.836   7.300  11.830 -0.1257 -0.3245 -0.0726
  764MOL0     C 3019   3.851   7.151  11.813  0.2967 -0.8786  0.2796
  764MOL0     C 3020   3.999   7.113  11.793  0.4584 -0.1972  1.1737
  764MOL0     C 3021   4.016   6.966  11.816 -0.9809 -0.5880 -0.3585
  764MOL0     N 3022   4.157   6.925  11.819 -0.2654  0.2999  0.1488
  764MOL0     C 3023   4.219   6.853  11.712 -0.3424  0.3608 -0.5410
  764MOL0     C 3024   4.343   6.815  11.770  0.1997  0.3420  1.2968
  764MOL0     C 3025   4.449   6.732  11.704 -0.3890  0.7104  0.4849
  764MOL0     C 3026   4.494   6.814  11.577 -0.8849  0.1464  0.1440
  764MOL0     C 3027   4.593   6.723  11.492  0.4408  0.5379  0.8902
  764MOL0     C 3028   4.684   6.792  11.390  0.2200  0.0743  0.7268
  764MOL0     O 3029   4.609   6.869  11.295 -0.5632 -0.2953  0.2594
  764MOL0     C 3030   4.680   6.934  11.201  0.0570 -0.0821 -0.3960
  764MOL0     C 3031   4.639   7.053  11.154  0.6359  0.0826 -0.3071
  764MOL0     C 3032   4.710   7.137  11.075 -0.2025 -0.5721  0.3479
  764MOL0     C 3033   4.639   7.270  11.048  0.0204 -0.5149 -0.6410
  764MOL0     C 3034   4.822   7.085  11.008 -0.5676 -0.5378 -1.3687
  764MOL0     C 3035   4.897   7.163  10.905 -0.3125  0.4186  0.8475
  764MOL0     O 3036   4.878   7.298  10.901  0.0873 -0.0892  0.7671
  764MOL0     C 3037   4.926   7.377  10.798 -0.3906  0.3423 -0.3373
  764MOL0     C 3038   5.066   7.373  10.767 -0.2090  0.6035 -0.1202
  764MOL0     C 3039   5.125   7.454  10.667  0.3265 -0.5582  0.3024
  764MOL0     C 3040   5.040   7.540  10.601  0.2566  0.9139 -0.0105
  764MOL0     O 3041   5.101   7.627  10.519 -0.1209  0.5076  0.2846
  764MOL0     C 3042   5.057   7.761  10.504 -0.5532 -0.0489  0.8707
  764MOL0     C 3043   5.145   7.825  10.394 -0.2344  0.4082  0.3461
  764MOL0     C 3044   5.285   7.833  10.432  0.4999  0.3486 -0.7409
  764MOL0     C 3045   5.377   7.839  10.312 -0.3210 -0.4387 -0.3150
  764MOL0     C 3046   5.522   7.881  10.351  0.8177 -0.2460 -0.4923
  764MOL0     C 3047   5.612   7.893  10.235 -0.0090  0.2502  0.0561
  764MOL0     C 3048   5.760   7.884  10.271  0.2636 -0.5668  0.1617
  764MOL0     C 3049   5.859   7.883  10.157  0.2165 -0.4986 -0.2841
  764MOL0    Cl 3050   6.022   7.916  10.216 -0.0943 -0.5711 -0.0920
  764MOL0     C 3051   4.902   7.554  10.643  0.6957  0.6159 -0.3393
  764MOL0     C 3052   4.846   7.469  10.739  0.8016  0.8559  0.3524
  764MOL0     O 3053   4.964   7.093  10.823  0.4421  0.3891 -0.5406
  764MOL0     C 3054   4.860   6.955  11.042 -0.4759 -1.0352 -0.0706
  764MOL0     C 3055   4.794   6.879  11.142 -0.3085 -0.2256 -0.6598
  764MOL0     N 3056   4.350   6.863  11.899  0.0718  0.3736 -0.0579
  764MOL0     N 3057   4.239   6.923  11.931 -0.2583 -0.5201  0.4810
  764MOL0     C 3058   3.570   7.886  11.489  0.3738  0.5608  0.1834
  764MOL0     C 3059   3.627   7.989  11.414 -0.2098 -0.0590 -1.3167
  764MOL0     C 3060   3.916   8.168  11.095 -0.1979 -0.1105 -0.4702
  764MOL0     C 3061   4.057   8.168  11.054 -0.7945  0.0454  0.6488
  764MOL0     C 3062   4.105   8.264  10.955  0.6909  0.1054 -0.6221
  764MOL0     C 3063   4.015   8.344  10.897  0.0170 -0.4874  0.4335
  764MOL0     O 3064   4.066   8.412  10.789  0.1495 -0.3035 -1.0150
  764MOL0     C 3065   3.999   8.519  10.730 -0.8493 -0.0416 -0.5960
  764MOL0     C 3066   3.889   8.470  10.630 -1.1838  0.4321  0.0615
  764MOL0     C 3067   3.841   8.575  10.540  0.1489  0.4651 -0.0726
  764MOL0     C 3068   3.721   8.653  10.609 -0.0365  0.1750 -0.5273
  764MOL0     C 3069   3.758   8.794  10.605  0.1798 -0.5008  0.2660
  764MOL0     C 3070   3.795   8.909  10.617 -0.8182 -0.5240  0.6607
  764MOL0     C 3071   3.880   8.356  10.946  0.1725 -0.4864  0.2545
  764MOL0     C 3072   3.833   8.271  11.050  0.0439 -0.1231 -0.5204
  764MOL0     H 3073   3.718   7.838  11.138  0.4792 -0.9867 -1.1108
  764MOL0     H 3074   3.637   7.637  11.273  0.1356 -0.4149 -0.8729
  764MOL0     H 3075   3.452   7.520  11.419 -0.8498  3.0912  0.5668
  764MOL0     H 3076   3.626   7.505  11.445 -0.2889 -1.1552  1.9727
  764MOL0     H 3077   3.467   7.476  11.703 -0.8536 -0.6419  0.2995
  764MOL0     H 3078   3.464   7.345  11.590 -0.3906 -0.0624  2.3644
  764MOL0     H 3079   3.706   7.332  11.569 -1.4674  1.0043 -2.1883
  764MOL0     H 3080   3.721   7.494  11.636 -1.3233  0.7230 -1.4133
  764MOL0     H 3081   3.647   7.423  11.848 -1.5789 -0.3922 -0.0912
  764MOL0     H 3082   3.625   7.260  11.768 -1.5008  1.6898 -2.8522
  764MOL0     H 3083   3.914   7.349  11.771  1.3827 -0.6042  1.6015
  764MOL0     H 3084   3.847   7.331  11.934 -2.1153  1.3076 -0.2766
  764MOL0     H 3085   3.808   7.098  11.898  2.2849 -0.5925  1.5144
  764MOL0     H 3086   3.808   7.122  11.716  2.8676  0.8037 -1.4906
  764MOL0     H 3087   4.047   7.133  11.696  3.6425 -0.7463  2.5220
  764MOL0     H 3088   4.054   7.173  11.865  2.6059  1.7025 -1.7972
  764MOL0     H 3089   3.964   6.906  11.740 -1.7924 -0.0443 -0.2481
  764MOL0     H 3090   3.962   6.951  11.910  1.0455  0.6019  1.0632
  764MOL0     H 3091   4.180   6.812  11.620 -0.2208 -0.3075 -0.3002
  764MOL0     H 3092   4.532   6.713  11.772 -1.1793  1.7714  1.7917
  764MOL0     H 3093   4.404   6.634  11.684 -1.3489  1.1695  0.3296
  764MOL0     H 3094   4.548   6.906  11.601 -3.7925  2.2336 -0.7384
  764MOL0     H 3095   4.411   6.837  11.510 -0.4632 -2.4068 -1.3769
  764MOL0     H 3096   4.533   6.650  11.437  1.8318 -0.3156  0.4830
  764MOL0     H 3097   4.656   6.673  11.567  2.4181  1.5354 -0.0446
  764MOL0     H 3098   4.743   6.711  11.346  3.3274  1.1630  2.5628
  764MOL0     H 3099   4.750   6.861  11.442 -0.8580 -0.1401  2.4575
  764MOL0     H 3100   4.544   7.082  11.197  0.8557  0.4310 -0.0436
  764MOL0     H 3101   4.538   7.266  11.090 -0.3222  2.9430 -0.8206
  764MOL0     H 3102   4.677   7.355  11.106 -4.0049  0.4794  0.9103
  764MOL0     H 3103   4.648   7.293  10.941 -0.1629  1.0545 -0.3428
  764MOL0     H 3104   5.122   7.293  10.813 -0.9165 -1.6445 -2.8183
  764MOL0     H 3105   5.228   7.442  10.636  0.1485 -0.4803 -0.3272
  764MOL0     H 3106   4.955   7.760  10.464 -1.2774 -2.2210  2.5637
  764MOL0     H 3107   5.062   7.812  10.601 -4.9147 -0.0390  1.2739
  764MOL0     H 3108   5.141   7.766  10.303  0.4804  2.7662 -1.3112
  764MOL0     H 3109   5.105   7.923  10.367  1.8472  1.1540 -0.1827
  764MOL0     H 3110   5.313   7.749  10.496  0.8529  0.8852 -0.1698
  764MOL0     H 3111   5.301   7.932  10.476  1.4217  0.2415 -0.8106
  764MOL0     H 3112   5.381   7.749  10.250  2.8538  0.8337 -2.2300
  764MOL0     H 3113   5.335   7.907  10.238  2.3432  1.0351 -0.6093
  764MOL0     H 3114   5.558   7.805  10.421 -3.2894 -1.7980  0.2701
  764MOL0     H 3115   5.523   7.973  10.410  0.2179 -2.6205  3.6160
  764MOL0     H 3116   5.585   7.804  10.177  0.3542  0.8515 -1.0555
  764MOL0     H 3117   5.592   7.980  10.171  1.0910 -0.9873 -2.0792
  764MOL0     H 3118   5.787   7.793  10.326  1.0955  0.4436  1.4866
  764MOL0     H 3119   5.787   7.964  10.341 -2.3440  0.2544  0.3594
  764MOL0     H 3120   5.837   7.961  10.084 -0.1002 -0.4844 -0.1721
  764MOL0     H 3121   5.864   7.787  10.105  1.1734  0.2256 -1.5817
  764MOL0     H 3122   4.847   7.633  10.592  0.5429  0.4409 -0.4477
  764MOL0     H 3123   4.740   7.483  10.755  0.5941  0.4932 -0.6530
  764MOL0     H 3124   4.951   6.922  10.995 -2.3139 -5.0119 -1.2806
  764MOL0     H 3125   4.838   6.782  11.161  0.1185 -0.4757 -2.7045
  764MOL0     H 3126   3.524   7.913  11.584  0.1929 -0.6994  0.4649
  764MOL0     H 3127   3.631   8.090  11.453  1.5817  0.0513 -1.7020
  764MOL0     H 3128   4.132   8.094  11.080 -1.4950 -0.6113  0.8461
  764MOL0     H 3129   4.203   8.264  10.910  0.2580  0.8807 -1.6075
  764MOL0     H 3130   3.952   8.578  10.809  2.1011  0.0231  1.2902
  764MOL0     H 3131   4.078   8.586  10.693  0.4639 -1.4974 -0.5402
  764MOL0     H 3132   3.807   8.426  10.687  0.4381  2.4256  4.3792
  764MOL0     H 3133   3.939   8.388  10.577 -2.4703 -0.3084 -0.0431
  764MOL0     H 3134   3.810   8.524  10.448  0.2268  1.2778 -0.5530
  764MOL0     H 3135   3.920   8.638  10.498 -1.1518  1.4372 -1.1478
  764MOL0     H 3136   3.708   8.617  10.711  1.1229 -2.4612 -1.2395
  764MOL0     H 3137   3.629   8.634  10.553  1.9029  0.1456 -4.0165
  764MOL0     H 3138   3.852   8.999  10.629 -2.2218  0.2774  1.5026
  764MOL0     H 3139   3.800   8.419  10.909 -0.8098 -1.4651  0.6658
  764MOL0     H 3140   3.743   8.300  11.102 -0.3348 -0.2224 -1.1057
  765MOL0     O 3141   9.798   4.366  11.365  0.0894  0.0960 -0.6631
  765MOL0     C 3142   9.831   4.251  11.338 -0.8075 -0.7341  0.2891
  765MOL0     O 3143   9.963   4.203  11.338 -0.2751  0.3704  0.7217
  765MOL0     C 3144  10.069   4.295  11.339  0.5772 -0.1729  0.5001
  765MOL0     C 3145  10.058   4.409  11.254 -1.1945  0.0437 -0.5366
  765MOL0     C 3146  10.163   4.507  11.262  0.6528  0.5386  0.0066
  765MOL0     C 3147  10.276   4.481  11.343 -0.9218 -0.7738 -0.3254
  765MOL0     O 3148  10.366   4.590  11.348  0.0202 -0.4869  0.7146
  765MOL0     C 3149  10.467   4.600  11.448 -0.0919  0.5966 -0.1242
  765MOL0     C 3150  10.586   4.520  11.392  0.0555 -0.4059 -0.3064
  765MOL0     C 3151  10.657   4.599  11.270 -0.2198  0.5033 -0.0550
  765MOL0     C 3152  10.787   4.536  11.237  0.2781  0.3791 -0.0106
  765MOL0     C 3153  10.861   4.615  11.137 -1.1139 -0.4044 -0.3410
  765MOL0     C 3154  10.964   4.706  11.216 -0.1563 -0.0502 -0.3652
  765MOL0     C 3155  10.998   4.829  11.142 -0.3811  0.0851 -0.2013
  765MOL0     C 3156  11.058   4.805  10.999  0.3176 -0.2821 -0.3981
  765MOL0     N 3157  11.142   4.918  10.950  0.5181 -0.2433  0.2261
  765MOL0     C 3158  11.085   5.043  10.926  0.5192 -0.0519  0.8032
  765MOL0     C 3159  11.192   5.127  10.904 -0.8118  0.3581 -0.2809
  765MOL0     C 3160  11.182   5.278  10.870 -0.6191  0.9704 -0.6814
  765MOL0     C 3161  11.299   5.340  10.795 -0.7148 -0.1388  0.0512
  765MOL0     C 3162  11.292   5.496  10.796  0.4364 -0.0733  0.3173
  765MOL0     C 3163  11.340   5.562  10.667  0.8617 -0.4488 -0.3347
  765MOL0     O 3164  11.239   5.542  10.563 -0.3032 -0.1685 -0.2782
  765MOL0     C 3165  11.226   5.655  10.495 -0.4020  0.7409 -0.8036
  765MOL0     C 3166  11.340   5.699  10.422  0.4393 -0.3791  0.7632
  765MOL0     C 3167  11.329   5.809  10.330  1.0456  0.4648 -0.3455
  765MOL0     C 3168  11.435   5.834  10.231  0.3724  0.2749  0.5028
  765MOL0     C 3169  11.204   5.885  10.327  0.0331  0.1841 -0.6672
  765MOL0     C 3170  11.185   6.001  10.237 -0.3803  1.2220  0.5238
  765MOL0     O 3171  11.211   5.983  10.099  0.5313  0.8295  0.4611
  765MOL0     C 3172  11.216   6.096  10.026  0.9987  0.2717  0.4800
  765MOL0     C 3173  11.128   6.128   9.917 -0.4018 -0.2913  1.1510
  765MOL0     C 3174  11.146   6.250   9.848  0.4945  0.7057 -0.1067
  765MOL0     C 3175  11.242   6.343   9.879  0.5145  0.3957 -0.1957
  765MOL0     O 3176  11.247   6.468   9.831  0.2236 -1.3629 -0.1834
  765MOL0     C 3177  11.331   6.476   9.719  0.0672  0.1208 -0.6579
  765MOL0     C 3178  11.306   6.621   9.669  1.4258 -0.3428 -1.5651
  765MOL0     C 3179  11.377   6.734   9.748  0.6949  0.4071 -0.0800
  765MOL0     C 3180  11.390   6.714   9.900 -1.0555  0.2734  1.0868
  765MOL0     C 3181  11.249   6.718   9.969  0.5607 -0.2980 -0.2212
  765MOL0     C 3182  11.255   6.667  10.109  0.7336 -0.0620 -0.1487
  765MOL0     C 3183  11.120   6.678  10.176  0.1777 -0.7330  0.4240
  765MOL0     C 3184  11.039   6.542  10.152 -0.6301 -0.2543  0.2468
  765MOL0    Cl 3185  10.976   6.467  10.308  0.1214 -0.1723  0.8213
  765MOL0     C 3186  11.324   6.312   9.984 -0.2503 -0.7699  0.8360
  765MOL0     C 3187  11.319   6.187  10.046 -0.0072 -0.4290 -0.6129
  765MOL0     O 3188  11.156   6.106  10.290 -0.5825 -0.7798 -0.0344
  765MOL0     C 3189  11.096   5.835  10.400 -0.4316  0.4388  0.6132
  765MOL0     C 3190  11.107   5.721  10.484  0.2223 -0.1625  0.8494
  765MOL0     N 3191  11.304   5.049  10.930  0.1789  0.4147  0.8381
  765MOL0     N 3192  11.274   4.928  10.966 -0.3291 -0.4460  0.2423
  765MOL0     C 3193  10.292   4.367  11.418  0.3925  0.7937  0.5845
  765MOL0     C 3194  10.181   4.273  11.430 -0.6707 -0.8030  0.0121
  765MOL0     C 3195   9.727   4.159  11.294  0.7058  0.1180 -0.4148
  765MOL0     C 3196   9.591   4.190  11.324  0.5492  0.1579 -0.6154
  765MOL0     C 3197   9.488   4.102  11.300  0.4410  0.0741  0.0187
  765MOL0     C 3198   9.513   3.967  11.256 -0.7248 -0.1458 -0.2317
  765MOL0     O 3199   9.401   3.893  11.230 -0.3534  0.4998 -0.5342
  765MOL0     C 3200   9.414   3.752  11.215 -0.2028 -0.9342  0.8292
  765MOL0     C 3201   9.442   3.687  11.350 -0.3224  0.0436  0.4278
  765MOL0     C 3202   9.472   3.538  11.338  0.1957  0.2129 -0.3561
  765MOL0     C 3203   9.613   3.520  11.305 -0.3805 -0.0562  0.7778
  765MOL0     C 3204   9.618   3.383  11.254  0.2941  0.0253 -0.1455
  765MOL0     C 3205   9.625   3.268  11.215 -0.2463  0.6143 -0.3220
  765MOL0     C 3206   9.646   3.930  11.243  0.2951 -0.0576  0.0088
  765MOL0     C 3207   9.756   4.018  11.252  0.6842 -0.9800  0.3647
  765MOL0     H 3208   9.972   4.409  11.188 -2.4285 -3.2421  0.8384
  765MOL0     H 3209  10.144   4.600  11.210 -0.2721 -0.4925 -1.5597
  765MOL0     H 3210  10.499   4.705  11.443 -2.1867  1.2899  0.2836
  765MOL0     H 3211  10.449   4.571  11.551  3.6362 -0.1879  0.4776
  765MOL0     H 3212  10.662   4.485  11.463 -0.1118  1.0595  0.6478
  765MOL0     H 3213  10.541   4.430  11.350  1.1790 -0.5076 -1.3405
  765MOL0     H 3214  10.602   4.590  11.175  0.0308  2.2929 -0.4073
  765MOL0     H 3215  10.674   4.703  11.299  0.8534  0.1055  0.7515
  765MOL0     H 3216  10.849   4.509  11.323 -0.0832  1.3065  0.5574
  765MOL0     H 3217  10.765   4.439  11.192 -0.1305  0.6574 -0.4216
  765MOL0     H 3218  10.918   4.551  11.069  2.2495  0.2093  1.6451
  765MOL0     H 3219  10.795   4.681  11.080  0.3427  1.8837  0.4821
  765MOL0     H 3220  10.909   4.744  11.303 -2.8554  0.4915 -2.2059
  765MOL0     H 3221  11.046   4.646  11.258  2.2782  1.8945 -2.0408
  765MOL0     H 3222  10.917   4.901  11.128 -1.2402 -0.9274 -0.6112
  765MOL0     H 3223  11.067   4.876  11.212 -0.2968  2.5660 -1.8218
  765MOL0     H 3224  10.977   4.791  10.926  1.4994 -0.5725 -1.7068
  765MOL0     H 3225  11.132   4.725  11.010  0.5210 -0.3032 -1.7080
  765MOL0     H 3226  10.978   5.057  10.913  0.4952 -2.0780 -2.2297
  765MOL0     H 3227  11.091   5.299  10.813 -3.6775 -0.2097  3.2819
  765MOL0     H 3228  11.166   5.325  10.967  0.3175  1.9311 -0.9728
  765MOL0     H 3229  11.307   5.298  10.694 -2.4908 -1.6266  0.4697
  765MOL0     H 3230  11.397   5.316  10.838 -1.4276 -5.7211 -0.6901
  765MOL0     H 3231  11.358   5.519  10.880 -2.8224 -0.9939  3.3719
  765MOL0     H 3232  11.188   5.525  10.813 -0.1266 -0.0279 -2.6112
  765MOL0     H 3233  11.441   5.527  10.642  1.1119  0.2421 -0.2946
  765MOL0     H 3234  11.350   5.669  10.688 -2.3411  0.0385 -0.7240
  765MOL0     H 3235  11.428   5.636  10.417  1.9082  1.6621 -0.3077
  765MOL0     H 3236  11.407   5.800  10.131  0.4355 -1.1928  0.9649
  765MOL0     H 3237  11.457   5.941  10.222  1.1356 -0.0429 -2.9877
  765MOL0     H 3238  11.525   5.776  10.249  1.7425  0.8519 -3.4945
  765MOL0     H 3239  11.053   6.054   9.893  0.1804 -1.0192  1.5445
  765MOL0     H 3240  11.079   6.286   9.771  2.0026  0.7715 -1.4261
  765MOL0     H 3241  11.438   6.457   9.727 -0.0335 -1.2505 -2.0250
  765MOL0     H 3242  11.287   6.412   9.641  1.8633 -0.4072 -1.2803
  765MOL0     H 3243  11.343   6.621   9.566 -0.9852 -0.3284 -2.4967
  765MOL0     H 3244  11.199   6.644   9.670  1.5513  0.2859 -2.0153
  765MOL0     H 3245  11.317   6.825   9.737 -2.4345 -1.6113 -1.0541
  765MOL0     H 3246  11.467   6.745   9.687  0.4481 -1.2282 -0.7947
  765MOL0     H 3247  11.443   6.620   9.916 -1.3842  0.3118  2.5419
  765MOL0     H 3248  11.449   6.795   9.943  0.6812 -0.2680 -0.1665
  765MOL0     H 3249  11.167   6.666   9.918 -1.6611  0.9625  1.8654
  765MOL0     H 3250  11.214   6.821   9.975  1.4554 -0.0660  3.0270
  765MOL0     H 3251  11.294   6.565  10.113 -2.1382 -1.3650 -1.5476
  765MOL0     H 3252  11.321   6.736  10.162  0.7529 -0.3857  0.2579
  765MOL0     H 3253  11.054   6.746  10.122 -2.1223 -2.8075  0.4267
  765MOL0     H 3254  11.110   6.694  10.284 -2.5007 -1.2624  0.3443
  765MOL0     H 3255  11.105   6.473  10.100  0.3540 -0.2836  1.4796
  765MOL0     H 3256  10.955   6.575  10.090 -0.9913  2.4905  1.9953
  765MOL0     H 3257  11.397   6.386  10.017 -2.0308  1.8004 -0.5952
  765MOL0     H 3258  11.402   6.155  10.109 -0.0655 -2.1747 -1.3538
  765MOL0     H 3259  10.997   5.877  10.392 -0.5851  0.4896  2.3987
  765MOL0     H 3260  11.019   5.685  10.537  2.6845  0.4763  5.9866
  765MOL0     H 3261  10.386   4.340  11.465  2.8112  2.1457 -3.0146
  765MOL0     H 3262  10.196   4.193  11.502 -0.7714 -1.3099 -0.5227
  765MOL0     H 3263   9.557   4.285  11.366 -1.4939  0.0098 -1.8068
  765MOL0     H 3264   9.382   4.127  11.301  0.8070  1.6758  1.3714
  765MOL0     H 3265   9.314   3.725  11.179 -0.1315  0.8439 -0.8991
  765MOL0     H 3266   9.486   3.721  11.139 -0.4417  1.8895 -0.6960
  765MOL0     H 3267   9.363   3.701  11.425  1.2287  2.6354  1.7211
  765MOL0     H 3268   9.532   3.736  11.389 -0.2841 -0.0795  0.4948
  765MOL0     H 3269   9.404   3.498  11.262 -1.1684 -1.0387  1.4359
  765MOL0     H 3270   9.443   3.492  11.433 -2.2690  1.7645 -0.2760
  765MOL0     H 3271   9.682   3.534  11.389 -0.3469 -0.3599  0.8020
  765MOL0     H 3272   9.649   3.595  11.234 -1.0988 -1.6729 -1.3752
  765MOL0     H 3273   9.613   3.166  11.185 -1.4631  0.0093  2.0164
  765MOL0     H 3274   9.675   3.826  11.234 -3.1464 -1.4281  2.5913
  765MOL0     H 3275   9.860   3.987  11.257 -0.0456 -3.5527  0.9199
  766MOL0     O 3276   7.710   0.003   8.426  0.3698  0.5475 -0.2417
  766MOL0     C 3277   7.709   0.050   8.312  0.9153 -0.3838 -0.2174
  766MOL0     O 3278   7.598   0.115   8.248 -0.6456  0.0971  0.0204
  766MOL0     C 3279   7.473   0.080   8.297  0.0471  0.4240  0.2100
  766MOL0     C 3280   7.363   0.167   8.297  0.6891 -0.2856 -1.2148
  766MOL0     C 3281   7.234   0.133   8.338  0.3723 -0.7356 -0.5413
  766MOL0     C 3282   7.207   0.002   8.394 -0.0991  0.2671 -0.1441
  766MOL0     O 3283   7.085  -0.044   8.434 -0.4278 -0.1359 -0.1476
  766MOL0     C 3284   6.969   0.029   8.395  0.9038  0.1499 -0.0281
  766MOL0     C 3285   6.849  -0.042   8.440 -0.2638  0.2853  0.1718
  766MOL0     C 3286   6.741   0.063   8.413 -0.3261  0.4086 -0.3018
  766MOL0     C 3287   6.601  -0.004   8.428 -1.3124 -0.0028 -0.3174
  766MOL0     C 3288   6.489   0.110   8.434  0.0383  0.2742 -0.9432
  766MOL0     C 3289   6.344   0.065   8.420  0.2246  0.6247  0.3177
  766MOL0     C 3290   6.295  -0.023   8.533  0.1234 -0.9302  0.9095
  766MOL0     C 3291   6.296  -0.176   8.492 -0.4340 -0.1164 -0.0594
  766MOL0     N 3292   6.246  -0.254   8.605 -0.3496 -0.3230 -0.3208
  766MOL0     C 3293   6.318  -0.308   8.707 -0.3394  0.5106 -0.4500
  766MOL0     C 3294   6.226  -0.357   8.796 -0.2846  0.8630  0.6597
  766MOL0     C 3295   6.256  -0.445   8.916 -0.7248 -0.0928  0.7969
  766MOL0     C 3296   6.143  -0.525   8.962  0.6134 -0.2185 -0.3005
  766MOL0     C 3297   6.181  -0.613   9.081 -0.0570  0.1468 -0.2293
  766MOL0     C 3298   6.066  -0.682   9.154  0.3429  0.1000  0.1117
  766MOL0     O 3299   6.112  -0.787   9.252 -0.6797  0.1611 -0.0418
  766MOL0     C 3300   6.015  -0.848   9.324 -0.1916 -1.0756  0.0270
  766MOL0     C 3301   5.880  -0.826   9.300 -0.2691  0.8615  1.4242
  766MOL0     C 3302   5.782  -0.892   9.377  0.0907  0.2041  0.2463
  766MOL0     C 3303   5.632  -0.849   9.355 -0.3834  0.0491 -0.6620
  766MOL0     C 3304   5.823  -0.987   9.479  0.0204 -0.3225  0.0968
  766MOL0     C 3305   5.730  -1.065   9.555 -0.1861 -0.0097 -1.6727
  766MOL0     O 3306   5.594  -1.070   9.522  0.1080  0.0804  0.2716
  766MOL0     C 3307   5.508  -1.162   9.577  0.1346  0.7806  0.5748
  766MOL0     C 3308   5.506  -1.199   9.708 -0.5037  0.1606  0.1157
  766MOL0     C 3309   5.406  -1.277   9.764  0.3742  0.4353 -0.3577
  766MOL0     C 3310   5.292  -1.310   9.687  0.6201  0.6937 -0.0785
  766MOL0     O 3311   5.205  -1.393   9.764 -0.4918  0.7325  0.5060
  766MOL0     C 3312   5.082  -1.426   9.708  0.3226 -0.1958  0.0353
  766MOL0     C 3313   4.997  -1.480   9.824  0.2534  0.5761 -0.5977
  766MOL0     C 3314   4.970  -1.363   9.926  1.4772 -0.5841 -0.2000
  766MOL0     C 3315   4.869  -1.398  10.040  0.2789  0.3895 -0.7910
  766MOL0     C 3316   4.874  -1.308  10.157  0.2000 -0.2460 -0.1280
  766MOL0     C 3317   4.771  -1.352  10.260  0.2590  0.3223 -1.6776
  766MOL0     C 3318   4.672  -1.253  10.327  0.4166 -0.4958  0.2289
  766MOL0     C 3319   4.549  -1.323  10.398  0.1095  1.0138 -0.4157
  766MOL0    Cl 3320   4.609  -1.378  10.569 -0.0968 -0.1975 -0.2556
  766MOL0     C 3321   5.294  -1.279   9.555  0.2730 -0.2461 -0.8429
  766MOL0     C 3322   5.392  -1.201   9.501  0.5003 -0.2835 -0.0092
  766MOL0     O 3323   5.786  -1.122   9.653 -0.4492  0.4230  0.7745
  766MOL0     C 3324   5.966  -1.002   9.493 -0.0447 -0.1751  0.4509
  766MOL0     C 3325   6.062  -0.934   9.420 -0.0046 -0.5087  0.3168
  766MOL0     N 3326   6.104  -0.327   8.739  0.5563  0.5314 -1.1976
  766MOL0     N 3327   6.115  -0.272   8.634  0.5474  0.6261  0.7091
  766MOL0     C 3328   7.317  -0.084   8.400 -0.8232 -0.0715 -0.3812
  766MOL0     C 3329   7.434  -0.047   8.342 -0.3424  0.4957  0.3712
  766MOL0     C 3330   7.836   0.071   8.246  0.1963  0.2669 -0.5028
  766MOL0     C 3331   7.848   0.172   8.146  0.6363  1.0900  0.6300
  766MOL0     C 3332   7.962   0.215   8.098 -0.0734 -0.0152  0.2986
  766MOL0     C 3333   8.076   0.160   8.150  0.2748  0.2128 -0.1746
  766MOL0     O 3334   8.195   0.218   8.111  0.1590  0.1405  0.5078
  766MOL0     C 3335   8.222   0.213   7.968  0.5525 -0.9107 -0.2854
  766MOL0     C 3336   8.254   0.072   7.926  0.0000  0.1999  0.5167
  766MOL0     C 3337   8.379   0.009   7.994 -0.0826 -0.7308 -0.4208
  766MOL0     C 3338   8.505   0.081   7.955 -0.6885  0.0601  0.4490
  766MOL0     C 3339   8.529   0.059   7.806 -0.5818 -0.4379 -0.3713
  766MOL0     C 3340   8.538   0.047   7.689  0.1112  0.1978 -0.8917
  766MOL0     C 3341   8.081   0.060   8.250  0.0630  0.1527  0.1754
  766MOL0     C 3342   7.960   0.016   8.297 -0.3377  0.0811  0.5667
  766MOL0     H 3343   7.368   0.268   8.258 -1.1343 -0.1413 -1.1608
  766MOL0     H 3344   7.144   0.193   8.336  0.5718 -0.0054  3.6544
  766MOL0     H 3345   6.991   0.121   8.451 -0.0910 -1.6288  3.5830
  766MOL0     H 3346   6.967   0.054   8.288  0.2699  0.9167  0.1497
  766MOL0     H 3347   6.830  -0.138   8.390 -1.2193 -2.2064  4.8113
  766MOL0     H 3348   6.866  -0.073   8.543  1.7759 -1.7482 -0.6784
  766MOL0     H 3349   6.744   0.149   8.480 -1.8658 -0.3289  0.7886
  766MOL0     H 3350   6.746   0.096   8.308  0.7639  0.6643 -0.1791
  766MOL0     H 3351   6.579  -0.067   8.341 -0.0908 -1.3530  0.3164
  766MOL0     H 3352   6.603  -0.058   8.523  0.3166  0.8255  0.1402
  766MOL0     H 3353   6.506   0.156   8.532  2.1469 -0.0972 -1.0876
  766MOL0     H 3354   6.513   0.193   8.366 -0.4361  0.3391 -1.0344
  766MOL0     H 3355   6.279   0.152   8.413 -0.3330  0.4653  2.6711
  766MOL0     H 3356   6.337   0.005   8.329 -2.8456  2.6350 -0.9060
  766MOL0     H 3357   6.347  -0.001   8.627  0.2504  0.5985  0.5211
  766MOL0     H 3358   6.191   0.009   8.547  0.9825  3.9325 -1.4469
  766MOL0     H 3359   6.402  -0.203   8.486  0.2561  2.3773 -0.2673
  766MOL0     H 3360   6.242  -0.177   8.397  0.2269  0.3519 -0.4495
  766MOL0     H 3361   6.421  -0.341   8.712 -0.5727 -0.0387  1.4864
  766MOL0     H 3362   6.350  -0.501   8.907  1.0876  2.2631  3.5539
  766MOL0     H 3363   6.277  -0.381   9.001  0.4971 -2.5426  2.4703
  766MOL0     H 3364   6.107  -0.594   8.885 -1.5119  0.0872  0.3518
  766MOL0     H 3365   6.054  -0.465   8.981  1.5073  1.1560 -0.3043
  766MOL0     H 3366   6.225  -0.556   9.164  0.0988 -3.9302  2.7791
  766MOL0     H 3367   6.256  -0.692   9.072 -0.2247  0.1593 -2.2122
  766MOL0     H 3368   6.007  -0.733   9.077  2.3573 -1.0632 -0.7337
  766MOL0     H 3369   6.010  -0.606   9.209  0.3009  0.3448 -0.2724
  766MOL0     H 3370   5.841  -0.745   9.239 -0.5853  3.0791  4.3875
  766MOL0     H 3371   5.632  -0.751   9.306  1.3233 -0.0092 -0.8546
  766MOL0     H 3372   5.578  -0.922   9.294 -0.9455  0.6035 -0.8290
  766MOL0     H 3373   5.577  -0.844   9.449 -1.5283  0.6239 -1.3392
  766MOL0     H 3374   5.579  -1.171   9.782 -0.4616  1.9857 -0.5571
  766MOL0     H 3375   5.423  -1.271   9.871  0.5820  5.6453 -0.4358
  766MOL0     H 3376   5.038  -1.334   9.669  1.4173 -0.0139 -0.8549
  766MOL0     H 3377   5.090  -1.509   9.637 -2.4266  1.1137 -1.9688
  766MOL0     H 3378   4.894  -1.490   9.787 -1.7339  4.1942  3.0569
  766MOL0     H 3379   5.034  -1.575   9.865  0.2621  0.9669  0.3162
  766MOL0     H 3380   4.927  -1.291   9.856 -0.0868 -0.0482  1.2508
  766MOL0     H 3381   5.068  -1.336   9.966  1.7166  0.6543 -1.5453
  766MOL0     H 3382   4.771  -1.400   9.992  1.6586  1.4521 -3.8702
  766MOL0     H 3383   4.887  -1.503  10.065 -0.5342  0.1577 -1.1271
  766MOL0     H 3384   4.847  -1.210  10.118 -1.5178 -0.7639 -0.3413
  766MOL0     H 3385   4.974  -1.302  10.201 -0.3784  2.0138  1.0610
  766MOL0     H 3386   4.727  -1.448  10.230 -0.9143  0.3527 -0.1210
  766MOL0     H 3387   4.829  -1.382  10.348  0.6507  0.5832 -1.8454
  766MOL0     H 3388   4.633  -1.188  10.249  0.5816 -2.5909 -1.7036
  766MOL0     H 3389   4.723  -1.197  10.406  0.6878 -0.2556 -0.1161
  766MOL0     H 3390   4.525  -1.410  10.335  2.7364 -0.4214  0.3788
  766MOL0     H 3391   4.464  -1.257  10.412 -1.9593 -1.7680  1.2001
  766MOL0     H 3392   5.202  -1.292   9.499  0.8743 -2.0718 -1.4653
  766MOL0     H 3393   5.380  -1.168   9.398  1.5527  1.2993  0.3461
  766MOL0     H 3394   6.009  -1.073   9.562  1.0151 -2.1360 -2.0801
  766MOL0     H 3395   6.169  -0.949   9.431 -0.1895 -1.6854  0.5793
  766MOL0     H 3396   7.307  -0.182   8.446 -0.0771 -0.6387 -1.3958
  766MOL0     H 3397   7.520  -0.114   8.337 -1.6281 -1.1432 -1.5309
  766MOL0     H 3398   7.758   0.213   8.101 -2.3624 -4.3630  0.8580
  766MOL0     H 3399   7.957   0.297   8.028  0.6685  1.0522  1.4352
  766MOL0     H 3400   8.142   0.259   7.909  0.1182  2.0327  2.2940
  766MOL0     H 3401   8.306   0.279   7.943 -0.1912  0.1968  0.0221
  766MOL0     H 3402   8.272   0.073   7.818 -2.4478 -0.7701  0.0180
  766MOL0     H 3403   8.173   0.002   7.950 -0.4377 -0.0718 -1.5388
  766MOL0     H 3404   8.397  -0.095   7.967  1.1580 -0.9759  1.2215
  766MOL0     H 3405   8.378   0.018   8.103 -0.4830 -1.8169 -0.3311
  766MOL0     H 3406   8.593   0.028   7.993 -1.2235  1.5246  4.1734
  766MOL0     H 3407   8.494   0.185   7.987 -3.1483 -0.0052  0.0034
  766MOL0     H 3408   8.543   0.036   7.583  2.1550  2.4645 -1.1136
  766MOL0     H 3409   8.178   0.017   8.276 -0.6356 -1.3759  0.3627
  766MOL0     H 3410   7.962  -0.056   8.378  0.7970 -0.7702 -0.1741
  767MOL0     O 3411   7.085  10.616   1.051  0.0080 -0.6550 -0.0326
  767MOL0     C 3412   7.110  10.736   1.032  0.3999 -0.2819  0.6275
  767MOL0     O 3413   7.029  10.845   1.062  0.1347  0.0460 -0.4508
  767MOL0     C 3414   6.905  10.837   1.115  0.5752  0.9228 -0.9270
  767MOL0     C 3415   6.875  10.942   1.202 -0.5981 -0.4266  0.4732
  767MOL0     C 3416   6.744  10.949   1.261  0.0787 -0.3890 -0.4535
  767MOL0     C 3417   6.643  10.855   1.222  0.0581  0.3360  0.4430
  767MOL0     O 3418   6.513  10.852   1.262 -0.4049  0.3900  0.7174
  767MOL0     C 3419   6.455  10.965   1.328  0.4487 -0.5986  0.3687
  767MOL0     C 3420   6.302  10.963   1.343 -0.5771  0.5189 -0.5800
  767MOL0     C 3421   6.235  10.957   1.212  0.3182 -0.1915 -0.0643
  767MOL0     C 3422   6.081  10.926   1.226 -0.0282  0.4279  0.1118
  767MOL0     C 3423   6.021  10.908   1.083  0.5899  0.3493 -0.5680
  767MOL0     C 3424   5.868  10.907   1.080 -0.4899  0.1091  0.2433
  767MOL0     C 3425   5.809  10.922   0.939  0.1221 -0.5218 -0.3608
  767MOL0     C 3426   5.665  10.955   0.939 -0.1221  0.7525  0.5656
  767MOL0     N 3427   5.636  10.983   0.804 -0.1882 -0.0166 -0.0356
  767MOL0     C 3428   5.642  11.104   0.737 -0.6692  1.0478 -0.7852
  767MOL0     C 3429   5.586  11.084   0.613  0.5501  0.1299 -0.2650
  767MOL0     C 3430   5.551  11.197   0.520 -0.5882  0.4977  0.1466
  767MOL0     C 3431   5.394  11.209   0.500  0.3110 -0.0502  0.4575
  767MOL0     C 3432   5.331  11.253   0.635  0.4226  0.6673  0.0702
  767MOL0     C 3433   5.289  11.145   0.748 -0.1668  0.7704  0.7630
  767MOL0     O 3434   5.194  11.209   0.839 -0.8861 -0.1102  0.1936
  767MOL0     C 3435   5.242  11.240   0.964  0.7504  0.1717  0.6633
  767MOL0     C 3436   5.148  11.307   1.037  0.0268  0.3358 -0.5689
  767MOL0     C 3437   5.170  11.338   1.174  0.0889 -0.1919 -0.5325
  767MOL0     C 3438   5.050  11.388   1.245  0.7181 -0.2407  0.2173
  767MOL0     C 3439   5.293  11.319   1.237 -0.2756 -0.4822  1.2072
  767MOL0     C 3440   5.334  11.352   1.381  0.2918 -0.2913 -0.3588
  767MOL0     O 3441   5.266  11.446   1.445  0.1201 -0.0825  0.1659
  767MOL0     C 3442   5.298  11.440   1.581 -0.4348  0.2158 -0.6163
  767MOL0     C 3443   5.381  11.542   1.633  0.0556  0.1836 -0.6229
  767MOL0     C 3444   5.405  11.550   1.774 -0.5390  0.2072  0.5242
  767MOL0     C 3445   5.322  11.474   1.863 -0.1217  0.4095  0.2761
  767MOL0     O 3446   5.321  11.491   1.999  0.3671  0.7528  0.5401
  767MOL0     C 3447   5.398  11.594   2.059  1.0470 -0.6834 -0.7519
  767MOL0     C 3448   5.358  11.615   2.213 -0.3019 -0.1877  0.8106
  767MOL0     C 3449   5.485  11.667   2.292  1.1727 -0.3904  0.3737
  767MOL0     C 3450   5.575  11.553   2.346  0.1204 -0.1832 -0.6664
  767MOL0     C 3451   5.726  11.562   2.315  0.2678 -0.3183 -0.7801
  767MOL0     C 3452   5.791  11.696   2.370 -0.0511 -0.0294 -0.3868
  767MOL0     C 3453   5.759  11.731   2.514 -0.0696  0.5769 -0.2896
  767MOL0     C 3454   5.856  11.656   2.607 -0.1288 -0.0914 -0.1957
  767MOL0    Cl 3455   5.816  11.695   2.779 -0.4188 -0.7525  0.1022
  767MOL0     C 3456   5.253  11.367   1.805 -0.8855 -0.8407 -0.9950
  767MOL0     C 3457   5.241  11.352   1.670 -0.6627  0.4061 -0.7150
  767MOL0     O 3458   5.445  11.309   1.422 -0.7417 -0.8966  0.0793
  767MOL0     C 3459   5.381  11.250   1.163  0.1947  0.1542  1.2872
  767MOL0     C 3460   5.360  11.207   1.024  1.2674  0.0124 -0.5797
  767MOL0     N 3461   5.548  10.953   0.598 -0.9173 -0.6008 -0.7348
  767MOL0     N 3462   5.584  10.895   0.713  0.3845 -0.3284 -0.4696
  767MOL0     C 3463   6.678  10.747   1.138 -0.6405  0.0944 -0.0811
  767MOL0     C 3464   6.813  10.737   1.088  0.4309 -0.4820  0.1969
  767MOL0     C 3465   7.240  10.767   0.973 -0.0758 -0.1415 -1.3327
  767MOL0     C 3466   7.281  10.893   0.925  0.1034 -0.0891  0.5770
  767MOL0     C 3467   7.402  10.907   0.853 -0.1148  0.5901  0.0541
  767MOL0     C 3468   7.490  10.799   0.837  0.2782  0.4821 -0.4875
  767MOL0     O 3469   7.619  10.808   0.794 -0.3428  0.0920 -0.5182
  767MOL0     C 3470   7.693  10.914   0.861  0.4268  0.1766 -0.0053
  767MOL0     C 3471   7.819  10.928   0.790 -0.8503 -0.8015 -0.4512
  767MOL0     C 3472   7.838  10.885   0.637  0.6460  0.2030 -0.4755
  767MOL0     C 3473   7.981  10.890   0.597  0.2165  0.2435  0.0619
  767MOL0     C 3474   8.023  10.786   0.495 -0.0781  0.6461  0.2373
  767MOL0     C 3475   8.075  10.700   0.431 -0.1900  0.0382 -0.8796
  767MOL0     C 3476   7.450  10.675   0.887 -0.0796 -0.7292  0.3204
  767MOL0     C 3477   7.331  10.661   0.952 -0.0103  0.2127 -0.4835
  767MOL0     H 3478   6.939  11.026   1.225 -2.0527  1.9758 -3.2647
  767MOL0     H 3479   6.730  11.033   1.328 -0.1890 -2.4916  2.3186
  767MOL0     H 3480   6.491  10.970   1.431  0.0671  3.8628  0.4504
  767MOL0     H 3481   6.482  11.052   1.268  1.3971  0.3325  2.0836
  767MOL0     H 3482   6.275  10.876   1.404 -0.2898  2.1564  2.0232
  767MOL0     H 3483   6.275  11.053   1.399  1.0069 -1.3146  3.5497
  767MOL0     H 3484   6.250  11.055   1.167 -1.0272  1.0089  1.9462
  767MOL0     H 3485   6.278  10.888   1.139 -0.8369  2.1465 -3.1756
  767MOL0     H 3486   6.073  10.832   1.282  0.9012 -0.7257 -1.6231
  767MOL0     H 3487   6.046  11.017   1.276  2.4896 -0.3252  3.6979
  767MOL0     H 3488   6.048  10.989   1.015 -0.9788  0.4284 -1.1412
  767MOL0     H 3489   6.057  10.811   1.046 -0.6133 -0.2996 -0.1182
  767MOL0     H 3490   5.827  10.822   1.135 -4.3974  2.5987  1.6294
  767MOL0     H 3491   5.832  10.995   1.135 -1.3253 -0.3742  0.4760
  767MOL0     H 3492   5.857  11.006   0.888 -0.5027  2.1143  3.0633
  767MOL0     H 3493   5.829  10.827   0.887  0.0874 -1.3075  1.0246
  767MOL0     H 3494   5.654  11.047   0.997 -0.4869  0.6496  0.6659
  767MOL0     H 3495   5.615  10.872   0.989 -0.4164  1.1811  0.9966
  767MOL0     H 3496   5.691  11.197   0.762 -0.7944  1.0966 -0.7212
  767MOL0     H 3497   5.600  11.286   0.560  1.2963  0.1074 -1.1844
  767MOL0     H 3498   5.594  11.177   0.422  2.1273  1.3489  1.0781
  767MOL0     H 3499   5.352  11.111   0.474  2.3820 -0.3656 -2.0281
  767MOL0     H 3500   5.374  11.287   0.426  0.5679  0.2929  0.7480
  767MOL0     H 3501   5.250  11.324   0.618 -1.4550 -1.1027  1.1148
  767MOL0     H 3502   5.408  11.306   0.691 -0.2080  0.2296  1.3994
  767MOL0     H 3503   5.372  11.098   0.802 -1.7814 -0.6233  2.1541
  767MOL0     H 3504   5.242  11.058   0.701  0.4052  0.0495  1.4826
  767MOL0     H 3505   5.049  11.324   0.998 -2.1885 -0.2446  4.1272
  767MOL0     H 3506   5.036  11.497   1.244 -4.3107 -0.6176  1.3478
  767MOL0     H 3507   4.954  11.356   1.203  1.8100 -0.6045 -2.1552
  767MOL0     H 3508   5.056  11.349   1.347  1.0956 -1.5315 -0.2867
  767MOL0     H 3509   5.437  11.595   1.557  1.9545 -0.9097 -0.0664
  767MOL0     H 3510   5.476  11.626   1.807 -1.7424  0.8145  1.8105
  767MOL0     H 3511   5.506  11.576   2.064  1.3830  1.3349  0.4707
  767MOL0     H 3512   5.391  11.686   2.002 -0.6899  0.5573  1.3057
  767MOL0     H 3513   5.281  11.691   2.228  0.7043  0.8768  0.7250
  767MOL0     H 3514   5.324  11.521   2.258  1.9517  0.2714  3.8396
  767MOL0     H 3515   5.442  11.720   2.377 -2.4055 -0.6296 -1.1282
  767MOL0     H 3516   5.532  11.734   2.220 -1.7581 -2.0779 -3.4505
  767MOL0     H 3517   5.559  11.541   2.454  3.8376 -1.6861 -0.1450
  767MOL0     H 3518   5.539  11.457   2.309  1.3309 -1.6121  1.6085
  767MOL0     H 3519   5.750  11.554   2.209 -1.8457  0.4143 -1.3516
  767MOL0     H 3520   5.762  11.475   2.371 -1.7649  0.2744  1.6657
  767MOL0     H 3521   5.900  11.705   2.361 -0.2745  1.1922 -2.2727
  767MOL0     H 3522   5.754  11.778   2.309  1.3544  1.0705  0.1770
  767MOL0     H 3523   5.655  11.725   2.548  0.7580 -1.4239  2.2769
  767MOL0     H 3524   5.787  11.835   2.531  1.9240  0.0243  0.0526
  767MOL0     H 3525   5.957  11.693   2.588 -0.5447  1.4141  0.3271
  767MOL0     H 3526   5.846  11.548   2.600  0.5284 -0.0717 -2.2931
  767MOL0     H 3527   5.209  11.297   1.876 -0.4017 -0.2158 -0.0584
  767MOL0     H 3528   5.180  11.265   1.648 -3.5369  1.9948  0.4959
  767MOL0     H 3529   5.476  11.219   1.207  0.0578 -1.2146  0.6897
  767MOL0     H 3530   5.440  11.151   0.977  1.2541  0.6799 -1.4356
  767MOL0     H 3531   6.598  10.680   1.109  0.0447  0.9019 -4.5651
  767MOL0     H 3532   6.850  10.655   1.027  1.1033 -2.3529  2.9100
  767MOL0     H 3533   7.214  10.978   0.925 -0.2723 -0.3303 -1.5606
  767MOL0     H 3534   7.430  11.000   0.805  0.5132  0.4900  0.2305
  767MOL0     H 3535   7.639  11.008   0.842  0.0982  0.1109  0.5956
  767MOL0     H 3536   7.692  10.879   0.964 -1.8136 -1.0569 -0.3890
  767MOL0     H 3537   7.885  10.860   0.844  0.0675 -0.1481 -0.7284
  767MOL0     H 3538   7.863  11.028   0.797  1.6921 -1.8929  0.5554
  767MOL0     H 3539   7.763  10.932   0.572 -1.4203 -2.1273  0.0583
  767MOL0     H 3540   7.808  10.780   0.631  0.3981  0.3070 -1.0934
  767MOL0     H 3541   8.050  10.871   0.679  0.8032  0.0630 -0.4648
  767MOL0     H 3542   8.000  10.991   0.560 -0.9880 -0.0004 -1.3047
  767MOL0     H 3543   8.137  10.636   0.371  0.0939 -3.4336  2.6550
  767MOL0     H 3544   7.513  10.586   0.882 -1.6355 -2.0099  2.1532
  767MOL0     H 3545   7.296  10.561   0.974  0.9167  0.6457  3.9264
  768MOL0     O 3546   3.112   6.963   9.466  0.3181 -0.5002 -0.0888
  768MOL0     C 3547   3.186   7.063   9.470 -0.1352  0.7952 -0.2360
  768MOL0     O 3548   3.307   7.069   9.529 -0.0247  0.4662 -0.5696
  768MOL0     C 3549   3.353   6.966   9.607  0.7853 -0.4396  0.1840
  768MOL0     C 3550   3.337   6.981   9.744  0.1696 -0.2735  0.4940
  768MOL0     C 3551   3.365   6.882   9.832  0.2588 -0.4255 -0.1734
  768MOL0     C 3552   3.428   6.767   9.792 -0.4699  0.3479  0.4476
  768MOL0     O 3553   3.470   6.662   9.873  1.0509  0.1680  0.5404
  768MOL0     C 3554   3.464   6.672  10.014  0.4907 -0.9312  0.4559
  768MOL0     C 3555   3.533   6.554  10.072  0.0893  0.5223 -0.5088
  768MOL0     C 3556   3.433   6.473  10.158  0.0171  0.1692 -0.6656
  768MOL0     C 3557   3.524   6.386  10.252  0.0243  0.7484  0.6599
  768MOL0     C 3558   3.450   6.289  10.344 -0.2977 -0.4580 -0.2837
  768MOL0     C 3559   3.551   6.211  10.422 -0.9873  0.6012  0.5642
  768MOL0     C 3560   3.480   6.110  10.513  0.1785 -0.6751  0.5590
  768MOL0     C 3561   3.561   6.036  10.611  0.5723  0.2271  0.3285
  768MOL0     N 3562   3.656   5.952  10.535  0.8650 -1.2662 -0.2328
  768MOL0     C 3563   3.641   5.823  10.504 -0.5542 -0.5293 -0.3632
  768MOL0     C 3564   3.749   5.799  10.432  0.6599 -0.0002  0.2610
  768MOL0     C 3565   3.777   5.671  10.371 -0.0708 -0.1303  0.5742
  768MOL0     C 3566   3.678   5.664  10.247 -0.2052 -0.7228 -0.2441
  768MOL0     C 3567   3.739   5.579  10.135  0.0826 -0.0601  0.0761
  768MOL0     C 3568   3.847   5.649  10.054 -0.1351 -0.1463 -0.5905
  768MOL0     O 3569   3.972   5.625  10.124 -0.9293 -0.3210  0.6994
  768MOL0     C 3570   4.084   5.702  10.089  0.1297 -0.7534 -0.5503
  768MOL0     C 3571   4.098   5.770   9.971 -0.1562 -0.6776  0.2623
  768MOL0     C 3572   4.208   5.851   9.937  0.0956  0.0892  1.9457
  768MOL0     C 3573   4.188   5.939   9.812 -0.4438 -0.1693 -0.6731
  768MOL0     C 3574   4.320   5.844  10.019  0.8880  0.3074  0.3998
  768MOL0     C 3575   4.446   5.903   9.975 -0.2030 -0.9360  0.0928
  768MOL0     O 3576   4.541   5.909  10.078 -0.1013 -0.3634 -0.2733
  768MOL0     C 3577   4.666   5.938  10.038 -0.4543 -0.1489 -0.2309
  768MOL0     C 3578   4.728   6.063  10.066 -0.0076  0.9621 -0.2525
  768MOL0     C 3579   4.849   6.097  10.003 -0.0132  0.1608 -0.6951
  768MOL0     C 3580   4.925   6.005   9.936  0.4240 -0.3030 -0.0296
  768MOL0     O 3581   5.042   6.040   9.879 -0.0132  0.1500 -1.2451
  768MOL0     C 3582   5.118   6.157   9.898 -0.4227 -0.4607 -0.2990
  768MOL0     C 3583   5.263   6.126   9.942  0.0468  0.7836  0.5835
  768MOL0     C 3584   5.331   6.048   9.823 -0.8632  0.0938  0.3194
  768MOL0     C 3585   5.460   5.976   9.856  0.2937  0.1814 -0.2567
  768MOL0     C 3586   5.508   5.908   9.721 -0.0052 -0.3177  0.8038
  768MOL0     C 3587   5.455   5.777   9.687  0.9519  0.0260 -0.4204
  768MOL0     C 3588   5.516   5.730   9.555  0.0218  0.3524 -0.2779
  768MOL0     C 3589   5.415   5.715   9.446  0.3477  0.0440  0.8849
  768MOL0    Cl 3590   5.328   5.867   9.409 -0.2010 -0.2928 -0.0813
  768MOL0     C 3591   4.871   5.878   9.918 -0.0004  0.2232  0.2115
  768MOL0     C 3592   4.738   5.841   9.968  0.7985  0.1639  0.6151
  768MOL0     O 3593   4.462   5.920   9.859  0.2753 -0.5245  0.5941
  768MOL0     C 3594   4.311   5.774  10.141 -0.5207 -0.4567 -0.3499
  768MOL0     C 3595   4.191   5.706  10.173 -0.2346 -0.2965 -0.1735
  768MOL0     N 3596   3.832   5.910  10.422  0.1378 -0.2712 -0.6457
  768MOL0     N 3597   3.782   5.999  10.501  0.2319  0.3490 -0.5716
  768MOL0     C 3598   3.454   6.751   9.647  0.0989  0.5156  0.3132
  768MOL0     C 3599   3.417   6.855   9.556 -0.2517  0.3150 -0.0514
  768MOL0     C 3600   3.124   7.188   9.409  0.3340  0.4280 -0.3043
  768MOL0     C 3601   3.161   7.317   9.462  0.4637 -0.1504  0.7225
  768MOL0     C 3602   3.109   7.441   9.411  0.3925 -0.1050 -1.0574
  768MOL0     C 3603   3.010   7.433   9.316  0.0214 -0.4150  0.2847
  768MOL0     O 3604   2.954   7.543   9.256  0.2834 -0.6301 -0.3904
  768MOL0     C 3605   2.896   7.653   9.338 -1.5596 -0.1540 -0.4882
  768MOL0     C 3606   2.767   7.609   9.394  0.7938  0.2728 -0.0990
  768MOL0     C 3607   2.664   7.580   9.288  0.2385  0.7704  1.2475
  768MOL0     C 3608   2.522   7.534   9.339 -0.1115 -0.1611  0.2597
  768MOL0     C 3609   2.529   7.399   9.404 -0.2549  0.1796  0.0487
  768MOL0     C 3610   2.528   7.290   9.461 -0.9218  0.3744  0.4770
  768MOL0     C 3611   2.962   7.307   9.270  0.2701  0.1063 -0.2781
  768MOL0     C 3612   3.026   7.182   9.315 -1.0195  0.1712  0.3516
  768MOL0     H 3613   3.285   7.071   9.777 -2.6628 -0.5377 -2.6818
  768MOL0     H 3614   3.329   6.884   9.934 -0.4833 -1.3749 -0.3988
  768MOL0     H 3615   3.502   6.769  10.050  0.6045 -0.7563 -0.1269
  768MOL0     H 3616   3.359   6.668  10.043  0.0430 -3.0269 -1.2392
  768MOL0     H 3617   3.561   6.484   9.994 -1.3114 -0.0823 -0.5065
  768MOL0     H 3618   3.617   6.592  10.131 -0.9654  0.0720  1.3804
  768MOL0     H 3619   3.384   6.537  10.232  1.9653  1.5848 -0.5092
  768MOL0     H 3620   3.360   6.410  10.106 -4.1444  0.4794  4.0990
  768MOL0     H 3621   3.589   6.321  10.193 -2.0157  1.2799 -2.3351
  768MOL0     H 3622   3.593   6.453  10.306 -1.8914  2.7332  0.7699
  768MOL0     H 3623   3.401   6.354  10.417 -1.1757  0.4199 -1.6170
  768MOL0     H 3624   3.378   6.233  10.284 -0.4007  1.6764 -2.2679
  768MOL0     H 3625   3.614   6.156  10.352  1.6964 -1.1517  4.0622
  768MOL0     H 3626   3.616   6.272  10.485 -1.5797 -1.2801  3.1842
  768MOL0     H 3627   3.402   6.155  10.575  1.8849  1.3943  1.3081
  768MOL0     H 3628   3.433   6.033  10.451 -0.5295 -0.1821  0.4761
  768MOL0     H 3629   3.507   5.963  10.672  1.0644 -0.2790  0.1605
  768MOL0     H 3630   3.608   6.111  10.676  2.4230  0.4241 -1.1684
  768MOL0     H 3631   3.558   5.754  10.513  0.3474 -1.4719  0.9535
  768MOL0     H 3632   3.885   5.666  10.352  0.3994  0.0070  2.8701
  768MOL0     H 3633   3.768   5.587  10.440 -2.3498  1.2721  2.1169
  768MOL0     H 3634   3.646   5.762  10.208 -2.5401 -0.7101  1.4922
  768MOL0     H 3635   3.584   5.615  10.270 -1.6868  1.7419 -0.6350
  768MOL0     H 3636   3.661   5.572  10.058  2.2872  1.0484 -2.4094
  768MOL0     H 3637   3.773   5.484  10.178 -0.3092 -1.0360 -1.6682
  768MOL0     H 3638   3.817   5.754  10.050  0.3318 -0.0016 -0.3416
  768MOL0     H 3639   3.863   5.600   9.958 -0.3668 -3.5949  0.9877
  768MOL0     H 3640   4.016   5.764   9.899 -0.2907  0.6252  0.2748
  768MOL0     H 3641   4.236   6.038   9.819 -0.7054 -0.1257  0.8241
  768MOL0     H 3642   4.229   5.891   9.722  4.1402  3.2550 -0.8089
  768MOL0     H 3643   4.083   5.964   9.798  0.0416  3.4258  0.8409
  768MOL0     H 3644   4.667   6.132  10.123  0.1707  0.3021  0.7676
  768MOL0     H 3645   4.885   6.198  10.020 -1.6694  0.4185  1.8771
  768MOL0     H 3646   5.130   6.203   9.800 -0.4984  1.4388  0.5217
  768MOL0     H 3647   5.076   6.234   9.964  0.9171 -0.9093  1.1560
  768MOL0     H 3648   5.329   6.210   9.966 -1.0269  1.5041  1.0989
  768MOL0     H 3649   5.253   6.064  10.032  0.2324 -0.2843 -0.1189
  768MOL0     H 3650   5.338   6.123   9.743 -3.4927  1.6277  1.4090
  768MOL0     H 3651   5.263   5.973   9.781 -1.9260  0.1752  1.8243
  768MOL0     H 3652   5.532   6.039   9.908 -0.1673 -1.4199  2.4971
  768MOL0     H 3653   5.440   5.899   9.930 -0.3905  1.5968  1.0878
  768MOL0     H 3654   5.616   5.903   9.739  0.0986  1.3313  0.8630
  768MOL0     H 3655   5.509   5.972   9.632  1.7755  0.5881  1.4005
  768MOL0     H 3656   5.498   5.703   9.755  0.0073  0.0518  0.2199
  768MOL0     H 3657   5.346   5.784   9.697  0.9919  1.5531 -0.9075
  768MOL0     H 3658   5.540   5.623   9.565 -0.2803  0.4335  1.6918
  768MOL0     H 3659   5.596   5.795   9.519  1.6005 -2.6457 -2.7321
  768MOL0     H 3660   5.332   5.650   9.473 -0.1122 -0.0260 -0.5692
  768MOL0     H 3661   5.465   5.675   9.357 -2.1787 -0.6185 -0.3420
  768MOL0     H 3662   4.921   5.805   9.855  0.3092 -1.7375  2.5673
  768MOL0     H 3663   4.685   5.748   9.952  1.2353 -0.0616  0.4704
  768MOL0     H 3664   4.396   5.770  10.207  1.3049  1.6898 -2.3797
  768MOL0     H 3665   4.192   5.655  10.268 -0.5819  0.1388  0.0695
  768MOL0     H 3666   3.493   6.658   9.608 -2.4693 -0.9806  1.0746
  768MOL0     H 3667   3.439   6.835   9.452  0.4377  2.1698 -0.3018
  768MOL0     H 3668   3.236   7.320   9.540  0.2545 -1.7567  1.0297
  768MOL0     H 3669   3.142   7.537   9.451 -1.9658  1.2424 -2.1315
  768MOL0     H 3670   2.968   7.692   9.410 -3.4406 -0.4803  1.6825
  768MOL0     H 3671   2.884   7.740   9.272  1.3412  0.8965  0.2109
  768MOL0     H 3672   2.723   7.688   9.456 -1.2632  1.1487 -2.4805
  768MOL0     H 3673   2.787   7.520   9.453  0.5451  0.1178 -0.2434
  768MOL0     H 3674   2.702   7.501   9.223  0.6177  0.5895  1.6772
  768MOL0     H 3675   2.655   7.674   9.233 -0.2268  1.2148  2.0643
  768MOL0     H 3676   2.464   7.540   9.247  2.3558 -0.1771 -1.3969
  768MOL0     H 3677   2.499   7.618   9.405 -1.1350 -1.4644  1.6294
  768MOL0     H 3678   2.511   7.193   9.503 -0.8502  0.3339  0.4124
  768MOL0     H 3679   2.882   7.312   9.197 -1.9844 -1.0360  1.9415
  768MOL0     H 3680   2.985   7.091   9.273 -0.5434 -0.7128  1.7629
  769MOL0     O 3681  10.941   7.677   5.531  0.8898 -0.3747 -0.2718
  769MOL0     C 3682  11.006   7.599   5.607  0.2619 -0.3505  0.1886
  769MOL0     O 3683  11.129   7.549   5.583 -0.2099 -0.6484 -0.0278
  769MOL0     C 3684  11.200   7.595   5.476  1.0246  0.1128 -0.0107
  769MOL0     C 3685  11.300   7.511   5.420  0.1938  0.2788 -0.0872
  769MOL0     C 3686  11.407   7.561   5.354  0.4977  0.4125  0.0848
  769MOL0     C 3687  11.415   7.698   5.317  0.1344  0.2909  0.4615
  769MOL0     O 3688  11.517   7.748   5.225  0.4599  0.2634 -0.3169
  769MOL0     C 3689  11.612   7.654   5.170  0.2196  0.4271 -0.1760
  769MOL0     C 3690  11.676   7.729   5.063  0.1953  0.9247 -0.5197
  769MOL0     C 3691  11.773   7.634   4.989 -0.2590 -0.5686  1.2380
  769MOL0     C 3692  11.813   7.690   4.856 -0.0515  0.2315  0.3594
  769MOL0     C 3693  11.930   7.598   4.801 -0.1545 -0.3113 -0.1122
  769MOL0     C 3694  11.973   7.652   4.669  0.0691 -0.2782  0.3672
  769MOL0     C 3695  12.075   7.563   4.607 -1.0138  0.5281 -0.8236
  769MOL0     C 3696  12.119   7.602   4.466 -0.0139 -0.1192 -1.1967
  769MOL0     N 3697  12.226   7.511   4.404 -0.8915  0.7175 -1.0767
  769MOL0     C 3698  12.337   7.467   4.473 -0.2395 -0.7083  0.6393
  769MOL0     C 3699  12.375   7.367   4.396 -0.0451 -0.3442  0.0049
  769MOL0     C 3700  12.504   7.292   4.418  0.4219 -0.4100  0.1826
  769MOL0     C 3701  12.488   7.160   4.496  0.6590  0.9455  0.1906
  769MOL0     C 3702  12.615   7.102   4.557 -0.6779  0.0995 -0.7885
  769MOL0     C 3703  12.657   6.972   4.504 -0.2132  0.1710  0.0357
  769MOL0     O 3704  12.767   6.914   4.577 -0.6877  0.1562 -0.3837
  769MOL0     C 3705  12.771   6.777   4.595  0.9903 -0.1892  0.0132
  769MOL0     C 3706  12.747   6.682   4.499  0.1567 -0.1230  1.1336
  769MOL0     C 3707  12.770   6.544   4.517  0.9172 -0.1955  0.0148
  769MOL0     C 3708  12.738   6.447   4.404 -0.1592  0.2055  0.5959
  769MOL0     C 3709  12.820   6.504   4.642  0.6685  0.1227  0.5950
  769MOL0     C 3710  12.853   6.369   4.677 -0.3767 -0.1508 -0.0036
  769MOL0     O 3711  12.744   6.281   4.668  0.1052  0.2800  0.1503
  769MOL0     C 3712  12.746   6.156   4.725  0.3689  0.2521 -0.0666
  769MOL0     C 3713  12.800   6.135   4.857  0.1494 -0.4364  0.7615
  769MOL0     C 3714  12.788   6.018   4.925  0.3808  0.3591  0.1357
  769MOL0     C 3715  12.719   5.907   4.862 -0.4264  0.2128  0.6737
  769MOL0     O 3716  12.701   5.788   4.938  0.4563 -0.9713 -0.1319
  769MOL0     C 3717  12.730   5.673   4.857 -0.5662  0.1556 -0.7504
  769MOL0     C 3718  12.781   5.560   4.953  0.4873 -0.1416  0.5380
  769MOL0     C 3719  12.682   5.472   5.025  0.1904  0.7012 -0.9451
  769MOL0     C 3720  12.617   5.371   4.925 -0.7523  0.0756  0.6972
  769MOL0     C 3721  12.496   5.288   4.967  1.0642  0.8896 -0.1350
  769MOL0     C 3722  12.533   5.154   5.048  0.4511 -0.8462  0.7104
  769MOL0     C 3723  12.436   5.116   5.156 -0.1492 -0.1938 -0.1122
  769MOL0     C 3724  12.288   5.134   5.133 -0.2363 -0.0863 -0.9436
  769MOL0    Cl 3725  12.228   5.070   4.968  0.5887 -0.5508 -0.1581
  769MOL0     C 3726  12.680   5.926   4.729 -0.1736  0.0355 -0.1621
  769MOL0     C 3727  12.681   6.048   4.657  0.6941 -0.2988 -1.6688
  769MOL0     O 3728  12.965   6.344   4.701  0.4848  0.3280  0.0772
  769MOL0     C 3729  12.842   6.597   4.743 -0.0646  0.3674 -0.2164
  769MOL0     C 3730  12.831   6.734   4.719 -0.0259  0.6279 -0.5368
  769MOL0     N 3731  12.298   7.358   4.281 -0.0863 -0.0585  0.5184
  769MOL0     N 3732  12.208   7.447   4.287  0.7233 -0.7469 -0.3555
  769MOL0     C 3733  11.322   7.780   5.369  0.5990  0.4811  0.6900
  769MOL0     C 3734  11.217   7.732   5.444 -0.0051 -0.1379 -0.4705
  769MOL0     C 3735  10.959   7.584   5.741  0.1111  0.3783  0.2245
  769MOL0     C 3736  11.000   7.485   5.826  0.2330  0.5943 -0.4964
  769MOL0     C 3737  10.952   7.487   5.967  0.1756 -0.3118 -0.4077
  769MOL0     C 3738  10.859   7.584   6.008  0.0207 -0.2974  0.4980
  769MOL0     O 3739  10.835   7.599   6.143  1.3187  0.2839 -0.3306
  769MOL0     C 3740  10.742   7.691   6.200  0.8916 -0.8871 -0.1931
  769MOL0     C 3741  10.813   7.821   6.220  0.3651 -0.4096  0.6388
  769MOL0     C 3742  10.869   7.829   6.358  0.1217  0.0072 -0.7267
  769MOL0     C 3743  10.957   7.952   6.363 -0.8679  0.4014 -0.3036
  769MOL0     C 3744  11.043   7.953   6.480  0.5661 -0.4594  1.0156
  769MOL0     C 3745  11.110   7.964   6.576 -0.8175 -0.1660  0.0342
  769MOL0     C 3746  10.819   7.675   5.915  0.2863 -0.2193  0.5741
  769MOL0     C 3747  10.860   7.671   5.786 -0.2633  0.8318  0.4538
  769MOL0     H 3748  11.311   7.408   5.450 -0.3926  0.4004  0.5614
  769MOL0     H 3749  11.469   7.476   5.328  0.3149 -0.0651  1.1641
  769MOL0     H 3750  11.681   7.629   5.251 -1.0159  0.2139  0.8525
  769MOL0     H 3751  11.560   7.577   5.113  1.3427  1.1765 -2.3052
  769MOL0     H 3752  11.612   7.777   4.989 -0.9702 -1.8544 -1.4729
  769MOL0     H 3753  11.733   7.805   5.117  0.6483 -0.0950  0.4837
  769MOL0     H 3754  11.866   7.629   5.046  0.7241 -1.5172 -0.3888
  769MOL0     H 3755  11.732   7.533   4.981 -2.9324  0.6156 -2.3090
  769MOL0     H 3756  11.746   7.674   4.772  1.1242 -2.9151 -0.1211
  769MOL0     H 3757  11.848   7.793   4.852  2.9202 -0.6901 -0.3957
  769MOL0     H 3758  12.018   7.597   4.866 -0.6331  1.1747  0.5934
  769MOL0     H 3759  11.892   7.496   4.802 -0.7812 -0.0849 -0.2779
  769MOL0     H 3760  11.890   7.668   4.599  0.7152 -1.0449 -0.5974
  769MOL0     H 3761  12.024   7.748   4.678  3.5276 -1.9802  0.5871
  769MOL0     H 3762  12.165   7.570   4.668 -0.5981  1.3402 -1.5085
  769MOL0     H 3763  12.037   7.462   4.594 -0.6842  0.2078  0.6239
  769MOL0     H 3764  12.154   7.705   4.460  1.2137 -0.5505 -1.7205
  769MOL0     H 3765  12.032   7.585   4.402  0.5286 -1.4433 -1.6166
  769MOL0     H 3766  12.384   7.522   4.554 -0.8955  0.0290  0.5361
  769MOL0     H 3767  12.534   7.270   4.315 -1.0449 -0.6244 -0.2162
  769MOL0     H 3768  12.574   7.358   4.470 -0.4151  1.3802 -0.8952
  769MOL0     H 3769  12.440   7.089   4.429 -0.8876  1.1917  0.9827
  769MOL0     H 3770  12.420   7.175   4.581  1.0200 -1.4429  0.9859
  769MOL0     H 3771  12.596   7.094   4.665 -4.1341  1.7026 -1.1204
  769MOL0     H 3772  12.702   7.169   4.554  1.3407 -2.2879  0.7943
  769MOL0     H 3773  12.689   6.987   4.400  0.5635  0.8405  0.3673
  769MOL0     H 3774  12.567   6.910   4.509 -2.1395  2.8877  1.7605
  769MOL0     H 3775  12.705   6.718   4.406 -1.1808  1.3190  2.2302
  769MOL0     H 3776  12.655   6.489   4.346  2.1474  2.5882 -1.2625
  769MOL0     H 3777  12.823   6.447   4.335  1.3539  2.0623  2.3427
  769MOL0     H 3778  12.721   6.343   4.432  1.0904  0.6519  3.2574
  769MOL0     H 3779  12.857   6.219   4.896 -0.0416  0.9819 -1.7919
  769MOL0     H 3780  12.817   6.010   5.029 -1.4404  1.1568  0.7609
  769MOL0     H 3781  12.649   5.643   4.791 -1.8221  3.9390 -1.1948
  769MOL0     H 3782  12.807   5.689   4.781 -1.6127  0.9096 -1.6916
  769MOL0     H 3783  12.843   5.491   4.893  0.5644 -1.2600  1.8501
  769MOL0     H 3784  12.856   5.611   5.014  0.0305  2.7864 -1.1641
  769MOL0     H 3785  12.613   5.538   5.078 -1.4331 -2.5036  1.2829
  769MOL0     H 3786  12.726   5.420   5.111 -0.5781 -0.7874 -1.4149
  769MOL0     H 3787  12.589   5.435   4.840 -0.2128  2.0755  1.9692
  769MOL0     H 3788  12.698   5.302   4.901 -0.0645  0.7531  1.0020
  769MOL0     H 3789  12.458   5.252   4.871 -0.3417  0.8124  0.4215
  769MOL0     H 3790  12.417   5.352   5.008  1.2296  0.2729  1.2268
  769MOL0     H 3791  12.530   5.073   4.973  0.7911 -0.0509 -0.1835
  769MOL0     H 3792  12.637   5.160   5.081  0.5815  0.1837  0.1404
  769MOL0     H 3793  12.469   5.176   5.241  0.6495 -1.1536  0.2796
  769MOL0     H 3794  12.458   5.010   5.175  0.3774 -0.0001  0.3850
  769MOL0     H 3795  12.261   5.239   5.144  0.2971  0.0603 -0.9957
  769MOL0     H 3796  12.235   5.074   5.207  3.0745 -0.8632  1.0118
  769MOL0     H 3797  12.649   5.839   4.673  1.9679 -0.3851 -0.7631
  769MOL0     H 3798  12.660   6.077   4.555 -1.0002  2.5754 -0.6275
  769MOL0     H 3799  12.902   6.570   4.830  0.7369  1.0693 -0.5353
  769MOL0     H 3800  12.862   6.800   4.799  0.7258 -0.1581 -0.1645
  769MOL0     H 3801  11.321   7.885   5.343 -0.4373 -0.0011 -1.4053
  769MOL0     H 3802  11.164   7.815   5.492  1.5121  2.9549 -3.6963
  769MOL0     H 3803  11.078   7.416   5.797  0.9813  1.1160  0.2381
  769MOL0     H 3804  10.978   7.415   6.044 -0.4309 -0.7563 -0.6207
  769MOL0     H 3805  10.655   7.710   6.135 -0.4776  2.2104  2.2805
  769MOL0     H 3806  10.693   7.649   6.288 -2.8698 -0.0812 -1.7084
  769MOL0     H 3807  10.739   7.901   6.209 -1.3502 -2.0492 -0.3118
  769MOL0     H 3808  10.889   7.827   6.142  0.4371  0.1567  0.7462
  769MOL0     H 3809  10.929   7.741   6.384  2.0279  0.7320 -2.4017
  769MOL0     H 3810  10.793   7.840   6.435  0.2796 -1.6004 -0.3043
  769MOL0     H 3811  10.900   8.046   6.362 -1.5195  0.0986 -3.7224
  769MOL0     H 3812  11.029   7.961   6.281  1.6366 -0.3537  1.6585
  769MOL0     H 3813  11.172   7.963   6.664  0.5831 -1.3654 -0.9104
  769MOL0     H 3814  10.749   7.755   5.941 -1.4407 -1.7438  0.8220
  769MOL0     H 3815  10.838   7.760   5.728 -1.7571  1.0847  1.3690
  770MOL0     O 3816   0.088   0.445   0.532  0.0602  0.0991 -0.0686
  770MOL0     C 3817   0.163   0.510   0.608 -0.3544  0.1859  0.3775
  770MOL0     O 3818   0.209   0.631   0.586 -0.1605 -0.3162 -0.4268
  770MOL0     C 3819   0.204   0.687   0.462 -0.2036  0.0460  0.4577
  770MOL0     C 3820   0.180   0.824   0.459  1.5572  0.9195 -0.1474
  770MOL0     C 3821   0.154   0.896   0.337 -0.7149  0.0753  0.2845
  770MOL0     C 3822   0.173   0.827   0.211  0.0571 -0.2404 -0.4186
  770MOL0     O 3823   0.174   0.887   0.090  0.4152 -0.3987 -1.0412
  770MOL0     C 3824   0.048   0.963   0.049 -0.2536  0.4736 -1.1375
  770MOL0     C 3825   0.072   1.039  -0.072  0.0687  0.2454  1.3024
  770MOL0     C 3826   0.113   0.975  -0.206 -0.0127  0.4867 -0.3634
  770MOL0     C 3827   0.210   1.072  -0.288  0.0953 -0.2280 -0.4091
  770MOL0     C 3828   0.255   0.993  -0.408 -0.4473 -0.3678 -0.8118
  770MOL0     C 3829   0.280   1.092  -0.526  0.1530  0.0436  0.2072
  770MOL0     C 3830   0.339   1.233  -0.499  0.0453 -0.2270 -0.4003
  770MOL0     C 3831   0.492   1.230  -0.453 -0.6873 -0.1193  0.6764
  770MOL0     N 3832   0.582   1.182  -0.566 -0.1713 -0.0471 -0.4172
  770MOL0     C 3833   0.640   1.271  -0.652 -0.4172 -0.2182 -1.4278
  770MOL0     C 3834   0.737   1.192  -0.700 -0.2012 -0.1055  0.1881
  770MOL0     C 3835   0.857   1.228  -0.792 -0.8359 -0.1422 -0.1906
  770MOL0     C 3836   0.990   1.223  -0.722  0.2585 -1.1675  0.0498
  770MOL0     C 3837   1.087   1.109  -0.760 -0.3098 -0.4223  0.5195
  770MOL0     C 3838   1.225   1.124  -0.705  0.4955  0.4870  0.1271
  770MOL0     O 3839   1.303   1.058  -0.808 -0.4414 -0.4492  0.0461
  770MOL0     C 3840   1.437   1.081  -0.805 -0.4774  0.1370 -0.3178
  770MOL0     C 3841   1.512   1.013  -0.901 -0.6572 -0.8958  0.6620
  770MOL0     C 3842   1.650   1.022  -0.905 -0.1732 -0.7859  1.2105
  770MOL0     C 3843   1.720   0.933  -1.010 -0.3718  0.4800  0.8010
  770MOL0     C 3844   1.716   1.090  -0.796  0.9213 -0.1748  0.2017
  770MOL0     C 3845   1.864   1.096  -0.770  0.0731 -0.4807 -0.6923
  770MOL0     O 3846   1.907   1.151  -0.655  0.2216  0.0121  0.0211
  770MOL0     C 3847   2.044   1.169  -0.631  0.3446 -0.6850  0.1830
  770MOL0     C 3848   2.099   1.296  -0.661 -0.3874  0.0194 -0.0161
  770MOL0     C 3849   2.232   1.323  -0.650 -0.4156  0.0132  0.0343
  770MOL0     C 3850   2.311   1.226  -0.586 -0.1153 -0.0582 -0.8416
  770MOL0     O 3851   2.448   1.247  -0.585  0.2105  0.2915  0.2150
  770MOL0     C 3852   2.508   1.191  -0.705  0.0090 -0.2760  0.1787
  770MOL0     C 3853   2.638   1.267  -0.715 -0.3758 -0.6266  0.6663
  770MOL0     C 3854   2.723   1.267  -0.831  0.5534  0.1619  0.3387
  770MOL0     C 3855   2.849   1.348  -0.802 -0.1012  0.7369  0.1009
  770MOL0     C 3856   2.931   1.337  -0.924  0.4658 -0.0456 -0.5772
  770MOL0     C 3857   3.072   1.394  -0.896 -0.3236 -0.0980 -0.2236
  770MOL0     C 3858   3.076   1.543  -0.839  0.6078  0.0960 -0.3716
  770MOL0     C 3859   3.227   1.565  -0.809 -0.1431 -0.0155 -0.1826
  770MOL0    Cl 3860   3.323   1.571  -0.959 -0.3505 -0.0668  0.0829
  770MOL0     C 3861   2.259   1.104  -0.548 -0.6065  0.2587 -0.8576
  770MOL0     C 3862   2.128   1.069  -0.574  0.5476 -0.0995 -0.5626
  770MOL0     O 3863   1.930   1.047  -0.854 -0.5644  0.5934  0.0360
  770MOL0     C 3864   1.642   1.157  -0.696  0.4332  0.1761 -0.0969
  770MOL0     C 3865   1.501   1.167  -0.712 -0.7114 -0.1394 -0.0201
  770MOL0     N 3866   0.710   1.057  -0.674  0.0576  0.6756 -0.0212
  770MOL0     N 3867   0.620   1.051  -0.580 -0.3240 -0.9944 -0.0261
  770MOL0     C 3868   0.184   0.687   0.223  0.1602  0.0354  0.7582
  770MOL0     C 3869   0.217   0.625   0.341  0.1957  0.5269  0.3641
  770MOL0     C 3870   0.214   0.456   0.735 -0.6149  0.9855 -0.4240
  770MOL0     C 3871   0.199   0.321   0.753  0.0873 -0.1778 -0.3617
  770MOL0     C 3872   0.231   0.266   0.878  0.3623  0.3098 -0.0299
  770MOL0     C 3873   0.287   0.340   0.977  0.9602  0.1598  0.0287
  770MOL0     O 3874   0.316   0.272   1.091 -0.9319 -0.3234  0.6060
  770MOL0     C 3875   0.219   0.280   1.199  0.2990  0.1005 -0.3279
  770MOL0     C 3876   0.223   0.424   1.269  0.8335  0.6026 -0.0506
  770MOL0     C 3877   0.365   0.460   1.320  0.4761 -0.4832 -0.3194
  770MOL0     C 3878   0.383   0.587   1.397 -0.6442 -0.1256  0.0258
  770MOL0     C 3879   0.387   0.703   1.306  0.0413  1.2520 -0.1657
  770MOL0     C 3880   0.367   0.810   1.248  0.5415 -0.0328  0.3729
  770MOL0     C 3881   0.309   0.475   0.957  0.2157 -0.6931 -0.5608
  770MOL0     C 3882   0.278   0.534   0.835  0.4937  0.3191  0.0073
  770MOL0     H 3883   0.163   0.882   0.549  1.1600 -1.6936  1.5587
  770MOL0     H 3884   0.133   1.002   0.350 -0.2338  0.0442  1.4481
  770MOL0     H 3885  -0.034   0.893   0.031 -0.9803  1.3185 -1.1888
  770MOL0     H 3886   0.019   1.032   0.129  1.8675  0.4629 -0.2907
  770MOL0     H 3887  -0.022   1.090  -0.095 -0.1373 -1.0347 -1.0221
  770MOL0     H 3888   0.140   1.120  -0.046  1.6706  0.0733 -1.8783
  770MOL0     H 3889   0.166   0.880  -0.199 -0.7847 -0.1263 -2.1612
  770MOL0     H 3890   0.027   0.950  -0.268  1.0048 -3.2139 -0.4893
  770MOL0     H 3891   0.152   1.160  -0.316  0.1832  1.3464  3.7037
  770MOL0     H 3892   0.293   1.113  -0.230 -0.0043 -1.9642  1.0609
  770MOL0     H 3893   0.344   0.933  -0.386 -1.4156 -1.5664 -0.0339
  770MOL0     H 3894   0.179   0.918  -0.434 -0.2046 -1.1883  0.7211
  770MOL0     H 3895   0.338   1.030  -0.595 -0.3711 -2.2655  1.7053
  770MOL0     H 3896   0.181   1.103  -0.570  0.5750 -0.8432 -1.0211
  770MOL0     H 3897   0.339   1.298  -0.587 -0.4885  4.5958  2.7546
  770MOL0     H 3898   0.275   1.283  -0.425  0.5671  0.0031 -0.1025
  770MOL0     H 3899   0.512   1.166  -0.367  2.4892 -0.1063  0.0430
  770MOL0     H 3900   0.525   1.328  -0.417 -0.6125  1.0548 -2.3266
  770MOL0     H 3901   0.622   1.377  -0.661 -0.8392  0.2351  2.7350
  770MOL0     H 3902   0.857   1.165  -0.882  0.3639 -0.2886 -0.0972
  770MOL0     H 3903   0.841   1.328  -0.835  0.2803 -0.2634 -0.9200
  770MOL0     H 3904   0.985   1.217  -0.613  1.8913 -2.5950  0.1064
  770MOL0     H 3905   1.045   1.313  -0.750 -3.7265  1.3992 -0.2924
  770MOL0     H 3906   1.086   1.102  -0.869 -3.4905 -2.0382  0.5232
  770MOL0     H 3907   1.055   1.013  -0.719  1.2801 -1.0795  0.2778
  770MOL0     H 3908   1.229   1.061  -0.616 -2.7012  0.8862  0.6710
  770MOL0     H 3909   1.248   1.224  -0.666 -0.3583  0.2537  1.2792
  770MOL0     H 3910   1.462   0.948  -0.973  1.0718 -0.6306 -0.8508
  770MOL0     H 3911   1.732   0.831  -0.973 -2.9141 -0.6277 -1.1422
  770MOL0     H 3912   1.672   0.911  -1.106  1.4022  3.4865 -0.9061
  770MOL0     H 3913   1.808   0.990  -1.042 -1.6996  2.5491  0.6372
  770MOL0     H 3914   2.040   1.375  -0.706  1.3259  0.2506 -2.0245
  770MOL0     H 3915   2.283   1.409  -0.692 -0.9050  0.5584  0.5478
  770MOL0     H 3916   2.529   1.084  -0.696 -0.4065 -0.3051  0.8130
  770MOL0     H 3917   2.443   1.206  -0.793  3.5683 -1.0227 -2.8240
  770MOL0     H 3918   2.610   1.367  -0.680 -0.6687 -0.0879 -1.0053
  770MOL0     H 3919   2.700   1.226  -0.635  1.3979 -1.0148 -0.8367
  770MOL0     H 3920   2.669   1.303  -0.920 -2.8176  1.0059  2.5391
  770MOL0     H 3921   2.741   1.160  -0.842  1.0343  0.1179  1.4790
  770MOL0     H 3922   2.832   1.456  -0.793  1.6858  0.9957  0.9504
  770MOL0     H 3923   2.902   1.313  -0.713  1.0379 -1.3904 -1.3320
  770MOL0     H 3924   2.879   1.385  -1.007 -0.0070 -0.3657 -0.4715
  770MOL0     H 3925   2.936   1.231  -0.951 -1.0878 -0.2123 -0.2989
  770MOL0     H 3926   3.126   1.324  -0.831 -1.5670  0.6388  1.6956
  770MOL0     H 3927   3.118   1.395  -0.995  1.5717 -1.2272  0.5821
  770MOL0     H 3928   3.017   1.548  -0.747 -0.8674 -0.7945 -1.2460
  770MOL0     H 3929   3.042   1.618  -0.910  2.0114 -0.1855 -1.3894
  770MOL0     H 3930   3.259   1.490  -0.736 -1.2544  0.3145  0.6558
  770MOL0     H 3931   3.244   1.660  -0.757  0.9925 -1.3331  2.0212
  770MOL0     H 3932   2.313   1.032  -0.488 -1.4761  1.2878  1.2967
  770MOL0     H 3933   2.091   0.977  -0.531 -2.0171  1.7292  1.4683
  770MOL0     H 3934   1.692   1.209  -0.615  2.0083 -1.5144  0.0870
  770MOL0     H 3935   1.454   1.222  -0.631  1.0061  0.7739  0.4094
  770MOL0     H 3936   0.187   0.625   0.134  0.7955 -2.3032  2.3059
  770MOL0     H 3937   0.248   0.521   0.339  3.6183  1.4141  0.1643
  770MOL0     H 3938   0.167   0.253   0.675 -1.6892 -0.2463  0.3678
  770MOL0     H 3939   0.202   0.161   0.882  1.1014  0.0643 -0.8656
  770MOL0     H 3940   0.120   0.256   1.159  0.2504 -0.5103  0.1392
  770MOL0     H 3941   0.245   0.198   1.267 -3.3770 -0.8969  0.0885
  770MOL0     H 3942   0.146   0.441   1.344  0.0790  1.9076 -1.0738
  770MOL0     H 3943   0.198   0.501   1.195 -1.2406 -1.8424 -2.0825
  770MOL0     H 3944   0.428   0.469   1.231 -0.2926 -0.6662 -0.8902
  770MOL0     H 3945   0.401   0.385   1.390  0.2031  0.7706  1.2203
  770MOL0     H 3946   0.476   0.586   1.454 -0.1664  1.3953 -0.6752
  770MOL0     H 3947   0.300   0.602   1.466 -2.5074 -0.0769 -2.1060
  770MOL0     H 3948   0.340   0.908   1.213  0.8893  1.3017  3.4936
  770MOL0     H 3949   0.356   0.528   1.039  1.8045 -0.1755 -1.7693
  770MOL0     H 3950   0.283   0.640   0.812 -0.9526  0.6481  1.0709
  771MOL0     O 3951  11.324   2.809   0.547 -0.2232  1.0645  0.4174
  771MOL0     C 3952  11.211   2.838   0.505 -0.1695 -0.4836 -0.3843
  771MOL0     O 3953  11.194   2.933   0.401 -0.4692  0.2839  0.2419
  771MOL0     C 3954  11.310   2.982   0.344  0.3438 -0.1771  0.2445
  771MOL0     C 3955  11.378   2.911   0.233 -0.1995  0.1624 -0.0384
  771MOL0     C 3956  11.479   2.981   0.158 -0.6413  0.1011 -0.7149
  771MOL0     C 3957  11.524   3.101   0.203  0.7574  0.1236  0.5021
  771MOL0     O 3958  11.617   3.170   0.134 -0.1285 -0.4543 -0.0588
  771MOL0     C 3959  11.634   3.129  -0.004 -0.7365 -0.8305  0.5320
  771MOL0     C 3960  11.750   3.205  -0.066 -0.0117  0.0057  0.0964
  771MOL0     C 3961  11.746   3.210  -0.220 -1.0737  0.1144  0.0365
  771MOL0     C 3962  11.879   3.266  -0.277 -0.3096 -0.8666 -0.0437
  771MOL0     C 3963  11.863   3.308  -0.415 -0.2686  0.2575  0.8905
  771MOL0     C 3964  11.993   3.374  -0.470  0.3067  0.0342 -1.1785
  771MOL0     C 3965  11.979   3.455  -0.603 -0.3883  0.6079 -0.4562
  771MOL0     C 3966  11.929   3.364  -0.717 -0.3472 -0.5336  0.5027
  771MOL0     N 3967  11.984   3.429  -0.840 -0.1340  0.0291 -0.4113
  771MOL0     C 3968  11.914   3.536  -0.903  0.3119 -0.1725 -0.3024
  771MOL0     C 3969  12.002   3.577  -1.003 -0.6329  0.3244 -0.5155
  771MOL0     C 3970  12.004   3.690  -1.092 -0.7441 -0.8311  0.4758
  771MOL0     C 3971  11.998   3.632  -1.237 -0.5492  1.4139  0.7080
  771MOL0     C 3972  11.975   3.723  -1.360  0.2513  0.4021  0.1291
  771MOL0     C 3973  11.833   3.795  -1.371  0.0277 -0.2289  0.4923
  771MOL0     O 3974  11.729   3.699  -1.387  0.0492  0.4817 -0.1275
  771MOL0     C 3975  11.671   3.659  -1.269  0.7464 -0.0221 -0.8640
  771MOL0     C 3976  11.622   3.750  -1.178 -0.3098 -0.9785  0.2226
  771MOL0     C 3977  11.566   3.702  -1.059  0.4384  0.3669 -0.6961
  771MOL0     C 3978  11.515   3.807  -0.969  0.2239 -0.0243  0.3923
  771MOL0     C 3979  11.567   3.562  -1.027 -0.0425  1.0167  0.5466
  771MOL0     C 3980  11.521   3.502  -0.901 -0.9343  0.8364 -0.4535
  771MOL0     O 3981  11.388   3.525  -0.879 -0.3692 -0.1213 -0.3035
  771MOL0     C 3982  11.334   3.486  -0.760  0.7424  0.3966 -0.3472
  771MOL0     C 3983  11.229   3.392  -0.759 -0.4541 -0.6519 -0.5060
  771MOL0     C 3984  11.172   3.345  -0.639 -0.3254 -0.0923 -0.1490
  771MOL0     C 3985  11.208   3.394  -0.518 -0.5037  0.3207  0.2158
  771MOL0     O 3986  11.148   3.356  -0.406 -0.0315 -0.3297 -0.3407
  771MOL0     C 3987  11.022   3.410  -0.363 -0.7086  0.4444  0.0940
  771MOL0     C 3988  11.014   3.476  -0.219  0.0571  0.3271 -0.3339
  771MOL0     C 3989  11.081   3.617  -0.234 -0.2557  0.3060 -0.5538
  771MOL0     C 3990  10.993   3.720  -0.159  0.1287 -0.6638  0.8308
  771MOL0     C 3991  11.062   3.852  -0.179 -1.0786 -0.3779  0.0085
  771MOL0     C 3992  10.980   3.976  -0.165  0.1133 -0.1184  0.1722
  771MOL0     C 3993  11.075   4.099  -0.159  0.6241 -0.5392  1.2427
  771MOL0     C 3994  10.998   4.225  -0.123 -0.3220 -0.8545  0.7041
  771MOL0    Cl 3995  11.073   4.361  -0.205 -0.8343 -0.1317  0.5012
  771MOL0     C 3996  11.312   3.493  -0.511  0.0252  0.3777 -0.1591
  771MOL0     C 3997  11.382   3.536  -0.633  0.1052 -0.0859  0.6631
  771MOL0     O 3998  11.606   3.463  -0.820 -0.4993 -0.7591  0.5141
  771MOL0     C 3999  11.613   3.475  -1.125  0.1723  0.6456 -0.0463
  771MOL0     C 4000  11.667   3.529  -1.244  0.0149 -0.1841 -0.2763
  771MOL0     N 4001  12.105   3.478  -1.006  0.1419 -0.5440 -0.4879
  771MOL0     N 4002  12.087   3.384  -0.916  0.1509 -0.0396  0.7057
  771MOL0     C 4003  11.472   3.164   0.322 -0.1935  0.4946 -0.5700
  771MOL0     C 4004  11.367   3.104   0.389 -0.4592  0.7318 -0.3452
  771MOL0     C 4005  11.102   2.750   0.550  0.2819 -0.5703  1.2008
  771MOL0     C 4006  10.987   2.735   0.464  0.2596 -0.1951 -0.2364
  771MOL0     C 4007  10.879   2.654   0.491  0.2577 -0.0727  0.8530
  771MOL0     C 4008  10.886   2.571   0.602 -0.2506  0.5479 -0.1648
  771MOL0     O 4009  10.773   2.494   0.637  0.1470 -0.5048  0.9261
  771MOL0     C 4010  10.755   2.425   0.768 -0.0270 -0.4531  0.5617
  771MOL0     C 4011  10.836   2.298   0.775 -0.2993  1.3725 -0.9214
  771MOL0     C 4012  10.828   2.222   0.909  0.4117  0.1825  0.0402
  771MOL0     C 4013  10.709   2.114   0.912 -1.1181 -0.3688  0.1791
  771MOL0     C 4014  10.695   2.058   1.048  1.0844 -0.2578 -0.4437
  771MOL0     C 4015  10.709   1.992   1.154  1.0614  0.5799 -0.2462
  771MOL0     C 4016  10.996   2.589   0.685  0.3440  0.1300  0.1832
  771MOL0     C 4017  11.102   2.678   0.661 -0.3040  0.5240  0.2029
  771MOL0     H 4018  11.347   2.808   0.216 -2.5485  0.3200  2.4594
  771MOL0     H 4019  11.512   2.923   0.072 -2.9781  2.4393 -3.4270
  771MOL0     H 4020  11.649   3.021  -0.006  0.5489 -0.7007  1.7461
  771MOL0     H 4021  11.552   3.164  -0.068  1.2042  1.0353 -1.0961
  771MOL0     H 4022  11.747   3.306  -0.022  0.3288  0.5795 -1.1753
  771MOL0     H 4023  11.843   3.157  -0.034  0.2973  1.9903  2.4976
  771MOL0     H 4024  11.730   3.108  -0.256  1.8178  0.2036 -1.8532
  771MOL0     H 4025  11.666   3.268  -0.268 -1.8820 -2.1964 -1.5491
  771MOL0     H 4026  11.911   3.354  -0.220 -0.0151 -0.0177 -1.4626
  771MOL0     H 4027  11.951   3.184  -0.269  0.5573 -0.0402  0.8252
  771MOL0     H 4028  11.839   3.218  -0.472  1.1161  0.4471 -0.0407
  771MOL0     H 4029  11.788   3.387  -0.425 -2.6583 -2.1617 -1.6863
  771MOL0     H 4030  12.024   3.441  -0.389  0.7766 -3.1011  1.4617
  771MOL0     H 4031  12.068   3.297  -0.492 -0.3193 -0.5906 -1.1783
  771MOL0     H 4032  11.912   3.537  -0.580 -1.2028 -0.7355  2.3902
  771MOL0     H 4033  12.076   3.503  -0.622  0.5984 -1.2115 -0.3377
  771MOL0     H 4034  11.820   3.353  -0.718 -0.1668 -2.8675  0.9830
  771MOL0     H 4035  11.962   3.260  -0.709  1.3470  0.1357  4.1871
  771MOL0     H 4036  11.817   3.570  -0.867  1.4722  2.6526  0.4302
  771MOL0     H 4037  11.931   3.765  -1.062  2.2492  1.5631  2.4031
  771MOL0     H 4038  12.101   3.739  -1.077 -1.0673 -0.1393  0.3486
  771MOL0     H 4039  11.926   3.551  -1.242 -0.8254  1.7322 -0.8490
  771MOL0     H 4040  12.098   3.589  -1.244 -0.1961  2.4702 -2.0339
  771MOL0     H 4041  11.999   3.666  -1.451  0.5468 -0.2151  0.5834
  771MOL0     H 4042  12.045   3.807  -1.359 -0.3241  0.9232 -1.1202
  771MOL0     H 4043  11.828   3.857  -1.461  1.2268 -0.0827  0.5120
  771MOL0     H 4044  11.828   3.870  -1.291  3.1344  2.9552 -1.9785
  771MOL0     H 4045  11.623   3.854  -1.208 -0.2514 -1.0782 -0.1241
  771MOL0     H 4046  11.445   3.760  -0.899  0.5136 -1.6030 -0.3430
  771MOL0     H 4047  11.594   3.859  -0.913 -0.2234  0.3231  0.7119
  771MOL0     H 4048  11.461   3.877  -1.034  1.5052 -0.2652 -1.0068
  771MOL0     H 4049  11.185   3.355  -0.851 -3.8055  3.2075 -0.7499
  771MOL0     H 4050  11.094   3.270  -0.645  0.3750 -0.7228 -2.0755
  771MOL0     H 4051  11.000   3.495  -0.429  3.2648  0.4039 -1.5724
  771MOL0     H 4052  10.947   3.331  -0.366  1.4423 -1.6831 -0.4313
  771MOL0     H 4053  10.913   3.495  -0.181  0.0823  1.2380 -0.7089
  771MOL0     H 4054  11.054   3.407  -0.144 -2.0356 -0.2617  0.3132
  771MOL0     H 4055  11.086   3.649  -0.338  0.2634  0.3035 -0.5286
  771MOL0     H 4056  11.181   3.618  -0.190 -0.5226  0.8737  0.0475
  771MOL0     H 4057  10.894   3.727  -0.203  0.6090  1.7502 -0.0317
  771MOL0     H 4058  10.971   3.697  -0.054 -4.6914 -1.7103 -0.1628
  771MOL0     H 4059  11.106   3.854  -0.280  3.0503 -1.1934  1.5804
  771MOL0     H 4060  11.153   3.870  -0.121 -1.3299  3.5346 -0.5323
  771MOL0     H 4061  10.921   3.995  -0.255 -2.0136 -0.7031  1.3807
  771MOL0     H 4062  10.915   3.957  -0.078 -0.3604 -0.0606 -0.1680
  771MOL0     H 4063  11.100   4.113  -0.264  2.0341 -1.0261  1.4943
  771MOL0     H 4064  11.162   4.094  -0.093  1.3622  0.7868  0.3990
  771MOL0     H 4065  10.985   4.248  -0.016 -1.1810  5.0689 -0.3361
  771MOL0     H 4066  10.897   4.223  -0.164  0.1992  2.8812 -1.1621
  771MOL0     H 4067  11.334   3.519  -0.408 -2.3721  1.0065  0.2534
  771MOL0     H 4068  11.459   3.613  -0.632  0.8222 -0.7931  0.1586
  771MOL0     H 4069  11.629   3.368  -1.123  1.1446  0.7843  0.6674
  771MOL0     H 4070  11.711   3.462  -1.317 -0.6668  0.7573 -1.5877
  771MOL0     H 4071  11.516   3.256   0.360 -0.6853  0.6695 -0.4210
  771MOL0     H 4072  11.326   3.159   0.472 -0.0000 -0.0055  0.3875
  771MOL0     H 4073  10.976   2.806   0.382 -2.3783  0.8148  0.8838
  771MOL0     H 4074  10.779   2.656   0.449  1.5635  2.4203 -2.7031
  771MOL0     H 4075  10.791   2.498   0.841 -0.5068 -0.2737  0.6283
  771MOL0     H 4076  10.649   2.400   0.784  0.4430 -3.2045 -0.0922
  771MOL0     H 4077  10.938   2.328   0.751 -0.6257  2.4019 -1.0717
  771MOL0     H 4078  10.793   2.235   0.697 -1.2837  0.1101  0.5899
  771MOL0     H 4079  10.812   2.291   0.992  3.0488  0.8974  0.0433
  771MOL0     H 4080  10.929   2.183   0.921  0.5131 -1.9867 -5.0783
  771MOL0     H 4081  10.708   2.029   0.844 -1.6967  0.3407 -0.7234
  771MOL0     H 4082  10.616   2.170   0.897 -0.7765  0.9073  2.4331
  771MOL0     H 4083  10.714   1.923   1.236  1.0119 -1.1862 -1.6578
  771MOL0     H 4084  11.005   2.529   0.776  1.8447 -0.1474 -0.1229
  771MOL0     H 4085  11.179   2.700   0.735 -3.3496  4.9543  2.5658
  772MOL0     O 4086   7.335  10.926   8.601  0.7942 -0.4430 -0.2334
  772MOL0     C 4087   7.251  10.962   8.687 -0.4921  0.0723  1.1776
  772MOL0     O 4088   7.284  10.991   8.812  0.5398  0.3881 -0.4115
  772MOL0     C 4089   7.412  10.967   8.860 -0.0977  0.1849 -0.0000
  772MOL0     C 4090   7.523  10.999   8.781  0.8225  0.0108  0.5826
  772MOL0     C 4091   7.656  10.956   8.821 -0.2686 -1.0477 -0.5697
  772MOL0     C 4092   7.666  10.888   8.944 -0.2694 -0.5217 -0.4187
  772MOL0     O 4093   7.788  10.836   8.962  0.2698 -0.3782  0.0259
  772MOL0     C 4094   7.838  10.806   9.095  0.5020  0.3766  0.1634
  772MOL0     C 4095   7.982  10.764   9.080  1.0623  0.5558 -0.6775
  772MOL0     C 4096   7.986  10.619   9.015  0.3211 -0.3839 -0.1128
  772MOL0     C 4097   7.983  10.617   8.860 -0.2016  0.2882 -0.6231
  772MOL0     C 4098   7.988  10.476   8.791  0.0862  0.8012 -1.3749
  772MOL0     C 4099   7.985  10.492   8.638  0.9953  0.2920  0.1609
  772MOL0     C 4100   8.112  10.446   8.574 -0.2721 -1.4057 -0.3281
  772MOL0     C 4101   8.238  10.524   8.625 -0.1622 -0.8982  0.1690
  772MOL0     N 4102   8.331  10.540   8.501  0.8039 -1.2301 -0.9614
  772MOL0     C 4103   8.317  10.639   8.402  0.1046  0.7344  0.3653
  772MOL0     C 4104   8.430  10.627   8.325  0.1331 -1.3976 -0.4889
  772MOL0     C 4105   8.458  10.688   8.181 -0.3885  0.6842 -0.6581
  772MOL0     C 4106   8.361  10.623   8.079  0.0692 -0.0425  0.2222
  772MOL0     C 4107   8.426  10.517   7.987 -0.1228  0.5760  0.3859
  772MOL0     C 4108   8.495  10.587   7.870  0.0552 -0.4313 -1.1606
  772MOL0     O 4109   8.558  10.497   7.789  0.0283 -0.2881  0.6607
  772MOL0     C 4110   8.663  10.420   7.838  0.5078  0.6505 -0.1312
  772MOL0     C 4111   8.705  10.324   7.746 -0.0562  0.5152 -0.1108
  772MOL0     C 4112   8.815  10.237   7.763  0.5713  0.0842  0.0672
  772MOL0     C 4113   8.843  10.138   7.648  0.4055  0.7156  0.4861
  772MOL0     C 4114   8.888  10.245   7.886  0.5452  0.1683 -0.5644
  772MOL0     C 4115   9.002  10.162   7.931  0.6705 -0.0654  0.6733
  772MOL0     O 4116   9.027  10.155   8.065 -0.1152  0.3623  0.3408
  772MOL0     C 4117   9.139  10.085   8.106  1.0359 -0.5426  0.2986
  772MOL0     C 4118   9.270  10.133   8.077  1.2396  1.2110  0.1116
  772MOL0     C 4119   9.378  10.080   8.145 -0.6625  0.4948 -0.6468
  772MOL0     C 4120   9.365   9.973   8.239 -0.0495  1.3528 -0.2877
  772MOL0     O 4121   9.479   9.937   8.311 -0.1664 -0.3993 -0.7950
  772MOL0     C 4122   9.505   9.798   8.326 -0.4780 -0.0911  0.7012
  772MOL0     C 4123   9.528   9.773   8.473 -1.0106 -0.4790 -0.5527
  772MOL0     C 4124   9.635   9.674   8.496 -0.8150 -0.5244 -0.7990
  772MOL0     C 4125   9.690   9.675   8.632  0.5580  0.3988 -1.2030
  772MOL0     C 4126   9.843   9.675   8.637 -0.8994  0.4042  0.0546
  772MOL0     C 4127   9.898   9.540   8.587 -0.4533 -0.9637  0.1629
  772MOL0     C 4128  10.047   9.530   8.616 -0.5366  0.5393 -0.0218
  772MOL0     C 4129  10.098   9.391   8.568  0.4678 -0.0987  0.4463
  772MOL0    Cl 4130  10.077   9.386   8.390  0.2717 -0.0678 -0.2467
  772MOL0     C 4131   9.232   9.923   8.265 -0.1771  0.3345  0.4875
  772MOL0     C 4132   9.126   9.978   8.197  0.2045 -0.2277 -0.2538
  772MOL0     O 4133   9.064  10.105   7.837 -0.5493  0.5340 -0.0496
  772MOL0     C 4134   8.842  10.340   7.978 -0.4389 -0.1965 -0.6341
  772MOL0     C 4135   8.731  10.420   7.958 -0.9923 -0.9607  0.1139
  772MOL0     N 4136   8.509  10.531   8.388 -1.2404 -0.1166 -0.2782
  772MOL0     N 4137   8.446  10.469   8.488  1.5938  0.0236  0.2816
  772MOL0     C 4138   7.556  10.864   9.020  0.3635  0.7256  0.0703
  772MOL0     C 4139   7.431  10.910   8.981  0.7975 -0.4066 -0.5839
  772MOL0     C 4140   7.107  10.968   8.643 -0.1817 -0.2812  0.3490
  772MOL0     C 4141   7.058  10.974   8.503 -0.3399 -0.4187  0.7164
  772MOL0     C 4142   6.927  10.989   8.475 -0.0561 -1.2792  0.0016
  772MOL0     C 4143   6.832  11.019   8.575 -0.0254  0.7343  0.7870
  772MOL0     O 4144   6.703  11.042   8.546  0.3691 -0.1334  0.0911
  772MOL0     C 4145   6.626  10.922   8.504 -0.0901 -0.0270 -0.4797
  772MOL0     C 4146   6.565  10.842   8.622  0.1188  0.3375 -0.6858
  772MOL0     C 4147   6.452  10.754   8.575 -0.0350  0.5181  0.2663
  772MOL0     C 4148   6.407  10.631   8.651 -0.2741 -0.6722  0.1241
  772MOL0     C 4149   6.349  10.521   8.576 -0.2805 -0.6468  0.2809
  772MOL0     C 4150   6.302  10.429   8.512 -0.5106 -0.2545 -0.2852
  772MOL0     C 4151   6.872  11.025   8.707 -0.0359  0.1568 -0.0574
  772MOL0     C 4152   7.007  10.984   8.741 -0.2407  0.0879 -0.2976
  772MOL0     H 4153   7.513  11.069   8.700 -2.2562  1.6735  2.2174
  772MOL0     H 4154   7.752  10.980   8.777  0.0592  0.8893  1.0423
  772MOL0     H 4155   7.821  10.894   9.157 -0.0722  0.4426 -0.0797
  772MOL0     H 4156   7.778  10.730   9.146  0.0144  2.6026  3.1848
  772MOL0     H 4157   8.042  10.835   9.023  1.6123 -0.3633 -1.2646
  772MOL0     H 4158   8.023  10.759   9.181 -0.8813  3.4263  0.4051
  772MOL0     H 4159   8.080  10.580   9.055  0.5035 -0.7420 -0.8671
  772MOL0     H 4160   7.914  10.541   9.042  1.6819 -1.7786 -0.3433
  772MOL0     H 4161   7.885  10.657   8.833  0.4475  2.9662  0.6601
  772MOL0     H 4162   8.057  10.687   8.819 -0.6932  2.3412  1.7346
  772MOL0     H 4163   8.075  10.418   8.823 -4.2356 -4.6766  2.2012
  772MOL0     H 4164   7.908  10.412   8.828 -0.2220 -0.3660 -3.8713
  772MOL0     H 4165   7.905  10.435   8.590  2.2274  0.3989 -2.1787
  772MOL0     H 4166   7.970  10.597   8.608  0.1457 -0.2501 -1.4434
  772MOL0     H 4167   8.111  10.337   8.584 -0.4410 -1.1793  4.0817
  772MOL0     H 4168   8.106  10.459   8.466 -2.7934 -1.1477 -0.2164
  772MOL0     H 4169   8.302  10.474   8.699  0.8165 -1.4272 -1.0048
  772MOL0     H 4170   8.219  10.625   8.663 -0.1817  0.2156 -2.6173
  772MOL0     H 4171   8.225  10.690   8.376  0.6713  1.0684 -1.0804
  772MOL0     H 4172   8.454  10.797   8.188 -2.3220  0.7437 -1.9779
  772MOL0     H 4173   8.561  10.667   8.151 -0.5050 -1.0195  0.0378
  772MOL0     H 4174   8.303  10.702   8.031  2.1410  1.1837 -0.3943
  772MOL0     H 4175   8.279  10.577   8.135 -0.3830 -1.0807 -1.2366
  772MOL0     H 4176   8.354  10.449   7.941  0.0949  0.7735 -0.2632
  772MOL0     H 4177   8.497  10.460   8.048 -0.0464  1.9980  1.6786
  772MOL0     H 4178   8.576  10.655   7.895 -0.0375 -0.8346  0.3791
  772MOL0     H 4179   8.413  10.640   7.821 -1.0225  1.0053  1.9426
  772MOL0     H 4180   8.640  10.334   7.659  1.3995  2.7424 -1.0174
  772MOL0     H 4181   8.946  10.153   7.614  0.4015 -0.6508 -0.2213
  772MOL0     H 4182   8.834  10.034   7.683 -2.6116  1.2436  1.5483
  772MOL0     H 4183   8.781  10.144   7.558 -0.6141  2.6957  1.2700
  772MOL0     H 4184   9.259  10.224   8.019 -1.4290 -0.4791 -2.2905
  772MOL0     H 4185   9.472  10.134   8.145 -0.3051 -0.0001  2.3705
  772MOL0     H 4186   9.417   9.743   8.293 -0.2081  0.6280 -1.3689
  772MOL0     H 4187   9.580   9.767   8.252 -2.4702  0.2259 -1.5712
  772MOL0     H 4188   9.557   9.860   8.533  0.8811 -1.1862 -0.3845
  772MOL0     H 4189   9.433   9.737   8.513 -0.9965 -1.1440 -1.1002
  772MOL0     H 4190   9.717   9.686   8.424  1.4905 -3.7546  1.0142
  772MOL0     H 4191   9.598   9.571   8.491  0.2302 -1.0421  1.1117
  772MOL0     H 4192   9.659   9.766   8.683  0.6038  1.1451 -2.4589
  772MOL0     H 4193   9.646   9.592   8.689  2.2442  2.9397  4.4968
  772MOL0     H 4194   9.875   9.686   8.741 -0.0328 -1.1317 -0.0312
  772MOL0     H 4195   9.878   9.759   8.577  1.7265 -1.1789 -0.7874
  772MOL0     H 4196   9.845   9.456   8.632  0.8569 -0.9475  1.8021
  772MOL0     H 4197   9.879   9.542   8.479 -2.4337  0.1008  0.4799
  772MOL0     H 4198  10.059   9.536   8.725 -0.7474 -0.4318  0.0615
  772MOL0     H 4199  10.106   9.606   8.563  1.1399  0.4782  1.6410
  772MOL0     H 4200  10.042   9.311   8.618 -0.2168  2.1840  3.6423
  772MOL0     H 4201  10.207   9.395   8.578  0.5643 -0.3047 -0.4737
  772MOL0     H 4202   9.220   9.861   8.353 -1.9661 -0.8908 -0.5655
  772MOL0     H 4203   9.034   9.943   8.243  2.0662 -1.7377  2.6358
  772MOL0     H 4204   8.886  10.359   8.075 -1.2710  0.0864 -0.3002
  772MOL0     H 4205   8.725  10.490   8.041  0.6831 -1.2211  0.4778
  772MOL0     H 4206   7.576  10.829   9.121  1.9993  1.6204  0.0869
  772MOL0     H 4207   7.341  10.898   9.041  0.8592  1.2016 -0.1162
  772MOL0     H 4208   7.131  10.975   8.423  2.2230 -0.3690  2.9147
  772MOL0     H 4209   6.894  10.998   8.372 -0.3874  0.2614  0.2183
  772MOL0     H 4210   6.537  10.947   8.446 -1.5023  0.5903  1.8273
  772MOL0     H 4211   6.688  10.855   8.443 -1.1191 -1.7564  0.2917
  772MOL0     H 4212   6.529  10.907   8.702  1.6280  3.5423 -2.4211
  772MOL0     H 4213   6.651  10.786   8.659  1.5434  2.5139 -0.5082
  772MOL0     H 4214   6.478  10.719   8.475  1.1042  0.7170  0.4755
  772MOL0     H 4215   6.368  10.822   8.555  1.1100  1.3534 -2.1525
  772MOL0     H 4216   6.348  10.656   8.740  0.4465 -0.8151  0.6570
  772MOL0     H 4217   6.507  10.602   8.687 -0.1595  2.2619  2.6611
  772MOL0     H 4218   6.265  10.338   8.469  0.1571  0.5285 -2.7068
  772MOL0     H 4219   6.791  11.055   8.774  0.8254  0.9124  0.6874
  772MOL0     H 4220   7.030  10.994   8.847 -2.1612  0.7113  0.1028
  773MOL0     O 4221  10.895  10.956   4.962 -0.0166  0.1227  0.0198
  773MOL0     C 4222  10.935  10.885   5.055  0.2440  0.2341 -0.6549
  773MOL0     O 4223  10.910  10.910   5.191  0.0996 -0.4637 -0.9011
  773MOL0     C 4224  10.854  11.035   5.213 -0.4109 -0.3017 -0.6447
  773MOL0     C 4225  10.937  11.145   5.203 -0.6344 -0.0494  0.2555
  773MOL0     C 4226  10.897  11.275   5.241 -0.0881 -0.1276 -0.0570
  773MOL0     C 4227  10.772  11.290   5.297 -0.2105 -0.7678  0.3683
  773MOL0     O 4228  10.719  11.413   5.331  0.2536 -0.3619  0.5572
  773MOL0     C 4229  10.811  11.524   5.334  0.0636  1.0526  0.8810
  773MOL0     C 4230  10.762  11.658   5.369  0.2759 -0.2205  0.0389
  773MOL0     C 4231  10.608  11.693   5.353  0.3129  0.1020 -0.1548
  773MOL0     C 4232  10.578  11.814   5.435  0.3775  1.0419  0.0813
  773MOL0     C 4233  10.456  11.872   5.397  0.3296 -0.7348 -1.1593
  773MOL0     C 4234  10.386  11.932   5.522 -0.8724 -0.6647 -0.2257
  773MOL0     C 4235  10.237  11.982   5.495  0.5746  0.4424 -0.4408
  773MOL0     C 4236  10.178  12.049   5.624 -0.1216  0.2791  0.5699
  773MOL0     N 4237  10.061  12.127   5.582 -0.2507  0.2341  0.0846
  773MOL0     C 4238   9.936  12.118   5.630 -0.4878  0.7979  0.1119
  773MOL0     C 4239   9.857  12.213   5.583 -0.7644  0.5965  0.2455
  773MOL0     C 4240   9.718  12.230   5.633 -0.0859 -0.0225 -0.4846
  773MOL0     C 4241   9.705  12.381   5.669  0.1906  0.2312  0.5184
  773MOL0     C 4242   9.593  12.394   5.769 -0.5831 -0.4969  0.0458
  773MOL0     C 4243   9.467  12.319   5.753  0.1867  0.4936  1.0829
  773MOL0     O 4244   9.375  12.362   5.856 -0.1674 -0.2059 -0.4115
  773MOL0     C 4245   9.244  12.373   5.827  1.2544 -0.0274 -0.3569
  773MOL0     C 4246   9.160  12.430   5.925  0.6912 -0.8975 -0.5219
  773MOL0     C 4247   9.026  12.456   5.906  0.6617  0.0130 -0.3783
  773MOL0     C 4248   8.948  12.508   6.029 -0.0333 -0.0200  0.6138
  773MOL0     C 4249   8.961  12.425   5.783  0.1536 -0.2193  0.1971
  773MOL0     C 4250   8.813  12.439   5.753  0.0787  0.8667 -0.0067
  773MOL0     O 4251   8.758  12.353   5.648 -0.0387  0.9470  0.4094
  773MOL0     C 4252   8.623  12.363   5.610 -0.9295  0.5060 -0.3041
  773MOL0     C 4253   8.560  12.248   5.580 -0.8544  0.2244  0.4572
  773MOL0     C 4254   8.429  12.252   5.538 -0.3647  0.1676 -0.9841
  773MOL0     C 4255   8.354  12.367   5.520  0.1455  0.0896  0.9975
  773MOL0     O 4256   8.221  12.357   5.479  0.3409 -0.1698  0.2775
  773MOL0     C 4257   8.159  12.461   5.412 -0.0239  0.3878 -0.8399
  773MOL0     C 4258   8.017  12.405   5.363 -0.0575  0.9874  0.6193
  773MOL0     C 4259   7.963  12.507   5.265  0.1249  0.6311 -0.1618
  773MOL0     C 4260   7.829  12.465   5.202  0.1264 -0.4756 -0.1677
  773MOL0     C 4261   7.716  12.476   5.306  0.1501 -0.6868  0.3476
  773MOL0     C 4262   7.573  12.448   5.248  0.2596 -0.5209  0.1800
  773MOL0     C 4263   7.465  12.457   5.356  0.5691 -0.0688 -0.4616
  773MOL0     C 4264   7.329  12.432   5.291  0.3373 -0.9512  0.0194
  773MOL0    Cl 4265   7.294  12.265   5.243 -0.6786 -0.2128 -0.4038
  773MOL0     C 4266   8.423  12.487   5.549 -0.5289 -0.1656 -1.0858
  773MOL0     C 4267   8.556  12.485   5.602  0.2652  1.2848 -0.6010
  773MOL0     O 4268   8.745  12.526   5.813  0.3515  0.0457 -0.1005
  773MOL0     C 4269   9.046  12.362   5.688 -0.3508  0.3460  0.3992
  773MOL0     C 4270   9.178  12.333   5.704  0.0037 -0.0821  0.0183
  773MOL0     N 4271   9.944  12.291   5.504 -0.4728 -0.1429  0.9202
  773MOL0     N 4272  10.064  12.241   5.514  0.4663 -0.3990  0.0259
  773MOL0     C 4273  10.691  11.185   5.311  0.1874 -0.0614  0.5662
  773MOL0     C 4274  10.727  11.061   5.262  0.0727 -0.3154  0.7331
  773MOL0     C 4275  11.015  10.766   5.029 -0.5497 -0.3403 -0.0044
  773MOL0     C 4276  11.056  10.751   4.900 -0.3429  0.5546  0.3370
  773MOL0     C 4277  11.152  10.649   4.859  0.6589 -0.2314 -0.3087
  773MOL0     C 4278  11.197  10.562   4.960  0.8211 -0.3245 -0.0095
  773MOL0     O 4279  11.281  10.458   4.936 -0.0513  0.0784  0.3859
  773MOL0     C 4280  11.357  10.454   4.813  0.5975  0.4440 -0.7128
  773MOL0     C 4281  11.468  10.555   4.810 -0.3856  0.5043 -1.0874
  773MOL0     C 4282  11.579  10.536   4.913  0.1877  0.1671 -0.4748
  773MOL0     C 4283  11.670  10.419   4.885  0.0548 -0.1853  0.0530
  773MOL0     C 4284  11.762  10.438   4.773 -0.3413  0.2873  0.4955
  773MOL0     C 4285  11.833  10.461   4.677  0.3279  0.3931  0.5678
  773MOL0     C 4286  11.152  10.581   5.091  0.2720  1.0336 -0.2886
  773MOL0     C 4287  11.072  10.690   5.127 -0.7159 -0.4009  0.8547
  773MOL0     H 4288  11.032  11.126   5.155  0.0020  2.2477  0.5038
  773MOL0     H 4289  10.964  11.357   5.216 -2.2831  1.2425 -1.7380
  773MOL0     H 4290  10.887  11.494   5.407 -0.5806  0.1705  1.2032
  773MOL0     H 4291  10.866  11.530   5.239 -2.2725  0.5026 -0.5766
  773MOL0     H 4292  10.796  11.682   5.470  2.8501  1.4498 -1.1099
  773MOL0     H 4293  10.824  11.720   5.303 -1.5275  1.8831  0.1832
  773MOL0     H 4294  10.589  11.724   5.249 -0.8071 -0.0978 -0.0102
  773MOL0     H 4295  10.549  11.606   5.380  2.1877 -0.6690  1.7540
  773MOL0     H 4296  10.581  11.775   5.537 -0.7061 -3.1143 -1.3007
  773MOL0     H 4297  10.659  11.888   5.436 -1.9114  3.7646  1.5802
  773MOL0     H 4298  10.470  11.955   5.326 -3.1822  0.4026 -0.7358
  773MOL0     H 4299  10.387  11.795   5.361 -0.1298 -0.5622 -0.6564
  773MOL0     H 4300  10.387  11.864   5.608  1.1980 -1.2307 -0.6300
  773MOL0     H 4301  10.439  12.023   5.550 -2.9495  0.3691  0.4720
  773MOL0     H 4302  10.238  12.051   5.411  0.9860  3.3486  1.7881
  773MOL0     H 4303  10.174  11.893   5.479 -0.8165  1.3621 -0.2775
  773MOL0     H 4304  10.246  12.117   5.677  0.7780  1.7716 -2.2948
  773MOL0     H 4305  10.157  11.969   5.695  2.4440 -0.1210  0.9788
  773MOL0     H 4306   9.918  12.038   5.701  0.3982 -0.0983 -0.6556
  773MOL0     H 4307   9.638  12.205   5.563 -1.5051  0.0462  1.0542
  773MOL0     H 4308   9.709  12.171   5.724  4.0308  2.1079  1.5670
  773MOL0     H 4309   9.691  12.443   5.581 -3.8980  1.4529  1.8338
  773MOL0     H 4310   9.798  12.411   5.719  1.0115  0.4943 -1.0958
  773MOL0     H 4311   9.586  12.503   5.762  2.9140 -0.0694  1.2763
  773MOL0     H 4312   9.639  12.368   5.864 -0.5632 -0.1218  0.1400
  773MOL0     H 4313   9.487  12.212   5.753 -3.7987 -0.4353  0.2360
  773MOL0     H 4314   9.429  12.340   5.653  2.0539  2.0599  0.6490
  773MOL0     H 4315   9.198  12.455   6.024  0.5182  2.6006 -1.1889
  773MOL0     H 4316   9.011  12.538   6.113 -0.6580  1.6499  0.5090
  773MOL0     H 4317   8.888  12.595   6.002 -2.1994 -1.7157 -0.4429
  773MOL0     H 4318   8.890  12.428   6.075  2.3966 -1.1904  1.8551
  773MOL0     H 4319   8.606  12.151   5.590  1.6485  1.2558 -0.3617
  773MOL0     H 4320   8.373  12.160   5.519 -0.3967 -0.9599  3.4131
  773MOL0     H 4321   8.146  12.546   5.480  2.2927  0.0615  0.1325
  773MOL0     H 4322   8.233  12.493   5.337  1.9396 -1.3256  0.2614
  773MOL0     H 4323   8.018  12.304   5.322 -1.8396  0.5646  1.5099
  773MOL0     H 4324   7.950  12.402   5.450 -3.0415  1.1695 -1.5267
  773MOL0     H 4325   8.044  12.530   5.195  2.5565 -2.1174  1.4878
  773MOL0     H 4326   7.941  12.599   5.320 -0.3174  0.7796 -0.5888
  773MOL0     H 4327   7.813  12.543   5.127 -1.3937 -1.9162 -1.4224
  773MOL0     H 4328   7.841  12.370   5.148 -0.0173 -0.3962 -0.3419
  773MOL0     H 4329   7.719  12.568   5.365 -2.8543 -1.5405  2.0892
  773MOL0     H 4330   7.734  12.392   5.373  1.0743 -0.9794 -0.2513
  773MOL0     H 4331   7.559  12.534   5.182  1.0217 -0.4214  0.1410
  773MOL0     H 4332   7.562  12.356   5.189 -2.3933  0.4589 -0.9822
  773MOL0     H 4333   7.468  12.559   5.396  0.2568 -0.8010  1.5561
  773MOL0     H 4334   7.473  12.389   5.442 -1.3871  0.4849  0.2001
  773MOL0     H 4335   7.311  12.515   5.222  0.6681  0.2630  1.3250
  773MOL0     H 4336   7.259  12.445   5.374 -0.7480  0.0812 -1.0288
  773MOL0     H 4337   8.375  12.584   5.538  1.6614  0.6996 -4.0466
  773MOL0     H 4338   8.606  12.578   5.625  2.5887 -0.0201 -0.1254
  773MOL0     H 4339   9.013  12.329   5.590 -1.9736  2.0772  0.2856
  773MOL0     H 4340   9.230  12.277   5.628  0.2783 -1.6812  1.3308
  773MOL0     H 4341  10.594  11.206   5.354 -0.1736 -1.6657  0.6130
  773MOL0     H 4342  10.648  10.987   5.261  0.0645 -0.3149 -0.7032
  773MOL0     H 4343  11.019  10.820   4.825  2.5399  0.4019 -1.3683
  773MOL0     H 4344  11.188  10.645   4.757 -2.6697  1.0411 -1.6724
  773MOL0     H 4345  11.394  10.351   4.806 -1.3304 -0.2431 -1.6721
  773MOL0     H 4346  11.280  10.467   4.736 -0.6538  0.4332  0.4920
  773MOL0     H 4347  11.433  10.658   4.818 -0.1368  0.6618 -1.9273
  773MOL0     H 4348  11.511  10.551   4.709 -0.7102 -0.8460 -1.1858
  773MOL0     H 4349  11.530  10.526   5.010 -3.6768 -0.2566 -2.2861
  773MOL0     H 4350  11.642  10.625   4.914  0.1732  0.2372 -2.0897
  773MOL0     H 4351  11.613  10.327   4.866  1.5697 -1.9605  3.2548
  773MOL0     H 4352  11.734  10.404   4.972 -0.7995 -0.4034  0.6579
  773MOL0     H 4353  11.894  10.482   4.591 -2.0996  2.5567 -0.7377
  773MOL0     H 4354  11.179  10.506   5.165 -0.2726  0.3741 -0.7451
  773MOL0     H 4355  11.061  10.714   5.233  0.2387 -1.8861  1.3233
  774MOL0     O 4356   5.386   4.712   0.163 -0.0458 -0.5227 -0.0312
  774MOL0     C 4357   5.278   4.738   0.225 -0.0077 -0.4523  0.0869
  774MOL0     O 4358   5.258   4.723   0.356 -0.4923 -0.5437 -0.5995
  774MOL0     C 4359   5.372   4.702   0.438  0.6417 -0.9605  0.0433
  774MOL0     C 4360   5.437   4.577   0.444 -0.5234 -0.6629 -0.4293
  774MOL0     C 4361   5.542   4.565   0.524  0.3701 -0.7270 -0.0289
  774MOL0     C 4362   5.596   4.662   0.598  0.0059 -0.4770  0.4261
  774MOL0     O 4363   5.703   4.622   0.663 -0.4844 -0.0967 -0.0725
  774MOL0     C 4364   5.746   4.702   0.774 -0.3272 -0.0221 -1.2368
  774MOL0     C 4365   5.818   4.608   0.861  0.2225  0.6519 -0.0759
  774MOL0     C 4366   5.887   4.686   0.963  0.1703  0.4632 -1.3635
  774MOL0     C 4367   5.936   4.590   1.079 -0.2045 -0.4737 -0.0614
  774MOL0     C 4368   5.828   4.511   1.155  0.1066 -0.4286  0.5435
  774MOL0     C 4369   5.884   4.426   1.277 -0.0163  0.5529  0.5729
  774MOL0     C 4370   5.774   4.335   1.338 -0.7448  0.3140 -0.6340
  774MOL0     C 4371   5.816   4.258   1.460 -0.9456 -0.5388  0.1654
  774MOL0     N 4372   5.882   4.130   1.426 -0.4153 -0.8332  0.2159
  774MOL0     C 4373   6.008   4.117   1.370 -0.0722  0.3133  0.2861
  774MOL0     C 4374   6.023   3.984   1.353  0.2290  0.6733 -0.3606
  774MOL0     C 4375   6.144   3.904   1.300  0.0798  0.2437 -0.4662
  774MOL0     C 4376   6.129   3.827   1.171  0.0725 -0.5506  0.3280
  774MOL0     C 4377   6.267   3.775   1.133 -0.6242 -0.1733  0.2907
  774MOL0     C 4378   6.333   3.671   1.225  0.5017  0.0412  0.2098
  774MOL0     O 4379   6.457   3.613   1.174  0.0847  0.6578 -0.0475
  774MOL0     C 4380   6.445   3.496   1.105 -0.4550  0.2760  0.7255
  774MOL0     C 4381   6.322   3.441   1.057  0.1177 -0.4805  0.1077
  774MOL0     C 4382   6.315   3.307   1.009  0.4598  0.4899  0.1193
  774MOL0     C 4383   6.179   3.250   0.979  0.0315 -0.2559 -0.1323
  774MOL0     C 4384   6.435   3.227   1.008  1.7787 -0.5948 -0.0147
  774MOL0     C 4385   6.448   3.079   0.974 -0.3901 -0.8256  0.4420
  774MOL0     O 4386   6.572   3.027   0.994 -0.8561 -0.7842  1.0104
  774MOL0     C 4387   6.591   2.890   0.984  0.5733 -0.3814 -0.0394
  774MOL0     C 4388   6.560   2.799   1.084 -0.1190 -0.1757 -0.3037
  774MOL0     C 4389   6.594   2.660   1.073  0.1613 -0.7430 -0.7370
  774MOL0     C 4390   6.656   2.612   0.959 -0.0934 -0.6432  0.1409
  774MOL0     O 4391   6.710   2.486   0.963  0.0131 -0.4194 -0.4270
  774MOL0     C 4392   6.614   2.379   0.975 -0.2424  0.5625 -0.1541
  774MOL0     C 4393   6.683   2.254   1.033  0.3083 -0.2289  0.2929
  774MOL0     C 4394   6.797   2.205   0.932  0.4870  0.2584  0.8400
  774MOL0     C 4395   6.883   2.098   0.987  1.6203  1.8050  0.2483
  774MOL0     C 4396   6.983   2.053   0.882  0.5667  0.7357 -0.1642
  774MOL0     C 4397   7.046   1.916   0.920 -0.7527 -0.0887  0.0357
  774MOL0     C 4398   7.183   1.901   0.852 -0.0044 -0.2943 -0.2530
  774MOL0     C 4399   7.209   1.753   0.834 -0.0914  0.0488 -0.4437
  774MOL0    Cl 4400   7.088   1.673   0.722 -0.0252  0.0077  0.1891
  774MOL0     C 4401   6.669   2.699   0.853  0.7740 -0.0755 -0.6018
  774MOL0     C 4402   6.636   2.835   0.869 -0.6930  0.4315  0.4631
  774MOL0     O 4403   6.352   3.022   0.926 -0.3682  0.3512 -0.5563
  774MOL0     C 4404   6.552   3.291   1.064 -0.0362  0.3631 -0.0294
  774MOL0     C 4405   6.560   3.420   1.108  0.2852 -0.7297 -0.7673
  774MOL0     N 4406   5.913   3.919   1.407 -0.6630 -0.9736 -0.7213
  774MOL0     N 4407   5.836   4.012   1.460  0.0028  0.1430 -0.1516
  774MOL0     C 4408   5.538   4.790   0.597 -0.0159 -0.1380 -0.9880
  774MOL0     C 4409   5.422   4.810   0.517  0.7081 -0.1776 -0.6116
  774MOL0     C 4410   5.154   4.770   0.149  0.4836  0.7178  0.1223
  774MOL0     C 4411   5.030   4.756   0.204 -0.5740  0.5598  1.0040
  774MOL0     C 4412   4.916   4.795   0.139 -0.3419 -0.1121 -0.6476
  774MOL0     C 4413   4.910   4.846   0.015 -0.3582  0.5090  0.1170
  774MOL0     O 4414   4.789   4.881  -0.042 -0.6576 -0.1567  0.9281
  774MOL0     C 4415   4.789   4.885  -0.188  0.1345 -0.5933 -0.1556
  774MOL0     C 4416   4.656   4.934  -0.260 -1.3604 -0.9754  0.1928
  774MOL0     C 4417   4.532   4.855  -0.201 -0.3087 -0.1350  0.2770
  774MOL0     C 4418   4.394   4.927  -0.218  1.2343 -0.0646 -0.2284
  774MOL0     C 4419   4.377   5.054  -0.142  0.2432  0.6798  0.0219
  774MOL0     C 4420   4.370   5.159  -0.098  1.0873 -0.9594 -0.0459
  774MOL0     C 4421   5.033   4.836  -0.055 -0.6971 -0.1068 -0.1179
  774MOL0     C 4422   5.151   4.799   0.010  0.7458  0.7229  0.0852
  774MOL0     H 4423   5.393   4.492   0.393  0.6254 -0.3353 -2.0292
  774MOL0     H 4424   5.586   4.467   0.538  0.0179 -0.5195  3.2370
  774MOL0     H 4425   5.813   4.784   0.748  0.9180  0.0877  1.8707
  774MOL0     H 4426   5.664   4.741   0.836  0.7502 -1.7374  1.4463
  774MOL0     H 4427   5.743   4.546   0.910  0.4638  0.0759 -0.4259
  774MOL0     H 4428   5.895   4.546   0.815 -1.6536  0.7949 -3.7494
  774MOL0     H 4429   5.971   4.742   0.919 -0.3092  0.0569 -2.8569
  774MOL0     H 4430   5.822   4.760   1.010  2.1747  0.1805  2.1690
  774MOL0     H 4431   6.007   4.514   1.044  1.7268  0.7136  1.1316
  774MOL0     H 4432   5.987   4.634   1.165 -0.3797 -2.1628  0.9596
  774MOL0     H 4433   5.748   4.574   1.195  0.5376  0.5877 -0.1536
  774MOL0     H 4434   5.788   4.437   1.085  0.6839 -1.1343  0.9514
  774MOL0     H 4435   5.966   4.365   1.239  0.7658  1.1991  1.1973
  774MOL0     H 4436   5.917   4.492   1.357  1.1365 -1.5145  1.9131
  774MOL0     H 4437   5.692   4.398   1.373 -1.6577 -2.5129  2.8943
  774MOL0     H 4438   5.730   4.275   1.259 -1.8614  1.1223 -0.6432
  774MOL0     H 4439   5.731   4.251   1.529 -0.1850  6.8056  2.7802
  774MOL0     H 4440   5.885   4.331   1.504  0.0028 -0.2044 -1.7710
  774MOL0     H 4441   6.079   4.193   1.339 -0.9440  0.5736 -1.1619
  774MOL0     H 4442   6.229   3.973   1.301  1.4297 -1.3664  0.8508
  774MOL0     H 4443   6.182   3.845   1.383  2.8509  0.0634 -1.7633
  774MOL0     H 4444   6.086   3.892   1.095 -2.4064 -2.2349  0.1709
  774MOL0     H 4445   6.062   3.743   1.191  2.2769 -2.6966 -0.8516
  774MOL0     H 4446   6.327   3.866   1.129  0.3241 -0.8147 -0.9257
  774MOL0     H 4447   6.249   3.730   1.034  2.2240 -0.5967 -0.1057
  774MOL0     H 4448   6.262   3.596   1.262 -2.5663  2.8254  0.4650
  774MOL0     H 4449   6.361   3.720   1.318  0.6034 -0.9468  0.7158
  774MOL0     H 4450   6.238   3.510   1.055  1.9213  1.8305 -1.5901
  774MOL0     H 4451   6.164   3.175   0.901 -0.0258  0.8551 -1.2170
  774MOL0     H 4452   6.141   3.207   1.072 -2.4392  1.4149 -0.2504
  774MOL0     H 4453   6.110   3.335   0.971 -1.1408 -1.1631  0.0112
  774MOL0     H 4454   6.533   2.844   1.179  1.9566  0.6197 -0.0389
  774MOL0     H 4455   6.581   2.596   1.159  0.0390  1.9442  1.3897
  774MOL0     H 4456   6.527   2.405   1.036  0.1551  0.8729  0.2880
  774MOL0     H 4457   6.568   2.361   0.878  0.9076  2.7768 -1.1933
  774MOL0     H 4458   6.713   2.295   1.130 -2.9217  0.9392  0.9078
  774MOL0     H 4459   6.608   2.177   1.051  0.0614  0.2646  1.4674
  774MOL0     H 4460   6.863   2.291   0.919 -0.2042  1.0356  2.1839
  774MOL0     H 4461   6.754   2.184   0.834  0.1212  0.8960  0.8566
  774MOL0     H 4462   6.935   2.128   1.078  2.9679 -1.2142  0.6090
  774MOL0     H 4463   6.816   2.017   1.015  1.8093  1.2763 -0.7679
  774MOL0     H 4464   7.052   2.135   0.860 -0.8959  2.4615  1.4249
  774MOL0     H 4465   6.932   2.046   0.786 -1.5027  0.4070  0.9083
  774MOL0     H 4466   7.072   1.922   1.026  1.0017 -1.5946 -0.2654
  774MOL0     H 4467   6.972   1.840   0.892 -2.2168  1.7416 -1.3785
  774MOL0     H 4468   7.259   1.917   0.929 -0.7001 -2.8269  1.0824
  774MOL0     H 4469   7.202   1.961   0.763 -1.4158 -0.1733 -0.4981
  774MOL0     H 4470   7.198   1.704   0.931 -1.6797  3.1995  1.1007
  774MOL0     H 4471   7.314   1.746   0.805  0.1108  5.2868 -1.8605
  774MOL0     H 4472   6.711   2.680   0.755 -2.5150  0.0587 -2.1535
  774MOL0     H 4473   6.665   2.906   0.793  0.6510 -0.4425  0.1318
  774MOL0     H 4474   6.648   3.241   1.066 -0.8779 -1.3960  2.6228
  774MOL0     H 4475   6.657   3.458   1.138  0.5800 -2.2845  0.3676
  774MOL0     H 4476   5.567   4.874   0.658 -0.9197  0.3231 -1.1727
  774MOL0     H 4477   5.374   4.907   0.524  1.3818  0.0914  0.7854
  774MOL0     H 4478   5.031   4.726   0.309 -1.2505 -1.1881  0.5472
  774MOL0     H 4479   4.823   4.798   0.194 -0.2673 -0.7544 -0.4750
  774MOL0     H 4480   4.864   4.953  -0.228 -0.8094  0.8457  0.4365
  774MOL0     H 4481   4.813   4.788  -0.233  2.9639 -0.6798  1.3725
  774MOL0     H 4482   4.671   4.919  -0.368  0.8475 -0.8180  0.4137
  774MOL0     H 4483   4.653   5.039  -0.229  2.4459 -0.1607 -1.4752
  774MOL0     H 4484   4.550   4.827  -0.097 -0.7083  0.2530  0.4528
  774MOL0     H 4485   4.534   4.764  -0.263  2.0063 -1.6500  2.3865
  774MOL0     H 4486   4.319   4.853  -0.189  2.6753 -0.9909  1.2577
  774MOL0     H 4487   4.387   4.947  -0.325  1.0245  0.8614 -0.0474
  774MOL0     H 4488   4.379   5.262  -0.068 -2.8386 -0.4855  0.0339
  774MOL0     H 4489   5.059   4.865  -0.156 -3.6376  1.0997 -0.6371
  774MOL0     H 4490   5.247   4.825  -0.034 -0.0224  1.6521 -1.0816
  775MOL0     O 4491   9.951   5.353  11.291 -0.1991  0.3009 -0.9634
  775MOL0     C 4492   9.849   5.389  11.350 -1.2954  1.1233  0.2243
  775MOL0     O 4493   9.786   5.325  11.456  0.2467 -0.2032  0.3115
  775MOL0     C 4494   9.815   5.194  11.485 -0.0479 -0.5197 -0.0327
  775MOL0     C 4495   9.848   5.088  11.399 -1.1699  0.4363  0.8494
  775MOL0     C 4496   9.861   4.958  11.440 -0.8708 -0.2149 -0.9182
  775MOL0     C 4497   9.839   4.924  11.572  0.0256 -0.4992 -0.2761
  775MOL0     O 4498   9.851   4.794  11.620  0.0603  0.1327  0.3831
  775MOL0     C 4499   9.943   4.709  11.562 -0.5587  0.1706 -0.2876
  775MOL0     C 4500   9.968   4.587  11.653 -0.3438 -0.3099  1.2558
  775MOL0     C 4501  10.056   4.639  11.770  0.2242 -0.7982  0.1192
  775MOL0     C 4502  10.123   4.522  11.849  0.1105  0.2507  0.1305
  775MOL0     C 4503  10.235   4.560  11.939  0.1589  0.7327 -0.2656
  775MOL0     C 4504  10.364   4.620  11.881 -0.6839 -0.3814 -1.0340
  775MOL0     C 4505  10.448   4.664  12.001 -0.8704 -0.4769  0.0316
  775MOL0     C 4506  10.597   4.673  11.962  0.3008 -0.4238  0.0268
  775MOL0     N 4507  10.609   4.749  11.839 -0.0743  0.1928  0.2835
  775MOL0     C 4508  10.624   4.882  11.837 -0.3659 -1.2223  0.0546
  775MOL0     C 4509  10.641   4.914  11.703  0.5019  0.3200 -0.5092
  775MOL0     C 4510  10.672   5.055  11.644  0.8780  0.1329 -0.5426
  775MOL0     C 4511  10.657   5.157  11.750  0.0041 -0.3355 -0.4858
  775MOL0     C 4512  10.658   5.292  11.674 -0.1945 -1.0034  1.1224
  775MOL0     C 4513  10.763   5.400  11.732  1.6342  0.1648 -0.2006
  775MOL0     O 4514  10.726   5.430  11.862  0.4882  0.4991 -0.1631
  775MOL0     C 4515  10.793   5.530  11.932 -0.2533 -0.0897 -0.2381
  775MOL0     C 4516  10.767   5.545  12.068  0.0854  0.3561 -0.3274
  775MOL0     C 4517  10.853   5.604  12.163 -0.3846  0.7550 -0.1622
  775MOL0     C 4518  10.803   5.599  12.302  0.4117 -0.9602 -0.7275
  775MOL0     C 4519  10.968   5.668  12.110  0.5690  0.1949 -0.5859
  775MOL0     C 4520  11.062   5.740  12.190  0.1835  0.1111  0.4106
  775MOL0     O 4521  11.145   5.822  12.117  0.0552 -0.7840 -0.7246
  775MOL0     C 4522  11.232   5.908  12.185  0.2951 -0.1355 -0.2602
  775MOL0     C 4523  11.206   6.036  12.210 -0.0556 -0.6268 -0.1454
  775MOL0     C 4524  11.301   6.126  12.272 -0.3760  0.4023  0.3545
  775MOL0     C 4525  11.409   6.065  12.343 -0.7632 -0.1504  0.3047
  775MOL0     O 4526  11.493   6.132  12.417  0.5370 -0.2416  0.6626
  775MOL0     C 4527  11.509   6.272  12.402 -0.4011  0.1626  1.1871
  775MOL0     C 4528  11.455   6.354  12.518  0.0907 -0.8638  0.0642
  775MOL0     C 4529  11.521   6.488  12.523 -0.3137 -0.7933  0.5404
  775MOL0     C 4530  11.466   6.583  12.409  0.0564 -0.6037  0.4831
  775MOL0     C 4531  11.493   6.732  12.449  0.2464  0.1160 -0.3885
  775MOL0     C 4532  11.644   6.759  12.432  1.4833  0.1456  0.5340
  775MOL0     C 4533  11.672   6.905  12.462  0.1815  0.2369 -0.0003
  775MOL0     C 4534  11.817   6.952  12.440 -0.6359  0.3427  0.9592
  775MOL0    Cl 4535  11.862   6.905  12.277 -0.4398  0.0646  0.4069
  775MOL0     C 4536  11.430   5.928  12.331  0.1243  0.0373 -0.2659
  775MOL0     C 4537  11.346   5.849  12.235 -0.0940  0.3606 -0.1292
  775MOL0     O 4538  11.069   5.716  12.311 -0.4381  0.3325 -0.5714
  775MOL0     C 4539  10.994   5.659  11.974 -0.2050  0.0216  0.3278
  775MOL0     C 4540  10.915   5.592  11.889 -0.4939  0.7847  1.3227
  775MOL0     N 4541  10.642   4.791  11.637 -0.5126 -0.5908  0.0539
  775MOL0     N 4542  10.618   4.696  11.718 -0.6319  0.4101 -0.4226
  775MOL0     C 4543   9.806   5.023  11.663  0.4073 -1.2955 -0.0601
  775MOL0     C 4544   9.782   5.149  11.614  0.4338 -1.0817 -0.5220
  775MOL0     C 4545   9.778   5.500  11.299  0.4012  0.1134  0.4065
  775MOL0     C 4546   9.647   5.524  11.341 -0.3148  0.2785  0.3600
  775MOL0     C 4547   9.570   5.617  11.277  0.2325 -0.3624  0.4073
  775MOL0     C 4548   9.626   5.697  11.174  0.0720  0.8531  0.3915
  775MOL0     O 4549   9.552   5.797  11.115  0.3624 -0.0486  0.1860
  775MOL0     C 4550   9.557   5.829  10.969 -0.6714 -0.3267 -0.1485
  775MOL0     C 4551   9.489   5.721  10.889 -0.4138 -0.4220 -0.2882
  775MOL0     C 4552   9.584   5.601  10.860  0.8103  0.7671 -0.2216
  775MOL0     C 4553   9.541   5.537  10.727 -0.5647 -0.3999 -0.9678
  775MOL0     C 4554   9.404   5.478  10.732  0.7119  0.6508  0.4844
  775MOL0     C 4555   9.292   5.436  10.735  0.9546  0.7688 -0.0429
  775MOL0     C 4556   9.758   5.680  11.138 -0.4389  0.5285  0.6320
  775MOL0     C 4557   9.834   5.577  11.195  0.5415 -0.9142 -1.1812
  775MOL0     H 4558   9.874   5.094  11.293 -1.0950 -4.6528  0.3107
  775MOL0     H 4559   9.890   4.887  11.364 -1.5040 -0.1045 -1.2769
  775MOL0     H 4560   9.918   4.664  11.465 -0.7115  0.9934 -0.6384
  775MOL0     H 4561  10.033   4.762  11.531 -0.5758  0.4293  0.0990
  775MOL0     H 4562   9.882   4.530  11.691  0.7389 -2.0777  1.2063
  775MOL0     H 4563  10.032   4.517  11.598  0.9922  0.1464  2.1783
  775MOL0     H 4564  10.131   4.710  11.733 -1.4483  3.1064  3.3770
  775MOL0     H 4565   9.996   4.690  11.846  1.2284  0.0692  0.3530
  775MOL0     H 4566  10.048   4.464  11.904  0.9197 -2.9472 -1.8878
  775MOL0     H 4567  10.169   4.445  11.787 -2.1986 -2.1882  1.2715
  775MOL0     H 4568  10.198   4.629  12.016  1.5722  0.9132  0.2810
  775MOL0     H 4569  10.263   4.471  11.996 -0.9463 -0.4484 -1.4846
  775MOL0     H 4570  10.414   4.529  11.847 -2.0205 -1.6676  0.3382
  775MOL0     H 4571  10.360   4.692  11.799  1.2505 -1.0512 -1.7649
  775MOL0     H 4572  10.417   4.759  12.044  0.7346 -0.1941  0.6265
  775MOL0     H 4573  10.437   4.593  12.083 -1.7546 -1.7923 -1.1721
  775MOL0     H 4574  10.644   4.578  11.934 -0.2359 -0.5121 -0.6140
  775MOL0     H 4575  10.654   4.710  12.047  3.8610 -1.4491 -1.7026
  775MOL0     H 4576  10.621   4.952  11.920 -0.2503 -0.7798 -0.3178
  775MOL0     H 4577  10.773   5.053  11.602  0.7509 -1.7527 -0.8287
  775MOL0     H 4578  10.618   5.077  11.551  2.9696 -2.4212 -2.5310
  775MOL0     H 4579  10.746   5.146  11.812 -0.8681 -2.8991  0.4330
  775MOL0     H 4580  10.576   5.142  11.822 -0.7958  0.1616 -1.2560
  775MOL0     H 4581  10.560   5.339  11.679 -0.1951 -0.3867 -2.1468
  775MOL0     H 4582  10.663   5.282  11.565  0.3948  1.1989  0.8875
  775MOL0     H 4583  10.760   5.490  11.669  1.1580 -1.9219 -3.3745
  775MOL0     H 4584  10.860   5.349  11.725  1.1422 -0.8141  0.0503
  775MOL0     H 4585  10.671   5.504  12.097  0.6573 -0.8335 -0.0567
  775MOL0     H 4586  10.793   5.702  12.338 -1.9094 -1.1417 -0.7386
  775MOL0     H 4587  10.702   5.559  12.305  0.1400 -0.5493 -2.9179
  775MOL0     H 4588  10.874   5.556  12.373 -1.1413  0.5912  1.9223
  775MOL0     H 4589  11.111   6.074  12.173  0.9023  1.0825 -0.9520
  775MOL0     H 4590  11.289   6.233  12.272 -0.5823  0.3909  1.5536
  775MOL0     H 4591  11.616   6.293  12.394 -0.0040 -1.0458  2.7555
  775MOL0     H 4592  11.468   6.318  12.312  0.9435  1.6490  1.2880
  775MOL0     H 4593  11.346   6.364  12.527  0.1093 -0.9629  0.4243
  775MOL0     H 4594  11.494   6.302  12.606 -0.4860  0.9304  1.4604
  775MOL0     H 4595  11.630   6.482  12.520 -0.0407  2.6845 -0.4567
  775MOL0     H 4596  11.505   6.529  12.623  0.3661 -0.3204  0.4571
  775MOL0     H 4597  11.512   6.559  12.312  0.1329 -1.2727  0.6765
  775MOL0     H 4598  11.358   6.565  12.403 -0.0400  0.3973 -2.2105
  775MOL0     H 4599  11.474   6.756  12.554  0.5655 -1.4141  0.0392
  775MOL0     H 4600  11.431   6.795  12.384 -3.6738 -0.1368  2.7187
  775MOL0     H 4601  11.697   6.702  12.509  0.6251  0.4117  1.3336
  775MOL0     H 4602  11.661   6.715  12.334  0.9156 -3.5372  1.9106
  775MOL0     H 4603  11.648   6.929  12.566 -2.4306 -0.3080 -0.4115
  775MOL0     H 4604  11.615   6.969  12.393 -1.5365  0.1423  1.2728
  775MOL0     H 4605  11.885   6.900  12.508  1.6932  2.0672  0.0811
  775MOL0     H 4606  11.833   7.060  12.449 -2.2047  1.3135 -4.3386
  775MOL0     H 4607  11.488   5.867  12.400 -3.9525 -2.4331  1.3376
  775MOL0     H 4608  11.369   5.745  12.213  1.5024  0.2440  1.7744
  775MOL0     H 4609  11.087   5.695  11.932 -0.0132 -2.9482 -2.1469
  775MOL0     H 4610  10.959   5.565  11.794 -0.1038  0.4040  1.6083
  775MOL0     H 4611   9.772   4.987  11.760 -2.4319 -1.2810 -0.9627
  775MOL0     H 4612   9.751   5.232  11.677  0.0649 -0.8681 -0.9774
  775MOL0     H 4613   9.597   5.457  11.409 -3.6524 -1.0632 -3.0247
  775MOL0     H 4614   9.468   5.634  11.308 -0.0007 -1.0561  0.0520
  775MOL0     H 4615   9.515   5.928  10.951  0.8801  0.3571 -0.2027
  775MOL0     H 4616   9.660   5.851  10.939 -0.6914  2.4727  1.5666
  775MOL0     H 4617   9.471   5.782  10.800 -1.8565 -0.0992  0.1912
  775MOL0     H 4618   9.395   5.677  10.924  0.4789 -4.3736 -2.3571
  775MOL0     H 4619   9.577   5.527  10.940  0.6289  1.1472  0.1237
  775MOL0     H 4620   9.690   5.625  10.858  0.8146  1.7271  3.6661
  775MOL0     H 4621   9.614   5.458  10.705  0.3087  0.4695 -1.2862
  775MOL0     H 4622   9.560   5.613  10.650 -3.1308 -0.9170 -2.2344
  775MOL0     H 4623   9.192   5.398  10.744  1.3815  0.0902  3.1831
  775MOL0     H 4624   9.810   5.742  11.066 -1.6506 -0.7763 -1.4904
  775MOL0     H 4625   9.940   5.577  11.173  0.6916  0.7951 -0.6377
  776MOL0     O 4626  10.106   3.840   4.897  0.4739 -0.7212  0.1528
  776MOL0     C 4627  10.200   3.770   4.892 -0.3727 -0.3458 -0.7775
  776MOL0     O 4628  10.200   3.641   4.876  0.2088  0.4623  0.4825
  776MOL0     C 4629  10.081   3.575   4.905 -0.1241  0.3986  0.3859
  776MOL0     C 4630  10.027   3.498   4.802 -0.0617  0.4045 -0.8730
  776MOL0     C 4631   9.926   3.404   4.828 -0.3442  0.6940 -0.2951
  776MOL0     C 4632   9.868   3.393   4.953  0.2220 -0.5813 -0.2842
  776MOL0     O 4633   9.770   3.306   4.970 -0.2824  0.0270 -0.0791
  776MOL0     C 4634   9.737   3.268   5.100 -0.0827  0.5819 -1.4739
  776MOL0     C 4635   9.626   3.168   5.115 -0.4485  0.0233  0.6462
  776MOL0     C 4636   9.498   3.213   5.036  0.3899 -0.4838 -0.1617
  776MOL0     C 4637   9.382   3.123   5.068  0.0403 -0.2689 -0.5533
  776MOL0     C 4638   9.243   3.182   5.041 -0.4119 -0.3063  0.1847
  776MOL0     C 4639   9.184   3.296   5.134  0.0406  0.6851 -0.1296
  776MOL0     C 4640   9.047   3.354   5.086 -0.3424  0.0414 -0.1836
  776MOL0     C 4641   8.930   3.249   5.086  0.0008 -1.0323  1.1931
  776MOL0     N 4642   8.803   3.325   5.109 -0.0731 -0.9236  0.5288
  776MOL0     C 4643   8.717   3.374   5.013  0.1868  0.2424  0.5880
  776MOL0     C 4644   8.613   3.429   5.084 -0.0567 -0.0644 -0.8547
  776MOL0     C 4645   8.496   3.483   5.017 -0.6731 -0.3606  0.4554
  776MOL0     C 4646   8.523   3.614   4.949 -0.0464  0.3371 -0.7014
  776MOL0     C 4647   8.414   3.650   4.842 -0.0480 -0.4570 -0.5716
  776MOL0     C 4648   8.433   3.784   4.774 -1.2322  0.0987  0.1256
  776MOL0     O 4649   8.339   3.792   4.662  0.1017  0.2031 -0.2991
  776MOL0     C 4650   8.201   3.800   4.669 -0.1055  0.8649 -0.3893
  776MOL0     C 4651   8.125   3.806   4.783  0.5493  0.1721 -0.6885
  776MOL0     C 4652   7.988   3.802   4.782  0.0887 -0.9118 -0.1752
  776MOL0     C 4653   7.915   3.808   4.910  0.2863 -0.3970  0.7140
  776MOL0     C 4654   7.921   3.804   4.651 -0.4856  0.5102 -0.1646
  776MOL0     C 4655   7.775   3.813   4.629  1.0166  0.5538  0.0865
  776MOL0     O 4656   7.741   3.789   4.498 -0.0736  0.8074 -0.4902
  776MOL0     C 4657   7.610   3.767   4.465  1.2177  0.6004 -0.0012
  776MOL0     C 4658   7.494   3.736   4.547  0.0652 -0.4390 -0.4512
  776MOL0     C 4659   7.362   3.754   4.496 -0.1921  0.2563  0.3233
  776MOL0     C 4660   7.341   3.771   4.357  0.4386 -0.3566  0.9295
  776MOL0     O 4661   7.215   3.765   4.296  0.0915 -0.0196 -0.6235
  776MOL0     C 4662   7.136   3.657   4.352  0.3343 -0.3902 -0.8091
  776MOL0     C 4663   7.053   3.601   4.238 -0.4068  0.3095  2.1327
  776MOL0     C 4664   6.964   3.486   4.272 -0.2254 -0.2047 -0.3187
  776MOL0     C 4665   6.841   3.468   4.186 -0.2137 -0.2775 -0.1059
  776MOL0     C 4666   6.753   3.355   4.233 -0.3780  0.2411  0.3461
  776MOL0     C 4667   6.649   3.309   4.132  0.1369  0.0639 -0.3012
  776MOL0     C 4668   6.592   3.176   4.179  0.3824 -0.1556  0.2443
  776MOL0     C 4669   6.462   3.127   4.115 -0.2392 -0.6794 -1.0129
  776MOL0    Cl 4670   6.506   3.099   3.945 -0.5124 -0.2101  0.3243
  776MOL0     C 4671   7.447   3.800   4.281 -0.4699  0.9289 -0.9362
  776MOL0     C 4672   7.575   3.797   4.331  0.3026 -0.7508 -0.8091
  776MOL0     O 4673   7.696   3.845   4.715 -0.8427  0.0792 -0.2747
  776MOL0     C 4674   8.001   3.812   4.538 -0.7235 -0.0935  0.9507
  776MOL0     C 4675   8.137   3.795   4.545 -0.0237 -0.5218  0.5145
  776MOL0     N 4676   8.636   3.414   5.217  0.4262  0.1676 -0.4190
  776MOL0     N 4677   8.748   3.342   5.228  0.3358 -0.0733  0.7269
  776MOL0     C 4678   9.917   3.477   5.054 -0.3899  0.1660  1.0535
  776MOL0     C 4679  10.025   3.566   5.030 -0.2408 -0.0518  0.4323
  776MOL0     C 4680  10.330   3.830   4.927  0.4216 -0.3108 -0.0374
  776MOL0     C 4681  10.451   3.760   4.907  0.7473 -0.0733  0.1477
  776MOL0     C 4682  10.571   3.824   4.950 -0.0741  0.2170 -0.1876
  776MOL0     C 4683  10.570   3.954   5.013  0.0839  0.4694  0.6644
  776MOL0     O 4684  10.694   4.015   5.028  0.2267 -0.1975 -0.3823
  776MOL0     C 4685  10.720   4.067   5.162  0.9423  0.8006  0.4408
  776MOL0     C 4686  10.856   4.135   5.165  0.7902  0.4821 -0.2300
  776MOL0     C 4687  10.876   4.239   5.052  0.3528  0.1856  1.0555
  776MOL0     C 4688  10.762   4.335   5.026  0.7524  0.0339  0.7714
  776MOL0     C 4689  10.788   4.473   4.967 -0.6661  0.1605 -0.0598
  776MOL0     C 4690  10.829   4.576   4.916 -0.2915 -0.0136 -0.4364
  776MOL0     C 4691  10.447   4.020   5.031  0.2278 -0.0185 -0.4734
  776MOL0     C 4692  10.332   3.962   4.987 -1.8947  0.1676  0.2741
  776MOL0     H 4693  10.075   3.502   4.704  2.6888 -2.9446  0.1601
  776MOL0     H 4694   9.885   3.331   4.759  1.2664 -0.7039  0.1742
  776MOL0     H 4695   9.827   3.228   5.146 -2.0289 -1.9150  0.4820
  776MOL0     H 4696   9.701   3.350   5.164 -2.3787 -0.6421 -1.0899
  776MOL0     H 4697   9.651   3.069   5.074  0.3201  1.2926 -2.1816
  776MOL0     H 4698   9.601   3.160   5.221 -3.0077 -2.6019  0.0070
  776MOL0     H 4699   9.485   3.313   5.077 -0.5224  0.3591 -2.3922
  776MOL0     H 4700   9.502   3.229   4.928 -0.9803 -1.0284 -0.3079
  776MOL0     H 4701   9.390   3.031   5.010 -3.0489  0.2176 -1.9803
  776MOL0     H 4702   9.385   3.089   5.172  1.2646 -2.6570 -1.2998
  776MOL0     H 4703   9.246   3.224   4.940 -0.5456 -1.2476 -0.2144
  776MOL0     H 4704   9.172   3.100   5.052 -0.0601 -0.4289  1.8857
  776MOL0     H 4705   9.170   3.254   5.234 -3.4373 -1.9352 -1.4848
  776MOL0     H 4706   9.248   3.383   5.147  1.3341 -0.2220 -0.2419
  776MOL0     H 4707   9.034   3.445   5.145 -0.6022 -0.4520  0.5272
  776MOL0     H 4708   9.054   3.386   4.982 -3.8772 -1.1939 -0.9158
  776MOL0     H 4709   8.940   3.184   5.174  0.8307 -1.2073  0.9749
  776MOL0     H 4710   8.921   3.189   4.995  0.4570  1.8007 -0.8618
  776MOL0     H 4711   8.733   3.352   4.908 -1.9846 -0.0635  0.2669
  776MOL0     H 4712   8.460   3.408   4.947  3.1045 -0.9177 -1.1357
  776MOL0     H 4713   8.414   3.497   5.088 -3.5156 -0.7407 -2.5391
  776MOL0     H 4714   8.619   3.610   4.896 -0.2651  2.0657 -1.3016
  776MOL0     H 4715   8.526   3.693   5.025  3.4381  0.9163 -1.2788
  776MOL0     H 4716   8.326   3.659   4.906  4.0725  2.6461  5.5378
  776MOL0     H 4717   8.407   3.575   4.762 -1.5007  1.4367 -2.3464
  776MOL0     H 4718   8.527   3.798   4.722 -1.8155  0.5267 -0.8309
  776MOL0     H 4719   8.416   3.861   4.850 -2.1380 -1.6942  1.8281
  776MOL0     H 4720   8.175   3.799   4.878  1.5313 -2.0829 -1.3168
  776MOL0     H 4721   7.886   3.904   4.953  2.7052  0.2189  1.0958
  776MOL0     H 4722   7.814   3.768   4.898 -0.5758  2.0653 -0.9299
  776MOL0     H 4723   7.963   3.752   4.991 -2.0070 -1.5955  1.3334
  776MOL0     H 4724   7.507   3.704   4.650  2.3930 -1.4565 -0.9849
  776MOL0     H 4725   7.271   3.731   4.550 -0.2330  0.5755  0.3939
  776MOL0     H 4726   7.192   3.574   4.394  0.5667 -0.3774 -1.0969
  776MOL0     H 4727   7.067   3.688   4.431  0.9072 -1.7524  0.2514
  776MOL0     H 4728   6.990   3.681   4.200 -3.0300 -1.3130  2.8360
  776MOL0     H 4729   7.119   3.567   4.157 -0.2835 -2.1988  3.1856
  776MOL0     H 4730   6.944   3.492   4.379  1.3494  0.1684 -0.0137
  776MOL0     H 4731   7.031   3.399   4.267  1.5750  1.1551 -1.0400
  776MOL0     H 4732   6.769   3.549   4.168 -1.4449 -1.0412  1.1927
  776MOL0     H 4733   6.876   3.447   4.085  0.2483 -2.3399  0.4477
  776MOL0     H 4734   6.709   3.379   4.330 -0.4431 -1.7865  0.8643
  776MOL0     H 4735   6.815   3.265   4.241 -2.1288 -1.4790 -3.0776
  776MOL0     H 4736   6.568   3.382   4.123  1.0339  0.8626 -2.7946
  776MOL0     H 4737   6.692   3.302   4.032 -1.6509 -1.1156 -1.0274
  776MOL0     H 4738   6.569   3.181   4.286 -1.9965  1.7875 -0.2651
  776MOL0     H 4739   6.669   3.101   4.158  1.4444  0.8798  0.3125
  776MOL0     H 4740   6.386   3.205   4.120  0.3501 -0.1537  0.5092
  776MOL0     H 4741   6.435   3.037   4.170  1.1868 -0.0903  0.7575
  776MOL0     H 4742   7.421   3.810   4.177 -0.1049 -3.2774 -1.6067
  776MOL0     H 4743   7.659   3.851   4.289  1.4953  2.6171  4.7754
  776MOL0     H 4744   7.962   3.805   4.437  0.3531 -4.2507  0.6021
  776MOL0     H 4745   8.190   3.798   4.450 -0.2070 -2.8628  0.2708
  776MOL0     H 4746   9.880   3.461   5.154 -1.9660 -3.1315  0.0959
  776MOL0     H 4747  10.070   3.613   5.117  0.3524  0.1842 -0.0016
  776MOL0     H 4748  10.439   3.663   4.860 -2.5622 -0.3304  1.2527
  776MOL0     H 4749  10.665   3.771   4.945  0.8408  1.6676  0.9285
  776MOL0     H 4750  10.646   4.137   5.200  1.5311  4.0366 -3.6020
  776MOL0     H 4751  10.726   3.986   5.235  1.6732  1.0171  0.6346
  776MOL0     H 4752  10.932   4.056   5.171  2.6188  1.8723 -3.1734
  776MOL0     H 4753  10.857   4.188   5.261 -2.3887 -1.1565  0.8481
  776MOL0     H 4754  10.902   4.196   4.955 -1.7640 -0.0010  0.5071
  776MOL0     H 4755  10.963   4.299   5.079  1.8905 -0.5838 -1.7209
  776MOL0     H 4756  10.721   4.356   5.125 -0.9194  1.1372 -0.1068
  776MOL0     H 4757  10.680   4.300   4.963 -0.9556 -0.1230  2.9746
  776MOL0     H 4758  10.864   4.664   4.866 -1.0254 -0.1746 -1.2503
  776MOL0     H 4759  10.445   4.112   5.088  4.9883 -0.1089  0.2863
  776MOL0     H 4760  10.241   4.015   5.014 -1.0722  0.7560  1.9833
  777MOL0     O 4761  10.318   7.142   2.623  0.0686  0.9314 -0.5344
  777MOL0     C 4762  10.195   7.144   2.645  0.1640 -1.0545  0.1437
  777MOL0     O 4763  10.092   7.154   2.549 -0.0314  0.1373 -0.2414
  777MOL0     C 4764  10.109   7.139   2.416 -0.0939 -0.8957 -0.7929
  777MOL0     C 4765   9.987   7.140   2.342  0.0862 -0.1105 -0.7719
  777MOL0     C 4766   9.979   7.097   2.206  0.4542  0.0900  0.1644
  777MOL0     C 4767  10.099   7.067   2.136 -0.0030  0.4339 -0.6034
  777MOL0     O 4768  10.105   7.023   2.004  0.7031 -0.8261  0.0433
  777MOL0     C 4769   9.983   6.973   1.955  0.3453  0.1716 -0.2833
  777MOL0     C 4770   9.999   6.920   1.812  0.3715 -0.4576 -0.1774
  777MOL0     C 4771  10.072   6.788   1.801 -1.1660  0.0559  0.3535
  777MOL0     C 4772  10.087   6.760   1.649 -0.1891  0.2634 -0.4239
  777MOL0     C 4773  10.093   6.611   1.623  0.9094 -0.0545  0.0668
  777MOL0     C 4774  10.199   6.526   1.693  0.6309  0.3370 -0.5363
  777MOL0     C 4775  10.143   6.400   1.747 -0.4605 -0.1426  0.5547
  777MOL0     C 4776  10.241   6.337   1.852 -0.2726  0.8077 -0.6623
  777MOL0     N 4777  10.172   6.227   1.923 -0.4209 -0.4709  0.1181
  777MOL0     C 4778  10.241   6.124   1.982  0.7098  0.0421 -0.1096
  777MOL0     C 4779  10.141   6.057   2.042  0.3793  0.3488  1.2103
  777MOL0     C 4780  10.169   5.927   2.117 -0.1116  0.1565 -0.1823
  777MOL0     C 4781  10.047   5.826   2.102 -0.7763  0.1566 -0.1662
  777MOL0     C 4782  10.021   5.766   1.967 -1.0949  0.6170  1.2709
  777MOL0     C 4783  10.124   5.665   1.935 -0.0297  0.0448 -0.1148
  777MOL0     O 4784  10.262   5.722   1.906 -0.1015  0.0688 -0.3582
  777MOL0     C 4785  10.273   5.808   1.804  0.7836 -0.1759  1.4841
  777MOL0     C 4786  10.381   5.885   1.801  0.2102 -0.8241  0.7008
  777MOL0     C 4787  10.392   5.997   1.714 -0.9592 -0.2240 -0.9656
  777MOL0     C 4788  10.520   6.083   1.744 -0.0026 -1.2156 -0.1599
  777MOL0     C 4789  10.294   6.019   1.618  0.2799  0.4201 -0.0491
  777MOL0     C 4790  10.295   6.133   1.526 -0.0278 -0.1542  0.5881
  777MOL0     O 4791  10.233   6.108   1.406  0.3850 -0.5383 -0.1841
  777MOL0     C 4792  10.234   6.207   1.312  0.1200 -0.6712 -0.5750
  777MOL0     C 4793  10.324   6.200   1.203  0.2493  0.0207  0.4040
  777MOL0     C 4794  10.339   6.303   1.105  0.2008  0.6409  1.0130
  777MOL0     C 4795  10.262   6.422   1.123 -0.5600 -0.8322 -0.1090
  777MOL0     O 4796  10.268   6.533   1.043  0.6802 -0.2463  0.1054
  777MOL0     C 4797  10.334   6.529   0.917 -0.4898 -0.9412 -0.2762
  777MOL0     C 4798  10.257   6.627   0.820 -0.5290 -0.2419  0.2562
  777MOL0     C 4799  10.339   6.660   0.692  0.9971  0.3884  0.8149
  777MOL0     C 4800  10.268   6.764   0.609  0.4287 -0.3961  0.4668
  777MOL0     C 4801  10.350   6.782   0.477  0.5793 -1.3526 -0.9375
  777MOL0     C 4802  10.287   6.894   0.403  0.0370 -0.4432  0.3936
  777MOL0     C 4803  10.376   6.958   0.296  0.0315 -1.0064 -0.0244
  777MOL0     C 4804  10.435   6.852   0.203 -0.0970  0.1671  0.6953
  777MOL0    Cl 4805  10.504   6.936   0.057  0.1167  0.1835  0.5146
  777MOL0     C 4806  10.165   6.425   1.220 -1.0841  0.5274  0.4203
  777MOL0     C 4807  10.156   6.322   1.320 -0.6434  0.4861  1.1192
  777MOL0     O 4808  10.341   6.241   1.568  0.2163 -0.0544  0.7381
  777MOL0     C 4809  10.193   5.918   1.605  0.8062  0.2335  0.2068
  777MOL0     C 4810  10.187   5.807   1.692 -0.6464  0.3723  0.3242
  777MOL0     N 4811  10.015   6.121   2.022  0.3114  0.1819  0.5979
  777MOL0     N 4812  10.041   6.229   1.966 -0.1954  0.2232  0.8974
  777MOL0     C 4813  10.218   7.070   2.214 -0.2772  0.6619 -0.2452
  777MOL0     C 4814  10.226   7.106   2.349 -0.2111 -0.1959 -0.2472
  777MOL0     C 4815  10.142   7.125   2.788 -0.4552  0.3740  0.4770
  777MOL0     C 4816  10.230   7.120   2.893  0.0407 -1.3582 -0.2379
  777MOL0     C 4817  10.181   7.104   3.021  0.1274  0.5503 -0.0899
  777MOL0     C 4818  10.047   7.083   3.043  0.0390  0.1703 -0.6692
  777MOL0     O 4819   9.995   7.063   3.166 -0.9740 -0.1264 -1.5991
  777MOL0     C 4820  10.030   6.935   3.226  0.5896  0.1154 -0.0502
  777MOL0     C 4821  10.133   6.950   3.339 -0.5796  0.5887 -0.3480
  777MOL0     C 4822  10.219   6.823   3.366  0.5687 -0.0699  0.9882
  777MOL0     C 4823  10.137   6.713   3.421 -0.2701 -0.0576  0.2377
  777MOL0     C 4824  10.232   6.606   3.454 -0.4439  0.0403 -0.4813
  777MOL0     C 4825  10.312   6.516   3.477 -0.2112  0.4102  0.4937
  777MOL0     C 4826   9.965   7.075   2.935  0.7974  1.2632 -0.0928
  777MOL0     C 4827  10.003   7.105   2.809 -0.6325 -0.5902  0.5996
  777MOL0     H 4828   9.899   7.162   2.401 -0.5549  3.9633 -2.8750
  777MOL0     H 4829   9.882   7.116   2.161 -1.5452  0.1614  4.0781
  777MOL0     H 4830   9.945   6.897   2.024  2.0429 -0.7291 -0.2789
  777MOL0     H 4831   9.908   7.053   1.949 -1.1186 -1.0704  0.6457
  777MOL0     H 4832   9.901   6.889   1.776 -0.1170  0.7169  0.0891
  777MOL0     H 4833  10.046   6.991   1.743 -1.2336  1.3862  0.5295
  777MOL0     H 4834  10.177   6.798   1.832 -0.6650 -3.2275  0.0933
  777MOL0     H 4835  10.025   6.701   1.848 -0.1061 -0.7801 -0.0801
  777MOL0     H 4836   9.997   6.802   1.605 -0.0365  1.0917  0.0275
  777MOL0     H 4837  10.177   6.803   1.605  0.7585 -2.0748 -0.9523
  777MOL0     H 4838   9.991   6.570   1.627  0.5306  0.6910 -1.2637
  777MOL0     H 4839  10.116   6.601   1.517  0.6729  2.6029 -0.2961
  777MOL0     H 4840  10.281   6.506   1.624  1.1164 -1.5788  0.5243
  777MOL0     H 4841  10.230   6.585   1.779 -0.0428  0.1798 -0.1735
  777MOL0     H 4842  10.045   6.426   1.788 -0.9238 -1.7456  0.5324
  777MOL0     H 4843  10.125   6.323   1.672  0.6187  1.8357 -1.8671
  777MOL0     H 4844  10.283   6.400   1.931 -2.0569 -1.0836  1.9730
  777MOL0     H 4845  10.319   6.285   1.795 -1.5133 -3.7843  1.3050
  777MOL0     H 4846  10.349   6.107   1.981  0.4609 -1.7324 -0.1756
  777MOL0     H 4847  10.265   5.879   2.095  2.1716  3.0534  2.5351
  777MOL0     H 4848  10.173   5.969   2.218 -1.5906 -1.9966  0.8648
  777MOL0     H 4849   9.952   5.872   2.133 -2.3531 -1.8214 -1.7866
  777MOL0     H 4850  10.076   5.745   2.169 -1.1584 -2.3671 -2.8666
  777MOL0     H 4851   9.999   5.840   1.890 -0.6705 -0.5573 -0.0349
  777MOL0     H 4852   9.930   5.705   1.973  0.2707 -1.9229 -1.1479
  777MOL0     H 4853  10.076   5.606   1.857  0.0446 -1.0207  0.6231
  777MOL0     H 4854  10.128   5.590   2.015  3.8576  0.7293  0.5266
  777MOL0     H 4855  10.442   5.888   1.891  0.2222 -1.4529  0.7197
  777MOL0     H 4856  10.550   6.151   1.664  1.6805 -0.0844  1.3699
  777MOL0     H 4857  10.495   6.136   1.836 -1.2932  1.2556 -1.8272
  777MOL0     H 4858  10.617   6.034   1.755  0.7366  0.3637  0.6710
  777MOL0     H 4859  10.393   6.117   1.200  1.0922  0.7129  0.2909
  777MOL0     H 4860  10.402   6.296   1.017 -1.7041 -0.2794 -0.3325
  777MOL0     H 4861  10.440   6.554   0.914 -0.5672 -0.4853  0.5685
  777MOL0     H 4862  10.326   6.432   0.868 -0.5622 -1.8838  1.5128
  777MOL0     H 4863  10.157   6.591   0.792 -0.9616  0.4360  0.8867
  777MOL0     H 4864  10.249   6.722   0.874 -0.4159  0.5791 -1.1209
  777MOL0     H 4865  10.359   6.577   0.624  3.2856  2.3212 -1.0948
  777MOL0     H 4866  10.431   6.714   0.717  0.0341  2.3969  0.3025
  777MOL0     H 4867  10.169   6.733   0.575  0.7329 -0.0079 -0.8208
  777MOL0     H 4868  10.252   6.852   0.672 -2.2017  0.1200 -0.7779
  777MOL0     H 4869  10.368   6.691   0.419  0.2283 -1.7865 -0.3688
  777MOL0     H 4870  10.446   6.819   0.513  0.0528 -0.3979 -0.4970
  777MOL0     H 4871  10.199   6.857   0.350 -0.3295  1.3027 -0.2998
  777MOL0     H 4872  10.271   6.972   0.478  0.0337 -2.5025  2.6471
  777MOL0     H 4873  10.450   7.025   0.341 -1.3744  1.1286 -0.7176
  777MOL0     H 4874  10.323   7.031   0.233  1.9372  1.7364  1.3710
  777MOL0     H 4875  10.363   6.776   0.172 -0.1606  0.7119 -0.5599
  777MOL0     H 4876  10.518   6.799   0.249 -0.5214 -2.4423 -1.3166
  777MOL0     H 4877  10.099   6.511   1.221  1.8650  2.9591  2.2831
  777MOL0     H 4878  10.083   6.339   1.399 -2.1151  0.0770 -0.1079
  777MOL0     H 4879  10.114   5.910   1.532 -0.7019  1.1556  1.6746
  777MOL0     H 4880  10.104   5.736   1.690  1.4191 -2.2249  0.6688
  777MOL0     H 4881  10.313   7.060   2.162  2.0539  2.6388  3.1836
  777MOL0     H 4882  10.327   7.098   2.388  0.7272 -1.8892 -2.7926
  777MOL0     H 4883  10.337   7.133   2.879 -0.3215  1.5049 -0.9070
  777MOL0     H 4884  10.255   7.122   3.098  0.9754  0.9778 -0.9812
  777MOL0     H 4885   9.939   6.880   3.248  0.6554  1.1365  3.2587
  777MOL0     H 4886  10.075   6.879   3.144  1.7017 -1.2942  1.4609
  777MOL0     H 4887  10.088   6.971   3.436  0.0643 -0.6525  0.2511
  777MOL0     H 4888  10.195   7.039   3.321  0.3046 -0.2811 -1.8354
  777MOL0     H 4889  10.304   6.862   3.422 -0.1147  2.7617  0.1992
  777MOL0     H 4890  10.267   6.792   3.273 -0.1080 -1.2864  1.0188
  777MOL0     H 4891  10.065   6.678   3.347  0.0748  2.8268 -1.5854
  777MOL0     H 4892  10.076   6.737   3.509 -2.0543 -0.5347 -0.8224
  777MOL0     H 4893  10.378   6.440   3.513 -0.1730  0.9829  1.6904
  777MOL0     H 4894   9.861   7.058   2.960  0.5183  1.5203 -1.0149
  777MOL0     H 4895   9.932   7.116   2.727 -2.1689  2.4513  2.1621
  778MOL0     O 4896   2.433   8.548   6.339 -0.0397  0.1983 -0.1023
  778MOL0     C 4897   2.476   8.531   6.227  0.5983  0.5477 -1.3446
  778MOL0     O 4898   2.410   8.567   6.107  0.3822 -0.7169 -0.6305
  778MOL0     C 4899   2.315   8.662   6.125  0.5103 -0.0758  0.0094
  778MOL0     C 4900   2.183   8.626   6.124  0.8168  0.2730  0.4326
  778MOL0     C 4901   2.085   8.725   6.148 -0.5383  0.2791 -0.0465
  778MOL0     C 4902   2.114   8.867   6.172  0.0797  0.1691  0.1171
  778MOL0     O 4903   2.032   8.982   6.192 -0.0040  0.3669 -0.7472
  778MOL0     C 4904   1.890   8.955   6.165  0.8373  0.1558 -0.7408
  778MOL0     C 4905   1.811   9.090   6.132  0.1688 -0.2665  0.0333
  778MOL0     C 4906   1.672   9.053   6.087 -0.1607 -0.7872 -0.2590
  778MOL0     C 4907   1.609   9.185   6.028  0.3189 -0.2023  0.2878
  778MOL0     C 4908   1.449   9.170   5.999 -0.1724 -0.1052 -0.3540
  778MOL0     C 4909   1.406   9.283   5.914  0.1354  0.0852  0.3644
  778MOL0     C 4910   1.257   9.272   5.882  0.0782  0.7198  0.4450
  778MOL0     C 4911   1.158   9.316   5.997  0.7346 -0.3723  0.1494
  778MOL0     N 4912   1.022   9.337   5.960 -0.1572 -0.1491  0.4528
  778MOL0     C 4913   0.982   9.431   5.871 -0.4437  0.1916 -0.2902
  778MOL0     C 4914   0.845   9.413   5.869 -1.0530  0.0989 -0.2344
  778MOL0     C 4915   0.744   9.485   5.777 -0.0368  0.7581  0.2708
  778MOL0     C 4916   0.619   9.548   5.840  1.1061 -0.6717 -0.0404
  778MOL0     C 4917   0.518   9.577   5.734 -0.4586 -0.3062  1.0119
  778MOL0     C 4918   0.379   9.599   5.776 -0.6500 -0.1855 -0.5263
  778MOL0     O 4919   0.342   9.497   5.872 -0.9581  0.0271 -0.4096
  778MOL0     C 4920   0.212   9.506   5.929  0.0649 -0.1215  0.4235
  778MOL0     C 4921   0.119   9.613   5.911  0.5625  0.6938 -0.0180
  778MOL0     C 4922  -0.018   9.603   5.953  0.0522 -0.1587 -0.4229
  778MOL0     C 4923  -0.110   9.719   5.954  0.4823 -0.6115 -1.1098
  778MOL0     C 4924  -0.062   9.468   5.991 -0.2579 -0.2273  0.6027
  778MOL0     C 4925  -0.205   9.430   6.024 -0.9282 -0.9217 -0.4448
  778MOL0     O 4926  -0.223   9.302   6.069  0.0943  0.2623 -0.2018
  778MOL0     C 4927  -0.354   9.266   6.118 -0.3962  0.2095 -0.1693
  778MOL0     C 4928  -0.415   9.349   6.217  0.2317  0.9116  0.1794
  778MOL0     C 4929  -0.536   9.298   6.273  0.1193  0.6781  0.3745
  778MOL0     C 4930  -0.596   9.171   6.247  0.4227 -0.5683 -0.1937
  778MOL0     O 4931  -0.707   9.119   6.313 -0.7495 -0.4934 -0.1998
  778MOL0     C 4932  -0.801   9.212   6.369 -0.2815 -0.1916 -0.4618
  778MOL0     C 4933  -0.929   9.129   6.389  0.2888 -0.1168  0.6501
  778MOL0     C 4934  -1.037   9.210   6.470 -0.4293  0.3372 -0.3895
  778MOL0     C 4935  -1.174   9.153   6.455 -0.0362 -0.5157 -0.7119
  778MOL0     C 4936  -1.267   9.248   6.531 -0.8144 -0.5857 -0.0690
  778MOL0     C 4937  -1.410   9.218   6.511  0.0448  0.1128  0.0936
  778MOL0     C 4938  -1.454   9.108   6.606 -0.1226 -0.7139 -0.1505
  778MOL0     C 4939  -1.603   9.075   6.608 -0.0578 -0.1371 -0.4636
  778MOL0    Cl 4940  -1.704   9.220   6.640  0.1668  0.0505  0.5286
  778MOL0     C 4941  -0.526   9.091   6.150  0.1657  0.4133 -0.7594
  778MOL0     C 4942  -0.402   9.137   6.088  0.7743  0.0595 -0.1339
  778MOL0     O 4943  -0.299   9.506   5.982  0.1922  0.4230 -0.3331
  778MOL0     C 4944   0.032   9.359   6.006 -0.0849 -0.4394  0.8312
  778MOL0     C 4945   0.168   9.380   5.975  0.2124  0.1125  0.1082
  778MOL0     N 4946   0.815   9.295   5.940 -0.4042 -0.9323 -0.2413
  778MOL0     N 4947   0.924   9.248   5.984 -0.2098 -0.5163  0.7216
  778MOL0     C 4948   2.254   8.898   6.157 -0.3534 -0.5521  0.0787
  778MOL0     C 4949   2.346   8.796   6.141 -0.3839  0.0035 -0.3081
  778MOL0     C 4950   2.589   8.435   6.214  0.1031 -0.7752  0.2419
  778MOL0     C 4951   2.654   8.389   6.328  0.0134 -0.0025 -0.2993
  778MOL0     C 4952   2.766   8.306   6.317  0.0855  0.1386 -0.9601
  778MOL0     C 4953   2.817   8.259   6.200 -0.1826  0.1983  0.2213
  778MOL0     O 4954   2.917   8.167   6.200  0.5706 -0.1377 -0.4251
  778MOL0     C 4955   2.965   8.113   6.072 -0.0993  0.0787 -0.1396
  778MOL0     C 4956   3.062   7.996   6.104  1.7591 -0.3725 -0.2822
  778MOL0     C 4957   3.183   8.024   6.195  0.3176  0.2000 -0.6955
  778MOL0     C 4958   3.309   8.054   6.127  0.1212 -0.6966  0.7168
  778MOL0     C 4959   3.297   8.189   6.073  0.5270  0.6369 -0.7117
  778MOL0     C 4960   3.286   8.304   6.037 -0.2809 -0.2291 -0.2844
  778MOL0     C 4961   2.737   8.287   6.086  0.6946  0.0949 -0.4491
  778MOL0     C 4962   2.624   8.371   6.092  0.1025  0.3080  0.2725
  778MOL0     H 4963   2.150   8.525   6.101 -4.3127  1.9481 -1.0920
  778MOL0     H 4964   1.983   8.688   6.153 -0.1348 -0.7022  3.0442
  778MOL0     H 4965   1.876   8.889   6.079  0.1909  1.7850 -1.9343
  778MOL0     H 4966   1.830   8.921   6.250  0.3279  2.7577  0.0183
  778MOL0     H 4967   1.805   9.158   6.218 -0.1305  1.0373 -0.9943
  778MOL0     H 4968   1.866   9.136   6.050 -1.3974  0.4349 -0.6708
  778MOL0     H 4969   1.667   8.981   6.005 -2.3045 -0.9355 -0.0457
  778MOL0     H 4970   1.624   9.007   6.173 -0.4939 -1.0549 -0.5879
  778MOL0     H 4971   1.623   9.268   6.098  0.3395 -1.4145  1.7552
  778MOL0     H 4972   1.658   9.214   5.934 -0.1263 -3.7731 -1.2118
  778MOL0     H 4973   1.432   9.073   5.951  1.0587 -0.8109  0.5927
  778MOL0     H 4974   1.385   9.186   6.086  2.5759  4.5519  1.1700
  778MOL0     H 4975   1.417   9.376   5.971 -5.0087 -0.1782  2.3289
  778MOL0     H 4976   1.457   9.293   5.818 -4.4639 -1.7210 -2.6182
  778MOL0     H 4977   1.241   9.329   5.790  0.4523  0.2316  0.0656
  778MOL0     H 4978   1.235   9.169   5.851 -1.5736  0.9911  0.6055
  778MOL0     H 4979   1.196   9.405   6.047 -2.0255 -0.0633  1.9464
  778MOL0     H 4980   1.164   9.234   6.070  1.9508  1.9564  2.8136
  778MOL0     H 4981   1.035   9.516   5.829 -0.3413  0.7726  0.9863
  778MOL0     H 4982   0.799   9.563   5.722  1.4561 -0.3234  0.1430
  778MOL0     H 4983   0.714   9.406   5.707  1.5590 -0.4897  0.9351
  778MOL0     H 4984   0.644   9.629   5.909  0.4515 -0.9858  0.5804
  778MOL0     H 4985   0.578   9.467   5.900  0.0789 -0.2507 -0.1531
  778MOL0     H 4986   0.523   9.506   5.651 -1.0480 -1.5112  1.9861
  778MOL0     H 4987   0.542   9.676   5.694 -0.1465  1.0038  4.1595
  778MOL0     H 4988   0.316   9.584   5.688 -0.4848 -3.1980 -0.2271
  778MOL0     H 4989   0.361   9.695   5.826 -1.6056  0.4394 -1.9758
  778MOL0     H 4990   0.150   9.712   5.878  3.3987  0.4835  1.6379
  778MOL0     H 4991  -0.172   9.718   5.864 -0.4240  1.5212 -0.5725
  778MOL0     H 4992  -0.184   9.722   6.034  2.5425  1.6649  0.8992
  778MOL0     H 4993  -0.050   9.810   5.962  1.0704 -1.1387  3.2411
  778MOL0     H 4994  -0.367   9.446   6.212 -0.0416  0.9814 -2.3404
  778MOL0     H 4995  -0.581   9.371   6.339 -3.0533 -0.5821 -0.2199
  778MOL0     H 4996  -0.761   9.254   6.462  2.6286 -0.0468 -1.6752
  778MOL0     H 4997  -0.808   9.302   6.307  1.1757  1.8760  2.1415
  778MOL0     H 4998  -0.975   9.087   6.299 -2.0870  0.5991  1.4684
  778MOL0     H 4999  -0.900   9.044   6.452 -1.8320 -0.2033  1.5869
  778MOL0     H 5000  -1.027   9.311   6.430  1.1894 -0.6936 -2.8177
  778MOL0     H 5001  -1.011   9.210   6.577 -5.0976 -0.1813  0.9665
  778MOL0     H 5002  -1.198   9.141   6.349 -0.7660  0.6115 -0.6893
  778MOL0     H 5003  -1.181   9.052   6.497 -0.6242  0.4234  1.5560
  778MOL0     H 5004  -1.251   9.353   6.504  2.4926 -0.6141  1.3540
  778MOL0     H 5005  -1.236   9.238   6.635 -0.8063  0.4749  0.0383
  778MOL0     H 5006  -1.463   9.313   6.520  3.0457  2.1659 -1.9402
  778MOL0     H 5007  -1.415   9.192   6.404 -1.7985  1.9093 -0.3303
  778MOL0     H 5008  -1.429   9.137   6.708 -0.0009  0.4382 -0.4982
  778MOL0     H 5009  -1.394   9.020   6.582  1.5184  0.1280  0.7124
  778MOL0     H 5010  -1.624   9.010   6.693 -2.1939  2.9100  1.5530
  778MOL0     H 5011  -1.629   9.025   6.515  0.1857  0.8771 -1.0952
  778MOL0     H 5012  -0.580   9.002   6.121 -3.1074  2.3783 -1.3063
  778MOL0     H 5013  -0.342   9.077   6.021  1.0721  3.0830 -2.8463
  778MOL0     H 5014   0.013   9.260   6.046  1.3481 -0.7466  0.8246
  778MOL0     H 5015   0.240   9.301   5.992 -0.3895 -0.8080 -1.4837
  778MOL0     H 5016   2.269   9.006   6.150 -1.1045 -0.5557 -2.9181
  778MOL0     H 5017   2.452   8.813   6.125 -0.2502 -1.2313 -0.8257
  778MOL0     H 5018   2.627   8.430   6.425  0.2312 -1.2863  0.3287
  778MOL0     H 5019   2.803   8.272   6.413 -0.3047  1.0283 -0.4838
  778MOL0     H 5020   2.888   8.080   6.002  0.1538  0.8545 -0.8049
  778MOL0     H 5021   3.001   8.203   6.022 -1.8243  1.0361  0.2794
  778MOL0     H 5022   3.092   7.931   6.020  2.1662 -1.6969  0.8404
  778MOL0     H 5023   3.012   7.923   6.169  1.5909 -0.2424 -0.2673
  778MOL0     H 5024   3.200   7.936   6.258  2.1149  0.7721 -0.3190
  778MOL0     H 5025   3.155   8.106   6.261 -1.7018 -0.9256 -0.0847
  778MOL0     H 5026   3.331   7.982   6.048  2.2465 -0.1000  0.6989
  778MOL0     H 5027   3.389   8.058   6.202  1.5848 -1.9489 -0.6852
  778MOL0     H 5028   3.268   8.404   6.004  0.8652  0.4885  1.1187
  778MOL0     H 5029   2.758   8.229   5.997 -0.4490 -0.7729 -0.1827
  778MOL0     H 5030   2.569   8.391   6.000 -0.5618 -0.5048  0.4781
  779MOL0     O 5031   4.312  10.754   9.312  0.0335 -0.3099 -0.0721
  779MOL0     C 5032   4.295  10.799   9.200 -0.2694 -0.2522  0.3365
  779MOL0     O 5033   4.232  10.736   9.095  0.2561  0.8903  0.0245
  779MOL0     C 5034   4.223  10.599   9.089 -1.0888 -0.2650 -0.3359
  779MOL0     C 5035   4.101  10.542   9.053 -0.8191  1.8415 -0.9689
  779MOL0     C 5036   4.083  10.403   9.052  0.8677  0.0080 -0.8887
  779MOL0     C 5037   4.199  10.328   9.065 -0.6035  0.2561 -0.2462
  779MOL0     O 5038   4.166  10.196   9.042 -0.1775 -0.0008 -0.0203
  779MOL0     C 5039   4.270  10.110   8.992  0.1598 -0.4149 -0.2772
  779MOL0     C 5040   4.240   9.970   8.998 -0.2393  0.4023  0.0319
  779MOL0     C 5041   4.375   9.891   9.004 -0.2032  0.4490 -0.3738
  779MOL0     C 5042   4.360   9.741   9.030 -0.1641 -0.6976  0.4385
  779MOL0     C 5043   4.475   9.663   8.972 -0.2136  0.4687  0.2983
  779MOL0     C 5044   4.493   9.528   9.048  0.0003 -0.4826 -0.9209
  779MOL0     C 5045   4.554   9.562   9.185  0.2767 -0.4659  0.0514
  779MOL0     C 5046   4.589   9.442   9.275  0.2974 -0.1802 -0.7868
  779MOL0     N 5047   4.670   9.338   9.203  0.3638 -0.8936 -0.3083
  779MOL0     C 5048   4.802   9.346   9.150  0.2523 -0.5858 -0.6462
  779MOL0     C 5049   4.834   9.220   9.113  0.2033 -0.6648  0.2278
  779MOL0     C 5050   4.970   9.174   9.064 -1.4749  0.0329  0.0737
  779MOL0     C 5051   5.026   9.065   9.151 -0.0355 -0.9887 -0.1814
  779MOL0     C 5052   5.143   8.983   9.092 -0.7660 -0.1338 -0.2768
  779MOL0     C 5053   5.199   8.889   9.192 -0.3594 -0.0427  0.2685
  779MOL0     O 5054   5.262   8.969   9.291 -0.0220 -0.6847  0.3536
  779MOL0     C 5055   5.391   9.015   9.277 -0.2444 -1.2913  0.1356
  779MOL0     C 5056   5.445   9.077   9.394 -0.1568  1.0548  0.6451
  779MOL0     C 5057   5.577   9.106   9.403 -0.4836 -0.9533 -0.7381
  779MOL0     C 5058   5.621   9.170   9.530  0.2897 -0.4745  0.6015
  779MOL0     C 5059   5.664   9.080   9.294  0.0233  0.1456  1.0803
  779MOL0     C 5060   5.813   9.097   9.295  0.0991  0.0122  0.3858
  779MOL0     O 5061   5.869   9.183   9.384 -0.5498 -0.7276 -0.3468
  779MOL0     C 5062   5.998   9.220   9.350  0.3325 -0.7723  0.2586
  779MOL0     C 5063   6.094   9.197   9.449 -0.2841 -0.1140 -0.7512
  779MOL0     C 5064   6.229   9.234   9.430 -0.4653  0.3280 -0.3322
  779MOL0     C 5065   6.267   9.281   9.307  0.2637  0.1148 -0.2527
  779MOL0     O 5066   6.396   9.319   9.279  0.8926  0.1020 -0.0374
  779MOL0     C 5067   6.495   9.298   9.384  0.0928 -0.9970  0.5091
  779MOL0     C 5068   6.630   9.320   9.309 -0.5571 -0.3102 -0.3956
  779MOL0     C 5069   6.747   9.307   9.412 -0.3202  0.7728 -0.1542
  779MOL0     C 5070   6.873   9.309   9.322  0.0272 -0.6123 -0.0667
  779MOL0     C 5071   7.005   9.268   9.394 -0.9411 -0.8548  0.7376
  779MOL0     C 5072   7.077   9.373   9.471  0.3261 -0.4746 -0.5465
  779MOL0     C 5073   7.185   9.301   9.555  0.0084 -0.5796  0.4392
  779MOL0     C 5074   7.285   9.405   9.597  0.0216 -1.1452  0.7893
  779MOL0    Cl 5075   7.395   9.466   9.463  0.1833  0.0257 -0.4946
  779MOL0     C 5076   6.176   9.310   9.212  0.6562 -0.2150  0.1075
  779MOL0     C 5077   6.040   9.276   9.234 -1.1625  0.7163 -0.4338
  779MOL0     O 5078   5.887   9.022   9.215  1.2482  0.4585 -0.6439
  779MOL0     C 5079   5.610   9.029   9.171 -0.3313  0.7007 -0.2989
  779MOL0     C 5080   5.477   9.000   9.167 -0.2444  0.6892  0.1380
  779MOL0     N 5081   4.726   9.137   9.132  0.8435  0.0792 -0.1370
  779MOL0     N 5082   4.628   9.210   9.180 -0.2066  1.2997 -0.0082
  779MOL0     C 5083   4.328  10.384   9.104  0.3682  0.4174  0.5514
  779MOL0     C 5084   4.341  10.523   9.112 -0.8737  0.0607 -0.6415
  779MOL0     C 5085   4.314  10.938   9.186 -0.1260 -0.5196  0.0593
  779MOL0     C 5086   4.406  11.005   9.267  0.3754  0.3392  0.6137
  779MOL0     C 5087   4.425  11.143   9.257 -0.2829  0.3933 -0.2001
  779MOL0     C 5088   4.368  11.216   9.159 -0.6833 -0.2076  0.6348
  779MOL0     O 5089   4.401  11.349   9.156 -0.5207  0.0533 -0.1899
  779MOL0     C 5090   4.331  11.433   9.062 -0.4613  0.8301 -0.4456
  779MOL0     C 5091   4.181  11.468   9.088 -0.3811 -0.1244 -0.8828
  779MOL0     C 5092   4.112  11.495   8.953  0.5256 -0.0769 -1.1818
  779MOL0     C 5093   3.955  11.526   8.971  0.3301 -0.4508 -0.7878
  779MOL0     C 5094   3.937  11.672   9.000  0.1175 -0.7516 -0.3753
  779MOL0     C 5095   3.932  11.791   9.021 -0.2415 -1.7010  0.6965
  779MOL0     C 5096   4.270  11.152   9.070 -0.6065  0.1636  0.8382
  779MOL0     C 5097   4.252  11.014   9.089  0.0490  0.5925 -0.6674
  779MOL0     H 5098   4.016  10.608   9.038 -1.2280  1.6262  0.3423
  779MOL0     H 5099   3.988  10.367   9.014  2.5691 -0.8494 -4.7867
  779MOL0     H 5100   4.297  10.132   8.888  1.1164 -0.4431 -0.0439
  779MOL0     H 5101   4.359  10.122   9.055  0.1288 -0.7859 -0.1555
  779MOL0     H 5102   4.183   9.954   9.090 -0.8804 -1.5493 -0.6513
  779MOL0     H 5103   4.182   9.935   8.912  0.5238 -0.7660 -0.0361
  779MOL0     H 5104   4.418   9.910   8.905  1.9081 -1.1173  0.1624
  779MOL0     H 5105   4.446   9.921   9.082 -2.0836 -0.3050  1.7344
  779MOL0     H 5106   4.334   9.732   9.136  5.1918  2.0168  2.4035
  779MOL0     H 5107   4.276   9.705   8.970  0.0995 -0.3848 -0.1261
  779MOL0     H 5108   4.443   9.643   8.869 -1.4948  0.5855  0.6536
  779MOL0     H 5109   4.565   9.724   8.980 -2.0580  4.2921 -3.7143
  779MOL0     H 5110   4.393   9.483   9.051  0.1544 -0.8567 -1.2453
  779MOL0     H 5111   4.561   9.459   8.996 -0.0923  0.0356 -1.7456
  779MOL0     H 5112   4.643   9.625   9.181  0.3193 -0.5254  0.0657
  779MOL0     H 5113   4.482   9.621   9.241  3.1201  1.6915  1.7118
  779MOL0     H 5114   4.501   9.386   9.308  2.2007 -2.7002  0.3174
  779MOL0     H 5115   4.639   9.483   9.363 -3.1248 -0.4881  1.5123
  779MOL0     H 5116   4.860   9.438   9.161  1.7344 -1.7802  2.7351
  779MOL0     H 5117   4.953   9.153   8.959  2.9394  2.4896 -1.3810
  779MOL0     H 5118   5.039   9.259   9.060 -0.9643 -0.4344 -1.8318
  779MOL0     H 5119   4.947   9.000   9.189  0.1368 -1.3124 -0.3670
  779MOL0     H 5120   5.069   9.109   9.241 -1.1384 -0.6617  0.1974
  779MOL0     H 5121   5.222   9.052   9.058  0.8379 -1.4243  0.6564
  779MOL0     H 5122   5.108   8.923   9.007  0.9821 -1.4441 -0.1323
  779MOL0     H 5123   5.271   8.820   9.148 -0.4114 -0.1959  0.4215
  779MOL0     H 5124   5.122   8.826   9.239 -0.0115 -0.5927  0.1149
  779MOL0     H 5125   5.381   9.076   9.482 -3.2711 -3.6489 -1.2796
  779MOL0     H 5126   5.543   9.163   9.607  0.6817 -0.8988  0.9666
  779MOL0     H 5127   5.708   9.113   9.564  0.2252 -0.1438  1.3449
  779MOL0     H 5128   5.637   9.274   9.503 -0.4276 -0.7103 -0.8575
  779MOL0     H 5129   6.057   9.154   9.542 -1.3731  1.7259 -0.2940
  779MOL0     H 5130   6.298   9.223   9.513  1.9332 -1.6285 -2.3822
  779MOL0     H 5131   6.474   9.366   9.467 -2.7921 -0.7833 -0.3142
  779MOL0     H 5132   6.489   9.196   9.421  0.3171 -1.0016  0.5361
  779MOL0     H 5133   6.636   9.250   9.225  1.0417  0.5322 -1.0356
  779MOL0     H 5134   6.626   9.418   9.261 -2.8934 -1.2834 -2.4307
  779MOL0     H 5135   6.743   9.216   9.473 -0.8624  0.2577 -0.9396
  779MOL0     H 5136   6.757   9.386   9.487  2.6586  0.2895  0.0959
  779MOL0     H 5137   6.864   9.242   9.236  1.5367 -0.5897 -0.2782
  779MOL0     H 5138   6.879   9.412   9.286 -0.4191 -1.0257 -1.3874
  779MOL0     H 5139   7.065   9.231   9.310  0.5735  2.8990 -0.0446
  779MOL0     H 5140   6.972   9.185   9.457 -2.6549 -0.1078  0.8809
  779MOL0     H 5141   7.131   9.447   9.412  1.7660 -0.4940  0.6885
  779MOL0     H 5142   7.013   9.429   9.540 -0.1033 -2.9019  1.1902
  779MOL0     H 5143   7.235   9.214   9.511  1.7989  0.3456  0.5775
  779MOL0     H 5144   7.125   9.270   9.642 -2.1042  3.9115  0.8456
  779MOL0     H 5145   7.342   9.376   9.685 -0.2090  0.7500  1.6111
  779MOL0     H 5146   7.228   9.492   9.631 -1.7614 -3.0004  2.8327
  779MOL0     H 5147   6.209   9.368   9.126  3.6799 -0.5082  0.9289
  779MOL0     H 5148   5.961   9.296   9.163 -0.7153 -0.5304 -1.3260
  779MOL0     H 5149   5.671   9.008   9.083  0.4471 -0.6452  0.5211
  779MOL0     H 5150   5.435   8.953   9.079  0.3271 -1.8792  1.1751
  779MOL0     H 5151   4.410  10.315   9.121  0.3760 -0.2871 -1.8551
  779MOL0     H 5152   4.434  10.566   9.146 -1.0199  2.0615 -2.5315
  779MOL0     H 5153   4.453  10.944   9.343 -2.5976  0.0757  2.3901
  779MOL0     H 5154   4.492  11.177   9.336 -0.5119 -2.3218  1.2857
  779MOL0     H 5155   4.398  11.514   9.032  3.9219 -2.2987 -0.0011
  779MOL0     H 5156   4.327  11.380   8.967 -1.0886 -2.3693  1.2338
  779MOL0     H 5157   4.175  11.551   9.159  2.6163  0.3428 -1.0281
  779MOL0     H 5158   4.137  11.374   9.121  4.1709 -2.5208 -0.8613
  779MOL0     H 5159   4.118  11.407   8.888 -1.0140 -0.3942 -0.9298
  779MOL0     H 5160   4.162  11.584   8.914 -0.6712  0.4809 -1.4788
  779MOL0     H 5161   3.929  11.475   9.064  1.5419 -0.7809 -0.6050
  779MOL0     H 5162   3.894  11.492   8.887  1.7479 -1.0265 -1.6202
  779MOL0     H 5163   3.937  11.897   9.037 -0.8891 -1.3183 -1.3014
  779MOL0     H 5164   4.219  11.203   8.989  2.3289 -0.4607 -1.5734
  779MOL0     H 5165   4.191  10.969   9.012 -2.4745  2.5813  0.0177
  780MOL0     O 5166   7.180   6.230   6.499  0.4733 -0.3973 -0.2938
  780MOL0     C 5167   7.282   6.188   6.460 -0.7449 -0.4969  1.0095
  780MOL0     O 5168   7.307   6.080   6.381 -0.2482  1.1168 -0.1933
  780MOL0     C 5169   7.218   6.001   6.308 -0.4880  0.5179 -0.3927
  780MOL0     C 5170   7.078   6.008   6.339 -0.3261 -0.0827 -0.0393
  780MOL0     C 5171   6.991   5.935   6.266  0.2660 -0.3331 -0.4233
  780MOL0     C 5172   7.033   5.843   6.165  0.1993  0.1095 -1.0317
  780MOL0     O 5173   6.950   5.756   6.106 -0.1666  0.5882  0.5827
  780MOL0     C 5174   6.815   5.786   6.078  0.1216 -0.5065  0.2595
  780MOL0     C 5175   6.746   5.666   6.019 -0.6013 -0.2465 -0.6877
  780MOL0     C 5176   6.827   5.603   5.906 -0.1055  1.0582  0.1637
  780MOL0     C 5177   6.753   5.481   5.846 -1.2627  0.3115  0.0964
  780MOL0     C 5178   6.845   5.414   5.747  0.0201 -0.6472 -0.7585
  780MOL0     C 5179   6.812   5.267   5.741 -1.1521  0.1726  0.1083
  780MOL0     C 5180   6.673   5.217   5.687  0.3835  0.1783  0.2343
  780MOL0     C 5181   6.624   5.286   5.568  0.9005 -0.3191 -0.1923
  780MOL0     N 5182   6.489   5.257   5.524  0.2389  0.3574 -0.0969
  780MOL0     C 5183   6.457   5.145   5.446 -0.5990 -0.2255 -0.8976
  780MOL0     C 5184   6.326   5.147   5.444 -0.6172 -0.2849 -0.2644
  780MOL0     C 5185   6.247   5.032   5.384 -0.4642  0.2646 -0.9095
  780MOL0     C 5186   6.102   5.072   5.343 -0.2415 -0.8879 -0.2633
  780MOL0     C 5187   6.046   4.955   5.262  0.4945 -0.0006 -0.3322
  780MOL0     C 5188   5.912   5.004   5.207  0.4439 -0.3002 -0.2635
  780MOL0     O 5189   5.858   4.900   5.122  0.0616 -0.4617 -0.6582
  780MOL0     C 5190   5.783   4.943   5.019  0.4918  0.4403 -0.3583
  780MOL0     C 5191   5.701   5.062   5.026 -0.3191 -0.6387  0.1382
  780MOL0     C 5192   5.630   5.109   4.919 -0.6203  0.6751 -0.3691
  780MOL0     C 5193   5.560   5.238   4.932  0.2135 -0.0524  0.1327
  780MOL0     C 5194   5.632   5.035   4.801 -0.2412  0.4049  0.0447
  780MOL0     C 5195   5.538   5.056   4.685 -0.6357 -0.5404 -0.1582
  780MOL0     O 5196   5.403   5.085   4.714  0.2310  0.7162  0.8870
  780MOL0     C 5197   5.312   5.027   4.621  0.1594  0.3175 -0.6606
  780MOL0     C 5198   5.189   5.105   4.603  0.2125  0.0090 -0.4818
  780MOL0     C 5199   5.087   5.078   4.517 -0.4136 -0.5405  0.3906
  780MOL0     C 5200   5.089   4.947   4.463  0.2385 -0.1828  0.8971
  780MOL0     O 5201   4.981   4.921   4.380 -0.4933  0.3188 -0.0193
  780MOL0     C 5202   4.995   4.814   4.283 -0.2312  0.5646  0.4317
  780MOL0     C 5203   4.971   4.863   4.134  0.4213  0.5681 -1.5918
  780MOL0     C 5204   4.838   4.926   4.122  0.4851  0.3884 -0.7987
  780MOL0     C 5205   4.722   4.829   4.116  0.3725 -0.2286 -0.3461
  780MOL0     C 5206   4.596   4.912   4.113 -1.2048  0.4724 -0.0412
  780MOL0     C 5207   4.474   4.818   4.128  0.4930 -0.2903  0.1476
  780MOL0     C 5208   4.342   4.895   4.104  1.0991 -0.8915 -0.0014
  780MOL0     C 5209   4.222   4.819   4.164 -0.3398  0.6781 -0.2928
  780MOL0    Cl 5210   4.208   4.650   4.089 -0.2954 -0.0486  0.0715
  780MOL0     C 5211   5.192   4.854   4.494 -0.0357 -0.7873 -0.6074
  780MOL0     C 5212   5.305   4.898   4.563 -0.3199 -0.7606 -0.9995
  780MOL0     O 5213   5.585   5.050   4.571  0.1794  0.1476 -0.0544
  780MOL0     C 5214   5.726   4.935   4.784  0.3653 -0.2716  0.2482
  780MOL0     C 5215   5.792   4.881   4.896  0.0869 -0.8436 -1.9001
  780MOL0     N 5216   6.271   5.234   5.537 -0.0230  0.3684 -0.6581
  780MOL0     N 5217   6.372   5.307   5.579  0.3919 -0.0757 -0.0504
  780MOL0     C 5218   7.167   5.839   6.138  0.1767  0.1779 -0.5953
  780MOL0     C 5219   7.263   5.918   6.201  0.0030  0.3306 -0.7711
  780MOL0     C 5220   7.399   6.270   6.488  0.3181  0.1474 -0.1409
  780MOL0     C 5221   7.388   6.407   6.505  0.2378 -0.2771 -1.1840
  780MOL0     C 5222   7.493   6.500   6.507 -0.2407  0.1373  0.1833
  780MOL0     C 5223   7.622   6.448   6.486  0.1477  0.2631 -0.8722
  780MOL0     O 5224   7.718   6.545   6.472 -0.1728  0.2825  0.2345
  780MOL0     C 5225   7.845   6.485   6.482  0.8664 -0.0299  0.5110
  780MOL0     C 5226   7.948   6.597   6.471 -0.5963 -0.2042 -0.0415
  780MOL0     C 5227   7.957   6.664   6.325  0.4693  0.6364 -0.5583
  780MOL0     C 5228   8.090   6.732   6.288  0.3391  0.1530  0.6625
  780MOL0     C 5229   8.137   6.826   6.388  0.1770  0.2581 -0.1232
  780MOL0     C 5230   8.169   6.881   6.486 -0.6668 -0.3371 -0.6601
  780MOL0     C 5231   7.639   6.309   6.486 -0.0177  0.6895 -0.2815
  780MOL0     C 5232   7.534   6.218   6.479  0.9747 -0.4431 -0.1573
  780MOL0     H 5233   7.034   6.074   6.413  1.2266 -1.6211  2.3684
  780MOL0     H 5234   6.885   5.949   6.282  0.2739 -1.6137  0.8525
  780MOL0     H 5235   6.750   5.819   6.159  1.5585  0.2785  1.1154
  780MOL0     H 5236   6.807   5.868   6.005 -5.0328 -2.8251 -2.3290
  780MOL0     H 5237   6.738   5.587   6.095 -1.1954 -0.1158 -0.6085
  780MOL0     H 5238   6.643   5.695   5.997 -0.4002  0.4533 -0.7472
  780MOL0     H 5239   6.862   5.674   5.830  2.4866  1.0903  1.3218
  780MOL0     H 5240   6.916   5.554   5.944  1.2020 -0.4908 -4.2153
  780MOL0     H 5241   6.724   5.418   5.930  2.1166  0.3691  1.4972
  780MOL0     H 5242   6.661   5.519   5.802 -2.5583 -0.8794  1.6783
  780MOL0     H 5243   6.844   5.460   5.648 -2.7366 -0.4900 -0.7096
  780MOL0     H 5244   6.943   5.409   5.797 -0.2952 -2.3291 -0.2231
  780MOL0     H 5245   6.883   5.218   5.674  2.4620  1.2166  2.8498
  780MOL0     H 5246   6.843   5.241   5.843  1.6518 -1.5367 -1.0432
  780MOL0     H 5247   6.669   5.109   5.671 -2.5486  0.4273 -1.5257
  780MOL0     H 5248   6.604   5.242   5.768 -1.6460  2.9335 -2.1123
  780MOL0     H 5249   6.701   5.258   5.495  1.0590 -1.7867  0.4926
  780MOL0     H 5250   6.622   5.395   5.579  0.6012 -0.2190 -1.1198
  780MOL0     H 5251   6.531   5.085   5.395 -0.2495 -1.7121  1.2124
  780MOL0     H 5252   6.299   5.006   5.291 -0.6432 -3.5041 -0.0995
  780MOL0     H 5253   6.248   4.942   5.445 -1.8359 -0.4017 -1.8277
  780MOL0     H 5254   6.101   5.166   5.287  0.4581 -1.1228 -0.6808
  780MOL0     H 5255   6.043   5.092   5.432  1.9828 -1.5366  1.4438
  780MOL0     H 5256   6.047   4.869   5.329  1.3611 -0.4027 -0.8444
  780MOL0     H 5257   6.114   4.933   5.179 -0.0059  1.1461 -1.0705
  780MOL0     H 5258   5.932   5.100   5.158 -0.4703  0.7775  1.3804
  780MOL0     H 5259   5.843   5.031   5.288  0.6212 -0.4958 -0.0438
  780MOL0     H 5260   5.705   5.130   5.111  2.2680 -2.2359  1.4480
  780MOL0     H 5261   5.519   5.265   4.834  0.2745 -3.2064 -0.8904
  780MOL0     H 5262   5.474   5.239   5.000  0.3370 -1.4371  0.3513
  780MOL0     H 5263   5.636   5.314   4.950  0.1138  0.3154 -0.9178
  780MOL0     H 5264   5.184   5.204   4.647  2.3818  2.0490 -4.3175
  780MOL0     H 5265   4.993   5.131   4.514  0.1014  0.8327  3.9037
  780MOL0     H 5266   5.095   4.770   4.281  0.2873  1.7287 -0.2144
  780MOL0     H 5267   4.921   4.734   4.296 -3.6675  3.0130 -2.2331
  780MOL0     H 5268   5.052   4.934   4.113  2.8088 -2.1849 -2.3390
  780MOL0     H 5269   4.988   4.784   4.060  0.7645 -0.6257 -0.2758
  780MOL0     H 5270   4.841   4.978   4.026 -0.9300  2.2097  0.0775
  780MOL0     H 5271   4.817   5.003   4.197 -1.6250 -1.6552  0.8397
  780MOL0     H 5272   4.724   4.776   4.021  2.0645 -1.1731  0.1740
  780MOL0     H 5273   4.734   4.751   4.192  3.2374 -1.6347 -2.0677
  780MOL0     H 5274   4.592   4.971   4.021  1.7706  3.3347  1.4429
  780MOL0     H 5275   4.598   4.993   4.187 -0.4976 -1.0054  1.6348
  780MOL0     H 5276   4.484   4.735   4.057  2.5683 -0.6131  0.7492
  780MOL0     H 5277   4.468   4.787   4.233  3.1450  2.9415  1.4310
  780MOL0     H 5278   4.310   4.903   4.000 -0.7547  1.3949  0.6650
  780MOL0     H 5279   4.360   4.997   4.137  1.6290 -0.7073 -0.8264
  780MOL0     H 5280   4.131   4.879   4.156 -0.9869 -0.4001 -1.5679
  780MOL0     H 5281   4.245   4.791   4.267  4.4785 -0.4285 -1.4051
  780MOL0     H 5282   5.189   4.747   4.474 -3.7005 -0.8276 -0.5875
  780MOL0     H 5283   5.381   4.824   4.586 -2.0364 -2.3167 -0.0347
  780MOL0     H 5284   5.736   4.904   4.681  0.3802  2.4223 -0.6355
  780MOL0     H 5285   5.863   4.801   4.877  2.5815  1.7737 -4.5444
  780MOL0     H 5286   7.185   5.776   6.052 -0.8345 -0.0705 -0.6458
  780MOL0     H 5287   7.370   5.915   6.179  0.4493 -0.1343  1.2014
  780MOL0     H 5288   7.291   6.456   6.514  1.8084  2.8896  0.3160
  780MOL0     H 5289   7.474   6.606   6.495  1.0081  0.1867 -1.7135
  780MOL0     H 5290   7.851   6.430   6.576 -0.5260  1.4726  1.5373
  780MOL0     H 5291   7.863   6.408   6.406  0.2638 -0.8810  1.2140
  780MOL0     H 5292   8.043   6.557   6.508 -0.5488  1.6105  1.9800
  780MOL0     H 5293   7.938   6.671   6.551  3.0677  0.3432  0.0652
  780MOL0     H 5294   7.870   6.730   6.318 -1.9893 -2.2566  0.7207
  780MOL0     H 5295   7.942   6.587   6.249 -1.3641 -2.2581  2.4715
  780MOL0     H 5296   8.091   6.791   6.196  0.2829  1.4771  1.4901
  780MOL0     H 5297   8.166   6.661   6.255  3.5966  4.0992 -1.2250
  780MOL0     H 5298   8.205   6.946   6.564  0.8389  0.6011 -2.0623
  780MOL0     H 5299   7.738   6.266   6.476 -1.4255 -2.9031 -0.2054
  780MOL0     H 5300   7.547   6.113   6.458 -1.6900 -0.7398 -0.6932
  781MOL0     O 5301   1.286   9.389   7.659 -0.5501  0.6001 -0.4689
  781MOL0     C 5302   1.282   9.264   7.672 -0.4144  0.0146 -0.3069
  781MOL0     O 5303   1.380   9.173   7.646  0.3919 -0.7446 -0.4032
  781MOL0     C 5304   1.497   9.223   7.596 -0.4243  0.5962  0.6570
  781MOL0     C 5305   1.510   9.309   7.488  0.5591  0.2643  0.2755
  781MOL0     C 5306   1.631   9.356   7.436 -0.1628 -0.0697 -0.6484
  781MOL0     C 5307   1.745   9.309   7.494 -0.7959 -0.0469  0.2017
  781MOL0     O 5308   1.854   9.344   7.419 -0.1910  0.3929  0.4374
  781MOL0     C 5309   1.991   9.286   7.434  0.5587  0.2090 -0.2088
  781MOL0     C 5310   2.066   9.301   7.297  0.0761 -0.6646 -0.1923
  781MOL0     C 5311   2.058   9.448   7.243  0.0160 -0.2537  0.6207
  781MOL0     C 5312   2.123   9.458   7.097 -0.1090  0.5774 -0.4225
  781MOL0     C 5313   2.029   9.400   6.996  0.5299  0.3091  0.3296
  781MOL0     C 5314   2.078   9.409   6.851  0.3326  1.3939 -0.7504
  781MOL0     C 5315   2.136   9.549   6.803 -0.5912  1.3826  0.3649
  781MOL0     C 5316   2.025   9.655   6.787  0.0168  0.6479  0.1997
  781MOL0     N 5317   1.918   9.630   6.685  0.6627 -0.8163 -0.3007
  781MOL0     C 5318   1.785   9.611   6.714 -0.4322  0.1581  0.5047
  781MOL0     C 5319   1.739   9.585   6.585 -0.0515 -1.0577 -0.3321
  781MOL0     C 5320   1.602   9.561   6.554  0.3774 -0.0283 -0.2621
  781MOL0     C 5321   1.505   9.672   6.549 -0.1045  0.4938  0.1478
  781MOL0     C 5322   1.474   9.756   6.675  0.0443  0.8077  1.0351
  781MOL0     C 5323   1.361   9.851   6.665 -0.3216  0.2693  0.4863
  781MOL0     O 5324   1.316   9.875   6.787  0.7801  0.2371 -0.1216
  781MOL0     C 5325   1.203   9.952   6.810  0.4306  0.0733  0.4159
  781MOL0     C 5326   1.175   9.978   6.942 -0.6586 -0.2125  0.2769
  781MOL0     C 5327   1.092  10.077   6.985  0.0908  0.2698  0.1446
  781MOL0     C 5328   1.075  10.094   7.135  0.5552  0.0221 -0.0233
  781MOL0     C 5329   1.023  10.148   6.884  0.2668  0.4065 -0.5706
  781MOL0     C 5330   0.924  10.263   6.915 -0.1893 -0.4705  0.1771
  781MOL0     O 5331   0.892  10.332   6.798  0.1656 -0.0224  0.4297
  781MOL0     C 5332   0.807  10.437   6.814 -0.4885  0.2080 -0.5028
  781MOL0     C 5333   0.674  10.424   6.779 -0.5413 -0.2416 -0.0373
  781MOL0     C 5334   0.594  10.537   6.763 -0.4108  0.5303  0.1607
  781MOL0     C 5335   0.641  10.654   6.826 -0.6946  0.6803 -1.5596
  781MOL0     O 5336   0.561  10.766   6.842 -0.1421  0.4366 -0.2979
  781MOL0     C 5337   0.442  10.785   6.780  0.3538  0.2022  0.1920
  781MOL0     C 5338   0.436  10.937   6.743  0.8435 -0.1854 -0.9605
  781MOL0     C 5339   0.516  10.979   6.619  0.1385 -0.1420 -0.1042
  781MOL0     C 5340   0.483  11.118   6.551 -0.6580  1.4052 -0.6146
  781MOL0     C 5341   0.565  11.137   6.423  0.1657 -0.2678 -0.1105
  781MOL0     C 5342   0.708  11.190   6.435  0.5967  0.6138 -0.3654
  781MOL0     C 5343   0.764  11.216   6.291  0.4653 -0.0087  0.1111
  781MOL0     C 5344   0.913  11.248   6.291  0.2795  0.3798  0.0260
  781MOL0    Cl 5345   0.998  11.089   6.253  0.2782 -0.1325  0.6335
  781MOL0     C 5346   0.777  10.666   6.872  0.5593 -0.7492  0.4120
  781MOL0     C 5347   0.861  10.557   6.863  0.1576  0.4119 -0.2336
  781MOL0     O 5348   0.871  10.273   7.027 -0.0962  0.6446  0.2194
  781MOL0     C 5349   1.052  10.118   6.744 -0.0381 -0.0164  0.5118
  781MOL0     C 5350   1.135  10.021   6.710 -0.1490 -0.3939  0.1359
  781MOL0     N 5351   1.836   9.582   6.486  0.0776 -0.8276 -0.9699
  781MOL0     N 5352   1.943   9.610   6.548  0.2786  0.1473  0.1764
  781MOL0     C 5353   1.739   9.223   7.605 -0.7522  0.2121  0.6621
  781MOL0     C 5354   1.614   9.183   7.655 -0.3652 -0.0480  0.1834
  781MOL0     C 5355   1.178   9.199   7.743  0.1246 -0.2067 -0.3238
  781MOL0     C 5356   1.191   9.078   7.808  0.5234  0.3331 -0.4313
  781MOL0     C 5357   1.085   9.017   7.871  1.4232  1.0179  0.1010
  781MOL0     C 5358   0.962   9.078   7.876  0.9768 -0.5659 -0.2183
  781MOL0     O 5359   0.845   9.028   7.927 -0.2372  0.5628 -0.6770
  781MOL0     C 5360   0.858   8.951   8.051 -0.2668  0.1391 -0.8981
  781MOL0     C 5361   0.722   8.973   8.113  0.7344  0.7756  0.6041
  781MOL0     C 5362   0.694   8.875   8.222  0.8290 -0.4516  0.1400
  781MOL0     C 5363   0.628   8.747   8.174  0.2486 -0.6405  0.8917
  781MOL0     C 5364   0.523   8.702   8.258 -0.3808 -0.0616 -0.8188
  781MOL0     C 5365   0.423   8.659   8.315 -0.5148  0.6243  0.0026
  781MOL0     C 5366   0.940   9.199   7.814  0.3717  0.0574 -0.4476
  781MOL0     C 5367   1.049   9.258   7.745 -0.2350  0.7680  0.0086
  781MOL0     H 5368   1.426   9.337   7.426  2.6714  2.1306 -1.9713
  781MOL0     H 5369   1.633   9.417   7.347 -1.0568  1.8437  0.5691
  781MOL0     H 5370   2.051   9.329   7.515  0.3326  0.2156 -0.0429
  781MOL0     H 5371   2.007   9.183   7.469  1.8148  0.6546  0.5865
  781MOL0     H 5372   2.168   9.267   7.313  0.7491  0.7353 -1.2785
  781MOL0     H 5373   1.993   9.246   7.236 -1.8832 -0.1786  1.5883
  781MOL0     H 5374   1.953   9.478   7.237 -0.0210 -0.4012  0.5149
  781MOL0     H 5375   2.118   9.519   7.300  2.1168  0.7234 -2.5270
  781MOL0     H 5376   2.136   9.562   7.067 -1.6215  0.0560 -3.1547
  781MOL0     H 5377   2.210   9.392   7.099  0.4983  1.2830  2.6476
  781MOL0     H 5378   2.012   9.294   7.017  0.3058  0.6076  1.7405
  781MOL0     H 5379   1.929   9.444   7.006 -0.0825 -1.1555  0.9799
  781MOL0     H 5380   2.167   9.345   6.854  0.2912  1.3522  0.7990
  781MOL0     H 5381   1.999   9.380   6.781 -0.7532  0.3983  0.8194
  781MOL0     H 5382   2.220   9.576   6.868 -1.0809  0.9145  1.2214
  781MOL0     H 5383   2.181   9.530   6.705  0.3785 -2.5437  1.4013
  781MOL0     H 5384   2.064   9.755   6.764  0.1525  0.2908 -1.1838
  781MOL0     H 5385   1.987   9.655   6.890 -1.2466 -1.1784 -0.2222
  781MOL0     H 5386   1.745   9.621   6.814  0.4287  1.1707  0.7753
  781MOL0     H 5387   1.592   9.509   6.458  0.2565  2.4940 -1.7056
  781MOL0     H 5388   1.570   9.499   6.638  1.4892  1.0602  1.0159
  781MOL0     H 5389   1.409   9.630   6.515  0.1903 -0.4376  0.4199
  781MOL0     H 5390   1.544   9.739   6.472  0.2216 -0.9934 -1.0370
  781MOL0     H 5391   1.568   9.811   6.691 -0.4507  3.0663 -2.7159
  781MOL0     H 5392   1.456   9.686   6.757  0.0079  0.0177  0.3635
  781MOL0     H 5393   1.289   9.812   6.593 -2.1537  1.2595  1.7146
  781MOL0     H 5394   1.403   9.944   6.626  1.1117 -0.4338  0.2656
  781MOL0     H 5395   1.235   9.923   7.014 -0.2231 -1.9430 -1.3211
  781MOL0     H 5396   1.010  10.016   7.174 -3.2152  2.3693 -1.0976
  781MOL0     H 5397   1.173  10.085   7.183 -0.0604 -2.4455  0.9161
  781MOL0     H 5398   1.035  10.194   7.157 -0.0595 -0.0562 -0.7520
  781MOL0     H 5399   0.652  10.327   6.735  2.5829 -0.0303 -2.4002
  781MOL0     H 5400   0.504  10.520   6.705  0.2069 -0.6017 -0.5067
  781MOL0     H 5401   0.430  10.725   6.689 -2.2262  1.8517 -0.6650
  781MOL0     H 5402   0.357  10.757   6.843  1.1729 -1.7985  0.4704
  781MOL0     H 5403   0.332  10.959   6.718  0.3601  0.7103  1.5975
  781MOL0     H 5404   0.456  10.980   6.842  2.8783  0.2385 -1.5032
  781MOL0     H 5405   0.490  10.898   6.549  3.2241 -2.8253  1.5780
  781MOL0     H 5406   0.622  10.964   6.639  0.6208  1.2938 -1.4091
  781MOL0     H 5407   0.377  11.105   6.527 -0.6672 -1.3595  0.5878
  781MOL0     H 5408   0.495  11.206   6.616  0.7023  0.9380 -0.1867
  781MOL0     H 5409   0.512  11.217   6.369  0.4072  0.5325  0.8210
  781MOL0     H 5410   0.564  11.050   6.356 -1.7979 -0.6268  0.2954
  781MOL0     H 5411   0.703  11.284   6.490 -1.1891 -0.4943  1.4888
  781MOL0     H 5412   0.759  11.120   6.502 -1.6405  0.8822  1.7708
  781MOL0     H 5413   0.718  11.310   6.260 -2.2418 -0.8384  1.2383
  781MOL0     H 5414   0.732  11.138   6.222 -1.7922 -2.4045  3.5234
  781MOL0     H 5415   0.945  11.288   6.388  3.5242  2.3709 -1.6752
  781MOL0     H 5416   0.955  11.328   6.229  1.4488 -0.0588  0.2199
  781MOL0     H 5417   0.805  10.763   6.913 -1.9511 -1.1812  3.5485
  781MOL0     H 5418   0.965  10.559   6.891 -0.3071 -1.4357  1.9602
  781MOL0     H 5419   1.002  10.173   6.665  1.2156  0.6648  0.1750
  781MOL0     H 5420   1.155  10.006   6.605  0.5427  3.5330 -0.4191
  781MOL0     H 5421   1.831   9.188   7.650 -0.8604 -1.8780 -0.5966
  781MOL0     H 5422   1.606   9.116   7.741 -4.1614 -0.3623 -0.2538
  781MOL0     H 5423   1.286   9.027   7.815  0.3995  0.2949  1.7672
  781MOL0     H 5424   1.094   8.913   7.901  1.4404  0.2933 -2.2666
  781MOL0     H 5425   0.876   8.843   8.045 -2.6178 -0.4395  0.9448
  781MOL0     H 5426   0.931   8.996   8.119 -3.3638  4.0634  0.1803
  781MOL0     H 5427   0.640   8.980   8.041 -0.8917 -0.7636  2.2236
  781MOL0     H 5428   0.731   9.077   8.143 -0.6782  1.7158 -1.9857
  781MOL0     H 5429   0.632   8.937   8.288  0.7164 -1.6031  1.1546
  781MOL0     H 5430   0.788   8.845   8.271  1.0804 -1.4129 -0.8995
  781MOL0     H 5431   0.701   8.666   8.168  0.0631 -0.8007  0.8155
  781MOL0     H 5432   0.582   8.757   8.075  0.3226 -3.9994  0.4133
  781MOL0     H 5433   0.328   8.626   8.351 -1.7040  1.2588 -2.3360
  781MOL0     H 5434   0.848   9.252   7.833  0.5176  0.2339 -0.2193
  781MOL0     H 5435   1.036   9.352   7.693 -2.5450  0.9545  0.8265
  782MOL0     O 5436   3.319  11.090   5.099 -0.2933  0.0024  0.0634
  782MOL0     C 5437   3.317  11.208   5.061  0.0608 -0.5403 -0.1742
  782MOL0     O 5438   3.218  11.300   5.093 -0.0319 -0.3910  0.6421
  782MOL0     C 5439   3.110  11.260   5.160 -0.0425  0.6688  0.7262
  782MOL0     C 5440   3.024  11.163   5.115  0.6065 -0.1524 -0.6881
  782MOL0     C 5441   2.907  11.134   5.188 -0.1479 -0.2488  0.4035
  782MOL0     C 5442   2.876  11.197   5.312 -0.0596  0.7634  1.5304
  782MOL0     O 5443   2.759  11.168   5.372  0.1806  0.3410  0.1492
  782MOL0     C 5444   2.685  11.291   5.398 -0.0116  0.2768 -0.2087
  782MOL0     C 5445   2.542  11.277   5.460  0.2032 -0.8750 -0.1618
  782MOL0     C 5446   2.467  11.412   5.431  0.2249  0.6988 -0.0791
  782MOL0     C 5447   2.341  11.430   5.505  0.1540  1.1433 -0.0551
  782MOL0     C 5448   2.251  11.542   5.450  0.6460  0.2007  0.4514
  782MOL0     C 5449   2.299  11.680   5.487 -0.0869 -0.7131 -1.1185
  782MOL0     C 5450   2.194  11.793   5.461 -0.7700  0.2262 -0.1560
  782MOL0     C 5451   2.233  11.932   5.513  0.6225  0.5107 -0.5725
  782MOL0     N 5452   2.361  11.966   5.449  0.1975  0.6655  0.7129
  782MOL0     C 5453   2.379  12.066   5.352  0.5821  0.2744  0.1081
  782MOL0     C 5454   2.510  12.079   5.349 -0.2439  0.1677  0.1913
  782MOL0     C 5455   2.582  12.171   5.253 -0.4699  0.4274  0.0655
  782MOL0     C 5456   2.718  12.106   5.212 -0.2349  0.0877 -0.2741
  782MOL0     C 5457   2.791  12.186   5.105 -0.2655  0.2306 -0.2080
  782MOL0     C 5458   2.720  12.210   4.969  0.3804  0.3575  0.1596
  782MOL0     O 5459   2.701  12.077   4.913  0.0170 -0.2422  0.2191
  782MOL0     C 5460   2.673  12.065   4.778  0.1623  0.9466  0.1179
  782MOL0     C 5461   2.658  11.939   4.728 -0.5502  0.7536  0.6928
  782MOL0     C 5462   2.611  11.905   4.599 -0.5983  0.1735  0.4236
  782MOL0     C 5463   2.584  11.758   4.574 -0.2786 -0.1634  0.6827
  782MOL0     C 5464   2.584  12.011   4.505  0.4058  0.1004  0.1356
  782MOL0     C 5465   2.547  11.983   4.361 -1.1317 -0.2245 -1.0565
  782MOL0     O 5466   2.547  12.098   4.283  0.3069 -0.1113  0.3191
  782MOL0     C 5467   2.512  12.073   4.148 -0.1584 -0.2062  0.2168
  782MOL0     C 5468   2.420  12.146   4.079  0.1234  0.2726 -0.5735
  782MOL0     C 5469   2.395  12.134   3.942 -0.5082 -0.5131  0.3489
  782MOL0     C 5470   2.459  12.032   3.872  0.4273  0.3132  0.7520
  782MOL0     O 5471   2.433  12.009   3.738  0.8325 -0.5115 -0.5829
  782MOL0     C 5472   2.292  11.987   3.701 -0.6088 -0.6600 -0.4880
  782MOL0     C 5473   2.278  11.969   3.545 -0.1288 -0.2880  0.0753
  782MOL0     C 5474   2.137  11.945   3.495  0.6437 -0.6523  1.1495
  782MOL0     C 5475   2.047  11.837   3.560  0.0819  0.0738 -0.2755
  782MOL0     C 5476   1.905  11.818   3.504  0.2564 -1.1881  0.2897
  782MOL0     C 5477   1.846  11.699   3.574  0.5660 -0.5327 -0.3354
  782MOL0     C 5478   1.698  11.682   3.535  0.7116 -0.0929 -0.2145
  782MOL0     C 5479   1.657  11.546   3.592 -0.1663 -0.0508 -0.0042
  782MOL0    Cl 5480   1.666  11.544   3.775 -0.5457  0.0686 -0.1174
  782MOL0     C 5481   2.559  11.955   3.942  0.4391  0.3051  0.5347
  782MOL0     C 5482   2.586  11.978   4.076  0.0998  0.2993  0.2136
  782MOL0     O 5483   2.508  11.873   4.333  0.4212 -0.0699 -0.3437
  782MOL0     C 5484   2.598  12.140   4.552  0.1389 -0.1063 -0.5362
  782MOL0     C 5485   2.635  12.162   4.689 -0.1585 -0.9431 -0.4748
  782MOL0     N 5486   2.566  11.998   5.446 -0.7196 -0.1277 -1.1738
  782MOL0     N 5487   2.475  11.934   5.502 -0.3090 -0.0368  0.7464
  782MOL0     C 5488   2.962  11.299   5.353 -0.3650  0.5634  0.3082
  782MOL0     C 5489   3.073  11.328   5.273 -0.5880 -0.4756 -0.1361
  782MOL0     C 5490   3.450  11.270   5.019 -0.5208 -0.0583 -0.6135
  782MOL0     C 5491   3.472  11.413   5.004  0.1772  0.0029  0.7937
  782MOL0     C 5492   3.590  11.464   4.947  0.1742 -0.9048  0.4524
  782MOL0     C 5493   3.685  11.381   4.895  0.1222 -0.3978  0.3023
  782MOL0     O 5494   3.797  11.434   4.831 -0.7969 -0.7014 -0.8515
  782MOL0     C 5495   3.891  11.365   4.750  0.5764 -0.6783 -1.1877
  782MOL0     C 5496   3.843  11.395   4.612 -0.6306 -0.1165 -0.0264
  782MOL0     C 5497   3.711  11.343   4.574  0.0990  0.0193  0.1564
  782MOL0     C 5498   3.700  11.192   4.555 -0.2808 -0.8823  0.2666
  782MOL0     C 5499   3.567  11.152   4.502  0.2138  1.1034  1.1818
  782MOL0     C 5500   3.464  11.107   4.452 -0.1777 -0.2814 -0.4816
  782MOL0     C 5501   3.677  11.245   4.928  0.2787  0.7369  0.2578
  782MOL0     C 5502   3.561  11.194   4.980  0.4541  0.2503 -0.0855
  782MOL0     H 5503   3.035  11.125   5.014  1.5490  1.1809 -1.1218
  782MOL0     H 5504   2.844  11.047   5.179 -0.5915  0.0316  0.7176
  782MOL0     H 5505   2.746  11.354   5.462 -2.8019  2.5044  0.4969
  782MOL0     H 5506   2.680  11.336   5.298 -0.9842 -1.8496 -1.1942
  782MOL0     H 5507   2.476  11.195   5.431 -2.6690  0.5645  1.7625
  782MOL0     H 5508   2.547  11.280   5.569  0.2051  2.6850 -0.1503
  782MOL0     H 5509   2.537  11.494   5.448  2.1904 -0.7164 -0.9081
  782MOL0     H 5510   2.445  11.416   5.323  0.2466  1.5881 -0.0539
  782MOL0     H 5511   2.289  11.334   5.507  4.2537 -1.3013  1.4191
  782MOL0     H 5512   2.367  11.446   5.610  0.2326 -2.2583  0.5658
  782MOL0     H 5513   2.253  11.527   5.341 -0.1596 -0.5749  0.5334
  782MOL0     H 5514   2.146  11.524   5.473  0.5645  0.7326  0.5208
  782MOL0     H 5515   2.309  11.689   5.596 -1.6264  2.7946 -1.1150
  782MOL0     H 5516   2.400  11.699   5.451  0.9224  1.4339  2.2810
  782MOL0     H 5517   2.174  11.801   5.353 -0.8656  0.5840 -0.1139
  782MOL0     H 5518   2.102  11.761   5.510  0.8367 -0.5751  2.5250
  782MOL0     H 5519   2.252  11.926   5.621 -1.8162  3.2958  0.1316
  782MOL0     H 5520   2.165  12.016   5.495  4.2943  3.4587 -2.0076
  782MOL0     H 5521   2.310  12.134   5.303 -4.7396 -3.3431  1.5942
  782MOL0     H 5522   2.517  12.196   5.169  0.6359  0.0196 -0.9384
  782MOL0     H 5523   2.600  12.262   5.311 -0.3666 -0.7936  2.0541
  782MOL0     H 5524   2.712  11.999   5.194  2.2017 -0.1919  0.2891
  782MOL0     H 5525   2.775  12.102   5.305 -2.3940 -2.0904  1.0625
  782MOL0     H 5526   2.885  12.132   5.092 -0.0543  0.6679 -0.4932
  782MOL0     H 5527   2.823  12.281   5.149  0.0443 -0.5451  1.3076
  782MOL0     H 5528   2.794  12.261   4.906 -1.4731 -0.7598 -3.1388
  782MOL0     H 5529   2.626  12.265   4.969 -0.9615 -1.7824 -1.2044
  782MOL0     H 5530   2.670  11.862   4.803 -0.5139  1.8109  1.8221
  782MOL0     H 5531   2.483  11.722   4.556  0.0017 -1.4096  1.4751
  782MOL0     H 5532   2.642  11.733   4.484 -0.0675  2.8475 -0.1546
  782MOL0     H 5533   2.622  11.701   4.659  1.3680  1.5006  1.1376
  782MOL0     H 5534   2.377  12.233   4.128  2.8029  1.1922  0.3072
  782MOL0     H 5535   2.321  12.197   3.895  1.1962  0.5230 -1.0913
  782MOL0     H 5536   2.271  11.888   3.743  0.8987 -0.4503  0.8329
  782MOL0     H 5537   2.225  12.064   3.740  1.1419  1.3151 -1.1620
  782MOL0     H 5538   2.323  12.044   3.479  1.6075 -2.5288 -1.4399
  782MOL0     H 5539   2.338  11.880   3.526  0.6249  0.4562 -1.2078
  782MOL0     H 5540   2.151  11.920   3.389 -1.7447 -1.6623  0.9905
  782MOL0     H 5541   2.078  12.037   3.506 -1.5482 -2.0439  1.7718
  782MOL0     H 5542   2.103  11.742   3.562 -0.9843 -0.5639 -0.1281
  782MOL0     H 5543   2.043  11.854   3.668  1.5386  0.2741 -0.2311
  782MOL0     H 5544   1.912  11.811   3.395  1.6905 -1.0823  0.3507
  782MOL0     H 5545   1.843  11.903   3.533 -0.3137 -1.8035  0.8929
  782MOL0     H 5546   1.896  11.608   3.538 -3.0556 -2.4558 -0.9725
  782MOL0     H 5547   1.863  11.704   3.681  0.9190 -3.8815 -0.1105
  782MOL0     H 5548   1.677  11.682   3.427  1.0108 -0.2192 -0.2729
  782MOL0     H 5549   1.633  11.756   3.581  0.2963 -1.0176  0.7428
  782MOL0     H 5550   1.718  11.463   3.556 -0.9082  0.3208 -2.2977
  782MOL0     H 5551   1.556  11.528   3.555  0.1609  1.0572 -1.4958
  782MOL0     H 5552   2.628  11.887   3.892 -0.7056 -0.1515 -0.4628
  782MOL0     H 5553   2.664  11.926   4.130 -1.8278 -0.5550  2.3408
  782MOL0     H 5554   2.565  12.216   4.483 -0.0933  0.6129  0.3384
  782MOL0     H 5555   2.629  12.266   4.719 -0.9566  0.0772 -3.8134
  782MOL0     H 5556   2.958  11.354   5.446  5.0750  1.1993  0.4959
  782MOL0     H 5557   3.134  11.412   5.305  1.9308 -2.7378  1.4481
  782MOL0     H 5558   3.399  11.491   5.023  0.4605  1.1436 -2.2782
  782MOL0     H 5559   3.604  11.571   4.941 -3.8972 -0.2787 -1.7690
  782MOL0     H 5560   3.995  11.398   4.751  0.6462 -0.8584  0.6723
  782MOL0     H 5561   3.887  11.258   4.767  1.3571 -0.2516  2.3413
  782MOL0     H 5562   3.921  11.348   4.551 -0.1926  0.5338  0.0174
  782MOL0     H 5563   3.864  11.502   4.607  3.1518 -0.5710  2.3213
  782MOL0     H 5564   3.683  11.389   4.479  1.4087  1.4381  0.4265
  782MOL0     H 5565   3.633  11.374   4.645 -1.6713 -2.4455 -0.5550
  782MOL0     H 5566   3.715  11.136   4.648  0.5724  0.4679  0.9821
  782MOL0     H 5567   3.774  11.153   4.484 -1.9728  0.2227 -2.2039
  782MOL0     H 5568   3.384  11.065   4.394  0.5164  0.0802 -1.7503
  782MOL0     H 5569   3.752  11.174   4.896 -1.1314 -0.3116 -0.8568
  782MOL0     H 5570   3.556  11.085   4.982 -2.7101  0.2989  1.9590
  783MOL0     O 5571   9.059   1.727   8.317 -0.4249 -0.2370 -0.3103
  783MOL0     C 5572   9.137   1.677   8.244 -0.1137 -0.2399  0.3435
  783MOL0     O 5573   9.176   1.739   8.127 -0.0390  0.7790  0.8604
  783MOL0     C 5574   9.119   1.854   8.068  0.0414  1.2351  0.1323
  783MOL0     C 5575   9.210   1.935   7.985 -0.2299  0.3043 -0.5751
  783MOL0     C 5576   9.161   2.048   7.919 -0.0710 -0.4050  0.8971
  783MOL0     C 5577   9.020   2.079   7.942 -0.2618 -0.3711 -0.4590
  783MOL0     O 5578   8.966   2.199   7.898 -0.3190  0.4380  0.1774
  783MOL0     C 5579   9.058   2.309   7.880  0.4797 -0.1305 -0.4596
  783MOL0     C 5580   8.975   2.427   7.910 -0.2815  0.5073  0.6543
  783MOL0     C 5581   8.861   2.451   7.804  0.5723  0.0666 -0.1129
  783MOL0     C 5582   8.749   2.548   7.853 -0.5595 -0.3016 -0.1292
  783MOL0     C 5583   8.646   2.581   7.743 -0.5732 -0.0726  0.0191
  783MOL0     C 5584   8.575   2.719   7.741 -0.3625 -0.9847 -0.1875
  783MOL0     C 5585   8.472   2.712   7.644 -0.2076 -0.7775 -0.5147
  783MOL0     C 5586   8.374   2.840   7.654  0.4441 -0.0637  0.2442
  783MOL0     N 5587   8.283   2.838   7.540 -0.4088  0.1729  0.7583
  783MOL0     C 5588   8.165   2.765   7.538  0.7862  0.8633 -0.5988
  783MOL0     C 5589   8.105   2.803   7.424  0.5538  0.3355  0.4803
  783MOL0     C 5590   7.965   2.773   7.380  0.5266  0.5964  0.4195
  783MOL0     C 5591   7.875   2.690   7.482 -0.1669 -1.4442 -0.5687
  783MOL0     C 5592   7.839   2.790   7.605  0.1745 -1.0544  0.7527
  783MOL0     C 5593   7.744   2.719   7.691 -0.0954 -0.7700 -0.0808
  783MOL0     O 5594   7.791   2.590   7.756  0.5228  0.1202  0.5745
  783MOL0     C 5595   7.908   2.592   7.817  0.0232 -0.2287 -0.2262
  783MOL0     C 5596   7.946   2.704   7.885  0.7498 -0.7057  0.5782
  783MOL0     C 5597   8.074   2.721   7.947  0.1086 -0.1820 -0.7888
  783MOL0     C 5598   8.100   2.861   8.000 -0.7207 -0.0414 -0.2707
  783MOL0     C 5599   8.167   2.610   7.940 -0.1308 -0.6130  0.5113
  783MOL0     C 5600   8.297   2.606   8.002  0.2378 -1.1550 -0.6723
  783MOL0     O 5601   8.321   2.688   8.104 -0.3973 -0.6301 -0.6431
  783MOL0     C 5602   8.419   2.664   8.194 -0.3330 -0.2185  0.3705
  783MOL0     C 5603   8.552   2.714   8.168  0.0120  0.0066  0.0999
  783MOL0     C 5604   8.660   2.679   8.257 -0.2467 -1.2781 -0.2311
  783MOL0     C 5605   8.638   2.609   8.377 -0.4297  0.6828 -0.6461
  783MOL0     O 5606   8.745   2.577   8.458  0.0478  0.1642 -0.7041
  783MOL0     C 5607   8.716   2.514   8.575 -0.0885 -0.4790 -0.0414
  783MOL0     C 5608   8.840   2.504   8.668 -0.8885 -0.6695  0.6882
  783MOL0     C 5609   8.946   2.389   8.637  0.1232 -0.0818 -1.9700
  783MOL0     C 5610   9.048   2.400   8.756  0.7231  0.2097  0.6532
  783MOL0     C 5611   9.132   2.266   8.760 -0.0878 -0.5569  0.1003
  783MOL0     C 5612   9.224   2.286   8.888 -0.7506  0.1112 -0.6048
  783MOL0     C 5613   9.337   2.178   8.864  0.3178 -0.9288  0.0143
  783MOL0     C 5614   9.448   2.197   8.973  0.4399 -0.2175 -0.1505
  783MOL0    Cl 5615   9.566   2.323   8.920  0.0203 -0.0011  0.0998
  783MOL0     C 5616   8.505   2.567   8.404  0.6989  0.0445  0.6136
  783MOL0     C 5617   8.402   2.600   8.314 -1.0279  0.9426 -0.1170
  783MOL0     O 5618   8.368   2.509   7.974 -0.6648  0.0475  0.9935
  783MOL0     C 5619   8.136   2.497   7.855 -0.4824 -0.1719  0.4191
  783MOL0     C 5620   8.004   2.487   7.796 -0.2106 -0.2281 -0.3317
  783MOL0     N 5621   8.201   2.870   7.348 -0.0655  0.4019  1.3171
  783MOL0     N 5622   8.303   2.896   7.420 -0.5837  0.5076 -0.2113
  783MOL0     C 5623   8.935   1.998   8.013 -0.1741  0.4781  0.9117
  783MOL0     C 5624   8.979   1.880   8.072 -0.2980  0.1852 -0.1939
  783MOL0     C 5625   9.197   1.550   8.281 -0.5419  0.4414  0.1050
  783MOL0     C 5626   9.309   1.511   8.211  0.0560  0.2727 -0.1142
  783MOL0     C 5627   9.374   1.396   8.250 -0.3536 -0.5671 -0.0170
  783MOL0     C 5628   9.332   1.314   8.347 -0.4688  1.1312 -0.5446
  783MOL0     O 5629   9.384   1.183   8.380  0.2105  0.5365  0.3705
  783MOL0     C 5630   9.482   1.132   8.288  0.0687  0.5634 -0.1159
  783MOL0     C 5631   9.535   0.997   8.340  0.0284 -0.8147  0.5980
  783MOL0     C 5632   9.426   0.899   8.379  0.1040 -0.1991 -0.2252
  783MOL0     C 5633   9.472   0.782   8.472 -0.9292 -0.0092 -0.6559
  783MOL0     C 5634   9.493   0.845   8.608  1.4158  0.3369  0.5826
  783MOL0     C 5635   9.508   0.917   8.708  0.5713  0.5665 -1.2608
  783MOL0     C 5636   9.229   1.364   8.430  0.0675 -0.1683  0.4236
  783MOL0     C 5637   9.151   1.473   8.392  1.0185 -0.2285 -0.0061
  783MOL0     H 5638   9.314   1.905   7.980 -0.9171 -2.2254 -1.0591
  783MOL0     H 5639   9.235   2.103   7.862  1.3637 -2.4003  0.7221
  783MOL0     H 5640   9.133   2.302   7.960  0.5492 -1.1695 -0.6041
  783MOL0     H 5641   9.109   2.306   7.783  0.7024  4.0497 -0.6411
  783MOL0     H 5642   8.934   2.412   8.010 -0.7102  0.1332  0.4261
  783MOL0     H 5643   9.037   2.517   7.911 -1.0787  1.0863  2.6683
  783MOL0     H 5644   8.902   2.476   7.706  2.4558  1.8647  1.0552
  783MOL0     H 5645   8.811   2.354   7.799 -1.2208  0.8107  1.7219
  783MOL0     H 5646   8.709   2.511   7.948  0.0231 -1.8170 -0.4369
  783MOL0     H 5647   8.801   2.642   7.873 -2.5540  0.6592  0.8083
  783MOL0     H 5648   8.698   2.558   7.650  2.5648 -2.1850  2.0928
  783MOL0     H 5649   8.568   2.503   7.743 -1.5005  0.8309  0.0463
  783MOL0     H 5650   8.536   2.726   7.842  2.2507  3.7139  0.8054
  783MOL0     H 5651   8.642   2.805   7.728 -0.3296 -0.8934  0.5678
  783MOL0     H 5652   8.513   2.712   7.542  0.9314 -1.3586 -0.0744
  783MOL0     H 5653   8.414   2.622   7.666  1.4013 -1.6005  0.5686
  783MOL0     H 5654   8.430   2.934   7.652  1.7463 -0.8130  0.6835
  783MOL0     H 5655   8.313   2.843   7.745  1.7133  0.8848  1.1088
  783MOL0     H 5656   8.125   2.700   7.615  0.0323  3.0663  0.9792
  783MOL0     H 5657   7.917   2.868   7.358  0.2100 -0.1003 -2.2580
  783MOL0     H 5658   7.965   2.711   7.290 -3.8101  2.7668 -1.3485
  783MOL0     H 5659   7.932   2.604   7.517  1.1585 -0.3568  0.0166
  783MOL0     H 5660   7.780   2.663   7.434 -2.0284 -0.2689  2.1616
  783MOL0     H 5661   7.797   2.879   7.558  1.1614 -0.5335  0.8252
  783MOL0     H 5662   7.923   2.835   7.659 -0.9266  1.3660  0.5823
  783MOL0     H 5663   7.650   2.694   7.641 -0.8337 -0.8420  1.2924
  783MOL0     H 5664   7.715   2.784   7.775  0.2703 -1.7089  0.7874
  783MOL0     H 5665   7.883   2.791   7.873  0.0980 -1.5268 -3.1001
  783MOL0     H 5666   8.184   2.863   8.069  0.2604 -2.9620 -1.2364
  783MOL0     H 5667   8.121   2.934   7.921 -1.2806  1.9076  1.3113
  783MOL0     H 5668   8.016   2.905   8.054  0.5360  2.3919 -0.1753
  783MOL0     H 5669   8.576   2.778   8.083 -1.1935  1.9216  1.1252
  783MOL0     H 5670   8.765   2.702   8.245 -0.2658  0.0490  1.7615
  783MOL0     H 5671   8.638   2.573   8.624  1.9192  1.7439  0.6572
  783MOL0     H 5672   8.692   2.407   8.568  1.1458 -0.8906  1.5090
  783MOL0     H 5673   8.888   2.602   8.663 -1.6539 -0.3360 -0.5361
  783MOL0     H 5674   8.803   2.491   8.771  0.0513 -4.4844  0.7044
  783MOL0     H 5675   8.995   2.401   8.540  3.0806  1.5642 -0.4217
  783MOL0     H 5676   8.909   2.287   8.631  1.5238 -0.7885  0.2762
  783MOL0     H 5677   9.105   2.493   8.758 -1.4711  1.6463  0.5256
  783MOL0     H 5678   8.984   2.397   8.845 -2.6376 -2.6471 -1.5422
  783MOL0     H 5679   9.175   2.268   8.660 -1.5608 -0.9386 -0.5579
  783MOL0     H 5680   9.065   2.179   8.765  0.6942 -1.1182  2.7259
  783MOL0     H 5681   9.270   2.385   8.891  0.3471 -0.3902  1.6306
  783MOL0     H 5682   9.183   2.257   8.985  1.5415 -0.0421  0.4001
  783MOL0     H 5683   9.374   2.185   8.762 -2.6288 -1.6073 -1.1942
  783MOL0     H 5684   9.284   2.083   8.874  1.1025 -1.1594  3.0629
  783MOL0     H 5685   9.501   2.103   8.991  0.7928  0.2790  1.5417
  783MOL0     H 5686   9.401   2.208   9.071  1.5461 -2.4149  0.6944
  783MOL0     H 5687   8.472   2.511   8.491  1.6541 -1.3683  0.1034
  783MOL0     H 5688   8.301   2.563   8.331  0.1916 -2.4248  0.5788
  783MOL0     H 5689   8.194   2.410   7.828 -0.2285 -0.5541  2.0785
  783MOL0     H 5690   7.981   2.401   7.733  1.2261 -0.1832 -0.9470
  783MOL0     H 5691   8.827   2.003   8.018 -0.2185 -1.1583  3.7140
  783MOL0     H 5692   8.920   1.810   8.130  4.4708 -4.5210 -0.1219
  783MOL0     H 5693   9.353   1.559   8.124  2.5144  0.6621  1.2677
  783MOL0     H 5694   9.458   1.372   8.185 -0.3582  2.6673 -1.4118
  783MOL0     H 5695   9.439   1.123   8.187 -1.5916  0.9949  0.5152
  783MOL0     H 5696   9.562   1.206   8.288  0.4612  0.2012  2.0284
  783MOL0     H 5697   9.585   1.027   8.433 -1.3839  0.6088  0.9301
  783MOL0     H 5698   9.598   0.943   8.269 -2.9253 -3.2583 -0.3416
  783MOL0     H 5699   9.386   0.860   8.285 -1.9530  0.6096  0.2698
  783MOL0     H 5700   9.339   0.947   8.425  1.9006  1.9609  1.1087
  783MOL0     H 5701   9.566   0.741   8.434  0.4236  2.5961 -0.3478
  783MOL0     H 5702   9.386   0.715   8.464  0.5323 -2.0513  0.0826
  783MOL0     H 5703   9.538   0.981   8.788  0.7575  0.3911 -1.1908
  783MOL0     H 5704   9.195   1.310   8.518  0.5614 -0.4006  0.4715
  783MOL0     H 5705   9.057   1.500   8.439  1.7314  1.3039  0.6180
  784MOL0     O 5706   2.750   4.575   0.466  0.1596 -0.4075 -0.9032
  784MOL0     C 5707   2.758   4.699   0.454 -0.0021 -0.2266  0.1687
  784MOL0     O 5708   2.870   4.780   0.469 -0.3414  0.4621 -0.7746
  784MOL0     C 5709   2.974   4.739   0.542 -0.4064  0.0490  0.5813
  784MOL0     C 5710   3.073   4.654   0.487 -0.8713  0.0413  0.8088
  784MOL0     C 5711   3.177   4.613   0.569  1.1087 -0.5038  0.4777
  784MOL0     C 5712   3.195   4.654   0.703  0.9546  0.1085  0.6357
  784MOL0     O 5713   3.311   4.616   0.766 -0.0360  1.1395 -0.4894
  784MOL0     C 5714   3.289   4.603   0.906  0.0157 -1.2357 -0.6453
  784MOL0     C 5715   3.334   4.466   0.954  0.0133  0.1461 -0.0518
  784MOL0     C 5716   3.308   4.352   0.849 -0.4280 -1.1170 -0.3422
  784MOL0     C 5717   3.318   4.218   0.928  0.4278 -0.3629  0.2269
  784MOL0     C 5718   3.280   4.095   0.838  0.6057 -0.8155  0.1094
  784MOL0     C 5719   3.247   3.971   0.935  0.8661 -1.0997 -0.0657
  784MOL0     C 5720   3.362   3.938   1.038  1.1598 -0.4724 -0.1199
  784MOL0     C 5721   3.501   3.925   0.978  0.5612  0.1243 -0.0453
  784MOL0     N 5722   3.507   3.795   0.908 -0.6048  0.6817  1.3943
  784MOL0     C 5723   3.603   3.708   0.947 -0.4113 -0.3009  0.7997
  784MOL0     C 5724   3.591   3.594   0.862 -0.7020 -1.1883  0.5138
  784MOL0     C 5725   3.684   3.475   0.846 -0.3942  0.4802  0.4533
  784MOL0     C 5726   3.636   3.358   0.933 -0.1219  0.2644 -0.1117
  784MOL0     C 5727   3.741   3.259   0.899 -0.8914  0.4176 -0.2386
  784MOL0     C 5728   3.715   3.188   0.764 -0.1259 -0.3925 -0.2305
  784MOL0     O 5729   3.772   3.057   0.772 -0.1375 -0.1701  0.0433
  784MOL0     C 5730   3.796   2.997   0.654  0.2034 -0.8997  1.1703
  784MOL0     C 5731   3.741   3.022   0.529  0.9076 -0.0042 -0.2216
  784MOL0     C 5732   3.775   2.951   0.411  0.5631 -1.1682  0.4775
  784MOL0     C 5733   3.693   2.978   0.283  0.2875  0.4721 -0.2924
  784MOL0     C 5734   3.876   2.851   0.420  0.0823  0.6411  0.3158
  784MOL0     C 5735   3.931   2.781   0.308 -0.5115 -1.1600  0.6454
  784MOL0     O 5736   4.068   2.777   0.286 -0.4815 -0.6776  0.2348
  784MOL0     C 5737   4.116   2.664   0.227  0.3800 -0.0434  0.4693
  784MOL0     C 5738   4.206   2.586   0.306  0.3801 -0.7225  0.2955
  784MOL0     C 5739   4.261   2.471   0.251  0.2455  0.0834  0.2757
  784MOL0     C 5740   4.243   2.443   0.110 -0.4919  0.1006  0.1450
  784MOL0     O 5741   4.307   2.333   0.057 -0.2848 -1.1561 -0.7199
  784MOL0     C 5742   4.328   2.325  -0.087 -0.6291 -0.8115  0.1261
  784MOL0     C 5743   4.421   2.200  -0.097  0.0812  0.3064 -0.1217
  784MOL0     C 5744   4.472   2.179  -0.239 -0.1185 -0.2198  0.3198
  784MOL0     C 5745   4.424   2.038  -0.290 -0.6197 -1.0067 -0.4267
  784MOL0     C 5746   4.484   2.019  -0.433 -0.1290 -0.6801  0.2467
  784MOL0     C 5747   4.427   2.117  -0.540  0.1879  0.3216 -0.6807
  784MOL0     C 5748   4.289   2.059  -0.595  0.1435  0.1601  0.4868
  784MOL0     C 5749   4.234   2.162  -0.693 -0.0321 -0.3742  1.0135
  784MOL0    Cl 5750   4.199   2.332  -0.629 -0.0555  0.2435  0.2063
  784MOL0     C 5751   4.174   2.537   0.027 -0.7076  0.1812  1.0619
  784MOL0     C 5752   4.106   2.643   0.089 -0.6735 -0.4711 -0.4679
  784MOL0     O 5753   3.848   2.731   0.233  0.3946 -0.1953 -0.7481
  784MOL0     C 5754   3.933   2.819   0.547 -0.1434  0.6709  0.2596
  784MOL0     C 5755   3.899   2.894   0.662  0.0145  0.2066  0.5307
  784MOL0     N 5756   3.494   3.625   0.775  0.5568  0.5154  0.0055
  784MOL0     N 5757   3.444   3.747   0.800 -0.3310  0.5457 -0.1188
  784MOL0     C 5758   3.090   4.743   0.754 -0.2694  0.0771 -0.6520
  784MOL0     C 5759   2.981   4.780   0.674  0.3810  0.4854  0.7702
  784MOL0     C 5760   2.636   4.764   0.401 -0.6210 -1.0488 -0.1544
  784MOL0     C 5761   2.522   4.694   0.379  0.2585 -0.4503 -0.7409
  784MOL0     C 5762   2.403   4.761   0.344 -0.7483 -0.6035  0.1451
  784MOL0     C 5763   2.405   4.896   0.331  0.5237  0.1877  0.3118
  784MOL0     O 5764   2.291   4.965   0.295 -0.4447 -0.2857 -0.1286
  784MOL0     C 5765   2.192   4.976   0.395  0.7791  0.8666 -0.3228
  784MOL0     C 5766   2.059   4.976   0.311 -0.7443  0.1416 -0.1299
  784MOL0     C 5767   2.022   4.837   0.276  0.3193  0.3078 -0.0457
  784MOL0     C 5768   1.996   4.729   0.385  0.1042 -0.2207 -0.2919
  784MOL0     C 5769   1.930   4.782   0.504  0.7273 -0.7498  0.1302
  784MOL0     C 5770   1.860   4.826   0.592  0.4112  0.4149  0.0673
  784MOL0     C 5771   2.518   4.968   0.354 -0.6373  0.3288 -0.2053
  784MOL0     C 5772   2.635   4.906   0.396 -0.2569 -0.4010  0.5963
  784MOL0     H 5773   3.067   4.636   0.380  4.3925 -0.5957  0.3850
  784MOL0     H 5774   3.246   4.538   0.533  1.8739  1.5546 -2.7846
  784MOL0     H 5775   3.333   4.682   0.967 -0.0673 -2.5751  1.2345
  784MOL0     H 5776   3.182   4.584   0.925  0.3629 -1.0392  1.8744
  784MOL0     H 5777   3.442   4.486   0.955 -0.0741  0.6062  0.4195
  784MOL0     H 5778   3.295   4.445   1.054 -1.7062 -1.7065 -1.0464
  784MOL0     H 5779   3.205   4.367   0.815 -0.0591 -1.0101 -1.4432
  784MOL0     H 5780   3.374   4.350   0.762 -0.2528 -1.2342 -0.2085
  784MOL0     H 5781   3.408   4.198   0.986 -2.5650 -2.2981  4.8668
  784MOL0     H 5782   3.246   4.233   1.009  5.2349  2.7802  4.5149
  784MOL0     H 5783   3.193   4.116   0.775 -0.9905 -0.5155  2.2977
  784MOL0     H 5784   3.362   4.079   0.767  1.2237 -0.2038  0.6753
  784MOL0     H 5785   3.151   3.994   0.984  1.3237  1.5267 -0.2362
  784MOL0     H 5786   3.232   3.888   0.866 -3.9853  0.2007 -0.9684
  784MOL0     H 5787   3.377   4.022   1.106  0.8088 -0.2849 -0.2715
  784MOL0     H 5788   3.342   3.848   1.097  3.5109 -1.5930 -0.8793
  784MOL0     H 5789   3.564   3.916   1.067 -0.0694 -3.0797  0.2116
  784MOL0     H 5790   3.525   4.013   0.917 -1.3063 -0.6239 -1.9909
  784MOL0     H 5791   3.689   3.729   1.009  0.7797  0.2121 -0.9336
  784MOL0     H 5792   3.690   3.446   0.740 -1.1329 -0.5958  0.6931
  784MOL0     H 5793   3.783   3.512   0.876  0.2095 -0.4127 -0.3539
  784MOL0     H 5794   3.533   3.335   0.904 -0.1167 -1.3086  1.0175
  784MOL0     H 5795   3.644   3.376   1.040 -1.5850 -1.2691  0.2864
  784MOL0     H 5796   3.729   3.184   0.978  1.5284  2.3750  2.2065
  784MOL0     H 5797   3.846   3.288   0.907  0.3216 -3.4620 -0.0063
  784MOL0     H 5798   3.764   3.238   0.680 -1.7475  2.3673  0.3210
  784MOL0     H 5799   3.606   3.185   0.762 -0.1927  1.0692  0.2750
  784MOL0     H 5800   3.670   3.104   0.522  0.4976 -0.3141  0.2469
  784MOL0     H 5801   3.682   3.085   0.260  2.3082  0.6209 -0.7754
  784MOL0     H 5802   3.736   2.940   0.190  1.3020  1.6607 -0.3361
  784MOL0     H 5803   3.598   2.926   0.297  0.3623  0.3464 -0.2540
  784MOL0     H 5804   4.208   2.593   0.414  1.3666  0.1079  0.2427
  784MOL0     H 5805   4.314   2.392   0.304  0.7346 -1.6801 -2.6037
  784MOL0     H 5806   4.244   2.304  -0.153  0.3016 -1.1171 -0.9895
  784MOL0     H 5807   4.366   2.422  -0.118  0.0619 -0.1614  2.7714
  784MOL0     H 5808   4.499   2.209  -0.021  0.7911 -1.0301 -0.6485
  784MOL0     H 5809   4.363   2.115  -0.059  1.1966  1.0983  3.8649
  784MOL0     H 5810   4.580   2.175  -0.223 -0.1300 -1.8245  0.1549
  784MOL0     H 5811   4.450   2.253  -0.317  1.9378 -1.3360 -1.4108
  784MOL0     H 5812   4.458   1.969  -0.212 -0.3184  1.7263  2.0236
  784MOL0     H 5813   4.316   2.026  -0.286 -0.7437 -0.0661 -0.6340
  784MOL0     H 5814   4.483   1.917  -0.471  2.7482 -1.1339  1.1730
  784MOL0     H 5815   4.589   2.038  -0.409 -0.3982 -1.2695  2.1233
  784MOL0     H 5816   4.441   2.222  -0.512  4.1964  0.1417 -1.4682
  784MOL0     H 5817   4.497   2.112  -0.623 -0.2458 -0.5928 -1.0029
  784MOL0     H 5818   4.222   2.033  -0.512  2.1534 -1.7177  1.5953
  784MOL0     H 5819   4.305   1.974  -0.661 -1.3705  0.1730  0.0648
  784MOL0     H 5820   4.142   2.128  -0.740  1.9150 -2.8944 -1.2742
  784MOL0     H 5821   4.307   2.158  -0.775  0.2294  3.1457  0.8949
  784MOL0     H 5822   4.156   2.512  -0.077 -1.9721 -2.7065  1.8730
  784MOL0     H 5823   4.047   2.719   0.039 -1.1311  0.3507  1.2226
  784MOL0     H 5824   4.010   2.742   0.539  0.7711  1.5946 -0.0493
  784MOL0     H 5825   3.947   2.880   0.758  2.0982 -0.3611 -0.5285
  784MOL0     H 5826   3.091   4.780   0.855  0.4402 -2.5758  0.3969
  784MOL0     H 5827   2.891   4.828   0.711 -0.6512  0.1947 -1.2375
  784MOL0     H 5828   2.530   4.586   0.386 -0.6730 -0.6145 -1.9579
  784MOL0     H 5829   2.310   4.707   0.328 -1.3546  0.8270 -1.5262
  784MOL0     H 5830   2.197   4.890   0.462 -0.2815  1.0566  0.0186
  784MOL0     H 5831   2.209   5.063   0.459 -0.0407  0.5428  0.3519
  784MOL0     H 5832   2.076   5.024   0.214  0.2781 -0.3941 -0.2338
  784MOL0     H 5833   1.976   5.028   0.359 -1.6647  1.8826 -3.3061
  784MOL0     H 5834   2.105   4.800   0.216  1.0583  0.2403  0.9939
  784MOL0     H 5835   1.932   4.830   0.215 -0.7155 -0.7246  1.5045
  784MOL0     H 5836   2.088   4.686   0.426 -1.5509 -2.7591  1.0124
  784MOL0     H 5837   1.937   4.649   0.339  0.4031  0.5572 -2.1468
  784MOL0     H 5838   1.804   4.838   0.683  1.2013 -1.4878  0.8618
  784MOL0     H 5839   2.521   5.076   0.341  1.4279  0.4737  1.0661
  784MOL0     H 5840   2.728   4.963   0.403  0.2651 -0.6329 -2.6736
  785MOL0     O 5841  11.378  10.487   9.698 -0.0511  0.5056  0.6863
  785MOL0     C 5842  11.294  10.511   9.787  0.6555  0.6152 -0.4554
  785MOL0     O 5843  11.309  10.473   9.915 -0.3122  0.0966 -0.8662
  785MOL0     C 5844  11.427  10.408   9.950 -0.1536  0.4532 -0.3342
  785MOL0     C 5845  11.463  10.275   9.901 -1.1513 -0.5248  0.4397
  785MOL0     C 5846  11.575  10.211   9.955 -0.2608 -0.3853  0.1970
  785MOL0     C 5847  11.635  10.266  10.072  0.3043 -0.2501  0.9311
  785MOL0     O 5848  11.740  10.204  10.127 -0.8734  0.0710 -0.8453
  785MOL0     C 5849  11.866  10.268  10.102 -0.2513 -0.8061  0.2248
  785MOL0     C 5850  11.986  10.178  10.113 -0.0294 -0.8290 -0.5454
  785MOL0     C 5851  12.119  10.252  10.058 -0.1671  0.3639 -0.0274
  785MOL0     C 5852  12.246  10.215  10.139 -0.3454 -0.2618 -0.1253
  785MOL0     C 5853  12.378  10.261  10.071 -0.2998 -0.1066  0.9262
  785MOL0     C 5854  12.502  10.221  10.153  0.5361  0.2354  1.4014
  785MOL0     C 5855  12.629  10.246  10.066  0.0935 -0.3533 -0.8080
  785MOL0     C 5856  12.749  10.192  10.149  0.1537 -0.3558 -0.1596
  785MOL0     N 5857  12.869  10.204  10.061  0.3207  0.8612 -0.5638
  785MOL0     C 5858  12.957  10.310  10.064  0.4094 -0.1540  0.6158
  785MOL0     C 5859  13.051  10.290   9.972 -0.7203  0.9585  0.6406
  785MOL0     C 5860  13.171  10.366   9.945  0.9460 -0.6352 -0.1762
  785MOL0     C 5861  13.144  10.518   9.926  1.2380 -0.0131 -0.2038
  785MOL0     C 5862  13.251  10.610   9.989 -0.5725 -0.2279 -0.3504
  785MOL0     C 5863  13.204  10.760  10.010  0.2954  0.2579 -0.1668
  785MOL0     O 5864  13.317  10.821  10.073  0.3669 -0.0259 -0.9144
  785MOL0     C 5865  13.350  10.933  10.001 -1.1158  0.8089  0.6773
  785MOL0     C 5866  13.264  11.044   9.975 -0.9513 -0.0615 -0.5257
  785MOL0     C 5867  13.311  11.161   9.902 -0.1619 -0.1029  0.9073
  785MOL0     C 5868  13.217  11.275   9.902  0.5328 -0.0220  0.8021
  785MOL0     C 5869  13.438  11.158   9.833 -0.8455  0.2894 -0.2809
  785MOL0     C 5870  13.497  11.267   9.753 -0.1489  0.1201 -0.3268
  785MOL0     O 5871  13.626  11.295   9.772 -0.5311  0.8958  0.8082
  785MOL0     C 5872  13.677  11.406   9.717 -0.3352 -0.2378  0.6327
  785MOL0     C 5873  13.791  11.405   9.635 -0.0054 -0.0010 -0.2487
  785MOL0     C 5874  13.836  11.532   9.578 -0.4089  0.0744  0.0136
  785MOL0     C 5875  13.771  11.645   9.610  0.2468  0.5425  0.0274
  785MOL0     O 5876  13.819  11.757   9.541  0.2351  0.6734  0.5239
  785MOL0     C 5877  13.747  11.890   9.547 -0.7345  0.2023 -0.2793
  785MOL0     C 5878  13.779  11.979   9.432  0.0177  0.3321  0.5098
  785MOL0     C 5879  13.714  12.124   9.443  0.0192 -0.7426  0.3077
  785MOL0     C 5880  13.787  12.229   9.372  0.0227 -0.2395  0.6531
  785MOL0     C 5881  13.695  12.353   9.371 -0.0999  0.9169  0.1326
  785MOL0     C 5882  13.785  12.469   9.340 -0.3231 -0.0595  0.5981
  785MOL0     C 5883  13.724  12.602   9.361  0.6719 -0.1935 -0.8153
  785MOL0     C 5884  13.602  12.633   9.274 -0.0011 -0.7614 -0.2868
  785MOL0    Cl 5885  13.588  12.808   9.284  0.4817  0.4891  0.6161
  785MOL0     C 5886  13.660  11.647   9.696  0.4747  0.0347  0.6127
  785MOL0     C 5887  13.617  11.526   9.747  0.2343  0.4952 -0.0662
  785MOL0     O 5888  13.418  11.323   9.681 -0.1977  0.1658  0.3073
  785MOL0     C 5889  13.523  11.044   9.854  0.0235  0.4986  0.0040
  785MOL0     C 5890  13.480  10.938   9.938 -0.0567  0.0123  0.7440
  785MOL0     N 5891  13.015  10.174   9.896  0.4181 -0.2040 -0.1234
  785MOL0     N 5892  12.918  10.124   9.958  0.6787  0.6636 -0.4999
  785MOL0     C 5893  11.596  10.389  10.123  0.1463  0.1961 -0.9927
  785MOL0     C 5894  11.487  10.455  10.070  0.2645  0.0508  0.2091
  785MOL0     C 5895  11.168  10.581   9.746  0.3306 -0.5021 -1.0346
  785MOL0     C 5896  11.046  10.562   9.813 -0.2233 -0.2244 -0.5226
  785MOL0     C 5897  10.923  10.605   9.760  0.0165  0.1744  0.0167
  785MOL0     C 5898  10.925  10.681   9.648  0.3340 -0.4986 -0.4833
  785MOL0     O 5899  10.815  10.730   9.589  0.0538  0.3979 -0.1084
  785MOL0     C 5900  10.686  10.680   9.613 -0.0178 -0.3247 -0.9340
  785MOL0     C 5901  10.608  10.754   9.714 -0.8556 -0.5207 -0.9667
  785MOL0     C 5902  10.547  10.871   9.646 -0.3484  0.1977 -0.0010
  785MOL0     C 5903  10.503  10.972   9.756 -0.0337 -0.6719 -0.2072
  785MOL0     C 5904  10.407  10.918   9.851  0.3197  0.2882 -0.5194
  785MOL0     C 5905  10.345  10.863   9.944 -0.4013 -0.6517  0.0255
  785MOL0     C 5906  11.055  10.711   9.581  0.0381  1.4412  0.2393
  785MOL0     C 5907  11.173  10.666   9.633 -0.2642  1.1718  0.0353
  785MOL0     H 5908  11.400  10.242   9.818 -3.2132  0.2289  1.6424
  785MOL0     H 5909  11.601  10.120   9.903 -0.6027 -0.8075  0.7528
  785MOL0     H 5910  11.878  10.313  10.003 -0.9402 -2.2239 -0.5237
  785MOL0     H 5911  11.875  10.353  10.170  1.4270  1.0144 -2.1187
  785MOL0     H 5912  12.001  10.153  10.219 -1.7210  2.3968  0.6150
  785MOL0     H 5913  11.967  10.079  10.071  1.0886 -1.1481 -0.3360
  785MOL0     H 5914  12.136  10.219   9.955 -2.1466 -0.6118 -0.0820
  785MOL0     H 5915  12.113  10.361  10.066  0.9764  0.4333  0.0025
  785MOL0     H 5916  12.235  10.235  10.246  0.8311 -1.6421  0.2947
  785MOL0     H 5917  12.251  10.106  10.134 -0.0990 -0.2026 -3.4145
  785MOL0     H 5918  12.378  10.202   9.979  2.1519 -1.3986  1.6607
  785MOL0     H 5919  12.378  10.370  10.058  0.1188 -0.3843 -1.9125
  785MOL0     H 5920  12.513  10.287  10.239  1.4272  1.1108  0.6272
  785MOL0     H 5921  12.502  10.115  10.181 -1.1242 -1.1213 -2.8331
  785MOL0     H 5922  12.622  10.192   9.972 -3.2716  2.4141 -2.3338
  785MOL0     H 5923  12.640  10.353  10.046  0.2277  0.1906  1.7725
  785MOL0     H 5924  12.721  10.088  10.169 -1.7730  0.2002  0.1588
  785MOL0     H 5925  12.749  10.248  10.243  1.2222 -1.3288  0.4585
  785MOL0     H 5926  12.966  10.391  10.136  0.0749 -1.8942  2.7195
  785MOL0     H 5927  13.242  10.354  10.028  1.7781  0.8852 -0.6223
  785MOL0     H 5928  13.224  10.323   9.860 -1.1386 -3.4668 -0.1472
  785MOL0     H 5929  13.046  10.538   9.971  0.5360 -2.3959 -0.5604
  785MOL0     H 5930  13.144  10.533   9.817 -0.6212 -2.1605 -0.5837
  785MOL0     H 5931  13.345  10.595   9.935 -1.5262 -3.4066 -1.4008
  785MOL0     H 5932  13.265  10.572  10.090 -1.2606  2.4942  0.8506
  785MOL0     H 5933  13.126  10.771  10.085  0.5694 -0.4562  0.2321
  785MOL0     H 5934  13.169  10.804   9.917 -1.0038 -1.0504 -0.3346
  785MOL0     H 5935  13.166  11.045  10.020 -0.8407  0.0480 -0.2813
  785MOL0     H 5936  13.268  11.364   9.863 -0.0073  0.2876  0.8042
  785MOL0     H 5937  13.124  11.260   9.846  0.9903  0.7207 -0.1944
  785MOL0     H 5938  13.170  11.297   9.998 -2.8393  0.2445 -0.7686
  785MOL0     H 5939  13.844  11.312   9.626  1.6080  0.7081  1.3119
  785MOL0     H 5940  13.932  11.545   9.531  1.2684 -1.4570  2.7346
  785MOL0     H 5941  13.640  11.870   9.536 -0.6406  0.4369 -1.9171
  785MOL0     H 5942  13.772  11.943   9.639 -1.3779  0.7546 -0.4140
  785MOL0     H 5943  13.888  11.990   9.443 -0.2855  1.9329  2.4608
  785MOL0     H 5944  13.760  11.933   9.335  0.3514  1.9875 -0.3893
  785MOL0     H 5945  13.721  12.149   9.549 -1.7187  0.7711  0.1220
  785MOL0     H 5946  13.608  12.128   9.413 -0.1110  0.8442  0.9120
  785MOL0     H 5947  13.871  12.245   9.440 -0.2263 -2.1192  1.4520
  785MOL0     H 5948  13.820  12.198   9.273  1.0720  3.8202 -0.4494
  785MOL0     H 5949  13.653  12.377   9.469  2.9197  1.5120  1.4040
  785MOL0     H 5950  13.617  12.326   9.300  1.4786 -0.9533 -0.9983
  785MOL0     H 5951  13.868  12.470   9.411 -1.0054  4.5786  1.6382
  785MOL0     H 5952  13.818  12.482   9.237 -1.6964  3.6291  0.4691
  785MOL0     H 5953  13.804  12.670   9.330 -0.9061  1.6171 -1.1273
  785MOL0     H 5954  13.702  12.619   9.466 -1.6073  1.5156 -1.4881
  785MOL0     H 5955  13.514  12.569   9.283 -2.1273  1.9301 -0.5596
  785MOL0     H 5956  13.629  12.610   9.170 -1.1634  3.4631 -1.7553
  785MOL0     H 5957  13.606  11.738   9.719 -1.9451 -1.4710  1.2772
  785MOL0     H 5958  13.528  11.525   9.808 -0.6916 -0.7576 -1.3826
  785MOL0     H 5959  13.621  11.036   9.810 -0.7967 -0.7772 -1.7074
  785MOL0     H 5960  13.545  10.853   9.959 -2.1208 -1.8378  0.0240
  785MOL0     H 5961  11.645  10.441  10.205  1.2965  3.5474 -3.5601
  785MOL0     H 5962  11.455  10.557  10.091 -0.4509 -0.5913  2.5618
  785MOL0     H 5963  11.044  10.500   9.902  2.0438  0.2610 -0.0595
  785MOL0     H 5964  10.829  10.572   9.803 -0.3785  1.2354  0.0021
  785MOL0     H 5965  10.637  10.702   9.517 -0.8901  0.2878 -0.3706
  785MOL0     H 5966  10.680  10.573   9.636  3.6591 -0.2695  1.0350
  785MOL0     H 5967  10.671  10.781   9.799  0.4315 -1.9983 -1.3924
  785MOL0     H 5968  10.532  10.689   9.756 -1.2880  0.7613  0.3047
  785MOL0     H 5969  10.464  10.838   9.583 -0.3063  0.5253 -0.2278
  785MOL0     H 5970  10.620  10.928   9.588 -3.2676  1.6674 -2.4894
  785MOL0     H 5971  10.459  11.063   9.713 -1.3652 -0.0921  2.1658
  785MOL0     H 5972  10.589  11.007   9.814  1.0463  1.7014 -2.9863
  785MOL0     H 5973  10.294  10.837  10.035 -1.8114 -0.0886 -0.5776
  785MOL0     H 5974  11.050  10.770   9.490 -0.5674  1.3499  0.2050
  785MOL0     H 5975  11.268  10.685   9.583 -1.2121 -0.8539 -2.7752
  786MOL0     O 5976   9.886   7.325   4.085 -0.0468 -0.1003 -0.0628
  786MOL0     C 5977   9.888   7.225   4.006  0.3105 -0.6592  0.3108
  786MOL0     O 5978   9.789   7.134   3.999  0.1732  0.1254 -0.1990
  786MOL0     C 5979   9.675   7.133   4.082 -1.5463 -0.0018 -0.2955
  786MOL0     C 5980   9.687   7.145   4.229 -0.0296 -0.3920  0.3568
  786MOL0     C 5981   9.581   7.115   4.320  0.1003  0.2706  0.0329
  786MOL0     C 5982   9.456   7.078   4.258  0.1062  0.4256  0.2550
  786MOL0     O 5983   9.348   7.026   4.323  0.2889  0.3821 -0.2146
  786MOL0     C 5984   9.373   6.992   4.455 -1.8061 -0.0149  0.6063
  786MOL0     C 5985   9.248   6.930   4.506  0.0869 -0.3356  0.3448
  786MOL0     C 5986   9.208   6.796   4.440 -0.4759 -0.9658  0.3335
  786MOL0     C 5987   9.066   6.747   4.455 -0.3567 -0.2375 -1.3439
  786MOL0     C 5988   9.059   6.588   4.454  0.8562  0.4146  0.5517
  786MOL0     C 5989   8.903   6.569   4.489 -0.4289  0.8754  1.6169
  786MOL0     C 5990   8.881   6.415   4.523  0.7421  0.1042  0.9099
  786MOL0     C 5991   8.837   6.353   4.382  0.4754 -0.9189  1.0599
  786MOL0     N 5992   8.764   6.232   4.409  0.5131  0.1150  0.3581
  786MOL0     C 5993   8.815   6.107   4.447  1.2369 -0.5832  0.7112
  786MOL0     C 5994   8.710   6.035   4.497 -0.8057 -0.1674 -0.5211
  786MOL0     C 5995   8.716   5.904   4.563  1.0056  0.8491  0.4017
  786MOL0     C 5996   8.654   5.924   4.707  0.7792 -0.4730 -0.0747
  786MOL0     C 5997   8.588   5.791   4.767 -0.8655  0.0072  0.0108
  786MOL0     C 5998   8.681   5.668   4.778 -0.3508 -1.0657  1.2636
  786MOL0     O 5999   8.638   5.553   4.862 -0.0981 -0.0827  0.2810
  786MOL0     C 6000   8.741   5.460   4.891 -0.1613  0.0225 -0.0642
  786MOL0     C 6001   8.866   5.441   4.833  0.7109  0.1317 -0.6026
  786MOL0     C 6002   8.949   5.339   4.867 -0.3846  0.6145  0.1967
  786MOL0     C 6003   9.071   5.323   4.780 -0.1911  0.5840  0.3658
  786MOL0     C 6004   8.912   5.251   4.977 -0.9788  0.0252  1.0970
  786MOL0     C 6005   9.007   5.141   5.029  1.3960 -0.2776 -0.7011
  786MOL0     O 6006   9.098   5.096   4.945  0.3996 -0.5970  0.5426
  786MOL0     C 6007   9.182   4.996   4.976 -0.7858 -0.8771 -1.0779
  786MOL0     C 6008   9.303   5.017   4.909 -0.2906 -0.5887 -0.2312
  786MOL0     C 6009   9.399   4.918   4.911 -0.0518  0.4107 -0.9723
  786MOL0     C 6010   9.373   4.802   4.991 -0.2265  0.0658 -0.1636
  786MOL0     O 6011   9.473   4.703   4.986  0.0617  0.1403 -0.3114
  786MOL0     C 6012   9.511   4.643   5.108  0.1269  0.6252  0.2205
  786MOL0     C 6013   9.628   4.557   5.086 -0.4725 -0.6412 -0.4254
  786MOL0     C 6014   9.651   4.431   5.161  0.4334  0.7615 -0.8338
  786MOL0     C 6015   9.784   4.361   5.118 -0.2108 -0.4974  0.0265
  786MOL0     C 6016   9.817   4.239   5.201  0.0019 -0.3276  0.1452
  786MOL0     C 6017   9.955   4.192   5.158 -0.8617  0.3198 -0.1013
  786MOL0     C 6018  10.000   4.049   5.196 -0.6378 -1.3615 -0.9534
  786MOL0     C 6019   9.995   4.023   5.341  0.0534  0.2167 -1.0445
  786MOL0    Cl 6020  10.048   3.851   5.358  0.6654 -0.1843  0.2797
  786MOL0     C 6021   9.245   4.782   5.056 -0.1305  0.6069  0.2671
  786MOL0     C 6022   9.154   4.887   5.060  0.3680  0.0467  1.1775
  786MOL0     O 6023   8.990   5.100   5.146 -0.1097 -0.3262  1.1889
  786MOL0     C 6024   8.783   5.272   5.030 -0.3517  1.3325  0.1590
  786MOL0     C 6025   8.709   5.378   4.997  0.5025 -0.8902 -0.4804
  786MOL0     N 6026   8.599   6.123   4.495 -0.2189 -0.0877  0.1473
  786MOL0     N 6027   8.632   6.239   4.443  0.9129 -0.6120 -0.5901
  786MOL0     C 6028   9.442   7.072   4.111 -0.4452 -0.5370 -0.2599
  786MOL0     C 6029   9.550   7.109   4.029 -0.6619  0.4538  0.0155
  786MOL0     C 6030   9.983   7.221   3.893 -0.2863 -0.3511  0.0491
  786MOL0     C 6031  10.014   7.098   3.836  0.8598 -0.6663  1.1218
  786MOL0     C 6032  10.097   7.093   3.725 -0.4093  0.0214  0.7489
  786MOL0     C 6033  10.168   7.206   3.691  0.0612  0.3308  1.1269
  786MOL0     O 6034  10.276   7.184   3.605  0.7280 -0.4461  0.3729
  786MOL0     C 6035  10.342   7.309   3.566  0.0437  0.6859 -0.9379
  786MOL0     C 6036  10.460   7.263   3.481 -0.8515  0.4407  0.6229
  786MOL0     C 6037  10.538   7.383   3.420  0.3617 -0.2210 -0.0460
  786MOL0     C 6038  10.629   7.338   3.306 -0.3366  0.1512 -0.5795
  786MOL0     C 6039  10.737   7.437   3.282 -0.0273  0.8669 -0.5870
  786MOL0     C 6040  10.837   7.508   3.267  0.9145  0.5211 -0.3672
  786MOL0     C 6041  10.125   7.333   3.741  0.7508  0.7929  0.1180
  786MOL0     C 6042  10.031   7.339   3.847 -0.1175  0.7256 -0.1351
  786MOL0     H 6043   9.788   7.177   4.253 -0.4122 -0.6495  2.5339
  786MOL0     H 6044   9.591   7.114   4.428 -1.0543  0.5765  0.1561
  786MOL0     H 6045   9.451   6.917   4.472  2.6356  4.0330  0.0558
  786MOL0     H 6046   9.395   7.074   4.523  3.1868 -0.5378 -0.0081
  786MOL0     H 6047   9.247   6.917   4.615 -3.2215  1.7454  0.7090
  786MOL0     H 6048   9.160   6.994   4.495 -1.5868 -2.8550 -2.5481
  786MOL0     H 6049   9.219   6.804   4.332  0.4274  1.2046  0.5382
  786MOL0     H 6050   9.269   6.717   4.484  1.1992 -0.9789 -1.8454
  786MOL0     H 6051   9.025   6.791   4.546  0.2750 -1.4024 -0.4799
  786MOL0     H 6052   9.015   6.781   4.364 -1.2199 -0.0012 -0.7761
  786MOL0     H 6053   9.085   6.548   4.356 -0.6988 -0.7925  0.5840
  786MOL0     H 6054   9.123   6.544   4.532 -1.7615 -1.0935  2.0106
  786MOL0     H 6055   8.869   6.635   4.570 -0.2259  3.9456 -0.5886
  786MOL0     H 6056   8.850   6.595   4.397  0.2260  2.2298  1.5938
  786MOL0     H 6057   8.973   6.371   4.562  2.1882 -0.3228 -2.6211
  786MOL0     H 6058   8.802   6.422   4.599 -0.0732  0.5184  0.0499
  786MOL0     H 6059   8.922   6.345   4.313 -0.4597  1.3996 -0.5058
  786MOL0     H 6060   8.779   6.419   4.317 -0.3420 -0.9859  1.7074
  786MOL0     H 6061   8.918   6.072   4.444  0.6850 -2.3040 -1.1925
  786MOL0     H 6062   8.660   5.829   4.507  0.6844 -1.0836  3.1482
  786MOL0     H 6063   8.815   5.858   4.568  1.4421  1.7504  0.3797
  786MOL0     H 6064   8.579   6.004   4.709  1.3095  0.0964 -1.7828
  786MOL0     H 6065   8.739   5.957   4.768  1.6756  3.4938 -3.0987
  786MOL0     H 6066   8.499   5.760   4.711 -0.6479 -1.6669  0.5261
  786MOL0     H 6067   8.563   5.803   4.873 -3.1709  0.4245 -0.5265
  786MOL0     H 6068   8.782   5.703   4.803  1.4903  0.5695 -6.1167
  786MOL0     H 6069   8.669   5.632   4.676 -0.7770 -0.1963  0.9970
  786MOL0     H 6070   8.888   5.508   4.750 -1.9953 -1.1254 -2.5092
  786MOL0     H 6071   9.047   5.246   4.706  1.0060  1.0086 -0.4936
  786MOL0     H 6072   9.086   5.415   4.724  2.4480  1.3216  2.0708
  786MOL0     H 6073   9.167   5.297   4.827 -0.2508 -5.1241 -1.8856
  786MOL0     H 6074   9.328   5.117   4.874  0.1108 -0.0221  1.5466
  786MOL0     H 6075   9.495   4.936   4.864  0.8025  0.3663  0.6781
  786MOL0     H 6076   9.526   4.706   5.195 -3.2479 -1.8698  2.9122
  786MOL0     H 6077   9.434   4.568   5.131 -0.1004  1.1217  1.1258
  786MOL0     H 6078   9.659   4.541   4.982 -0.1633 -1.8815 -0.1505
  786MOL0     H 6079   9.714   4.616   5.120 -1.3893  0.0092  0.8622
  786MOL0     H 6080   9.570   4.360   5.142  2.0860 -1.0041 -1.5999
  786MOL0     H 6081   9.649   4.442   5.270  2.8643 -2.6082 -0.2927
  786MOL0     H 6082   9.765   4.331   5.015  1.0082  0.4289 -0.4856
  786MOL0     H 6083   9.872   4.426   5.117  1.0924 -2.1987 -0.9491
  786MOL0     H 6084   9.737   4.168   5.176 -0.3921  0.0885  0.2041
  786MOL0     H 6085   9.809   4.262   5.307  0.5836  1.1318 -0.1054
  786MOL0     H 6086   9.963   4.205   5.050  0.5828  1.1713  0.0773
  786MOL0     H 6087  10.017   4.266   5.209 -0.4489  0.1666 -0.3789
  786MOL0     H 6088  10.102   4.025   5.163  0.8726  1.8415  0.9608
  786MOL0     H 6089   9.937   3.975   5.145 -1.3225 -1.3060 -0.1971
  786MOL0     H 6090   9.891   4.042   5.371  0.2208 -0.1798 -0.1822
  786MOL0     H 6091  10.055   4.090   5.403  0.6681 -1.9953  0.9030
  786MOL0     H 6092   9.215   4.697   5.116  1.2019 -1.1145 -1.4020
  786MOL0     H 6093   9.054   4.871   5.100  0.9653 -2.0022  1.9890
  786MOL0     H 6094   8.746   5.214   5.114  0.1240  2.3791  1.1304
  786MOL0     H 6095   8.607   5.381   5.033  1.0628 -0.0141  1.1461
  786MOL0     H 6096   9.348   7.039   4.067 -1.2365 -3.1920  3.0015
  786MOL0     H 6097   9.523   7.094   3.925  1.3303 -1.0968 -0.3414
  786MOL0     H 6098   9.966   7.009   3.877  1.4257 -0.5117  2.1553
  786MOL0     H 6099  10.115   6.995   3.682 -1.5800 -0.8492  2.1388
  786MOL0     H 6100  10.272   7.376   3.514  0.2830  1.8585  0.1907
  786MOL0     H 6101  10.372   7.370   3.652 -2.8082  0.0704  0.6219
  786MOL0     H 6102  10.414   7.196   3.408  2.3873 -0.5377 -0.6993
  786MOL0     H 6103  10.533   7.205   3.538  0.4993 -0.3861 -1.8230
  786MOL0     H 6104  10.599   7.422   3.502  0.1021  2.6176 -1.1035
  786MOL0     H 6105  10.473   7.461   3.380  2.3235  0.1474 -2.8132
  786MOL0     H 6106  10.567   7.314   3.218 -2.1469  2.5247 -0.0675
  786MOL0     H 6107  10.685   7.249   3.335  2.1704  0.8281 -2.9465
  786MOL0     H 6108  10.924   7.570   3.272  1.1774  0.3123 -1.8662
  786MOL0     H 6109  10.168   7.428   3.710  1.7094 -0.8039 -4.1727
  786MOL0     H 6110  10.004   7.436   3.889  2.5488  0.9858  1.2047
  787MOL0     O 6111  10.792   8.288   7.666 -0.2160 -0.6358 -0.1240
  787MOL0     C 6112  10.899   8.307   7.606 -0.1561  0.2637  0.6676
  787MOL0     O 6113  10.963   8.418   7.573 -0.0712 -0.0246 -0.5008
  787MOL0     C 6114  10.885   8.534   7.563 -0.8506  0.4807  0.1590
  787MOL0     C 6115  10.790   8.545   7.462  0.3695  0.8440  0.8473
  787MOL0     C 6116  10.718   8.665   7.451  0.1296 -1.0397  0.3128
  787MOL0     C 6117  10.733   8.768   7.539 -0.0242 -0.0357  1.1761
  787MOL0     O 6118  10.667   8.887   7.536 -0.1931  0.9626 -0.4193
  787MOL0     C 6119  10.653   8.946   7.402 -0.4534  0.0715  0.2934
  787MOL0     C 6120  10.640   9.098   7.418  0.3188  0.0965  0.0891
  787MOL0     C 6121  10.767   9.159   7.363  0.2705  0.0289  0.6612
  787MOL0     C 6122  10.730   9.314   7.341  0.0658  0.7761 -0.8842
  787MOL0     C 6123  10.830   9.378   7.236  0.4991  0.0539  0.3380
  787MOL0     C 6124  10.800   9.535   7.227 -0.2222 -0.2431 -0.4130
  787MOL0     C 6125  10.883   9.584   7.117 -0.1400  0.1519  0.2492
  787MOL0     C 6126  10.887   9.730   7.078  0.0655  0.3891 -0.8126
  787MOL0     N 6127  10.760   9.779   7.040  0.4355 -0.5006 -0.8107
  787MOL0     C 6128  10.652   9.795   7.123  0.3907 -0.7679  0.2318
  787MOL0     C 6129  10.554   9.847   7.046  1.1987  0.2808  0.4885
  787MOL0     C 6130  10.414   9.862   7.105  0.7540  0.4418  0.0815
  787MOL0     C 6131  10.309   9.764   7.045 -0.4290 -0.8520 -0.1832
  787MOL0     C 6132  10.183   9.838   6.981 -0.0639 -0.0211 -0.0931
  787MOL0     C 6133  10.209   9.895   6.846 -0.2810  0.2869  1.3642
  787MOL0     O 6134  10.071   9.947   6.798 -0.6356  0.2070 -1.5310
  787MOL0     C 6135  10.066  10.008   6.679 -0.1179  0.3425  0.3072
  787MOL0     C 6136   9.938  10.057   6.641 -0.7157 -0.8271 -0.5249
  787MOL0     C 6137   9.928  10.136   6.526  0.1754  0.2822 -0.2992
  787MOL0     C 6138   9.789  10.183   6.496  0.9156 -0.1259 -0.1761
  787MOL0     C 6139  10.034  10.147   6.436 -0.3224  0.3092  0.4362
  787MOL0     C 6140  10.028  10.193   6.297 -0.8845  0.4296 -0.1519
  787MOL0     O 6141   9.915  10.269   6.249 -0.1410 -0.4056 -0.3522
  787MOL0     C 6142   9.907  10.302   6.112 -0.1481  0.5827  0.1141
  787MOL0     C 6143   9.880  10.428   6.066  0.6488 -0.1315 -0.8898
  787MOL0     C 6144   9.837  10.446   5.929  0.7222  0.3107  0.5081
  787MOL0     C 6145   9.827  10.342   5.839  0.4234 -0.2054 -0.5287
  787MOL0     O 6146   9.784  10.368   5.713  0.3896  0.2668  0.8158
  787MOL0     C 6147   9.699  10.267   5.661  0.6668  1.6319  0.1981
  787MOL0     C 6148   9.643  10.307   5.528 -0.5179  0.2348  0.8158
  787MOL0     C 6149   9.556  10.187   5.467 -0.3721 -0.2740  0.4841
  787MOL0     C 6150   9.414  10.165   5.517 -0.8441  0.2570 -0.4985
  787MOL0     C 6151   9.332  10.287   5.561  0.3428  0.1223 -0.3454
  787MOL0     C 6152   9.269  10.360   5.448  1.0604  0.0680 -0.1412
  787MOL0     C 6153   9.173  10.479   5.482 -0.4605  0.9588  0.2222
  787MOL0     C 6154   9.140  10.572   5.365 -0.5337  0.5660  0.4747
  787MOL0    Cl 6155   9.093  10.504   5.211 -0.0088 -0.1534  0.4668
  787MOL0     C 6156   9.864  10.217   5.889 -0.3235  0.9142 -0.3091
  787MOL0     C 6157   9.891  10.190   6.025  0.6647  0.0823 -0.4465
  787MOL0     O 6158  10.120  10.158   6.224 -0.3149  0.0698  0.1861
  787MOL0     C 6159  10.161  10.094   6.478  0.3965  1.0909  0.9572
  787MOL0     C 6160  10.179  10.032   6.602 -0.3295  0.8403 -0.4518
  787MOL0     N 6161  10.605   9.864   6.919  0.0622 -0.3327  0.2986
  787MOL0     N 6162  10.728   9.829   6.917 -0.4199  0.5571  0.8254
  787MOL0     C 6163  10.828   8.756   7.644 -0.0732 -0.1104 -0.0864
  787MOL0     C 6164  10.896   8.635   7.663 -0.0479 -0.6538 -0.1497
  787MOL0     C 6165  10.964   8.174   7.570  0.2347  0.4672 -0.7477
  787MOL0     C 6166  10.905   8.050   7.610 -0.0539 -0.1467 -0.1415
  787MOL0     C 6167  10.967   7.924   7.582  0.4026  0.3210 -0.5996
  787MOL0     C 6168  11.086   7.923   7.514 -0.4313  0.2154  0.4535
  787MOL0     O 6169  11.163   7.813   7.491 -1.2997  0.1264  0.2264
  787MOL0     C 6170  11.203   7.746   7.603  0.4659 -0.1653  0.5127
  787MOL0     C 6171  11.350   7.719   7.624  0.1004  0.0169  0.6653
  787MOL0     C 6172  11.387   7.624   7.495 -0.4359 -0.2688  0.0342
  787MOL0     C 6173  11.495   7.521   7.514 -0.1959 -0.7438 -0.4758
  787MOL0     C 6174  11.629   7.584   7.522  0.3319 -0.2437  0.9302
  787MOL0     C 6175  11.736   7.642   7.525 -0.7554  0.1022  0.0056
  787MOL0     C 6176  11.132   8.040   7.456  0.3683  0.3555 -0.0356
  787MOL0     C 6177  11.076   8.162   7.486 -0.6666  0.7931  0.0139
  787MOL0     H 6178  10.774   8.468   7.386 -1.5604 -0.3222  2.3617
  787MOL0     H 6179  10.656   8.680   7.363 -0.0513 -0.7992  0.4802
  787MOL0     H 6180  10.738   8.923   7.338 -1.6473 -0.3166 -1.2266
  787MOL0     H 6181  10.567   8.903   7.349 -0.9690 -1.0292  1.9488
  787MOL0     H 6182  10.555   9.134   7.360 -0.6224 -2.0145  0.0849
  787MOL0     H 6183  10.621   9.123   7.523 -2.2601 -1.9422  0.1979
  787MOL0     H 6184  10.848   9.147   7.436 -0.2798  1.7741  1.6150
  787MOL0     H 6185  10.795   9.120   7.265  2.0983 -0.5602  1.3736
  787MOL0     H 6186  10.631   9.330   7.297  0.1790  1.0016 -1.0613
  787MOL0     H 6187  10.733   9.370   7.435 -0.4472  0.4503 -0.6700
  787MOL0     H 6188  10.936   9.358   7.256  0.8347 -0.1795 -1.4743
  787MOL0     H 6189  10.801   9.332   7.142 -0.8747  0.1981  0.6759
  787MOL0     H 6190  10.693   9.540   7.205 -0.5451  0.1271  1.1198
  787MOL0     H 6191  10.824   9.590   7.319  1.7106 -2.3671  0.4469
  787MOL0     H 6192  10.987   9.551   7.119 -0.2152 -0.5148 -2.6283
  787MOL0     H 6193  10.851   9.534   7.025 -1.9310  0.7484  0.5123
  787MOL0     H 6194  10.961   9.765   7.006  1.5758  3.4214  1.9263
  787MOL0     H 6195  10.923   9.781   7.169  2.7280 -2.7516  0.0729
  787MOL0     H 6196  10.648   9.768   7.228 -1.0881  1.7206  0.8955
  787MOL0     H 6197  10.420   9.840   7.211  0.3824  0.4827  0.1136
  787MOL0     H 6198  10.386   9.968   7.096 -1.0237  0.0928  1.0178
  787MOL0     H 6199  10.265   9.703   7.125 -0.8994 -0.6912 -0.3230
  787MOL0     H 6200  10.349   9.694   6.971 -0.1257 -1.8156  0.8538
  787MOL0     H 6201  10.160   9.925   7.044  0.2671  1.0741 -1.4357
  787MOL0     H 6202  10.097   9.772   6.985  0.8412 -1.1822  1.1782
  787MOL0     H 6203  10.257   9.824   6.777  2.9323 -1.3203  4.8791
  787MOL0     H 6204  10.283   9.973   6.864  1.2746 -0.9091  0.4555
  787MOL0     H 6205   9.851  10.037   6.703 -1.4122  3.0924  0.0369
  787MOL0     H 6206   9.710  10.175   6.571 -1.4043  0.0863 -2.4528
  787MOL0     H 6207   9.795  10.288   6.465 -0.1670  0.3324  1.0773
  787MOL0     H 6208   9.747  10.133   6.408 -2.6994  2.3181 -0.0553
  787MOL0     H 6209   9.896  10.520   6.120  0.2863 -0.7497  0.2969
  787MOL0     H 6210   9.838  10.549   5.895  1.8263  0.3844  0.7180
  787MOL0     H 6211   9.743  10.168   5.650 -1.8651  0.5959 -1.8498
  787MOL0     H 6212   9.612  10.247   5.724  1.0660  0.2416  0.3338
  787MOL0     H 6213   9.591  10.403   5.531 -1.9813 -0.4399 -1.1751
  787MOL0     H 6214   9.731  10.318   5.463 -1.7605 -1.7347 -1.3559
  787MOL0     H 6215   9.605  10.090   5.479  0.4691 -0.2632 -2.2404
  787MOL0     H 6216   9.558  10.213   5.361  0.5889 -1.1465  0.2787
  787MOL0     H 6217   9.363  10.109   5.438 -0.1948  0.3177 -0.9629
  787MOL0     H 6218   9.412  10.099   5.604 -1.7666 -0.8810 -1.3464
  787MOL0     H 6219   9.379  10.358   5.630  0.0915  1.2813 -1.3323
  787MOL0     H 6220   9.243  10.254   5.615 -0.6613 -0.4410 -2.2590
  787MOL0     H 6221   9.349  10.400   5.384 -0.1517 -1.3366 -2.6844
  787MOL0     H 6222   9.214  10.298   5.377  3.3412 -1.0129 -1.0805
  787MOL0     H 6223   9.239  10.527   5.555  1.4294 -1.1139 -0.0050
  787MOL0     H 6224   9.079  10.448   5.530 -0.1462 -4.2284 -1.8568
  787MOL0     H 6225   9.227  10.636   5.348 -0.3088  0.4776  1.2502
  787MOL0     H 6226   9.055  10.630   5.403  0.8080  0.2541  4.3793
  787MOL0     H 6227   9.863  10.135   5.817 -3.3262  2.2033 -1.9259
  787MOL0     H 6228   9.904  10.088   6.060  4.8973  0.9726  1.1427
  787MOL0     H 6229  10.248  10.087   6.413  1.1632 -2.0254  2.1151
  787MOL0     H 6230  10.274   9.993   6.637  0.0745  0.9262 -1.4165
  787MOL0     H 6231  10.849   8.847   7.699  0.5994  2.2281 -3.8645
  787MOL0     H 6232  10.944   8.628   7.760 -0.1777 -2.2544 -0.1739
  787MOL0     H 6233  10.810   8.048   7.664  0.6683 -0.7088  1.1565
  787MOL0     H 6234  10.926   7.829   7.614 -0.1952  0.0596 -2.0892
  787MOL0     H 6235  11.181   7.796   7.698 -0.0821 -3.5608  2.3441
  787MOL0     H 6236  11.143   7.655   7.611 -2.0008  1.2792 -0.4040
  787MOL0     H 6237  11.355   7.654   7.712  1.5366 -1.7539 -0.6518
  787MOL0     H 6238  11.414   7.807   7.639 -0.6589  0.3627  2.0837
  787MOL0     H 6239  11.420   7.687   7.412  1.0060 -2.4432 -1.1433
  787MOL0     H 6240  11.302   7.567   7.457  0.7594 -1.3011 -1.1706
  787MOL0     H 6241  11.485   7.461   7.423 -0.8680 -1.0243 -0.2189
  787MOL0     H 6242  11.496   7.450   7.598  1.6543 -0.8271 -0.5061
  787MOL0     H 6243  11.833   7.686   7.532 -1.5109  1.7666  0.5045
  787MOL0     H 6244  11.226   8.038   7.402  1.6737 -1.4528  2.1174
  787MOL0     H 6245  11.128   8.254   7.460  0.6973  0.8172  2.5603
  788MOL0     O 6246   8.569   9.544   9.720  0.5495  0.5031  0.0497
  788MOL0     C 6247   8.457   9.571   9.676  0.7390  0.0821 -0.2963
  788MOL0     O 6248   8.374   9.487   9.598 -0.1341 -0.4627 -0.2099
  788MOL0     C 6249   8.399   9.349   9.592 -0.2728  0.1336 -0.3907
  788MOL0     C 6250   8.361   9.276   9.483  0.4955 -0.0467  0.4272
  788MOL0     C 6251   8.383   9.136   9.474 -0.2683 -0.6205  1.1487
  788MOL0     C 6252   8.443   9.062   9.577 -0.1798 -0.3162  0.2022
  788MOL0     O 6253   8.475   8.931   9.547 -0.3036 -0.4877  0.0453
  788MOL0     C 6254   8.506   8.840   9.646  0.0393  0.3361  0.0523
  788MOL0     C 6255   8.477   8.697   9.593  0.0167 -0.3149  0.0024
  788MOL0     C 6256   8.337   8.672   9.547  0.9500 -0.1523 -0.2483
  788MOL0     C 6257   8.240   8.727   9.657 -0.8284  0.5792 -0.0724
  788MOL0     C 6258   8.092   8.696   9.633  0.2475  0.1232  1.1985
  788MOL0     C 6259   8.002   8.734   9.744  0.2923 -0.8248  0.2463
  788MOL0     C 6260   7.967   8.887   9.728  0.4483  0.6992 -0.6464
  788MOL0     C 6261   7.831   8.934   9.775  0.1093 -0.7810 -0.4046
  788MOL0     N 6262   7.839   8.968   9.919 -0.5328  0.1847  0.6653
  788MOL0     C 6263   7.844   8.878  10.027  0.9777 -0.1973 -0.1007
  788MOL0     C 6264   7.851   8.952  10.137 -0.3018 -0.7546  0.4082
  788MOL0     C 6265   7.872   8.898  10.273 -0.7534 -0.3252 -0.2030
  788MOL0     C 6266   7.741   8.919  10.360 -0.4322  0.2136  0.0487
  788MOL0     C 6267   7.748   8.838  10.497 -0.0715 -0.7367 -0.3291
  788MOL0     C 6268   7.606   8.823  10.560  0.0314 -0.7422  0.5767
  788MOL0     O 6269   7.611   8.721  10.665 -0.1568 -0.0267  0.3024
  788MOL0     C 6270   7.491   8.654  10.695 -0.2811 -0.3123  0.0338
  788MOL0     C 6271   7.506   8.527  10.731  1.2873  0.0244  0.7122
  788MOL0     C 6272   7.407   8.446  10.793 -0.0088 -0.0859 -0.8923
  788MOL0     C 6273   7.448   8.310  10.837  0.0635 -0.0967  1.1042
  788MOL0     C 6274   7.283   8.515  10.812  0.2947 -0.5141 -0.2401
  788MOL0     C 6275   7.165   8.439  10.856  0.3580 -0.6512  0.5136
  788MOL0     O 6276   7.068   8.517  10.922 -0.6735 -0.4911 -0.6240
  788MOL0     C 6277   6.954   8.456  10.967  0.1494 -0.3693 -0.0483
  788MOL0     C 6278   6.964   8.341  11.049  0.3615  0.8523  0.2777
  788MOL0     C 6279   6.853   8.261  11.081  0.1859  0.1226 -0.4224
  788MOL0     C 6280   6.730   8.311  11.050  0.3879 -0.0390 -0.0842
  788MOL0     O 6281   6.610   8.253  11.073  0.1022  0.0499 -0.1257
  788MOL0     C 6282   6.617   8.122  11.149  0.3937 -0.5801  0.4917
  788MOL0     C 6283   6.489   8.051  11.125  0.0760  1.4114  0.4266
  788MOL0     C 6284   6.480   8.011  10.973 -0.2697 -0.4654 -1.5216
  788MOL0     C 6285   6.576   7.904  10.942 -0.0530 -0.0972 -0.2525
  788MOL0     C 6286   6.570   7.866  10.794  0.4190  0.4315  0.0168
  788MOL0     C 6287   6.688   7.767  10.749 -0.2875  0.1218  1.6529
  788MOL0     C 6288   6.693   7.735  10.604 -0.8631  0.8870 -0.4524
  788MOL0     C 6289   6.831   7.696  10.561  1.3535 -0.4012  0.6519
  788MOL0    Cl 6290   6.873   7.544  10.653 -0.4275 -0.1031  0.0982
  788MOL0     C 6291   6.715   8.427  10.977 -0.8513 -0.1725 -0.1835
  788MOL0     C 6292   6.824   8.504  10.933  0.2349  0.0203  0.0768
  788MOL0     O 6293   7.148   8.322  10.817  0.0371  0.6188  0.6049
  788MOL0     C 6294   7.261   8.646  10.772  0.5933  0.4271 -0.3465
  788MOL0     C 6295   7.361   8.711  10.713 -0.0914  0.6484  0.7080
  788MOL0     N 6296   7.864   9.086  10.093  0.0328  0.0968  0.0813
  788MOL0     N 6297   7.855   9.098   9.968  0.6820 -0.1576  0.6137
  788MOL0     C 6298   8.488   9.135   9.681 -0.4371 -0.9419 -0.1162
  788MOL0     C 6299   8.455   9.276   9.696 -0.2526 -0.0900 -0.7553
  788MOL0     C 6300   8.401   9.703   9.710  0.7055  0.6192  0.6957
  788MOL0     C 6301   8.284   9.757   9.649  0.8202  0.5269  0.2344
  788MOL0     C 6302   8.228   9.873   9.709  0.3600  0.4154 -0.1455
  788MOL0     C 6303   8.293   9.949   9.804  0.2805  0.7970 -0.0369
  788MOL0     O 6304   8.248  10.074   9.854 -0.1191 -0.0223 -0.1607
  788MOL0     C 6305   8.188  10.171   9.761 -0.2566 -0.5200  1.0913
  788MOL0     C 6306   8.283  10.200   9.646  0.6006 -0.8765  0.3586
  788MOL0     C 6307   8.264  10.333   9.569 -0.0038  0.6364  0.0561
  788MOL0     C 6308   8.126  10.359   9.512 -0.2611 -0.1574 -0.1217
  788MOL0     C 6309   8.099  10.503   9.479  1.0648  0.1449 -0.1709
  788MOL0     C 6310   8.077  10.624   9.484  0.2627 -0.3189 -0.1969
  788MOL0     C 6311   8.411   9.899   9.860  0.0060 -0.6966 -0.4014
  788MOL0     C 6312   8.459   9.789   9.813 -0.0674  0.5490 -0.3340
  788MOL0     H 6313   8.304   9.329   9.407 -1.8262 -2.9645 -0.0762
  788MOL0     H 6314   8.343   9.103   9.379  1.9302  1.0845 -0.4845
  788MOL0     H 6315   8.612   8.857   9.663  1.0977 -3.5763 -1.5684
  788MOL0     H 6316   8.443   8.863   9.732 -0.1523 -1.7169  0.5050
  788MOL0     H 6317   8.547   8.673   9.512 -2.2144 -3.4041 -1.2082
  788MOL0     H 6318   8.487   8.623   9.673 -0.1663 -0.2359  0.0988
  788MOL0     H 6319   8.307   8.717   9.452 -0.0517 -2.3651 -1.0512
  788MOL0     H 6320   8.331   8.564   9.531 -1.2515 -0.0092 -0.7323
  788MOL0     H 6321   8.259   8.686   9.757 -2.6625 -0.1772  0.0071
  788MOL0     H 6322   8.251   8.835   9.670  2.6063  0.2066  1.1502
  788MOL0     H 6323   8.064   8.745   9.539  1.7122 -2.4843 -0.7079
  788MOL0     H 6324   8.087   8.591   9.602 -3.3503  0.7609 -0.9974
  788MOL0     H 6325   7.916   8.670   9.722 -0.1781  0.7041 -3.0908
  788MOL0     H 6326   8.030   8.710   9.846 -4.1309  0.8961  2.1383
  788MOL0     H 6327   8.052   8.940   9.772  0.1775  1.6675 -1.2559
  788MOL0     H 6328   7.951   8.904   9.622 -0.8920 -1.7793 -0.9212
  788MOL0     H 6329   7.759   8.857   9.746 -0.9451  0.2697 -0.6408
  788MOL0     H 6330   7.806   9.032   9.733  3.5666  0.6023  0.4244
  788MOL0     H 6331   7.849   8.770  10.032  0.3339 -0.3612 -2.1589
  788MOL0     H 6332   7.890   8.791  10.259  1.0450 -0.0293 -0.3230
  788MOL0     H 6333   7.962   8.935  10.323 -1.1598  0.1750  0.1706
  788MOL0     H 6334   7.664   8.887  10.289  2.5190 -3.2778 -1.9846
  788MOL0     H 6335   7.730   9.023  10.390  2.9109  0.6799  0.0227
  788MOL0     H 6336   7.825   8.890  10.555  1.0369 -1.0754 -1.4465
  788MOL0     H 6337   7.798   8.744  10.471  1.8295  0.0690  0.2280
  788MOL0     H 6338   7.527   8.789  10.492 -0.9417  1.3926  0.5752
  788MOL0     H 6339   7.566   8.915  10.604 -0.7354 -0.9401  0.3118
  788MOL0     H 6340   7.605   8.490  10.703  1.4164  0.4679  0.5799
  788MOL0     H 6341   7.489   8.321  10.938 -0.4984  0.8020  1.2579
  788MOL0     H 6342   7.371   8.233  10.826  2.8346 -2.8461 -0.3488
  788MOL0     H 6343   7.527   8.289  10.765 -0.6853  1.0820 -0.1209
  788MOL0     H 6344   7.059   8.293  11.073  0.5812 -0.1939 -2.3185
  788MOL0     H 6345   6.870   8.174  11.144 -0.1015  0.4774  0.1543
  788MOL0     H 6346   6.698   8.067  11.102  0.4910 -1.5169  1.7095
  788MOL0     H 6347   6.638   8.144  11.254 -0.9629 -0.2232  0.7099
  788MOL0     H 6348   6.482   7.962  11.188  2.7526  0.5726 -0.3164
  788MOL0     H 6349   6.407   8.120  11.148 -1.2942 -0.0414  0.0463
  788MOL0     H 6350   6.494   8.098  10.908  2.4320  0.4091  0.0740
  788MOL0     H 6351   6.380   7.967  10.967 -0.2684 -2.3821  4.6976
  788MOL0     H 6352   6.680   7.934  10.958 -0.6934  2.8748 -0.9617
  788MOL0     H 6353   6.561   7.819  11.009  1.0181  1.2670  1.8296
  788MOL0     H 6354   6.574   7.943  10.716  2.3968 -2.1760 -2.7134
  788MOL0     H 6355   6.478   7.808  10.783  1.7006 -3.4370  5.4887
  788MOL0     H 6356   6.788   7.807  10.769  1.6153  0.7978 -5.9351
  788MOL0     H 6357   6.672   7.670  10.797  1.8089 -0.7957  0.6574
  788MOL0     H 6358   6.680   7.830  10.551 -0.8475  0.5417 -1.0907
  788MOL0     H 6359   6.625   7.656  10.572 -0.7063  0.6286 -0.1513
  788MOL0     H 6360   6.898   7.774  10.598  1.4158  1.6373 -3.2310
  788MOL0     H 6361   6.832   7.680  10.453 -0.4509  0.7721  0.4150
  788MOL0     H 6362   6.613   8.451  10.949 -0.2700  0.1767 -2.2032
  788MOL0     H 6363   6.816   8.582  10.858 -1.5906  0.6473  0.8889
  788MOL0     H 6364   7.159   8.682  10.777 -2.1380 -5.4489 -3.4670
  788MOL0     H 6365   7.353   8.812  10.675  0.3464  0.8138  1.0478
  788MOL0     H 6366   8.541   9.087   9.763 -0.1053  1.6811  1.3035
  788MOL0     H 6367   8.491   9.322   9.788  2.4876 -1.7366 -0.8808
  788MOL0     H 6368   8.233   9.700   9.572  2.4937  1.3937 -1.5919
  788MOL0     H 6369   8.131   9.898   9.667  0.7283  2.9103  0.3806
  788MOL0     H 6370   8.096  10.125   9.724  0.4068 -1.5108  0.6348
  788MOL0     H 6371   8.164  10.267   9.809 -1.3773 -0.9806  1.4749
  788MOL0     H 6372   8.259  10.118   9.578  1.7088 -2.3152  1.6438
  788MOL0     H 6373   8.386  10.208   9.685  1.4188  0.0668 -1.8398
  788MOL0     H 6374   8.342  10.348   9.494  0.3241  1.2960  0.5226
  788MOL0     H 6375   8.287  10.400   9.652  1.4426  1.2182 -0.7922
  788MOL0     H 6376   8.052  10.329   9.586 -0.5396  1.1970  0.1782
  788MOL0     H 6377   8.120  10.299   9.421  1.4715  2.5922 -2.2234
  788MOL0     H 6378   8.052  10.726   9.502  0.0702 -0.1483 -1.3908
  788MOL0     H 6379   8.454   9.950   9.945 -3.1481  4.5846 -1.4381
  788MOL0     H 6380   8.544   9.749   9.867  0.2530 -2.4913 -2.8068
  789MOL0     O 6381   9.975   2.971  11.309  0.1302 -0.4560  0.4263
  789MOL0     C 6382  10.000   2.934  11.427 -0.3570 -0.0242  0.1367
  789MOL0     O 6383  10.109   2.881  11.484 -0.1569 -0.8157  0.1689
  789MOL0     C 6384  10.215   2.859  11.402  0.5061  0.1297 -0.2800
  789MOL0     C 6385  10.298   2.972  11.356 -0.3917 -0.6933 -0.0380
  789MOL0     C 6386  10.422   2.944  11.278  0.8142 -0.1384 -0.1041
  789MOL0     C 6387  10.456   2.812  11.242  0.0550 -0.6283  0.2549
  789MOL0     O 6388  10.580   2.786  11.194  0.0628 -0.3534  0.4779
  789MOL0     C 6389  10.631   2.881  11.099  0.8803  0.0428 -0.1391
  789MOL0     C 6390  10.763   2.814  11.068 -0.3770  0.0998  0.6457
  789MOL0     C 6391  10.848   2.868  10.953  0.3591  0.0893  0.2683
  789MOL0     C 6392  11.002   2.835  10.974 -0.1238 -0.0308  0.1397
  789MOL0     C 6393  11.080   2.891  10.845  0.3707 -0.5863  0.2561
  789MOL0     C 6394  11.216   2.833  10.833 -0.3057  0.3231  0.9028
  789MOL0     C 6395  11.286   2.897  10.708  0.8285  0.0501  0.7062
  789MOL0     C 6396  11.238   2.845  10.572  0.2575 -0.0878 -0.9080
  789MOL0     N 6397  11.289   2.705  10.554 -0.0197 -0.4043  0.2673
  789MOL0     C 6398  11.418   2.667  10.529 -0.9981  0.1046  0.2490
  789MOL0     C 6399  11.413   2.532  10.525 -0.0484  0.4508 -0.2972
  789MOL0     C 6400  11.521   2.429  10.534 -0.8546  0.3071 -0.0286
  789MOL0     C 6401  11.623   2.448  10.411  0.2750 -0.3725 -0.1218
  789MOL0     C 6402  11.736   2.345  10.410 -0.3263 -0.1647  0.0327
  789MOL0     C 6403  11.854   2.382  10.322  0.0747 -0.0264 -0.3343
  789MOL0     O 6404  11.820   2.395  10.179  0.3878  0.3761 -0.3117
  789MOL0     C 6405  11.874   2.504  10.114 -0.5768  0.8732 -0.2136
  789MOL0     C 6406  11.800   2.554  10.004  0.5598  0.1856 -0.6390
  789MOL0     C 6407  11.849   2.659   9.928 -0.8228 -0.0512 -1.0571
  789MOL0     C 6408  11.762   2.704   9.820  0.1872  0.1804  0.4463
  789MOL0     C 6409  11.981   2.704   9.956  0.4648 -0.7680 -0.6376
  789MOL0     C 6410  12.053   2.815   9.868 -0.1588 -0.7896 -0.3563
  789MOL0     O 6411  12.184   2.836   9.919 -0.0475 -0.4632 -0.5429
  789MOL0     C 6412  12.270   2.897   9.833  0.3022 -0.3158  0.0356
  789MOL0     C 6413  12.390   2.827   9.804  1.1527  0.7798  0.2504
  789MOL0     C 6414  12.475   2.882   9.714  0.7243  0.7349  0.3887
  789MOL0     C 6415  12.450   3.001   9.643  0.3526  0.1460  0.8872
  789MOL0     O 6416  12.526   3.043   9.541 -0.8443  1.0554 -0.0314
  789MOL0     C 6417  12.503   3.169   9.467 -0.1069 -0.2289 -0.3900
  789MOL0     C 6418  12.622   3.207   9.380 -0.5456 -0.5835  0.4572
  789MOL0     C 6419  12.615   3.131   9.244  1.2340  0.3913  0.1519
  789MOL0     C 6420  12.717   3.170   9.145 -0.3880  0.1639 -0.6431
  789MOL0     C 6421  12.686   3.123   9.000  0.7331  0.3763 -0.1637
  789MOL0     C 6422  12.758   3.196   8.895 -0.0992  0.3412  1.0162
  789MOL0     C 6423  12.737   3.123   8.758 -0.1558 -0.3587  0.6920
  789MOL0     C 6424  12.806   3.198   8.640  0.1861  0.5129  0.0539
  789MOL0    Cl 6425  12.751   3.364   8.635  0.1497 -0.6122  0.3896
  789MOL0     C 6426  12.340   3.081   9.676  0.4716 -0.8130  0.5173
  789MOL0     C 6427  12.247   3.028   9.771 -0.1698  0.7601  0.9131
  789MOL0     O 6428  12.008   2.855   9.760  0.6535 -0.2127  0.3571
  789MOL0     C 6429  12.051   2.636  10.063 -0.6357 -1.1429 -0.5031
  789MOL0     C 6430  12.006   2.541  10.145  0.6620  1.2481  0.9973
  789MOL0     N 6431  11.283   2.495  10.536 -0.5797  0.9328 -0.0125
  789MOL0     N 6432  11.215   2.597  10.554 -0.0229 -0.4032 -0.5536
  789MOL0     C 6433  10.380   2.704  11.289  0.2458 -0.5008 -0.4479
  789MOL0     C 6434  10.263   2.730  11.364  0.9046  0.3627 -1.0917
  789MOL0     C 6435   9.893   2.967  11.523  0.5093  0.3358  0.1917
  789MOL0     C 6436   9.779   3.048  11.480 -0.5290 -0.1073 -1.0371
  789MOL0     C 6437   9.681   3.076  11.573  0.6346  1.7871 -0.1288
  789MOL0     C 6438   9.681   3.011  11.704 -1.0103  0.1897 -1.0660
  789MOL0     O 6439   9.580   3.039  11.792  0.0264  0.4112  0.2939
  789MOL0     C 6440   9.492   3.145  11.754 -0.5420  1.0140  0.3048
  789MOL0     C 6441   9.389   3.168  11.857  0.1030 -0.2099  0.3303
  789MOL0     C 6442   9.267   3.252  11.818 -0.2907  0.6625 -0.4920
  789MOL0     C 6443   9.304   3.392  11.791  1.4152 -0.0146 -0.2375
  789MOL0     C 6444   9.351   3.456  11.913 -0.6295  0.2095  0.1470
  789MOL0     C 6445   9.392   3.522  11.999 -0.0505 -0.1275  0.6937
  789MOL0     C 6446   9.796   2.946  11.742  1.1307  0.5691 -0.2137
  789MOL0     C 6447   9.903   2.924  11.653 -0.5185 -1.1779 -0.3665
  789MOL0     H 6448  10.284   3.074  11.389 -1.9356 -0.7288 -0.5240
  789MOL0     H 6449  10.481   3.030  11.246  0.0450  0.7132  0.7048
  789MOL0     H 6450  10.575   2.897  11.006 -0.4386 -1.4237  0.3494
  789MOL0     H 6451  10.652   2.982  11.136  2.0632  1.1191 -3.4043
  789MOL0     H 6452  10.831   2.829  11.152  0.5142  0.7689 -0.1719
  789MOL0     H 6453  10.736   2.708  11.058  2.5455 -0.5779 -1.3727
  789MOL0     H 6454  10.818   2.829  10.856 -0.9535 -1.7345  1.3355
  789MOL0     H 6455  10.836   2.976  10.952 -4.6156 -0.2563 -0.4537
  789MOL0     H 6456  11.037   2.883  11.066  2.5719  0.4859 -1.0804
  789MOL0     H 6457  11.015   2.727  10.984 -2.0313 -0.4110 -0.9966
  789MOL0     H 6458  11.025   2.858  10.757 -1.9569 -2.8372  2.3725
  789MOL0     H 6459  11.072   3.000  10.844 -1.7928 -0.6878  1.1993
  789MOL0     H 6460  11.274   2.875  10.916  0.6718 -0.4060  0.6118
  789MOL0     H 6461  11.210   2.723  10.829 -0.5127  0.3613 -0.2446
  789MOL0     H 6462  11.271   3.005  10.702 -2.3074 -0.3595 -0.7784
  789MOL0     H 6463  11.393   2.875  10.717  0.7238 -0.1215  1.6842
  789MOL0     H 6464  11.281   2.903  10.490  0.9806 -1.1014 -1.2702
  789MOL0     H 6465  11.129   2.844  10.573  0.2309 -2.0308  0.4690
  789MOL0     H 6466  11.508   2.725  10.511  0.4604 -2.4806 -1.3553
  789MOL0     H 6467  11.579   2.445  10.625 -1.1028 -0.1873  0.2188
  789MOL0     H 6468  11.486   2.326  10.533 -0.6428  0.2272 -1.7954
  789MOL0     H 6469  11.680   2.540  10.425  1.3849 -1.2242  1.2474
  789MOL0     H 6470  11.575   2.454  10.313  0.8389 -0.5369 -0.4089
  789MOL0     H 6471  11.698   2.247  10.382 -0.9514 -0.5019  1.9589
  789MOL0     H 6472  11.770   2.340  10.514  1.0087  0.1340 -0.3621
  789MOL0     H 6473  11.930   2.305  10.337  1.0830  1.4294  3.0111
  789MOL0     H 6474  11.899   2.469  10.370  2.0030 -1.9021  1.5211
  789MOL0     H 6475  11.700   2.516   9.990  0.1084  1.5610 -1.3815
  789MOL0     H 6476  11.723   2.802   9.847  0.2287  0.1342  0.6687
  789MOL0     H 6477  11.824   2.700   9.729 -1.5516 -2.5257 -0.7514
  789MOL0     H 6478  11.679   2.633   9.809  1.0949 -1.1282  1.6890
  789MOL0     H 6479  12.390   2.723   9.835 -3.9461  0.6949  0.7547
  789MOL0     H 6480  12.558   2.818   9.684 -0.3068  0.2785 -1.7327
  789MOL0     H 6481  12.408   3.172   9.414 -0.5238  3.8232  0.2010
  789MOL0     H 6482  12.499   3.248   9.543  0.1388 -1.9406  1.4747
  789MOL0     H 6483  12.629   3.315   9.363  0.7409 -0.7218 -0.0212
  789MOL0     H 6484  12.704   3.166   9.440 -0.7208 -1.1310  0.3245
  789MOL0     H 6485  12.515   3.148   9.203 -0.4158 -2.4002  2.5207
  789MOL0     H 6486  12.619   3.022   9.259  1.3621  0.3871  0.0906
  789MOL0     H 6487  12.745   3.276   9.145  3.4478 -0.7044 -1.6375
  789MOL0     H 6488  12.809   3.121   9.176 -1.2013  0.2568  2.2074
  789MOL0     H 6489  12.581   3.139   8.974  0.6405  1.1166  0.6032
  789MOL0     H 6490  12.720   3.020   8.986 -0.8019 -1.2830  5.5723
  789MOL0     H 6491  12.709   3.292   8.875 -0.2499 -0.4449 -3.2873
  789MOL0     H 6492  12.865   3.207   8.915 -0.0732  0.2625  0.9215
  789MOL0     H 6493  12.628   3.121   8.746  0.0884 -0.9318 -1.9362
  789MOL0     H 6494  12.776   3.021   8.758  0.6926 -0.0696 -1.1267
  789MOL0     H 6495  12.783   3.136   8.553 -1.1194  0.9639  0.0584
  789MOL0     H 6496  12.914   3.198   8.659 -0.0416 -0.4463  1.5517
  789MOL0     H 6497  12.314   3.170   9.619  3.3083  2.1104  3.3573
  789MOL0     H 6498  12.153   3.077   9.794  0.4487  1.9804  0.9351
  789MOL0     H 6499  12.159   2.648  10.069 -0.8847  1.0427  0.3244
  789MOL0     H 6500  12.058   2.492  10.226  0.8262  0.1932  0.2663
  789MOL0     H 6501  10.405   2.601  11.266  1.2823 -0.1289 -1.0681
  789MOL0     H 6502  10.191   2.655  11.395  0.7582  1.2740  0.9413
  789MOL0     H 6503   9.790   3.105  11.388  3.7182 -1.5388 -1.6462
  789MOL0     H 6504   9.607   3.137  11.523 -2.5433 -0.8277  1.0556
  789MOL0     H 6505   9.557   3.232  11.739  1.0667 -0.0975  0.5512
  789MOL0     H 6506   9.437   3.129  11.661  0.5625 -0.0654 -0.1884
  789MOL0     H 6507   9.433   3.203  11.951  0.8329 -2.0453  0.7231
  789MOL0     H 6508   9.356   3.065  11.873  2.6896 -0.7732  2.9003
  789MOL0     H 6509   9.195   3.254  11.901  3.1247 -1.0539  2.7923
  789MOL0     H 6510   9.231   3.213  11.722  4.3995 -3.9515 -0.7782
  789MOL0     H 6511   9.207   3.436  11.767  2.0063  0.1687 -2.5145
  789MOL0     H 6512   9.378   3.401  11.710  1.2850 -1.2849 -0.5254
  789MOL0     H 6513   9.427   3.574  12.085 -0.2820 -2.2053  2.1308
  789MOL0     H 6514   9.788   2.936  11.850 -0.7608  2.8639 -0.0493
  789MOL0     H 6515   9.988   2.868  11.690 -1.3695 -1.7383  0.8127
  790MOL0     O 6516  10.260  10.455   5.524  0.6896 -0.3951  0.2155
  790MOL0     C 6517  10.201  10.407   5.615  0.3106  0.6655  0.3526
  790MOL0     O 6518  10.093  10.313   5.606 -0.3416 -1.0252 -0.1258
  790MOL0     C 6519  10.056  10.276   5.477  0.7356 -0.3621  1.1199
  790MOL0     C 6520  10.063  10.351   5.349 -0.4496  0.7279  0.3891
  790MOL0     C 6521  10.012  10.295   5.228  0.4140  0.2439 -0.7381
  790MOL0     C 6522   9.944  10.168   5.237  0.6168 -0.5088 -0.3313
  790MOL0     O 6523   9.860  10.120   5.137  0.0906  0.7791 -0.4650
  790MOL0     C 6524   9.825  10.223   5.035  0.3504  0.2271 -0.4402
  790MOL0     C 6525   9.720  10.169   4.935 -0.6643 -0.5195 -0.9989
  790MOL0     C 6526   9.642  10.288   4.881 -0.2664  0.0593  0.0623
  790MOL0     C 6527   9.618  10.277   4.723 -0.0280 -0.0031 -0.5476
  790MOL0     C 6528   9.467  10.309   4.691  0.2670  0.2864  0.7373
  790MOL0     C 6529   9.379  10.193   4.738 -0.9583 -0.9045  0.0134
  790MOL0     C 6530   9.231  10.216   4.702  0.3267  0.3749 -0.0223
  790MOL0     C 6531   9.218  10.152   4.559 -0.2453  0.4148 -0.6151
  790MOL0     N 6532   9.092  10.169   4.490  0.7896 -0.2490 -0.3817
  790MOL0     C 6533   9.064  10.270   4.393 -0.0444 -0.4741 -0.2635
  790MOL0     C 6534   8.946  10.228   4.345  0.2533  0.7137  0.5473
  790MOL0     C 6535   8.849  10.307   4.265  0.0950  0.0414 -0.5943
  790MOL0     C 6536   8.814  10.253   4.125 -0.2608 -0.2187 -0.7004
  790MOL0     C 6537   8.701  10.150   4.123  0.5355  0.2831 -0.1517
  790MOL0     C 6538   8.670  10.116   3.980 -0.0413 -0.5917  0.2769
  790MOL0     O 6539   8.553  10.032   3.976 -0.6077  0.3407 -0.1242
  790MOL0     C 6540   8.545   9.957   3.857  0.0406  0.3870  0.1349
  790MOL0     C 6541   8.612   9.831   3.848 -0.5298  0.2920  0.0049
  790MOL0     C 6542   8.608   9.751   3.734 -1.0157  0.4979  0.4342
  790MOL0     C 6543   8.671   9.617   3.735  0.0051 -0.2109  0.0863
  790MOL0     C 6544   8.538   9.803   3.619 -0.0903  0.8740 -0.6618
  790MOL0     C 6545   8.548   9.746   3.491 -0.8243 -0.5513 -0.3189
  790MOL0     O 6546   8.434   9.704   3.437  0.3360 -1.2980 -0.1609
  790MOL0     C 6547   8.362   9.617   3.504 -0.9119 -0.5710 -0.6158
  790MOL0     C 6548   8.225   9.635   3.529  0.4886  0.1909  0.5997
  790MOL0     C 6549   8.145   9.537   3.581  0.4273 -0.2616 -0.9204
  790MOL0     C 6550   8.205   9.416   3.609 -0.4180  0.3507  0.1140
  790MOL0     O 6551   8.128   9.301   3.630 -0.6989  0.0057  0.6698
  790MOL0     C 6552   8.044   9.270   3.514 -0.4364 -1.0648  0.0391
  790MOL0     C 6553   7.934   9.179   3.567 -0.3006 -0.3269 -0.4695
  790MOL0     C 6554   7.859   9.105   3.453 -0.5195 -0.0041  0.5388
  790MOL0     C 6555   7.763   9.000   3.513  0.1743  0.1833 -0.0974
  790MOL0     C 6556   7.721   8.903   3.396  0.8475 -0.5390  0.8166
  790MOL0     C 6557   7.671   8.765   3.449 -0.2507 -0.9021 -0.2509
  790MOL0     C 6558   7.772   8.679   3.515 -0.8344  0.0299  0.0385
  790MOL0     C 6559   7.709   8.576   3.615  0.1209 -0.0541  0.4232
  790MOL0    Cl 6560   7.580   8.475   3.542  0.0109  0.0884  0.1656
  790MOL0     C 6561   8.339   9.396   3.577  0.2830  0.7118  0.4064
  790MOL0     C 6562   8.413   9.490   3.520  0.7770 -0.1775 -0.4494
  790MOL0     O 6563   8.659   9.764   3.437 -0.0405  0.1877 -0.5795
  790MOL0     C 6564   8.479   9.934   3.625 -0.3228 -0.3891  0.0248
  790MOL0     C 6565   8.481  10.010   3.746  0.2851  0.1334 -0.2456
  790MOL0     N 6566   8.922  10.095   4.395 -0.1861 -0.3104 -0.1678
  790MOL0     N 6567   9.000  10.067   4.487 -0.5187 -0.0643 -0.4096
  790MOL0     C 6568   9.944  10.090   5.356 -0.7059 -0.3033 -0.2752
  790MOL0     C 6569   9.992  10.152   5.478 -0.2771 -0.1085  0.6506
  790MOL0     C 6570  10.246  10.445   5.752 -1.5002 -0.5262  0.4538
  790MOL0     C 6571  10.330  10.558   5.780  0.4370  0.1055 -0.0367
  790MOL0     C 6572  10.380  10.580   5.916 -0.7000  0.2972  0.2703
  790MOL0     C 6573  10.335  10.498   6.019  0.3838 -0.4373 -0.7723
  790MOL0     O 6574  10.357  10.538   6.151  0.5240  0.2957  0.2841
  790MOL0     C 6575  10.437  10.457   6.235 -0.3925 -0.0988 -0.5145
  790MOL0     C 6576  10.518  10.563   6.318  0.3952 -0.2227  0.2799
  790MOL0     C 6577  10.626  10.644   6.238 -0.1688 -0.0887 -0.3349
  790MOL0     C 6578  10.571  10.769   6.165  0.9207 -1.1641  0.5704
  790MOL0     C 6579  10.528  10.872   6.266  0.5206 -0.0180  0.3378
  790MOL0     C 6580  10.511  10.948   6.352  0.8569 -1.1906 -0.3143
  790MOL0     C 6581  10.237  10.393   5.991 -0.5256  0.1727  0.0623
  790MOL0     C 6582  10.196  10.364   5.863  1.2767 -0.2288 -0.3477
  790MOL0     H 6583  10.100  10.452   5.346 -0.8584  0.9117  1.3159
  790MOL0     H 6584  10.015  10.361   5.142  2.8223  0.1745 -0.7946
  790MOL0     H 6585   9.792  10.309   5.094  1.6547 -1.8306  3.6002
  790MOL0     H 6586   9.912  10.252   4.975  0.1870 -2.7644 -2.3121
  790MOL0     H 6587   9.767  10.102   4.863  0.0561 -0.9136 -0.1831
  790MOL0     H 6588   9.654  10.104   4.993 -0.1883  0.9048  1.3047
  790MOL0     H 6589   9.543  10.292   4.927  0.2420  5.1078  1.2809
  790MOL0     H 6590   9.685  10.387   4.895  0.2172  0.0814 -1.4098
  790MOL0     H 6591   9.690  10.341   4.671 -0.0871  1.9051  1.5699
  790MOL0     H 6592   9.629  10.173   4.691 -3.1182  0.6521 -4.5951
  790MOL0     H 6593   9.435  10.403   4.737 -4.9581 -1.1983  0.7898
  790MOL0     H 6594   9.460  10.322   4.582  0.2791  4.4066  1.0709
  790MOL0     H 6595   9.417  10.102   4.691  0.0180 -0.8476  0.6597
  790MOL0     H 6596   9.391  10.185   4.847  1.4268  1.0930 -0.0144
  790MOL0     H 6597   9.160  10.156   4.759 -0.9308  1.1291 -0.7591
  790MOL0     H 6598   9.216  10.324   4.699 -0.9043  0.5004  4.2011
  790MOL0     H 6599   9.247  10.047   4.561  0.0985  0.5026 -0.7982
  790MOL0     H 6600   9.284  10.193   4.482 -0.7079  0.1834 -1.1355
  790MOL0     H 6601   9.122  10.360   4.375 -0.7987 -0.1596 -1.2046
  790MOL0     H 6602   8.763  10.320   4.331  0.1866 -1.6344 -0.0914
  790MOL0     H 6603   8.886  10.409   4.249 -1.6321  0.9518  0.9287
  790MOL0     H 6604   8.899  10.200   4.080  0.5829  0.5211 -0.0103
  790MOL0     H 6605   8.776  10.336   4.066  0.1167 -2.1630 -3.9097
  790MOL0     H 6606   8.611  10.190   4.171  0.9087 -0.0068  0.8022
  790MOL0     H 6607   8.717  10.055   4.174 -0.4636  0.0994 -0.1529
  790MOL0     H 6608   8.749  10.055   3.934  0.0843  0.0177 -0.3402
  790MOL0     H 6609   8.663  10.210   3.925  2.4282  0.2870  1.3415
  790MOL0     H 6610   8.677   9.785   3.922 -0.4403 -0.8345 -0.7468
  790MOL0     H 6611   8.730   9.606   3.644  0.2049  1.9845 -0.1228
  790MOL0     H 6612   8.737   9.601   3.821 -1.0693 -0.3601  0.9054
  790MOL0     H 6613   8.602   9.534   3.749  1.4976 -1.0041  4.7744
  790MOL0     H 6614   8.168   9.722   3.498  0.1333 -1.0872 -2.8459
  790MOL0     H 6615   8.039   9.543   3.604  1.0324  2.3734  1.7082
  790MOL0     H 6616   7.998   9.358   3.469  1.0575  0.2908  1.0587
  790MOL0     H 6617   8.111   9.220   3.444 -0.8123  0.1197 -1.2199
  790MOL0     H 6618   7.971   9.104   3.638 -1.0471 -0.9789 -0.7577
  790MOL0     H 6619   7.862   9.251   3.607  1.5300  2.5890 -2.0700
  790MOL0     H 6620   7.926   9.053   3.384 -0.8588  0.0541  0.1593
  790MOL0     H 6621   7.811   9.181   3.390 -0.2927 -0.5765 -0.3436
  790MOL0     H 6622   7.798   8.947   3.602  1.7503 -0.0556 -0.8095
  790MOL0     H 6623   7.669   9.049   3.538 -0.5016  0.8676 -3.4363
  790MOL0     H 6624   7.808   8.888   3.331 -0.4566 -1.8622 -0.6932
  790MOL0     H 6625   7.644   8.953   3.337 -1.5361 -3.0343  1.5969
  790MOL0     H 6626   7.593   8.787   3.521 -0.9578 -0.0859 -1.2321
  790MOL0     H 6627   7.642   8.708   3.360  1.9613 -0.6989 -1.1845
  790MOL0     H 6628   7.846   8.738   3.569 -3.3721  3.0701  0.4887
  790MOL0     H 6629   7.818   8.619   3.436 -1.9301  0.1323 -0.7041
  790MOL0     H 6630   7.671   8.643   3.692 -0.4449 -0.1008  0.1939
  790MOL0     H 6631   7.786   8.507   3.650 -0.3912 -1.6457 -1.4077
  790MOL0     H 6632   8.394   9.303   3.581 -1.9817 -0.7492 -0.6739
  790MOL0     H 6633   8.518   9.472   3.499  1.5052  2.5424  0.3189
  790MOL0     H 6634   8.429   9.972   3.536 -0.4903  2.2914  1.1761
  790MOL0     H 6635   8.428  10.103   3.763 -1.6610 -1.3663  2.8037
  790MOL0     H 6636   9.899   9.992   5.358 -0.2207 -0.5221  1.9778
  790MOL0     H 6637   9.991  10.095   5.571  0.0269  0.1560  0.8205
  790MOL0     H 6638  10.365  10.628   5.706  2.1630  0.7604  1.3337
  790MOL0     H 6639  10.450  10.663   5.922  1.9567 -1.6164 -1.7597
  790MOL0     H 6640  10.366  10.396   6.291 -0.6590 -0.2747 -1.0412
  790MOL0     H 6641  10.507  10.396   6.176  1.2045  0.5384  0.6470
  790MOL0     H 6642  10.577  10.515   6.398  2.3982  1.0176 -0.3717
  790MOL0     H 6643  10.450  10.630   6.370  2.8475  2.3983  0.3536
  790MOL0     H 6644  10.673  10.577   6.167 -0.8940 -0.5642 -0.3776
  790MOL0     H 6645  10.716  10.665   6.297  0.0586 -4.0808  1.0190
  790MOL0     H 6646  10.487  10.744   6.100  0.2776 -1.0035  1.3192
  790MOL0     H 6647  10.645  10.820   6.104 -0.8058 -0.2062 -0.8292
  790MOL0     H 6648  10.483  11.031   6.414  1.3421 -0.3774 -1.1572
  790MOL0     H 6649  10.187  10.341   6.072 -0.9830  0.5599  0.0382
  790MOL0     H 6650  10.119  10.288   5.853  1.4244 -0.5996  1.0498
  791MOL0     O 6651   6.847   8.254   1.564 -0.6506 -0.4142  1.2726
  791MOL0     C 6652   6.863   8.301   1.449  0.1655  0.6831 -0.6096
  791MOL0     O 6653   6.981   8.318   1.384 -0.0004 -0.2117  0.6422
  791MOL0     C 6654   7.103   8.259   1.415  0.4153  0.2948 -0.1302
  791MOL0     C 6655   7.224   8.327   1.375  0.0740  0.1728 -0.7777
  791MOL0     C 6656   7.357   8.272   1.410  0.7885  0.3347  0.1190
  791MOL0     C 6657   7.364   8.147   1.469  0.2805 -0.6731  0.7060
  791MOL0     O 6658   7.485   8.078   1.483  0.6083 -0.6524  0.6325
  791MOL0     C 6659   7.588   8.078   1.383  0.9144  0.1685 -0.0343
  791MOL0     C 6660   7.711   7.984   1.405 -0.1905  0.2407  0.1118
  791MOL0     C 6661   7.758   7.998   1.544 -1.0600  0.1095  0.6594
  791MOL0     C 6662   7.814   8.130   1.581  0.5597 -0.5055 -0.5070
  791MOL0     C 6663   7.885   8.150   1.711 -0.7894  0.0581 -0.0338
  791MOL0     C 6664   7.795   8.201   1.816 -0.0837 -0.2889 -0.0471
  791MOL0     C 6665   7.867   8.210   1.953  0.0583  0.5145 -0.5599
  791MOL0     C 6666   7.820   8.325   2.038  0.1432 -0.2006  0.3517
  791MOL0     N 6667   7.686   8.300   2.087 -0.3140  0.8195 -0.5183
  791MOL0     C 6668   7.656   8.242   2.206 -0.6176  1.4234 -0.2778
  791MOL0     C 6669   7.535   8.191   2.196  0.1308  0.3317  0.5847
  791MOL0     C 6670   7.484   8.086   2.295 -0.0301  0.0616 -0.2789
  791MOL0     C 6671   7.536   7.942   2.266 -0.1415 -0.3667 -0.0028
  791MOL0     C 6672   7.437   7.860   2.340 -0.5247 -0.3422 -0.5865
  791MOL0     C 6673   7.474   7.712   2.335 -0.0942 -0.6110 -0.7670
  791MOL0     O 6674   7.612   7.701   2.389  0.4837 -0.9036 -0.3521
  791MOL0     C 6675   7.696   7.602   2.349 -0.9450  0.1310  0.3075
  791MOL0     C 6676   7.646   7.477   2.303 -0.4428  0.1670  0.3476
  791MOL0     C 6677   7.730   7.376   2.264 -0.7641 -0.2919 -0.6900
  791MOL0     C 6678   7.655   7.256   2.214 -0.3217  0.4707 -0.4468
  791MOL0     C 6679   7.874   7.393   2.279  0.1088  0.3272 -1.0175
  791MOL0     C 6680   7.962   7.281   2.233 -0.7610 -0.3004 -0.2331
  791MOL0     O 6681   8.079   7.308   2.166 -0.1759 -0.4933  0.3360
  791MOL0     C 6682   8.185   7.214   2.185  0.0931 -0.5613  1.1722
  791MOL0     C 6683   8.234   7.142   2.084 -0.2716  0.4451 -0.6972
  791MOL0     C 6684   8.343   7.050   2.099  0.6608  0.7909  0.3703
  791MOL0     C 6685   8.398   7.029   2.224  0.3426  0.5049  0.3041
  791MOL0     O 6686   8.504   6.946   2.254  0.2517 -1.2604 -0.0338
  791MOL0     C 6687   8.518   6.827   2.174 -0.7891 -0.5243  0.4466
  791MOL0     C 6688   8.627   6.730   2.223 -0.3266  0.2217  0.0975
  791MOL0     C 6689   8.617   6.590   2.154  0.5746  0.2065  0.5687
  791MOL0     C 6690   8.725   6.563   2.047 -0.0509 -0.6421  0.0201
  791MOL0     C 6691   8.708   6.636   1.925  0.3523 -0.0379  0.2793
  791MOL0     C 6692   8.800   6.576   1.818 -0.2739 -0.8989 -0.4520
  791MOL0     C 6693   8.823   6.687   1.707  0.2789 -0.1226  0.1017
  791MOL0     C 6694   8.869   6.624   1.575 -0.3556  0.7653  0.3499
  791MOL0    Cl 6695   9.044   6.549   1.594 -0.0484  0.3196 -0.4625
  791MOL0     C 6696   8.355   7.112   2.327 -0.0882  0.6823  0.7021
  791MOL0     C 6697   8.250   7.205   2.305 -0.3145 -0.4614 -0.2782
  791MOL0     O 6698   7.935   7.172   2.271 -0.3505  0.0536  0.4261
  791MOL0     C 6699   7.924   7.517   2.317 -0.4808  0.3121 -0.0228
  791MOL0     C 6700   7.838   7.618   2.362  0.2788 -0.4687 -0.1053
  791MOL0     N 6701   7.485   8.229   2.077  0.0661  0.0975  0.0035
  791MOL0     N 6702   7.574   8.292   2.019  0.2793 -0.5813 -0.0507
  791MOL0     C 6703   7.248   8.087   1.514  0.0946  0.6054 -0.5733
  791MOL0     C 6704   7.119   8.135   1.496  1.0550 -0.9953 -0.5269
  791MOL0     C 6705   6.739   8.350   1.377  0.0790 -0.5812  0.2866
  791MOL0     C 6706   6.739   8.408   1.249 -0.9751  0.1361  0.0059
  791MOL0     C 6707   6.630   8.473   1.201  0.9559 -0.1208  1.0215
  791MOL0     C 6708   6.510   8.484   1.275 -0.1307 -0.6888  0.0821
  791MOL0     O 6709   6.398   8.543   1.224 -0.5654 -0.8816  0.5214
  791MOL0     C 6710   6.272   8.566   1.293  0.8104 -0.0970  0.7303
  791MOL0     C 6711   6.167   8.628   1.200  0.1414 -0.8449 -0.1119
  791MOL0     C 6712   6.211   8.762   1.138  0.4556 -0.9655  0.4706
  791MOL0     C 6713   6.259   8.877   1.232  0.3107  0.8246  0.1741
  791MOL0     C 6714   6.397   8.839   1.271 -1.2415 -0.3305 -0.4682
  791MOL0     C 6715   6.514   8.825   1.311 -0.5188 -0.3025 -0.5029
  791MOL0     C 6716   6.509   8.429   1.406  0.0495 -0.6667 -0.3007
  791MOL0     C 6717   6.620   8.359   1.452  0.2594  0.8336  0.5781
  791MOL0     H 6718   7.226   8.423   1.324 -0.9453 -1.0117 -3.2009
  791MOL0     H 6719   7.443   8.330   1.380  1.2486 -0.0321  0.7025
  791MOL0     H 6720   7.541   8.061   1.286 -1.4791 -0.2924  1.1486
  791MOL0     H 6721   7.622   8.182   1.385  0.9260  0.2095 -1.4770
  791MOL0     H 6722   7.695   7.882   1.369  1.6482 -1.0255  2.6174
  791MOL0     H 6723   7.790   8.015   1.336 -0.2538 -0.9546 -0.5214
  791MOL0     H 6724   7.683   7.967   1.617 -0.7772  0.6466  1.1905
  791MOL0     H 6725   7.837   7.924   1.558 -2.5480 -1.5504  0.5691
  791MOL0     H 6726   7.879   8.155   1.497  0.9454 -0.5895 -0.2341
  791MOL0     H 6727   7.731   8.201   1.570  2.3920  1.4464 -2.8176
  791MOL0     H 6728   7.931   8.057   1.746  0.5678  0.9489  0.6232
  791MOL0     H 6729   7.974   8.211   1.695  2.6545 -4.1046  1.5095
  791MOL0     H 6730   7.750   8.297   1.788  1.6792  0.9876  1.1807
  791MOL0     H 6731   7.717   8.128   1.837  1.1475 -1.2575  1.3526
  791MOL0     H 6732   7.843   8.116   2.003  0.4896  1.0139  0.6115
  791MOL0     H 6733   7.974   8.218   1.933  0.7086 -0.2370  2.1823
  791MOL0     H 6734   7.815   8.423   1.991  0.2420 -0.3648 -0.0013
  791MOL0     H 6735   7.896   8.327   2.117  0.2833 -1.4121  0.2708
  791MOL0     H 6736   7.729   8.221   2.284 -0.8423  1.7519  0.0193
  791MOL0     H 6737   7.515   8.121   2.394  1.7467  1.6010 -1.3154
  791MOL0     H 6738   7.376   8.101   2.291  0.0111  0.1591 -1.6856
  791MOL0     H 6739   7.637   7.919   2.301 -1.4491 -0.1297  4.7266
  791MOL0     H 6740   7.517   7.912   2.163 -2.3001 -0.8989  0.4880
  791MOL0     H 6741   7.335   7.870   2.302 -1.3921 -0.8525  1.4715
  791MOL0     H 6742   7.437   7.891   2.445  0.1574 -0.6080 -0.4996
  791MOL0     H 6743   7.482   7.680   2.231  2.3673 -0.6439 -0.6095
  791MOL0     H 6744   7.393   7.648   2.372  0.4422  0.6119  2.9374
  791MOL0     H 6745   7.538   7.468   2.292 -0.6978  2.8804 -0.2723
  791MOL0     H 6746   7.550   7.279   2.193  0.4421  4.2699 -0.8605
  791MOL0     H 6747   7.697   7.201   2.129 -2.4002  0.7523 -1.7418
  791MOL0     H 6748   7.658   7.181   2.294  1.0992  3.9789  3.1285
  791MOL0     H 6749   8.196   7.150   1.982 -1.5998  2.4914 -0.1106
  791MOL0     H 6750   8.373   7.005   2.005  2.5693  1.5928  0.5704
  791MOL0     H 6751   8.418   6.783   2.165  0.1016 -2.6966  0.7305
  791MOL0     H 6752   8.545   6.861   2.074  1.9142  1.2407  1.6507
  791MOL0     H 6753   8.729   6.767   2.208  0.5070 -1.9325  0.0990
  791MOL0     H 6754   8.617   6.706   2.330 -0.2423  0.4201  0.1508
  791MOL0     H 6755   8.518   6.587   2.109  0.8759  2.8907 -0.4558
  791MOL0     H 6756   8.629   6.505   2.222 -1.1033 -0.1187  0.5012
  791MOL0     H 6757   8.826   6.578   2.088 -1.2561 -1.1144  3.5401
  791MOL0     H 6758   8.718   6.457   2.023 -3.0939 -0.4184 -0.5353
  791MOL0     H 6759   8.736   6.739   1.951  1.3832  0.5332 -2.7039
  791MOL0     H 6760   8.603   6.621   1.895  1.0724 -2.7611 -1.2019
  791MOL0     H 6761   8.893   6.531   1.855  0.5886  1.4378  0.3624
  791MOL0     H 6762   8.747   6.494   1.768  1.2863 -2.2747  0.0812
  791MOL0     H 6763   8.903   6.755   1.740 -3.2364  4.5707 -0.0970
  791MOL0     H 6764   8.731   6.740   1.683 -0.9874 -1.4423  1.8141
  791MOL0     H 6765   8.858   6.700   1.497 -2.1044 -2.6460 -3.0822
  791MOL0     H 6766   8.803   6.549   1.529  0.4455  2.0535 -3.2205
  791MOL0     H 6767   8.392   7.104   2.429 -0.6512 -1.3697  0.7797
  791MOL0     H 6768   8.225   7.278   2.382  2.1834  2.4084 -1.9110
  791MOL0     H 6769   8.032   7.530   2.320 -0.7885  3.2792  2.0628
  791MOL0     H 6770   7.872   7.712   2.407  2.5119 -0.8455 -0.9034
  791MOL0     H 6771   7.265   7.987   1.553 -2.4544  1.2529  2.4879
  791MOL0     H 6772   7.027   8.082   1.518  1.4709 -1.0078  1.2667
  791MOL0     H 6773   6.828   8.401   1.187  0.2497  0.2042  1.6860
  791MOL0     H 6774   6.642   8.521   1.105 -0.9603  0.0677  0.8473
  791MOL0     H 6775   6.227   8.471   1.324  1.1351 -1.0290 -1.4261
  791MOL0     H 6776   6.299   8.633   1.375 -2.2459  3.3959 -0.8325
  791MOL0     H 6777   6.081   8.651   1.263 -0.0271  2.2211 -1.3401
  791MOL0     H 6778   6.130   8.561   1.122 -2.0782  0.3827 -0.1883
  791MOL0     H 6779   6.131   8.797   1.073  0.2284  1.3584  1.9026
  791MOL0     H 6780   6.297   8.736   1.075 -0.5472 -2.8979 -0.2053
  791MOL0     H 6781   6.213   8.904   1.328  2.0230 -2.1279  1.9860
  791MOL0     H 6782   6.254   8.973   1.181 -0.8488  0.6314 -0.1244
  791MOL0     H 6783   6.614   8.805   1.343 -2.2280 -2.6486  4.2422
  791MOL0     H 6784   6.419   8.460   1.458 -0.3447 -0.5714 -1.0290
  791MOL0     H 6785   6.613   8.332   1.557 -0.4943  2.7272  1.0463
  792MOL0     O 6786   7.617   3.255   5.973 -0.1475  0.1843 -0.5290
  792MOL0     C 6787   7.578   3.358   5.921 -0.0490 -0.3073  0.4688
  792MOL0     O 6788   7.660   3.446   5.863  0.6934  0.1392  0.5030
  792MOL0     C 6789   7.789   3.447   5.896  0.3462  0.3773  1.0581
  792MOL0     C 6790   7.827   3.442   6.033  1.4093  0.5792  0.3409
  792MOL0     C 6791   7.962   3.467   6.065  0.1412 -0.1713 -0.3788
  792MOL0     C 6792   8.058   3.494   5.966  0.3735 -0.0462  0.2869
  792MOL0     O 6793   8.181   3.539   6.018 -0.3676  0.1378  0.4469
  792MOL0     C 6794   8.275   3.581   5.923 -0.3373 -0.4852  0.2935
  792MOL0     C 6795   8.420   3.571   5.987 -0.6453  0.2320  0.9142
  792MOL0     C 6796   8.536   3.651   5.925  0.1537  0.9545 -0.2139
  792MOL0     C 6797   8.561   3.611   5.785 -0.2719 -0.0433 -0.6248
  792MOL0     C 6798   8.673   3.683   5.716 -0.6376 -0.4902  0.4402
  792MOL0     C 6799   8.805   3.643   5.772 -1.6441  0.1978  0.7339
  792MOL0     C 6800   8.918   3.713   5.707  0.0564 -0.5120  0.0394
  792MOL0     C 6801   9.054   3.691   5.771 -0.6127 -0.7342  0.0877
  792MOL0     N 6802   9.127   3.568   5.736  0.2736  0.8081 -1.1804
  792MOL0     C 6803   9.196   3.548   5.621 -0.3160  0.0188  0.6591
  792MOL0     C 6804   9.245   3.422   5.636 -0.7329 -0.0439 -0.1938
  792MOL0     C 6805   9.315   3.351   5.525 -0.1816 -0.1778  0.5583
  792MOL0     C 6806   9.453   3.295   5.554  0.6612 -0.7641  0.5615
  792MOL0     C 6807   9.562   3.397   5.513  1.0869 -0.5636 -0.4094
  792MOL0     C 6808   9.684   3.318   5.519  0.8022  0.3590  0.8469
  792MOL0     O 6809   9.786   3.414   5.484 -0.3249  1.1172  0.3395
  792MOL0     C 6810   9.923   3.372   5.508 -0.2112 -0.6653  1.4166
  792MOL0     C 6811   9.972   3.243   5.553  0.7263 -0.0700  0.5327
  792MOL0     C 6812  10.108   3.231   5.590  0.4002 -0.9082  0.2035
  792MOL0     C 6813  10.149   3.097   5.651  1.5446 -0.0311  0.1118
  792MOL0     C 6814  10.203   3.329   5.555 -1.0954 -0.6548 -0.1728
  792MOL0     C 6815  10.355   3.325   5.580 -0.0076 -0.2475 -0.4046
  792MOL0     O 6816  10.432   3.422   5.521  0.0716 -0.5877  0.4196
  792MOL0     C 6817  10.555   3.428   5.564  1.0657 -1.1442 -0.1439
  792MOL0     C 6818  10.575   3.492   5.689 -0.5973  0.3013 -0.4225
  792MOL0     C 6819  10.706   3.506   5.738  0.2522  1.0997 -0.3056
  792MOL0     C 6820  10.820   3.452   5.672 -0.5231 -0.2674  1.0479
  792MOL0     O 6821  10.940   3.473   5.721  0.5447 -0.1082 -0.3658
  792MOL0     C 6822  11.027   3.501   5.621  0.2456  0.0587  0.1805
  792MOL0     C 6823  11.153   3.579   5.651 -0.1860  0.6043  1.1240
  792MOL0     C 6824  11.251   3.486   5.726 -0.6019  0.2728  0.2352
  792MOL0     C 6825  11.391   3.543   5.751  1.2141 -0.5449 -0.2001
  792MOL0     C 6826  11.476   3.431   5.828 -0.1173 -1.1640  0.6644
  792MOL0     C 6827  11.600   3.499   5.899  0.1733  0.3871 -0.8875
  792MOL0     C 6828  11.689   3.555   5.796  0.1855 -0.1287 -0.7374
  792MOL0     C 6829  11.774   3.438   5.726  0.2590 -0.7623  0.7778
  792MOL0    Cl 6830  11.943   3.494   5.708 -0.5610  0.0366 -0.0667
  792MOL0     C 6831  10.793   3.385   5.549 -0.1629  0.2060 -0.1948
  792MOL0     C 6832  10.659   3.362   5.503 -0.5346 -0.4161 -1.4248
  792MOL0     O 6833  10.393   3.249   5.667 -1.0820 -0.2944 -0.0350
  792MOL0     C 6834  10.155   3.452   5.504 -0.4401  0.0174  1.2491
  792MOL0     C 6835  10.018   3.469   5.474 -0.0873 -0.3308 -0.1038
  792MOL0     N 6836   9.197   3.358   5.752  0.2842 -0.0349  0.6423
  792MOL0     N 6837   9.133   3.452   5.816  0.3194  0.4039 -0.1006
  792MOL0     C 6838   8.010   3.505   5.825  0.7777 -0.0244 -0.1280
  792MOL0     C 6839   7.881   3.465   5.796 -0.6124 -0.3945 -0.0733
  792MOL0     C 6840   7.436   3.399   5.916  0.2786 -0.2777  0.1368
  792MOL0     C 6841   7.399   3.532   5.891  0.4191 -1.0696 -0.1713
  792MOL0     C 6842   7.270   3.578   5.874 -0.5874 -0.9139  0.7417
  792MOL0     C 6843   7.159   3.489   5.877  1.1712  0.2701  0.7602
  792MOL0     O 6844   7.025   3.514   5.847  0.0229 -0.3357 -0.0350
  792MOL0     C 6845   7.001   3.652   5.804 -0.2457 -0.2093 -0.2554
  792MOL0     C 6846   6.858   3.658   5.766  0.4164  0.2654 -0.4602
  792MOL0     C 6847   6.773   3.658   5.896  0.0247 -0.6270 -0.1968
  792MOL0     C 6848   6.629   3.663   5.851 -0.1061  0.0612 -0.3460
  792MOL0     C 6849   6.563   3.721   5.967  0.3701 -0.8171  0.4018
  792MOL0     C 6850   6.492   3.756   6.058 -0.8062 -1.6518  1.1767
  792MOL0     C 6851   7.192   3.355   5.904  0.7616 -0.2891  0.0861
  792MOL0     C 6852   7.327   3.306   5.914 -0.4939  0.6711  0.5838
  792MOL0     H 6853   7.763   3.440   6.121  1.7603 -1.0424  0.5906
  792MOL0     H 6854   7.990   3.477   6.170 -0.7945 -0.2023 -0.1121
  792MOL0     H 6855   8.275   3.508   5.841 -0.3168 -1.8022  1.4367
  792MOL0     H 6856   8.265   3.687   5.899 -0.4155 -1.2511 -3.6962
  792MOL0     H 6857   8.412   3.591   6.094 -2.1793  2.6487  0.4279
  792MOL0     H 6858   8.449   3.466   5.984  1.2484  0.7104 -1.9133
  792MOL0     H 6859   8.501   3.755   5.926  1.5963  1.4566  1.3603
  792MOL0     H 6860   8.624   3.653   5.990 -0.3430  0.5631  0.4790
  792MOL0     H 6861   8.570   3.502   5.786 -1.7094 -0.1852  0.6415
  792MOL0     H 6862   8.480   3.637   5.716  0.2322 -0.8854 -1.5703
  792MOL0     H 6863   8.658   3.649   5.613 -1.3193  1.2655 -0.0688
  792MOL0     H 6864   8.666   3.791   5.725  2.3885 -0.1781 -0.0415
  792MOL0     H 6865   8.809   3.679   5.875 -0.0510 -0.4763  0.9414
  792MOL0     H 6866   8.815   3.534   5.771  0.2021  0.2963  2.1812
  792MOL0     H 6867   8.918   3.673   5.606 -1.3453  3.2742 -1.6579
  792MOL0     H 6868   8.884   3.817   5.699 -3.8920 -1.5204  1.3090
  792MOL0     H 6869   9.041   3.710   5.878 -1.0636 -1.1328  0.1068
  792MOL0     H 6870   9.117   3.767   5.725 -1.5962  0.1363  0.1544
  792MOL0     H 6871   9.196   3.614   5.535 -5.0642 -0.5843 -0.1087
  792MOL0     H 6872   9.246   3.271   5.499  0.2602 -0.2832 -0.3428
  792MOL0     H 6873   9.312   3.420   5.439  2.3305 -0.7686 -0.0935
  792MOL0     H 6874   9.443   3.202   5.497  0.8537 -0.7040  0.4286
  792MOL0     H 6875   9.472   3.258   5.656 -0.7725 -0.5803  0.9164
  792MOL0     H 6876   9.560   3.478   5.587  3.3405  0.5208 -1.4609
  792MOL0     H 6877   9.541   3.441   5.415 -2.2670 -1.0168 -0.0399
  792MOL0     H 6878   9.687   3.236   5.447 -1.5711  1.0547 -0.1619
  792MOL0     H 6879   9.701   3.279   5.620 -5.1194 -1.1033  1.6567
  792MOL0     H 6880   9.897   3.165   5.568 -1.4341  1.7221 -0.5014
  792MOL0     H 6881  10.072   3.021   5.641  2.4065 -0.7426 -1.4805
  792MOL0     H 6882  10.248   3.066   5.615  1.9141 -1.1789  1.9573
  792MOL0     H 6883  10.171   3.102   5.758 -0.0355 -1.2774  0.5272
  792MOL0     H 6884  10.487   3.524   5.743  0.3685 -0.0187  1.4491
  792MOL0     H 6885  10.718   3.570   5.825 -1.3308  2.9264 -1.3442
  792MOL0     H 6886  11.060   3.407   5.575  0.6561 -0.0565  0.7074
  792MOL0     H 6887  10.985   3.557   5.536  0.9262 -1.6452 -1.3640
  792MOL0     H 6888  11.201   3.606   5.557  0.9676 -0.9880  1.2234
  792MOL0     H 6889  11.136   3.671   5.708  1.9935  1.1619  0.9720
  792MOL0     H 6890  11.258   3.395   5.666 -2.4343 -1.3396  2.3132
  792MOL0     H 6891  11.199   3.443   5.813 -1.2744  0.6457  0.0267
  792MOL0     H 6892  11.438   3.568   5.656  0.5068  3.7837  0.3778
  792MOL0     H 6893  11.384   3.638   5.805  1.9985  1.6576 -3.7105
  792MOL0     H 6894  11.518   3.362   5.754 -0.2569 -2.1814  1.5288
  792MOL0     H 6895  11.407   3.373   5.889 -2.9468  0.4225 -0.7912
  792MOL0     H 6896  11.562   3.577   5.966  0.9667  1.2058 -1.3792
  792MOL0     H 6897  11.655   3.425   5.958 -1.9712  0.5583  1.5116
  792MOL0     H 6898  11.748   3.623   5.859  0.7008 -0.5606 -0.7458
  792MOL0     H 6899  11.637   3.609   5.717 -0.1252  1.2011  0.3243
  792MOL0     H 6900  11.722   3.407   5.635  0.2085  3.9090 -1.0790
  792MOL0     H 6901  11.789   3.361   5.802  1.2261 -1.3482  0.0082
  792MOL0     H 6902  10.873   3.326   5.505  1.0038  2.1346 -0.8052
  792MOL0     H 6903  10.643   3.302   5.414 -0.9471 -2.9400  0.2492
  792MOL0     H 6904  10.220   3.534   5.474 -0.6967  0.0010  0.6321
  792MOL0     H 6905   9.976   3.561   5.435  1.2604  0.5961  0.5643
  792MOL0     H 6906   8.078   3.535   5.746 -1.0864 -0.1027 -1.8315
  792MOL0     H 6907   7.853   3.455   5.692  1.4146 -0.4735 -0.6539
  792MOL0     H 6908   7.472   3.613   5.894  2.2426 -2.5181 -2.2518
  792MOL0     H 6909   7.258   3.686   5.872  2.8468 -0.3788  2.7278
  792MOL0     H 6910   7.020   3.715   5.891 -0.6876 -0.5932  0.1227
  792MOL0     H 6911   7.063   3.690   5.722 -1.2498  0.8411 -0.5537
  792MOL0     H 6912   6.828   3.579   5.697 -1.1683 -0.1412  0.6399
  792MOL0     H 6913   6.830   3.747   5.708 -2.8672 -0.0375  0.4532
  792MOL0     H 6914   6.806   3.746   5.951  2.1819  1.5999 -4.5109
  792MOL0     H 6915   6.793   3.571   5.959 -1.4391  0.7745  2.3933
  792MOL0     H 6916   6.586   3.567   5.820 -0.4143 -0.2478  0.9877
  792MOL0     H 6917   6.611   3.739   5.774 -1.0953  2.7131  2.3362
  792MOL0     H 6918   6.431   3.817   6.121 -1.4485 -1.8253  0.7323
  792MOL0     H 6919   7.115   3.280   5.918 -0.3665  1.2348  2.6250
  792MOL0     H 6920   7.335   3.198   5.927  1.8487  0.8949  1.6213
  793MOL0     O 6921   6.101   5.302   7.572  0.6545 -0.7076 -0.7652
  793MOL0     C 6922   6.071   5.244   7.678  0.0646  0.0945  0.1907
  793MOL0     O 6923   5.964   5.173   7.706  0.8085  0.1047 -0.2616
  793MOL0     C 6924   5.878   5.150   7.601  0.3125 -0.5538 -0.1670
  793MOL0     C 6925   5.756   5.216   7.586  0.6210  0.8934  0.3049
  793MOL0     C 6926   5.670   5.184   7.488  0.6545  0.7812 -0.2057
  793MOL0     C 6927   5.702   5.091   7.389  0.1615 -0.0208  0.8530
  793MOL0     O 6928   5.612   5.044   7.294  0.8968  0.4079  0.3521
  793MOL0     C 6929   5.507   5.123   7.237  0.4734 -0.8248  0.1500
  793MOL0     C 6930   5.368   5.078   7.272  0.0554  0.7483 -0.8324
  793MOL0     C 6931   5.253   5.145   7.186 -0.5409  0.4248  0.1226
  793MOL0     C 6932   5.229   5.293   7.204  0.0560  0.6697 -0.3720
  793MOL0     C 6933   5.089   5.343   7.189  0.5903 -0.3411  0.9794
  793MOL0     C 6934   5.073   5.378   7.038  0.3702  0.9127 -1.4213
  793MOL0     C 6935   4.934   5.440   7.023 -0.0830 -1.6747  0.3134
  793MOL0     C 6936   4.900   5.474   6.880 -0.1393  0.3832  0.3555
  793MOL0     N 6937   4.800   5.576   6.876  0.0327 -0.3349 -0.2803
  793MOL0     C 6938   4.817   5.701   6.945 -0.3471  0.7476  0.6037
  793MOL0     C 6939   4.691   5.741   6.947 -0.1040  0.4571 -0.1867
  793MOL0     C 6940   4.653   5.861   7.035 -0.2862 -0.6272  0.0195
  793MOL0     C 6941   4.714   6.002   6.995 -0.4119 -0.7150 -0.2020
  793MOL0     C 6942   4.658   6.048   6.864 -0.6160 -0.3331  0.4981
  793MOL0     C 6943   4.697   6.192   6.835 -0.7940 -0.5203  0.3518
  793MOL0     O 6944   4.637   6.249   6.719 -0.1346  0.0720  1.1748
  793MOL0     C 6945   4.713   6.283   6.606  0.3068 -0.4393 -0.7753
  793MOL0     C 6946   4.670   6.397   6.522 -0.0638  0.0587  0.1490
  793MOL0     C 6947   4.751   6.462   6.423 -0.1884 -0.0111 -0.5229
  793MOL0     C 6948   4.685   6.563   6.337  0.3925  0.3530 -0.2027
  793MOL0     C 6949   4.882   6.414   6.397 -0.9967 -1.6476 -0.0745
  793MOL0     C 6950   4.973   6.463   6.290 -0.7016  0.5414 -0.3860
  793MOL0     O 6951   5.085   6.390   6.252  0.7202  0.5935 -0.4609
  793MOL0     C 6952   5.198   6.433   6.193 -0.3199 -0.1195  0.8770
  793MOL0     C 6953   5.220   6.559   6.137 -0.5250 -0.8807 -0.6329
  793MOL0     C 6954   5.347   6.604   6.083 -0.0284 -1.1443 -0.3978
  793MOL0     C 6955   5.457   6.518   6.077 -0.0470 -0.9423 -0.1419
  793MOL0     O 6956   5.576   6.560   6.022  0.2879  0.2645  0.2031
  793MOL0     C 6957   5.573   6.649   5.916  0.2156 -0.7984  0.0160
  793MOL0     C 6958   5.685   6.614   5.814 -0.5282  0.7518  0.0232
  793MOL0     C 6959   5.720   6.730   5.717  0.4121  0.5118 -0.5899
  793MOL0     C 6960   5.599   6.786   5.651 -0.1891 -0.0469  0.1457
  793MOL0     C 6961   5.627   6.892   5.537  0.0677  0.3675 -0.0423
  793MOL0     C 6962   5.725   6.850   5.427  0.5582  0.1765 -0.5885
  793MOL0     C 6963   5.754   6.970   5.328 -0.7492 -0.8754 -0.1913
  793MOL0     C 6964   5.874   6.933   5.232  0.5261  0.6135  0.9514
  793MOL0    Cl 6965   6.021   6.915   5.323 -0.1620  0.0616  0.2262
  793MOL0     C 6966   5.432   6.392   6.142  0.3493  0.4167 -0.5015
  793MOL0     C 6967   5.309   6.348   6.183  0.0806  0.3560  0.1544
  793MOL0     O 6968   4.946   6.572   6.245 -0.3597  0.2830 -0.3035
  793MOL0     C 6969   4.927   6.311   6.490  0.5508  0.0646  0.4880
  793MOL0     C 6970   4.845   6.241   6.576 -0.3877  0.8655 -0.1015
  793MOL0     N 6971   4.601   5.657   6.876  0.2148 -0.3334  0.1635
  793MOL0     N 6972   4.675   5.559   6.837 -0.4956 -0.0952 -0.9429
  793MOL0     C 6973   5.822   5.032   7.390 -0.1430 -0.2715 -0.3142
  793MOL0     C 6974   5.906   5.058   7.501 -0.4482  1.3195 -0.5695
  793MOL0     C 6975   6.166   5.274   7.796 -0.5680  0.2189  0.7041
  793MOL0     C 6976   6.123   5.256   7.929 -0.5900  0.8258  0.2880
  793MOL0     C 6977   6.218   5.296   8.033  0.4274  0.6713 -0.0361
  793MOL0     C 6978   6.341   5.357   8.001  0.4680  0.2599 -0.8662
  793MOL0     O 6979   6.424   5.391   8.106 -0.1737  0.1724  0.0795
  793MOL0     C 6980   6.564   5.356   8.084 -1.0612  0.1824  0.0217
  793MOL0     C 6981   6.635   5.360   8.228  0.2760  0.3688 -0.1190
  793MOL0     C 6982   6.555   5.302   8.350  0.3866  0.2380 -0.0141
  793MOL0     C 6983   6.634   5.280   8.479 -0.6390  0.2402 -0.0467
  793MOL0     C 6984   6.742   5.178   8.467 -0.6902 -0.0158  0.9594
  793MOL0     C 6985   6.830   5.094   8.448 -0.0160 -0.1803  0.2918
  793MOL0     C 6986   6.377   5.385   7.872  0.5752  0.1052 -0.2178
  793MOL0     C 6987   6.288   5.342   7.772 -0.6694 -0.3028  0.5678
  793MOL0     H 6988   5.738   5.299   7.654 -0.7380  1.9629 -1.2830
  793MOL0     H 6989   5.572   5.229   7.495  0.7314  0.9765 -0.4069
  793MOL0     H 6990   5.532   5.226   7.262 -0.0244 -0.3928 -1.0828
  793MOL0     H 6991   5.511   5.124   7.128 -1.4881  0.2322  0.0419
  793MOL0     H 6992   5.356   4.971   7.255  0.0461  0.0936  2.6113
  793MOL0     H 6993   5.361   5.084   7.381  0.7328  0.7941 -0.7892
  793MOL0     H 6994   5.291   5.123   7.086 -2.2147  0.7711 -0.6262
  793MOL0     H 6995   5.155   5.097   7.191 -1.9160  2.9067 -1.1235
  793MOL0     H 6996   5.259   5.307   7.308  1.1631  0.4565 -0.6553
  793MOL0     H 6997   5.300   5.350   7.144  0.3981  1.9782  1.2251
  793MOL0     H 6998   5.017   5.267   7.220  0.7645 -1.4888 -1.2394
  793MOL0     H 6999   5.077   5.431   7.253  0.3825 -0.5152  1.1812
  793MOL0     H 7000   5.146   5.448   6.996  2.0493 -1.3469 -2.4970
  793MOL0     H 7001   5.082   5.286   6.979 -0.5870  0.2181 -0.5381
  793MOL0     H 7002   4.864   5.366   7.063 -2.0135  0.2546  0.6935
  793MOL0     H 7003   4.939   5.520   7.097 -1.0305 -0.8879 -0.4453
  793MOL0     H 7004   4.847   5.395   6.826 -1.3096  1.7496 -0.5821
  793MOL0     H 7005   4.985   5.507   6.820  0.7157  2.0803  2.3602
  793MOL0     H 7006   4.905   5.740   6.994  0.1542  0.8532 -0.3616
  793MOL0     H 7007   4.545   5.875   7.022 -0.2637 -0.0014  0.4288
  793MOL0     H 7008   4.682   5.842   7.139 -0.8238  2.3778  0.8231
  793MOL0     H 7009   4.821   5.982   6.993 -1.0496 -5.3750  0.1258
  793MOL0     H 7010   4.675   6.067   7.074 -0.2115  1.0860 -1.5243
  793MOL0     H 7011   4.549   6.038   6.853 -0.2378 -2.9716 -2.2924
  793MOL0     H 7012   4.704   5.984   6.788  0.6693 -0.5147  1.4050
  793MOL0     H 7013   4.806   6.184   6.831 -0.7604 -3.0637  2.9099
  793MOL0     H 7014   4.676   6.252   6.925 -2.0198 -0.6490  0.1723
  793MOL0     H 7015   4.570   6.430   6.547 -0.1936 -1.6550  2.0975
  793MOL0     H 7016   4.705   6.551   6.230  4.7643  0.8921  0.3541
  793MOL0     H 7017   4.577   6.552   6.352  0.5572 -2.9190 -0.6807
  793MOL0     H 7018   4.712   6.664   6.369  2.8501  0.0804 -1.1683
  793MOL0     H 7019   5.139   6.632   6.143  2.3388  2.4814  0.3837
  793MOL0     H 7020   5.361   6.702   6.039  1.5054 -3.1438 -5.0055
  793MOL0     H 7021   5.479   6.648   5.861  0.1474  1.0757  0.0205
  793MOL0     H 7022   5.590   6.744   5.967  1.2997 -1.9601  1.9466
  793MOL0     H 7023   5.776   6.599   5.874  0.4886  0.4948 -1.5431
  793MOL0     H 7024   5.662   6.516   5.772 -0.6504 -0.7049  3.2028
  793MOL0     H 7025   5.799   6.699   5.648  1.2087 -0.3441  0.6677
  793MOL0     H 7026   5.762   6.817   5.769  1.1721 -1.7892  3.0080
  793MOL0     H 7027   5.542   6.698   5.622  0.4246 -0.7743  1.0721
  793MOL0     H 7028   5.535   6.838   5.723  1.6929  0.5096  1.4964
  793MOL0     H 7029   5.676   6.974   5.589  1.9799 -2.4244  2.9646
  793MOL0     H 7030   5.530   6.911   5.490 -1.3582 -4.9361  0.0787
  793MOL0     H 7031   5.816   6.807   5.468  1.4101  0.3413 -2.2015
  793MOL0     H 7032   5.684   6.767   5.368 -2.5727  1.6587 -0.6974
  793MOL0     H 7033   5.786   7.061   5.379  0.6540 -0.8710 -1.0209
  793MOL0     H 7034   5.666   6.988   5.266 -0.6123 -1.0932 -0.4517
  793MOL0     H 7035   5.891   7.013   5.159  0.1059 -0.4194 -0.3234
  793MOL0     H 7036   5.850   6.844   5.173 -5.6375  1.5028  1.4861
  793MOL0     H 7037   5.521   6.333   6.160  0.1681  0.7497  1.8378
  793MOL0     H 7038   5.293   6.253   6.233 -1.8509 -0.1011 -1.2084
  793MOL0     H 7039   5.029   6.276   6.482 -0.0043 -1.4983 -0.0131
  793MOL0     H 7040   4.884   6.156   6.632 -0.9219  1.5497  1.3775
  793MOL0     H 7041   5.838   4.971   7.302 -3.5935  0.8488 -1.8732
  793MOL0     H 7042   6.008   5.021   7.499 -1.5358 -2.0121 -0.1138
  793MOL0     H 7043   6.020   5.231   7.950 -0.5855  0.3316 -0.2616
  793MOL0     H 7044   6.195   5.288   8.139  0.1394 -1.2309 -0.2065
  793MOL0     H 7045   6.558   5.251   8.053 -0.1546 -0.5900  2.2419
  793MOL0     H 7046   6.623   5.420   8.018  0.4886  0.1456  1.3163
  793MOL0     H 7047   6.672   5.457   8.260  1.8080 -0.2458  0.0489
  793MOL0     H 7048   6.719   5.292   8.211  0.5992  0.9604 -0.9187
  793MOL0     H 7049   6.508   5.210   8.314  1.9460 -0.6052 -0.0132
  793MOL0     H 7050   6.475   5.375   8.365  0.9659  1.4576 -2.4063
  793MOL0     H 7051   6.561   5.239   8.550  0.0384 -0.0608  0.4891
  793MOL0     H 7052   6.668   5.375   8.521 -0.5526 -1.1349  3.2630
  793MOL0     H 7053   6.907   5.026   8.420 -1.2603 -1.0348 -1.1973
  793MOL0     H 7054   6.463   5.448   7.852  1.6135 -0.5456  1.8926
  793MOL0     H 7055   6.313   5.383   7.674 -1.7002  1.4833  1.0040
  794MOL0     O 7056   5.702   7.188   9.574 -0.2794 -0.6462 -0.6435
  794MOL0     C 7057   5.666   7.227   9.690 -0.5980 -0.4532 -0.2894
  794MOL0     O 7058   5.728   7.336   9.762 -0.0570  0.1791  0.0602
  794MOL0     C 7059   5.819   7.418   9.697 -0.0922  0.2658 -0.0997
  794MOL0     C 7060   5.806   7.465   9.568 -0.4577  0.2434  0.2918
  794MOL0     C 7061   5.884   7.566   9.520  0.0449 -0.2209 -0.0456
  794MOL0     C 7062   5.990   7.630   9.598  0.0701  0.9549  0.2663
  794MOL0     O 7063   6.066   7.738   9.562  0.2481  0.4698 -0.1315
  794MOL0     C 7064   5.981   7.856   9.537 -0.3437  0.8669  0.0012
  794MOL0     C 7065   6.075   7.982   9.507 -0.5856 -0.0197 -0.4036
  794MOL0     C 7066   6.166   7.958   9.388 -0.8970 -0.0390 -0.6563
  794MOL0     C 7067   6.270   8.071   9.378  0.5191 -0.0041 -0.5615
  794MOL0     C 7068   6.274   8.134   9.241  0.0375  0.3274 -0.2113
  794MOL0     C 7069   6.348   8.265   9.250 -0.0818  0.0189 -0.6560
  794MOL0     C 7070   6.410   8.304   9.121  0.0893  0.2353 -0.2824
  794MOL0     C 7071   6.457   8.461   9.120 -0.3713  0.8536  1.0479
  794MOL0     N 7072   6.518   8.489   8.991 -0.5773  0.2965 -0.1110
  794MOL0     C 7073   6.648   8.532   8.982  0.0616  0.4216  0.4971
  794MOL0     C 7074   6.665   8.555   8.840 -0.2768  0.3333  0.0676
  794MOL0     C 7075   6.779   8.627   8.783 -0.4194  0.3017 -0.2555
  794MOL0     C 7076   6.914   8.591   8.850 -0.8579 -0.7773  0.5625
  794MOL0     C 7077   7.024   8.693   8.805  0.2601 -0.5769  0.6221
  794MOL0     C 7078   7.162   8.639   8.824 -0.2843  0.4567 -0.5824
  794MOL0     O 7079   7.179   8.536   8.934  0.5978  0.1279 -0.3157
  794MOL0     C 7080   7.178   8.583   9.062  0.1440 -0.2607  0.8923
  794MOL0     C 7081   7.226   8.496   9.155  0.8541 -0.0359 -0.7868
  794MOL0     C 7082   7.237   8.531   9.289  0.2077  0.6603 -0.7421
  794MOL0     C 7083   7.255   8.411   9.384 -0.3777 -0.2583 -0.3541
  794MOL0     C 7084   7.224   8.664   9.335  0.2387 -0.6230 -0.3896
  794MOL0     C 7085   7.252   8.710   9.479  0.6178 -0.5289 -0.6534
  794MOL0     O 7086   7.219   8.843   9.503  0.3495  0.6967  0.0341
  794MOL0     C 7087   7.274   8.919   9.602  0.8265  0.0689 -0.6907
  794MOL0     C 7088   7.177   8.986   9.677  0.5965 -0.7421 -0.6333
  794MOL0     C 7089   7.207   9.061   9.795  0.6107 -0.1630 -0.4716
  794MOL0     C 7090   7.339   9.084   9.833 -1.0509  0.1797 -0.1027
  794MOL0     O 7091   7.374   9.169   9.938 -0.2516  0.2515 -0.2033
  794MOL0     C 7092   7.507   9.216   9.944  0.3258  0.1759 -0.3788
  794MOL0     C 7093   7.494   9.359   9.995  0.0453 -0.6012 -0.1629
  794MOL0     C 7094   7.519   9.377  10.146  0.3868 -0.2703 -0.1993
  794MOL0     C 7095   7.449   9.260  10.230 -0.4923 -0.1075  0.2742
  794MOL0     C 7096   7.472   9.289  10.381  0.1842 -0.5596 -1.3411
  794MOL0     C 7097   7.366   9.219  10.466 -0.2085  0.0938 -0.0058
  794MOL0     C 7098   7.336   9.320  10.585 -1.8884 -0.0199  0.1438
  794MOL0     C 7099   7.213   9.270  10.661 -0.4436  0.2090  0.6776
  794MOL0    Cl 7100   7.207   9.088  10.678 -0.0580 -0.3840  0.3595
  794MOL0     C 7101   7.438   9.005   9.760 -0.1880 -0.2720  0.9434
  794MOL0     C 7102   7.406   8.930   9.645  0.3329  0.8087 -0.1733
  794MOL0     O 7103   7.317   8.637   9.548 -0.0734  0.5053 -0.9333
  794MOL0     C 7104   7.171   8.757   9.238  0.2314  0.0699 -0.1535
  794MOL0     C 7105   7.151   8.720   9.104 -0.0956  0.2749 -0.4315
  794MOL0     N 7106   6.540   8.526   8.780  0.2745  0.2522  0.5661
  794MOL0     N 7107   6.460   8.484   8.868  0.4841 -0.9276  0.0324
  794MOL0     C 7108   5.989   7.583   9.727  0.8221  0.1752 -0.1322
  794MOL0     C 7109   5.910   7.476   9.776 -0.0812  0.2071  0.3147
  794MOL0     C 7110   5.549   7.163   9.766  0.0089  0.0843  0.3472
  794MOL0     C 7111   5.463   7.068   9.709 -0.0306 -0.8905 -0.6407
  794MOL0     C 7112   5.347   7.027   9.775 -0.7848  0.6589 -0.9632
  794MOL0     C 7113   5.325   7.058   9.914  0.4171  0.1898  0.1457
  794MOL0     O 7114   5.219   6.999   9.973  0.0941 -0.3378 -0.7635
  794MOL0     C 7115   5.210   7.003  10.118  0.0612 -0.5347 -0.1870
  794MOL0     C 7116   5.110   6.898  10.166  0.1757  0.5375  0.2194
  794MOL0     C 7117   5.085   6.901  10.319 -1.0567 -0.2743 -0.7748
  794MOL0     C 7118   5.040   6.773  10.372 -0.1875 -0.0948  0.2751
  794MOL0     C 7119   5.156   6.691  10.399  0.1279 -0.5920 -0.4195
  794MOL0     C 7120   5.230   6.619  10.455  0.9327 -0.9200  0.1414
  794MOL0     C 7121   5.423   7.151   9.968 -0.1436  0.5831 -0.3883
  794MOL0     C 7122   5.529   7.201   9.903  0.5088  0.6634  0.4361
  794MOL0     H 7123   5.725   7.433   9.504 -1.9294 -0.3326  2.3329
  794MOL0     H 7124   5.868   7.607   9.421  1.1758  1.7724  0.5392
  794MOL0     H 7125   5.912   7.839   9.454 -0.5715  1.0887  0.1440
  794MOL0     H 7126   5.925   7.881   9.627 -1.8208  0.8626 -0.8895
  794MOL0     H 7127   6.017   8.073   9.491  1.8130  1.6492 -0.1157
  794MOL0     H 7128   6.133   7.990   9.599 -0.2381 -3.7219 -0.1336
  794MOL0     H 7129   6.212   7.860   9.379  2.7428  0.9956  3.5017
  794MOL0     H 7130   6.091   7.953   9.308 -3.1709 -0.1740  1.3514
  794MOL0     H 7131   6.249   8.151   9.450 -1.8080 -1.3256  0.3378
  794MOL0     H 7132   6.367   8.034   9.412 -0.2934 -2.2792 -0.5970
  794MOL0     H 7133   6.311   8.063   9.166  3.0749  0.9264  0.5830
  794MOL0     H 7134   6.172   8.157   9.209 -0.9601 -0.1732  2.3794
  794MOL0     H 7135   6.296   8.349   9.297  0.9581 -2.5987  6.3801
  794MOL0     H 7136   6.436   8.251   9.312 -1.1173  3.4161  1.8826
  794MOL0     H 7137   6.491   8.240   9.084 -1.6642 -2.1138 -0.2341
  794MOL0     H 7138   6.326   8.308   9.051 -0.0854  0.2583 -0.0699
  794MOL0     H 7139   6.538   8.455   9.194  0.5553 -2.0962 -0.0706
  794MOL0     H 7140   6.375   8.532   9.133 -2.2748 -0.1842 -3.4506
  794MOL0     H 7141   6.717   8.539   9.066 -1.7493 -1.0140  2.1799
  794MOL0     H 7142   6.775   8.600   8.677 -1.4939 -2.3995  0.3709
  794MOL0     H 7143   6.755   8.732   8.803  0.5774  0.3964  0.5055
  794MOL0     H 7144   6.937   8.487   8.823 -1.2278 -0.5924 -0.5232
  794MOL0     H 7145   6.908   8.588   8.959 -0.3341 -1.1210  0.5831
  794MOL0     H 7146   7.019   8.792   8.850  3.3574  0.8113 -1.6810
  794MOL0     H 7147   7.005   8.703   8.698  1.3932 -3.1504  0.1022
  794MOL0     H 7148   7.232   8.720   8.846  0.1116  0.0902 -0.4807
  794MOL0     H 7149   7.193   8.571   8.744 -0.3173 -0.9440  0.5512
  794MOL0     H 7150   7.246   8.394   9.122 -0.3980 -0.4406 -0.3474
  794MOL0     H 7151   7.361   8.413   9.411 -0.6717 -1.8184  1.0542
  794MOL0     H 7152   7.185   8.420   9.467  2.3830 -3.7723  2.7239
  794MOL0     H 7153   7.225   8.311   9.349 -2.7479 -0.3206  1.6022
  794MOL0     H 7154   7.072   8.972   9.653  0.1279 -0.8835  1.3809
  794MOL0     H 7155   7.133   9.113   9.854  1.0322  2.7871 -2.3527
  794MOL0     H 7156   7.570   9.155  10.009  0.0260  0.8316  0.5415
  794MOL0     H 7157   7.560   9.217   9.848  1.2939  2.3431  0.1280
  794MOL0     H 7158   7.569   9.413   9.938  2.9198 -2.7003  1.3357
  794MOL0     H 7159   7.398   9.403   9.968 -0.5886 -1.7742  0.0997
  794MOL0     H 7160   7.472   9.469  10.180  3.6106  1.0642  1.0027
  794MOL0     H 7161   7.623   9.404  10.161  0.1795  1.9265 -2.1580
  794MOL0     H 7162   7.341   9.256  10.210 -0.8883  2.4510  1.4102
  794MOL0     H 7163   7.496   9.166  10.200 -0.1549  0.8634 -2.4787
  794MOL0     H 7164   7.468   9.397  10.397 -0.0194 -0.7779  0.2196
  794MOL0     H 7165   7.566   9.258  10.428  0.0618  2.8213  1.5004
  794MOL0     H 7166   7.274   9.204  10.410 -1.8503  1.4957  2.1685
  794MOL0     H 7167   7.395   9.117  10.492  1.4208  0.6630  0.5685
  794MOL0     H 7168   7.323   9.424  10.552 -0.2360  0.2888  0.3740
  794MOL0     H 7169   7.420   9.312  10.655 -0.7436 -0.6386 -1.2610
  794MOL0     H 7170   7.126   9.292  10.599 -1.2455 -1.0397  1.3116
  794MOL0     H 7171   7.204   9.328  10.754 -1.3687  2.5347 -0.7626
  794MOL0     H 7172   7.537   8.998   9.804 -0.8775 -2.8364  2.2895
  794MOL0     H 7173   7.478   8.877   9.584 -0.7043 -1.5265  0.4967
  794MOL0     H 7174   7.140   8.857   9.266  0.3857  0.3540 -0.9883
  794MOL0     H 7175   7.117   8.800   9.039  0.0401  1.9270  1.4485
  794MOL0     H 7176   6.063   7.628   9.793 -0.8963  4.6103 -0.8528
  794MOL0     H 7177   5.913   7.443   9.879 -1.1166 -0.9554 -0.0073
  794MOL0     H 7178   5.472   7.028   9.608  1.0009  0.0807 -0.9629
  794MOL0     H 7179   5.275   6.974   9.713  0.3442 -0.4573 -1.3448
  794MOL0     H 7180   5.305   6.979  10.166 -0.3502 -0.5203  0.6450
  794MOL0     H 7181   5.162   7.096  10.151 -2.6656 -1.1481 -2.0364
  794MOL0     H 7182   5.137   6.796  10.138 -0.0202  0.3760  0.6089
  794MOL0     H 7183   5.014   6.910  10.114  1.3121 -2.9757 -3.1303
  794MOL0     H 7184   5.007   6.970  10.354 -0.1042  0.9544 -1.0121
  794MOL0     H 7185   5.178   6.931  10.369 -1.7518 -1.3887  1.3253
  794MOL0     H 7186   4.974   6.723  10.300  0.2629 -0.2825 -0.0104
  794MOL0     H 7187   4.984   6.787  10.464  0.8217  3.0435  0.5281
  794MOL0     H 7188   5.294   6.554  10.512  1.8588 -0.1753 -0.0325
  794MOL0     H 7189   5.409   7.185  10.071 -2.0604  1.2150 -0.8109
  794MOL0     H 7190   5.597   7.265   9.959  1.4285 -0.1729  0.2980
  795MOL0     O 7191   6.078   4.508   5.552 -0.4955  0.5336 -0.1720
  795MOL0     C 7192   5.978   4.493   5.620  0.8908  0.3811  0.4494
  795MOL0     O 7193   5.933   4.566   5.725  0.0947 -0.2582 -0.2510
  795MOL0     C 7194   6.013   4.670   5.773 -0.1361  0.1578  0.5098
  795MOL0     C 7195   5.967   4.793   5.745  0.0172  0.8884 -0.2929
  795MOL0     C 7196   6.035   4.904   5.785  0.4256  0.1731  0.0838
  795MOL0     C 7197   6.161   4.886   5.858  0.5931 -0.4020 -0.3311
  795MOL0     O 7198   6.248   4.984   5.909  0.3572 -0.5655  0.8363
  795MOL0     C 7199   6.251   5.111   5.843 -0.2491 -0.9618  0.4745
  795MOL0     C 7200   6.365   5.191   5.905  0.4560  1.0243 -0.1158
  795MOL0     C 7201   6.361   5.218   6.056 -0.5869 -0.8856 -0.3573
  795MOL0     C 7202   6.473   5.314   6.104 -0.3830 -0.5771 -0.4046
  795MOL0     C 7203   6.483   5.327   6.254 -0.3734  0.1543 -0.0803
  795MOL0     C 7204   6.576   5.447   6.308 -0.1737  0.0966  1.0047
  795MOL0     C 7205   6.518   5.581   6.259  0.0846  0.3906  0.0561
  795MOL0     C 7206   6.433   5.631   6.385 -0.0021  0.1448 -0.2837
  795MOL0     N 7207   6.506   5.725   6.474 -0.3811 -0.1214 -0.3191
  795MOL0     C 7208   6.565   5.844   6.429 -0.3096  0.1628  0.4812
  795MOL0     C 7209   6.630   5.890   6.541  0.8186 -1.1373 -0.2161
  795MOL0     C 7210   6.719   6.012   6.555  1.0012  0.1612 -0.9998
  795MOL0     C 7211   6.673   6.096   6.668  0.0620  0.1934  0.1232
  795MOL0     C 7212   6.786   6.188   6.726  0.2863  0.6840  0.8449
  795MOL0     C 7213   6.737   6.316   6.780  0.9720 -0.3340  0.6563
  795MOL0     O 7214   6.601   6.299   6.826 -0.1162 -0.0551  0.0619
  795MOL0     C 7215   6.542   6.422   6.864  0.3860 -0.0350 -0.8992
  795MOL0     C 7216   6.605   6.547   6.882  0.7687 -0.1204  0.1437
  795MOL0     C 7217   6.529   6.661   6.917  0.0018  1.1999  0.5533
  795MOL0     C 7218   6.604   6.794   6.908 -0.0151 -0.0234 -0.0688
  795MOL0     C 7219   6.390   6.648   6.957  0.1937  1.2200 -0.6385
  795MOL0     C 7220   6.319   6.760   7.011  0.2086  0.4521  0.5745
  795MOL0     O 7221   6.185   6.728   7.017  0.3037 -0.5153  0.4891
  795MOL0     C 7222   6.097   6.831   7.039 -0.3383  0.3843  0.0550
  795MOL0     C 7223   6.040   6.878   6.917  0.9834  0.2161  0.4668
  795MOL0     C 7224   5.946   6.969   6.924  0.3082 -0.1356 -0.1502
  795MOL0     C 7225   5.914   7.031   7.053 -0.7774 -0.5300 -1.2704
  795MOL0     O 7226   5.832   7.141   7.075  0.4134 -0.8240  1.3202
  795MOL0     C 7227   5.896   7.272   7.093  0.3565  0.0133  0.1818
  795MOL0     C 7228   6.024   7.295   7.013  1.0063  0.6811 -0.5581
  795MOL0     C 7229   6.028   7.433   6.942 -0.6468 -0.7882 -0.3685
  795MOL0     C 7230   6.152   7.494   6.867 -0.1024  1.1732 -0.4938
  795MOL0     C 7231   6.121   7.637   6.813 -0.1254  0.2607  0.4007
  795MOL0     C 7232   6.251   7.708   6.770 -0.8336 -0.3069 -0.6468
  795MOL0     C 7233   6.315   7.649   6.646  0.3574 -0.2435 -0.2736
  795MOL0     C 7234   6.228   7.642   6.519 -1.1457 -0.1914 -0.2462
  795MOL0    Cl 7235   6.214   7.803   6.465 -0.3709  0.3830  0.0847
  795MOL0     C 7236   5.980   6.989   7.170 -0.3553  0.3332 -1.2509
  795MOL0     C 7237   6.080   6.894   7.164  0.6701  0.3072  0.4849
  795MOL0     O 7238   6.363   6.861   7.059  0.5913  0.4608  0.0113
  795MOL0     C 7239   6.330   6.521   6.929 -0.2680 -0.4385  1.0635
  795MOL0     C 7240   6.408   6.410   6.880 -0.1866  0.3116  0.2928
  795MOL0     N 7241   6.611   5.804   6.641  0.4071  0.7140  0.5741
  795MOL0     N 7242   6.528   5.711   6.606  0.7655  0.4697 -0.3176
  795MOL0     C 7243   6.191   4.758   5.903  0.2716 -0.3138  0.9871
  795MOL0     C 7244   6.132   4.643   5.847 -0.7302 -0.2001  0.0377
  795MOL0     C 7245   5.873   4.406   5.561 -0.6830  0.5298  0.6164
  795MOL0     C 7246   5.805   4.320   5.641  0.1254 -0.5130  0.7712
  795MOL0     C 7247   5.718   4.227   5.589 -0.2607 -1.0708 -0.6646
  795MOL0     C 7248   5.691   4.223   5.449 -0.5214  0.3074 -0.0946
  795MOL0     O 7249   5.594   4.128   5.412 -0.0405 -0.7329  0.2162
  795MOL0     C 7250   5.603   4.070   5.282 -1.4273  0.2676  0.7750
  795MOL0     C 7251   5.493   3.963   5.265  0.2019  0.2916 -0.5627
  795MOL0     C 7252   5.357   4.026   5.284  0.4398  0.3281  0.1449
  795MOL0     C 7253   5.253   3.915   5.295  0.0517  0.1098  0.1694
  795MOL0     C 7254   5.256   3.818   5.188  0.4883  0.5394  0.0936
  795MOL0     C 7255   5.249   3.732   5.104 -0.1512  0.2753 -0.2224
  795MOL0     C 7256   5.765   4.298   5.361 -0.2586  0.4678 -0.1145
  795MOL0     C 7257   5.854   4.387   5.423 -1.2611  0.9910 -0.1187
  795MOL0     H 7258   5.880   4.817   5.684 -0.1219  0.0743 -0.4345
  795MOL0     H 7259   6.013   5.010   5.780  0.1977  0.1236  0.0695
  795MOL0     H 7260   6.242   5.107   5.734 -2.0114  4.1173  0.2000
  795MOL0     H 7261   6.156   5.158   5.870 -0.2412 -0.6834  0.0176
  795MOL0     H 7262   6.451   5.125   5.891 -1.8311 -2.5355  1.2857
  795MOL0     H 7263   6.375   5.289   5.858  0.1499  0.9085 -0.4199
  795MOL0     H 7264   6.270   5.276   6.073 -0.6368 -0.3177 -2.3129
  795MOL0     H 7265   6.364   5.125   6.113  1.3525  1.3485  3.6738
  795MOL0     H 7266   6.567   5.277   6.062 -0.1477  1.0950 -1.4842
  795MOL0     H 7267   6.464   5.410   6.051  1.0969 -0.2095 -0.0482
  795MOL0     H 7268   6.385   5.345   6.299 -0.2160 -0.4516  0.5103
  795MOL0     H 7269   6.513   5.229   6.292 -1.1990 -1.1944 -2.6320
  795MOL0     H 7270   6.587   5.465   6.416 -0.4943  3.8910  0.5458
  795MOL0     H 7271   6.675   5.430   6.265 -0.2011 -0.1338  1.0360
  795MOL0     H 7272   6.608   5.642   6.242 -0.3219  1.4598  1.5500
  795MOL0     H 7273   6.456   5.592   6.170 -1.8861 -0.3801  1.2598
  795MOL0     H 7274   6.390   5.550   6.445 -1.9709  2.9103  2.3770
  795MOL0     H 7275   6.351   5.679   6.332  0.8742 -1.2042 -3.0631
  795MOL0     H 7276   6.566   5.890   6.331  0.0720 -0.8179  0.0101
  795MOL0     H 7277   6.822   5.982   6.577  0.9247  1.1582  0.9248
  795MOL0     H 7278   6.720   6.062   6.457 -3.9478  0.6686 -1.0368
  795MOL0     H 7279   6.634   6.036   6.751 -0.7158 -1.5494 -1.4361
  795MOL0     H 7280   6.584   6.148   6.630  0.8973 -0.2068 -2.5222
  795MOL0     H 7281   6.849   6.218   6.641 -1.5580 -2.4107 -1.8422
  795MOL0     H 7282   6.848   6.132   6.796  1.4724 -1.0384 -1.4527
  795MOL0     H 7283   6.730   6.388   6.698 -0.7793 -0.2166  0.8636
  795MOL0     H 7284   6.812   6.353   6.850  0.9541 -0.4528  0.7375
  795MOL0     H 7285   6.709   6.567   6.855  1.0006  0.7398  1.5892
  795MOL0     H 7286   6.713   6.790   6.913  0.1676  2.0944 -1.0970
  795MOL0     H 7287   6.587   6.845   6.813  0.1440  2.8885  1.3542
  795MOL0     H 7288   6.576   6.864   6.988 -1.1686 -0.3532 -0.1643
  795MOL0     H 7289   6.064   6.835   6.820 -0.9162 -0.8570  0.4160
  795MOL0     H 7290   5.889   6.995   6.835  0.2857 -3.9821 -1.4476
  795MOL0     H 7291   5.827   7.349   7.060  1.3061  0.3998 -0.9726
  795MOL0     H 7292   5.934   7.270   7.196  0.0943 -2.1835  0.2747
  795MOL0     H 7293   6.103   7.273   7.085  3.0236 -2.8274 -3.4970
  795MOL0     H 7294   6.033   7.220   6.933  0.2999 -0.5979  0.5287
  795MOL0     H 7295   5.995   7.512   7.010 -1.1794  0.0202 -1.5293
  795MOL0     H 7296   5.959   7.435   6.857  0.6049 -0.7423 -1.4144
  795MOL0     H 7297   6.225   7.503   6.947 -0.6677  3.0667 -0.1305
  795MOL0     H 7298   6.175   7.416   6.793 -0.1105 -0.7112  1.4062
  795MOL0     H 7299   6.079   7.696   6.895 -2.8309 -2.2330  0.9726
  795MOL0     H 7300   6.050   7.637   6.730 -0.9202 -0.2212  1.0720
  795MOL0     H 7301   6.229   7.811   6.739 -2.3175 -0.2212  0.5677
  795MOL0     H 7302   6.333   7.711   6.842 -0.1691  1.8670 -1.3942
  795MOL0     H 7303   6.337   7.543   6.664 -1.1471 -0.2989  1.5212
  795MOL0     H 7304   6.407   7.707   6.631 -0.0824  0.6582  0.4151
  795MOL0     H 7305   6.129   7.604   6.543 -0.5327  0.6022  4.4731
  795MOL0     H 7306   6.260   7.582   6.433 -0.2198 -1.3952  0.8963
  795MOL0     H 7307   5.964   7.032   7.268 -2.4351  0.8662 -1.7653
  795MOL0     H 7308   6.145   6.872   7.248 -0.3316 -0.9255  0.9720
  795MOL0     H 7309   6.224   6.507   6.948  0.0284  0.2276  3.4301
  795MOL0     H 7310   6.368   6.315   6.844 -0.3938  0.9618 -1.2763
  795MOL0     H 7311   6.268   4.740   5.979  1.8062 -1.2322 -0.6950
  795MOL0     H 7312   6.167   4.543   5.868 -3.1570 -1.3436 -0.9455
  795MOL0     H 7313   5.833   4.325   5.746  0.9030 -0.6191  0.5812
  795MOL0     H 7314   5.668   4.153   5.651 -2.6388  0.0623 -1.1026
  795MOL0     H 7315   5.575   4.135   5.199  1.3566 -1.6509 -1.8570
  795MOL0     H 7316   5.702   4.031   5.255 -1.2358  1.9117 -1.0778
  795MOL0     H 7317   5.500   3.883   5.339 -0.5214  0.4388 -0.3247
  795MOL0     H 7318   5.506   3.918   5.166  1.8335  3.3743 -1.9135
  795MOL0     H 7319   5.326   4.103   5.213  0.4802  0.5337  0.3487
  795MOL0     H 7320   5.356   4.080   5.379  0.5599  0.2872  0.1697
  795MOL0     H 7321   5.157   3.969   5.295 -0.1720 -0.2865  0.1733
  795MOL0     H 7322   5.260   3.857   5.387  1.3274  1.0919  0.7241
  795MOL0     H 7323   5.241   3.661   5.024  1.3305 -0.2733  0.0933
  795MOL0     H 7324   5.743   4.298   5.255 -1.5670 -0.1471  0.1247
  795MOL0     H 7325   5.922   4.436   5.354 -1.0142  1.4648  0.4535
  796MOL0     O 7326   7.422   5.611   4.673 -0.6234 -0.5698 -1.0147
  796MOL0     C 7327   7.329   5.590   4.747  0.2667 -0.9250 -0.5425
  796MOL0     O 7328   7.341   5.545   4.884  0.4693  0.5715  0.5247
  796MOL0     C 7329   7.473   5.546   4.919 -0.6316 -0.9027  0.1986
  796MOL0     C 7330   7.515   5.641   5.011 -0.1478  0.2393 -0.6778
  796MOL0     C 7331   7.648   5.637   5.054 -0.7602 -0.2046 -0.3117
  796MOL0     C 7332   7.741   5.531   5.009 -0.7119 -0.2159 -0.1134
  796MOL0     O 7333   7.865   5.535   5.075 -0.2103  0.5989  0.8006
  796MOL0     C 7334   7.945   5.422   5.095  0.8551 -0.0462  0.1825
  796MOL0     C 7335   8.047   5.460   5.202 -0.5597  0.2024  1.0339
  796MOL0     C 7336   8.128   5.584   5.151  0.0252 -0.2891 -0.1057
  796MOL0     C 7337   8.262   5.595   5.221  0.0285  0.6997 -0.4890
  796MOL0     C 7338   8.356   5.697   5.152  0.5676 -0.3944 -0.0638
  796MOL0     C 7339   8.484   5.727   5.246 -0.0003 -0.3236 -0.0320
  796MOL0     C 7340   8.584   5.821   5.172  0.1141  0.5153  0.0842
  796MOL0     C 7341   8.708   5.861   5.260  0.7170 -0.3167 -0.2520
  796MOL0     N 7342   8.832   5.815   5.210 -0.0815  0.7620 -0.0851
  796MOL0     C 7343   8.869   5.683   5.197  0.3514 -0.2085 -0.2695
  796MOL0     C 7344   8.988   5.682   5.128  0.3460  0.4289  0.7326
  796MOL0     C 7345   9.068   5.558   5.106 -0.3876  0.1565 -0.0610
  796MOL0     C 7346   9.160   5.518   5.226  0.4959 -0.6362  0.2274
  796MOL0     C 7347   9.283   5.606   5.236 -0.4958  0.0852  0.6070
  796MOL0     C 7348   9.380   5.585   5.122  0.0511 -0.2185  0.1693
  796MOL0     O 7349   9.395   5.451   5.072 -0.1153  0.7342 -0.1810
  796MOL0     C 7350   9.431   5.348   5.152  1.0610 -0.2895  0.1690
  796MOL0     C 7351   9.529   5.349   5.238 -0.0467 -0.0438  0.0240
  796MOL0     C 7352   9.558   5.245   5.330 -0.0942 -0.3683  0.2674
  796MOL0     C 7353   9.660   5.277   5.430  0.2224 -0.4364 -0.6554
  796MOL0     C 7354   9.479   5.127   5.328 -0.1291 -0.0384 -1.1925
  796MOL0     C 7355   9.491   5.009   5.420  0.4027 -0.2483  0.0443
  796MOL0     O 7356   9.392   4.913   5.419 -0.2533 -1.1363 -0.0555
  796MOL0     C 7357   9.405   4.780   5.453  0.1849 -0.6557  0.0079
  796MOL0     C 7358   9.527   4.719   5.480  0.4553 -0.2411  0.7819
  796MOL0     C 7359   9.530   4.578   5.487  0.2575  0.4401 -0.2038
  796MOL0     C 7360   9.411   4.502   5.472 -0.5505 -0.3278  0.5342
  796MOL0     O 7361   9.382   4.371   5.475 -0.9860 -0.2634  0.5039
  796MOL0     C 7362   9.493   4.279   5.460  0.7980  1.2202  0.2981
  796MOL0     C 7363   9.460   4.154   5.532  0.2223  1.0280 -0.5943
  796MOL0     C 7364   9.572   4.043   5.529 -0.0879 -0.7552 -0.0540
  796MOL0     C 7365   9.518   3.901   5.552 -0.4088 -0.1226 -0.0710
  796MOL0     C 7366   9.394   3.851   5.482  0.1139 -0.2628 -0.0357
  796MOL0     C 7367   9.414   3.867   5.329  1.0513  0.9647  0.3554
  796MOL0     C 7368   9.313   3.788   5.249  0.3894 -0.3632  0.6474
  796MOL0     C 7369   9.323   3.814   5.098  0.0386 -1.2163  0.4487
  796MOL0    Cl 7370   9.483   3.777   5.044 -0.5915  0.3019 -0.4646
  796MOL0     C 7371   9.292   4.566   5.440  0.1284  0.2506  0.0910
  796MOL0     C 7372   9.288   4.708   5.444  0.3522  0.4609 -0.6645
  796MOL0     O 7373   9.601   4.998   5.484  0.7585  0.2603  0.4701
  796MOL0     C 7374   9.393   5.120   5.218  0.5074 -0.7118  0.2045
  796MOL0     C 7375   9.359   5.226   5.141 -0.4975 -0.4208 -0.1089
  796MOL0     N 7376   9.019   5.817   5.104  0.7569  0.0044 -0.5264
  796MOL0     N 7377   8.928   5.892   5.159  0.6399 -0.2342 -0.0029
  796MOL0     C 7378   7.698   5.435   4.914 -0.1472  0.3522 -0.7752
  796MOL0     C 7379   7.558   5.430   4.886  0.1415  0.4308  0.2546
  796MOL0     C 7380   7.193   5.622   4.700 -0.5175 -0.2139  0.7424
  796MOL0     C 7381   7.095   5.642   4.789  0.0877  0.7829 -0.2005
  796MOL0     C 7382   6.966   5.667   4.741 -0.0478  0.2360  0.3970
  796MOL0     C 7383   6.937   5.679   4.608 -0.0548 -0.3667  0.7764
  796MOL0     O 7384   6.807   5.703   4.570  0.3235  0.3728 -0.5063
  796MOL0     C 7385   6.770   5.699   4.434  0.6506  0.5345 -0.6670
  796MOL0     C 7386   6.630   5.664   4.442  0.8542  0.8052 -0.1634
  796MOL0     C 7387   6.542   5.779   4.512 -0.2128  0.1374  0.1975
  796MOL0     C 7388   6.395   5.716   4.540 -0.3258 -0.2270 -0.2930
  796MOL0     C 7389   6.315   5.733   4.417 -0.2636  1.2856  0.1791
  796MOL0     C 7390   6.232   5.742   4.330  0.3995  0.2186 -0.0095
  796MOL0     C 7391   7.046   5.671   4.510 -0.6459 -0.5528 -0.6140
  796MOL0     C 7392   7.175   5.649   4.561 -0.2238 -0.1468  0.6463
  796MOL0     H 7393   7.450   5.715   5.056 -0.9344 -0.3372 -0.8440
  796MOL0     H 7394   7.694   5.714   5.116  1.3573 -0.1211 -1.8453
  796MOL0     H 7395   7.886   5.345   5.146  0.9005 -0.3032 -0.1554
  796MOL0     H 7396   7.978   5.372   5.004 -0.3493  0.2682 -0.4461
  796MOL0     H 7397   7.996   5.484   5.295  0.1960  1.3417  1.1726
  796MOL0     H 7398   8.116   5.378   5.227  1.4904  1.0632 -1.3487
  796MOL0     H 7399   8.144   5.584   5.043  0.6167  1.9027 -0.0678
  796MOL0     H 7400   8.076   5.677   5.177 -3.8251 -1.9558 -1.1615
  796MOL0     H 7401   8.243   5.625   5.325  1.5166  2.9357 -0.8057
  796MOL0     H 7402   8.322   5.504   5.211 -0.7926  0.4580 -5.9482
  796MOL0     H 7403   8.401   5.673   5.055  1.4575 -2.7119  0.8587
  796MOL0     H 7404   8.294   5.785   5.135  0.3165 -0.6045 -0.2558
  796MOL0     H 7405   8.462   5.772   5.343  0.6968 -2.6117  1.2758
  796MOL0     H 7406   8.547   5.639   5.266  4.6611  2.4095 -1.1562
  796MOL0     H 7407   8.625   5.779   5.080  1.8835 -0.1760  1.1369
  796MOL0     H 7408   8.519   5.901   5.135 -1.2953 -0.8465 -0.4730
  796MOL0     H 7409   8.693   5.804   5.353 -0.6945 -0.4682 -0.5394
  796MOL0     H 7410   8.700   5.969   5.271 -0.5903 -0.5397  1.5552
  796MOL0     H 7411   8.827   5.591   5.235  2.8182 -0.8762  1.0925
  796MOL0     H 7412   8.994   5.479   5.096  1.3757 -1.7162  1.0444
  796MOL0     H 7413   9.133   5.564   5.018  2.1436  0.3558  1.7155
  796MOL0     H 7414   9.186   5.413   5.213 -5.8264 -2.3388 -2.4311
  796MOL0     H 7415   9.095   5.527   5.314  0.0194 -0.6711 -0.1140
  796MOL0     H 7416   9.349   5.585   5.321 -0.4284  0.2851  0.6058
  796MOL0     H 7417   9.254   5.711   5.245 -1.9672 -0.1982 -0.3923
  796MOL0     H 7418   9.483   5.617   5.143  0.6842 -1.4184 -0.9864
  796MOL0     H 7419   9.335   5.648   5.044 -0.4008  1.2320  1.5287
  796MOL0     H 7420   9.590   5.439   5.244 -1.0111  0.7054 -1.0005
  796MOL0     H 7421   9.753   5.226   5.404  0.9681  0.3433  0.3849
  796MOL0     H 7422   9.675   5.385   5.433 -2.0935  0.0057 -2.3224
  796MOL0     H 7423   9.630   5.243   5.530 -0.0281 -2.8027 -1.4770
  796MOL0     H 7424   9.624   4.767   5.486  2.0386 -3.1224  0.3100
  796MOL0     H 7425   9.621   4.528   5.519  0.4482  0.8387 -0.1160
  796MOL0     H 7426   9.507   4.264   5.353 -0.2641 -2.3430  0.5386
  796MOL0     H 7427   9.588   4.319   5.498  2.5533 -2.3695  0.0843
  796MOL0     H 7428   9.439   4.177   5.637 -0.3573 -1.5133 -0.0776
  796MOL0     H 7429   9.368   4.105   5.497  0.0739 -0.6255  1.9125
  796MOL0     H 7430   9.657   4.073   5.591  1.1496  0.8258 -2.3405
  796MOL0     H 7431   9.604   4.047   5.424  1.5606  1.7398  0.4519
  796MOL0     H 7432   9.595   3.831   5.518 -1.5223 -1.3287 -0.1684
  796MOL0     H 7433   9.506   3.885   5.659 -2.7993  3.2993  0.3321
  796MOL0     H 7434   9.301   3.897   5.517 -0.1050 -1.4297  0.9949
  796MOL0     H 7435   9.380   3.743   5.494  1.3171 -0.2938  1.3380
  796MOL0     H 7436   9.403   3.971   5.297 -0.6985  0.7279  0.0560
  796MOL0     H 7437   9.514   3.834   5.303 -0.0222 -3.1919  0.8365
  796MOL0     H 7438   9.208   3.810   5.270  0.5798  0.2431  0.9832
  796MOL0     H 7439   9.335   3.681   5.256 -1.0914 -0.9075 -1.7905
  796MOL0     H 7440   9.310   3.916   5.063 -1.0320 -1.4836  0.0196
  796MOL0     H 7441   9.245   3.759   5.044 -2.4080  2.1072  0.3318
  796MOL0     H 7442   9.198   4.521   5.412 -0.1011  1.4133 -1.1347
  796MOL0     H 7443   9.193   4.758   5.428  0.9488  2.0282  0.4558
  796MOL0     H 7444   9.342   5.025   5.201 -1.0579  0.4037 -1.7325
  796MOL0     H 7445   9.268   5.223   5.082 -1.4266 -2.7978  1.3170
  796MOL0     H 7446   7.760   5.351   4.884  0.4301  0.2806  0.5543
  796MOL0     H 7447   7.525   5.355   4.816  1.0406  1.9785 -1.9519
  796MOL0     H 7448   7.113   5.630   4.895 -0.6892  3.7933  0.3594
  796MOL0     H 7449   6.890   5.677   4.818 -0.0489  4.4498  0.1066
  796MOL0     H 7450   6.789   5.790   4.377 -2.8166  1.9383  0.1671
  796MOL0     H 7451   6.822   5.625   4.372 -0.5368 -1.7708  0.9405
  796MOL0     H 7452   6.627   5.561   4.479  2.0314  0.8703  0.1280
  796MOL0     H 7453   6.591   5.651   4.341  1.2637  1.4407 -0.4098
  796MOL0     H 7454   6.532   5.868   4.449 -1.7909  0.7722  1.3047
  796MOL0     H 7455   6.588   5.814   4.605  2.8944 -1.3197 -0.6340
  796MOL0     H 7456   6.341   5.776   4.614 -5.0982  1.1830 -4.3731
  796MOL0     H 7457   6.395   5.613   4.577 -1.9734  0.6770  2.4946
  796MOL0     H 7458   6.164   5.743   4.247  1.3781 -2.4151 -0.9388
  796MOL0     H 7459   7.022   5.692   4.406  0.2684  1.4153 -0.4707
  796MOL0     H 7460   7.261   5.642   4.494  0.2620 -1.5628  1.3656
  797MOL0     O 7461   7.239   6.267   2.059  0.5611  0.5045  0.3634
  797MOL0     C 7462   7.249   6.381   2.092  0.3667 -0.8650  0.3079
  797MOL0     O 7463   7.346   6.463   2.045  0.1117  0.0791 -0.1038
  797MOL0     C 7464   7.418   6.408   1.939 -0.6061 -1.3393  0.2871
  797MOL0     C 7465   7.356   6.418   1.810 -0.1921  0.7954  0.8378
  797MOL0     C 7466   7.427   6.391   1.703 -0.4737  0.0005 -0.0335
  797MOL0     C 7467   7.558   6.347   1.718 -0.7020  0.4157  0.8923
  797MOL0     O 7468   7.636   6.319   1.606 -0.1558 -0.4573  1.3285
  797MOL0     C 7469   7.745   6.224   1.618 -0.3536 -0.3209 -0.7256
  797MOL0     C 7470   7.779   6.184   1.473 -0.5202 -0.1007  0.0031
  797MOL0     C 7471   7.847   6.299   1.396  0.4216 -0.5210 -0.7719
  797MOL0     C 7472   7.838   6.263   1.248  0.0760 -0.0846 -0.1273
  797MOL0     C 7473   7.866   6.388   1.159  0.0310  0.6984  0.1180
  797MOL0     C 7474   7.759   6.497   1.174 -0.3403 -0.4567  0.1760
  797MOL0     C 7475   7.769   6.579   1.045 -0.7249 -0.4286 -0.3270
  797MOL0     C 7476   7.910   6.652   1.022  1.0724  0.3731  0.5355
  797MOL0     N 7477   7.883   6.758   0.925 -0.4676  0.5875  0.2881
  797MOL0     C 7478   7.887   6.731   0.790 -0.2358 -0.9803  0.1434
  797MOL0     C 7479   7.857   6.853   0.732 -0.6644  0.2690 -0.4204
  797MOL0     C 7480   7.849   6.877   0.579  0.2401 -0.0266  0.1535
  797MOL0     C 7481   7.715   6.938   0.541  0.2622 -0.3143 -0.1939
  797MOL0     C 7482   7.598   6.850   0.576 -0.1576  0.1795 -0.5319
  797MOL0     C 7483   7.467   6.926   0.580 -0.0795 -0.6990  0.6284
  797MOL0     O 7484   7.458   7.021   0.475  0.3759 -0.0927 -0.2515
  797MOL0     C 7485   7.335   7.092   0.459 -0.7426 -0.3187 -0.1856
  797MOL0     C 7486   7.312   7.162   0.344  0.3727 -0.1635  0.4485
  797MOL0     C 7487   7.216   7.252   0.310  0.5252  0.7146  0.7381
  797MOL0     C 7488   7.208   7.302   0.166 -0.9852 -0.8615  0.4871
  797MOL0     C 7489   7.125   7.277   0.416 -0.2609 -0.3081 -0.6941
  797MOL0     C 7490   6.999   7.349   0.382 -0.2592  0.5974  1.1015
  797MOL0     O 7491   6.880   7.294   0.413  0.0581 -0.1738  0.3086
  797MOL0     C 7492   6.778   7.364   0.378 -0.0431  0.3456 -0.4494
  797MOL0     C 7493   6.746   7.406   0.249  0.9537  0.6405  1.1120
  797MOL0     C 7494   6.627   7.474   0.226  0.1399 -0.4003  0.4369
  797MOL0     C 7495   6.546   7.514   0.334 -0.4832  0.1114  0.5791
  797MOL0     O 7496   6.434   7.599   0.312 -0.1263  0.1035  0.6795
  797MOL0     C 7497   6.360   7.575   0.197  0.1363 -0.5007  0.8874
  797MOL0     C 7498   6.239   7.657   0.222  0.1946 -1.2564 -1.0432
  797MOL0     C 7499   6.269   7.804   0.246  0.2026  1.4528  0.1386
  797MOL0     C 7500   6.268   7.885   0.121 -0.2774 -0.2145  0.6673
  797MOL0     C 7501   6.328   8.023   0.135 -0.0274  0.6057 -0.4663
  797MOL0     C 7502   6.379   8.077  -0.002 -0.5766  0.0947 -0.1359
  797MOL0     C 7503   6.387   8.238  -0.010 -0.5401  0.7125  1.2621
  797MOL0     C 7504   6.257   8.290  -0.064  0.0258  0.5788 -0.3334
  797MOL0    Cl 7505   6.258   8.468  -0.079  0.1518 -0.2152  0.1239
  797MOL0     C 7506   6.597   7.498   0.461 -0.4150 -1.0115  0.0396
  797MOL0     C 7507   6.701   7.423   0.484 -0.2362  0.4211  0.1221
  797MOL0     O 7508   7.013   7.459   0.325  0.3650 -0.2824 -0.2639
  797MOL0     C 7509   7.141   7.212   0.543 -0.4152 -0.5755 -0.1303
  797MOL0     C 7510   7.249   7.116   0.564  0.5321 -0.7631 -1.3410
  797MOL0     N 7511   7.840   6.943   0.837  0.0497 -0.1920  0.2358
  797MOL0     N 7512   7.865   6.893   0.947  0.9131  0.7651  0.1127
  797MOL0     C 7513   7.613   6.331   1.840 -0.9465  1.1473 -0.9768
  797MOL0     C 7514   7.539   6.358   1.953 -0.2307 -0.3450  0.0366
  797MOL0     C 7515   7.146   6.446   2.177 -1.1343  0.2008 -0.1188
  797MOL0     C 7516   7.163   6.586   2.212 -0.0034 -0.0036  0.3337
  797MOL0     C 7517   7.073   6.650   2.301 -0.1170 -0.4063  0.6795
  797MOL0     C 7518   6.963   6.581   2.355  0.0587 -0.1855  0.3679
  797MOL0     O 7519   6.884   6.634   2.456  0.4907 -0.2837 -0.2852
  797MOL0     C 7520   6.929   6.754   2.522 -0.0596 -0.4177  0.2650
  797MOL0     C 7521   6.871   6.876   2.450 -0.0381  0.1235 -0.6100
  797MOL0     C 7522   6.893   6.998   2.522  0.1796  0.2931 -0.3031
  797MOL0     C 7523   6.775   7.053   2.605 -0.4945  0.0137  0.1913
  797MOL0     C 7524   6.775   7.000   2.744 -0.1716 -1.3175  0.4114
  797MOL0     C 7525   6.769   6.951   2.855 -1.5921  0.0456 -0.2404
  797MOL0     C 7526   6.963   6.440   2.333  0.1233  0.3448 -0.5348
  797MOL0     C 7527   7.046   6.372   2.240  0.4938 -0.1745 -0.1427
  797MOL0     H 7528   7.256   6.460   1.802 -0.8885 -1.0823 -1.4174
  797MOL0     H 7529   7.399   6.423   1.603  2.0030 -0.0970 -0.8174
  797MOL0     H 7530   7.832   6.265   1.668  1.4281 -2.6004 -1.7563
  797MOL0     H 7531   7.723   6.130   1.671  0.9764 -1.6665 -2.4406
  797MOL0     H 7532   7.848   6.099   1.478 -0.3084 -0.0729 -1.8616
  797MOL0     H 7533   7.686   6.153   1.425 -0.4113  0.8265 -0.8234
  797MOL0     H 7534   7.796   6.395   1.409  1.3690 -0.2948  1.8656
  797MOL0     H 7535   7.951   6.322   1.424  0.4210 -1.3411 -0.0358
  797MOL0     H 7536   7.909   6.182   1.228 -0.7888 -1.7901  2.9682
  797MOL0     H 7537   7.740   6.224   1.218 -0.5816  1.2765  0.1761
  797MOL0     H 7538   7.969   6.423   1.168  1.3257 -2.4740 -1.0657
  797MOL0     H 7539   7.868   6.370   1.052  0.0309  2.5449 -0.2272
  797MOL0     H 7540   7.661   6.449   1.179 -0.8846  0.5400 -0.3578
  797MOL0     H 7541   7.769   6.575   1.250 -1.2638  2.2967 -2.2802
  797MOL0     H 7542   7.750   6.510   0.963 -1.8127  1.9232 -2.1969
  797MOL0     H 7543   7.691   6.656   1.048 -0.1044  0.1811  1.1545
  797MOL0     H 7544   7.977   6.576   0.982 -0.5880 -0.4306 -0.8644
  797MOL0     H 7545   7.949   6.704   1.110  0.0299  1.0784  0.6011
  797MOL0     H 7546   7.896   6.632   0.746  0.8838 -0.8163 -0.0329
  797MOL0     H 7547   7.926   6.946   0.543  1.0833 -1.1054 -0.1361
  797MOL0     H 7548   7.855   6.780   0.530 -0.5227 -0.1858  0.3579
  797MOL0     H 7549   7.727   6.969   0.437  0.6433  3.8113  0.9003
  797MOL0     H 7550   7.700   7.033   0.592 -1.4972 -0.4112 -0.4485
  797MOL0     H 7551   7.607   6.815   0.680 -2.2645 -1.3944 -0.8244
  797MOL0     H 7552   7.601   6.762   0.512  1.2932  0.0331 -0.2931
  797MOL0     H 7553   7.453   6.979   0.674 -1.6888 -0.5304  0.3197
  797MOL0     H 7554   7.390   6.849   0.578 -1.0221  0.1871  1.5650
  797MOL0     H 7555   7.369   7.135   0.256 -0.5130 -1.0588  0.1417
  797MOL0     H 7556   7.105   7.288   0.134 -0.7838 -2.0571  0.2833
  797MOL0     H 7557   7.235   7.408   0.164 -0.2897 -0.9998  1.6320
  797MOL0     H 7558   7.268   7.240   0.098 -2.6139  0.5420 -2.4273
  797MOL0     H 7559   6.815   7.382   0.169  0.9074  0.2592  1.1873
  797MOL0     H 7560   6.602   7.487   0.121  0.5275 -1.6489  0.1773
  797MOL0     H 7561   6.418   7.611   0.111 -2.4132  0.5419 -0.4965
  797MOL0     H 7562   6.335   7.469   0.194 -1.4958 -0.1706  1.5482
  797MOL0     H 7563   6.173   7.661   0.135  0.1974  2.8390 -1.0386
  797MOL0     H 7564   6.187   7.612   0.307 -1.6660  1.7850 -0.4165
  797MOL0     H 7565   6.367   7.816   0.292  1.3836 -1.9293 -1.1955
  797MOL0     H 7566   6.194   7.830   0.321 -1.5045 -1.5910 -0.3418
  797MOL0     H 7567   6.326   7.836   0.042  1.2916 -0.8159  2.1424
  797MOL0     H 7568   6.162   7.883   0.092 -0.4279  0.2430  1.1908
  797MOL0     H 7569   6.418   8.024   0.197 -0.4419  0.9393  0.1361
  797MOL0     H 7570   6.251   8.081   0.186 -0.0286  0.9949 -0.9072
  797MOL0     H 7571   6.478   8.033  -0.016  1.0095  3.2814  0.1821
  797MOL0     H 7572   6.310   8.041  -0.080 -0.0401 -0.5130 -0.3374
  797MOL0     H 7573   6.464   8.273  -0.078 -0.3427 -0.1658  1.0208
  797MOL0     H 7574   6.422   8.286   0.082  3.0895  2.1719 -0.7174
  797MOL0     H 7575   6.176   8.254   0.000  2.4489 -1.7590  1.6431
  797MOL0     H 7576   6.238   8.251  -0.164 -3.5405 -1.2048  0.8767
  797MOL0     H 7577   6.547   7.538   0.549 -0.0214 -2.7018  1.0759
  797MOL0     H 7578   6.727   7.406   0.588 -0.6039  0.1569  0.1688
  797MOL0     H 7579   7.075   7.229   0.627  0.5723  0.5734  0.4567
  797MOL0     H 7580   7.248   7.076   0.665 -5.5997  1.9058  0.1351
  797MOL0     H 7581   7.708   6.280   1.854 -0.3813  1.7540 -2.4365
  797MOL0     H 7582   7.579   6.344   2.053 -1.9342 -1.2160  0.6484
  797MOL0     H 7583   7.238   6.645   2.162 -2.0221 -1.0114 -4.4799
  797MOL0     H 7584   7.091   6.757   2.304  3.6788 -0.8952 -0.0477
  797MOL0     H 7585   6.892   6.756   2.626  1.2763 -0.1381  0.7479
  797MOL0     H 7586   7.037   6.757   2.535  0.0791  1.7784 -1.0693
  797MOL0     H 7587   6.762   6.867   2.442 -0.4949  2.3394  1.7742
  797MOL0     H 7588   6.907   6.890   2.348  0.0025  1.5155 -0.4262
  797MOL0     H 7589   6.925   7.069   2.445 -0.8546 -0.2774 -1.2846
  797MOL0     H 7590   6.979   6.990   2.590 -1.5337 -0.9491  1.8727
  797MOL0     H 7591   6.681   7.039   2.551 -0.7435 -0.6741  0.7879
  797MOL0     H 7592   6.786   7.162   2.608 -2.9818  0.3206  0.5786
  797MOL0     H 7593   6.768   6.915   2.957 -1.9731 -1.8207 -0.8573
  797MOL0     H 7594   6.882   6.393   2.389 -1.2916  2.3351 -0.8088
  797MOL0     H 7595   7.019   6.268   2.221 -2.0017  0.8338 -2.7462
  798MOL0     O 7596   6.763   7.735   9.509  0.0932 -0.6792 -0.1944
  798MOL0     C 7597   6.638   7.755   9.492 -0.1807  1.4745 -0.3107
  798MOL0     O 7598   6.580   7.774   9.369 -0.2438 -0.1896 -0.6588
  798MOL0     C 7599   6.661   7.776   9.252 -0.5185 -1.3542 -0.4145
  798MOL0     C 7600   6.758   7.676   9.212 -0.2717  0.1793 -0.6448
  798MOL0     C 7601   6.830   7.694   9.095 -0.1092  0.6746  0.4511
  798MOL0     C 7602   6.810   7.800   9.011 -0.5861  0.1239  0.3548
  798MOL0     O 7603   6.872   7.827   8.892  0.3883  0.9402  0.3526
  798MOL0     C 7604   6.995   7.752   8.873 -0.2826  0.1807 -0.4029
  798MOL0     C 7605   7.069   7.792   8.749  0.1164  0.2551  0.5964
  798MOL0     C 7606   7.150   7.920   8.754 -0.0189  0.5897  0.3154
  798MOL0     C 7607   7.265   7.934   8.652 -0.5966  0.0477 -0.6481
  798MOL0     C 7608   7.201   7.926   8.513  0.9077  0.1798  0.3714
  798MOL0     C 7609   7.290   7.974   8.399 -0.5433  0.2110 -0.0523
  798MOL0     C 7610   7.224   7.957   8.270 -0.1902 -0.5288  0.2666
  798MOL0     C 7611   7.300   8.005   8.138 -0.0065  0.1351 -0.1033
  798MOL0     N 7612   7.217   7.995   8.018  0.0219  0.0646  0.0836
  798MOL0     C 7613   7.225   8.077   7.906  0.7486 -0.3866 -0.5387
  798MOL0     C 7614   7.123   8.032   7.834 -0.1149 -0.3044 -0.1028
  798MOL0     C 7615   7.081   8.098   7.700 -0.7287  1.1145 -0.1214
  798MOL0     C 7616   7.146   8.022   7.586 -0.6450 -0.3745 -0.0092
  798MOL0     C 7617   7.296   8.032   7.582 -0.2859 -0.2451 -0.6701
  798MOL0     C 7618   7.353   7.950   7.463 -0.1524 -0.9218  1.0260
  798MOL0     O 7619   7.312   7.812   7.474  0.0956  0.1588  0.3309
  798MOL0     C 7620   7.383   7.741   7.565  0.2725  0.5595  0.8153
  798MOL0     C 7621   7.334   7.709   7.690  0.6948  0.6804 -0.7521
  798MOL0     C 7622   7.402   7.624   7.775 -0.2487  0.0027  0.6272
  798MOL0     C 7623   7.360   7.631   7.924 -1.7051 -1.0198  0.5308
  798MOL0     C 7624   7.507   7.551   7.724 -0.2956 -0.0489  0.4046
  798MOL0     C 7625   7.597   7.449   7.789 -0.1055  0.3555  0.1827
  798MOL0     O 7626   7.670   7.350   7.718 -1.1182 -0.2166  0.2600
  798MOL0     C 7627   7.773   7.276   7.781  0.8758  1.2739  0.4880
  798MOL0     C 7628   7.815   7.164   7.705 -0.4405 -0.4230  0.9059
  798MOL0     C 7629   7.923   7.083   7.738  0.4432  0.2059  0.5254
  798MOL0     C 7630   7.994   7.110   7.853 -0.6050 -0.0222 -0.3199
  798MOL0     O 7631   8.105   7.033   7.908 -0.1385  0.0350 -0.0787
  798MOL0     C 7632   8.133   6.905   7.860 -0.9672 -0.1002 -0.3168
  798MOL0     C 7633   8.283   6.888   7.887 -0.8768 -0.1056 -0.5869
  798MOL0     C 7634   8.358   6.806   7.784 -0.4615 -0.4395  0.2146
  798MOL0     C 7635   8.499   6.806   7.821 -1.0412  0.0333 -0.2172
  798MOL0     C 7636   8.568   6.689   7.758 -0.5499  0.1677 -0.5426
  798MOL0     C 7637   8.717   6.698   7.797  0.8042  0.1804 -0.5466
  798MOL0     C 7638   8.801   6.581   7.758  0.4333 -0.1723  0.6724
  798MOL0     C 7639   8.770   6.450   7.830 -0.0113 -0.0790  0.5095
  798MOL0    Cl 7640   8.871   6.321   7.750  0.1144 -0.1086  0.2922
  798MOL0     C 7641   7.951   7.220   7.935 -0.1394 -0.3239 -0.7395
  798MOL0     C 7642   7.844   7.304   7.900 -1.0675 -0.0439  0.5033
  798MOL0     O 7643   7.601   7.465   7.906  0.3585 -0.6984 -0.4723
  798MOL0     C 7644   7.545   7.572   7.587 -0.5694 -0.0997 -0.3111
  798MOL0     C 7645   7.488   7.664   7.511 -0.3076 -0.6847  0.5571
  798MOL0     N 7646   7.058   7.923   7.895  0.0461 -0.1483  0.0601
  798MOL0     N 7647   7.122   7.900   7.998 -0.4580 -1.1780 -0.2408
  798MOL0     C 7648   6.716   7.900   9.056  0.1006  0.5003  1.0490
  798MOL0     C 7649   6.644   7.891   9.173 -0.1751 -0.1179  0.2162
  798MOL0     C 7650   6.551   7.727   9.606 -0.2807 -0.0650 -0.5459
  798MOL0     C 7651   6.586   7.622   9.691 -0.4738  0.7945 -0.0855
  798MOL0     C 7652   6.498   7.584   9.796 -0.3939  0.6789 -0.0147
  798MOL0     C 7653   6.375   7.645   9.818  0.9993 -0.2614 -0.5963
  798MOL0     O 7654   6.288   7.597   9.918 -0.2935  0.1395 -0.4263
  798MOL0     C 7655   6.239   7.692  10.012 -0.2812  0.0287 -0.0228
  798MOL0     C 7656   6.354   7.738  10.106 -0.8271 -0.1737  0.4487
  798MOL0     C 7657   6.411   7.614  10.182 -0.2502  1.1792  1.0097
  798MOL0     C 7658   6.489   7.643  10.300 -0.3986  0.1041 -0.1245
  798MOL0     C 7659   6.617   7.701  10.262  0.4658 -0.2088  0.1915
  798MOL0     C 7660   6.724   7.722  10.211 -0.4231 -0.3278  0.4059
  798MOL0     C 7661   6.347   7.749   9.730 -0.1837 -0.4461  0.5755
  798MOL0     C 7662   6.434   7.803   9.634  0.3201  0.5239 -0.1253
  798MOL0     H 7663   6.769   7.596   9.284  1.7707  3.0819  2.6043
  798MOL0     H 7664   6.898   7.616   9.064 -0.2308  0.8425 -0.2752
  798MOL0     H 7665   7.066   7.770   8.954  2.0342 -3.7647 -1.2716
  798MOL0     H 7666   6.982   7.643   8.870 -1.6917  0.3296 -0.4882
  798MOL0     H 7667   7.131   7.712   8.707  1.2250  3.1242 -4.0749
  798MOL0     H 7668   6.998   7.808   8.667  2.7564  1.1109 -1.7000
  798MOL0     H 7669   7.076   7.999   8.737 -0.8237  0.2082  1.8928
  798MOL0     H 7670   7.179   7.933   8.858 -0.9524  0.1699  0.6390
  798MOL0     H 7671   7.315   8.031   8.664 -0.6503  0.3375 -2.4965
  798MOL0     H 7672   7.351   7.868   8.670  1.0234  1.6295 -2.0512
  798MOL0     H 7673   7.167   7.826   8.486  0.9858 -0.4802  2.5340
  798MOL0     H 7674   7.107   7.981   8.513  1.0674  0.4596 -0.0972
  798MOL0     H 7675   7.322   8.077   8.414  2.1406 -0.2851 -1.7500
  798MOL0     H 7676   7.381   7.915   8.385 -1.6892 -1.5464 -0.4462
  798MOL0     H 7677   7.203   7.851   8.255  0.5218 -0.2925 -3.3332
  798MOL0     H 7678   7.126   8.005   8.275 -0.4052 -0.7289 -1.4556
  798MOL0     H 7679   7.390   7.948   8.117  0.2340  0.3735  0.2807
  798MOL0     H 7680   7.324   8.110   8.156 -1.1280  0.2524  0.8371
  798MOL0     H 7681   7.289   8.162   7.885 -0.2232 -0.0685 -2.3743
  798MOL0     H 7682   6.972   8.101   7.699 -0.8895 -0.2346  2.8490
  798MOL0     H 7683   7.119   8.200   7.692 -2.8360  1.9646  0.1539
  798MOL0     H 7684   7.108   8.060   7.491  0.8080 -1.0049 -0.8736
  798MOL0     H 7685   7.114   7.917   7.587  0.3435 -0.6951 -0.5574
  798MOL0     H 7686   7.334   8.018   7.684 -0.7509  1.6083 -0.1871
  798MOL0     H 7687   7.316   8.136   7.554 -0.1702  0.3032  1.2383
  798MOL0     H 7688   7.457   7.970   7.438 -0.6797  1.6344  0.5290
  798MOL0     H 7689   7.302   7.993   7.376  1.1550  3.6137  2.1952
  798MOL0     H 7690   7.248   7.772   7.709 -0.1058 -0.9397  1.3886
  798MOL0     H 7691   7.308   7.725   7.943  1.5740  1.6922 -2.5987
  798MOL0     H 7692   7.303   7.542   7.953 -1.1670 -1.5432  0.0329
  798MOL0     H 7693   7.448   7.630   7.988  0.2326 -1.9934 -1.9790
  798MOL0     H 7694   7.760   7.143   7.614 -0.1605 -2.3242  1.1330
  798MOL0     H 7695   7.952   7.000   7.674 -0.7715 -0.0783  0.3126
  798MOL0     H 7696   8.067   6.837   7.914 -1.8739  0.9817 -0.0187
  798MOL0     H 7697   8.119   6.896   7.752 -0.7747 -0.1666 -0.3368
  798MOL0     H 7698   8.341   6.980   7.892  2.4268 -1.9997 -1.5406
  798MOL0     H 7699   8.307   6.841   7.983  0.5768  0.9382 -0.4049
  798MOL0     H 7700   8.367   6.859   7.688  0.0309 -0.0724  0.4607
  798MOL0     H 7701   8.314   6.706   7.778 -0.5006 -0.3513 -1.4464
  798MOL0     H 7702   8.539   6.899   7.779 -2.1137  0.0401 -1.2642
  798MOL0     H 7703   8.519   6.805   7.929  0.7073  0.2706 -0.5010
  798MOL0     H 7704   8.551   6.679   7.650  0.0656 -1.8455 -0.4886
  798MOL0     H 7705   8.533   6.595   7.801  1.0766  0.1194  0.7488
  798MOL0     H 7706   8.761   6.794   7.771  0.6780  0.0898 -1.1066
  798MOL0     H 7707   8.716   6.700   7.907 -0.3954 -1.4496 -0.4924
  798MOL0     H 7708   8.909   6.590   7.773  0.2235 -2.2494  4.8998
  798MOL0     H 7709   8.785   6.559   7.652  2.8628 -0.4436  0.2999
  798MOL0     H 7710   8.664   6.428   7.842  0.1016  0.5530  3.2610
  798MOL0     H 7711   8.811   6.469   7.929 -1.7474  3.2033  0.7336
  798MOL0     H 7712   8.000   7.240   8.030 -0.0465  1.4062 -1.1100
  798MOL0     H 7713   7.828   7.396   7.955  1.9859  1.3457 -0.6608
  798MOL0     H 7714   7.616   7.509   7.535 -1.0455 -0.7468 -0.1894
  798MOL0     H 7715   7.504   7.689   7.407 -2.1084  0.9949  0.6218
  798MOL0     H 7716   6.701   7.982   8.985 -2.9708  0.2746  1.2817
  798MOL0     H 7717   6.572   7.962   9.210  0.3713  0.7609 -0.3624
  798MOL0     H 7718   6.686   7.579   9.682 -0.8191 -0.5628  1.9411
  798MOL0     H 7719   6.513   7.507   9.871 -1.2203 -0.6413 -1.1626
  798MOL0     H 7720   6.185   7.774   9.964  1.3913 -0.4199 -2.9054
  798MOL0     H 7721   6.157   7.641  10.064 -0.7534 -2.1884 -2.6764
  798MOL0     H 7722   6.318   7.825  10.161  3.0226  0.4430  2.3223
  798MOL0     H 7723   6.435   7.779  10.045 -2.3202 -0.7607 -2.0845
  798MOL0     H 7724   6.471   7.554  10.113 -1.5675 -2.4521  2.7539
  798MOL0     H 7725   6.333   7.541  10.207  2.5136 -1.9237  1.3392
  798MOL0     H 7726   6.503   7.551  10.357 -0.0097  0.1828 -0.0909
  798MOL0     H 7727   6.435   7.713  10.365 -1.9874 -1.5973  0.4723
  798MOL0     H 7728   6.816   7.727  10.156 -1.4318 -1.0174 -1.4337
  798MOL0     H 7729   6.252   7.799   9.719 -0.5393 -1.4942 -1.5210
  798MOL0     H 7730   6.401   7.881   9.567  3.4028  1.1309 -1.0980
  799MOL0     O 7731   7.759   7.736   5.535 -0.7967  0.0053  0.5630
  799MOL0     C 7732   7.824   7.795   5.614 -0.1840  0.6075  0.1858
  799MOL0     O 7733   7.943   7.862   5.595  0.2275  0.4932  0.8864
  799MOL0     C 7734   7.973   7.885   5.462 -0.4560 -0.5159  0.0992
  799MOL0     C 7735   7.898   7.967   5.385 -0.7546  0.3328  0.2151
  799MOL0     C 7736   7.916   7.993   5.248 -0.4333 -0.1219  0.6294
  799MOL0     C 7737   8.019   7.927   5.185  0.5246 -0.4358  0.5005
  799MOL0     O 7738   8.048   7.949   5.057 -0.1703  0.1983  0.4789
  799MOL0     C 7739   8.036   7.844   4.951  0.4276  0.6710 -0.3803
  799MOL0     C 7740   8.046   7.904   4.817  0.7400 -0.2619 -0.3466
  799MOL0     C 7741   8.009   7.797   4.713  0.8965  0.6889 -0.1788
  799MOL0     C 7742   8.024   7.851   4.571 -0.2302  0.0046 -0.4561
  799MOL0     C 7743   8.084   7.743   4.474  0.4170  0.3184 -0.2837
  799MOL0     C 7744   8.085   7.780   4.326  0.6198  0.9084 -0.5199
  799MOL0     C 7745   7.940   7.793   4.276 -0.3057  0.1056 -0.4695
  799MOL0     C 7746   7.936   7.762   4.119 -0.7668 -0.4131 -0.2663
  799MOL0     N 7747   7.802   7.782   4.060  1.0482 -0.3749 -0.2123
  799MOL0     C 7748   7.678   7.736   4.104 -0.8639  0.1039 -0.0210
  799MOL0     C 7749   7.585   7.746   3.994 -0.6007 -0.5077 -0.6849
  799MOL0     C 7750   7.441   7.706   3.992  0.0268  0.5085 -0.3353
  799MOL0     C 7751   7.373   7.802   4.090 -0.5167 -0.3714  1.0172
  799MOL0     C 7752   7.408   7.953   4.066 -0.4097 -0.4630  0.1524
  799MOL0     C 7753   7.303   8.040   4.140  0.5136  0.2365  0.9859
  799MOL0     O 7754   7.193   8.077   4.060  0.5880 -0.6480 -0.0542
  799MOL0     C 7755   7.149   8.204   4.098 -0.5706  0.0581 -0.3017
  799MOL0     C 7756   7.142   8.308   3.997 -0.3324  1.1030  1.1086
  799MOL0     C 7757   7.075   8.418   4.024 -0.0071 -0.2014 -0.3893
  799MOL0     C 7758   7.048   8.510   3.907  0.4480  0.3406 -0.0689
  799MOL0     C 7759   7.027   8.456   4.153 -0.0665  0.2720 -0.0811
  799MOL0     C 7760   6.970   8.589   4.196 -0.4565  0.1939 -0.2762
  799MOL0     O 7761   6.917   8.676   4.111 -0.0747  0.5581  0.5943
  799MOL0     C 7762   6.913   8.805   4.149  0.4696  0.3814  0.2321
  799MOL0     C 7763   7.007   8.892   4.080  0.1306 -0.4309  0.3444
  799MOL0     C 7764   7.006   9.032   4.112 -0.6375  0.5405 -0.8515
  799MOL0     C 7765   6.907   9.079   4.194  0.2577 -0.4062  0.0016
  799MOL0     O 7766   6.902   9.215   4.240  0.3317 -0.2906  0.3050
  799MOL0     C 7767   6.999   9.313   4.194 -0.3232 -0.1078 -0.2468
  799MOL0     C 7768   6.958   9.368   4.061 -0.1664 -0.3259 -0.8202
  799MOL0     C 7769   7.067   9.472   4.012  0.0275  0.9807  0.4744
  799MOL0     C 7770   7.016   9.611   3.969 -0.6042 -0.0367  0.2971
  799MOL0     C 7771   7.145   9.691   3.934  0.0246  0.4353 -0.1154
  799MOL0     C 7772   7.124   9.836   3.973  0.1658 -0.2706 -0.3829
  799MOL0     C 7773   7.002   9.909   3.919  0.2278 -0.8307  0.7983
  799MOL0     C 7774   7.034  10.055   3.927 -0.0125  0.4525 -0.6599
  799MOL0    Cl 7775   7.172  10.095   3.816  0.1072 -0.2030 -0.4664
  799MOL0     C 7776   6.817   8.991   4.253  0.7867 -0.1034 -0.1168
  799MOL0     C 7777   6.819   8.853   4.237 -0.0452 -0.6181 -0.9807
  799MOL0     O 7778   6.976   8.608   4.319  0.7561 -0.3329  0.4013
  799MOL0     C 7779   7.044   8.358   4.248  0.2752  0.4607 -0.3180
  799MOL0     C 7780   7.104   8.233   4.224  0.0262  0.4939  0.4829
  799MOL0     N 7781   7.655   7.811   3.891  0.0290  0.3532 -1.3945
  799MOL0     N 7782   7.791   7.812   3.927  0.7656 -0.0068  0.7593
  799MOL0     C 7783   8.102   7.849   5.258 -1.0944  0.9524 -0.0465
  799MOL0     C 7784   8.083   7.830   5.399 -0.9971  0.5584  0.3937
  799MOL0     C 7785   7.781   7.805   5.758 -0.5716  0.5633  1.1659
  799MOL0     C 7786   7.878   7.842   5.858 -0.1174  0.2104  0.6982
  799MOL0     C 7787   7.842   7.862   5.993 -0.3704  0.6170  0.0261
  799MOL0     C 7788   7.701   7.845   6.021 -0.2479 -1.1935  1.1267
  799MOL0     O 7789   7.658   7.878   6.145 -0.3849 -0.2153  0.3964
  799MOL0     C 7790   7.626   8.015   6.159  1.2455 -0.3134 -0.2729
  799MOL0     C 7791   7.554   8.043   6.287  0.8142 -0.6708  0.2355
  799MOL0     C 7792   7.636   7.989   6.407  0.0489  0.1329  0.7029
  799MOL0     C 7793   7.784   8.046   6.414  0.7149  0.2288 -0.3174
  799MOL0     C 7794   7.790   8.195   6.406  0.3370  0.6331  0.1181
  799MOL0     C 7795   7.793   8.318   6.405 -0.3270  0.1570  0.3982
  799MOL0     C 7796   7.617   7.795   5.931  0.4103 -0.4226  0.5287
  799MOL0     C 7797   7.653   7.766   5.799  0.2052 -0.3498  0.8021
  799MOL0     H 7798   7.805   8.016   5.412 -0.6688  1.5718 -1.5275
  799MOL0     H 7799   7.843   8.053   5.194  0.2411  0.7372  0.6394
  799MOL0     H 7800   8.114   7.768   4.963 -0.2933 -0.1419 -0.7272
  799MOL0     H 7801   7.940   7.791   4.959 -1.3697  3.7031 -0.2580
  799MOL0     H 7802   7.971   7.984   4.810  0.6446 -0.1050  1.8600
  799MOL0     H 7803   8.145   7.949   4.806  0.6397  0.8277  2.3966
  799MOL0     H 7804   8.077   7.712   4.728  2.8575  2.6007  2.8310
  799MOL0     H 7805   7.909   7.762   4.739  0.8673  1.1282  0.3060
  799MOL0     H 7806   7.925   7.883   4.536  0.6565  2.3538 -0.9991
  799MOL0     H 7807   8.096   7.933   4.561  1.0553 -1.2915 -2.4792
  799MOL0     H 7808   8.186   7.722   4.507  0.6250  0.6333 -0.7186
  799MOL0     H 7809   8.032   7.647   4.476  0.0063  0.5373 -0.3995
  799MOL0     H 7810   8.137   7.875   4.315 -0.7927  1.4332 -3.7782
  799MOL0     H 7811   8.137   7.703   4.267  0.1355 -0.3736  0.6623
  799MOL0     H 7812   7.871   7.727   4.329 -0.0201  0.0469 -0.1688
  799MOL0     H 7813   7.902   7.892   4.304  1.0518  0.6984 -0.6570
  799MOL0     H 7814   7.950   7.655   4.103 -0.5582 -0.0334 -3.1480
  799MOL0     H 7815   8.026   7.805   4.076  1.2165 -3.7381  0.2557
  799MOL0     H 7816   7.673   7.678   4.195  0.7393  1.4101  0.9692
  799MOL0     H 7817   7.400   7.715   3.891 -0.2118  1.0942 -0.1933
  799MOL0     H 7818   7.438   7.603   4.029 -2.0691 -0.1131 -2.0672
  799MOL0     H 7819   7.417   7.771   4.185  2.5036 -1.9899 -0.7547
  799MOL0     H 7820   7.264   7.791   4.078 -0.5216  1.3591 -1.0096
  799MOL0     H 7821   7.421   7.971   3.959  2.3316 -2.1180  0.1113
  799MOL0     H 7822   7.499   7.976   4.123 -0.5243  0.6778 -0.0965
  799MOL0     H 7823   7.355   8.135   4.160 -1.3813  1.8367 -1.0721
  799MOL0     H 7824   7.275   8.009   4.241 -0.5263  2.2715  1.3865
  799MOL0     H 7825   7.188   8.280   3.903  2.2161  1.8368  2.0405
  799MOL0     H 7826   7.076   8.615   3.921  1.8503  0.3239 -2.2732
  799MOL0     H 7827   7.109   8.467   3.827  0.5256 -1.5809  0.9732
  799MOL0     H 7828   6.946   8.514   3.870 -0.2424 -0.4314  1.6570
  799MOL0     H 7829   7.065   8.846   4.001  0.9959 -1.5555  1.5784
  799MOL0     H 7830   7.079   9.093   4.058 -0.9021  2.5425  0.9559
  799MOL0     H 7831   7.014   9.398   4.261  1.6404  0.1111 -0.8892
  799MOL0     H 7832   7.099   9.271   4.182  0.1317  1.0476 -0.5560
  799MOL0     H 7833   6.966   9.284   3.991 -0.5983  1.6998 -3.4531
  799MOL0     H 7834   6.861   9.417   4.068  0.2343  0.2970  0.9378
  799MOL0     H 7835   7.120   9.425   3.928  1.9455  1.1801  1.5372
  799MOL0     H 7836   7.143   9.482   4.089  0.0203  1.8390  0.3760
  799MOL0     H 7837   6.937   9.608   3.894  0.2166 -1.6002 -0.5593
  799MOL0     H 7838   6.964   9.658   4.053 -2.0009  0.1049 -0.6184
  799MOL0     H 7839   7.169   9.676   3.828 -0.0060 -1.2336  0.0812
  799MOL0     H 7840   7.230   9.659   3.994  0.4269 -0.6115 -1.2083
  799MOL0     H 7841   7.119   9.839   4.083 -0.3974 -1.3356 -0.3642
  799MOL0     H 7842   7.216   9.894   3.962  1.0947 -2.0074 -2.2910
  799MOL0     H 7843   6.918   9.876   3.980 -0.1406  2.0583  2.0419
  799MOL0     H 7844   6.980   9.888   3.814  1.9670  3.3320 -0.6255
  799MOL0     H 7845   7.068  10.086   4.026  0.8883  2.3533 -1.5167
  799MOL0     H 7846   6.942  10.109   3.901 -0.2225  0.6754  0.4742
  799MOL0     H 7847   6.741   9.032   4.318  0.9348 -0.1610  0.0928
  799MOL0     H 7848   6.745   8.794   4.289 -0.7265  1.4865  0.5464
  799MOL0     H 7849   6.992   8.370   4.343  1.9539  1.1866  0.5480
  799MOL0     H 7850   7.117   8.159   4.303  1.9449 -0.0629 -0.3217
  799MOL0     H 7851   8.179   7.792   5.209 -2.5146 -0.8674 -0.2759
  799MOL0     H 7852   8.156   7.762   5.443 -1.5237 -0.9339 -0.9193
  799MOL0     H 7853   7.985   7.853   5.843 -0.0432 -0.1092  0.9773
  799MOL0     H 7854   7.916   7.886   6.069  1.5111 -0.3362 -1.4286
  799MOL0     H 7855   7.716   8.075   6.170  1.8491 -1.4981  1.9772
  799MOL0     H 7856   7.573   8.063   6.076 -0.1144 -0.3017  0.5553
  799MOL0     H 7857   7.456   7.994   6.286  0.9983 -1.0616 -0.9295
  799MOL0     H 7858   7.536   8.151   6.281 -0.1497 -0.8514 -0.2690
  799MOL0     H 7859   7.644   7.880   6.409  0.2252  0.1186  3.0815
  799MOL0     H 7860   7.577   8.015   6.496 -3.7122  1.8541 -2.0209
  799MOL0     H 7861   7.849   7.997   6.341 -1.4624 -0.8223 -1.6453
  799MOL0     H 7862   7.826   8.010   6.508 -0.2044 -0.1367 -0.0290
  799MOL0     H 7863   7.810   8.424   6.398  1.7434 -0.1664 -0.1661
  799MOL0     H 7864   7.513   7.793   5.961 -0.2914  3.9188 -0.9591
  799MOL0     H 7865   7.580   7.731   5.726  2.6656  0.6459 -2.3501
  800MOL0     O 7866   2.373   3.681   4.738  0.4137 -0.3122 -0.7368
  800MOL0     C 7867   2.321   3.746   4.827 -0.4584 -0.3538 -0.2998
  800MOL0     O 7868   2.389   3.800   4.932 -0.3700 -0.1830 -0.5727
  800MOL0     C 7869   2.527   3.798   4.946  0.3227  0.6474 -0.4528
  800MOL0     C 7870   2.571   3.896   5.029  0.5404  0.0642  0.1321
  800MOL0     C 7871   2.703   3.915   5.048  0.3026 -0.3602 -0.3672
  800MOL0     C 7872   2.800   3.843   4.975 -0.0816  0.4007 -1.4180
  800MOL0     O 7873   2.933   3.884   5.001  0.2968 -0.4324  0.0505
  800MOL0     C 7874   3.042   3.804   4.960 -0.1775 -0.4432  0.2812
  800MOL0     C 7875   3.173   3.884   4.992 -0.9828  0.6292  0.7216
  800MOL0     C 7876   3.185   3.999   4.881  0.2366 -0.0120 -0.5834
  800MOL0     C 7877   3.304   4.089   4.928  0.1927  0.1971  0.1358
  800MOL0     C 7878   3.376   4.138   4.803 -0.1598 -0.7016 -0.0812
  800MOL0     C 7879   3.514   4.209   4.835 -0.2974 -0.2778  0.2034
  800MOL0     C 7880   3.598   4.247   4.716 -0.4285 -0.0445 -0.6322
  800MOL0     C 7881   3.714   4.324   4.754 -0.2418 -0.5281 -0.8041
  800MOL0     N 7882   3.782   4.383   4.636 -0.1805  0.7657  0.3106
  800MOL0     C 7883   3.824   4.514   4.625  0.1128  0.4508 -0.1187
  800MOL0     C 7884   3.872   4.522   4.499 -0.0882 -0.4173  0.5672
  800MOL0     C 7885   3.931   4.653   4.455 -0.5007  0.2295  0.0126
  800MOL0     C 7886   4.067   4.683   4.524  0.5838  0.8559  0.4211
  800MOL0     C 7887   4.171   4.580   4.486 -1.2872  0.0624  0.7685
  800MOL0     C 7888   4.298   4.625   4.559  0.0070 -0.1281 -0.4322
  800MOL0     O 7889   4.374   4.726   4.484  0.7103  0.5556 -0.0273
  800MOL0     C 7890   4.482   4.774   4.547  0.3777  0.2370 -0.2385
  800MOL0     C 7891   4.538   4.886   4.495 -0.4659 -0.9754  0.3752
  800MOL0     C 7892   4.646   4.960   4.547  0.8683  0.1894  0.2484
  800MOL0     C 7893   4.674   5.092   4.485 -0.0714 -0.1543  0.1950
  800MOL0     C 7894   4.694   4.906   4.667 -0.0414  0.3737  0.6372
  800MOL0     C 7895   4.785   4.981   4.756 -0.1241  0.5754  0.0921
  800MOL0     O 7896   4.875   4.900   4.830 -0.9511 -0.5078  0.3524
  800MOL0     C 7897   4.959   4.966   4.920 -0.3292 -0.2496 -0.5739
  800MOL0     C 7898   5.088   4.989   4.886 -1.5075 -0.3374  0.2176
  800MOL0     C 7899   5.173   5.046   4.986 -0.2557  0.6706  0.5945
  800MOL0     C 7900   5.131   5.090   5.113 -0.2742  1.2943  0.9003
  800MOL0     O 7901   5.224   5.134   5.203  0.6845 -0.9636  0.7448
  800MOL0     C 7902   5.182   5.227   5.303  0.8029 -0.0960  0.3774
  800MOL0     C 7903   5.292   5.318   5.342  0.2484  0.0051  0.4858
  800MOL0     C 7904   5.333   5.404   5.218  0.6115 -0.4324  0.3398
  800MOL0     C 7905   5.455   5.505   5.239 -0.2599  0.3037 -0.1587
  800MOL0     C 7906   5.476   5.579   5.103  0.6317  0.1196 -0.0841
  800MOL0     C 7907   5.603   5.655   5.108  0.1523  0.0286  0.1766
  800MOL0     C 7908   5.637   5.734   5.241  0.1644 -0.2651  0.4358
  800MOL0     C 7909   5.691   5.878   5.225 -0.1157  0.0158 -0.5745
  800MOL0    Cl 7910   5.860   5.897   5.145 -0.0519  0.3278 -0.6365
  800MOL0     C 7911   4.986   5.077   5.142 -0.5707 -0.1598 -0.0732
  800MOL0     C 7912   4.902   5.014   5.042  0.2752 -0.5176  1.0700
  800MOL0     O 7913   4.774   5.099   4.773 -0.4692 -0.7277  0.7194
  800MOL0     C 7914   4.637   4.794   4.730  0.1802  0.4589 -0.5020
  800MOL0     C 7915   4.533   4.726   4.670 -0.3864  0.1619 -0.0542
  800MOL0     N 7916   3.880   4.395   4.442  0.0173 -0.0773  0.3384
  800MOL0     N 7917   3.829   4.311   4.527  0.3988  0.0274 -0.7558
  800MOL0     C 7918   2.756   3.739   4.880 -0.1364 -0.5024 -0.4279
  800MOL0     C 7919   2.614   3.719   4.874  0.2221 -0.1444 -1.2450
  800MOL0     C 7920   2.176   3.766   4.822 -0.3317 -0.3514  0.4026
  800MOL0     C 7921   2.096   3.732   4.716  0.2316 -1.0432  0.0811
  800MOL0     C 7922   1.958   3.761   4.710  0.0345  0.1955  0.5019
  800MOL0     C 7923   1.894   3.840   4.802 -0.6883  0.1699  0.0159
  800MOL0     O 7924   1.767   3.895   4.801  0.0418  0.0291 -0.2836
  800MOL0     C 7925   1.697   3.896   4.673 -0.1873  0.9239  0.4065
  800MOL0     C 7926   1.576   3.992   4.667  0.0489 -0.5983 -0.9789
  800MOL0     C 7927   1.464   3.966   4.562 -0.7698  0.0693  0.1067
  800MOL0     C 7928   1.507   3.996   4.421  0.6928  0.3433  0.1359
  800MOL0     C 7929   1.506   4.139   4.393 -0.0904  0.6390  0.2026
  800MOL0     C 7930   1.516   4.257   4.376 -0.1091  0.2551  1.0509
  800MOL0     C 7931   1.976   3.871   4.916  0.7646  0.6319  0.2065
  800MOL0     C 7932   2.111   3.837   4.925 -0.4302 -0.6030  0.9135
  800MOL0     H 7933   2.495   3.953   5.081  1.7205  0.6781  1.2180
  800MOL0     H 7934   2.737   3.997   5.110  0.3306 -0.0979 -0.7206
  800MOL0     H 7935   3.034   3.707   5.009 -0.7979  0.3690  1.8708
  800MOL0     H 7936   3.047   3.782   4.853  1.1294  0.3835  0.1415
  800MOL0     H 7937   3.177   3.923   5.094  2.0417 -1.0258  1.3338
  800MOL0     H 7938   3.256   3.815   4.984 -1.4384  0.1877 -0.4783
  800MOL0     H 7939   3.205   3.964   4.779  1.3649  2.8561 -1.4459
  800MOL0     H 7940   3.089   4.050   4.871  0.4886  0.5068 -0.3940
  800MOL0     H 7941   3.272   4.170   4.993  0.4064 -2.2857  3.6002
  800MOL0     H 7942   3.371   4.021   4.982 -2.1119 -0.2787  2.6174
  800MOL0     H 7943   3.407   4.049   4.746  1.4100  0.1670 -0.6649
  800MOL0     H 7944   3.314   4.195   4.732  1.6212 -0.4666 -1.5471
  800MOL0     H 7945   3.487   4.299   4.891 -0.3884 -0.2928  0.1835
  800MOL0     H 7946   3.579   4.155   4.905 -0.3436 -0.8378 -0.1798
  800MOL0     H 7947   3.611   4.165   4.644 -1.0770 -0.2083 -0.5722
  800MOL0     H 7948   3.533   4.313   4.657 -3.9345 -2.3596  0.2910
  800MOL0     H 7949   3.786   4.256   4.801  0.6777  0.1614 -1.1783
  800MOL0     H 7950   3.691   4.412   4.816 -0.9387 -1.1734 -0.1286
  800MOL0     H 7951   3.804   4.582   4.707  0.2083  0.1701  0.1358
  800MOL0     H 7952   3.956   4.654   4.348 -1.9322  0.0723 -0.3457
  800MOL0     H 7953   3.860   4.734   4.471 -1.7117 -0.5768 -1.0159
  800MOL0     H 7954   4.054   4.670   4.632 -1.7994 -1.6633 -0.0608
  800MOL0     H 7955   4.107   4.779   4.490 -1.4980  0.8787 -2.2962
  800MOL0     H 7956   4.187   4.591   4.378  0.3917  3.1677  1.2223
  800MOL0     H 7957   4.141   4.483   4.527 -1.1050 -0.5618 -0.5109
  800MOL0     H 7958   4.346   4.529   4.581  0.3845  0.1120 -0.1983
  800MOL0     H 7959   4.277   4.674   4.655  3.2020  0.9703 -0.1689
  800MOL0     H 7960   4.503   4.926   4.400 -0.9079  0.5986  1.1753
  800MOL0     H 7961   4.738   5.071   4.398  0.8791 -0.3510  0.9134
  800MOL0     H 7962   4.589   5.143   4.441 -0.8910 -1.0985  0.6487
  800MOL0     H 7963   4.735   5.159   4.546  0.0512 -0.3131  0.2498
  800MOL0     H 7964   5.139   4.951   4.799  2.2360  1.1242  1.5897
  800MOL0     H 7965   5.279   5.050   4.962  0.1447 -3.6908  0.7913
  800MOL0     H 7966   5.103   5.288   5.259  0.1401 -0.0132  1.6663
  800MOL0     H 7967   5.137   5.178   5.390 -1.3818 -1.0640 -1.1994
  800MOL0     H 7968   5.259   5.387   5.421  0.3864 -1.1855  1.6225
  800MOL0     H 7969   5.381   5.270   5.383 -0.1314 -0.9257  0.2553
  800MOL0     H 7970   5.246   5.465   5.192  0.2736 -0.1461  2.0281
  800MOL0     H 7971   5.365   5.331   5.143 -1.1299 -2.3403  1.3746
  800MOL0     H 7972   5.435   5.582   5.315  1.2959  1.2882 -0.7011
  800MOL0     H 7973   5.539   5.440   5.264 -1.2950 -0.9231  0.2623
  800MOL0     H 7974   5.391   5.644   5.079 -0.0873  0.6272  3.2420
  800MOL0     H 7975   5.497   5.505   5.025  1.9543  0.7046 -0.3044
  800MOL0     H 7976   5.676   5.575   5.091  0.5434  0.9548 -3.2848
  800MOL0     H 7977   5.612   5.725   5.024 -0.1428 -0.8214 -0.5920
  800MOL0     H 7978   5.704   5.673   5.302 -0.7613 -3.2756 -1.3275
  800MOL0     H 7979   5.551   5.748   5.307  0.1877 -3.1776  1.2249
  800MOL0     H 7980   5.696   5.928   5.322  1.1174  0.0111 -0.6166
  800MOL0     H 7981   5.617   5.939   5.171  0.1657  0.4771 -0.4468
  800MOL0     H 7982   4.949   5.107   5.239  0.0782 -1.9543  0.7730
  800MOL0     H 7983   4.797   4.993   5.058  0.2328 -2.2396 -0.9511
  800MOL0     H 7984   4.674   4.737   4.814 -2.4318  0.1952  0.5453
  800MOL0     H 7985   4.505   4.633   4.718  2.0990  1.0276  3.4196
  800MOL0     H 7986   2.828   3.681   4.823 -0.1982  1.0419 -2.1919
  800MOL0     H 7987   2.579   3.625   4.833 -2.3077  0.2303 -0.1018
  800MOL0     H 7988   2.149   3.677   4.640 -0.6357 -1.1827 -0.4395
  800MOL0     H 7989   1.900   3.729   4.624 -0.8298  1.6344  0.5113
  800MOL0     H 7990   1.771   3.936   4.604 -1.9740  2.6552 -0.6030
  800MOL0     H 7991   1.647   3.801   4.649 -0.3197  1.2614 -0.7151
  800MOL0     H 7992   1.604   4.098   4.660 -0.7667 -0.3976 -1.2429
  800MOL0     H 7993   1.535   3.983   4.767  2.5257 -2.3895 -0.0130
  800MOL0     H 7994   1.375   4.024   4.589 -0.9185  0.5454 -1.3386
  800MOL0     H 7995   1.453   3.858   4.573  1.5113 -0.1672  0.5954
  800MOL0     H 7996   1.432   3.962   4.349  0.7541 -1.1783  0.7520
  800MOL0     H 7997   1.608   3.956   4.406  1.0145  1.6936 -1.5132
  800MOL0     H 7998   1.509   4.362   4.358 -2.2079 -0.0346 -0.0756
  800MOL0     H 7999   1.925   3.921   4.997 -1.6596 -0.8681 -0.2717
  800MOL0     H 8000   2.155   3.869   5.019 -2.8089  0.2816  1.8227
  801MOL0     O 8001   0.621   4.523   1.620 -0.2565 -0.5047  0.4024
  801MOL0     C 8002   0.632   4.436   1.534 -0.1451  0.6181 -0.1956
  801MOL0     O 8003   0.754   4.389   1.487 -0.7429  0.4795  0.0308
  801MOL0     C 8004   0.869   4.446   1.542  0.1357 -0.2722 -0.0976
  801MOL0     C 8005   0.932   4.552   1.490 -0.3953  0.3152 -0.5394
  801MOL0     C 8006   1.048   4.606   1.552  0.2902 -0.3432 -0.1441
  801MOL0     C 8007   1.094   4.549   1.676  1.0342  0.1911  0.6295
  801MOL0     O 8008   1.205   4.608   1.738  0.6230  0.8753  0.3922
  801MOL0     C 8009   1.259   4.547   1.852 -0.6840 -0.4033  0.1017
  801MOL0     C 8010   1.376   4.626   1.886  0.0452 -0.1548  1.0244
  801MOL0     C 8011   1.347   4.783   1.886  0.4094 -0.4850 -0.2058
  801MOL0     C 8012   1.464   4.865   1.948  0.1909  0.3436  0.2642
  801MOL0     C 8013   1.429   5.020   1.940 -0.3801 -0.4507 -0.3079
  801MOL0     C 8014   1.559   5.095   1.982 -0.3250 -1.0380  0.7287
  801MOL0     C 8015   1.547   5.244   1.945 -0.0147 -0.6829 -0.2654
  801MOL0     C 8016   1.460   5.313   2.056 -0.2652  0.3751 -0.1316
  801MOL0     N 8017   1.533   5.316   2.185  0.5467  0.7514  0.4404
  801MOL0     C 8018   1.650   5.384   2.203 -0.0061 -0.1471 -0.3887
  801MOL0     C 8019   1.643   5.416   2.333 -0.5936 -0.3008 -0.5302
  801MOL0     C 8020   1.729   5.519   2.398 -0.1544  0.0136  1.0417
  801MOL0     C 8021   1.813   5.452   2.505  0.0827 -0.5446 -0.1255
  801MOL0     C 8022   1.874   5.547   2.605  0.3751 -1.1852  0.5041
  801MOL0     C 8023   1.945   5.489   2.728 -0.2954 -0.3713 -0.8966
  801MOL0     O 8024   2.081   5.454   2.711 -0.0372  0.2748 -0.0676
  801MOL0     C 8025   2.159   5.396   2.809  0.0776 -0.0505 -0.1604
  801MOL0     C 8026   2.301   5.409   2.778 -0.5144  0.5655 -0.6974
  801MOL0     C 8027   2.402   5.360   2.869 -0.4303  0.6176  0.1491
  801MOL0     C 8028   2.543   5.380   2.826 -0.4496 -0.0116 -0.1175
  801MOL0     C 8029   2.363   5.287   2.985  0.6241 -0.4154  0.5824
  801MOL0     C 8030   2.456   5.223   3.090  0.3817 -0.2991  0.3206
  801MOL0     O 8031   2.593   5.253   3.079  0.1096  0.1592  0.8229
  801MOL0     C 8032   2.686   5.162   3.122 -0.5385 -0.3020 -0.0354
  801MOL0     C 8033   2.768   5.136   3.016 -0.0016  0.1471  0.7262
  801MOL0     C 8034   2.885   5.058   3.040  0.1256 -0.4836 -0.0231
  801MOL0     C 8035   2.907   5.003   3.168 -0.7182  0.3202 -0.1338
  801MOL0     O 8036   3.018   4.928   3.183 -0.3180 -0.7867  0.4737
  801MOL0     C 8037   3.104   4.900   3.068 -0.0477  0.4638  0.5236
  801MOL0     C 8038   3.222   4.813   3.105 -0.4026  0.1894  0.8757
  801MOL0     C 8039   3.193   4.658   3.131  1.2267 -0.2786  0.6322
  801MOL0     C 8040   3.291   4.590   3.233  0.1416 -0.9814 -0.1426
  801MOL0     C 8041   3.264   4.443   3.237  0.8849 -1.3282  0.5110
  801MOL0     C 8042   3.286   4.372   3.106  0.4783 -0.1781  0.0721
  801MOL0     C 8043   3.418   4.405   3.031 -0.8403  0.8150 -0.7963
  801MOL0     C 8044   3.535   4.365   3.127  0.1884 -0.3868  0.0482
  801MOL0    Cl 8045   3.685   4.343   3.044  0.0703 -0.5272 -0.4803
  801MOL0     C 8046   2.817   5.020   3.269 -0.8531 -0.2655 -0.5629
  801MOL0     C 8047   2.698   5.100   3.248  0.0022  0.3888  0.0696
  801MOL0     O 8048   2.412   5.148   3.175  0.2938  0.2008  0.8240
  801MOL0     C 8049   2.223   5.276   3.011 -0.4472  0.1166 -0.5236
  801MOL0     C 8050   2.128   5.340   2.930 -0.2806 -0.1560  0.1186
  801MOL0     N 8051   1.529   5.359   2.389 -0.3052 -0.3438  0.0635
  801MOL0     N 8052   1.469   5.298   2.300  0.4330  0.1180 -0.3334
  801MOL0     C 8053   1.016   4.453   1.734  0.7271 -0.4374  0.0803
  801MOL0     C 8054   0.917   4.388   1.664  0.0425  0.4891 -0.4054
  801MOL0     C 8055   0.511   4.366   1.486 -1.0498 -1.0973  0.0723
  801MOL0     C 8056   0.392   4.364   1.566 -0.2337 -1.1228  0.5848
  801MOL0     C 8057   0.288   4.287   1.522 -0.1241 -0.6737 -0.5979
  801MOL0     C 8058   0.290   4.208   1.404  0.0923 -0.6127  0.0291
  801MOL0     O 8059   0.178   4.137   1.391 -0.5923  0.2997 -0.0248
  801MOL0     C 8060   0.156   4.077   1.260 -0.5191 -0.0025  0.8759
  801MOL0     C 8061   0.042   3.976   1.277 -0.1955  0.2906  0.2243
  801MOL0     C 8062  -0.069   4.026   1.362  0.0545  0.2164 -1.6317
  801MOL0     C 8063  -0.175   3.918   1.405 -0.5120 -0.2734  0.4353
  801MOL0     C 8064  -0.256   3.858   1.292  0.8301 -0.3589  0.8543
  801MOL0     C 8065  -0.296   3.803   1.194  0.7070 -0.0844  1.2460
  801MOL0     C 8066   0.403   4.216   1.321 -0.1900 -0.1178  0.3390
  801MOL0     C 8067   0.519   4.290   1.369  0.5091  0.3051 -0.7410
  801MOL0     H 8068   0.891   4.598   1.401  0.3239 -0.3189 -1.2133
  801MOL0     H 8069   1.093   4.701   1.524  0.6253  0.5802  3.1333
  801MOL0     H 8070   1.188   4.561   1.934 -1.6843  0.3772 -0.8659
  801MOL0     H 8071   1.288   4.443   1.834  0.4794  0.0054 -0.5420
  801MOL0     H 8072   1.406   4.593   1.986  1.2997 -0.8687  0.4386
  801MOL0     H 8073   1.455   4.605   1.812 -3.2084 -0.6886 -2.6181
  801MOL0     H 8074   1.324   4.831   1.791  0.0685  0.3349  0.2829
  801MOL0     H 8075   1.262   4.783   1.955  1.5125 -0.7362  1.2047
  801MOL0     H 8076   1.478   4.831   2.051 -1.1984 -0.1612  0.3121
  801MOL0     H 8077   1.560   4.839   1.904 -1.0742 -0.0312 -2.5265
  801MOL0     H 8078   1.406   5.050   1.837  0.5449 -0.9937 -0.6907
  801MOL0     H 8079   1.351   5.052   2.009  1.8560 -0.1114  2.2145
  801MOL0     H 8080   1.583   5.092   2.088 -0.7914  1.2074  0.9465
  801MOL0     H 8081   1.650   5.069   1.928  0.9935  3.9887  0.0095
  801MOL0     H 8082   1.640   5.302   1.947 -0.5936  0.2573  0.5633
  801MOL0     H 8083   1.486   5.253   1.855  0.6924 -0.6262 -0.7421
  801MOL0     H 8084   1.360   5.273   2.074 -0.5449  1.9249  2.3127
  801MOL0     H 8085   1.456   5.417   2.022  2.8556  0.2651 -1.1538
  801MOL0     H 8086   1.724   5.418   2.132 -0.3910  2.8632  0.5301
  801MOL0     H 8087   1.789   5.568   2.321 -2.0407  2.3321  0.9544
  801MOL0     H 8088   1.679   5.608   2.436  0.7036  0.2826  1.5846
  801MOL0     H 8089   1.897   5.387   2.476  1.2348  0.7834  0.1169
  801MOL0     H 8090   1.741   5.383   2.549  1.9037 -1.2918  1.8857
  801MOL0     H 8091   1.804   5.624   2.638  1.1921  1.2942 -3.0477
  801MOL0     H 8092   1.944   5.604   2.544  0.6407 -0.1547  1.7132
  801MOL0     H 8093   1.893   5.402   2.770  2.7478  0.3039  5.3879
  801MOL0     H 8094   1.952   5.571   2.800  1.6851  0.1285 -1.6013
  801MOL0     H 8095   2.331   5.458   2.686  0.3451  5.1423  1.7259
  801MOL0     H 8096   2.589   5.280   2.829  0.6620  0.4802  2.6644
  801MOL0     H 8097   2.563   5.429   2.730  0.6830  1.1193  0.6677
  801MOL0     H 8098   2.606   5.438   2.894  0.4917  1.4046 -2.1019
  801MOL0     H 8099   2.735   5.164   2.917 -0.5988  3.2878  1.7166
  801MOL0     H 8100   2.947   5.054   2.951  1.6012  0.1622  0.9366
  801MOL0     H 8101   3.048   4.845   2.991  1.1608  0.7322 -0.5937
  801MOL0     H 8102   3.153   4.986   3.021 -4.7490  2.9251 -0.5468
  801MOL0     H 8103   3.297   4.824   3.027 -0.2052 -0.6553  0.9348
  801MOL0     H 8104   3.269   4.860   3.192  0.0462  1.1491  0.1318
  801MOL0     H 8105   3.194   4.604   3.036  1.3985  0.4437  0.2101
  801MOL0     H 8106   3.089   4.650   3.166 -0.0333  0.5280 -2.5702
  801MOL0     H 8107   3.396   4.613   3.214 -0.5627  1.5462 -1.3596
  801MOL0     H 8108   3.254   4.641   3.322 -0.0360  1.2379 -1.4119
  801MOL0     H 8109   3.160   4.437   3.271  0.9142  0.4928  1.0111
  801MOL0     H 8110   3.319   4.409   3.325  2.7746  2.7368  1.1052
  801MOL0     H 8111   3.268   4.264   3.114 -0.3635 -0.5096 -3.8701
  801MOL0     H 8112   3.199   4.402   3.046  1.2050  3.2484  0.5244
  801MOL0     H 8113   3.427   4.504   2.985  2.0345  0.5052 -1.0936
  801MOL0     H 8114   3.439   4.340   2.945 -0.8528 -1.3969  0.7754
  801MOL0     H 8115   3.500   4.272   3.174 -0.5309  0.7159  1.7735
  801MOL0     H 8116   3.550   4.431   3.213  2.0994  0.1353 -0.6236
  801MOL0     H 8117   2.820   4.958   3.358  0.4804  0.9175  0.2474
  801MOL0     H 8118   2.626   5.126   3.325 -0.8842 -0.1499 -0.5668
  801MOL0     H 8119   2.198   5.215   3.098  0.0433 -0.2488 -0.6328
  801MOL0     H 8120   2.021   5.325   2.935 -0.0957 -3.5666 -2.5767
  801MOL0     H 8121   1.042   4.439   1.838  2.4020  3.2361  0.3067
  801MOL0     H 8122   0.857   4.315   1.717 -2.8630  1.6243 -1.8871
  801MOL0     H 8123   0.385   4.423   1.657  1.7631 -0.5816  0.4490
  801MOL0     H 8124   0.202   4.276   1.586 -1.2251 -1.2635 -2.1238
  801MOL0     H 8125   0.119   4.144   1.182 -0.7640  0.9976  1.8281
  801MOL0     H 8126   0.246   4.035   1.214 -0.6964  0.8466 -0.3000
  801MOL0     H 8127   0.070   3.878   1.315 -3.3574 -0.1825  1.6227
  801MOL0     H 8128  -0.000   3.943   1.181 -1.8398 -1.2251  1.4033
  801MOL0     H 8129  -0.114   4.111   1.310 -1.0966 -1.2119 -3.0723
  801MOL0     H 8130  -0.031   4.070   1.455  0.0521  0.0278 -1.5399
  801MOL0     H 8131  -0.250   3.960   1.472 -1.7180 -2.4767  0.5698
  801MOL0     H 8132  -0.134   3.825   1.446 -1.0880 -2.1749 -2.9520
  801MOL0     H 8133  -0.357   3.751   1.122 -1.1647  2.7704  0.5842
  801MOL0     H 8134   0.414   4.161   1.228  2.5869  2.3443 -0.9655
  801MOL0     H 8135   0.606   4.292   1.304 -2.2638 -0.0256 -4.8606
  802MOL0     O 8136  11.401   9.295   0.271 -1.0534 -0.7821 -0.4831
  802MOL0     C 8137  11.280   9.322   0.293 -0.2475 -0.0738  0.4255
  802MOL0     O 8138  11.237   9.400   0.388  1.1012  0.1857 -0.5213
  802MOL0     C 8139  11.332   9.471   0.461 -0.2359  0.8816 -0.7517
  802MOL0     C 8140  11.360   9.433   0.596  0.9951 -0.6614 -0.5198
  802MOL0     C 8141  11.441   9.511   0.681  0.3476  0.9554  0.4545
  802MOL0     C 8142  11.513   9.616   0.627 -0.4105  0.3859 -0.0709
  802MOL0     O 8143  11.601   9.696   0.700  0.2412 -0.6936  0.2466
  802MOL0     C 8144  11.616   9.683   0.837  0.3008 -1.1053 -0.4391
  802MOL0     C 8145  11.677   9.822   0.882  0.1783 -0.0697 -0.7367
  802MOL0     C 8146  11.722   9.837   1.028 -0.6928  0.2516 -0.1741
  802MOL0     C 8147  11.827   9.727   1.068  0.6408 -0.5718  0.3945
  802MOL0     C 8148  11.864   9.714   1.221  0.0808  0.4287 -0.1627
  802MOL0     C 8149  11.943   9.840   1.271  0.6382  0.3837 -0.4832
  802MOL0     C 8150  11.950   9.852   1.427 -0.0057 -0.0543  0.1059
  802MOL0     C 8151  11.823   9.928   1.479 -0.0187 -0.2686  0.3204
  802MOL0     N 8152  11.717   9.837   1.533 -0.5679  0.5265  0.5214
  802MOL0     C 8153  11.735   9.768   1.653  0.2886  0.5709 -0.2165
  802MOL0     C 8154  11.614   9.721   1.682  0.8483 -0.2773 -0.5341
  802MOL0     C 8155  11.588   9.632   1.807  0.2192  0.3512 -0.2870
  802MOL0     C 8156  11.536   9.499   1.750 -0.2955 -0.6516 -0.6699
  802MOL0     C 8157  11.386   9.509   1.754 -0.1813  0.3225  0.4484
  802MOL0     C 8158  11.344   9.366   1.706  0.0878 -0.0304  0.1019
  802MOL0     O 8159  11.340   9.361   1.558  0.1019  0.2510 -0.5641
  802MOL0     C 8160  11.266   9.265   1.497  0.6411  0.4483  0.5359
  802MOL0     C 8161  11.220   9.293   1.368 -0.1648  0.1800  0.4404
  802MOL0     C 8162  11.149   9.198   1.295  0.9335  0.0916  0.6162
  802MOL0     C 8163  11.071   9.265   1.179  0.4216  0.7020 -0.6265
  802MOL0     C 8164  11.136   9.066   1.345 -0.0026 -0.2264  0.2906
  802MOL0     C 8165  11.061   8.962   1.277 -0.0292 -0.0695  0.1532
  802MOL0     O 8166  11.048   8.844   1.339  0.6194  1.2801 -0.3384
  802MOL0     C 8167  10.980   8.750   1.279 -0.8156 -0.4065  1.3640
  802MOL0     C 8168  11.053   8.661   1.197 -0.1260  0.2440 -0.6181
  802MOL0     C 8169  10.988   8.561   1.129  0.4743  0.3118  0.8090
  802MOL0     C 8170  10.853   8.538   1.144  0.9590  0.6617 -0.5752
  802MOL0     O 8171  10.799   8.443   1.058  0.0885 -0.3648  0.3605
  802MOL0     C 8172  10.687   8.485   0.982 -0.7617 -0.2568 -0.0168
  802MOL0     C 8173  10.674   8.386   0.868  0.6587 -0.1992  0.8758
  802MOL0     C 8174  10.651   8.249   0.908 -0.6359 -1.6607  0.0072
  802MOL0     C 8175  10.612   8.160   0.795 -0.1956  0.7711  0.3808
  802MOL0     C 8176  10.647   8.013   0.839  0.0421 -0.4187  0.4050
  802MOL0     C 8177  10.646   7.927   0.714  0.3494 -0.8268 -0.7575
  802MOL0     C 8178  10.534   7.943   0.621  0.4971 -0.0601  0.1925
  802MOL0     C 8179  10.531   7.833   0.508  0.1406 -0.1090  0.2195
  802MOL0    Cl 8180  10.689   7.795   0.452  0.2061  0.2501 -0.1669
  802MOL0     C 8181  10.774   8.627   1.218  0.1504  0.4250  0.3072
  802MOL0     C 8182  10.839   8.736   1.289  0.7929 -0.0434 -0.2045
  802MOL0     O 8183  11.004   8.992   1.169 -0.4373  0.2231 -0.6129
  802MOL0     C 8184  11.183   9.039   1.481  0.4144  0.8934 -0.2130
  802MOL0     C 8185  11.257   9.138   1.544  0.1335 -0.9564 -0.0747
  802MOL0     N 8186  11.519   9.765   1.584 -0.0349  0.4903 -0.3062
  802MOL0     N 8187  11.588   9.822   1.492 -0.8112  0.0741 -0.3768
  802MOL0     C 8188  11.495   9.654   0.486 -0.2793  0.2370 -0.3109
  802MOL0     C 8189  11.415   9.571   0.405  0.9751  0.7131 -0.5541
  802MOL0     C 8190  11.187   9.238   0.223  0.2066  0.7452  0.6075
  802MOL0     C 8191  11.067   9.197   0.285  0.1126  0.5020 -0.5424
  802MOL0     C 8192  10.971   9.121   0.225 -0.1706  0.2339 -0.2111
  802MOL0     C 8193  10.990   9.063   0.096 -0.8119 -0.1878  0.3597
  802MOL0     O 8194  10.903   8.972   0.040  0.7058 -0.1918  0.2693
  802MOL0     C 8195  10.758   8.960   0.070  0.9221  0.1781  0.2963
  802MOL0     C 8196  10.715   8.812   0.105 -1.0384 -0.1520 -0.2225
  802MOL0     C 8197  10.665   8.796   0.253 -0.9535 -0.4900 -0.0754
  802MOL0     C 8198  10.609   8.654   0.272 -0.1844  0.0460  0.2620
  802MOL0     C 8199  10.621   8.607   0.412 -0.6897  1.3251  0.5401
  802MOL0     C 8200  10.663   8.543   0.512 -0.4951 -0.0667  0.5650
  802MOL0     C 8201  11.112   9.112   0.030  0.3237  0.3429  0.0196
  802MOL0     C 8202  11.207   9.202   0.087  0.3534  0.5386 -0.3100
  802MOL0     H 8203  11.295   9.364   0.649  0.8787 -0.1020  0.0838
  802MOL0     H 8204  11.448   9.487   0.787  1.3611 -1.0218 -0.0301
  802MOL0     H 8205  11.518   9.685   0.886  1.1261  0.4129  1.2974
  802MOL0     H 8206  11.669   9.592   0.864  1.2052 -0.6393 -0.5939
  802MOL0     H 8207  11.748   9.870   0.814 -3.1586  2.5932 -2.6772
  802MOL0     H 8208  11.598   9.897   0.876 -0.2400 -0.4855 -0.5172
  802MOL0     H 8209  11.768   9.935   1.045  1.5934 -1.0432  1.7631
  802MOL0     H 8210  11.635   9.835   1.094 -0.2242 -1.1331  0.4414
  802MOL0     H 8211  11.793   9.634   1.020  0.1257  0.2152 -0.7963
  802MOL0     H 8212  11.914   9.760   1.012  0.5605 -1.9177 -0.5929
  802MOL0     H 8213  11.768   9.704   1.273 -1.6268  1.9996 -2.7877
  802MOL0     H 8214  11.924   9.624   1.236 -0.4751 -0.5093 -2.9414
  802MOL0     H 8215  12.043   9.831   1.229  0.3216 -0.5463 -1.0757
  802MOL0     H 8216  11.896   9.927   1.224 -1.0207 -1.7937 -3.2073
  802MOL0     H 8217  11.960   9.752   1.471  1.0522 -0.5814 -1.2372
  802MOL0     H 8218  12.040   9.909   1.449 -0.1027  0.6759 -1.2737
  802MOL0     H 8219  11.774   9.991   1.404 -1.1578  1.7289  2.5974
  802MOL0     H 8220  11.842  10.004   1.554 -1.5193  0.3210  0.1422
  802MOL0     H 8221  11.831   9.774   1.703  0.2790 -1.3399  0.0992
  802MOL0     H 8222  11.686   9.621   1.854  0.9038  0.0267 -1.7152
  802MOL0     H 8223  11.524   9.674   1.884 -0.0847  0.9973 -0.8797
  802MOL0     H 8224  11.580   9.422   1.814  4.3874 -1.0726 -3.9070
  802MOL0     H 8225  11.574   9.482   1.649  1.0864  3.3318 -0.9955
  802MOL0     H 8226  11.350   9.579   1.678  0.5089 -0.0944 -0.2704
  802MOL0     H 8227  11.348   9.512   1.857  1.0520 -1.7831  1.0211
  802MOL0     H 8228  11.242   9.360   1.747 -0.4991  2.8501 -0.7075
  802MOL0     H 8229  11.422   9.299   1.744  4.2074  4.1672 -0.0997
  802MOL0     H 8230  11.227   9.393   1.326 -2.6036 -0.2096 -1.1862
  802MOL0     H 8231  11.103   9.368   1.161  0.3570  0.8689  0.1683
  802MOL0     H 8232  11.097   9.211   1.088  1.8444  2.0295 -1.0538
  802MOL0     H 8233  10.966   9.255   1.206  1.0561  2.0929  2.9403
  802MOL0     H 8234  11.157   8.692   1.191 -0.1749  1.9209  3.4597
  802MOL0     H 8235  11.040   8.492   1.064 -1.0398 -2.1808  2.0536
  802MOL0     H 8236  10.588   8.490   1.029 -1.6327 -0.1238 -1.7712
  802MOL0     H 8237  10.703   8.583   0.937  1.9592  0.2405  1.7965
  802MOL0     H 8238  10.595   8.423   0.802  2.0522  2.0862  0.3460
  802MOL0     H 8239  10.768   8.400   0.813  1.1694 -0.6950  1.6033
  802MOL0     H 8240  10.571   8.248   0.982  0.4600  1.6728  1.4219
  802MOL0     H 8241  10.743   8.216   0.957  0.7080 -0.8771 -1.8467
  802MOL0     H 8242  10.506   8.172   0.771 -0.2590 -0.4314  0.0150
  802MOL0     H 8243  10.664   8.192   0.705 -1.8433 -0.6557 -1.1508
  802MOL0     H 8244  10.579   7.976   0.915  0.4029  2.6601  2.4166
  802MOL0     H 8245  10.746   8.011   0.885  0.6758 -1.0988 -0.9185
  802MOL0     H 8246  10.740   7.948   0.662  1.0754 -0.4087  0.6712
  802MOL0     H 8247  10.671   7.824   0.742 -0.9983 -0.4878  2.0049
  802MOL0     H 8248  10.553   8.031   0.560  0.6099  0.9658  1.6606
  802MOL0     H 8249  10.436   7.955   0.667  0.6795  0.9334  0.3440
  802MOL0     H 8250  10.469   7.850   0.419 -3.6235 -0.2715  2.6079
  802MOL0     H 8251  10.492   7.743   0.556  2.5232 -0.8517  0.8899
  802MOL0     H 8252  10.666   8.622   1.232 -0.3131 -0.3252 -2.7464
  802MOL0     H 8253  10.787   8.795   1.364  0.8717  1.7669 -1.4982
  802MOL0     H 8254  11.177   8.943   1.531  0.5431 -0.7099 -3.0845
  802MOL0     H 8255  11.292   9.116   1.644  0.9862 -0.0122 -0.1439
  802MOL0     H 8256  11.540   9.734   0.429  1.7574  0.0888  0.9813
  802MOL0     H 8257  11.413   9.596   0.300 -1.7870  3.4012 -0.0203
  802MOL0     H 8258  11.061   9.216   0.392  0.3090  0.9217 -0.6041
  802MOL0     H 8259  10.876   9.113   0.278 -0.7018 -2.5839 -1.4231
  802MOL0     H 8260  10.734   9.019   0.159  1.1186 -0.1628  0.5791
  802MOL0     H 8261  10.703   8.991  -0.019  3.3859  0.0303 -1.4003
  802MOL0     H 8262  10.811   8.759   0.100  0.9505  3.1864 -1.1948
  802MOL0     H 8263  10.644   8.770   0.034 -1.6402  0.1647  0.1874
  802MOL0     H 8264  10.588   8.870   0.275  0.1721  0.7994 -0.3605
  802MOL0     H 8265  10.749   8.822   0.319 -1.9587  0.3132  0.9197
  802MOL0     H 8266  10.676   8.587   0.216 -0.7371 -1.1275  0.9636
  802MOL0     H 8267  10.505   8.651   0.238  0.6230 -1.3295 -2.3775
  802MOL0     H 8268  10.698   8.487   0.596 -0.2527 -0.2971  0.3131
  802MOL0     H 8269  11.120   9.075  -0.072  2.0227  0.0037  0.2467
  802MOL0     H 8270  11.298   9.233   0.036  2.0427 -1.4114  1.3398
  803MOL0     O 8271   7.203   3.468   0.275  0.4307 -0.5630 -0.6263
  803MOL0     C 8272   7.194   3.478   0.399 -0.4388 -0.2201 -0.3047
  803MOL0     O 8273   7.096   3.557   0.463 -0.1852  0.0112  0.6055
  803MOL0     C 8274   6.989   3.619   0.393  0.6609 -0.0866 -0.4365
  803MOL0     C 8275   6.859   3.598   0.432 -0.1531 -0.5309 -0.4549
  803MOL0     C 8276   6.759   3.675   0.377  0.0092 -0.1711 -0.3486
  803MOL0     C 8277   6.778   3.746   0.256 -0.2787 -0.6528 -0.9719
  803MOL0     O 8278   6.668   3.814   0.202 -0.1504 -0.0644  0.0220
  803MOL0     C 8279   6.686   3.878   0.073 -0.2275  0.2135  0.1272
  803MOL0     C 8280   6.548   3.914   0.022 -0.2941 -1.3040 -0.2474
  803MOL0     C 8281   6.531   4.066  -0.003 -0.2007 -0.8681 -0.0429
  803MOL0     C 8282   6.377   4.089  -0.036 -0.1789 -0.6775 -0.9165
  803MOL0     C 8283   6.352   4.232  -0.076 -0.5725 -0.8285 -0.2696
  803MOL0     C 8284   6.234   4.254  -0.168  0.1683 -0.2712 -0.3098
  803MOL0     C 8285   6.099   4.258  -0.107 -0.2726  0.6897 -0.0790
  803MOL0     C 8286   5.991   4.245  -0.206  0.1080  0.7847  0.0837
  803MOL0     N 8287   5.860   4.242  -0.137 -0.2530  1.6026  0.0779
  803MOL0     C 8288   5.793   4.356  -0.109 -0.0647  0.2346  0.1711
  803MOL0     C 8289   5.688   4.315  -0.040  0.8475 -0.0759  0.4278
  803MOL0     C 8290   5.568   4.410  -0.014 -0.1558 -0.4931  0.5711
  803MOL0     C 8291   5.437   4.351  -0.085 -1.0370  0.2528 -0.3248
  803MOL0     C 8292   5.388   4.444  -0.189  0.7743 -0.1072  0.1960
  803MOL0     C 8293   5.267   4.391  -0.266 -0.3794  0.3449  0.2781
  803MOL0     O 8294   5.218   4.470  -0.374  1.0204  0.0086  0.4861
  803MOL0     C 8295   5.073   4.470  -0.401 -0.5568 -0.5430  0.3658
  803MOL0     C 8296   5.032   4.432  -0.525  0.5880 -0.3429  0.1856
  803MOL0     C 8297   4.903   4.422  -0.558 -0.2052  0.2212  0.3535
  803MOL0     C 8298   4.870   4.383  -0.707 -0.8394 -0.0263 -0.1775
  803MOL0     C 8299   4.806   4.462  -0.463 -0.1147  0.8881 -0.3880
  803MOL0     C 8300   4.662   4.462  -0.493  0.1335 -0.3771  0.0774
  803MOL0     O 8301   4.618   4.393  -0.600  0.2804 -1.0465  0.0671
  803MOL0     C 8302   4.481   4.405  -0.628  0.7274 -0.0835  0.7226
  803MOL0     C 8303   4.419   4.285  -0.635  0.3100  0.2923  0.1122
  803MOL0     C 8304   4.276   4.280  -0.652 -0.8197 -0.0341 -0.2802
  803MOL0     C 8305   4.210   4.403  -0.681 -0.2111 -0.4617  0.9749
  803MOL0     O 8306   4.084   4.410  -0.704  0.2760  0.2759 -0.7496
  803MOL0     C 8307   4.031   4.384  -0.834  0.0491 -0.1986 -0.0939
  803MOL0     C 8308   3.883   4.400  -0.834  1.1237  0.0068  1.0015
  803MOL0     C 8309   3.829   4.299  -0.941 -0.4213 -0.9205  0.3820
  803MOL0     C 8310   3.674   4.305  -0.956 -0.7651 -1.0619  0.2355
  803MOL0     C 8311   3.622   4.220  -1.079 -0.8115  0.0086  0.5883
  803MOL0     C 8312   3.475   4.265  -1.095 -0.7078  0.5683  0.1658
  803MOL0     C 8313   3.411   4.221  -1.222  0.5799 -0.5132  0.2907
  803MOL0     C 8314   3.262   4.243  -1.230  0.1384 -0.5549 -0.2133
  803MOL0    Cl 8315   3.221   4.417  -1.206  0.2060 -0.2217 -0.7503
  803MOL0     C 8316   4.284   4.517  -0.696 -0.5715  0.1783 -0.8310
  803MOL0     C 8317   4.418   4.520  -0.673  0.0412 -1.0580  0.6052
  803MOL0     O 8318   4.588   4.525  -0.417 -0.5359  0.0435  0.7899
  803MOL0     C 8319   4.853   4.500  -0.333 -0.0004  0.2961  0.2304
  803MOL0     C 8320   4.983   4.512  -0.300  0.5615 -0.2259 -0.4644
  803MOL0     N 8321   5.689   4.181  -0.027 -0.5778 -0.2431  0.3148
  803MOL0     N 8322   5.786   4.135  -0.093 -0.8393  0.4308  1.0549
  803MOL0     C 8323   6.912   3.758   0.218  0.4604  0.3380  0.5127
  803MOL0     C 8324   7.015   3.697   0.287 -0.4963 -0.2971 -0.3043
  803MOL0     C 8325   7.308   3.425   0.481  0.2161  0.1835 -0.2991
  803MOL0     C 8326   7.335   3.491   0.594 -0.1793  0.8244 -0.2169
  803MOL0     C 8327   7.434   3.449   0.685 -0.0837 -1.1246  0.4852
  803MOL0     C 8328   7.513   3.335   0.660 -0.4520  0.0826  0.7231
  803MOL0     O 8329   7.606   3.287   0.744 -0.3428 -0.4087  0.3307
  803MOL0     C 8330   7.637   3.355   0.867 -0.1934  0.5475  0.1927
  803MOL0     C 8331   7.777   3.320   0.916  0.1570  1.0115 -0.1619
  803MOL0     C 8332   7.797   3.170   0.956  0.0580  0.3369  1.0591
  803MOL0     C 8333   7.898   3.133   1.072 -0.1610 -0.2877  0.3830
  803MOL0     C 8334   7.871   2.992   1.118  0.1204 -0.1559 -0.5540
  803MOL0     C 8335   7.831   2.879   1.143  0.1620 -0.0878 -0.3684
  803MOL0     C 8336   7.488   3.270   0.536  0.4190  0.2852  0.2293
  803MOL0     C 8337   7.383   3.312   0.450 -0.7252  0.3163  0.6304
  803MOL0     H 8338   6.835   3.540   0.521  0.1711 -2.5315 -1.6090
  803MOL0     H 8339   6.659   3.679   0.419 -0.5313  0.9472 -1.6624
  803MOL0     H 8340   6.745   3.970   0.084 -1.1439  1.5045 -4.0697
  803MOL0     H 8341   6.730   3.816  -0.005 -3.0031  0.0653 -1.4459
  803MOL0     H 8342   6.539   3.850  -0.066  1.0997 -0.8196 -0.7701
  803MOL0     H 8343   6.473   3.894   0.099  0.5754  0.3150  1.1037
  803MOL0     H 8344   6.555   4.124   0.086 -0.8785 -1.5098  0.5752
  803MOL0     H 8345   6.586   4.088  -0.096 -1.2571  0.2829 -0.4056
  803MOL0     H 8346   6.355   4.019  -0.117  0.5076 -0.1360 -1.5824
  803MOL0     H 8347   6.327   4.071   0.060  2.8776  0.3213  1.0053
  803MOL0     H 8348   6.339   4.296   0.012  3.5991 -0.8032  0.5844
  803MOL0     H 8349   6.446   4.262  -0.123 -0.5714  0.4013  0.4770
  803MOL0     H 8350   6.258   4.346  -0.222  0.5412 -0.4526 -0.4528
  803MOL0     H 8351   6.231   4.171  -0.239 -0.9510  0.2206 -0.8611
  803MOL0     H 8352   6.097   4.169  -0.044 -0.8143 -0.9574 -2.2900
  803MOL0     H 8353   6.093   4.349  -0.047  0.8822 -0.1851  1.4156
  803MOL0     H 8354   6.006   4.146  -0.249  2.6802  0.7121  1.0258
  803MOL0     H 8355   6.003   4.322  -0.284 -1.7029  0.1394 -0.9022
  803MOL0     H 8356   5.812   4.459  -0.137  0.4278 -0.8515 -4.1755
  803MOL0     H 8357   5.557   4.430   0.093  1.3657  0.2960  0.6101
  803MOL0     H 8358   5.588   4.513  -0.042  0.1069  0.0991  2.7461
  803MOL0     H 8359   5.365   4.344  -0.004 -1.3220  3.2084 -0.2188
  803MOL0     H 8360   5.465   4.254  -0.129  1.1186  0.0090  1.4243
  803MOL0     H 8361   5.467   4.457  -0.264 -0.0011 -0.2918 -0.6777
  803MOL0     H 8362   5.364   4.543  -0.150 -2.3674 -0.4175 -0.6928
  803MOL0     H 8363   5.185   4.362  -0.199 -1.7715  0.6854 -1.1947
  803MOL0     H 8364   5.297   4.300  -0.319 -0.2826  0.8471 -0.5512
  803MOL0     H 8365   5.104   4.398  -0.599 -1.2340 -0.6320 -1.5571
  803MOL0     H 8366   4.841   4.278  -0.694 -1.5186  0.2093  0.2860
  803MOL0     H 8367   4.794   4.451  -0.749 -1.0670  0.4573  0.9851
  803MOL0     H 8368   4.960   4.394  -0.769 -1.4597  1.9851 -0.8227
  803MOL0     H 8369   4.482   4.201  -0.605 -1.5387 -1.4661 -0.6773
  803MOL0     H 8370   4.230   4.187  -0.620  1.2155 -1.4256 -1.1771
  803MOL0     H 8371   4.070   4.466  -0.894 -0.3493 -0.7502 -1.1374
  803MOL0     H 8372   4.067   4.289  -0.876  2.2633  0.5019  0.1199
  803MOL0     H 8373   3.847   4.381  -0.733 -0.0984  1.4940  0.8862
  803MOL0     H 8374   3.845   4.502  -0.847 -1.0041 -0.5041  2.6509
  803MOL0     H 8375   3.858   4.196  -0.921  1.2446 -0.5011  0.3140
  803MOL0     H 8376   3.878   4.328  -1.035  3.0927 -3.3914  1.2697
  803MOL0     H 8377   3.626   4.279  -0.861  0.1802  1.5415  1.5337
  803MOL0     H 8378   3.653   4.411  -0.973  1.3281 -0.4222  1.2184
  803MOL0     H 8379   3.629   4.111  -1.066 -0.4924 -0.1865 -1.0216
  803MOL0     H 8380   3.693   4.244  -1.159 -1.9739  1.1481 -0.1267
  803MOL0     H 8381   3.421   4.220  -1.011  0.9014  2.5479  2.4206
  803MOL0     H 8382   3.467   4.374  -1.100 -4.0080  0.4120  0.1990
  803MOL0     H 8383   3.418   4.112  -1.231  0.3038 -0.3983 -2.1965
  803MOL0     H 8384   3.456   4.272  -1.308  1.6099 -3.3632 -1.0057
  803MOL0     H 8385   3.214   4.190  -1.147 -1.1588 -0.3217 -0.7884
  803MOL0     H 8386   3.217   4.212  -1.325  1.5743 -0.3421 -0.9972
  803MOL0     H 8387   4.227   4.604  -0.729 -0.2624  0.9587  0.6100
  803MOL0     H 8388   4.469   4.616  -0.674 -0.5069 -0.6347 -3.7400
  803MOL0     H 8389   4.780   4.513  -0.254 -0.4164 -0.0177 -0.0969
  803MOL0     H 8390   5.015   4.541  -0.200  0.0081  0.6533 -0.5269
  803MOL0     H 8391   6.930   3.819   0.129  2.3034  1.3609  1.5358
  803MOL0     H 8392   7.120   3.715   0.268 -0.9181  1.3314 -1.2154
  803MOL0     H 8393   7.277   3.582   0.608 -3.7524 -1.5803  2.5269
  803MOL0     H 8394   7.455   3.523   0.762 -1.8848 -0.5109  0.4518
  803MOL0     H 8395   7.632   3.463   0.849  1.4779  0.8132  1.1382
  803MOL0     H 8396   7.557   3.319   0.932 -1.2285 -1.7497 -2.1667
  803MOL0     H 8397   7.816   3.384   0.996  2.4041 -0.0672 -0.3068
  803MOL0     H 8398   7.851   3.328   0.835  3.6563  2.2474  2.8601
  803MOL0     H 8399   7.829   3.124   0.863  0.9358  5.5939 -1.6082
  803MOL0     H 8400   7.697   3.131   0.981  0.8451 -2.2099  0.4926
  803MOL0     H 8401   7.892   3.202   1.156 -2.5096  1.5035 -1.1070
  803MOL0     H 8402   7.995   3.152   1.026 -2.2101  1.6968 -3.6735
  803MOL0     H 8403   7.791   2.780   1.147 -2.3348  0.8654  0.3125
  803MOL0     H 8404   7.536   3.175   0.514 -0.7836 -0.5521  1.1096
  803MOL0     H 8405   7.364   3.262   0.356  0.2945  1.7903 -0.4011
  804MOL0     O 8406   9.151   1.130   3.766  1.0580  0.8340 -0.2570
  804MOL0     C 8407   9.259   1.095   3.718 -0.4769  1.0398 -0.5833
  804MOL0     O 8408   9.289   1.049   3.591  0.7693 -0.2696 -0.4622
  804MOL0     C 8409   9.177   1.016   3.522  0.0937  0.2224 -0.0161
  804MOL0     C 8410   9.084   0.912   3.557 -0.5965  0.7010 -0.2801
  804MOL0     C 8411   8.968   0.878   3.477  0.4771 -0.6205 -0.3806
  804MOL0     C 8412   8.947   0.946   3.360  0.9068  1.6652  0.8747
  804MOL0     O 8413   8.832   0.930   3.291  0.1562  0.9163 -0.2518
  804MOL0     C 8414   8.836   0.910   3.149  0.1516 -0.2951  0.1255
  804MOL0     C 8415   8.701   0.914   3.086 -0.9000  0.6836  0.3568
  804MOL0     C 8416   8.621   0.799   3.155  0.7187 -0.7029  0.1667
  804MOL0     C 8417   8.639   0.655   3.117  0.0791  0.2080  0.8828
  804MOL0     C 8418   8.580   0.558   3.229  0.4134  0.0994 -0.2610
  804MOL0     C 8419   8.432   0.587   3.256 -0.4963 -0.3193 -0.4670
  804MOL0     C 8420   8.371   0.458   3.307 -0.2870 -0.3386 -0.3629
  804MOL0     C 8421   8.219   0.460   3.325  0.0949  0.1721 -0.1541
  804MOL0     N 8422   8.144   0.371   3.230  0.5659  0.3764  0.6510
  804MOL0     C 8423   8.040   0.411   3.152 -0.3685  0.2872 -0.5653
  804MOL0     C 8424   7.989   0.292   3.111  0.8233 -0.4027  0.3301
  804MOL0     C 8425   7.872   0.272   3.028  0.0301 -0.4178  0.4623
  804MOL0     C 8426   7.756   0.378   3.058 -0.1983 -0.4658 -1.6666
  804MOL0     C 8427   7.625   0.305   3.033 -0.6443  0.3016 -0.1971
  804MOL0     C 8428   7.511   0.408   3.046 -0.4159  0.1019  0.1347
  804MOL0     O 8429   7.390   0.324   3.030 -0.1015 -0.0180  0.0950
  804MOL0     C 8430   7.277   0.387   3.001  0.1063 -1.1133 -0.2734
  804MOL0     C 8431   7.164   0.316   2.982  0.0204  0.4273 -0.4320
  804MOL0     C 8432   7.034   0.369   2.953 -0.6176  0.7375  0.3081
  804MOL0     C 8433   6.923   0.283   2.918 -0.2397  0.2296 -1.1243
  804MOL0     C 8434   7.017   0.511   2.965 -1.3051  0.2278  0.8051
  804MOL0     C 8435   6.897   0.585   2.948 -0.2498 -0.1849  0.2494
  804MOL0     O 8436   6.893   0.707   2.869 -0.5585  1.3736  0.0920
  804MOL0     C 8437   6.761   0.739   2.843 -0.4102 -0.2223 -0.1827
  804MOL0     C 8438   6.687   0.671   2.754  1.0891 -0.3281 -0.1131
  804MOL0     C 8439   6.561   0.721   2.708 -1.2691 -0.2834  0.2047
  804MOL0     C 8440   6.507   0.844   2.761 -0.1215  0.2369  0.0019
  804MOL0     O 8441   6.385   0.890   2.736  1.2828 -0.2190 -0.0866
  804MOL0     C 8442   6.356   0.939   2.604 -0.1564  0.0307  0.6967
  804MOL0     C 8443   6.243   1.036   2.596 -0.2436  0.2211 -0.2052
  804MOL0     C 8444   6.271   1.175   2.671  0.2823 -0.0598 -0.3029
  804MOL0     C 8445   6.194   1.189   2.805 -0.0675  0.0050  0.0097
  804MOL0     C 8446   6.205   1.331   2.853 -0.2552 -0.7515 -0.7010
  804MOL0     C 8447   6.350   1.357   2.917 -0.3174 -0.3809 -0.8219
  804MOL0     C 8448   6.336   1.355   3.071 -1.1591  0.1392 -0.1920
  804MOL0     C 8449   6.465   1.413   3.124  0.1606  0.2428 -0.1629
  804MOL0    Cl 8450   6.613   1.325   3.056 -0.1370  0.1253  0.2588
  804MOL0     C 8451   6.591   0.904   2.855  0.2811  0.5778  0.4174
  804MOL0     C 8452   6.713   0.854   2.896  0.0595 -0.5230  0.3891
  804MOL0     O 8453   6.801   0.552   3.015  0.1141  0.8567 -0.4905
  804MOL0     C 8454   7.133   0.583   3.003  0.2863 -0.5345 -0.1768
  804MOL0     C 8455   7.256   0.521   3.007  0.7647 -0.1329 -0.0473
  804MOL0     N 8456   8.064   0.188   3.161 -0.0965 -1.1192 -0.2988
  804MOL0     N 8457   8.161   0.240   3.230  1.1483 -1.2465 -0.5294
  804MOL0     C 8458   9.038   1.046   3.320  0.6677 -0.3988 -0.4520
  804MOL0     C 8459   9.146   1.080   3.404  0.1781 -0.0901 -0.2284
  804MOL0     C 8460   9.365   1.085   3.820 -0.3063 -0.8466  1.0521
  804MOL0     C 8461   9.336   1.104   3.952 -1.1295  0.7657 -0.3445
  804MOL0     C 8462   9.441   1.097   4.051 -0.7252  0.3883 -0.2322
  804MOL0     C 8463   9.573   1.057   4.009  0.0241 -0.2110 -0.2961
  804MOL0     O 8464   9.685   1.038   4.098  0.1174 -0.1085 -0.0839
  804MOL0     C 8465   9.686   1.097   4.228 -0.3608 -0.0029 -0.7929
  804MOL0     C 8466   9.688   1.253   4.211 -0.3651 -0.9859  0.4165
  804MOL0     C 8467   9.828   1.296   4.170 -0.4823 -0.4200 -1.0093
  804MOL0     C 8468   9.925   1.312   4.296  0.6747 -0.4463 -0.1603
  804MOL0     C 8469  10.059   1.269   4.264 -0.1308  0.1172 -0.2619
  804MOL0     C 8470  10.178   1.264   4.244 -0.3178  0.9244 -0.1448
  804MOL0     C 8471   9.596   1.026   3.873  0.2377 -0.3117  0.3928
  804MOL0     C 8472   9.496   1.049   3.779 -0.3231 -0.1030 -0.1306
  804MOL0     H 8473   9.090   0.868   3.656  1.8984 -0.9400 -1.0485
  804MOL0     H 8474   8.881   0.829   3.520 -1.5619  1.4016 -1.9623
  804MOL0     H 8475   8.892   0.994   3.107  2.7385 -0.8210  2.2725
  804MOL0     H 8476   8.884   0.820   3.110 -2.2962 -0.0711 -4.0109
  804MOL0     H 8477   8.650   1.011   3.095 -0.0973  1.2309 -0.8126
  804MOL0     H 8478   8.713   0.893   2.980 -0.3232 -0.0791  0.5657
  804MOL0     H 8479   8.622   0.822   3.262 -2.4026  0.2052  0.1188
  804MOL0     H 8480   8.520   0.829   3.122 -0.2053  0.4227  3.6296
  804MOL0     H 8481   8.586   0.632   3.024 -0.8566 -0.4679  1.5498
  804MOL0     H 8482   8.743   0.631   3.093  0.7013 -0.8642  4.1061
  804MOL0     H 8483   8.593   0.455   3.193  1.1784 -0.3623  1.2251
  804MOL0     H 8484   8.652   0.562   3.311  2.0193 -3.3025 -1.2878
  804MOL0     H 8485   8.424   0.672   3.326  0.3012 -0.1045 -0.6264
  804MOL0     H 8486   8.380   0.625   3.167  1.0625  0.7081 -0.9758
  804MOL0     H 8487   8.396   0.369   3.248  0.0491  1.5180 -3.2432
  804MOL0     H 8488   8.409   0.441   3.408  1.0258 -2.9316 -1.1987
  804MOL0     H 8489   8.187   0.564   3.311 -1.2524 -0.4110 -1.6744
  804MOL0     H 8490   8.199   0.442   3.431  0.6903  1.1184  0.1387
  804MOL0     H 8491   7.996   0.508   3.133 -0.7295  0.1300 -0.5429
  804MOL0     H 8492   7.889   0.271   2.920  1.3704 -1.8637  0.6439
  804MOL0     H 8493   7.837   0.171   3.051  1.9661 -1.4096 -0.6578
  804MOL0     H 8494   7.756   0.459   2.985 -1.9067 -0.7959 -2.0963
  804MOL0     H 8495   7.756   0.422   3.157 -1.3198  1.5264 -2.4972
  804MOL0     H 8496   7.619   0.229   3.111 -3.0022 -0.9660 -1.4759
  804MOL0     H 8497   7.619   0.263   2.932  0.2914  3.7916 -1.8445
  804MOL0     H 8498   7.522   0.472   2.958 -2.2971 -1.8448 -1.6475
  804MOL0     H 8499   7.513   0.467   3.138 -0.0025  0.6705 -0.2368
  804MOL0     H 8500   7.179   0.209   2.988 -0.4899  0.4361  3.1167
  804MOL0     H 8501   6.958   0.189   2.873 -0.8438  0.4734 -2.1438
  804MOL0     H 8502   6.870   0.257   3.010  0.3810 -1.4173 -1.1850
  804MOL0     H 8503   6.854   0.331   2.848 -0.0131  3.5586  0.7377
  804MOL0     H 8504   6.727   0.586   2.701 -1.7590 -0.8039 -1.7080
  804MOL0     H 8505   6.521   0.658   2.630  1.0772 -0.6957 -0.7596
  804MOL0     H 8506   6.448   0.978   2.560  0.6957 -2.3114  0.2495
  804MOL0     H 8507   6.345   0.852   2.538  0.4030  0.9503 -0.6579
  804MOL0     H 8508   6.226   1.056   2.490  0.5001  0.4990 -0.2737
  804MOL0     H 8509   6.161   0.984   2.647  1.0615  1.1807  3.1663
  804MOL0     H 8510   6.255   1.256   2.599 -0.9451  0.6230  0.7059
  804MOL0     H 8511   6.379   1.185   2.691  0.3921 -1.9624  0.1587
  804MOL0     H 8512   6.087   1.164   2.800  0.1840 -2.5804  3.3207
  804MOL0     H 8513   6.245   1.114   2.868  1.1158 -0.8603 -1.8906
  804MOL0     H 8514   6.129   1.337   2.931  0.9579 -2.9494  0.7777
  804MOL0     H 8515   6.183   1.401   2.772 -0.0735 -1.7859 -1.6750
  804MOL0     H 8516   6.427   1.283   2.894  0.3857  0.0558  0.0662
  804MOL0     H 8517   6.376   1.458   2.885 -0.3255 -0.2295 -0.3487
  804MOL0     H 8518   6.327   1.251   3.104  0.5103 -0.5728 -1.8334
  804MOL0     H 8519   6.253   1.411   3.115 -1.0022 -0.7956  1.3904
  804MOL0     H 8520   6.454   1.420   3.232  1.5902 -1.1181  0.0965
  804MOL0     H 8521   6.480   1.515   3.088  0.2442 -0.1179 -1.1863
  804MOL0     H 8522   6.558   0.998   2.897  0.4471  0.7938  0.0707
  804MOL0     H 8523   6.771   0.909   2.969  2.2942 -1.5536 -0.5259
  804MOL0     H 8524   7.121   0.691   3.012 -2.4240 -0.9148  1.7947
  804MOL0     H 8525   7.336   0.593   3.018 -0.2286  1.5753 -2.7740
  804MOL0     H 8526   9.021   1.101   3.227  2.6373  2.2429  0.6154
  804MOL0     H 8527   9.208   1.166   3.378 -1.7041  1.6832  0.8929
  804MOL0     H 8528   9.233   1.122   3.982 -1.3804 -2.1275  0.8599
  804MOL0     H 8529   9.414   1.117   4.154 -0.3141  1.2467 -0.2844
  804MOL0     H 8530   9.599   1.062   4.283 -0.3879  0.6290 -0.4289
  804MOL0     H 8531   9.777   1.059   4.275 -1.7780 -2.6913 -0.0278
  804MOL0     H 8532   9.648   1.303   4.300 -1.2936  1.4204 -1.2623
  804MOL0     H 8533   9.639   1.276   4.116  2.0260  0.1383 -0.6271
  804MOL0     H 8534   9.819   1.399   4.136  0.2030 -0.6504 -1.9219
  804MOL0     H 8535   9.858   1.237   4.083 -0.9393 -0.7714 -0.9365
  804MOL0     H 8536   9.889   1.261   4.385  0.1198  1.1314  0.5602
  804MOL0     H 8537   9.935   1.417   4.327 -1.4542  0.0720 -1.0122
  804MOL0     H 8538  10.284   1.275   4.238 -0.4394  1.3980 -3.8800
  804MOL0     H 8539   9.696   0.990   3.847  0.7108 -2.8548  4.7621
  804MOL0     H 8540   9.534   1.046   3.677 -1.3387 -1.7749 -0.5009
  805MOL0     O 8541   9.538   9.925   5.925 -0.2478  0.7266  0.3503
  805MOL0     C 8542   9.567   9.984   6.033 -0.0764  0.0690  0.9343
  805MOL0     O 8543   9.640   9.931   6.133  0.0213  0.0504 -0.8511
  805MOL0     C 8544   9.681   9.798   6.138  0.6724 -0.4482  0.6720
  805MOL0     C 8545   9.803   9.769   6.205  0.2438 -0.5011  0.8663
  805MOL0     C 8546   9.853   9.646   6.205  0.3702 -0.1774  0.1098
  805MOL0     C 8547   9.785   9.542   6.135 -0.4453  0.7096 -0.2305
  805MOL0     O 8548   9.860   9.431   6.152  0.5875  0.3456  0.3595
  805MOL0     C 8549   9.830   9.323   6.055  0.7738 -0.1044 -0.0202
  805MOL0     C 8550   9.868   9.194   6.123 -0.0875  0.0778  0.3483
  805MOL0     C 8551  10.021   9.162   6.099 -0.1272 -0.7775 -0.0124
  805MOL0     C 8552  10.048   9.128   5.948 -0.7345 -0.6302  0.1296
  805MOL0     C 8553  10.189   9.076   5.940 -0.4939 -0.1614  0.7428
  805MOL0     C 8554  10.247   9.085   5.793  0.0029 -0.6010  0.4640
  805MOL0     C 8555  10.174   8.974   5.705  0.2093 -0.1258  0.5068
  805MOL0     C 8556  10.146   9.032   5.566  0.0616 -0.3230  0.0595
  805MOL0     N 8557  10.045   8.949   5.488 -0.4604 -0.3047  0.7714
  805MOL0     C 8558   9.932   8.910   5.542  0.2319 -0.7625  0.1322
  805MOL0     C 8559   9.872   8.827   5.452 -0.2717 -0.6141  0.4557
  805MOL0     C 8560   9.741   8.769   5.464  0.9869  0.1477  0.5849
  805MOL0     C 8561   9.679   8.719   5.335  0.3053 -0.0640 -0.3105
  805MOL0     C 8562   9.625   8.830   5.245 -0.2168 -1.0771 -0.3086
  805MOL0     C 8563   9.532   8.778   5.128  0.1808 -0.4932 -0.6616
  805MOL0     O 8564   9.596   8.678   5.049 -0.6123  0.0039  0.1489
  805MOL0     C 8565   9.534   8.643   4.926 -0.3348 -0.3813  0.8869
  805MOL0     C 8566   9.401   8.662   4.890 -0.1465 -0.2078  0.5260
  805MOL0     C 8567   9.338   8.581   4.792  0.4326  0.6201 -0.1496
  805MOL0     C 8568   9.188   8.579   4.782  0.4074 -0.5372  0.3625
  805MOL0     C 8569   9.418   8.502   4.706  0.1492 -0.2146 -1.0410
  805MOL0     C 8570   9.366   8.412   4.596 -0.6274  0.2081  0.2726
  805MOL0     O 8571   9.456   8.313   4.563 -0.0105 -0.6052  0.7506
  805MOL0     C 8572   9.452   8.254   4.443 -0.0129 -0.1094 -1.3450
  805MOL0     C 8573   9.428   8.326   4.332  0.4100 -0.3826  0.4458
  805MOL0     C 8574   9.453   8.252   4.205 -0.4568 -0.6497  0.6565
  805MOL0     C 8575   9.461   8.112   4.199 -0.8253  0.3850 -0.0205
  805MOL0     O 8576   9.452   8.041   4.083  0.7682 -0.2178  0.5523
  805MOL0     C 8577   9.436   8.094   3.948  1.0302  0.5928 -1.0940
  805MOL0     C 8578   9.487   7.994   3.854 -1.0379 -0.2226 -0.7101
  805MOL0     C 8579   9.407   7.866   3.866  0.7896  0.7489  0.9595
  805MOL0     C 8580   9.291   7.859   3.765 -0.4110  0.4059 -0.1552
  805MOL0     C 8581   9.219   7.726   3.763  0.7016 -0.0540  0.6884
  805MOL0     C 8582   9.135   7.700   3.895  0.1276  0.2709  0.8509
  805MOL0     C 8583   8.987   7.750   3.889  0.1504 -0.0554 -0.8041
  805MOL0     C 8584   8.916   7.696   4.015 -0.4539 -0.4872  0.2060
  805MOL0    Cl 8585   8.756   7.778   4.030  0.1861  0.3875  0.0170
  805MOL0     C 8586   9.464   8.045   4.321 -0.0951  0.1521 -0.0439
  805MOL0     C 8587   9.467   8.112   4.444  1.2429  0.8308  1.1791
  805MOL0     O 8588   9.267   8.450   4.532  0.1511 -0.0542  0.3667
  805MOL0     C 8589   9.558   8.505   4.726  0.4572 -0.1620 -0.5209
  805MOL0     C 8590   9.618   8.572   4.837  0.1686  0.2935  0.3586
  805MOL0     N 8591   9.952   8.820   5.341 -0.0742 -0.2786  0.2260
  805MOL0     N 8592  10.062   8.885   5.365  0.4905  0.3513 -0.3557
  805MOL0     C 8593   9.659   9.562   6.087 -0.3610 -0.3646 -0.4249
  805MOL0     C 8594   9.606   9.689   6.085 -0.0508 -1.1833 -0.1084
  805MOL0     C 8595   9.504  10.119   6.053 -0.5372 -0.4202  0.8079
  805MOL0     C 8596   9.547  10.207   6.158  1.5285  1.3387  0.3412
  805MOL0     C 8597   9.487  10.332   6.181  0.3915  0.3214 -0.1291
  805MOL0     C 8598   9.382  10.383   6.103 -0.5035 -0.0758 -0.0371
  805MOL0     O 8599   9.301  10.499   6.125 -1.1199 -0.5613  0.4756
  805MOL0     C 8600   9.329  10.571   6.250 -0.6946  0.6716 -0.6639
  805MOL0     C 8601   9.284  10.486   6.375 -0.2758  0.5192 -0.7835
  805MOL0     C 8602   9.330  10.536   6.511 -0.6035 -0.6972  0.9690
  805MOL0     C 8603   9.473  10.498   6.556 -0.2789  0.1949  0.1731
  805MOL0     C 8604   9.565  10.612   6.523 -0.8354 -0.2118  0.5526
  805MOL0     C 8605   9.642  10.713   6.498  0.4567  0.4653 -0.4568
  805MOL0     C 8606   9.349  10.299   5.991 -0.6296 -1.4553  0.6124
  805MOL0     C 8607   9.402  10.170   5.973 -0.0611 -0.0232 -0.0258
  805MOL0     H 8608   9.850   9.832   6.280 -0.5606 -0.6241  1.4971
  805MOL0     H 8609   9.947   9.626   6.256  1.5942 -0.9300 -2.2922
  805MOL0     H 8610   9.724   9.311   6.034  0.8606 -3.0197  0.7797
  805MOL0     H 8611   9.874   9.340   5.956  0.7596 -0.0123 -0.0109
  805MOL0     H 8612   9.845   9.190   6.230 -1.7179  0.5775  0.0539
  805MOL0     H 8613   9.804   9.113   6.086  0.2463 -0.8546  1.7613
  805MOL0     H 8614  10.069   9.256   6.128 -4.1099  1.0629  1.2118
  805MOL0     H 8615  10.064   9.093   6.171 -1.1478 -0.7724  0.6208
  805MOL0     H 8616   9.974   9.061   5.905 -0.1077 -0.6519 -0.9426
  805MOL0     H 8617  10.040   9.223   5.895  0.5001  0.6190  2.0370
  805MOL0     H 8618  10.249   9.141   6.006  2.0728  0.5696 -2.0702
  805MOL0     H 8619  10.187   8.976   5.983 -1.4562 -0.0766  0.9166
  805MOL0     H 8620  10.218   9.180   5.747 -1.1166 -0.9761  0.3538
  805MOL0     H 8621  10.354   9.068   5.807 -0.1134 -2.4843 -0.6757
  805MOL0     H 8622  10.243   8.890   5.709  0.8034  0.3697  0.6870
  805MOL0     H 8623  10.078   8.945   5.749  0.7216 -1.0351  1.0438
  805MOL0     H 8624  10.238   9.017   5.509  0.2357 -1.0720  0.5359
  805MOL0     H 8625  10.111   9.136   5.572 -1.0746 -0.7629  1.9153
  805MOL0     H 8626   9.891   8.944   5.636  1.8674  0.4446  0.4478
  805MOL0     H 8627   9.757   8.682   5.529 -1.0940  1.5772  3.2067
  805MOL0     H 8628   9.665   8.830   5.513  0.8907 -0.5996  1.4025
  805MOL0     H 8629   9.595   8.650   5.348 -0.0636  0.4428  0.0627
  805MOL0     H 8630   9.752   8.666   5.274 -2.1823 -0.4261 -3.2194
  805MOL0     H 8631   9.705   8.886   5.196 -1.8565 -0.1038 -1.9808
  805MOL0     H 8632   9.573   8.900   5.311  2.1113  2.5107 -1.9212
  805MOL0     H 8633   9.498   8.857   5.060  0.1323 -1.9295 -2.3492
  805MOL0     H 8634   9.445   8.733   5.176 -0.0544 -0.5501 -1.1330
  805MOL0     H 8635   9.342   8.725   4.956  0.6403 -0.0885  1.1349
  805MOL0     H 8636   9.155   8.480   4.815 -2.1872 -0.3272 -1.3196
  805MOL0     H 8637   9.144   8.648   4.854 -2.3459 -2.5543  0.7824
  805MOL0     H 8638   9.147   8.594   4.682  1.7210  2.2856  0.1576
  805MOL0     H 8639   9.411   8.433   4.335 -1.2649 -0.5354 -1.5168
  805MOL0     H 8640   9.421   8.318   4.125  2.3627  1.4398  1.1241
  805MOL0     H 8641   9.329   8.110   3.928  0.7775  0.5643  0.1467
  805MOL0     H 8642   9.490   8.186   3.928  1.1676  0.5658 -0.8441
  805MOL0     H 8643   9.496   8.020   3.748  1.5485  3.4277  0.2001
  805MOL0     H 8644   9.591   7.975   3.882 -0.9008  1.9568  0.3955
  805MOL0     H 8645   9.373   7.846   3.969 -1.5593 -0.0005  0.1044
  805MOL0     H 8646   9.473   7.785   3.835 -0.5811  0.5144 -1.5927
  805MOL0     H 8647   9.229   7.947   3.787  0.5294  0.3285  3.3421
  805MOL0     H 8648   9.341   7.878   3.670  0.4240  0.9105  0.3747
  805MOL0     H 8649   9.291   7.647   3.744  0.8908  0.9150 -3.7435
  805MOL0     H 8650   9.153   7.730   3.676  0.3141  4.4264  0.9197
  805MOL0     H 8651   9.138   7.591   3.908  1.4401 -0.1014 -1.8405
  805MOL0     H 8652   9.176   7.754   3.980  0.8037 -1.2694  1.5402
  805MOL0     H 8653   8.935   7.721   3.797  0.1940 -2.9990  0.0095
  805MOL0     H 8654   8.984   7.859   3.878 -3.9156 -0.1399 -2.1520
  805MOL0     H 8655   8.980   7.709   4.103 -1.1833 -1.7335  0.9510
  805MOL0     H 8656   8.892   7.591   3.998  0.6445 -0.8915  1.0562
  805MOL0     H 8657   9.465   7.938   4.339  3.8944  0.2903  1.7254
  805MOL0     H 8658   9.467   8.060   4.539 -3.6249 -0.1475  0.9084
  805MOL0     H 8659   9.619   8.435   4.669 -0.7483 -0.2883 -1.7023
  805MOL0     H 8660   9.726   8.564   4.849  0.2029  1.4228  0.8276
  805MOL0     H 8661   9.614   9.485   6.025  2.7413 -2.2492 -0.5835
  805MOL0     H 8662   9.500   9.696   6.066 -0.6258 -0.1727  2.9460
  805MOL0     H 8663   9.630  10.171   6.218 -0.1171  0.3795  2.1758
  805MOL0     H 8664   9.518  10.384   6.271  0.7207 -1.9178  1.1055
  805MOL0     H 8665   9.435  10.597   6.256 -0.2597 -0.7643 -1.4722
  805MOL0     H 8666   9.276  10.666   6.256 -1.0677  0.5738 -2.0146
  805MOL0     H 8667   9.313  10.381   6.371  1.2684  0.9406 -1.2117
  805MOL0     H 8668   9.176  10.483   6.360 -0.7456 -1.6995  2.0584
  805MOL0     H 8669   9.269  10.497   6.593 -2.4676 -0.3625 -0.1991
  805MOL0     H 8670   9.315  10.644   6.521  0.3562 -0.5806  1.2307
  805MOL0     H 8671   9.502  10.397   6.523 -4.8241 -1.0302 -0.7845
  805MOL0     H 8672   9.475  10.484   6.664 -2.3880  2.6953  0.6221
  805MOL0     H 8673   9.705  10.798   6.487  1.1713  0.1107  0.7091
  805MOL0     H 8674   9.260  10.324   5.934  0.1266 -2.0856 -0.8913
  805MOL0     H 8675   9.357  10.102   5.901  3.3519 -2.1383 -0.4388
  806MOL0     O 8676  11.125   6.558   6.363 -0.3029  0.2941 -0.6850
  806MOL0     C 8677  11.191   6.454   6.371  0.0411  0.5657 -0.2621
  806MOL0     O 8678  11.201   6.373   6.488  0.6724 -0.4093  0.1913
  806MOL0     C 8679  11.115   6.410   6.593  0.6464  0.4043  0.8984
  806MOL0     C 8680  11.154   6.494   6.692 -0.2078 -0.5677  0.5845
  806MOL0     C 8681  11.072   6.514   6.808  0.2034 -0.8879  0.0719
  806MOL0     C 8682  10.953   6.444   6.823  1.0240 -0.0575 -1.2524
  806MOL0     O 8683  10.883   6.461   6.944 -0.1736  0.6156 -0.4320
  806MOL0     C 8684  10.769   6.378   6.976  0.3300  0.5381 -0.2551
  806MOL0     C 8685  10.721   6.436   7.117  0.1384  1.1196  0.0745
  806MOL0     C 8686  10.577   6.418   7.139  0.4121  0.4180  0.2002
  806MOL0     C 8687  10.531   6.458   7.285 -0.6084  0.0066 -0.3758
  806MOL0     C 8688  10.400   6.522   7.307 -0.4248  0.0480 -0.5084
  806MOL0     C 8689  10.290   6.415   7.313 -0.3902  0.2524  0.6612
  806MOL0     C 8690  10.142   6.458   7.352  0.8509 -0.4365 -0.0863
  806MOL0     C 8691  10.094   6.552   7.245  0.6695  0.4834 -0.6362
  806MOL0     N 8692   9.959   6.602   7.275  0.1312  0.3634  0.1487
  806MOL0     C 8693   9.940   6.705   7.370 -0.2580 -0.4116  0.4643
  806MOL0     C 8694   9.803   6.732   7.372 -0.5283  1.0364 -0.9090
  806MOL0     C 8695   9.736   6.833   7.463  0.3715  0.2130 -0.1340
  806MOL0     C 8696   9.635   6.921   7.384  0.2456  0.3531  0.0233
  806MOL0     C 8697   9.564   7.014   7.490  0.9632  1.0694 -0.0384
  806MOL0     C 8698   9.447   7.087   7.430 -0.0088  0.1622 -0.2303
  806MOL0     O 8699   9.348   6.991   7.409 -0.1401 -0.5769  0.2349
  806MOL0     C 8700   9.245   7.017   7.329  0.0142 -0.5197  0.0660
  806MOL0     C 8701   9.153   6.914   7.300  0.0198 -0.3684  0.2727
  806MOL0     C 8702   9.042   6.926   7.214  0.0883 -0.0911 -0.2133
  806MOL0     C 8703   8.975   6.799   7.158 -0.2982 -1.3568  0.3138
  806MOL0     C 8704   9.017   7.042   7.151  0.7846 -0.6981 -0.9299
  806MOL0     C 8705   8.909   7.060   7.062  0.3357  0.2445  0.9151
  806MOL0     O 8706   8.957   7.091   6.941 -0.2193 -0.1832  0.7733
  806MOL0     C 8707   8.874   7.096   6.834  1.0014 -0.3496 -0.6592
  806MOL0     C 8708   8.908   7.188   6.734  0.6901  0.6405 -0.6066
  806MOL0     C 8709   8.825   7.215   6.626 -0.1618  0.1842 -0.8641
  806MOL0     C 8710   8.701   7.156   6.612  0.2870  0.7395 -0.6532
  806MOL0     O 8711   8.621   7.188   6.515 -0.0592  0.3484  0.0077
  806MOL0     C 8712   8.515   7.100   6.477 -0.1439  1.0491  0.0978
  806MOL0     C 8713   8.461   7.146   6.349  0.2218 -1.2779  0.8365
  806MOL0     C 8714   8.405   7.290   6.356  0.2444  0.1016 -0.7757
  806MOL0     C 8715   8.267   7.299   6.421 -0.4098 -0.1052 -1.0980
  806MOL0     C 8716   8.161   7.300   6.312 -0.1469 -0.1861  0.1531
  806MOL0     C 8717   8.020   7.260   6.361  0.7188 -0.4180  0.0300
  806MOL0     C 8718   7.917   7.244   6.243 -0.2254 -0.3394 -0.4282
  806MOL0     C 8719   7.774   7.223   6.299 -0.2381 -0.2280 -0.2198
  806MOL0    Cl 8720   7.663   7.210   6.176  0.6782  0.0960  0.4369
  806MOL0     C 8721   8.670   7.055   6.712  0.5700  0.4985  0.8217
  806MOL0     C 8722   8.754   7.021   6.821  0.3655  0.4407 -0.0864
  806MOL0     O 8723   8.790   7.045   7.092 -0.2496 -0.5044 -0.3719
  806MOL0     C 8724   9.107   7.150   7.175  0.3448  0.7019 -0.0485
  806MOL0     C 8725   9.222   7.136   7.264  0.5532 -1.1028  0.0373
  806MOL0     N 8726   9.748   6.649   7.275 -0.0527 -0.2003 -0.2051
  806MOL0     N 8727   9.836   6.564   7.229  0.0642  0.0041 -0.5377
  806MOL0     C 8728  10.921   6.339   6.731  0.8360 -0.2178  0.1635
  806MOL0     C 8729  11.001   6.323   6.614 -0.3695  0.4723  0.3561
  806MOL0     C 8730  11.274   6.418   6.257  0.2006  0.2018 -0.4788
  806MOL0     C 8731  11.341   6.520   6.184  0.4353  0.7025  0.3136
  806MOL0     C 8732  11.440   6.478   6.102 -0.3650  0.1786  0.5689
  806MOL0     C 8733  11.477   6.342   6.085 -0.7533  0.3129 -1.2635
  806MOL0     O 8734  11.580   6.286   6.013  0.5497  0.1122  0.6055
  806MOL0     C 8735  11.670   6.373   5.943  0.0331 -0.1998  0.9495
  806MOL0     C 8736  11.786   6.291   5.882  0.0597  0.2265  0.4540
  806MOL0     C 8737  11.912   6.378   5.862 -1.2665 -0.3733 -0.4292
  806MOL0     C 8738  12.031   6.286   5.803  0.1021  0.3177  0.2051
  806MOL0     C 8739  12.095   6.207   5.901 -0.5792 -0.8489 -0.5062
  806MOL0     C 8740  12.167   6.139   5.968  0.3610 -0.4183 -0.5724
  806MOL0     C 8741  11.415   6.241   6.161 -0.2732  0.3301 -0.7799
  806MOL0     C 8742  11.310   6.278   6.245  0.1282 -0.1981 -0.5863
  806MOL0     H 8743  11.244   6.552   6.675  0.5752 -2.2382 -1.4145
  806MOL0     H 8744  11.105   6.582   6.885  0.1827 -0.6803 -0.1031
  806MOL0     H 8745  10.691   6.378   6.900 -0.5587 -1.1941  0.5952
  806MOL0     H 8746  10.801   6.274   6.987 -1.6963 -0.0234  0.9399
  806MOL0     H 8747  10.772   6.396   7.205 -1.8153 -0.9331  0.3680
  806MOL0     H 8748  10.733   6.545   7.121 -1.1801  1.2613  0.7076
  806MOL0     H 8749  10.519   6.483   7.072  1.5657  2.2419  0.8650
  806MOL0     H 8750  10.547   6.316   7.115 -0.8099 -0.0318  3.2300
  806MOL0     H 8751  10.539   6.386   7.367  0.9751  2.5995  1.9271
  806MOL0     H 8752  10.606   6.533   7.310 -1.7354  0.2774  2.5679
  806MOL0     H 8753  10.416   6.585   7.394 -1.0533  1.5166 -1.4124
  806MOL0     H 8754  10.385   6.598   7.230 -0.7271  2.6378  1.9396
  806MOL0     H 8755  10.286   6.364   7.216  3.2748 -1.9217  1.4438
  806MOL0     H 8756  10.310   6.338   7.389 -0.9409 -1.9960 -1.3468
  806MOL0     H 8757  10.073   6.375   7.370 -1.9692  1.2853 -2.1258
  806MOL0     H 8758  10.143   6.518   7.443 -0.3813 -0.8372  0.2118
  806MOL0     H 8759  10.090   6.502   7.148 -0.5835 -1.2698  0.2703
  806MOL0     H 8760  10.161   6.639   7.238  2.6390 -0.8565  0.6378
  806MOL0     H 8761  10.015   6.763   7.422  0.0833 -1.2238  0.8758
  806MOL0     H 8762   9.674   6.790   7.541  1.8018 -0.3121  0.7596
  806MOL0     H 8763   9.813   6.883   7.523  0.6801  0.1013 -0.4325
  806MOL0     H 8764   9.554   6.858   7.347  1.9687  0.3553 -4.4144
  806MOL0     H 8765   9.682   6.980   7.304 -0.4222 -0.8884 -1.3467
  806MOL0     H 8766   9.644   7.081   7.525  0.2353  2.0384 -0.1875
  806MOL0     H 8767   9.517   6.968   7.578  0.4650  2.2885  0.3549
  806MOL0     H 8768   9.478   7.142   7.341 -1.2713  1.7765  0.2816
  806MOL0     H 8769   9.411   7.166   7.496 -1.4723 -1.9005  1.5881
  806MOL0     H 8770   9.176   6.815   7.339 -1.7051 -2.4004 -3.3978
  806MOL0     H 8771   8.866   6.796   7.151 -0.3299  0.0513 -0.2680
  806MOL0     H 8772   9.024   6.783   7.062  0.9818  0.1245  0.6760
  806MOL0     H 8773   9.001   6.718   7.226  1.1887  0.2325  1.7251
  806MOL0     H 8774   9.000   7.243   6.755 -0.5953  2.4047  0.7027
  806MOL0     H 8775   8.861   7.285   6.551  0.8010  0.7459  0.0863
  806MOL0     H 8776   8.554   6.999   6.463  2.5426  2.2015 -1.2899
  806MOL0     H 8777   8.424   7.084   6.537 -0.8296 -1.3194 -1.4303
  806MOL0     H 8778   8.525   7.114   6.266 -2.7333 -0.0824 -2.1187
  806MOL0     H 8779   8.376   7.084   6.320 -0.9871  0.5069  0.4281
  806MOL0     H 8780   8.413   7.336   6.257 -1.4090 -0.8919 -1.3986
  806MOL0     H 8781   8.478   7.357   6.402  0.3351 -0.3017 -0.3266
  806MOL0     H 8782   8.246   7.213   6.486 -1.2211  2.3045  2.1118
  806MOL0     H 8783   8.265   7.387   6.486 -1.5759 -1.2792  0.5197
  806MOL0     H 8784   8.177   7.223   6.236  2.2889 -0.4454  0.8418
  806MOL0     H 8785   8.143   7.390   6.253 -3.5231 -1.3457 -0.8030
  806MOL0     H 8786   8.035   7.166   6.415  1.3084  0.1229  0.8362
  806MOL0     H 8787   7.987   7.334   6.435  2.3655  2.1392 -1.6517
  806MOL0     H 8788   7.943   7.162   6.175  1.9629 -0.3056  0.2711
  806MOL0     H 8789   7.927   7.336   6.185  1.0406  0.3989  0.8768
  806MOL0     H 8790   7.747   7.307   6.363  0.5323 -0.9778  1.1288
  806MOL0     H 8791   7.769   7.131   6.357 -2.2466 -0.5032 -0.7495
  806MOL0     H 8792   8.573   7.009   6.694  1.0010  0.5904 -2.4197
  806MOL0     H 8793   8.736   6.943   6.894 -1.5971  0.3605 -0.5753
  806MOL0     H 8794   9.105   7.243   7.119  0.7746  1.5956  1.3571
  806MOL0     H 8795   9.298   7.212   7.255  0.9377 -1.5506 -0.5351
  806MOL0     H 8796  10.832   6.279   6.744  1.9792 -1.4658  3.0870
  806MOL0     H 8797  10.979   6.241   6.547 -3.7137  0.2088  1.6177
  806MOL0     H 8798  11.314   6.624   6.200  2.9361  1.1685  2.1943
  806MOL0     H 8799  11.491   6.544   6.032  2.2934 -1.2429  1.0206
  806MOL0     H 8800  11.617   6.436   5.871  1.9008  0.4104  0.0546
  806MOL0     H 8801  11.704   6.446   6.016  0.0611  4.7243 -3.4125
  806MOL0     H 8802  11.741   6.250   5.792 -2.2140  1.1167  1.0992
  806MOL0     H 8803  11.816   6.216   5.955  3.3322 -0.3884 -1.3595
  806MOL0     H 8804  11.952   6.431   5.949  0.5539  0.4536 -1.7209
  806MOL0     H 8805  11.883   6.450   5.786 -0.9990 -1.1683 -1.3015
  806MOL0     H 8806  12.100   6.350   5.746 -1.8202  2.6251  0.3339
  806MOL0     H 8807  11.989   6.222   5.725  2.7150 -1.2734 -0.0342
  806MOL0     H 8808  12.218   6.072   6.035 -2.8160 -2.7005 -0.1939
  806MOL0     H 8809  11.436   6.134   6.160 -1.9487 -0.2853  3.8126
  806MOL0     H 8810  11.259   6.209   6.311 -0.5160 -0.8127 -1.7043
  807MOL0     O 8811   8.121  10.294   8.137 -0.2562  0.4256  0.1335
  807MOL0     C 8812   8.080  10.183   8.174  1.3681 -0.5536  1.5809
  807MOL0     O 8813   7.965  10.123   8.125 -0.3355 -0.7954  0.6628
  807MOL0     C 8814   7.916  10.154   7.996  0.2467  0.0960 -0.1545
  807MOL0     C 8815   7.981  10.219   7.894 -0.4522  0.8853 -0.3073
  807MOL0     C 8816   7.912  10.249   7.776 -0.0133  0.6458  1.0856
  807MOL0     C 8817   7.775  10.220   7.762  0.6917 -0.7195  0.7219
  807MOL0     O 8818   7.694  10.237   7.654 -0.4687 -0.2716  0.1035
  807MOL0     C 8819   7.761  10.295   7.544  0.4914 -0.6044  0.1422
  807MOL0     C 8820   7.655  10.278   7.425 -1.0066  0.5882 -0.1327
  807MOL0     C 8821   7.631  10.134   7.382 -0.4060  0.2108  0.3110
  807MOL0     C 8822   7.536  10.134   7.261 -0.3294  0.9529 -0.2899
  807MOL0     C 8823   7.519   9.997   7.185  1.2136 -0.7511  0.2206
  807MOL0     C 8824   7.437   9.895   7.263 -0.0789  0.4617 -0.4093
  807MOL0     C 8825   7.289   9.907   7.235  0.2230  0.6241 -0.0518
  807MOL0     C 8826   7.202   9.814   7.323  0.0194  0.7131 -0.2761
  807MOL0     N 8827   7.059   9.817   7.281  0.3311  0.2632  0.1745
  807MOL0     C 8828   6.973   9.928   7.291 -0.4205  0.7332 -0.4080
  807MOL0     C 8829   6.866   9.895   7.226 -0.6658  0.3330 -0.7741
  807MOL0     C 8830   6.742   9.977   7.196 -0.8513  0.3609 -1.4894
  807MOL0     C 8831   6.703  10.091   7.293 -0.0265 -0.8593  0.1838
  807MOL0     C 8832   6.621  10.200   7.224  0.7332  0.9707 -0.7150
  807MOL0     C 8833   6.477  10.157   7.227  0.0756 -0.3080 -0.6901
  807MOL0     O 8834   6.438  10.034   7.157  0.4287 -0.0175 -0.6593
  807MOL0     C 8835   6.366   9.940   7.234 -0.1639 -0.3906 -0.1715
  807MOL0     C 8836   6.376   9.804   7.213 -0.0034  0.9054 -0.0090
  807MOL0     C 8837   6.293   9.707   7.282  0.5381 -0.7190 -0.7640
  807MOL0     C 8838   6.313   9.562   7.257 -0.3198 -0.5679 -0.5869
  807MOL0     C 8839   6.198   9.753   7.377  1.0287  0.6544 -0.0348
  807MOL0     C 8840   6.090   9.667   7.447 -0.0601  0.6648 -0.3951
  807MOL0     O 8841   6.066   9.546   7.384  0.0640 -0.1800  0.1305
  807MOL0     C 8842   5.970   9.478   7.450  0.2410  0.5985  0.5607
  807MOL0     C 8843   5.842   9.481   7.398  1.1026  0.5907 -1.0691
  807MOL0     C 8844   5.736   9.407   7.460  0.6920  0.3384  0.6835
  807MOL0     C 8845   5.764   9.319   7.561  0.6230 -0.5783  0.7938
  807MOL0     O 8846   5.663   9.240   7.616 -0.3548  0.5512 -0.0423
  807MOL0     C 8847   5.692   9.190   7.750  0.5804  0.1527  0.6776
  807MOL0     C 8848   5.569   9.103   7.776 -0.2864 -0.3124  0.6615
  807MOL0     C 8849   5.579   9.036   7.911 -0.5224 -0.0170  0.2067
  807MOL0     C 8850   5.690   8.933   7.919 -0.2749 -0.0712 -0.6112
  807MOL0     C 8851   5.679   8.848   8.049 -0.0663 -0.0263 -0.3891
  807MOL0     C 8852   5.760   8.901   8.173 -0.1822  0.5679  0.7738
  807MOL0     C 8853   5.744   8.812   8.297 -0.1480  0.3466  0.0426
  807MOL0     C 8854   5.826   8.677   8.297  0.7775  0.0136  0.5866
  807MOL0    Cl 8855   5.820   8.622   8.458  0.0667 -0.4920 -0.9003
  807MOL0     C 8856   5.893   9.325   7.621  0.2699  0.5644 -0.1924
  807MOL0     C 8857   5.990   9.405   7.561 -0.1466  0.1264  0.0100
  807MOL0     O 8858   6.024   9.711   7.542  0.8525 -0.0869  0.0896
  807MOL0     C 8859   6.187   9.890   7.404  0.6325  0.1624  0.2910
  807MOL0     C 8860   6.252   9.974   7.322 -1.1150  0.4669 -0.6202
  807MOL0     N 8861   6.877   9.761   7.184  0.3282 -0.3625  0.0769
  807MOL0     N 8862   6.995   9.710   7.219 -0.3451  0.4819 -0.1719
  807MOL0     C 8863   7.712  10.146   7.865 -0.1499  0.1831  0.6428
  807MOL0     C 8864   7.785  10.115   7.981  0.0584 -1.1300 -0.2474
  807MOL0     C 8865   8.162  10.115   8.275  0.4777  0.0129  0.2256
  807MOL0     C 8866   8.138   9.982   8.300  0.4234  0.5672  0.6951
  807MOL0     C 8867   8.201   9.900   8.392 -0.4369 -1.7152 -0.6700
  807MOL0     C 8868   8.309   9.962   8.465 -0.1613  0.5269  0.8643
  807MOL0     O 8869   8.373   9.867   8.547 -0.0998 -0.0480  0.0949
  807MOL0     C 8870   8.518   9.866   8.531  0.9036 -0.2653 -0.4704
  807MOL0     C 8871   8.561   9.790   8.409  0.3653  0.4420  0.0448
  807MOL0     C 8872   8.710   9.759   8.398  0.9456  0.0548 -0.3302
  807MOL0     C 8873   8.744   9.696   8.265 -0.0210  0.1107  1.3548
  807MOL0     C 8874   8.886   9.681   8.235 -0.2251 -0.8642 -0.3324
  807MOL0     C 8875   9.000   9.683   8.194 -0.4724 -0.4954 -0.4276
  807MOL0     C 8876   8.339  10.097   8.441  0.5471  0.1414  0.0458
  807MOL0     C 8877   8.263  10.172   8.351 -0.1283 -0.1453  0.6254
  807MOL0     H 8878   8.078  10.263   7.916 -1.2914  1.1040  3.8987
  807MOL0     H 8879   7.963  10.295   7.692  1.0709 -1.4145  0.5191
  807MOL0     H 8880   7.778  10.400   7.570 -0.5994 -0.1860 -0.7428
  807MOL0     H 8881   7.860  10.260   7.515  1.6741  1.5176  1.3543
  807MOL0     H 8882   7.569  10.332   7.465 -1.0677 -0.7794  1.7293
  807MOL0     H 8883   7.692  10.332   7.338 -1.6518  2.1495  0.5191
  807MOL0     H 8884   7.736  10.103   7.381 -1.1400 -2.6344  1.1276
  807MOL0     H 8885   7.581  10.082   7.464  0.7267  0.4818  1.2034
  807MOL0     H 8886   7.439  10.167   7.299 -0.3670 -0.1748  0.6565
  807MOL0     H 8887   7.556  10.202   7.178  1.0582 -0.4914 -1.1934
  807MOL0     H 8888   7.461  10.009   7.093 -0.8894  0.9263  1.6846
  807MOL0     H 8889   7.619   9.959   7.161  1.4261  0.4031 -0.8498
  807MOL0     H 8890   7.471   9.794   7.238  0.3747  0.0650  1.6278
  807MOL0     H 8891   7.452   9.907   7.371 -0.7156 -0.2804 -0.2226
  807MOL0     H 8892   7.275  10.011   7.265 -1.2048 -0.7159  4.7273
  807MOL0     H 8893   7.267   9.889   7.129  0.6803  0.4804 -0.1252
  807MOL0     H 8894   7.216   9.854   7.424  0.5901  0.7403 -0.3649
  807MOL0     H 8895   7.238   9.711   7.331 -0.4031  0.4529 -1.4381
  807MOL0     H 8896   6.992  10.027   7.329  1.2867 -0.5806  2.4779
  807MOL0     H 8897   6.760  10.007   7.093  4.1121 -0.3253 -1.0560
  807MOL0     H 8898   6.667   9.897   7.197  2.3228 -2.8476 -1.3714
  807MOL0     H 8899   6.797  10.136   7.325 -0.4693  0.3222 -0.1174
  807MOL0     H 8900   6.656  10.052   7.384 -1.0823  1.8945  0.9221
  807MOL0     H 8901   6.658  10.209   7.121  0.7086 -1.9396 -1.0437
  807MOL0     H 8902   6.640  10.290   7.284 -0.9920 -1.0027  3.1117
  807MOL0     H 8903   6.425  10.238   7.175 -0.0753  1.0311  1.4572
  807MOL0     H 8904   6.459  10.158   7.335  1.5217 -0.7415 -0.4210
  807MOL0     H 8905   6.451   9.778   7.139 -0.3735  0.9189 -0.3935
  807MOL0     H 8906   6.308   9.496   7.344 -1.0763  3.0284  2.3294
  807MOL0     H 8907   6.236   9.540   7.182 -1.1309  1.9854 -0.6100
  807MOL0     H 8908   6.404   9.546   7.199 -0.2820 -1.4716 -0.2964
  807MOL0     H 8909   5.821   9.541   7.309  0.3659  1.2973 -0.4389
  807MOL0     H 8910   5.636   9.408   7.418 -0.2723  0.5688  2.8465
  807MOL0     H 8911   5.782   9.132   7.767  0.4268 -0.1031  0.6194
  807MOL0     H 8912   5.691   9.282   7.809 -0.7268  0.4118  0.2916
  807MOL0     H 8913   5.480   9.167   7.774  1.0212  1.5758 -0.9455
  807MOL0     H 8914   5.565   9.034   7.692 -0.9362  3.9926 -3.2334
  807MOL0     H 8915   5.478   8.996   7.925 -0.6210  0.2908  0.4071
  807MOL0     H 8916   5.592   9.111   7.990  1.8830 -2.3100  2.1303
  807MOL0     H 8917   5.676   8.867   7.832 -0.8456 -0.4298 -0.2577
  807MOL0     H 8918   5.792   8.973   7.918 -0.4011  0.7369  3.1524
  807MOL0     H 8919   5.718   8.746   8.037  0.2700 -0.6377  4.2767
  807MOL0     H 8920   5.576   8.858   8.085  1.0205  3.7112  2.3401
  807MOL0     H 8921   5.864   8.906   8.140 -0.2186 -1.7143  0.1111
  807MOL0     H 8922   5.716   9.000   8.188  0.7945  0.9641  1.0993
  807MOL0     H 8923   5.641   8.775   8.295  0.0469 -0.8253  3.6678
  807MOL0     H 8924   5.773   8.871   8.385 -1.0871 -0.3814  0.8664
  807MOL0     H 8925   5.925   8.712   8.265  0.6968 -2.0096 -2.2832
  807MOL0     H 8926   5.799   8.608   8.216  1.3052  0.4690  0.0175
  807MOL0     H 8927   5.917   9.269   7.711 -1.9660  2.1588  1.4964
  807MOL0     H 8928   6.090   9.413   7.604 -0.0512  2.1515 -0.4604
  807MOL0     H 8929   6.103   9.928   7.462 -0.8665 -1.9189 -0.4219
  807MOL0     H 8930   6.225  10.079   7.334  0.5821  0.6857  2.1185
  807MOL0     H 8931   7.607  10.119   7.858  0.8311 -5.0167  1.6204
  807MOL0     H 8932   7.740  10.071   8.069 -0.7865  1.7204  0.8947
  807MOL0     H 8933   8.052   9.933   8.256  0.9032 -0.7811  1.2216
  807MOL0     H 8934   8.166   9.800   8.419 -2.6870 -0.8418 -0.0793
  807MOL0     H 8935   8.555   9.968   8.537 -2.8485  1.2062  0.1362
  807MOL0     H 8936   8.560   9.817   8.619 -0.3992 -0.7570 -0.0944
  807MOL0     H 8937   8.534   9.853   8.323 -1.4251  0.3643  0.5040
  807MOL0     H 8938   8.499   9.701   8.394 -3.3829  2.8474 -0.0952
  807MOL0     H 8939   8.734   9.695   8.484 -3.4127 -0.3981  0.7726
  807MOL0     H 8940   8.770   9.850   8.404  2.2215 -0.6985 -1.0814
  807MOL0     H 8941   8.701   9.755   8.184  2.8321  0.0073 -0.3447
  807MOL0     H 8942   8.699   9.596   8.261 -0.1426  0.1709  1.2118
  807MOL0     H 8943   9.099   9.676   8.155 -0.2725  1.6083 -0.4046
  807MOL0     H 8944   8.421  10.147   8.492  1.1203  0.9932 -1.6095
  807MOL0     H 8945   8.279  10.278   8.336 -2.0260  0.2166  0.9773
  808MOL0     O 8946  10.372   8.873   3.202  0.3782  0.6304  0.3604
  808MOL0     C 8947  10.267   8.812   3.202  1.2213  0.1203  0.4717
  808MOL0     O 8948  10.141   8.848   3.257 -0.0301 -0.4060 -0.7808
  808MOL0     C 8949  10.100   8.978   3.281  0.1977  0.1168 -0.3339
  808MOL0     C 8950   9.970   8.991   3.340  0.0094 -0.7480  0.6959
  808MOL0     C 8951   9.928   9.121   3.364 -0.5943 -0.1305 -0.1095
  808MOL0     C 8952   9.999   9.240   3.332 -0.6059 -0.0109 -0.2322
  808MOL0     O 8953   9.963   9.366   3.362  0.6519  1.0268  0.4444
  808MOL0     C 8954   9.836   9.400   3.414  0.1408  0.0327  1.2071
  808MOL0     C 8955   9.829   9.548   3.457 -0.4493 -0.1868 -0.5825
  808MOL0     C 8956   9.839   9.641   3.340 -0.4964  0.3721 -0.8891
  808MOL0     C 8957   9.773   9.774   3.376  0.6150 -0.5343  0.7474
  808MOL0     C 8958   9.802   9.884   3.274 -1.0729  0.7325 -0.3203
  808MOL0     C 8959   9.741   9.840   3.134  0.4042 -0.8258 -0.0944
  808MOL0     C 8960   9.712   9.971   3.059  0.2231 -0.6309 -0.4322
  808MOL0     C 8961   9.636   9.961   2.924 -0.2046 -0.9246 -0.6612
  808MOL0     N 8962   9.723   9.910   2.823  0.2039 -0.1943  0.0547
  808MOL0     C 8963   9.768   9.778   2.816 -0.4195  0.3339  1.0628
  808MOL0     C 8964   9.840   9.775   2.706  0.0980  0.4084 -0.0918
  808MOL0     C 8965   9.891   9.649   2.641  0.4621 -1.3419 -0.0010
  808MOL0     C 8966   9.787   9.543   2.633  0.3437  0.3192 -0.5265
  808MOL0     C 8967   9.695   9.553   2.512 -1.1825  0.4971  0.7931
  808MOL0     C 8968   9.574   9.640   2.514  0.4734 -0.5951 -0.6428
  808MOL0     O 8969   9.488   9.594   2.621 -0.0820 -0.0403  0.0919
  808MOL0     C 8970   9.390   9.502   2.591 -0.2666  0.2976 -0.8725
  808MOL0     C 8971   9.356   9.418   2.694 -0.6033  0.4646  0.2767
  808MOL0     C 8972   9.242   9.341   2.684 -0.3834 -0.1526 -0.2655
  808MOL0     C 8973   9.206   9.263   2.812 -0.9994 -0.5719 -0.2820
  808MOL0     C 8974   9.164   9.335   2.563  0.7173  0.5853 -0.3305
  808MOL0     C 8975   9.032   9.257   2.552 -0.2464  0.2178  0.0477
  808MOL0     O 8976   9.009   9.169   2.653 -0.7281  0.1243 -0.1095
  808MOL0     C 8977   8.887   9.104   2.649 -0.1790 -0.4979 -0.1642
  808MOL0     C 8978   8.785   9.146   2.731  0.5171 -0.3504  0.1504
  808MOL0     C 8979   8.675   9.065   2.745  0.3863  0.1399 -0.0157
  808MOL0     C 8980   8.657   8.945   2.674  0.4165  0.7004 -0.1738
  808MOL0     O 8981   8.533   8.881   2.706 -0.1201  0.3978 -0.0294
  808MOL0     C 8982   8.494   8.772   2.612 -0.3631 -0.6485  0.3895
  808MOL0     C 8983   8.392   8.687   2.679 -0.0502  0.0779  0.1831
  808MOL0     C 8984   8.411   8.667   2.830  0.5780  1.1044 -0.0730
  808MOL0     C 8985   8.544   8.599   2.853  0.4187 -0.1643  0.1813
  808MOL0     C 8986   8.582   8.572   2.996  0.0138 -0.5678  0.0237
  808MOL0     C 8987   8.576   8.701   3.083 -0.0531  0.2985 -0.7811
  808MOL0     C 8988   8.696   8.800   3.058  0.5484  0.4378 -0.6524
  808MOL0     C 8989   8.709   8.901   3.180 -0.6241 -0.6308  0.2688
  808MOL0    Cl 8990   8.848   8.997   3.150  0.0535 -0.1146  0.0924
  808MOL0     C 8991   8.757   8.901   2.584  0.3818 -0.3579 -0.8648
  808MOL0     C 8992   8.869   8.989   2.573 -0.4068 -1.1295  0.1256
  808MOL0     O 8993   8.964   9.275   2.452  0.3336 -0.3809 -0.5801
  808MOL0     C 8994   9.210   9.417   2.459 -0.0895 -0.0925  0.7144
  808MOL0     C 8995   9.311   9.511   2.474  0.1318  0.4665  0.1199
  808MOL0     N 8996   9.836   9.899   2.645  0.6538 -0.3103 -0.6490
  808MOL0     N 8997   9.779   9.985   2.723  0.0704 -0.0388  0.4511
  808MOL0     C 8998  10.119   9.222   3.270 -0.6578  0.1518  0.4428
  808MOL0     C 8999  10.173   9.094   3.248  0.1939  0.9827 -0.9023
  808MOL0     C 9000  10.273   8.674   3.149 -0.0119 -0.9405  0.8493
  808MOL0     C 9001  10.402   8.604   3.157 -0.1704  0.3362 -0.2970
  808MOL0     C 9002  10.408   8.476   3.108 -0.0138  0.1189  0.4128
  808MOL0     C 9003  10.294   8.413   3.050  0.8566 -0.3573  0.3266
  808MOL0     O 9004  10.295   8.283   3.019 -0.4623 -0.6946  0.2089
  808MOL0     C 9005  10.409   8.192   3.042 -0.1041 -0.6645 -0.6836
  808MOL0     C 9006  10.398   8.138   3.181  0.3253  0.1954  0.4727
  808MOL0     C 9007  10.292   8.039   3.201 -0.4556  1.2492 -1.6370
  808MOL0     C 9008  10.311   7.988   3.344  0.1501 -0.0866  0.3241
  808MOL0     C 9009  10.211   7.887   3.387 -0.3202 -1.2141 -0.6578
  808MOL0     C 9010  10.128   7.812   3.416 -0.1789 -0.6052 -0.1771
  808MOL0     C 9011  10.173   8.482   3.055  0.3694 -1.3185  0.1222
  808MOL0     C 9012  10.155   8.610   3.108 -1.0765 -0.0032 -0.4078
  808MOL0     H 9013   9.901   8.908   3.351 -1.0994  0.1599  0.6891
  808MOL0     H 9014   9.830   9.131   3.410  0.0175 -0.8918  1.4404
  808MOL0     H 9015   9.772   9.397   3.326  3.4069  3.3789 -1.6250
  808MOL0     H 9016   9.811   9.341   3.503 -2.7343  0.9730  1.0994
  808MOL0     H 9017   9.739   9.569   3.515 -1.0446  1.7432 -2.0886
  808MOL0     H 9018   9.914   9.557   3.525 -0.7782  0.7197 -0.2728
  808MOL0     H 9019   9.945   9.659   3.321  0.5030 -3.8530 -0.3447
  808MOL0     H 9020   9.806   9.602   3.243 -0.2890  1.3238 -1.3579
  808MOL0     H 9021   9.664   9.766   3.385  0.6491 -0.0090  1.7300
  808MOL0     H 9022   9.816   9.814   3.468  2.4904  0.4004 -0.4762
  808MOL0     H 9023   9.740   9.971   3.300 -0.4369  2.0040 -2.8015
  808MOL0     H 9024   9.908   9.907   3.272 -1.2197  1.6410  1.0435
  808MOL0     H 9025   9.804   9.766   3.083  0.1031 -1.4374  0.4001
  808MOL0     H 9026   9.650   9.780   3.138  0.2341 -0.5296  0.7978
  808MOL0     H 9027   9.630  10.026   3.106 -1.4620  0.0377 -3.7894
  808MOL0     H 9028   9.803  10.031   3.056  2.1522 -3.0828  2.6495
  808MOL0     H 9029   9.614  10.064   2.893  3.4168 -0.1149 -0.9781
  808MOL0     H 9030   9.544   9.907   2.948 -1.2835  0.7783 -0.7505
  808MOL0     H 9031   9.744   9.693   2.879  0.6352  0.7351  2.0383
  808MOL0     H 9032   9.908   9.684   2.538 -0.7501 -0.4312  0.0778
  808MOL0     H 9033   9.988   9.622   2.683  1.9265  1.5504 -1.2512
  808MOL0     H 9034   9.736   9.516   2.726  2.1578  0.8399  0.6537
  808MOL0     H 9035   9.835   9.447   2.619 -0.4450 -0.4481  1.6373
  808MOL0     H 9036   9.657   9.457   2.477  0.5369  0.7025 -1.9827
  808MOL0     H 9037   9.759   9.580   2.427 -0.1553 -1.4909  0.8612
  808MOL0     H 9038   9.528   9.626   2.416 -2.3046  1.4420  0.2606
  808MOL0     H 9039   9.616   9.740   2.534 -0.8793 -0.3867  1.3725
  808MOL0     H 9040   9.421   9.418   2.781  2.4257 -0.0382 -1.7919
  808MOL0     H 9041   9.101   9.275   2.838 -1.1360  4.6965 -2.1970
  808MOL0     H 9042   9.231   9.157   2.804 -1.5365 -0.6466 -1.1053
  808MOL0     H 9043   9.256   9.314   2.895 -5.0266 -0.1377  2.1130
  808MOL0     H 9044   8.802   9.231   2.796  1.6175 -2.3382  2.6566
  808MOL0     H 9045   8.585   9.095   2.799 -0.5274 -0.7349 -0.9924
  808MOL0     H 9046   8.450   8.796   2.515 -0.0812  1.4536  0.7421
  808MOL0     H 9047   8.575   8.702   2.588 -0.5851 -0.8614  0.2470
  808MOL0     H 9048   8.298   8.741   2.663 -1.1660 -1.2119  1.9194
  808MOL0     H 9049   8.393   8.591   2.626 -0.9497  1.0398 -1.6591
  808MOL0     H 9050   8.328   8.605   2.865  1.6806  0.8138  2.2238
  808MOL0     H 9051   8.403   8.760   2.887  0.7868 -0.9900  3.6787
  808MOL0     H 9052   8.554   8.516   2.783  2.9002  1.3116 -1.3783
  808MOL0     H 9053   8.621   8.671   2.824 -0.3224  1.7460  2.6033
  808MOL0     H 9054   8.684   8.534   3.010  0.1280 -0.7446 -1.2079
  808MOL0     H 9055   8.528   8.488   3.042 -0.5368  0.0253  0.4661
  808MOL0     H 9056   8.485   8.762   3.075 -0.9389 -1.0517 -1.2741
  808MOL0     H 9057   8.567   8.667   3.186  1.4515 -0.9474 -1.0209
  808MOL0     H 9058   8.685   8.854   2.963  1.1711 -0.2699 -1.1350
  808MOL0     H 9059   8.785   8.739   3.041 -1.0153 -1.6400 -1.9090
  808MOL0     H 9060   8.723   8.838   3.268 -1.7347 -1.8345 -0.3782
  808MOL0     H 9061   8.622   8.968   3.174  1.3441  2.0027 -0.6728
  808MOL0     H 9062   8.751   8.814   2.520 -0.7878 -0.2540 -0.9336
  808MOL0     H 9063   8.943   8.952   2.503  1.0253  0.9782  0.4587
  808MOL0     H 9064   9.151   9.426   2.369  1.4303 -2.4121 -0.6064
  808MOL0     H 9065   9.324   9.587   2.397 -0.8402  1.3710  0.8212
  808MOL0     H 9066  10.172   9.312   3.241 -1.0426 -0.1853 -1.4114
  808MOL0     H 9067  10.274   9.093   3.209  1.3798  4.1939  1.6727
  808MOL0     H 9068  10.482   8.653   3.211 -0.0011  0.5491 -0.7399
  808MOL0     H 9069  10.501   8.422   3.119 -1.8577 -3.0821  1.5134
  808MOL0     H 9070  10.391   8.106   2.976 -1.4936 -1.9858  1.2855
  808MOL0     H 9071  10.505   8.240   3.020 -2.0652  3.7235 -0.6452
  808MOL0     H 9072  10.383   8.220   3.251 -0.5660  1.7483 -1.4241
  808MOL0     H 9073  10.492   8.095   3.216 -0.7482 -1.3891  1.5127
  808MOL0     H 9074  10.299   7.953   3.134 -1.1128  0.4043 -0.6556
  808MOL0     H 9075  10.189   8.071   3.182 -1.1187 -1.2215 -2.6348
  808MOL0     H 9076  10.304   8.071   3.415  0.2354  1.4936 -1.4424
  808MOL0     H 9077  10.407   7.935   3.347  1.4402  2.1271  2.8594
  808MOL0     H 9078  10.053   7.742   3.447  1.2482 -2.3742 -0.5095
  808MOL0     H 9079  10.081   8.428   3.033 -1.0679  1.1125 -0.2267
  808MOL0     H 9080  10.056   8.651   3.125  0.5647  4.4058 -0.3448
  809MOL0     O 9081   2.439   2.717   7.549 -0.4993  0.4154 -0.1339
  809MOL0     C 9082   2.554   2.747   7.549 -0.2878 -0.0561  0.1066
  809MOL0     O 9083   2.634   2.743   7.442  0.1380 -0.2254  0.3184
  809MOL0     C 9084   2.589   2.696   7.321  0.3458  0.0303  0.0217
  809MOL0     C 9085   2.538   2.784   7.224 -0.0457  0.2929  0.7243
  809MOL0     C 9086   2.495   2.734   7.095  0.4074 -0.4309 -0.7118
  809MOL0     C 9087   2.500   2.595   7.068 -0.0208 -0.0022  0.7455
  809MOL0     O 9088   2.438   2.532   6.958 -0.8822 -0.1793 -0.5098
  809MOL0     C 9089   2.342   2.592   6.880  0.3174 -0.2775  0.4054
  809MOL0     C 9090   2.403   2.671   6.766  0.9593  0.0663  0.6677
  809MOL0     C 9091   2.439   2.586   6.637  0.4494 -0.2442 -0.8170
  809MOL0     C 9092   2.523   2.661   6.540  1.2552  1.0137  0.6729
  809MOL0     C 9093   2.439   2.778   6.479 -0.6323 -0.2568 -1.0045
  809MOL0     C 9094   2.523   2.847   6.378  0.2816  0.1665  0.2693
  809MOL0     C 9095   2.632   2.932   6.433  0.0200  0.1482 -1.0556
  809MOL0     C 9096   2.709   3.014   6.326  0.2126  0.1521 -0.3214
  809MOL0     N 9097   2.828   3.080   6.379  0.0149 -0.1059  0.1847
  809MOL0     C 9098   2.950   3.022   6.400 -0.3806 -0.7183 -0.2127
  809MOL0     C 9099   3.031   3.128   6.390 -0.2429  0.3959  0.2210
  809MOL0     C 9100   3.187   3.111   6.395  0.4265 -0.3166 -0.3694
  809MOL0     C 9101   3.234   3.062   6.536 -0.8845 -0.4644 -0.3612
  809MOL0     C 9102   3.354   2.964   6.520  0.0080 -0.2312 -0.5471
  809MOL0     C 9103   3.479   3.005   6.436  0.6729  0.0961 -1.0653
  809MOL0     O 9104   3.549   3.101   6.523  0.6591  0.1929  0.1384
  809MOL0     C 9105   3.682   3.078   6.524  0.3671  0.8137 -0.5955
  809MOL0     C 9106   3.750   3.045   6.638 -0.8234 -0.1093 -0.3063
  809MOL0     C 9107   3.888   2.999   6.628  0.4621 -0.6785  0.9715
  809MOL0     C 9108   3.943   2.932   6.745  0.3063 -0.2695 -0.1320
  809MOL0     C 9109   3.959   3.006   6.504  0.2610 -0.8595  0.3191
  809MOL0     C 9110   4.086   2.946   6.488  0.0422  0.4536  0.2565
  809MOL0     O 9111   4.077   2.828   6.418  0.1529  0.7470  0.0408
  809MOL0     C 9112   4.198   2.767   6.394  0.5382  0.2439 -0.7397
  809MOL0     C 9113   4.225   2.642   6.449  0.0950  0.0196 -0.3022
  809MOL0     C 9114   4.346   2.568   6.416  0.0325  0.1179  0.3075
  809MOL0     C 9115   4.432   2.616   6.323 -0.0477  0.4159  1.0267
  809MOL0     O 9116   4.553   2.567   6.286  0.3143 -0.0232 -0.8511
  809MOL0     C 9117   4.539   2.428   6.259  0.9098 -0.5072 -0.0972
  809MOL0     C 9118   4.673   2.369   6.223 -0.6433 -0.2685 -0.0920
  809MOL0     C 9119   4.769   2.366   6.350 -0.5536 -0.3666  0.2346
  809MOL0     C 9120   4.893   2.275   6.319 -0.4999  0.0670  0.3363
  809MOL0     C 9121   4.995   2.330   6.223  0.4912 -0.3321 -0.3899
  809MOL0     C 9122   5.098   2.222   6.179 -0.9883 -0.1971 -0.0536
  809MOL0     C 9123   5.174   2.164   6.293  0.5414 -0.2100 -0.5117
  809MOL0     C 9124   5.141   2.015   6.309 -0.6826  0.0926  0.9035
  809MOL0    Cl 9125   5.272   1.949   6.410  0.3261 -0.2055 -0.5684
  809MOL0     C 9126   4.388   2.734   6.258  0.1617  1.1590  0.2313
  809MOL0     C 9127   4.280   2.809   6.293 -0.1312 -0.1149  0.1593
  809MOL0     O 9128   4.180   2.994   6.547 -0.5740  0.5246  0.9186
  809MOL0     C 9129   3.889   3.052   6.393  0.8032  0.3051 -0.8811
  809MOL0     C 9130   3.754   3.093   6.405 -0.5838  0.6597 -0.1451
  809MOL0     N 9131   2.966   3.245   6.376 -0.5178  0.1151 -0.6204
  809MOL0     N 9132   2.840   3.215   6.378  0.7982 -1.1885  0.2511
  809MOL0     C 9133   2.558   2.511   7.156 -0.6430  0.3108  0.7035
  809MOL0     C 9134   2.596   2.559   7.283 -0.7014 -0.0887  0.4831
  809MOL0     C 9135   2.614   2.820   7.668  0.2847  0.6841  0.5548
  809MOL0     C 9136   2.562   2.784   7.791  0.2203 -0.3661 -0.3961
  809MOL0     C 9137   2.600   2.852   7.912  0.2168 -0.3803 -1.5611
  809MOL0     C 9138   2.688   2.954   7.916 -0.1989 -0.2536  0.4365
  809MOL0     O 9139   2.735   3.025   8.015 -0.2318  1.4603  0.3430
  809MOL0     C 9140   2.749   2.957   8.145  0.2857  0.4477  0.4282
  809MOL0     C 9141   2.860   3.022   8.220  0.1848 -0.9960  1.1530
  809MOL0     C 9142   2.994   3.032   8.147  0.7929  0.8708 -0.2961
  809MOL0     C 9143   3.083   3.155   8.195 -0.3372 -0.2526  0.2928
  809MOL0     C 9144   3.097   3.152   8.336  0.0298  0.4661  0.4162
  809MOL0     C 9145   3.110   3.152   8.450 -0.4859 -0.2329  0.3409
  809MOL0     C 9146   2.725   2.998   7.789  0.2310 -0.5788 -0.8027
  809MOL0     C 9147   2.694   2.926   7.669 -0.8807 -1.0612 -0.2885
  809MOL0     H 9148   2.541   2.889   7.254  1.1605  0.5034 -0.0584
  809MOL0     H 9149   2.451   2.813   7.035  0.4244  4.0354  4.3877
  809MOL0     H 9150   2.275   2.511   6.849  1.6498 -0.6642 -1.6408
  809MOL0     H 9151   2.276   2.656   6.939  2.3495  2.6647 -0.2868
  809MOL0     H 9152   2.331   2.748   6.737  1.4091  0.4432  0.5286
  809MOL0     H 9153   2.490   2.729   6.800 -1.1373  2.2612  2.6943
  809MOL0     H 9154   2.496   2.498   6.669  2.7880  1.4965  0.0857
  809MOL0     H 9155   2.344   2.565   6.587 -0.5591  2.2745 -0.1417
  809MOL0     H 9156   2.620   2.697   6.574  0.9552  1.7902  0.7259
  809MOL0     H 9157   2.555   2.609   6.449  3.0633  2.8248  0.1949
  809MOL0     H 9158   2.341   2.746   6.441 -2.9389  2.6653  1.9020
  809MOL0     H 9159   2.407   2.849   6.556  3.8099  1.6790 -0.6936
  809MOL0     H 9160   2.565   2.783   6.299  0.0188  1.7385 -1.1953
  809MOL0     H 9161   2.464   2.922   6.325  1.1094  1.1611  0.7386
  809MOL0     H 9162   2.586   2.999   6.505 -1.7282 -1.5444 -0.5073
  809MOL0     H 9163   2.711   2.868   6.474  0.7310  2.5922  1.6781
  809MOL0     H 9164   2.640   3.088   6.284  1.8644  0.5877 -2.4837
  809MOL0     H 9165   2.732   2.943   6.246  0.9746 -0.7633  0.6634
  809MOL0     H 9166   2.985   2.920   6.397  2.3389 -0.0654  2.8177
  809MOL0     H 9167   3.217   3.034   6.323 -1.5002  0.2417 -1.8405
  809MOL0     H 9168   3.238   3.205   6.373  1.1189 -0.5771  0.0719
  809MOL0     H 9169   3.157   3.009   6.593 -1.3945  1.7045  1.1189
  809MOL0     H 9170   3.283   3.146   6.586 -0.5295 -0.4221 -0.7702
  809MOL0     H 9171   3.315   2.870   6.481  1.3224 -0.7724 -0.5911
  809MOL0     H 9172   3.397   2.943   6.618 -0.4665 -1.0486 -0.5081
  809MOL0     H 9173   3.454   3.049   6.339  2.3479  0.0286 -1.5586
  809MOL0     H 9174   3.537   2.914   6.418 -2.1205 -2.1284  0.3612
  809MOL0     H 9175   3.709   3.028   6.737  1.1944  0.2464  0.6456
  809MOL0     H 9176   3.998   3.002   6.809 -0.6460  0.5733 -0.1984
  809MOL0     H 9177   3.872   2.878   6.808 -1.7739  1.7922 -0.5450
  809MOL0     H 9178   4.020   2.860   6.719  0.2627  0.0398 -1.1745
  809MOL0     H 9179   4.164   2.603   6.530 -1.7715  1.3435 -1.0067
  809MOL0     H 9180   4.370   2.482   6.479  2.0462  2.2597  2.6575
  809MOL0     H 9181   4.505   2.367   6.344  3.3964 -1.0956  0.5437
  809MOL0     H 9182   4.467   2.418   6.178  0.5943 -0.9981  0.2333
  809MOL0     H 9183   4.653   2.271   6.180 -2.1751  0.0151 -0.0766
  809MOL0     H 9184   4.719   2.437   6.150 -0.6278  0.0069  0.1727
  809MOL0     H 9185   4.723   2.329   6.442  0.9467  0.6415  1.4461
  809MOL0     H 9186   4.810   2.466   6.368  0.7773 -0.7565 -0.5175
  809MOL0     H 9187   4.945   2.242   6.409  2.0409 -0.0694 -1.1101
  809MOL0     H 9188   4.845   2.193   6.266  0.0269 -0.3742  0.5370
  809MOL0     H 9189   5.044   2.414   6.274 -0.5593 -0.4771  0.8964
  809MOL0     H 9190   4.942   2.377   6.139 -1.9272 -1.1336  0.6255
  809MOL0     H 9191   5.056   2.148   6.110  1.3593 -0.8755 -0.8550
  809MOL0     H 9192   5.173   2.266   6.113 -0.0118  0.5762  1.5206
  809MOL0     H 9193   5.148   2.221   6.383 -1.9782 -1.3766 -0.4291
  809MOL0     H 9194   5.282   2.163   6.274  1.4140 -3.3897  3.2933
  809MOL0     H 9195   5.151   1.962   6.215 -1.0614  0.0073  0.9120
  809MOL0     H 9196   5.038   2.009   6.345 -1.4159 -0.9459 -1.2119
  809MOL0     H 9197   4.449   2.759   6.172 -0.8939  0.5211 -0.7194
  809MOL0     H 9198   4.256   2.904   6.244 -2.8827 -1.7849 -2.0506
  809MOL0     H 9199   3.936   3.049   6.295  1.2187 -2.1551 -0.6639
  809MOL0     H 9200   3.693   3.106   6.316 -2.0795  3.6437  1.1539
  809MOL0     H 9201   2.561   2.408   7.122 -1.4727 -0.4869  2.9135
  809MOL0     H 9202   2.622   2.481   7.353  0.4113 -0.2153 -0.0504
  809MOL0     H 9203   2.492   2.703   7.808  1.1016 -0.5199  3.4433
  809MOL0     H 9204   2.549   2.819   8.002  1.3165 -0.8415 -1.0966
  809MOL0     H 9205   2.657   2.965   8.202 -1.5204  0.4105 -2.2993
  809MOL0     H 9206   2.772   2.851   8.129 -3.3323 -0.3284 -0.3364
  809MOL0     H 9207   2.864   2.975   8.319 -3.6469  0.4990  2.2292
  809MOL0     H 9208   2.819   3.123   8.230 -1.8773 -1.6556 -0.0005
  809MOL0     H 9209   2.981   3.058   8.042 -1.5586 -3.6435 -1.3809
  809MOL0     H 9210   3.060   2.947   8.164  3.0461  2.4677 -0.6255
  809MOL0     H 9211   3.034   3.250   8.172  0.1181 -0.1971 -0.4876
  809MOL0     H 9212   3.183   3.144   8.153 -0.4162  0.2353 -0.0285
  809MOL0     H 9213   3.144   3.150   8.552  0.4266 -2.9178  0.0644
  809MOL0     H 9214   2.795   3.081   7.794 -0.3513  0.0847 -2.7795
  809MOL0     H 9215   2.721   2.965   7.571 -2.4914  1.2073  0.0863
  810MOL0     O 9216   0.666   5.921   9.061 -0.1533 -1.2776  0.6702
  810MOL0     C 9217   0.642   5.872   9.169 -0.9834 -0.3138  0.2552
  810MOL0     O 9218   0.523   5.850   9.229 -0.5132 -0.0787 -0.4201
  810MOL0     C 9219   0.411   5.893   9.168 -0.1671 -0.9818 -0.0081
  810MOL0     C 9220   0.346   5.805   9.087 -0.5903 -1.3521  0.0131
  810MOL0     C 9221   0.228   5.849   9.018  0.4070 -0.3337 -1.1925
  810MOL0     C 9222   0.183   5.981   9.030 -0.8495 -0.5345 -0.0257
  810MOL0     O 9223   0.092   6.017   8.941 -0.2464 -0.3333 -0.3054
  810MOL0     C 9224   0.076   6.159   8.905  0.7627  0.5034 -0.6135
  810MOL0     C 9225  -0.070   6.166   8.848 -0.6415  0.4889  0.2130
  810MOL0     C 9226  -0.071   6.280   8.748 -0.3381  0.0104 -0.5242
  810MOL0     C 9227  -0.216   6.309   8.701  0.9507 -0.4393 -0.6548
  810MOL0     C 9228  -0.219   6.371   8.565 -0.7477  0.7752 -0.0857
  810MOL0     C 9229  -0.364   6.380   8.508 -0.7307  0.1374  0.1866
  810MOL0     C 9230  -0.340   6.440   8.370  0.2394  0.4594  0.4725
  810MOL0     C 9231  -0.466   6.484   8.314 -0.6164 -0.8372  0.4647
  810MOL0     N 9232  -0.585   6.392   8.318 -0.8948 -0.5496  0.4893
  810MOL0     C 9233  -0.648   6.360   8.197  0.2302 -0.6791  0.8631
  810MOL0     C 9234  -0.745   6.277   8.228  1.6200  0.5030 -0.1107
  810MOL0     C 9235  -0.834   6.210   8.121 -0.4413 -0.5220 -0.4518
  810MOL0     C 9236  -0.733   6.117   8.045  0.8275  0.0007  0.4700
  810MOL0     C 9237  -0.757   6.091   7.897  0.1468  0.2130 -0.4053
  810MOL0     C 9238  -0.906   6.049   7.861 -0.4893 -0.0116 -0.1566
  810MOL0     O 9239  -0.921   5.980   7.734 -0.2438 -0.1802  0.0796
  810MOL0     C 9240  -1.048   5.941   7.692  0.0181 -0.1841 -0.0618
  810MOL0     C 9241  -1.040   5.866   7.582  0.0495 -1.3362 -0.2291
  810MOL0     C 9242  -1.156   5.832   7.519 -0.5233 -0.2391  0.9837
  810MOL0     C 9243  -1.144   5.743   7.398 -0.4326 -0.1039  0.4047
  810MOL0     C 9244  -1.278   5.876   7.571 -0.8530  0.3475  0.1310
  810MOL0     C 9245  -1.407   5.853   7.502  0.2412 -0.1394 -0.0044
  810MOL0     O 9246  -1.490   5.962   7.506 -0.5757 -0.4152 -0.6936
  810MOL0     C 9247  -1.616   5.954   7.456 -0.1083  0.6730  0.5057
  810MOL0     C 9248  -1.661   6.068   7.384 -0.5009 -0.1182  0.0139
  810MOL0     C 9249  -1.796   6.072   7.333 -0.3752 -0.0031 -0.2489
  810MOL0     C 9250  -1.884   5.962   7.349  0.2888 -0.1560 -0.0522
  810MOL0     O 9251  -2.005   5.962   7.293  0.4397  0.8045  0.2541
  810MOL0     C 9252  -2.115   5.890   7.356  0.0343  0.4881  0.4247
  810MOL0     C 9253  -2.145   5.761   7.292 -0.7944  0.5364 -0.0836
  810MOL0     C 9254  -2.177   5.775   7.143 -0.5018 -0.3168 -0.6700
  810MOL0     C 9255  -2.141   5.638   7.073 -0.2609 -0.3711 -0.2326
  810MOL0     C 9256  -2.016   5.648   6.993  0.2136  0.5670  0.3606
  810MOL0     C 9257  -1.893   5.657   7.085  0.4385 -0.1536 -0.3661
  810MOL0     C 9258  -1.763   5.688   7.019  0.9743  0.5935  0.1636
  810MOL0     C 9259  -1.644   5.706   7.122 -0.3713  0.1108  0.6164
  810MOL0    Cl 9260  -1.634   5.567   7.242 -0.0755  0.0738 -0.0292
  810MOL0     C 9261  -1.835   5.847   7.418  0.5552 -0.0678  0.3283
  810MOL0     C 9262  -1.709   5.842   7.462 -0.3933 -0.2066 -1.1038
  810MOL0     O 9263  -1.434   5.738   7.455 -0.0746  0.6927  0.0397
  810MOL0     C 9264  -1.281   5.955   7.688  0.2625 -0.1585  0.3616
  810MOL0     C 9265  -1.166   5.984   7.752  0.2160 -0.3892  0.5652
  810MOL0     N 9266  -0.745   6.259   8.369 -0.5890 -0.2873 -0.5497
  810MOL0     N 9267  -0.645   6.326   8.417  0.5424  0.0398  0.3594
  810MOL0     C 9268   0.253   6.067   9.123  0.6378 -0.6486  0.5435
  810MOL0     C 9269   0.361   6.021   9.193 -0.0535  0.5892 -0.3585
  810MOL0     C 9270   0.770   5.837   9.245  0.0933 -1.2948 -0.7128
  810MOL0     C 9271   0.885   5.926   9.250 -0.0122  0.9682 -0.1625
  810MOL0     C 9272   1.006   5.887   9.318 -0.3649  0.4231  0.1483
  810MOL0     C 9273   1.006   5.771   9.388  0.1192  0.4011  0.1847
  810MOL0     O 9274   1.108   5.722   9.473 -1.2423 -0.1461  0.0965
  810MOL0     C 9275   1.236   5.789   9.474 -0.1091 -0.1716  0.3083
  810MOL0     C 9276   1.350   5.714   9.555 -0.1851  0.6123  0.0046
  810MOL0     C 9277   1.468   5.808   9.588 -0.8559  0.3230 -1.5846
  810MOL0     C 9278   1.594   5.734   9.663 -0.4172 -1.0522  0.0137
  810MOL0     C 9279   1.536   5.676   9.784 -0.1774  0.4660  0.6373
  810MOL0     C 9280   1.499   5.619   9.885 -0.4268  0.2713  0.6035
  810MOL0     C 9281   0.896   5.687   9.383  0.6671  0.6673  0.2169
  810MOL0     C 9282   0.785   5.719   9.311 -1.0665  0.0132  0.4410
  810MOL0     H 9283   0.374   5.700   9.076 -3.0322 -2.2174  1.2121
  810MOL0     H 9284   0.191   5.768   8.955  5.8028 -4.8101  0.6213
  810MOL0     H 9285   0.088   6.230   8.987 -1.7587  1.3602 -0.9059
  810MOL0     H 9286   0.148   6.186   8.828  1.6315 -0.8828 -0.3283
  810MOL0     H 9287  -0.084   6.067   8.803 -1.7835  0.6633  0.1432
  810MOL0     H 9288  -0.144   6.179   8.927  0.3254 -0.7997  1.3751
  810MOL0     H 9289  -0.030   6.367   8.800 -0.1596 -1.2156  1.5099
  810MOL0     H 9290  -0.009   6.255   8.662 -1.2586  2.6968 -2.0884
  810MOL0     H 9291  -0.289   6.228   8.693 -1.8766  1.8026  0.3659
  810MOL0     H 9292  -0.259   6.383   8.768  0.3204 -1.4446  0.0720
  810MOL0     H 9293  -0.188   6.473   8.587 -2.7357  0.9215  2.5111
  810MOL0     H 9294  -0.152   6.318   8.496  0.1494 -0.7289  1.8124
  810MOL0     H 9295  -0.409   6.280   8.506  0.7448 -0.5615 -1.3021
  810MOL0     H 9296  -0.419   6.452   8.569 -0.8099  2.5216 -2.4954
  810MOL0     H 9297  -0.272   6.525   8.371  1.4388 -0.3699 -2.2554
  810MOL0     H 9298  -0.286   6.378   8.298  2.3852 -0.9427  3.0938
  810MOL0     H 9299  -0.443   6.494   8.207 -2.3529  0.3801  0.1448
  810MOL0     H 9300  -0.487   6.582   8.357  1.9313 -1.1235  2.5671
  810MOL0     H 9301  -0.616   6.388   8.097 -0.9423 -1.3377  0.2884
  810MOL0     H 9302  -0.910   6.167   8.185 -1.8607  0.5682 -1.3540
  810MOL0     H 9303  -0.884   6.276   8.050 -0.2611 -1.9813 -2.0075
  810MOL0     H 9304  -0.737   6.014   8.083 -0.0256 -1.0963 -2.3003
  810MOL0     H 9305  -0.635   6.163   8.045 -0.4829  3.0170 -0.3760
  810MOL0     H 9306  -0.677   6.020   7.872  1.7704  1.6456  0.4899
  810MOL0     H 9307  -0.740   6.184   7.843  0.1543  1.6350  1.9075
  810MOL0     H 9308  -0.967   6.140   7.854  0.3122  0.5915  0.5177
  810MOL0     H 9309  -0.945   5.987   7.942  0.3342  0.1761  0.3999
  810MOL0     H 9310  -0.944   5.840   7.540  0.1259 -0.0744 -0.8954
  810MOL0     H 9311  -1.042   5.713   7.371  0.2099  0.8571  1.6694
  810MOL0     H 9312  -1.189   5.644   7.414 -2.3069  0.4536 -1.0534
  810MOL0     H 9313  -1.185   5.798   7.312 -0.8892 -2.2374 -0.8195
  810MOL0     H 9314  -1.602   6.159   7.392 -2.2713  1.1393 -0.6059
  810MOL0     H 9315  -1.842   6.157   7.284  1.9420  1.7817  0.4770
  810MOL0     H 9316  -2.107   5.868   7.463 -2.0043  0.5464  0.6303
  810MOL0     H 9317  -2.206   5.950   7.367 -0.8240 -0.5273 -0.7999
  810MOL0     H 9318  -2.061   5.694   7.312 -2.7295 -1.6408  1.2705
  810MOL0     H 9319  -2.229   5.714   7.344 -2.3362  1.6396 -1.4603
  810MOL0     H 9320  -2.136   5.861   7.091 -2.5827  1.4682  0.4457
  810MOL0     H 9321  -2.287   5.779   7.142 -0.5016 -0.1924 -2.6343
  810MOL0     H 9322  -2.130   5.564   7.153  0.5792  2.2616  2.2603
  810MOL0     H 9323  -2.219   5.603   7.006  1.2472 -1.4149 -1.5018
  810MOL0     H 9324  -2.022   5.725   6.915 -0.9471 -1.1914 -1.3794
  810MOL0     H 9325  -2.004   5.557   6.933  0.6282  2.2127 -2.1981
  810MOL0     H 9326  -1.917   5.738   7.154 -1.5105 -1.3902  0.5019
  810MOL0     H 9327  -1.882   5.556   7.125 -0.0996 -0.9566 -2.1175
  810MOL0     H 9328  -1.782   5.775   6.954 -0.1555 -0.0366 -0.3803
  810MOL0     H 9329  -1.741   5.601   6.955 -2.4195  0.8898 -1.6408
  810MOL0     H 9330  -1.656   5.800   7.178 -0.4104  0.6955 -0.3484
  810MOL0     H 9331  -1.551   5.709   7.065 -1.7533 -0.5790 -1.8326
  810MOL0     H 9332  -1.901   5.762   7.428 -2.2956  1.9754  0.2537
  810MOL0     H 9333  -1.681   5.754   7.519 -0.1311  2.1944  2.8564
  810MOL0     H 9334  -1.378   5.988   7.726  1.6911  2.2965  2.1088
  810MOL0     H 9335  -1.163   6.052   7.837  2.0262  0.2648  0.0176
  810MOL0     H 9336   0.219   6.170   9.131  1.7818 -0.3992  2.7990
  810MOL0     H 9337   0.415   6.077   9.268 -1.4051 -0.3686  1.4169
  810MOL0     H 9338   0.887   6.009   9.179  0.4541  2.6432  1.7048
  810MOL0     H 9339   1.087   5.959   9.327 -1.0851  1.0322  2.6938
  810MOL0     H 9340   1.274   5.801   9.372 -0.5633 -1.9690 -0.1082
  810MOL0     H 9341   1.228   5.886   9.524 -2.6845 -0.4911  0.6330
  810MOL0     H 9342   1.394   5.631   9.499  0.0388  2.8874 -3.4713
  810MOL0     H 9343   1.313   5.666   9.646  1.9098  0.2991  0.7434
  810MOL0     H 9344   1.434   5.888   9.654  1.4027 -0.6875  1.0098
  810MOL0     H 9345   1.514   5.858   9.502  1.9703 -0.6836 -0.7908
  810MOL0     H 9346   1.688   5.787   9.674  0.7442 -2.6323 -1.6877
  810MOL0     H 9347   1.622   5.641   9.612 -4.1351 -1.7390 -1.0827
  810MOL0     H 9348   1.469   5.586   9.982 -4.4845  1.1143 -0.1714
  810MOL0     H 9349   0.895   5.582   9.411  0.0426 -1.0488 -5.0975
  810MOL0     H 9350   0.706   5.645   9.320 -0.3404 -0.5028  5.6729
  811MOL0     O 9351   9.390   7.822   0.772  0.8130 -0.2683 -0.1671
  811MOL0     C 9352   9.462   7.836   0.672  0.3518 -0.0084  0.1766
  811MOL0     O 9353   9.504   7.728   0.588 -0.0310 -0.1850 -0.5464
  811MOL0     C 9354   9.500   7.605   0.641  0.3008 -0.1090  0.7274
  811MOL0     C 9355   9.606   7.571   0.726 -0.0679  0.0324 -1.0227
  811MOL0     C 9356   9.609   7.446   0.794  0.3422  0.6760  0.2391
  811MOL0     C 9357   9.511   7.353   0.783  0.7438 -0.3354 -0.5826
  811MOL0     O 9358   9.506   7.234   0.838 -0.3242  0.3483  0.0145
  811MOL0     C 9359   9.570   7.203   0.971  0.1817 -1.0143  0.5239
  811MOL0     C 9360   9.486   7.250   1.090  0.7162 -0.2238 -0.7681
  811MOL0     C 9361   9.495   7.159   1.214  0.4608 -0.0012 -0.0789
  811MOL0     C 9362   9.637   7.177   1.272 -0.2437  0.2459 -1.1860
  811MOL0     C 9363   9.642   7.142   1.423  0.3200  0.4155  0.5232
  811MOL0     C 9364   9.576   7.237   1.525  0.2444 -0.2279 -1.0291
  811MOL0     C 9365   9.555   7.188   1.667  0.1309  0.1992 -1.0836
  811MOL0     C 9366   9.481   7.298   1.756  0.3007 -0.3237 -0.0020
  811MOL0     N 9367   9.475   7.256   1.896  0.3206  0.7572 -0.5359
  811MOL0     C 9368   9.380   7.171   1.944 -1.1744 -0.0816  0.3458
  811MOL0     C 9369   9.419   7.159   2.076 -0.9995 -0.1497  0.6055
  811MOL0     C 9370   9.344   7.072   2.169 -0.6067 -0.3377  0.6655
  811MOL0     C 9371   9.255   7.141   2.281 -0.0023 -0.2369  0.4751
  811MOL0     C 9372   9.174   7.036   2.347  0.9128  0.0978  0.1193
  811MOL0     C 9373   9.057   7.091   2.423  0.0736  0.7141  0.7024
  811MOL0     O 9374   8.967   7.149   2.323 -0.5314  0.6681 -0.5197
  811MOL0     C 9375   8.867   7.232   2.364  0.0272  0.6765 -0.2485
  811MOL0     C 9376   8.815   7.325   2.262 -0.3509  0.6191  0.3998
  811MOL0     C 9377   8.694   7.389   2.265 -0.2900  0.2978 -0.4918
  811MOL0     C 9378   8.669   7.486   2.152  1.0179  0.0989 -0.0280
  811MOL0     C 9379   8.629   7.384   2.393  0.0755 -0.1814  0.6301
  811MOL0     C 9380   8.507   7.464   2.418  0.6013  0.1177 -0.5312
  811MOL0     O 9381   8.487   7.490   2.548 -0.0197 -0.1764 -0.8319
  811MOL0     C 9382   8.394   7.573   2.601 -0.2682  0.2455  0.2229
  811MOL0     C 9383   8.280   7.506   2.651  0.2190 -0.0997  0.4434
  811MOL0     C 9384   8.172   7.579   2.697 -0.0329  0.3688  0.4001
  811MOL0     C 9385   8.165   7.716   2.704 -0.4961  0.0418 -0.4130
  811MOL0     O 9386   8.061   7.778   2.759 -0.4102 -0.2092  0.0597
  811MOL0     C 9387   8.088   7.908   2.825 -0.3978 -0.3493 -0.3877
  811MOL0     C 9388   7.955   7.950   2.904 -0.1799 -0.4421  0.2013
  811MOL0     C 9389   7.902   7.854   3.009  0.1792  0.1326  0.1169
  811MOL0     C 9390   7.779   7.764   2.975  0.0341  0.4166  0.3829
  811MOL0     C 9391   7.805   7.669   2.856 -0.1640 -0.0379  0.5015
  811MOL0     C 9392   7.675   7.589   2.830  0.2773 -0.7024  0.1124
  811MOL0     C 9393   7.653   7.549   2.677 -0.3621  0.5185  0.2187
  811MOL0     C 9394   7.531   7.460   2.656 -0.1024  1.0235 -0.3129
  811MOL0    Cl 9395   7.387   7.554   2.705 -0.4587  0.5410  0.3509
  811MOL0     C 9396   8.281   7.785   2.662 -0.5666  0.3597 -0.0952
  811MOL0     C 9397   8.399   7.715   2.611  0.0629 -0.0927  0.3598
  811MOL0     O 9398   8.434   7.503   2.334  0.0796 -0.4115  0.3544
  811MOL0     C 9399   8.671   7.304   2.497 -0.5809 -0.6113 -0.1584
  811MOL0     C 9400   8.781   7.220   2.482 -0.1662 -0.5874 -0.8282
  811MOL0     N 9401   9.521   7.250   2.102 -0.0134 -0.8747 -0.3108
  811MOL0     N 9402   9.558   7.301   1.988  0.1874  0.2681  0.0067
  811MOL0     C 9403   9.404   7.382   0.689 -0.3375  0.0418  0.4837
  811MOL0     C 9404   9.404   7.506   0.614  0.5177 -0.2000  0.7192
  811MOL0     C 9405   9.521   7.959   0.624 -0.4021 -0.9271  0.2586
  811MOL0     C 9406   9.488   8.073   0.711  0.7054  0.9349 -0.7232
  811MOL0     C 9407   9.540   8.198   0.687 -0.5175  0.1693 -0.0282
  811MOL0     C 9408   9.597   8.234   0.569  0.1253  0.4606 -0.0520
  811MOL0     O 9409   9.638   8.366   0.556  0.4265 -0.2193  0.4465
  811MOL0     C 9410   9.625   8.418   0.423 -0.3579 -0.3491  0.1702
  811MOL0     C 9411   9.774   8.430   0.382  0.1057 -0.5211  0.2170
  811MOL0     C 9412   9.818   8.571   0.423 -0.7125  0.6009 -0.1800
  811MOL0     C 9413   9.969   8.588   0.392  0.4837  0.4910  0.7540
  811MOL0     C 9414  10.003   8.594   0.243  1.3845 -0.3574 -0.5341
  811MOL0     C 9415  10.035   8.616   0.124  0.1064 -0.2843 -0.4610
  811MOL0     C 9416   9.632   8.129   0.483  0.3541  0.2343 -0.4159
  811MOL0     C 9417   9.597   7.999   0.511  1.7099 -0.9357  0.4499
  811MOL0     H 9418   9.676   7.652   0.739 -1.1373  1.0476 -1.3377
  811MOL0     H 9419   9.684   7.422   0.869  1.9813  0.2582 -1.4746
  811MOL0     H 9420   9.588   7.097   0.991 -1.2607 -1.1745  1.0667
  811MOL0     H 9421   9.671   7.247   0.967  0.1188 -0.9300 -2.5806
  811MOL0     H 9422   9.505   7.355   1.116  3.0907 -1.1806  1.8196
  811MOL0     H 9423   9.382   7.249   1.058  0.3039  0.4148  0.4964
  811MOL0     H 9424   9.416   7.206   1.273 -2.8817 -3.4621 -1.4031
  811MOL0     H 9425   9.459   7.063   1.176 -3.3674  1.4654 -0.6209
  811MOL0     H 9426   9.709   7.116   1.218  0.5179  1.2068 -1.2715
  811MOL0     H 9427   9.683   7.274   1.255  3.3753 -1.8364 -5.0326
  811MOL0     H 9428   9.595   7.043   1.434  0.9654  0.0175 -0.2325
  811MOL0     H 9429   9.740   7.115   1.466  0.9768  0.5974 -0.8068
  811MOL0     H 9430   9.632   7.330   1.531  0.4543 -0.3196 -1.5151
  811MOL0     H 9431   9.474   7.263   1.494 -0.3896  1.8924  2.3214
  811MOL0     H 9432   9.491   7.100   1.675 -1.3442  1.4154  1.8281
  811MOL0     H 9433   9.659   7.165   1.694 -0.8229 -2.0476  0.9924
  811MOL0     H 9434   9.381   7.315   1.715 -0.0271 -3.1381 -0.5844
  811MOL0     H 9435   9.545   7.386   1.758  1.0545 -0.8645  0.4592
  811MOL0     H 9436   9.304   7.117   1.889 -0.5002  0.3213 -1.0303
  811MOL0     H 9437   9.284   7.014   2.098  3.5564 -0.7922 -2.9103
  811MOL0     H 9438   9.415   7.005   2.219  1.5061  0.2821 -1.3868
  811MOL0     H 9439   9.187   7.213   2.235 -0.5467 -0.1977  1.3060
  811MOL0     H 9440   9.306   7.197   2.360  1.4578  1.6317 -1.6850
  811MOL0     H 9441   9.232   6.990   2.428 -1.8548 -5.6719 -0.6266
  811MOL0     H 9442   9.142   6.954   2.282 -0.4047 -0.1934  1.0858
  811MOL0     H 9443   9.095   7.169   2.489 -2.7892  1.0394  2.0815
  811MOL0     H 9444   9.013   7.016   2.489  3.1440 -1.1589  0.8259
  811MOL0     H 9445   8.868   7.332   2.168  1.0428  1.3860  1.2139
  811MOL0     H 9446   8.749   7.491   2.076  2.0538 -0.2574  1.0076
  811MOL0     H 9447   8.573   7.462   2.107  2.1605 -0.6047 -2.2609
  811MOL0     H 9448   8.669   7.588   2.190  3.2450  0.5471 -1.0389
  811MOL0     H 9449   8.266   7.398   2.647 -1.1010  0.0712 -0.0602
  811MOL0     H 9450   8.084   7.528   2.733  0.0042  1.5818  2.3722
  811MOL0     H 9451   8.157   7.889   2.908  0.8727 -0.2324 -1.3928
  811MOL0     H 9452   8.117   7.983   2.751 -2.2592 -0.6796 -1.4972
  811MOL0     H 9453   7.979   8.047   2.947  1.6590 -1.7954  2.4831
  811MOL0     H 9454   7.876   7.960   2.829  0.9879  0.9287 -0.8872
  811MOL0     H 9455   7.855   7.919   3.084  0.9766  1.4955 -0.5191
  811MOL0     H 9456   7.978   7.783   3.042 -0.6234 -3.2210 -4.3836
  811MOL0     H 9457   7.753   7.701   3.060  1.7185 -0.1078  0.5524
  811MOL0     H 9458   7.701   7.839   2.956 -1.5651 -0.8523  1.6234
  811MOL0     H 9459   7.895   7.609   2.871  0.4222  1.0891  1.7066
  811MOL0     H 9460   7.827   7.732   2.770  1.6144  0.1986  1.0903
  811MOL0     H 9461   7.691   7.499   2.890 -0.2163  0.0198  1.3521
  811MOL0     H 9462   7.590   7.646   2.869  2.4426  1.8042  1.4460
  811MOL0     H 9463   7.735   7.487   2.640 -0.2112  1.5981 -1.3443
  811MOL0     H 9464   7.637   7.639   2.617 -3.2967  0.2941  0.5011
  811MOL0     H 9465   7.547   7.376   2.725  3.4029  1.2541 -0.6788
  811MOL0     H 9466   7.516   7.432   2.552  2.7491 -1.2510 -0.2391
  811MOL0     H 9467   8.289   7.893   2.654  0.5876  0.3686  0.8238
  811MOL0     H 9468   8.496   7.759   2.589  1.1352 -1.8345  1.3380
  811MOL0     H 9469   8.628   7.313   2.596  2.4171 -0.2085  1.2483
  811MOL0     H 9470   8.817   7.152   2.558  1.3618  1.9730  0.8761
  811MOL0     H 9471   9.338   7.301   0.659  4.1874 -2.9298 -2.9355
  811MOL0     H 9472   9.321   7.527   0.548  0.1355 -2.1118  0.5499
  811MOL0     H 9473   9.433   8.055   0.803  0.1348  0.7770 -1.0877
  811MOL0     H 9474   9.537   8.268   0.769  1.1494 -1.2586  1.3026
  811MOL0     H 9475   9.572   8.348   0.357 -0.2538 -0.4016  0.1412
  811MOL0     H 9476   9.566   8.509   0.430 -0.1184 -0.1518 -0.3624
  811MOL0     H 9477   9.791   8.409   0.276 -0.1340  0.6729 -0.0739
  811MOL0     H 9478   9.828   8.345   0.426  0.1301 -1.6891 -1.9572
  811MOL0     H 9479   9.812   8.598   0.529 -0.2366 -2.3378  0.6721
  811MOL0     H 9480   9.760   8.643   0.364 -3.1231 -0.6393  0.5538
  811MOL0     H 9481  10.017   8.499   0.435  0.3705  1.0533  2.0922
  811MOL0     H 9482   9.992   8.685   0.436 -0.8265  0.4853  1.4907
  811MOL0     H 9483  10.056   8.620   0.019 -0.5645  4.3333 -0.6176
  811MOL0     H 9484   9.685   8.147   0.390 -0.9501 -0.2831 -1.2922
  811MOL0     H 9485   9.634   7.939   0.428 -0.5728 -0.2885 -1.1463
  812MOL0     O 9486  10.471   7.700   1.921 -0.3195  0.3644 -0.0266
  812MOL0     C 9487  10.516   7.758   1.818  0.6252 -0.6456 -0.4083
  812MOL0     O 9488  10.539   7.895   1.801  0.2520 -0.4368 -0.0423
  812MOL0     C 9489  10.512   7.969   1.911  0.0219  0.5316 -0.3280
  812MOL0     C 9490  10.618   7.984   2.007  0.4084 -0.0359  0.1916
  812MOL0     C 9491  10.602   8.085   2.108 -0.5137 -0.1383  0.6328
  812MOL0     C 9492  10.493   8.171   2.110  0.2845 -0.6392  0.1033
  812MOL0     O 9493  10.471   8.260   2.208  0.3654 -0.6247  0.0634
  812MOL0     C 9494  10.576   8.346   2.259 -0.4015 -0.3134 -0.0456
  812MOL0     C 9495  10.688   8.403   2.161  1.0448 -0.2719 -0.2212
  812MOL0     C 9496  10.727   8.550   2.191  0.6915  0.6532  0.3892
  812MOL0     C 9497  10.824   8.554   2.306  0.1462 -0.1696  0.2436
  812MOL0     C 9498  10.835   8.691   2.385 -0.4429 -0.3852  0.0972
  812MOL0     C 9499  10.734   8.698   2.501  1.2112  0.2588 -0.0741
  812MOL0     C 9500  10.761   8.808   2.600 -0.4755 -0.0328 -0.3802
  812MOL0     C 9501  10.667   8.831   2.716  0.3624  0.1596  0.8299
  812MOL0     N 9502  10.694   8.959   2.777  0.8262  0.2899 -0.0101
  812MOL0     C 9503  10.616   9.075   2.763  0.1615 -0.6448 -0.6865
  812MOL0     C 9504  10.688   9.166   2.837 -0.2548 -0.6281 -0.3769
  812MOL0     C 9505  10.663   9.311   2.850 -0.3115 -0.1409 -0.2908
  812MOL0     C 9506  10.534   9.362   2.931 -0.6900  0.4452  0.0591
  812MOL0     C 9507  10.536   9.352   3.089 -0.4778 -0.3027 -0.1139
  812MOL0     C 9508  10.587   9.214   3.144 -0.6230  0.2709  1.0947
  812MOL0     O 9509  10.556   9.189   3.286  0.0385 -0.2496 -0.0523
  812MOL0     C 9510  10.600   9.284   3.373  0.0688  0.5659 -0.6227
  812MOL0     C 9511  10.739   9.295   3.397  0.6904  0.0491  0.2257
  812MOL0     C 9512  10.784   9.402   3.479  0.2751  0.4495  0.2723
  812MOL0     C 9513  10.929   9.406   3.517  0.4283  0.3043 -0.4655
  812MOL0     C 9514  10.697   9.502   3.525 -0.8626 -0.2787  0.2664
  812MOL0     C 9515  10.742   9.616   3.591 -0.4032 -0.1195  0.4044
  812MOL0     O 9516  10.803   9.700   3.508  0.0725  0.2202 -0.3863
  812MOL0     C 9517  10.874   9.805   3.567  0.1377  0.6250 -0.4408
  812MOL0     C 9518  10.880   9.921   3.492 -0.1503 -0.2621 -0.0350
  812MOL0     C 9519  10.944  10.039   3.545 -0.1299  0.1631  0.1436
  812MOL0     C 9520  11.008  10.049   3.667 -0.6241  0.0490 -0.5421
  812MOL0     O 9521  11.086  10.152   3.717  0.0456 -0.3829 -0.0430
  812MOL0     C 9522  11.207  10.175   3.645  0.7923  0.5750 -0.1324
  812MOL0     C 9523  11.248  10.325   3.673  0.3389  0.0723 -0.2391
  812MOL0     C 9524  11.387  10.349   3.616 -0.4172 -0.6019 -0.7560
  812MOL0     C 9525  11.426  10.491   3.661  0.7355  0.1850 -0.7596
  812MOL0     C 9526  11.537  10.549   3.581  0.1807 -0.1487 -0.6210
  812MOL0     C 9527  11.550  10.701   3.594 -0.6738  0.7951 -0.7261
  812MOL0     C 9528  11.695  10.743   3.546  0.5429  0.9572 -0.3351
  812MOL0     C 9529  11.718  10.891   3.548  0.2077  1.3058  0.1511
  812MOL0    Cl 9530  11.693  10.943   3.717 -0.5834  0.3691 -0.0978
  812MOL0     C 9531  11.000   9.923   3.741  0.6611  0.6711  0.0523
  812MOL0     C 9532  10.939   9.805   3.698  0.0010  0.1150  0.6453
  812MOL0     O 9533  10.706   9.646   3.706  0.4070  0.1144  0.4030
  812MOL0     C 9534  10.559   9.481   3.515 -0.2172  0.2362  0.8166
  812MOL0     C 9535  10.519   9.374   3.433  0.4985  0.0047 -0.6929
  812MOL0     N 9536  10.793   9.101   2.905  0.3754  0.2741  0.0051
  812MOL0     N 9537  10.796   8.983   2.862 -0.7631 -0.2065  0.4413
  812MOL0     C 9538  10.388   8.154   2.010  0.4262 -0.0096 -0.0321
  812MOL0     C 9539  10.402   8.048   1.911  1.1329 -0.4890  0.2044
  812MOL0     C 9540  10.561   7.667   1.715 -0.4087  0.1788  0.8494
  812MOL0     C 9541  10.651   7.711   1.618  1.2763 -0.1225  0.2469
  812MOL0     C 9542  10.663   7.648   1.493 -0.5919  0.4425  0.7288
  812MOL0     C 9543  10.607   7.523   1.473  0.5816  0.4813  1.0478
  812MOL0     O 9544  10.662   7.447   1.376  0.9563 -0.1191  0.6999
  812MOL0     C 9545  10.635   7.305   1.369 -0.5602 -0.2404  1.1592
  812MOL0     C 9546  10.738   7.244   1.273  0.1742  0.3814  0.6044
  812MOL0     C 9547  10.699   7.295   1.126 -0.3901 -0.3132  0.3933
  812MOL0     C 9548  10.813   7.255   1.036  0.0273  1.2233 -0.5733
  812MOL0     C 9549  10.773   7.256   0.896  0.2024 -0.4183 -0.4329
  812MOL0     C 9550  10.726   7.250   0.784  0.3707 -0.7890 -0.0194
  812MOL0     C 9551  10.527   7.473   1.577 -0.5687  0.4386 -0.0454
  812MOL0     C 9552  10.492   7.547   1.686  0.4825 -0.3296  0.1190
  812MOL0     H 9553  10.707   7.923   1.996  2.6281  3.1869 -1.3573
  812MOL0     H 9554  10.686   8.094   2.176  2.5288  0.3226 -2.8473
  812MOL0     H 9555  10.534   8.425   2.322 -0.3396 -0.4669  0.1892
  812MOL0     H 9556  10.620   8.274   2.329 -1.1462 -0.1930  0.5536
  812MOL0     H 9557  10.780   8.344   2.158  0.9567 -0.3710 -1.6545
  812MOL0     H 9558  10.653   8.395   2.058  3.4543  0.5793 -1.1513
  812MOL0     H 9559  10.775   8.594   2.104 -0.8561 -0.0945 -0.8850
  812MOL0     H 9560  10.651   8.624   2.216  2.1523  1.7442  1.8494
  812MOL0     H 9561  10.792   8.476   2.376 -0.1991 -0.3583 -0.1148
  812MOL0     H 9562  10.924   8.522   2.277  0.0956 -0.1514  0.0417
  812MOL0     H 9563  10.936   8.702   2.425  0.4805 -1.1414 -1.8466
  812MOL0     H 9564  10.822   8.765   2.306 -1.2068  1.9380  2.2868
  812MOL0     H 9565  10.636   8.728   2.465  0.4939  1.0142  2.2903
  812MOL0     H 9566  10.724   8.602   2.551  0.9228 -0.1768 -0.9535
  812MOL0     H 9567  10.858   8.792   2.648 -1.5230 -1.2570  1.4540
  812MOL0     H 9568  10.775   8.904   2.550 -2.2231  0.3862 -0.1080
  812MOL0     H 9569  10.656   8.752   2.791  0.7682 -2.2928 -1.5328
  812MOL0     H 9570  10.566   8.832   2.674  0.1673  0.5591  1.3032
  812MOL0     H 9571  10.525   9.085   2.705  0.4690  2.2976 -0.8035
  812MOL0     H 9572  10.748   9.357   2.901 -1.8483 -1.4987  3.9199
  812MOL0     H 9573  10.659   9.360   2.752  0.6513  4.4100  1.6627
  812MOL0     H 9574  10.448   9.302   2.899  0.7914 -0.4947 -2.3784
  812MOL0     H 9575  10.516   9.467   2.907 -0.7431 -0.2675 -3.5009
  812MOL0     H 9576  10.439   9.377   3.134 -0.4016 -0.9545  0.4256
  812MOL0     H 9577  10.610   9.422   3.129 -0.6532 -1.8162  3.1733
  812MOL0     H 9578  10.695   9.228   3.134 -0.2113 -3.5792 -2.9804
  812MOL0     H 9579  10.554   9.133   3.079 -2.4068  0.6256  1.5146
  812MOL0     H 9580  10.818   9.231   3.359 -0.4471 -1.5990  0.5397
  812MOL0     H 9581  10.986   9.448   3.433 -0.2429  1.4323 -0.3821
  812MOL0     H 9582  10.942   9.455   3.614 -1.0759  0.3052 -0.2370
  812MOL0     H 9583  10.965   9.304   3.528 -2.1350 -0.4668  1.8283
  812MOL0     H 9584  10.840   9.919   3.391  0.3352 -0.6257 -0.2250
  812MOL0     H 9585  10.950  10.126   3.480  0.6734  0.7349  0.9514
  812MOL0     H 9586  11.286  10.111   3.685 -1.4352 -2.0992  0.2965
  812MOL0     H 9587  11.199  10.161   3.537  2.2313  2.5442 -0.5418
  812MOL0     H 9588  11.171  10.391   3.632 -0.2891 -0.8429 -0.5781
  812MOL0     H 9589  11.241  10.329   3.782  1.2520  0.4783 -0.1955
  812MOL0     H 9590  11.382  10.329   3.509 -0.0126 -0.9225 -0.7162
  812MOL0     H 9591  11.466  10.282   3.653 -1.3944 -0.0105  2.8492
  812MOL0     H 9592  11.339  10.556   3.654  1.4202  0.9430 -2.6843
  812MOL0     H 9593  11.453  10.495   3.767  0.5354 -0.0657 -0.6992
  812MOL0     H 9594  11.522  10.538   3.473  0.1174  1.7841 -0.8301
  812MOL0     H 9595  11.630  10.502   3.612 -0.2880  0.2309  1.5299
  812MOL0     H 9596  11.485  10.754   3.524  2.6648  1.4944 -3.5719
  812MOL0     H 9597  11.534  10.712   3.702 -1.7610 -0.6209 -0.7181
  812MOL0     H 9598  11.706  10.713   3.441 -1.7084  1.6967 -0.8367
  812MOL0     H 9599  11.776  10.696   3.602 -0.6462 -0.7601  0.0308
  812MOL0     H 9600  11.644  10.932   3.478 -2.1838 -1.2619  0.9922
  812MOL0     H 9601  11.822  10.907   3.517  0.7620 -0.9934  0.6635
  812MOL0     H 9602  11.057   9.915   3.833  1.8085 -0.5807 -0.7183
  812MOL0     H 9603  10.928   9.721   3.766  1.9818 -1.0572 -0.3607
  812MOL0     H 9604  10.482   9.542   3.562  2.4273  1.3842  4.1004
  812MOL0     H 9605  10.412   9.369   3.415  0.5737 -2.5166 -0.7593
  812MOL0     H 9606  10.298   8.213   2.005 -0.6146 -1.3877  1.4135
  812MOL0     H 9607  10.336   8.034   1.826  1.1706  4.5036 -0.9727
  812MOL0     H 9608  10.700   7.807   1.632 -0.2298  1.0516 -2.0012
  812MOL0     H 9609  10.731   7.694   1.422 -0.0880 -0.4525  0.6184
  812MOL0     H 9610  10.632   7.261   1.470 -0.3421  1.3724  1.8929
  812MOL0     H 9611  10.540   7.285   1.321 -0.1141 -1.0611  0.5908
  812MOL0     H 9612  10.728   7.135   1.272 -1.3885  0.4917  0.8536
  812MOL0     H 9613  10.838   7.277   1.300  2.2947 -1.6117 -3.7972
  812MOL0     H 9614  10.678   7.402   1.126  0.3622 -0.1566 -0.3110
  812MOL0     H 9615  10.611   7.243   1.088 -2.1897  2.8504 -0.0939
  812MOL0     H 9616  10.844   7.151   1.053 -0.3724  0.8632 -1.9615
  812MOL0     H 9617  10.894   7.324   1.059  1.4615 -0.5678 -0.0592
  812MOL0     H 9618  10.684   7.249   0.686  0.4422  3.8840 -0.2860
  812MOL0     H 9619  10.492   7.370   1.579  0.4379  0.0717  2.5222
  812MOL0     H 9620  10.420   7.515   1.761  0.8198 -3.9802 -0.9547
  813MOL0     O 9621  10.008   9.166   2.840  0.6899  0.2449  0.2537
  813MOL0     C 9622  10.100   9.239   2.796  0.4650 -1.6310  0.9294
  813MOL0     O 9623  10.196   9.193   2.714  0.6615 -0.1248 -0.0426
  813MOL0     C 9624  10.219   9.062   2.692  0.6726 -0.0555  1.2667
  813MOL0     C 9625  10.245   9.012   2.560  0.6347 -0.4710 -0.6889
  813MOL0     C 9626  10.271   8.884   2.539 -0.2703  0.5228 -0.2883
  813MOL0     C 9627  10.299   8.790   2.640  0.5615  0.5144  0.7218
  813MOL0     O 9628  10.347   8.663   2.592 -0.7459 -0.0502 -0.5640
  813MOL0     C 9629  10.379   8.579   2.708  0.2203 -0.4438 -0.1139
  813MOL0     C 9630  10.460   8.451   2.658  0.1633  0.2116 -0.3388
  813MOL0     C 9631  10.373   8.337   2.655  1.6915  0.4887 -0.4340
  813MOL0     C 9632  10.438   8.213   2.616  0.3145 -0.0023  0.7949
  813MOL0     C 9633  10.347   8.131   2.519  0.9128  0.6255  0.2136
  813MOL0     C 9634  10.418   8.008   2.467 -0.1581 -0.1556 -0.3740
  813MOL0     C 9635  10.488   7.924   2.580 -1.2286 -0.8535 -0.1015
  813MOL0     C 9636  10.388   7.905   2.692 -0.0009  0.3469 -0.0816
  813MOL0     N 9637  10.442   7.822   2.805 -0.2170  0.2262  0.0852
  813MOL0     C 9638  10.410   7.694   2.829 -0.4824  0.4943  0.4756
  813MOL0     C 9639  10.456   7.668   2.951  0.4847  1.4019 -0.4150
  813MOL0     C 9640  10.459   7.537   3.024 -0.3826  0.0699  0.2699
  813MOL0     C 9641  10.326   7.448   3.011 -0.6695  0.3563 -0.3826
  813MOL0     C 9642  10.216   7.545   3.061  0.1356 -0.8809  0.1322
  813MOL0     C 9643  10.098   7.460   3.086 -0.6539  0.0766  0.5374
  813MOL0     O 9644  10.100   7.416   3.225  0.8804  0.3915  0.1678
  813MOL0     C 9645   9.985   7.353   3.265  0.9558 -0.0804 -0.2986
  813MOL0     C 9646   9.866   7.323   3.187 -0.9196 -0.6398  0.5987
  813MOL0     C 9647   9.764   7.238   3.227  0.3864 -0.5836 -0.0721
  813MOL0     C 9648   9.642   7.218   3.135 -0.7001 -0.0551 -1.2666
  813MOL0     C 9649   9.778   7.178   3.361  0.4432 -0.0605  0.5472
  813MOL0     C 9650   9.680   7.085   3.422 -0.2054 -0.3029  0.6609
  813MOL0     O 9651   9.713   7.038   3.545  0.5943 -0.9810 -0.5257
  813MOL0     C 9652   9.665   6.923   3.593 -0.4191 -0.1221 -0.1791
  813MOL0     C 9653   9.646   6.810   3.521  0.1235 -0.4440 -0.8232
  813MOL0     C 9654   9.616   6.690   3.583  0.3887  0.4240 -0.0446
  813MOL0     C 9655   9.609   6.671   3.719 -0.6196 -0.2752  0.1829
  813MOL0     O 9656   9.599   6.554   3.786 -0.4521  0.1951  0.2003
  813MOL0     C 9657   9.592   6.433   3.712  0.6187  0.4642 -0.8153
  813MOL0     C 9658   9.507   6.328   3.796 -0.0527  0.0908 -0.3521
  813MOL0     C 9659   9.572   6.262   3.908  0.3685 -0.3681 -0.5988
  813MOL0     C 9660   9.495   6.139   3.964 -0.2429  0.3401 -0.9546
  813MOL0     C 9661   9.579   6.090   4.083  0.3905  0.6296 -0.8318
  813MOL0     C 9662   9.496   5.969   4.132 -0.6742  0.6190 -0.1640
  813MOL0     C 9663   9.583   5.894   4.237 -0.2542 -0.2885 -0.2785
  813MOL0     C 9664   9.526   5.815   4.355 -0.0880 -0.0006 -0.5622
  813MOL0    Cl 9665   9.432   5.677   4.290  0.3001  0.0505 -0.3592
  813MOL0     C 9666   9.627   6.789   3.797  0.1673  0.1776  0.9531
  813MOL0     C 9667   9.674   6.910   3.730  0.5632  0.6353  0.4997
  813MOL0     O 9668   9.585   7.045   3.353 -1.0761  0.0511  0.2277
  813MOL0     C 9669   9.894   7.214   3.441  0.3805 -0.2559  0.5070
  813MOL0     C 9670   9.996   7.288   3.393  0.3299  0.0797  0.5491
  813MOL0     N 9671  10.525   7.775   3.002  0.3236  0.0071  0.9496
  813MOL0     N 9672  10.499   7.871   2.918 -0.4312  0.0294 -0.1066
  813MOL0     C 9673  10.289   8.841   2.763 -0.2638 -0.1790 -0.5447
  813MOL0     C 9674  10.241   8.968   2.794  0.0383 -1.1049  0.3483
  813MOL0     C 9675  10.097   9.380   2.819  0.6408  0.1542 -0.1757
  813MOL0     C 9676   9.988   9.439   2.887  0.3200 -0.0048  0.6814
  813MOL0     C 9677   9.995   9.570   2.932 -0.2941 -0.2452  0.6228
  813MOL0     C 9678  10.105   9.655   2.915 -0.4252 -0.5875 -0.1354
  813MOL0     O 9679  10.088   9.782   2.961  1.0909 -0.8362  0.4498
  813MOL0     C 9680  10.127   9.893   2.871 -0.0661  0.2354 -0.6017
  813MOL0     C 9681  10.097  10.026   2.942  0.4918 -0.1210  0.6852
  813MOL0     C 9682  10.124  10.156   2.859  0.3446 -0.2226 -0.2895
  813MOL0     C 9683  10.271  10.191   2.845  0.1836 -0.4289 -1.2580
  813MOL0     C 9684  10.279  10.265   2.715 -0.5804 -0.0943  0.3315
  813MOL0     C 9685  10.297  10.328   2.615 -0.1184  0.8693  0.7493
  813MOL0     C 9686  10.208   9.603   2.830 -0.3037 -0.6333 -1.2013
  813MOL0     C 9687  10.207   9.465   2.783  0.8351  0.4468  0.0066
  813MOL0     H 9688  10.232   9.075   2.473 -0.3177 -0.0891 -0.2841
  813MOL0     H 9689  10.282   8.839   2.441 -1.4378  0.0285 -0.2208
  813MOL0     H 9690  10.458   8.640   2.751 -0.5771  2.5063 -2.5099
  813MOL0     H 9691  10.293   8.553   2.771 -0.6348 -1.6575 -1.6928
  813MOL0     H 9692  10.522   8.467   2.569  0.1725 -0.6290 -0.4982
  813MOL0     H 9693  10.532   8.416   2.733  1.5847  0.4856 -1.5282
  813MOL0     H 9694  10.339   8.325   2.758  1.8159  2.8604 -0.0529
  813MOL0     H 9695  10.282   8.360   2.598  0.0174 -1.4893  1.2811
  813MOL0     H 9696  10.531   8.235   2.563  0.4692 -0.9658  0.6400
  813MOL0     H 9697  10.463   8.160   2.709  2.3635  0.1603  0.3749
  813MOL0     H 9698  10.252   8.110   2.570  2.9118  3.3247  5.8872
  813MOL0     H 9699  10.322   8.205   2.441 -1.0619  0.0524  0.2500
  813MOL0     H 9700  10.360   7.936   2.409 -1.5402  1.6082 -1.2748
  813MOL0     H 9701  10.495   8.050   2.402  1.0617 -3.4329 -1.2310
  813MOL0     H 9702  10.516   7.826   2.539  1.0701 -1.7394  3.1759
  813MOL0     H 9703  10.576   7.971   2.624 -0.9807 -0.0816 -1.3619
  813MOL0     H 9704  10.312   7.838   2.652  0.2593 -0.0945  0.1582
  813MOL0     H 9705  10.350   8.000   2.730 -0.3890 -0.3770  1.4126
  813MOL0     H 9706  10.368   7.621   2.760 -1.3790  0.9087  0.5662
  813MOL0     H 9707  10.539   7.475   2.985  1.0872  2.7898 -1.3721
  813MOL0     H 9708  10.472   7.563   3.129 -1.7023 -1.1154  0.7585
  813MOL0     H 9709  10.339   7.371   3.087 -0.2988  1.3215  0.5564
  813MOL0     H 9710  10.301   7.409   2.911 -1.7342 -2.1556  0.7809
  813MOL0     H 9711  10.194   7.618   2.982 -0.1098  1.5089  2.2870
  813MOL0     H 9712  10.254   7.588   3.154 -0.2131 -1.7796  0.7099
  813MOL0     H 9713  10.102   7.373   3.020  1.2466 -1.6786  2.7472
  813MOL0     H 9714  10.008   7.510   3.051  1.4961  3.4662 -0.6626
  813MOL0     H 9715   9.841   7.360   3.088 -2.7725 -3.0240  0.0658
  813MOL0     H 9716   9.644   7.110   3.122  1.0123 -0.6034  2.2724
  813MOL0     H 9717   9.547   7.238   3.185 -1.6500 -1.5817 -2.4074
  813MOL0     H 9718   9.656   7.271   3.040  1.3618 -2.2472 -2.2832
  813MOL0     H 9719   9.662   6.808   3.414 -1.4881 -1.7044 -1.0914
  813MOL0     H 9720   9.604   6.607   3.515 -2.8452 -0.0303  0.9289
  813MOL0     H 9721   9.542   6.440   3.615  1.1276  0.0484 -1.1106
  813MOL0     H 9722   9.692   6.391   3.704  0.8163  0.4992  0.9844
  813MOL0     H 9723   9.421   6.380   3.840  0.5663 -0.3361  1.4318
  813MOL0     H 9724   9.467   6.248   3.733  1.3371 -0.9205  0.0112
  813MOL0     H 9725   9.578   6.330   3.995 -1.0392 -0.9452 -0.0192
  813MOL0     H 9726   9.674   6.229   3.888  0.4557 -0.6007  0.1670
  813MOL0     H 9727   9.395   6.169   3.996 -1.0823 -0.5298 -2.5894
  813MOL0     H 9728   9.486   6.070   3.879  1.1906  2.0975 -2.6083
  813MOL0     H 9729   9.579   6.172   4.156 -0.8324 -0.7047  0.7325
  813MOL0     H 9730   9.678   6.061   4.048  1.6196 -0.2750  3.0389
  813MOL0     H 9731   9.414   6.013   4.190 -0.3182  0.5526  0.3945
  813MOL0     H 9732   9.484   5.893   4.054 -0.1927 -0.3590  0.6865
  813MOL0     H 9733   9.656   5.960   4.285 -1.6742 -0.1350  1.8375
  813MOL0     H 9734   9.647   5.825   4.182  0.5022  0.2673 -0.1098
  813MOL0     H 9735   9.467   5.881   4.420 -1.1775 -0.2980 -1.2305
  813MOL0     H 9736   9.610   5.782   4.417 -2.2312 -0.7761  2.1057
  813MOL0     H 9737   9.631   6.776   3.905  0.7518  3.4785  1.4219
  813MOL0     H 9738   9.698   6.996   3.791  2.5035  2.6052 -2.7083
  813MOL0     H 9739   9.897   7.185   3.546  0.5927  2.0535  1.1873
  813MOL0     H 9740  10.088   7.307   3.447  2.2129 -0.4834 -2.2470
  813MOL0     H 9741  10.305   8.776   2.849  0.5755 -2.3850 -2.2777
  813MOL0     H 9742  10.235   9.003   2.897 -3.2234 -3.3280  1.0912
  813MOL0     H 9743   9.901   9.376   2.904  0.4677 -0.1529  0.8851
  813MOL0     H 9744   9.915   9.608   2.995 -0.2989  3.3494 -1.2900
  813MOL0     H 9745  10.236   9.889   2.861  0.0175 -2.5426  0.5958
  813MOL0     H 9746  10.085   9.880   2.771  2.7046 -0.1691 -1.8235
  813MOL0     H 9747  10.150  10.025   3.038 -1.5040  1.2881  1.8981
  813MOL0     H 9748   9.995  10.017   2.980  0.1732 -4.2297 -0.6729
  813MOL0     H 9749  10.084  10.243   2.912  0.8910  1.0603 -1.8748
  813MOL0     H 9750  10.070  10.134   2.766  0.7748  0.2366 -0.6545
  813MOL0     H 9751  10.336  10.103   2.843  1.1889  0.2585 -0.3793
  813MOL0     H 9752  10.316  10.251   2.925  2.7328  0.6008 -3.2958
  813MOL0     H 9753  10.278  10.366   2.517  1.9377  1.0583  0.3738
  813MOL0     H 9754  10.303   9.654   2.818  1.2666 -2.9384  0.5776
  813MOL0     H 9755  10.287   9.431   2.718  0.0479 -1.3150 -0.0963
  814MOL0     O 9756   7.779   3.870   7.135 -0.1682 -0.4428  0.4901
  814MOL0     C 9757   7.789   3.772   7.056 -0.7659 -0.9113  0.3467
  814MOL0     O 9758   7.900   3.696   7.023  0.1192  0.8201 -0.3710
  814MOL0     C 9759   8.009   3.713   7.100 -0.4229  0.4159 -0.0918
  814MOL0     C 9760   8.092   3.606   7.141  0.2569  0.0770 -0.2528
  814MOL0     C 9761   8.215   3.614   7.210  0.2128 -0.3234  0.1197
  814MOL0     C 9762   8.274   3.736   7.241 -1.0945 -1.1716  0.6991
  814MOL0     O 9763   8.389   3.751   7.308 -0.3754  0.2112  0.2729
  814MOL0     C 9764   8.451   3.879   7.325 -0.1704  0.8667 -0.2578
  814MOL0     C 9765   8.586   3.845   7.369 -0.9444  1.1134 -0.8783
  814MOL0     C 9766   8.657   3.963   7.440 -0.8115  0.0968  0.7093
  814MOL0     C 9767   8.787   3.929   7.514 -0.7037 -0.6065 -1.1472
  814MOL0     C 9768   8.848   4.063   7.569  0.2630 -0.1783  0.3605
  814MOL0     C 9769   8.976   4.051   7.657 -0.1076  0.3412 -0.6673
  814MOL0     C 9770   9.099   4.020   7.575  0.1307 -0.2081 -0.4188
  814MOL0     C 9771   9.226   3.989   7.653  0.3190  0.3386 -0.4773
  814MOL0     N 9772   9.292   4.107   7.705  0.0460  0.3050  0.2588
  814MOL0     C 9773   9.408   4.160   7.650  0.3327 -0.0991 -0.8482
  814MOL0     C 9774   9.427   4.267   7.736 -0.2784  0.5610  0.1899
  814MOL0     C 9775   9.518   4.394   7.732 -0.0975 -0.6542 -0.7020
  814MOL0     C 9776   9.672   4.362   7.745  0.4105 -0.7031 -0.6756
  814MOL0     C 9777   9.740   4.485   7.795  0.1055 -0.6118 -0.3318
  814MOL0     C 9778   9.895   4.453   7.802 -0.1649 -0.1783  0.9447
  814MOL0     O 9779   9.928   4.323   7.863  0.1303 -0.7284  0.1741
  814MOL0     C 9780  10.059   4.293   7.896  0.0364 -0.0498 -0.5148
  814MOL0     C 9781  10.083   4.177   7.962 -0.7458 -0.1545 -0.1316
  814MOL0     C 9782  10.207   4.132   8.006 -1.1431  0.3784  0.5381
  814MOL0     C 9783  10.211   4.004   8.090 -0.2745  0.3746  0.0374
  814MOL0     C 9784  10.323   4.205   7.955  0.1976 -0.1586  0.1844
  814MOL0     C 9785  10.465   4.160   7.987  0.3489 -0.9309  0.0155
  814MOL0     O 9786  10.489   4.039   8.040 -0.2567  0.5555  1.4769
  814MOL0     C 9787  10.613   3.979   8.019 -0.3278 -0.0186  0.3473
  814MOL0     C 9788  10.612   3.854   7.960 -1.4156  1.9244  0.6192
  814MOL0     C 9789  10.728   3.786   7.920  0.3391 -0.1156  0.0113
  814MOL0     C 9790  10.847   3.829   7.976 -0.0161 -0.1591 -0.0335
  814MOL0     O 9791  10.951   3.756   7.939 -0.6455 -0.2942 -0.5981
  814MOL0     C 9792  11.081   3.749   7.997  0.2417  0.8854 -0.1032
  814MOL0     C 9793  11.158   3.621   7.967 -0.2114  0.2567  0.5674
  814MOL0     C 9794  11.219   3.640   7.827  0.2070  0.0876  0.1794
  814MOL0     C 9795  11.127   3.633   7.706 -0.2009 -0.0244  0.1903
  814MOL0     C 9796  11.206   3.639   7.575 -0.3738 -0.5403  1.1313
  814MOL0     C 9797  11.113   3.641   7.456 -0.1046  1.0363 -0.1230
  814MOL0     C 9798  11.164   3.666   7.312 -0.9555  0.1576  0.2957
  814MOL0     C 9799  11.138   3.547   7.227 -0.2166  0.0625 -0.4782
  814MOL0    Cl 9800  11.209   3.558   7.058 -0.1532 -0.1785 -0.2843
  814MOL0     C 9801  10.847   3.932   8.066  0.1194 -0.3842  0.3094
  814MOL0     C 9802  10.735   4.006   8.088  0.7982 -0.3613 -0.4435
  814MOL0     O 9803  10.550   4.243   7.958  0.0337 -0.5270 -0.1475
  814MOL0     C 9804  10.291   4.321   7.877  0.2737 -0.4096 -0.6694
  814MOL0     C 9805  10.165   4.370   7.844  0.4675  0.6146  0.4083
  814MOL0     N 9806   9.322   4.273   7.831  0.2661 -0.1549 -0.1907
  814MOL0     N 9807   9.244   4.177   7.815 -0.3481 -0.2971  1.0684
  814MOL0     C 9808   8.197   3.852   7.184  0.5733  0.1823 -0.9380
  814MOL0     C 9809   8.076   3.836   7.112 -0.4968 -0.2900 -0.2614
  814MOL0     C 9810   7.666   3.716   7.002 -0.6445 -0.7859 -0.0440
  814MOL0     C 9811   7.677   3.642   6.882  0.1280  1.1582  0.2100
  814MOL0     C 9812   7.561   3.596   6.813 -0.8465  0.1109  0.2095
  814MOL0     C 9813   7.428   3.599   6.884 -0.0513 -0.6743  0.7637
  814MOL0     O 9814   7.315   3.546   6.842 -0.1684  0.1631  0.6544
  814MOL0     C 9815   7.313   3.467   6.717 -0.1592  0.0513 -0.5560
  814MOL0     C 9816   7.296   3.554   6.594 -0.3551  0.7199 -0.6474
  814MOL0     C 9817   7.195   3.674   6.626 -0.2234 -0.4974  0.2458
  814MOL0     C 9818   7.051   3.626   6.655 -0.1917  0.1392  1.3736
  814MOL0     C 9819   7.001   3.536   6.548 -0.2026 -0.4718  0.5453
  814MOL0     C 9820   6.961   3.455   6.457 -0.4599 -0.2438  0.1597
  814MOL0     C 9821   7.429   3.653   7.012  1.1608  0.6473  0.0929
  814MOL0     C 9822   7.543   3.703   7.068 -0.1381 -0.3169 -0.1652
  814MOL0     H 9823   8.055   3.508   7.112  2.2693 -1.7872  2.8133
  814MOL0     H 9824   8.259   3.516   7.229  0.9648  0.3198  1.8620
  814MOL0     H 9825   8.458   3.935   7.231 -0.6255 -0.5127 -1.1613
  814MOL0     H 9826   8.388   3.931   7.398 -2.6730 -1.7742 -0.3142
  814MOL0     H 9827   8.583   3.751   7.424  1.9850  1.7946  0.6583
  814MOL0     H 9828   8.640   3.815   7.279  1.8625  0.4741  0.8837
  814MOL0     H 9829   8.684   4.039   7.366 -2.4178  1.9193  1.8697
  814MOL0     H 9830   8.582   3.992   7.514 -2.4640 -1.2339 -0.3708
  814MOL0     H 9831   8.777   3.862   7.600 -2.5627  3.0176  1.7933
  814MOL0     H 9832   8.851   3.883   7.439 -1.9215 -2.9214 -0.8639
  814MOL0     H 9833   8.885   4.116   7.481  0.8884  0.1158  0.7853
  814MOL0     H 9834   8.772   4.123   7.619  0.8657 -0.6668  1.9383
  814MOL0     H 9835   8.978   4.138   7.723 -1.0411  0.2476 -0.4947
  814MOL0     H 9836   8.964   3.960   7.716 -2.0478 -0.5946 -2.3737
  814MOL0     H 9837   9.083   3.935   7.507 -0.6012  1.4414 -2.4210
  814MOL0     H 9838   9.122   4.102   7.506  2.8085  0.4991  1.1729
  814MOL0     H 9839   9.302   3.941   7.591  0.3193  3.2401 -2.9943
  814MOL0     H 9840   9.204   3.921   7.736  0.7180 -0.7340 -1.2287
  814MOL0     H 9841   9.475   4.125   7.573  0.8658 -2.9012  0.7681
  814MOL0     H 9842   9.499   4.445   7.637  0.5826  1.2975  0.1521
  814MOL0     H 9843   9.501   4.466   7.813 -1.6248 -0.8775 -0.7896
  814MOL0     H 9844   9.713   4.336   7.648  0.2996 -0.7664 -0.7056
  814MOL0     H 9845   9.693   4.279   7.813  1.4694  1.0443  1.2906
  814MOL0     H 9846   9.717   4.514   7.898  0.1056  3.4119 -1.3039
  814MOL0     H 9847   9.720   4.566   7.725  1.3455 -0.9413 -1.1023
  814MOL0     H 9848   9.939   4.537   7.857  1.8262 -0.6813  0.2062
  814MOL0     H 9849   9.935   4.455   7.700 -0.7662  2.2950  0.6784
  814MOL0     H 9850   9.999   4.117   7.994 -0.6956 -0.1942 -0.0715
  814MOL0     H 9851  10.238   3.925   8.020  1.8290  1.5314 -0.5506
  814MOL0     H 9852  10.284   4.021   8.169 -0.7845 -1.1140  0.8761
  814MOL0     H 9853  10.113   3.977   8.132 -0.7800 -2.5904 -2.6814
  814MOL0     H 9854  10.518   3.815   7.923  1.4839 -2.8224 -2.9050
  814MOL0     H 9855  10.712   3.708   7.846  0.2143  0.5688 -0.6862
  814MOL0     H 9856  11.140   3.839   7.979  0.8322  0.7429  1.0067
  814MOL0     H 9857  11.074   3.759   8.106  2.6286  0.0068  0.1829
  814MOL0     H 9858  11.241   3.604   8.037  0.1004  0.8370  0.3472
  814MOL0     H 9859  11.082   3.542   7.970 -1.1496  1.1676  1.8069
  814MOL0     H 9860  11.275   3.547   7.810 -0.2226 -0.9089  3.4560
  814MOL0     H 9861  11.281   3.730   7.831  1.5372 -0.7979  3.5670
  814MOL0     H 9862  11.071   3.539   7.705 -0.4649  0.0982 -2.1383
  814MOL0     H 9863  11.052   3.712   7.705 -0.3679 -0.1548 -1.9663
  814MOL0     H 9864  11.272   3.552   7.575  0.2558 -0.1292 -1.1878
  814MOL0     H 9865  11.273   3.725   7.574  3.2273 -2.9523 -3.2773
  814MOL0     H 9866  11.061   3.545   7.465 -1.4339  1.8801  1.8591
  814MOL0     H 9867  11.032   3.709   7.484 -1.2883 -0.2407 -0.3053
  814MOL0     H 9868  11.273   3.677   7.312 -0.8448 -0.6981 -1.3967
  814MOL0     H 9869  11.111   3.758   7.285 -0.0563  1.0195  1.3349
  814MOL0     H 9870  11.030   3.531   7.222 -0.6926  2.9513 -1.6035
  814MOL0     H 9871  11.176   3.454   7.270 -3.3836 -0.8449  0.6012
  814MOL0     H 9872  10.939   3.956   8.118  0.9940 -0.3115 -1.2196
  814MOL0     H 9873  10.739   4.090   8.156  1.5333  0.4619 -1.4577
  814MOL0     H 9874  10.377   4.382   7.853 -0.3295  2.5735  3.7392
  814MOL0     H 9875  10.151   4.456   7.779 -2.7586 -2.0152 -2.8719
  814MOL0     H 9876   8.237   3.953   7.186  0.8253  0.0665  0.9549
  814MOL0     H 9877   8.024   3.919   7.064  1.9736  2.3843  1.3335
  814MOL0     H 9878   7.768   3.645   6.823  1.3796  0.5526  2.0171
  814MOL0     H 9879   7.570   3.552   6.715 -1.6391 -0.8452  0.5396
  814MOL0     H 9880   7.404   3.407   6.710  0.4583  1.0740 -1.4510
  814MOL0     H 9881   7.227   3.399   6.723  0.1102 -0.2573 -0.0742
  814MOL0     H 9882   7.275   3.484   6.512  3.7459 -1.3694 -0.1620
  814MOL0     H 9883   7.389   3.604   6.569  0.9800  0.5014  3.2641
  814MOL0     H 9884   7.184   3.738   6.537 -1.5572 -2.4343 -1.0757
  814MOL0     H 9885   7.221   3.734   6.713 -2.9254  2.2801 -0.6965
  814MOL0     H 9886   6.981   3.710   6.657 -0.7594 -0.3379  2.4118
  814MOL0     H 9887   7.040   3.585   6.756  1.2348  1.0225  1.9135
  814MOL0     H 9888   6.923   3.394   6.378 -0.5231  1.1957 -0.9665
  814MOL0     H 9889   7.336   3.654   7.067  1.7493 -2.0803  1.2575
  814MOL0     H 9890   7.525   3.746   7.166 -0.6463 -0.5117 -0.1707
  815MOL0     O 9891   0.470   4.008   3.275  0.0348 -0.1075  0.0724
  815MOL0     C 9892   0.525   3.903   3.303  0.5852 -0.6719 -0.3463
  815MOL0     O 9893   0.456   3.788   3.309  0.0397 -0.3545 -0.0027
  815MOL0     C 9894   0.317   3.774   3.300 -0.1076  0.3764  0.3226
  815MOL0     C 9895   0.227   3.871   3.345  0.0404 -0.1423  0.2290
  815MOL0     C 9896   0.092   3.855   3.360  0.0584  0.5536  0.8790
  815MOL0     C 9897   0.044   3.733   3.319 -0.3831 -0.6286  0.5353
  815MOL0     O 9898  -0.089   3.728   3.309 -0.8441 -0.1474  0.0134
  815MOL0     C 9899  -0.163   3.615   3.271 -0.0752  0.1402  0.9233
  815MOL0     C 9900  -0.300   3.634   3.322  0.6124  0.4885  0.4281
  815MOL0     C 9901  -0.380   3.511   3.277  0.7082 -0.0051 -0.5303
  815MOL0     C 9902  -0.527   3.551   3.310  0.6960  0.5142 -0.6096
  815MOL0     C 9903  -0.630   3.453   3.272  1.0661  0.8480  1.0113
  815MOL0     C 9904  -0.754   3.454   3.367 -0.7175 -0.5545  0.6948
  815MOL0     C 9905  -0.897   3.435   3.301 -0.2591 -0.1733 -0.1077
  815MOL0     C 9906  -0.915   3.305   3.224 -0.4307 -0.9944  0.2691
  815MOL0     N 9907  -1.057   3.300   3.196 -0.2002 -0.3300  0.0949
  815MOL0     C 9908  -1.117   3.337   3.082  0.2451 -0.2179  0.3723
  815MOL0     C 9909  -1.245   3.298   3.109  0.5539  0.7365  1.0496
  815MOL0     C 9910  -1.369   3.321   3.019 -0.3947  0.2219 -0.9994
  815MOL0     C 9911  -1.504   3.352   3.097  0.0981  0.8218 -0.2922
  815MOL0     C 9912  -1.578   3.236   3.158 -0.3299 -0.5728 -0.8012
  815MOL0     C 9913  -1.715   3.276   3.220 -0.8838 -0.4517  0.5673
  815MOL0     O 9914  -1.750   3.142   3.251  0.3114  0.4528  0.4340
  815MOL0     C 9915  -1.877   3.122   3.303 -0.0359 -0.1566  0.1044
  815MOL0     C 9916  -1.932   3.000   3.308  0.3930  0.6251 -0.5415
  815MOL0     C 9917  -2.069   2.966   3.344 -0.6308 -0.9917 -0.5831
  815MOL0     C 9918  -2.124   2.830   3.322  0.8374 -0.0852  0.4324
  815MOL0     C 9919  -2.143   3.066   3.402  1.2107 -1.1347  0.1060
  815MOL0     C 9920  -2.287   3.061   3.450  0.8384 -0.6204  0.4963
  815MOL0     O 9921  -2.318   2.966   3.533 -0.3877 -0.0438 -0.9250
  815MOL0     C 9922  -2.428   2.983   3.606  0.0565 -0.1849  0.4724
  815MOL0     C 9923  -2.548   2.959   3.537  0.8892  0.8623  0.1555
  815MOL0     C 9924  -2.672   2.967   3.601 -1.0788  0.4356  0.2275
  815MOL0     C 9925  -2.667   2.982   3.743 -0.3374 -0.2004 -1.0468
  815MOL0     O 9926  -2.777   2.980   3.823 -0.6076  0.3696  0.2299
  815MOL0     C 9927  -2.904   2.988   3.762  0.0800 -0.6768  0.4081
  815MOL0     C 9928  -2.935   2.836   3.739 -0.7385  0.3787 -0.0532
  815MOL0     C 9929  -3.081   2.806   3.700 -0.3304  0.4018  0.6027
  815MOL0     C 9930  -3.187   2.830   3.806 -0.3974 -0.3273 -0.1983
  815MOL0     C 9931  -3.256   2.965   3.795  0.1213  0.1977  0.9925
  815MOL0     C 9932  -3.312   3.009   3.926  0.3690  0.1760 -0.0068
  815MOL0     C 9933  -3.403   2.907   3.994 -0.0759  0.7485  0.6598
  815MOL0     C 9934  -3.461   2.954   4.131  0.1588  0.1262  0.6629
  815MOL0    Cl 9935  -3.576   2.834   4.185  0.7725 -1.2514 -0.0093
  815MOL0     C 9936  -2.553   2.995   3.816  0.1825 -1.4951 -0.2819
  815MOL0     C 9937  -2.433   3.009   3.742 -0.7860  0.8162  0.2204
  815MOL0     O 9938  -2.367   3.141   3.403 -0.5961  0.4485 -0.2796
  815MOL0     C 9939  -2.089   3.202   3.396  0.1081 -0.2391  0.2387
  815MOL0     C 9940  -1.957   3.228   3.350 -0.0940  0.5960 -0.8623
  815MOL0     N 9941  -1.252   3.220   3.226 -0.2760 -0.7959 -0.6630
  815MOL0     N 9942  -1.136   3.231   3.280  0.2959  0.3078  0.4035
  815MOL0     C 9943   0.128   3.628   3.280  0.2121 -0.1062  0.1907
  815MOL0     C 9944   0.263   3.650   3.284  0.0638  0.2629  0.4404
  815MOL0     C 9945   0.673   3.896   3.348  0.2101  0.0514 -0.2787
  815MOL0     C 9946   0.751   4.013   3.334  0.4111 -0.5517 -0.2622
  815MOL0     C 9947   0.885   4.017   3.374  0.1223  0.9643  0.1126
  815MOL0     C 9948   0.952   3.899   3.412 -0.4978 -0.3121 -0.9594
  815MOL0     O 9949   1.077   3.903   3.462  0.1748 -0.0881 -0.2563
  815MOL0     C 9950   1.160   3.815   3.374 -0.3796 -0.9550 -0.0881
  815MOL0     C 9951   1.290   3.815   3.444  0.0543  0.7986 -0.5980
  815MOL0     C 9952   1.405   3.763   3.346 -0.9043  0.3679  0.0556
  815MOL0     C 9953   1.399   3.621   3.316 -0.5484 -0.3124 -0.3255
  815MOL0     C 9954   1.534   3.580   3.270 -0.2565  0.6150  0.2567
  815MOL0     C 9955   1.642   3.524   3.235  0.5957 -0.4719  0.2212
  815MOL0     C 9956   0.872   3.782   3.437 -1.2752  0.5239  0.2920
  815MOL0     C 9957   0.739   3.777   3.393 -0.5799  0.4450 -0.1991
  815MOL0     H 9958   0.261   3.972   3.367  2.7510 -0.9815  0.2255
  815MOL0     H 9959   0.020   3.933   3.381 -1.9334 -1.1584  0.8133
  815MOL0     H 9960  -0.161   3.598   3.163  3.9435  0.2753  0.8254
  815MOL0     H 9961  -0.121   3.523   3.311  0.5743 -1.5596 -3.1905
  815MOL0     H 9962  -0.304   3.642   3.431 -0.3612 -1.8834  0.6393
  815MOL0     H 9963  -0.352   3.718   3.275 -1.7991 -0.4788  1.2024
  815MOL0     H 9964  -0.367   3.491   3.170 -0.0640 -0.0739 -0.6211
  815MOL0     H 9965  -0.350   3.427   3.340 -3.1789  1.4292  3.8037
  815MOL0     H 9966  -0.530   3.573   3.418  1.0702  1.9650 -0.8793
  815MOL0     H 9967  -0.547   3.643   3.255 -0.5064  0.5617 -0.1310
  815MOL0     H 9968  -0.657   3.479   3.170  1.7648 -1.5120  0.1450
  815MOL0     H 9969  -0.586   3.353   3.259  1.8645  1.4014 -0.7774
  815MOL0     H 9970  -0.743   3.379   3.447  1.2284 -0.8029  0.2432
  815MOL0     H 9971  -0.751   3.551   3.418 -3.5339  1.8777 -3.2553
  815MOL0     H 9972  -0.966   3.430   3.386  0.4406 -0.7828  0.4378
  815MOL0     H 9973  -0.912   3.520   3.235  4.0947 -0.2576 -1.5211
  815MOL0     H 9974  -0.890   3.216   3.283  2.8198  0.7720  1.7987
  815MOL0     H 9975  -0.854   3.319   3.134 -1.7530 -2.7422 -0.9767
  815MOL0     H 9976  -1.087   3.391   2.993 -1.2802  0.6132  0.3288
  815MOL0     H 9977  -1.334   3.399   2.950  0.3312  0.0510 -0.8309
  815MOL0     H 9978  -1.374   3.242   2.944 -1.1139  0.7657 -1.5325
  815MOL0     H 9979  -1.578   3.404   3.036  0.2020 -0.5599 -1.6430
  815MOL0     H 9980  -1.480   3.412   3.186  2.7314  1.0876 -1.0766
  815MOL0     H 9981  -1.510   3.199   3.236  0.2708 -2.0872 -2.0052
  815MOL0     H 9982  -1.597   3.166   3.077 -5.0365  0.1796 -0.5967
  815MOL0     H 9983  -1.776   3.323   3.142 -3.1555 -0.0865  2.4772
  815MOL0     H 9984  -1.697   3.333   3.311  1.3781 -1.5426  0.8905
  815MOL0     H 9985  -1.870   2.918   3.273  0.0051  0.3091 -0.4870
  815MOL0     H 9986  -2.225   2.838   3.280  2.0641  3.1340 -2.2873
  815MOL0     H 9987  -2.075   2.794   3.231  1.0735  3.3716 -0.9481
  815MOL0     H 9988  -2.123   2.759   3.406 -0.4332 -1.7654 -0.8918
  815MOL0     H 9989  -2.544   2.936   3.431 -0.0775 -1.8737  0.6455
  815MOL0     H 9990  -2.766   2.949   3.551 -0.7920  1.4394 -0.6932
  815MOL0     H 9991  -2.979   3.020   3.834 -1.0666 -4.6865  1.2571
  815MOL0     H 9992  -2.902   3.047   3.670  0.7671  1.8071  1.9262
  815MOL0     H 9993  -2.865   2.792   3.668  0.0098  0.7321  0.4498
  815MOL0     H 9994  -2.912   2.786   3.833 -1.1816  0.1724 -0.0548
  815MOL0     H 9995  -3.086   2.697   3.686 -0.4165  0.5986 -1.0133
  815MOL0     H 9996  -3.109   2.845   3.603  0.8590 -1.1351 -0.4165
  815MOL0     H 9997  -3.245   2.737   3.810 -1.7500  0.4072 -1.5785
  815MOL0     H 9998  -3.125   2.832   3.896  2.2700  1.1000 -1.9331
  815MOL0     H 9999  -3.331   2.955   3.715  0.8403  1.0833  0.1942
  815MOL0     H10000  -3.178   3.034   3.765 -0.0232 -0.3858 -0.8379
  815MOL0     H10001  -3.226   3.032   3.989  1.5742  1.3186 -1.9730
  815MOL0     H10002  -3.372   3.098   3.907  0.6835  1.0766  2.8208
  815MOL0     H10003  -3.339   2.822   4.018  0.2778  0.8619  0.1503
  815MOL0     H10004  -3.488   2.874   3.933 -0.4469 -0.8725  1.9867
  815MOL0     H10005  -3.498   3.056   4.119 -0.6625 -0.2365 -0.0258
  815MOL0     H10006  -3.379   2.949   4.203  0.9704  1.5785 -0.1301
  815MOL0     H10007  -2.563   3.000   3.924  1.5742 -0.7186 -0.1541
  815MOL0     H10008  -2.335   3.014   3.790 -0.1448 -4.8059  0.2645
  815MOL0     H10009  -2.138   3.287   3.443  2.0209  0.0005  1.9537
  815MOL0     H10010  -1.921   3.330   3.354 -0.5983  0.8593 -2.3293
  815MOL0     H10011   0.097   3.526   3.260 -0.8344 -0.1001  1.6349
  815MOL0     H10012   0.327   3.566   3.259 -0.8289 -0.4906  0.6212
  815MOL0     H10013   0.704   4.103   3.296 -2.5866 -1.8208  0.1585
  815MOL0     H10014   0.935   4.111   3.358  0.5403  0.4750 -1.5574
  815MOL0     H10015   1.119   3.717   3.348 -4.1105  0.8760 -1.7273
  815MOL0     H10016   1.181   3.873   3.283 -1.2651 -3.5050 -2.0367
  815MOL0     H10017   1.274   3.744   3.526 -2.0487  2.6495  0.7075
  815MOL0     H10018   1.321   3.911   3.486  0.6151  1.4438 -2.3919
  815MOL0     H10019   1.501   3.788   3.392 -1.2585  2.0088 -0.0051
  815MOL0     H10020   1.404   3.821   3.253  4.0226  0.2360 -0.3335
  815MOL0     H10021   1.326   3.597   3.239 -2.3903  1.0174  0.9084
  815MOL0     H10022   1.369   3.558   3.401 -0.6502 -0.6826 -0.6361
  815MOL0     H10023   1.725   3.468   3.198  2.7089  1.6488  1.4989
  815MOL0     H10024   0.916   3.688   3.469  0.2474  1.1793  0.2355
  815MOL0     H10025   0.684   3.686   3.412  1.0558 -0.4495  0.3789
  816MOL0     O10026   0.515   3.049   3.918  0.2271  0.1436  0.0869
  816MOL0     C10027   0.497   3.080   4.036 -1.0921 -0.7108 -1.2945
  816MOL0     O10028   0.421   3.011   4.131  0.2322  0.5880 -0.3859
  816MOL0     C10029   0.369   2.877   4.107 -0.4634 -0.0553  0.2962
  816MOL0     C10030   0.401   2.764   4.176  0.0082  0.5256 -0.5100
  816MOL0     C10031   0.353   2.644   4.144  1.0281 -0.6534 -0.1756
  816MOL0     C10032   0.261   2.626   4.045 -0.1933 -0.7869 -0.0900
  816MOL0     O10033   0.192   2.514   4.038  0.0440 -0.1712  0.9581
  816MOL0     C10034   0.184   2.453   3.907 -0.3044 -0.5934 -0.1011
  816MOL0     C10035   0.043   2.443   3.857 -0.1276  0.4721 -0.1702
  816MOL0     C10036  -0.025   2.314   3.913 -0.3354  0.7363  0.1680
  816MOL0     C10037  -0.175   2.317   3.873 -0.0422 -0.1406 -0.6055
  816MOL0     C10038  -0.240   2.182   3.859  0.3875 -0.2256  0.5950
  816MOL0     C10039  -0.312   2.162   3.993  0.3004 -0.1095 -0.6069
  816MOL0     C10040  -0.393   2.031   3.990  0.0412 -0.0578 -0.1282
  816MOL0     C10041  -0.531   2.046   4.060 -0.3010  0.1468 -0.6164
  816MOL0     N10042  -0.616   2.147   3.987 -1.0886 -0.6477 -0.9205
  816MOL0     C10043  -0.679   2.138   3.864 -0.0965 -0.1709 -0.5510
  816MOL0     C10044  -0.744   2.256   3.856 -0.1755  0.2995  0.5947
  816MOL0     C10045  -0.811   2.313   3.730  0.0111  0.0068  0.0463
  816MOL0     C10046  -0.769   2.245   3.599 -0.6915  0.1283  0.4714
  816MOL0     C10047  -0.803   2.335   3.478  0.0700  0.8049  0.4270
  816MOL0     C10048  -0.705   2.447   3.472 -0.2827  0.7630 -0.0739
  816MOL0     O10049  -0.576   2.400   3.433  0.6567  0.6245  0.1326
  816MOL0     C10050  -0.469   2.473   3.472 -0.4138 -0.0503 -0.4234
  816MOL0     C10051  -0.344   2.414   3.441  0.1732  0.2315 -0.4579
  816MOL0     C10052  -0.220   2.480   3.453 -1.0001  0.2560  0.2542
  816MOL0     C10053  -0.104   2.394   3.419  0.2879 -0.2917  0.2491
  816MOL0     C10054  -0.223   2.613   3.509  0.5227 -0.4698 -0.0468
  816MOL0     C10055  -0.093   2.691   3.530  0.4639  0.0486 -0.6874
  816MOL0     O10056  -0.105   2.827   3.514  0.3306  0.8940 -0.3779
  816MOL0     C10057   0.011   2.905   3.515  0.1771  0.0210 -0.3218
  816MOL0     C10058   0.048   2.982   3.619 -0.7019  0.3542 -0.0767
  816MOL0     C10059   0.161   3.062   3.618  0.3544  0.2397 -0.4404
  816MOL0     C10060   0.244   3.063   3.508  0.3774  0.9669 -1.3503
  816MOL0     O10061   0.365   3.112   3.500  0.3563  0.0342  0.0832
  816MOL0     C10062   0.451   3.111   3.618  2.4344  0.9554  0.4292
  816MOL0     C10063   0.592   3.122   3.579  0.5034  1.0553  0.2470
  816MOL0     C10064   0.649   3.016   3.483 -0.6831 -0.5756  0.1399
  816MOL0     C10065   0.797   3.045   3.450  0.5066 -0.6596 -0.1040
  816MOL0     C10066   0.888   3.001   3.566  0.2011 -0.1768 -0.4656
  816MOL0     C10067   0.953   2.864   3.564  0.9655 -0.3002  0.3628
  816MOL0     C10068   0.863   2.754   3.511  0.4151  0.0976 -0.4590
  816MOL0     C10069   0.923   2.610   3.540  0.0517  0.0328  0.2365
  816MOL0    Cl10070   0.937   2.553   3.712  0.6502  0.0269 -0.0647
  816MOL0     C10071   0.207   2.988   3.400  0.4795 -0.6946 -0.2584
  816MOL0     C10072   0.089   2.918   3.399 -0.3670 -1.0522  0.5112
  816MOL0     O10073   0.013   2.634   3.560  0.3734 -0.7280  0.1852
  816MOL0     C10074  -0.348   2.675   3.536  0.0760  0.3850 -0.3271
  816MOL0     C10075  -0.465   2.604   3.526 -0.0263 -0.0651 -0.5484
  816MOL0     N10076  -0.721   2.330   3.959 -0.5810 -0.2179 -0.0323
  816MOL0     N10077  -0.646   2.269   4.041 -0.1576  0.7405  0.2667
  816MOL0     C10078   0.230   2.740   3.962 -0.1331  0.2051 -0.6874
  816MOL0     C10079   0.290   2.867   3.996  0.5537  1.2028  1.0410
  816MOL0     C10080   0.554   3.216   4.083  0.6735  0.1492 -0.6312
  816MOL0     C10081   0.626   3.298   3.993 -1.3521  0.1878  0.4846
  816MOL0     C10082   0.663   3.431   4.040  0.5694 -0.0622 -0.7624
  816MOL0     C10083   0.648   3.469   4.175 -0.6497  0.1118  0.4761
  816MOL0     O10084   0.692   3.598   4.199 -0.6123  0.4683 -0.5701
  816MOL0     C10085   0.651   3.676   4.307  1.1635 -0.6077 -0.5348
  816MOL0     C10086   0.768   3.765   4.358 -0.3670 -1.0535 -0.9604
  816MOL0     C10087   0.872   3.680   4.438  0.5750 -0.1837 -0.8769
  816MOL0     C10088   0.806   3.627   4.564 -0.0826 -0.1367  0.0603
  816MOL0     C10089   0.912   3.584   4.657 -0.5633  0.5112  0.4368
  816MOL0     C10090   0.986   3.538   4.733 -0.1233  0.0686 -0.0036
  816MOL0     C10091   0.590   3.376   4.262  0.5919 -0.8178 -0.4132
  816MOL0     C10092   0.541   3.254   4.217 -0.0515 -0.1676  0.2441
  816MOL0     H10093   0.469   2.761   4.260 -1.4727  3.0858  0.9069
  816MOL0     H10094   0.377   2.564   4.214  2.7292 -0.2732 -0.2881
  816MOL0     H10095   0.241   2.509   3.832  2.4801 -0.7482  1.7411
  816MOL0     H10096   0.230   2.354   3.916  1.5082  0.0940 -1.2974
  816MOL0     H10097  -0.011   2.534   3.887 -0.0811  0.1002  1.0832
  816MOL0     H10098   0.048   2.431   3.748  0.3340 -0.5017 -0.0532
  816MOL0     H10099   0.019   2.223   3.870  3.7893  1.9587  1.3673
  816MOL0     H10100  -0.020   2.308   4.022 -4.4443 -1.7141  0.4229
  816MOL0     H10101  -0.227   2.375   3.949  0.2033  1.0800 -1.3477
  816MOL0     H10102  -0.186   2.361   3.773  0.7192 -0.3559 -0.7968
  816MOL0     H10103  -0.316   2.184   3.781  4.7043 -1.4752 -4.2502
  816MOL0     H10104  -0.166   2.106   3.831 -0.5958 -1.4595  1.2356
  816MOL0     H10105  -0.240   2.164   4.075 -0.4932  0.3458  0.0886
  816MOL0     H10106  -0.379   2.248   4.000  0.5675  0.0775 -0.2938
  816MOL0     H10107  -0.417   1.989   3.892  0.8564 -1.0355  0.0669
  816MOL0     H10108  -0.331   1.955   4.039  3.0569  0.7273 -2.4962
  816MOL0     H10109  -0.513   2.088   4.160  2.9974  0.8966 -1.4006
  816MOL0     H10110  -0.586   1.953   4.075 -0.0844  0.4034  2.4137
  816MOL0     H10111  -0.651   2.068   3.785  2.5509 -0.5230  0.5640
  816MOL0     H10112  -0.919   2.299   3.732  0.1078 -0.9983 -0.8816
  816MOL0     H10113  -0.776   2.417   3.730  1.3231 -0.4125  0.7799
  816MOL0     H10114  -0.819   2.148   3.586  1.8693 -1.4041  1.2472
  816MOL0     H10115  -0.660   2.236   3.606 -0.8354 -2.7369  0.3565
  816MOL0     H10116  -0.907   2.366   3.492 -0.7504 -1.0630 -1.1057
  816MOL0     H10117  -0.800   2.274   3.387 -1.6562 -1.3678  1.7310
  816MOL0     H10118  -0.710   2.500   3.568  1.5051  2.4424 -0.8442
  816MOL0     H10119  -0.733   2.516   3.392  1.0300 -0.0293 -1.2410
  816MOL0     H10120  -0.330   2.311   3.408  3.2128  0.0699  0.9630
  816MOL0     H10121  -0.028   2.416   3.493 -1.6541  2.2212  1.6447
  816MOL0     H10122  -0.122   2.286   3.427  0.7056 -0.2244  4.1033
  816MOL0     H10123  -0.056   2.411   3.322  2.3735 -0.6558  1.1690
  816MOL0     H10124  -0.010   2.963   3.709  0.1432  0.7399  0.5733
  816MOL0     H10125   0.192   3.109   3.711 -0.6207 -0.0490  0.0508
  816MOL0     H10126   0.420   3.188   3.690  3.3024  2.3345 -0.6321
  816MOL0     H10127   0.434   3.019   3.675  1.9562  0.3585 -0.6554
  816MOL0     H10128   0.605   3.221   3.534 -1.1452  1.1314 -0.1568
  816MOL0     H10129   0.641   3.114   3.676 -1.0855 -1.3549  0.9461
  816MOL0     H10130   0.591   3.036   3.393 -0.2371  0.5022  0.0795
  816MOL0     H10131   0.632   2.911   3.507 -0.7879 -0.1023  2.3882
  816MOL0     H10132   0.826   2.994   3.357 -0.3132 -0.6099 -0.3961
  816MOL0     H10133   0.808   3.152   3.431 -3.2729  0.1496  1.4449
  816MOL0     H10134   0.826   2.993   3.656  1.4558 -1.1673  0.3627
  816MOL0     H10135   0.965   3.078   3.577 -0.0439 -0.1087  0.9898
  816MOL0     H10136   1.056   2.868   3.528  1.1889  0.1576  1.0508
  816MOL0     H10137   0.984   2.852   3.668  4.6416 -2.6276 -0.8109
  816MOL0     H10138   0.860   2.772   3.403 -0.9447 -2.5616 -0.9556
  816MOL0     H10139   0.772   2.775   3.569  0.6811 -0.5795  0.2270
  816MOL0     H10140   1.015   2.593   3.484 -0.4555  0.8370 -0.8919
  816MOL0     H10141   0.865   2.537   3.483 -0.4162  0.4078  0.2247
  816MOL0     H10142   0.263   3.007   3.309 -2.4158 -0.9622 -2.2033
  816MOL0     H10143   0.066   2.855   3.313  0.0872 -0.1291 -0.2973
  816MOL0     H10144  -0.343   2.778   3.569  0.4266  0.0882  0.5588
  816MOL0     H10145  -0.547   2.662   3.566  1.1914  2.1214 -1.0719
  816MOL0     H10146   0.158   2.752   3.882 -0.2256  0.0623 -0.6277
  816MOL0     H10147   0.270   2.950   3.930 -5.0317  0.2833  1.0273
  816MOL0     H10148   0.654   3.262   3.895  2.4300  0.5817  1.2847
  816MOL0     H10149   0.708   3.502   3.972  0.4325  0.2322 -0.5477
  816MOL0     H10150   0.576   3.750   4.276  0.9526 -1.4441 -2.1167
  816MOL0     H10151   0.607   3.618   4.389 -4.1556 -0.0821 -2.6186
  816MOL0     H10152   0.727   3.839   4.427  1.7231 -0.4876 -0.2343
  816MOL0     H10153   0.805   3.827   4.277 -2.4104 -0.4832 -1.5112
  816MOL0     H10154   0.966   3.730   4.461 -0.7696  1.7013  0.8778
  816MOL0     H10155   0.888   3.590   4.377  2.4698 -0.7747  0.4121
  816MOL0     H10156   0.760   3.530   4.543  0.5872 -1.0136  2.2717
  816MOL0     H10157   0.735   3.701   4.603 -1.2386 -1.2996  0.2543
  816MOL0     H10158   1.037   3.520   4.825 -1.1415 -0.1672  0.5197
  816MOL0     H10159   0.596   3.398   4.368  3.0598 -1.1472 -0.4220
  816MOL0     H10160   0.499   3.192   4.295  1.7291 -1.4252  0.2924
  817MOL0     O10161   4.871   7.456  10.257  0.2861 -0.4806 -0.6022
  817MOL0     C10162   4.928   7.360  10.311 -0.5503  0.5047  0.6148
  817MOL0     O10163   4.876   7.254  10.371  0.3765  0.0256  0.3636
  817MOL0     C10164   4.741   7.251  10.381  0.7695 -0.9094  0.2038
  817MOL0     C10165   4.650   7.264  10.271 -0.3110  0.3543  0.4531
  817MOL0     C10166   4.507   7.259  10.292 -0.4252 -0.1424 -0.4095
  817MOL0     C10167   4.453   7.242  10.416  0.3419 -0.3432  0.3775
  817MOL0     O10168   4.320   7.245  10.444 -0.9912  0.1411 -0.6315
  817MOL0     C10169   4.223   7.288  10.343 -0.0864 -0.0560 -0.4068
  817MOL0     C10170   4.098   7.340  10.417 -0.6630 -0.1170 -0.8772
  817MOL0     C10171   4.132   7.460  10.512 -0.0987 -0.5388  0.6756
  817MOL0     C10172   4.008   7.512  10.581 -0.6224 -0.6595  0.1326
  817MOL0     C10173   4.028   7.639  10.662 -0.4722 -0.5621 -1.4047
  817MOL0     C10174   4.021   7.762  10.578 -0.1943 -0.5221 -0.4215
  817MOL0     C10175   4.026   7.886  10.669  0.1411  0.3090  0.5737
  817MOL0     C10176   4.022   8.014  10.579  0.7012  0.0003 -0.3003
  817MOL0     N10177   3.914   8.018  10.474 -0.1591 -0.3345  0.0211
  817MOL0     C10178   3.918   7.952  10.345 -0.8089 -0.1037 -0.2816
  817MOL0     C10179   3.793   7.943  10.313  0.0534 -0.0027  0.6553
  817MOL0     C10180   3.755   7.887  10.181  0.3607 -0.3886 -0.0099
  817MOL0     C10181   3.691   7.750  10.188  0.9148  0.1793 -0.0089
  817MOL0     C10182   3.792   7.659  10.254  0.1759 -0.3945  0.0489
  817MOL0     C10183   3.743   7.517  10.262  0.3821 -0.2246 -0.4301
  817MOL0     O10184   3.622   7.502  10.328  0.3845 -0.0627  0.0673
  817MOL0     C10185   3.634   7.502  10.466 -0.3388 -0.6740  0.7087
  817MOL0     C10186   3.605   7.612  10.549  0.3903 -1.1437  0.7400
  817MOL0     C10187   3.614   7.610  10.685  0.3740  0.3587 -0.4449
  817MOL0     C10188   3.596   7.735  10.758  0.6861 -0.7660 -0.8058
  817MOL0     C10189   3.651   7.487  10.749  0.6556  0.5575 -0.0501
  817MOL0     C10190   3.659   7.469  10.897  0.7433  0.2048 -0.4738
  817MOL0     O10191   3.718   7.351  10.931  0.1383  0.2975 -0.0966
  817MOL0     C10192   3.726   7.302  11.068  0.9252 -0.2365  0.1511
  817MOL0     C10193   3.828   7.208  11.089 -0.4108 -0.2974  0.2030
  817MOL0     C10194   3.858   7.149  11.217 -0.1228  0.2181  0.4135
  817MOL0     C10195   3.764   7.180  11.319 -0.5354  0.1421 -0.8186
  817MOL0     O10196   3.806   7.132  11.440 -0.1470  0.3819 -0.3006
  817MOL0     C10197   3.803   6.982  11.450 -0.1319 -0.7162 -0.1538
  817MOL0     C10198   3.653   6.947  11.463  0.2149  0.3291  0.5408
  817MOL0     C10199   3.578   7.005  11.585 -0.1192  0.5933  0.1637
  817MOL0     C10200   3.437   6.952  11.580  0.0910 -0.8353  0.1253
  817MOL0     C10201   3.347   7.029  11.685  0.7492  1.0047 -0.5755
  817MOL0     C10202   3.375   6.991  11.828 -0.2624 -0.1141  0.0044
  817MOL0     C10203   3.268   7.013  11.926 -0.0902 -0.0403 -0.1255
  817MOL0     C10204   3.230   7.157  11.948 -0.5838  0.1734 -0.9220
  817MOL0    Cl10205   3.370   7.258  11.999  0.0325  0.4508  0.2562
  817MOL0     C10206   3.646   7.259  11.290  0.5738  0.6680  0.5414
  817MOL0     C10207   3.630   7.318  11.169 -0.9553 -0.8846  0.2862
  817MOL0     O10208   3.624   7.557  10.983  0.1210  0.1854  0.2093
  817MOL0     C10209   3.680   7.374  10.669  0.0888  0.2805  0.4507
  817MOL0     C10210   3.669   7.381  10.527 -0.2464  0.2101 -1.0258
  817MOL0     N10211   3.714   8.003  10.404 -0.0678 -0.2210 -0.7845
  817MOL0     N10212   3.785   8.054  10.500 -1.4837  0.0106  0.0766
  817MOL0     C10213   4.547   7.232  10.526  0.5931 -0.2697 -0.5054
  817MOL0     C10214   4.688   7.231  10.506 -0.4670 -0.2098  0.6592
  817MOL0     C10215   5.074   7.353  10.297  0.6886  0.3714 -0.3107
  817MOL0     C10216   5.148   7.264  10.387 -0.4306 -0.4348  0.8036
  817MOL0     C10217   5.287   7.250  10.381 -0.2548 -0.4392  0.6516
  817MOL0     C10218   5.350   7.337  10.296  0.2506 -0.1310  1.3703
  817MOL0     O10219   5.481   7.345  10.258 -0.0617  0.0441  0.2492
  817MOL0     C10220   5.580   7.261  10.329 -0.4188  0.6777 -0.4940
  817MOL0     C10221   5.709   7.279  10.252  0.0099  0.0154 -0.2014
  817MOL0     C10222   5.764   7.430  10.258  0.2632  0.4337  0.4958
  817MOL0     C10223   5.914   7.436  10.243 -0.8695  0.7799 -1.1015
  817MOL0     C10224   5.972   7.376  10.367  0.2822 -0.3031 -0.2274
  817MOL0     C10225   5.991   7.336  10.478 -0.2143 -0.4811  0.0468
  817MOL0     C10226   5.284   7.431  10.208  0.1873  0.6059  0.1843
  817MOL0     C10227   5.147   7.436  10.203 -0.3824  0.0680 -0.2980
  817MOL0     H10228   4.689   7.270  10.170 -1.4512 -4.2829 -0.5294
  817MOL0     H10229   4.445   7.277  10.205 -0.4788 -0.4801 -0.4415
  817MOL0     H10230   4.268   7.360  10.274 -0.4045 -0.7615 -1.3624
  817MOL0     H10231   4.195   7.196  10.293  3.1485 -1.7159  0.5582
  817MOL0     H10232   4.035   7.380  10.337  2.4097  2.2825 -2.2957
  817MOL0     H10233   4.044   7.262  10.471  1.9825 -0.9235  0.7871
  817MOL0     H10234   4.201   7.426  10.589 -0.8219 -0.4328  1.3764
  817MOL0     H10235   4.183   7.539  10.456 -1.4652  0.1432  0.3616
  817MOL0     H10236   3.937   7.535  10.501  0.6666 -3.2851 -1.9412
  817MOL0     H10237   3.963   7.432  10.640 -0.2351 -1.7819 -1.0393
  817MOL0     H10238   3.938   7.643  10.725  0.3321 -1.3365 -0.1610
  817MOL0     H10239   4.121   7.631  10.719 -1.1872 -1.1827 -0.2775
  817MOL0     H10240   4.114   7.756  10.521 -0.0621  0.6353 -0.3466
  817MOL0     H10241   3.925   7.763  10.525 -2.2558 -0.4608  3.0122
  817MOL0     H10242   3.934   7.873  10.728 -1.0815 -1.9119 -1.6165
  817MOL0     H10243   4.114   7.880  10.734  1.4591  2.4520 -0.8732
  817MOL0     H10244   4.117   8.030  10.528 -0.4538  0.1870 -2.4995
  817MOL0     H10245   3.992   8.097  10.644 -1.1684 -1.6751  1.1359
  817MOL0     H10246   4.008   7.905  10.308 -1.4685 -0.0564 -2.0347
  817MOL0     H10247   3.683   7.961  10.146  2.7847  2.3309  0.3839
  817MOL0     H10248   3.844   7.884  10.117  1.0447 -0.9339  0.9435
  817MOL0     H10249   3.682   7.713  10.086  2.6772 -0.2561 -0.0425
  817MOL0     H10250   3.601   7.757  10.250  2.1489  0.0019  1.9124
  817MOL0     H10251   3.807   7.685  10.359 -0.6199 -1.5713  0.4699
  817MOL0     H10252   3.885   7.665  10.198 -0.2715  2.1817 -0.5443
  817MOL0     H10253   3.817   7.452  10.310  1.4659  1.8683  0.9175
  817MOL0     H10254   3.727   7.484  10.159  0.6862  0.4173 -0.6905
  817MOL0     H10255   3.571   7.700  10.494  0.9264 -3.1097 -3.0140
  817MOL0     H10256   3.682   7.759  10.821  0.6542 -4.6916  1.0675
  817MOL0     H10257   3.591   7.822  10.692 -2.0180 -1.9229 -2.3163
  817MOL0     H10258   3.503   7.727  10.815  0.2670  1.6379 -1.0430
  817MOL0     H10259   3.892   7.190  11.003  0.1706  0.8553  0.3790
  817MOL0     H10260   3.948   7.092  11.233  1.3401  2.5438  0.8853
  817MOL0     H10261   3.841   6.922  11.366  0.0986 -3.8386  1.9904
  817MOL0     H10262   3.847   6.952  11.545 -4.2095 -0.6910  1.9289
  817MOL0     H10263   3.595   6.973  11.373  0.5377  0.2917  0.3227
  817MOL0     H10264   3.649   6.838  11.469 -0.3453  0.3050 -0.0979
  817MOL0     H10265   3.572   7.114  11.575 -2.4687  0.2860 -4.8329
  817MOL0     H10266   3.631   6.986  11.679  0.9816  1.8059 -0.1813
  817MOL0     H10267   3.402   6.955  11.477  2.0093  0.5324 -0.5433
  817MOL0     H10268   3.424   6.844  11.595 -2.0281 -0.7018 -0.4562
  817MOL0     H10269   3.241   7.006  11.669  0.7270  2.0886 -2.1745
  817MOL0     H10270   3.343   7.135  11.658  0.4552  1.1058 -0.1445
  817MOL0     H10271   3.407   6.886  11.824  2.7213  0.7486 -2.6372
  817MOL0     H10272   3.465   7.047  11.856  0.8598 -2.5084  1.6000
  817MOL0     H10273   3.299   6.967  12.021  0.5755 -0.3039 -0.4659
  817MOL0     H10274   3.175   6.970  11.888  0.2007  1.8456 -3.3514
  817MOL0     H10275   3.151   7.149  12.024 -0.6469  1.8108 -0.7919
  817MOL0     H10276   3.183   7.193  11.856  1.2124 -1.7883 -2.7198
  817MOL0     H10277   3.564   7.279  11.358 -1.0201  2.5107 -1.7402
  817MOL0     H10278   3.543   7.383  11.157 -0.9258  0.1113  4.1468
  817MOL0     H10279   3.701   7.275  10.709 -1.8289  0.3084  1.7021
  817MOL0     H10280   3.683   7.286  10.477 -0.6512  0.4347 -1.5692
  817MOL0     H10281   4.503   7.211  10.623  1.5921  0.5820  0.1626
  817MOL0     H10282   4.752   7.226  10.594 -0.9535  3.3074  1.3403
  817MOL0     H10283   5.099   7.197  10.457 -0.3007 -3.2841 -1.6403
  817MOL0     H10284   5.335   7.181  10.450 -0.6709  1.7204  3.2715
  817MOL0     H10285   5.590   7.283  10.436 -3.0114  1.5413 -0.3519
  817MOL0     H10286   5.551   7.156  10.321  1.6963  0.0176 -0.1493
  817MOL0     H10287   5.696   7.242  10.150 -0.0977 -3.5571  0.9491
  817MOL0     H10288   5.777   7.203  10.290 -0.2932 -1.4281 -2.3646
  817MOL0     H10289   5.716   7.490  10.335 -3.2256  1.3263 -2.1172
  817MOL0     H10290   5.722   7.477  10.169 -2.3456  0.0979  1.4535
  817MOL0     H10291   5.939   7.543  10.245  0.4538  0.4851  1.3662
  817MOL0     H10292   5.961   7.380  10.161 -0.9878 -1.5182  0.3283
  817MOL0     H10293   5.998   7.301  10.579 -2.3504 -3.4960 -0.7364
  817MOL0     H10294   5.333   7.499  10.139  0.1749 -0.4147 -0.8783
  817MOL0     H10295   5.088   7.503  10.141 -1.0300  0.9169  1.1538
  818MOL0     O10296   6.510   9.627   5.238  0.0281  0.8097  0.0155
  818MOL0     C10297   6.508   9.623   5.363  0.7285 -0.1107 -0.4224
  818MOL0     O10298   6.404   9.620   5.445  0.1000 -0.3742 -0.0922
  818MOL0     C10299   6.300   9.696   5.391  0.3483  0.1654 -0.0745
  818MOL0     C10300   6.221   9.633   5.299  1.0118  0.0552 -0.1121
  818MOL0     C10301   6.112   9.693   5.243  0.2112  0.2948 -0.5407
  818MOL0     C10302   6.079   9.829   5.274 -0.3318 -0.4097 -0.1045
  818MOL0     O10303   5.973   9.899   5.221  0.2840 -1.0570 -0.6455
  818MOL0     C10304   5.962  10.037   5.268 -0.8214 -0.1582 -0.4440
  818MOL0     C10305   5.838  10.108   5.218 -0.3187  0.2820  0.2271
  818MOL0     C10306   5.716  10.013   5.261  0.2787  0.0630 -1.0151
  818MOL0     C10307   5.591  10.068   5.209  0.6456  0.0309  0.7379
  818MOL0     C10308   5.472   9.973   5.208 -0.4697  0.3885  0.4387
  818MOL0     C10309   5.419   9.937   5.354 -0.1634  0.4422  0.7407
  818MOL0     C10310   5.298   9.844   5.356 -0.3638  0.2326 -0.1657
  818MOL0     C10311   5.165   9.917   5.309 -0.0071 -0.0589 -0.5285
  818MOL0     N10312   5.050   9.825   5.284 -0.7979  0.2860 -0.1151
  818MOL0     C10313   4.982   9.749   5.377 -0.3250  0.4288  0.2105
  818MOL0     C10314   4.929   9.650   5.305 -0.1682 -0.0487  0.1572
  818MOL0     C10315   4.864   9.530   5.368  0.2707  0.2332  0.1541
  818MOL0     C10316   4.718   9.505   5.308 -0.6465 -0.3355 -0.5426
  818MOL0     C10317   4.712   9.438   5.168  0.5452  0.4859 -0.2632
  818MOL0     C10318   4.588   9.355   5.134  0.0384 -0.1093  0.0969
  818MOL0     O10319   4.567   9.249   5.231  0.3048 -0.0901  0.0984
  818MOL0     C10320   4.471   9.159   5.204  0.4824  0.0564 -0.3616
  818MOL0     C10321   4.493   9.031   5.237  0.6436  0.5489  0.4753
  818MOL0     C10322   4.397   8.926   5.235  0.6820 -0.8735 -0.4699
  818MOL0     C10323   4.426   8.789   5.287 -0.4082  0.1594  0.0169
  818MOL0     C10324   4.274   8.960   5.182 -0.4305  0.9210  0.6128
  818MOL0     C10325   4.164   8.857   5.154  0.5051 -0.2274  0.4405
  818MOL0     O10326   4.039   8.916   5.117 -0.1169 -0.0868  0.0980
  818MOL0     C10327   3.961   8.822   5.052  0.3479  0.2665  0.1471
  818MOL0     C10328   3.997   8.783   4.925 -0.4451  0.4539  0.4402
  818MOL0     C10329   3.916   8.702   4.841 -0.5399  0.1436 -0.4391
  818MOL0     C10330   3.793   8.657   4.888 -0.0927 -0.2394  0.1082
  818MOL0     O10331   3.706   8.590   4.810  0.6984 -0.4362  0.7071
  818MOL0     C10332   3.738   8.468   4.738 -0.8613 -0.6931 -0.3530
  818MOL0     C10333   3.625   8.382   4.688  0.5809 -0.0588 -0.5292
  818MOL0     C10334   3.503   8.368   4.776 -0.7414 -0.2518  0.0438
  818MOL0     C10335   3.387   8.293   4.700  0.4833 -0.0353 -0.7603
  818MOL0     C10336   3.430   8.164   4.621 -0.0286 -0.0256  0.8365
  818MOL0     C10337   3.314   8.101   4.545 -0.0249 -0.1789  0.2486
  818MOL0     C10338   3.337   7.967   4.472  0.3540  0.0608 -0.3175
  818MOL0     C10339   3.329   7.848   4.560 -0.3853 -0.1123 -0.1899
  818MOL0    Cl10340   3.374   7.687   4.478 -0.1060  0.1352  0.2853
  818MOL0     C10341   3.752   8.691   5.019  0.2106  0.8511  0.3329
  818MOL0     C10342   3.842   8.764   5.104 -0.3596 -0.1440 -0.1295
  818MOL0     O10343   4.185   8.733   5.166  0.1267 -0.1798 -0.2807
  818MOL0     C10344   4.242   9.092   5.155  0.3071 -0.6617  0.3368
  818MOL0     C10345   4.349   9.186   5.147 -0.0451 -0.1933 -0.2770
  818MOL0     N10346   4.962   9.664   5.172 -0.2629  0.2305 -0.2401
  818MOL0     N10347   5.029   9.775   5.154  0.0432  0.3616  0.2980
  818MOL0     C10348   6.162   9.891   5.369  0.0366  0.8743  0.6256
  818MOL0     C10349   6.269   9.826   5.431 -0.4994  0.8432 -0.1189
  818MOL0     C10350   6.627   9.570   5.416 -0.6202  0.6595 -0.5045
  818MOL0     C10351   6.630   9.440   5.478 -0.7254 -0.0381 -0.0126
  818MOL0     C10352   6.761   9.402   5.522  1.1400  1.0983 -0.1407
  818MOL0     C10353   6.884   9.464   5.501  0.4645 -0.1943  0.3303
  818MOL0     O10354   7.009   9.412   5.517  0.0251 -0.5031 -0.1398
  818MOL0     C10355   7.025   9.273   5.551  0.4685  0.1866  0.8149
  818MOL0     C10356   7.173   9.223   5.572  0.1830 -1.0387  0.3151
  818MOL0     C10357   7.256   9.248   5.439 -0.7819  0.1820 -0.4113
  818MOL0     C10358   7.409   9.239   5.464 -0.9259  0.8220 -0.1212
  818MOL0     C10359   7.471   9.342   5.551 -0.1442 -0.6451  0.1421
  818MOL0     C10360   7.520   9.421   5.628 -0.1203 -0.5722  0.7037
  818MOL0     C10361   6.868   9.595   5.442 -0.4586  0.9265 -0.1183
  818MOL0     C10362   6.743   9.642   5.401 -0.0919  0.4459  0.6506
  818MOL0     H10363   6.242   9.532   5.267 -0.8835 -0.0781 -1.1063
  818MOL0     H10364   6.065   9.640   5.160  0.4229  0.0314 -0.4930
  818MOL0     H10365   5.950  10.038   5.376 -2.2203  0.1454 -0.5790
  818MOL0     H10366   6.042  10.105   5.235 -1.6600  1.3725  0.5412
  818MOL0     H10367   5.825  10.204   5.269 -0.8930 -0.2766  1.1629
  818MOL0     H10368   5.856  10.119   5.111  4.8297 -0.9661  0.7157
  818MOL0     H10369   5.738   9.911   5.226  0.1010 -1.1625  2.1405
  818MOL0     H10370   5.716  10.008   5.370  1.2493 -2.7053 -1.0444
  818MOL0     H10371   5.571  10.143   5.286 -0.9927 -0.1101  0.4761
  818MOL0     H10372   5.603  10.108   5.108 -0.3006 -1.0875  0.1562
  818MOL0     H10373   5.390  10.021   5.154  0.5245 -1.5827 -3.0982
  818MOL0     H10374   5.510   9.888   5.151 -0.4398  0.7919 -0.1488
  818MOL0     H10375   5.495   9.880   5.408 -0.4996 -1.1480 -0.4024
  818MOL0     H10376   5.393  10.027   5.411 -1.9643  0.4413  0.0018
  818MOL0     H10377   5.302   9.760   5.286 -2.6797  0.3580 -0.5485
  818MOL0     H10378   5.285   9.790   5.450 -0.1464  0.0277 -0.2514
  818MOL0     H10379   5.193   9.961   5.213 -3.7704  0.5726 -1.5080
  818MOL0     H10380   5.138   9.978   5.396  0.1133 -2.5853  1.3828
  818MOL0     H10381   4.984   9.755   5.486 -1.1598 -0.8454  0.3199
  818MOL0     H10382   4.926   9.440   5.363 -2.2609 -1.5569 -0.6691
  818MOL0     H10383   4.856   9.557   5.474 -0.8734  1.7899 -0.2870
  818MOL0     H10384   4.664   9.601   5.307 -1.4849 -0.7834  0.4228
  818MOL0     H10385   4.673   9.439   5.382  0.7003 -0.5691  0.1103
  818MOL0     H10386   4.796   9.368   5.162 -0.1941 -0.2862 -1.8280
  818MOL0     H10387   4.727   9.515   5.091  1.7724 -2.2740 -2.9756
  818MOL0     H10388   4.597   9.321   5.031  0.4536  1.0335 -0.2567
  818MOL0     H10389   4.504   9.425   5.137 -0.3171 -0.5510  1.8265
  818MOL0     H10390   4.583   8.992   5.284  2.2472  0.1128 -2.7159
  818MOL0     H10391   4.424   8.713   5.208 -0.4189  0.1046  0.0698
  818MOL0     H10392   4.526   8.786   5.332  0.0596  2.6700 -0.7270
  818MOL0     H10393   4.356   8.752   5.362  0.9541 -0.2796  1.1245
  818MOL0     H10394   4.086   8.831   4.885  0.9591 -1.7979  0.6278
  818MOL0     H10395   3.948   8.677   4.741  0.9486  0.2278 -0.0047
  818MOL0     H10396   3.806   8.501   4.659 -1.0303  0.8782  0.1251
  818MOL0     H10397   3.803   8.404   4.799  0.6969  0.0804 -1.1279
  818MOL0     H10398   3.605   8.404   4.583  0.1208  2.0718 -0.0488
  818MOL0     H10399   3.668   8.282   4.700 -0.9349 -0.4853  2.1255
  818MOL0     H10400   3.476   8.466   4.815  1.4513  0.0395  1.0180
  818MOL0     H10401   3.525   8.308   4.865 -2.5821  0.2212  0.8681
  818MOL0     H10402   3.303   8.286   4.769  0.2386  3.3094 -0.5475
  818MOL0     H10403   3.351   8.361   4.622  0.8275 -2.9321 -3.6568
  818MOL0     H10404   3.487   8.102   4.690  0.0526 -1.3364 -0.3644
  818MOL0     H10405   3.505   8.176   4.542 -1.5037  0.0424 -0.6084
  818MOL0     H10406   3.223   8.084   4.604 -1.1945 -2.6596 -2.0197
  818MOL0     H10407   3.283   8.162   4.460 -0.9875  0.8295  1.3002
  818MOL0     H10408   3.439   7.965   4.432  1.2882  0.5855  1.9023
  818MOL0     H10409   3.256   7.964   4.399 -0.1922  0.6366  0.2465
  818MOL0     H10410   3.230   7.836   4.605  0.6666 -0.2567  2.2401
  818MOL0     H10411   3.396   7.875   4.642 -2.9569  1.7922  1.4494
  818MOL0     H10412   3.655   8.659   5.054 -0.7567 -0.5643 -3.2391
  818MOL0     H10413   3.813   8.792   5.204 -0.6434 -0.3975 -0.1412
  818MOL0     H10414   4.145   9.129   5.123  0.1872  1.1669  2.5397
  818MOL0     H10415   4.339   9.285   5.103 -1.3035  0.3553  1.1823
  818MOL0     H10416   6.156   9.995   5.400 -1.4144  1.0125 -0.0403
  818MOL0     H10417   6.337   9.875   5.499  0.6811  1.7041 -1.8414
  818MOL0     H10418   6.534   9.392   5.495 -0.7659  0.0613  0.0345
  818MOL0     H10419   6.760   9.314   5.586 -2.9194  2.3067  1.7769
  818MOL0     H10420   6.973   9.244   5.642 -1.5267  0.4379 -0.1942
  818MOL0     H10421   6.979   9.210   5.474  1.5101  1.2735 -0.7670
  818MOL0     H10422   7.161   9.115   5.587 -1.2902 -1.0888 -0.9351
  818MOL0     H10423   7.209   9.277   5.660  0.5143  0.9162 -0.9551
  818MOL0     H10424   7.227   9.350   5.411  0.1712  1.2081  2.0276
  818MOL0     H10425   7.222   9.178   5.362  0.4517 -1.1809  0.2335
  818MOL0     H10426   7.449   9.256   5.363 -0.5482  1.8328  0.1825
  818MOL0     H10427   7.441   9.138   5.490  3.0386  2.0839  0.5133
  818MOL0     H10428   7.551   9.500   5.693 -1.4230 -0.3092  1.0330
  818MOL0     H10429   6.961   9.650   5.445 -0.7611  1.4122  1.8842
  818MOL0     H10430   6.727   9.739   5.355  1.2552  0.5940  0.4506
  819MOL0     O10431  10.985   6.239   0.245  0.3595  0.5833  0.6443
  819MOL0     C10432  11.085   6.308   0.211 -0.0159  0.0339 -0.3150
  819MOL0     O10433  11.205   6.257   0.161 -0.4840  0.5037 -0.7556
  819MOL0     C10434  11.249   6.127   0.195  0.1484  0.2838 -0.4849
  819MOL0     C10435  11.195   6.039   0.296 -0.4696 -0.3426  0.9169
  819MOL0     C10436  11.253   5.910   0.321  0.2082  0.1646  0.7435
  819MOL0     C10437  11.371   5.886   0.258  0.2660  0.6395 -0.4227
  819MOL0     O10438  11.413   5.769   0.296 -0.4923  0.7980  0.3469
  819MOL0     C10439  11.513   5.700   0.210 -0.3966 -0.2343  0.1396
  819MOL0     C10440  11.493   5.549   0.233 -0.4104 -0.5599 -0.5389
  819MOL0     C10441  11.357   5.486   0.201  0.8282 -1.0032  0.3767
  819MOL0     C10442  11.345   5.334   0.233 -0.2761 -0.7557  0.5718
  819MOL0     C10443  11.212   5.267   0.183  0.3377  0.2305  0.1390
  819MOL0     C10444  11.226   5.114   0.194 -0.2434  0.3607  0.5466
  819MOL0     C10445  11.116   5.039   0.107 -0.4003 -0.2378 -0.0316
  819MOL0     C10446  11.164   4.902   0.067 -1.0003 -0.3102 -0.0051
  819MOL0     N10447  11.289   4.903  -0.016 -0.4788  0.5603 -0.2286
  819MOL0     C10448  11.382   4.807  -0.010 -0.4736 -0.2039 -0.6126
  819MOL0     C10449  11.467   4.838  -0.111  0.1464 -1.0446 -0.0706
  819MOL0     C10450  11.590   4.767  -0.139 -0.1909  0.5756  0.3466
  819MOL0     C10451  11.717   4.833  -0.066  0.3320  0.1900  0.4703
  819MOL0     C10452  11.768   4.955  -0.140  0.0447  0.2988  0.5421
  819MOL0     C10453  11.810   4.923  -0.278  0.7287  0.4198  0.7006
  819MOL0     O10454  11.905   5.013  -0.334  0.1197  0.6489 -0.1526
  819MOL0     C10455  11.876   5.124  -0.404  0.3837  0.0991  0.5012
  819MOL0     C10456  11.988   5.214  -0.405  0.0944 -0.1461 -0.2325
  819MOL0     C10457  11.976   5.341  -0.467  0.5436  0.2829 -0.3761
  819MOL0     C10458  12.100   5.433  -0.460 -0.0789 -0.3246 -0.4523
  819MOL0     C10459  11.856   5.378  -0.530  0.2267  0.5658  1.0513
  819MOL0     C10460  11.840   5.499  -0.606  0.1362 -0.5515  0.1537
  819MOL0     O10461  11.716   5.548  -0.606 -0.1158  0.6419 -0.2168
  819MOL0     C10462  11.694   5.653  -0.689 -0.1981  0.2720  0.8744
  819MOL0     C10463  11.687   5.639  -0.828  0.0226  0.7067  0.0148
  819MOL0     C10464  11.646   5.743  -0.906  0.2736  0.9226 -0.2509
  819MOL0     C10465  11.595   5.860  -0.847  0.1072  0.4835  0.5035
  819MOL0     O10466  11.544   5.950  -0.930 -0.1532 -0.3495  0.6186
  819MOL0     C10467  11.571   6.091  -0.909  0.0482  0.5285 -0.2542
  819MOL0     C10468  11.515   6.166  -1.026 -0.0348  0.3234 -0.2557
  819MOL0     C10469  11.524   6.317  -0.989 -0.0216  0.1910  0.5283
  819MOL0     C10470  11.487   6.402  -1.113  0.9746  0.0593 -0.2987
  819MOL0     C10471  11.491   6.552  -1.078 -0.7551  0.4200  1.3383
  819MOL0     C10472  11.374   6.593  -0.992  0.4859 -0.6506 -0.2064
  819MOL0     C10473  11.395   6.738  -0.935 -0.1246  0.2255 -0.9848
  819MOL0     C10474  11.357   6.740  -0.787 -0.6125 -1.0534  0.3127
  819MOL0    Cl10475  11.375   6.906  -0.732  0.1782  0.0042 -0.0373
  819MOL0     C10476  11.593   5.878  -0.709 -1.2016 -0.2156 -0.8826
  819MOL0     C10477  11.649   5.773  -0.626 -0.4871 -0.7653 -0.7120
  819MOL0     O10478  11.930   5.554  -0.661 -0.5009  0.5850  0.5845
  819MOL0     C10479  11.745   5.286  -0.521  0.0289  0.5012 -0.1249
  819MOL0     C10480  11.751   5.161  -0.451 -0.0396 -0.7766  0.1221
  819MOL0     N10481  11.427   4.964  -0.164  0.2296 -0.3030  0.4580
  819MOL0     N10482  11.303   4.988  -0.120  0.4005 -0.5475  0.4685
  819MOL0     C10483  11.421   5.971   0.167 -0.1678 -0.3865  0.1378
  819MOL0     C10484  11.360   6.083   0.122  0.1577  0.2972  0.1920
  819MOL0     C10485  11.086   6.451   0.210  0.6360 -0.0575  0.6641
  819MOL0     C10486  10.978   6.525   0.247  0.7582  0.1226  0.7775
  819MOL0     C10487  10.957   6.662   0.220  0.4472 -0.4354 -0.6289
  819MOL0     C10488  11.059   6.737   0.165  0.1138 -0.2620 -0.1966
  819MOL0     O10489  11.055   6.878   0.150 -0.1252  0.5721  0.7129
  819MOL0     C10490  10.934   6.948   0.182 -0.8976 -0.1435  0.1794
  819MOL0     C10491  10.929   6.992   0.334 -0.2522 -0.0423  0.0004
  819MOL0     C10492  10.793   7.041   0.382  0.3402  1.1758  0.0730
  819MOL0     C10493  10.739   7.000   0.521 -0.3408 -0.3559 -0.3837
  819MOL0     C10494  10.741   6.850   0.535  0.4952  0.8081  1.7019
  819MOL0     C10495  10.762   6.729   0.533  0.1302 -0.5403  0.8728
  819MOL0     C10496  11.179   6.666   0.137  0.2785 -0.1514  0.1269
  819MOL0     C10497  11.189   6.527   0.150  1.2668 -0.7546  0.1492
  819MOL0     H10498  11.104   6.077   0.341  0.2134  3.3830 -0.4740
  819MOL0     H10499  11.213   5.840   0.393  2.1521 -1.1455  0.6368
  819MOL0     H10500  11.492   5.728   0.106 -1.4086  3.2748  1.1519
  819MOL0     H10501  11.610   5.734   0.248  0.1555  0.1985 -1.5509
  819MOL0     H10502  11.573   5.510   0.169  0.6930 -0.8653  0.9483
  819MOL0     H10503  11.523   5.535   0.338  1.2547  1.9461 -0.5912
  819MOL0     H10504  11.279   5.535   0.260  0.1436 -1.6162 -0.0062
  819MOL0     H10505  11.335   5.514   0.098 -0.7279  0.5390  1.0817
  819MOL0     H10506  11.425   5.272   0.190 -1.2070 -1.0304 -0.8080
  819MOL0     H10507  11.356   5.321   0.341 -0.3710  2.5849  1.0794
  819MOL0     H10508  11.130   5.310   0.241  0.5858  1.9007 -0.6962
  819MOL0     H10509  11.198   5.302   0.081 -1.5203 -0.0742  0.2515
  819MOL0     H10510  11.325   5.080   0.163 -0.6729  0.8009 -1.4166
  819MOL0     H10511  11.209   5.088   0.299  1.0945 -0.7911  0.5198
  819MOL0     H10512  11.028   5.021   0.170 -0.0986  0.9788  0.7902
  819MOL0     H10513  11.087   5.099   0.020  3.1072 -2.3518 -2.9371
  819MOL0     H10514  11.085   4.865   0.001 -0.2640 -0.5367 -0.7927
  819MOL0     H10515  11.181   4.848   0.160  0.4285 -0.1748 -0.1566
  819MOL0     H10516  11.385   4.731   0.068 -0.7968  1.4731  1.1147
  819MOL0     H10517  11.582   4.662  -0.109 -0.1965 -0.1337 -1.9908
  819MOL0     H10518  11.604   4.774  -0.247  3.0278 -0.7759  0.5486
  819MOL0     H10519  11.791   4.753  -0.077 -2.4018 -2.1661 -2.8667
  819MOL0     H10520  11.699   4.853   0.040 -0.3292 -1.3969  0.6899
  819MOL0     H10521  11.853   4.993  -0.082  1.2190 -2.0259  0.4668
  819MOL0     H10522  11.700   5.040  -0.142 -0.6361 -0.2139  1.4333
  819MOL0     H10523  11.721   4.918  -0.341  0.6997 -0.5319  0.8069
  819MOL0     H10524  11.853   4.823  -0.286  0.5261  0.1443  2.6637
  819MOL0     H10525  12.079   5.185  -0.354  0.3447  1.1105  0.0764
  819MOL0     H10526  12.122   5.469  -0.561  1.6719  1.1537  0.3972
  819MOL0     H10527  12.070   5.510  -0.389 -1.4329 -1.9331  0.8167
  819MOL0     H10528  12.179   5.376  -0.411  1.4249  2.3459  0.4215
  819MOL0     H10529  11.713   5.540  -0.864 -2.5882 -1.0079  2.4093
  819MOL0     H10530  11.639   5.728  -1.013  0.9044  1.4661 -0.3784
  819MOL0     H10531  11.530   6.127  -0.814  3.7386 -0.3730  1.8876
  819MOL0     H10532  11.678   6.111  -0.903  0.0649  0.6015 -0.8062
  819MOL0     H10533  11.575   6.142  -1.114 -0.5796 -2.4009  0.0464
  819MOL0     H10534  11.418   6.128  -1.060  0.7097 -1.2904 -0.6713
  819MOL0     H10535  11.628   6.348  -0.980  1.0810 -2.7102 -0.8212
  819MOL0     H10536  11.468   6.336  -0.897 -1.6062 -0.4947 -0.2592
  819MOL0     H10537  11.535   6.372  -1.206 -1.4872 -0.2134 -1.5793
  819MOL0     H10538  11.381   6.374  -1.119  0.8790 -0.5526  2.7262
  819MOL0     H10539  11.475   6.620  -1.163  2.7929  1.3449  1.2684
  819MOL0     H10540  11.582   6.570  -1.021 -1.3085  0.1397  2.3253
  819MOL0     H10541  11.275   6.576  -1.035  0.9403  0.1544 -1.6558
  819MOL0     H10542  11.375   6.528  -0.904  0.0066 -0.7819 -0.2924
  819MOL0     H10543  11.332   6.811  -0.985 -0.2390 -0.3798 -1.7387
  819MOL0     H10544  11.498   6.774  -0.948 -0.3420  0.9732 -0.6977
  819MOL0     H10545  11.426   6.684  -0.724  0.5420 -0.1087 -0.0632
  819MOL0     H10546  11.255   6.707  -0.766 -0.6366 -2.4432 -1.6666
  819MOL0     H10547  11.565   5.974  -0.667  2.9494 -0.0719  2.1439
  819MOL0     H10548  11.643   5.784  -0.518 -0.1975  1.1494 -0.8512
  819MOL0     H10549  11.651   5.322  -0.562 -0.2270  0.4853  0.4308
  819MOL0     H10550  11.653   5.116  -0.442 -0.4086 -0.6339 -2.3672
  819MOL0     H10551  11.522   5.952   0.132 -0.1007 -0.7679  0.5301
  819MOL0     H10552  11.416   6.143   0.051  1.3433 -1.0289 -0.0218
  819MOL0     H10553  10.898   6.471   0.298 -1.9352  3.1837  0.1694
  819MOL0     H10554  10.869   6.707   0.266 -0.2810 -1.6395 -0.7852
  819MOL0     H10555  10.941   7.042   0.127  3.3484 -0.5993 -0.3722
  819MOL0     H10556  10.840   6.899   0.152 -1.2095  1.6557 -2.1068
  819MOL0     H10557  10.999   7.073   0.357 -2.4004  1.2571  2.5488
  819MOL0     H10558  10.968   6.904   0.386  2.1055 -0.8679 -2.8710
  819MOL0     H10559  10.722   7.008   0.305 -0.9702  0.6430  1.4664
  819MOL0     H10560  10.780   7.149   0.383  0.3474  1.1764  0.8907
  819MOL0     H10561  10.638   7.034   0.545  0.1108 -1.6676  4.7397
  819MOL0     H10562  10.807   7.031   0.602 -2.6714 -0.3177  1.6955
  819MOL0     H10563  10.777   6.623   0.535  0.2039 -0.6096 -0.9532
  819MOL0     H10564  11.265   6.723   0.105 -1.7229  2.4784 -0.9547
  819MOL0     H10565  11.284   6.490   0.115  0.5679  0.0950 -2.9486
  820MOL0     O10566   9.168  10.844   0.182 -0.6902  0.0193  0.3839
  820MOL0     C10567   9.083  10.763   0.214 -0.9915  0.2904  0.2729
  820MOL0     O10568   9.107  10.627   0.236 -0.7561  0.0381  0.2714
  820MOL0     C10569   9.219  10.569   0.165  0.7695 -0.1573  0.8194
  820MOL0     C10570   9.339  10.529   0.229 -0.2742  0.5543  0.7250
  820MOL0     C10571   9.438  10.474   0.150  0.2481 -0.2562 -0.4475
  820MOL0     C10572   9.419  10.456   0.015  0.2245 -0.6215 -0.6959
  820MOL0     O10573   9.518  10.402  -0.065 -0.6343 -0.9046 -0.0493
  820MOL0     C10574   9.547  10.264  -0.043  0.9137 -0.0946 -0.8327
  820MOL0     C10575   9.615  10.199  -0.165 -0.7530  0.1985 -0.5210
  820MOL0     C10576   9.735  10.281  -0.206 -0.5094 -0.2262  0.0395
  820MOL0     C10577   9.832  10.195  -0.289  0.0429 -0.1313 -0.2266
  820MOL0     C10578   9.940  10.279  -0.362 -0.2038 -0.4803 -0.1623
  820MOL0     C10579  10.031  10.355  -0.262 -0.3678  0.4053 -0.3019
  820MOL0     C10580  10.098  10.264  -0.158 -0.1610 -0.2264  0.1997
  820MOL0     C10581  10.244  10.299  -0.139 -0.4012  0.1572 -0.3921
  820MOL0     N10582  10.324  10.325  -0.252 -0.2537 -0.5455  0.3327
  820MOL0     C10583  10.335  10.248  -0.365 -0.2929  0.3316  0.3229
  820MOL0     C10584  10.406  10.323  -0.456  0.1695  0.6722  0.3432
  820MOL0     C10585  10.444  10.276  -0.593  0.3300 -0.2781  0.4831
  820MOL0     C10586  10.362  10.330  -0.713  0.6774  0.3244  0.7074
  820MOL0     C10587  10.386  10.471  -0.757  0.3926 -0.6339  0.4704
  820MOL0     C10588  10.521  10.522  -0.785 -0.0662  0.3524  0.9225
  820MOL0     O10589  10.580  10.458  -0.894 -0.0688  0.7547  0.1758
  820MOL0     C10590  10.710  10.507  -0.911  0.0191  0.3594  0.2684
  820MOL0     C10591  10.745  10.629  -0.969 -0.6204 -0.2017 -0.0863
  820MOL0     C10592  10.878  10.692  -0.958  0.1958 -0.8313 -0.3945
  820MOL0     C10593  10.910  10.828  -1.032 -0.2046 -0.2887 -0.4322
  820MOL0     C10594  10.977  10.630  -0.872  0.0217  0.4730  0.5602
  820MOL0     C10595  11.096  10.697  -0.825 -0.7882  0.2097  0.1561
  820MOL0     O10596  11.068  10.823  -0.777  0.0311  0.6794 -0.4788
  820MOL0     C10597  11.158  10.884  -0.693 -0.2882  0.1126 -0.2528
  820MOL0     C10598  11.237  10.822  -0.592 -0.9518 -0.8426  0.7619
  820MOL0     C10599  11.317  10.900  -0.509 -0.2623 -0.7092 -0.3416
  820MOL0     C10600  11.327  11.040  -0.533  1.1202 -0.6775 -0.8806
  820MOL0     O10601  11.414  11.126  -0.473 -1.1098  0.3599  0.3713
  820MOL0     C10602  11.393  11.165  -0.331 -0.1176  0.0604 -1.0475
  820MOL0     C10603  11.485  11.275  -0.291 -0.6424  0.9570  0.5869
  820MOL0     C10604  11.474  11.314  -0.148  0.4437 -0.3508 -0.2403
  820MOL0     C10605  11.606  11.377  -0.098  0.1012  0.5288  0.3740
  820MOL0     C10606  11.590  11.428   0.041  0.7512  0.0664 -0.5386
  820MOL0     C10607  11.718  11.440   0.118 -0.7745  0.2128  0.7631
  820MOL0     C10608  11.696  11.438   0.272 -0.2642 -0.2943  0.8678
  820MOL0     C10609  11.609  11.548   0.326  0.3340 -0.1267 -1.0405
  820MOL0    Cl10610  11.672  11.710   0.284  0.2000 -0.0987 -0.3092
  820MOL0     C10611  11.251  11.093  -0.633  0.1008 -0.3676  0.4770
  820MOL0     C10612  11.180  11.019  -0.713 -0.6413  0.2787 -0.2815
  820MOL0     O10613  11.200  10.637  -0.825  0.7409  1.7105 -0.7768
  820MOL0     C10614  10.948  10.491  -0.836  0.4288 -0.0080 -0.2765
  820MOL0     C10615  10.814  10.437  -0.844 -0.2518  0.0149 -0.3425
  820MOL0     N10616  10.426  10.447  -0.409  0.2718  0.0317 -0.0147
  820MOL0     N10617  10.369  10.453  -0.290  0.0482  0.4792  0.6692
  820MOL0     C10618   9.294  10.492  -0.043 -0.7540 -0.7407 -0.1417
  820MOL0     C10619   9.199  10.551   0.029 -0.5697 -0.2866  0.4385
  820MOL0     C10620   8.949  10.818   0.251  0.4678  0.5500 -0.3965
  820MOL0     C10621   8.848  10.740   0.301 -0.6733 -0.0186  0.7825
  820MOL0     C10622   8.718  10.788   0.313 -0.4301 -0.1050 -0.4792
  820MOL0     C10623   8.695  10.922   0.321  0.5290 -1.2662  0.8372
  820MOL0     O10624   8.571  10.982   0.336  0.0239  0.1601  0.1214
  820MOL0     C10625   8.461  10.902   0.384 -0.0487  0.3255  0.1506
  820MOL0     C10626   8.484  10.865   0.522  0.2320 -0.3607  0.6438
  820MOL0     C10627   8.361  10.801   0.588  0.4731 -0.2681  0.7775
  820MOL0     C10628   8.384  10.752   0.734  0.1833  0.8323 -0.3007
  820MOL0     C10629   8.417  10.872   0.812 -0.4732 -0.4285  0.6167
  820MOL0     C10630   8.460  10.962   0.883 -0.0778 -0.0791  0.8996
  820MOL0     C10631   8.793  11.010   0.274  0.3168  0.3332  0.2999
  820MOL0     C10632   8.917  10.958   0.231 -0.6554  0.1934  0.2793
  820MOL0     H10633   9.372  10.547   0.331  0.5360  0.8053  0.4313
  820MOL0     H10634   9.526  10.452   0.209 -0.5643 -1.0889  0.5008
  820MOL0     H10635   9.618  10.245   0.038  1.8452 -0.2090 -1.6550
  820MOL0     H10636   9.455  10.214  -0.012  0.7642  1.0240  0.6876
  820MOL0     H10637   9.643  10.098  -0.134 -1.1837  0.2943  0.2114
  820MOL0     H10638   9.549  10.191  -0.252 -2.0821  0.3229  0.4388
  820MOL0     H10639   9.695  10.354  -0.277 -2.0038  1.5218  2.5049
  820MOL0     H10640   9.791  10.333  -0.128 -0.9232  0.5646 -0.1840
  820MOL0     H10641   9.873  10.117  -0.224  0.0649 -0.7049 -0.9218
  820MOL0     H10642   9.765  10.139  -0.354 -0.6463 -2.3571  2.2084
  820MOL0     H10643   9.987  10.224  -0.444 -0.1737 -0.2614 -0.2940
  820MOL0     H10644   9.883  10.358  -0.413  1.5737  1.5648  0.8491
  820MOL0     H10645  10.106  10.402  -0.327 -0.7696  0.0475 -1.0426
  820MOL0     H10646   9.984  10.437  -0.208 -0.6209  0.1448 -0.1248
  820MOL0     H10647  10.046  10.258  -0.062 -0.3945 -0.5433  0.0571
  820MOL0     H10648  10.101  10.158  -0.186  2.2448 -0.8688  2.4529
  820MOL0     H10649  10.307  10.229  -0.084  1.2156  2.1694  0.4632
  820MOL0     H10650  10.253  10.393  -0.083  0.8048 -1.0220  1.5013
  820MOL0     H10651  10.286  10.154  -0.391  1.2240 -0.0247 -1.4561
  820MOL0     H10652  10.550  10.295  -0.611  0.0468 -0.7106 -2.0519
  820MOL0     H10653  10.420  10.169  -0.594 -1.2538  0.0038 -1.8613
  820MOL0     H10654  10.257  10.324  -0.686  0.7778 -1.1715  0.8170
  820MOL0     H10655  10.362  10.265  -0.801 -2.6286 -0.6555  1.3336
  820MOL0     H10656  10.353  10.534  -0.675  3.1386 -2.0301  2.8597
  820MOL0     H10657  10.321  10.482  -0.844 -1.4213  2.4710  2.0848
  820MOL0     H10658  10.577  10.487  -0.698  0.5795 -0.2129  0.2988
  820MOL0     H10659  10.518  10.631  -0.795  2.3059  0.4812  0.9931
  820MOL0     H10660  10.687  10.692  -1.036  0.0105  0.1041 -0.3544
  820MOL0     H10661  10.856  10.904  -0.976 -3.4051 -2.5335 -0.1316
  820MOL0     H10662  11.013  10.865  -1.030  0.1672 -1.2633 -0.8695
  820MOL0     H10663  10.867  10.829  -1.133  0.2918  1.4536 -0.6500
  820MOL0     H10664  11.245  10.714  -0.600 -1.8435 -0.9836  1.6349
  820MOL0     H10665  11.382  10.865  -0.430  0.1484 -0.8061 -0.7204
  820MOL0     H10666  11.287  11.188  -0.318 -0.4366 -0.1429 -2.9555
  820MOL0     H10667  11.409  11.073  -0.274  0.0074  0.6603 -0.1035
  820MOL0     H10668  11.591  11.255  -0.311 -0.3131  2.2459  0.9323
  820MOL0     H10669  11.461  11.363  -0.352 -1.8451  1.6118  1.9343
  820MOL0     H10670  11.445  11.222  -0.095  1.8007 -0.7274 -0.1105
  820MOL0     H10671  11.398  11.393  -0.142 -1.1568 -1.8266 -0.1400
  820MOL0     H10672  11.685  11.302  -0.089  1.8824  2.4784  2.1966
  820MOL0     H10673  11.641  11.458  -0.163 -2.1800  1.2734 -0.0335
  820MOL0     H10674  11.519  11.360   0.090 -0.1975  2.0340  0.9820
  820MOL0     H10675  11.543  11.527   0.039 -0.5075 -0.5203 -1.3819
  820MOL0     H10676  11.787  11.355   0.111 -0.5574  0.5192 -1.7813
  820MOL0     H10677  11.767  11.530   0.080  0.1287 -0.1785  0.9708
  820MOL0     H10678  11.786  11.437   0.334 -0.7116  0.9781  1.5713
  820MOL0     H10679  11.650  11.341   0.292 -2.0116  0.6787  1.8558
  820MOL0     H10680  11.616  11.527   0.433 -4.2547  2.6952  0.0743
  820MOL0     H10681  11.507  11.537   0.288 -0.6093 -0.1969  1.3652
  820MOL0     H10682  11.255  11.197  -0.663 -0.4633 -0.8264 -1.3063
  820MOL0     H10683  11.119  11.050  -0.797  0.6420 -1.9768 -2.1366
  820MOL0     H10684  11.019  10.426  -0.786  1.0068  0.2570 -0.7404
  820MOL0     H10685  10.785  10.347  -0.791 -2.6426  1.1763  0.4543
  820MOL0     H10686   9.283  10.478  -0.150  0.5864 -1.3653 -0.2172
  820MOL0     H10687   9.100  10.571  -0.009 -0.5265  0.1311  0.5451
  820MOL0     H10688   8.864  10.633   0.311 -0.2572  0.1962  3.0258
  820MOL0     H10689   8.646  10.720   0.356 -2.3288  2.6372  0.9555
  820MOL0     H10690   8.367  10.956   0.384  0.6746  1.6590  1.3871
  820MOL0     H10691   8.455  10.811   0.323  1.4184  0.1828  0.1849
  820MOL0     H10692   8.492  10.954   0.584  0.8016 -1.7737  2.7039
  820MOL0     H10693   8.571  10.799   0.534 -0.3606 -1.1124  0.8946
  820MOL0     H10694   8.326  10.722   0.520  0.2363  0.9871 -0.6244
  820MOL0     H10695   8.273  10.865   0.578  1.9032  1.8670  1.3969
  820MOL0     H10696   8.457  10.671   0.739  0.8808  1.4801  0.2848
  820MOL0     H10697   8.298  10.707   0.784 -0.2146 -3.3577 -4.1352
  820MOL0     H10698   8.494  11.039   0.950 -0.6203  0.5479  0.4753
  820MOL0     H10699   8.774  11.114   0.252  0.7194  0.4631  0.5560
  820MOL0     H10700   8.993  11.024   0.190 -2.9350  2.6866 -0.2069
  821MOL0     O10701   9.487   4.911   8.783  0.6209 -0.2438 -0.7833
  821MOL0     C10702   9.387   4.982   8.783 -0.1422 -1.3394  0.4539
  821MOL0     O10703   9.370   5.091   8.862 -0.3720 -0.4260 -0.8449
  821MOL0     C10704   9.460   5.110   8.968 -0.8228 -0.2646  1.0403
  821MOL0     C10705   9.598   5.135   8.955  0.2288 -0.1992 -0.2242
  821MOL0     C10706   9.678   5.143   9.069  0.6626  0.4808  0.0023
  821MOL0     C10707   9.632   5.132   9.201  0.7161  0.2487 -0.1811
  821MOL0     O10708   9.709   5.138   9.309 -0.1537  0.0807 -0.1334
  821MOL0     C10709   9.787   5.261   9.318 -0.6911 -0.2253  0.4630
  821MOL0     C10710   9.823   5.275   9.463  0.1498 -0.5218 -0.3837
  821MOL0     C10711   9.688   5.259   9.549 -0.1935 -0.2135 -0.3005
  821MOL0     C10712   9.708   5.315   9.694 -0.3282 -0.0021  0.2391
  821MOL0     C10713   9.785   5.222   9.784 -0.4895 -0.6756  0.1626
  821MOL0     C10714   9.928   5.288   9.807  0.5461  0.0038  0.3532
  821MOL0     C10715  10.015   5.207   9.909  0.0329 -0.1049 -0.2197
  821MOL0     C10716  10.145   5.275   9.917  0.5143  0.4587 -0.1823
  821MOL0     N10717  10.131   5.413   9.958 -0.2039 -0.2198 -0.1312
  821MOL0     C10718  10.042   5.467  10.048 -0.6292 -0.4606 -0.1569
  821MOL0     C10719  10.070   5.598  10.047 -0.2097  0.4653  0.3200
  821MOL0     C10720  10.020   5.699  10.139  0.0831  0.6115 -0.5173
  821MOL0     C10721   9.919   5.781  10.064 -0.0019 -0.2038  0.2446
  821MOL0     C10722   9.848   5.898  10.142 -0.4143  0.8024 -0.1968
  821MOL0     C10723   9.944   6.013  10.163  0.0147  0.5743  0.2716
  821MOL0     O10724   9.868   6.137  10.182 -0.7301 -0.0128 -0.3666
  821MOL0     C10725   9.846   6.224  10.095  0.0795 -0.2765 -0.2768
  821MOL0     C10726   9.827   6.353  10.139 -0.9993  0.3154 -1.0529
  821MOL0     C10727   9.823   6.462  10.057  0.1291 -0.1789 -0.0724
  821MOL0     C10728   9.814   6.597  10.122 -0.0056  0.4477 -0.6348
  821MOL0     C10729   9.833   6.444   9.917  0.2418  0.1458  0.7048
  821MOL0     C10730   9.839   6.561   9.826  0.4507  0.8374 -0.5614
  821MOL0     O10731   9.872   6.687   9.875  0.0273  0.3529 -0.4994
  821MOL0     C10732   9.891   6.786   9.786  0.2955  0.2559  0.1391
  821MOL0     C10733   9.775   6.825   9.709 -0.3663  0.4148 -0.2065
  821MOL0     C10734   9.785   6.925   9.611 -0.9103  0.7155  0.6381
  821MOL0     C10735   9.921   6.974   9.584 -0.8536 -0.2953  0.4991
  821MOL0     O10736   9.934   7.056   9.472 -0.9069 -0.4453 -0.3006
  821MOL0     C10737   9.883   7.182   9.515  0.9730 -0.0695 -0.0306
  821MOL0     C10738   9.862   7.264   9.391 -0.5000  0.2588  0.7748
  821MOL0     C10739   9.752   7.207   9.299  0.6803 -0.3092 -0.4871
  821MOL0     C10740   9.771   7.274   9.159  0.2419  0.1945  0.0071
  821MOL0     C10741   9.659   7.242   9.062  0.2137 -0.2747  0.1010
  821MOL0     C10742   9.654   7.325   8.939 -0.3733  0.8996  0.5660
  821MOL0     C10743   9.567   7.243   8.840  0.4894  0.2203  0.2418
  821MOL0     C10744   9.546   7.331   8.709 -0.0181  0.9319 -0.0112
  821MOL0    Cl10745   9.421   7.454   8.727 -0.9342  0.4168  0.2891
  821MOL0     C10746  10.029   6.923   9.649 -0.2254  0.4638  0.1246
  821MOL0     C10747  10.017   6.830   9.752  0.7119  0.5627 -0.4078
  821MOL0     O10748   9.831   6.535   9.706 -0.6307 -0.7708  0.4451
  821MOL0     C10749   9.830   6.313   9.869  0.0681 -0.1887 -0.7198
  821MOL0     C10750   9.842   6.199   9.957  0.6542 -0.4007  0.4440
  821MOL0     N10751  10.171   5.629   9.957  0.6115 -1.0119 -0.2085
  821MOL0     N10752  10.192   5.517   9.900 -0.1707  0.0354 -0.2861
  821MOL0     C10753   9.495   5.117   9.217 -0.1941 -0.0305 -0.3112
  821MOL0     C10754   9.417   5.101   9.101  0.8553 -0.1297 -0.7726
  821MOL0     C10755   9.286   4.944   8.686  0.0903  0.4124 -0.4910
  821MOL0     C10756   9.153   4.968   8.731  0.9250  0.4184 -0.0523
  821MOL0     C10757   9.038   4.920   8.652 -0.4458 -0.2667  0.4684
  821MOL0     C10758   9.077   4.850   8.540 -0.5027  0.1238 -0.2504
  821MOL0     O10759   8.988   4.765   8.479 -0.4485 -0.0587  0.6336
  821MOL0     C10760   8.855   4.795   8.492  0.7952  0.3224  0.2690
  821MOL0     C10761   8.776   4.699   8.397  0.3203  0.7822 -0.1374
  821MOL0     C10762   8.624   4.677   8.440 -0.5753  0.4884 -0.1723
  821MOL0     C10763   8.554   4.803   8.427 -0.2025  0.0721  0.0583
  821MOL0     C10764   8.421   4.783   8.482  0.1767 -0.5940 -0.3858
  821MOL0     C10765   8.311   4.795   8.535 -0.7617 -0.5755  0.9825
  821MOL0     C10766   9.208   4.831   8.492 -0.2670 -0.4266  0.5631
  821MOL0     C10767   9.313   4.898   8.557  0.4984  0.5339  0.7761
  821MOL0     H10768   9.652   5.126   8.861  1.1361 -1.2684  0.3937
  821MOL0     H10769   9.784   5.157   9.052  0.1591  1.0507 -3.1244
  821MOL0     H10770   9.879   5.249   9.261 -0.3966 -2.4551  1.3157
  821MOL0     H10771   9.725   5.345   9.285  2.1530  1.3815 -1.1367
  821MOL0     H10772   9.894   5.203   9.506 -1.3823 -2.0195 -0.2158
  821MOL0     H10773   9.866   5.372   9.488  1.3551 -1.2704  0.5076
  821MOL0     H10774   9.609   5.317   9.501 -0.1689  1.9967  2.0732
  821MOL0     H10775   9.649   5.157   9.553  2.4452 -1.2890 -0.2279
  821MOL0     H10776   9.760   5.411   9.697  0.4206 -0.4065  0.2516
  821MOL0     H10777   9.613   5.331   9.748 -0.8985  0.3713 -0.8515
  821MOL0     H10778   9.723   5.204   9.873 -1.8736 -0.8305 -0.8079
  821MOL0     H10779   9.793   5.119   9.749  0.8701 -1.5037  2.6590
  821MOL0     H10780   9.985   5.301   9.714 -0.3049  2.6805  0.1385
  821MOL0     H10781   9.911   5.387   9.850  1.3583  1.3571 -2.2048
  821MOL0     H10782   9.974   5.214  10.011  5.2303 -1.1300  2.3104
  821MOL0     H10783  10.032   5.101   9.886 -0.0820 -1.2263  3.9702
  821MOL0     H10784  10.180   5.262   9.814  1.0025 -0.9932  0.1411
  821MOL0     H10785  10.201   5.220   9.993 -1.2164 -0.0849  0.7552
  821MOL0     H10786   9.969   5.420  10.114 -1.1716  0.4262 -0.1189
  821MOL0     H10787   9.971   5.645  10.222  2.1442 -0.7413 -0.1139
  821MOL0     H10788  10.108   5.762  10.153  0.5110  0.3247 -1.7805
  821MOL0     H10789   9.832   5.720  10.039 -0.0253 -1.0297  2.1322
  821MOL0     H10790   9.955   5.827   9.972  0.3643 -0.7732  0.0940
  821MOL0     H10791   9.804   5.864  10.237  0.9883  2.6245  1.1712
  821MOL0     H10792   9.768   5.935  10.077 -0.8969 -0.5492 -0.4147
  821MOL0     H10793  10.010   6.020  10.077  1.0529 -1.3749  0.8707
  821MOL0     H10794  10.002   5.989  10.253  0.1231 -0.6999 -0.1232
  821MOL0     H10795   9.830   6.367  10.247  4.6121 -1.4161 -0.6479
  821MOL0     H10796   9.782   6.597  10.227 -2.0662  0.2362 -1.2273
  821MOL0     H10797   9.908   6.652  10.121  1.2574 -1.6009 -0.9096
  821MOL0     H10798   9.728   6.636  10.067 -0.1559  1.1150  0.0423
  821MOL0     H10799   9.681   6.772   9.723 -0.2146 -0.4396 -1.9949
  821MOL0     H10800   9.700   6.950   9.549 -1.7051 -1.7556  0.6009
  821MOL0     H10801   9.791   7.183   9.574 -0.8659  1.2469 -2.7133
  821MOL0     H10802   9.965   7.228   9.570  2.0288  1.0360 -2.3916
  821MOL0     H10803   9.831   7.365   9.419  0.0377 -0.0789  2.7940
  821MOL0     H10804   9.956   7.262   9.336  0.4200  0.8457  2.2647
  821MOL0     H10805   9.651   7.231   9.335  0.4790 -1.0653 -0.5302
  821MOL0     H10806   9.760   7.098   9.298 -0.3902 -0.4343 -3.3081
  821MOL0     H10807   9.767   7.383   9.162 -2.1403  0.2807 -2.6459
  821MOL0     H10808   9.867   7.244   9.116 -0.2167 -0.0371 -0.8732
  821MOL0     H10809   9.565   7.261   9.115 -0.3918 -0.9896 -0.6769
  821MOL0     H10810   9.655   7.136   9.036 -5.4282 -0.6788  1.2609
  821MOL0     H10811   9.595   7.416   8.954  1.1901  1.9390  0.6552
  821MOL0     H10812   9.755   7.340   8.901  0.4582  0.6309  2.5939
  821MOL0     H10813   9.471   7.209   8.880  0.6024  0.6738  0.9193
  821MOL0     H10814   9.623   7.155   8.806  1.0063  0.7358 -0.2598
  821MOL0     H10815   9.521   7.261   8.628 -2.2312  2.0173 -0.3343
  821MOL0     H10816   9.642   7.380   8.692 -1.4294  4.0598  0.4667
  821MOL0     H10817  10.127   6.956   9.618 -0.2350  0.0494 -0.3628
  821MOL0     H10818  10.107   6.796   9.802  0.1867 -1.9641 -1.0360
  821MOL0     H10819   9.837   6.296   9.762  0.0459 -0.7179 -0.6409
  821MOL0     H10820   9.849   6.104   9.904  4.1943  0.1645 -0.3687
  821MOL0     H10821   9.478   5.101   9.323  1.0577  0.5859  0.0077
  821MOL0     H10822   9.316   5.071   9.125  0.7049  0.5125 -0.5841
  821MOL0     H10823   9.129   5.003   8.831 -0.1700 -1.0421  0.2200
  821MOL0     H10824   8.937   4.922   8.692 -1.0036 -1.7663 -0.7781
  821MOL0     H10825   8.826   4.759   8.591 -2.6527  1.0786 -0.3427
  821MOL0     H10826   8.825   4.900   8.483  0.4810  0.1085 -1.5987
  821MOL0     H10827   8.836   4.609   8.381  2.0398  1.4969  1.7165
  821MOL0     H10828   8.775   4.745   8.298 -0.2334  3.3205  0.9605
  821MOL0     H10829   8.623   4.643   8.544  2.3669  0.5663 -0.0169
  821MOL0     H10830   8.594   4.602   8.365 -0.6466  1.2573 -0.9229
  821MOL0     H10831   8.551   4.838   8.323  2.1415 -0.5045 -0.2620
  821MOL0     H10832   8.611   4.875   8.486 -1.7869  2.1509 -0.8180
  821MOL0     H10833   8.215   4.813   8.578  0.5219 -1.8362  4.6929
  821MOL0     H10834   9.230   4.775   8.402  1.1644 -0.8276  1.1461
  821MOL0     H10835   9.413   4.881   8.518 -0.0489 -1.5083  0.1526
  822MOL0     O10836   6.879   6.078   9.067  0.0885  0.0929 -0.0031
  822MOL0     C10837   6.960   6.066   8.974 -0.3443 -1.1295 -1.1992
  822MOL0     O10838   6.937   6.013   8.859  0.1928  0.6879  0.0296
  822MOL0     C10839   6.812   5.974   8.820 -0.2274  0.4846 -0.5287
  822MOL0     C10840   6.812   5.862   8.732  1.0398 -0.5555  1.1959
  822MOL0     C10841   6.694   5.798   8.695  0.8995  0.1310  0.1008
  822MOL0     C10842   6.579   5.864   8.724  0.1982 -0.5413 -0.0959
  822MOL0     O10843   6.461   5.797   8.681  1.7699  0.2964 -0.7292
  822MOL0     C10844   6.330   5.859   8.663  0.1525 -0.1026 -0.2298
  822MOL0     C10845   6.234   5.765   8.594 -0.3433  0.5203  0.1330
  822MOL0     C10846   6.109   5.834   8.538  0.1129  0.3130 -0.0907
  822MOL0     C10847   5.995   5.856   8.636  0.4084 -0.2251 -0.5633
  822MOL0     C10848   6.015   5.963   8.745 -0.7578 -0.4729  0.2491
  822MOL0     C10849   5.899   6.006   8.813  0.8160 -0.3254  1.3076
  822MOL0     C10850   5.804   6.076   8.721 -1.0381  0.4134 -0.2759
  822MOL0     C10851   5.713   6.168   8.792  0.0108  0.8488 -0.5288
  822MOL0     N10852   5.621   6.091   8.881  0.1814 -0.5592  0.3288
  822MOL0     C10853   5.510   6.022   8.835  0.7534  0.2959  0.5199
  822MOL0     C10854   5.451   5.998   8.961  0.6195  0.4858  1.1169
  822MOL0     C10855   5.316   5.933   8.988 -0.0598  0.0519  0.3819
  822MOL0     C10856   5.309   5.787   9.037 -0.2893 -0.2926  0.4447
  822MOL0     C10857   5.436   5.699   8.997  0.8750 -0.4095  0.3226
  822MOL0     C10858   5.441   5.681   8.843  0.8967 -0.0278 -0.0622
  822MOL0     O10859   5.494   5.556   8.812 -0.3920  0.5933  0.3831
  822MOL0     C10860   5.428   5.441   8.836  0.0782  0.9592 -1.2657
  822MOL0     C10861   5.294   5.432   8.881 -0.0320  0.2969 -1.0800
  822MOL0     C10862   5.218   5.320   8.878  0.1664  0.5029 -0.6722
  822MOL0     C10863   5.073   5.344   8.929  0.2475 -0.9948 -0.4191
  822MOL0     C10864   5.283   5.193   8.850  1.1684 -0.0179 -0.0525
  822MOL0     C10865   5.210   5.062   8.841 -0.4418 -0.0976 -0.1104
  822MOL0     O10866   5.075   5.067   8.833  0.3717  0.7037 -0.0142
  822MOL0     C10867   5.011   4.948   8.791  0.3501  0.2424 -0.3354
  822MOL0     C10868   4.971   4.856   8.882 -0.4216  0.0765 -0.1068
  822MOL0     C10869   4.881   4.756   8.856 -0.9768  0.5672  0.0660
  822MOL0     C10870   4.833   4.741   8.724 -0.4001  0.2083 -0.3665
  822MOL0     O10871   4.738   4.647   8.703  0.1148  0.3201  0.5176
  822MOL0     C10872   4.787   4.519   8.682 -0.1950  0.5110 -0.1468
  822MOL0     C10873   4.685   4.419   8.654 -0.1223  0.0907  0.9344
  822MOL0     C10874   4.738   4.286   8.596  0.3350 -0.2036 -0.9924
  822MOL0     C10875   4.792   4.191   8.721 -0.6345  0.2022  0.5516
  822MOL0     C10876   4.838   4.053   8.660 -0.0781  0.2159  0.0202
  822MOL0     C10877   4.827   3.927   8.757  0.0324  0.3476  0.2880
  822MOL0     C10878   4.951   3.904   8.844  1.1253 -0.0269  0.1396
  822MOL0     C10879   4.909   3.814   8.949  0.8584  0.1154 -0.8379
  822MOL0    Cl10880   4.887   3.652   8.886  0.6103 -0.0562  0.0639
  822MOL0     C10881   4.874   4.834   8.626 -0.1449 -0.3096  0.5749
  822MOL0     C10882   4.960   4.937   8.654 -0.3389 -0.1963 -0.2068
  822MOL0     O10883   5.275   4.963   8.842 -0.4985  0.4631  0.3087
  822MOL0     C10884   5.416   5.198   8.809 -0.9217 -0.6095  0.3707
  822MOL0     C10885   5.487   5.316   8.804  0.0713  0.3047 -0.3918
  822MOL0     N10886   5.526   6.031   9.066 -0.1952 -0.0085  0.2895
  822MOL0     N10887   5.633   6.086   9.023  0.8208 -0.4400  0.7134
  822MOL0     C10888   6.572   5.986   8.791 -0.1649 -0.3535 -0.2728
  822MOL0     C10889   6.688   6.032   8.858  0.1771  0.5544 -0.0771
  822MOL0     C10890   7.095   6.128   8.994  0.0064 -0.2298 -0.8817
  822MOL0     C10891   7.134   6.147   9.126 -0.0932  0.1247 -0.1210
  822MOL0     C10892   7.264   6.206   9.151 -0.0939 -0.4090 -0.2999
  822MOL0     C10893   7.343   6.250   9.050  0.0383  0.0207 -0.5061
  822MOL0     O10894   7.458   6.312   9.083 -0.4355  0.2410  0.1876
  822MOL0     C10895   7.467   6.447   9.037 -0.3168 -0.3559 -0.0839
  822MOL0     C10896   7.345   6.530   9.088  0.3962 -0.2718 -0.4697
  822MOL0     C10897   7.389   6.682   9.085  0.2735  0.1073 -0.3935
  822MOL0     C10898   7.283   6.784   9.143  0.0412  0.7581  0.0995
  822MOL0     C10899   7.346   6.902   9.214  0.1813 -0.2359 -0.1059
  822MOL0     C10900   7.397   7.006   9.266 -0.2730 -1.1411  0.2877
  822MOL0     C10901   7.301   6.233   8.919 -0.0274 -0.3822 -0.0360
  822MOL0     C10902   7.181   6.173   8.888  0.1624 -0.4920  1.0579
  822MOL0     H10903   6.901   5.820   8.687 -1.6172 -2.0150 -3.3684
  822MOL0     H10904   6.708   5.709   8.635  2.4785  0.9782 -0.8650
  822MOL0     H10905   6.291   5.878   8.763  1.7230 -1.5937  0.7191
  822MOL0     H10906   6.335   5.952   8.605 -0.3033 -0.5033 -0.9373
  822MOL0     H10907   6.292   5.706   8.523  1.4892  1.3311  0.9035
  822MOL0     H10908   6.197   5.697   8.671  0.2917  1.0344  0.9126
  822MOL0     H10909   6.139   5.938   8.518  0.0332  0.6895  1.6265
  822MOL0     H10910   6.071   5.800   8.441 -1.1454  2.2478 -0.3340
  822MOL0     H10911   5.908   5.873   8.571  1.0743 -0.8906 -1.6631
  822MOL0     H10912   5.966   5.768   8.695  3.5406 -0.1753  1.2144
  822MOL0     H10913   6.078   5.918   8.822  2.4687  1.3420 -1.1208
  822MOL0     H10914   6.076   6.045   8.706  1.9528 -2.6119 -0.3196
  822MOL0     H10915   5.844   5.926   8.863  1.3150  0.4980  3.2911
  822MOL0     H10916   5.922   6.080   8.891 -5.6381  2.3398  1.3576
  822MOL0     H10917   5.867   6.137   8.656  0.5239  2.3395  2.7857
  822MOL0     H10918   5.753   5.998   8.665  0.8023 -1.6816  0.7877
  822MOL0     H10919   5.676   6.226   8.707 -2.3065  0.1487 -0.0622
  822MOL0     H10920   5.770   6.230   8.861 -0.5448 -0.3272  1.0399
  822MOL0     H10921   5.478   6.014   8.732 -0.0937  1.7720  0.6432
  822MOL0     H10922   5.262   5.986   9.068 -0.2362  1.2877 -0.5216
  822MOL0     H10923   5.260   5.932   8.894 -1.0901 -4.1894  0.8582
  822MOL0     H10924   5.216   5.743   9.000  0.5590 -2.2493  0.4760
  822MOL0     H10925   5.317   5.786   9.147  2.7425 -0.0405  0.3165
  822MOL0     H10926   5.434   5.596   9.034 -1.9104 -1.3776 -2.1505
  822MOL0     H10927   5.530   5.745   9.031  1.9687 -0.3430 -2.5301
  822MOL0     H10928   5.504   5.757   8.798  0.3830 -0.6457 -1.9006
  822MOL0     H10929   5.344   5.690   8.793  0.1672 -2.3819  0.7445
  822MOL0     H10930   5.236   5.522   8.900 -0.7574 -0.0766 -1.4660
  822MOL0     H10931   5.011   5.257   8.952 -1.2620  0.0890 -0.2688
  822MOL0     H10932   5.079   5.393   9.027  2.6466  2.8543 -2.2198
  822MOL0     H10933   5.022   5.408   8.856 -1.2760  0.4054  1.7615
  822MOL0     H10934   4.992   4.863   8.988  2.4268 -2.6966 -0.3337
  822MOL0     H10935   4.830   4.704   8.936 -1.4063  2.0790  0.8245
  822MOL0     H10936   4.848   4.504   8.592 -2.9801 -2.5679 -1.7171
  822MOL0     H10937   4.856   4.488   8.761  0.8540  0.9989 -0.8332
  822MOL0     H10938   4.627   4.398   8.744  0.8265 -0.3051  1.4592
  822MOL0     H10939   4.617   4.466   8.581 -3.4607 -3.1345  1.6249
  822MOL0     H10940   4.824   4.297   8.529  0.0796 -0.9508 -1.4638
  822MOL0     H10941   4.663   4.230   8.538 -1.7198 -0.8435  2.0730
  822MOL0     H10942   4.883   4.222   8.773  1.9183 -3.0738 -1.5727
  822MOL0     H10943   4.706   4.186   8.787 -0.6734 -1.6165  0.4128
  822MOL0     H10944   4.938   4.065   8.617 -0.0721 -0.5777 -0.2019
  822MOL0     H10945   4.780   4.018   8.573  0.4061 -1.5790  0.3941
  822MOL0     H10946   4.736   3.941   8.816  0.3262  0.3866  0.7344
  822MOL0     H10947   4.817   3.837   8.696  1.3161  1.4673 -1.6829
  822MOL0     H10948   4.980   3.997   8.895  4.3874 -1.9379  2.1389
  822MOL0     H10949   5.039   3.879   8.784  1.5593  0.9909  0.3220
  822MOL0     H10950   4.815   3.853   8.989  2.4264  1.8558  1.4192
  822MOL0     H10951   4.971   3.807   9.039 -0.6640 -2.1287  0.1201
  822MOL0     H10952   4.829   4.836   8.527 -1.4046  2.1634  1.1342
  822MOL0     H10953   4.976   5.026   8.593 -2.8030  1.2578  1.1118
  822MOL0     H10954   5.467   5.120   8.755 -2.1284  0.3856 -2.4104
  822MOL0     H10955   5.591   5.330   8.777 -0.1120  1.1628 -0.6742
  822MOL0     H10956   6.477   6.036   8.812 -0.4867 -2.1125  3.1309
  822MOL0     H10957   6.670   6.123   8.914 -0.5001  0.1524  0.3837
  822MOL0     H10958   7.079   6.130   9.218  1.6343 -1.1347  0.7334
  822MOL0     H10959   7.302   6.220   9.252 -0.3603 -0.7707 -0.1459
  822MOL0     H10960   7.562   6.488   9.074  1.5520 -2.5135 -2.1126
  822MOL0     H10961   7.473   6.447   8.928 -3.8411  2.5980 -0.4485
  822MOL0     H10962   7.324   6.496   9.189  4.5586 -0.2336  0.6149
  822MOL0     H10963   7.265   6.527   9.014 -0.5679 -1.6360  0.5863
  822MOL0     H10964   7.397   6.704   8.978  0.2568  2.2369  0.0056
  822MOL0     H10965   7.477   6.709   9.144 -0.9366  0.3496  1.3570
  822MOL0     H10966   7.248   6.728   9.230  1.0132  0.6176  0.4210
  822MOL0     H10967   7.204   6.808   9.072  0.9684  2.0212 -0.5545
  822MOL0     H10968   7.424   7.103   9.300 -3.3827 -0.0078 -0.1430
  822MOL0     H10969   7.364   6.273   8.840 -0.2141  1.4035  0.6651
  822MOL0     H10970   7.139   6.173   8.788  1.1285 -1.1336  0.6287
  823MOL0     O10971   9.409  10.645   7.056  0.2290 -0.5357 -0.0161
  823MOL0     C10972   9.499  10.569   7.064  0.6291 -0.1001 -0.8807
  823MOL0     O10973   9.589  10.556   7.163  0.9100  0.0954 -0.0055
  823MOL0     C10974   9.584  10.635   7.276 -0.4419 -1.0466 -0.2878
  823MOL0     C10975   9.721  10.678   7.305  0.4428 -0.6930  0.7871
  823MOL0     C10976   9.744  10.759   7.415 -0.1459  0.3620 -0.8198
  823MOL0     C10977   9.642  10.789   7.505 -0.9133 -0.4747 -0.4165
  823MOL0     O10978   9.689  10.873   7.608  0.4982 -0.5944  0.3179
  823MOL0     C10979   9.601  10.883   7.726 -0.3169  0.2764 -0.0341
  823MOL0     C10980   9.694  10.917   7.836  1.0579 -0.5266 -0.5351
  823MOL0     C10981   9.631  10.883   7.983  0.6522  0.1225  0.0625
  823MOL0     C10982   9.561  10.992   8.058  0.6230 -0.3185 -0.7550
  823MOL0     C10983   9.424  11.033   7.996  0.3158  0.6218 -0.1249
  823MOL0     C10984   9.359  11.147   8.068 -0.3763 -0.4821  0.0181
  823MOL0     C10985   9.224  11.170   8.009 -0.3090  0.1398 -0.6116
  823MOL0     C10986   9.157  11.302   8.027 -0.1163  0.6441  0.1119
  823MOL0     N10987   9.137  11.310   8.176  0.6109 -0.4350 -0.1182
  823MOL0     C10988   9.226  11.354   8.274 -0.0604  0.1156 -0.0451
  823MOL0     C10989   9.154  11.358   8.388  0.4255  1.1776  0.2049
  823MOL0     C10990   9.213  11.387   8.527 -0.6440 -0.0654 -0.6084
  823MOL0     C10991   9.286  11.518   8.527 -0.2811  0.2512 -0.4762
  823MOL0     C10992   9.415  11.526   8.611 -0.5854  0.5837  0.2197
  823MOL0     C10993   9.531  11.444   8.538 -0.0972 -0.1270 -0.7254
  823MOL0     O10994   9.542  11.469   8.400 -0.2378  1.2271  0.0251
  823MOL0     C10995   9.647  11.423   8.325 -0.2865 -1.0938 -0.4010
  823MOL0     C10996   9.621  11.416   8.191 -0.3074 -0.6914 -0.6290
  823MOL0     C10997   9.710  11.367   8.098  1.0136 -0.0291  0.2466
  823MOL0     C10998   9.672  11.384   7.952 -0.4695 -0.3655  1.1391
  823MOL0     C10999   9.829  11.298   8.138  0.1159 -0.2278 -0.5454
  823MOL0     C11000   9.917  11.229   8.050  0.1733  0.2508 -0.3893
  823MOL0     O11001  10.028  11.169   8.105  0.0904  0.4567  0.9066
  823MOL0     C11002  10.116  11.114   8.023 -0.0731  0.4290 -0.2453
  823MOL0     C11003  10.240  11.171   8.006  1.1834  0.5060  0.0992
  823MOL0     C11004  10.336  11.112   7.922  0.5650 -0.5113 -0.0755
  823MOL0     C11005  10.301  10.996   7.852  0.1230 -0.3705 -0.2375
  823MOL0     O11006  10.385  10.930   7.768 -0.2531 -0.2048  0.0724
  823MOL0     C11007  10.479  10.997   7.700  0.3928 -0.6436  0.9361
  823MOL0     C11008  10.620  10.992   7.767  0.2176  0.4719  0.2440
  823MOL0     C11009  10.714  10.879   7.724 -0.0543  0.5774 -0.9258
  823MOL0     C11010  10.863  10.900   7.784  0.9808  0.1448 -0.3664
  823MOL0     C11011  10.951  11.003   7.719 -0.2804 -0.0898 -0.6732
  823MOL0     C11012  11.086  11.003   7.799  0.1658  1.3779  0.0208
  823MOL0     C11013  11.197  11.085   7.732 -0.9436 -0.3056 -0.1640
  823MOL0     C11014  11.312  11.085   7.830  0.8751  0.1346 -0.1079
  823MOL0    Cl11015  11.395  10.923   7.859 -0.1029 -0.6333  0.4296
  823MOL0     C11016  10.176  10.936   7.866  1.3014 -0.1221 -0.7623
  823MOL0     C11017  10.083  10.999   7.956 -0.5098 -0.5665 -1.0925
  823MOL0     O11018   9.877  11.210   7.943  0.2240  0.0762  0.2758
  823MOL0     C11019   9.864  11.307   8.280 -0.7519  0.7256 -0.2867
  823MOL0     C11020   9.773  11.372   8.368 -0.4071  0.7545 -1.7740
  823MOL0     N11021   9.025  11.315   8.359 -0.4788 -1.0501 -0.4927
  823MOL0     N11022   9.019  11.280   8.234 -0.6863  0.6444  0.1988
  823MOL0     C11023   9.506  10.750   7.475 -0.1707  0.6082  0.1990
  823MOL0     C11024   9.480  10.678   7.353 -0.0659  0.3472  0.2722
  823MOL0     C11025   9.505  10.453   6.983  0.0031  0.9961  0.1671
  823MOL0     C11026   9.389  10.406   6.916 -0.8826 -0.4775 -0.8775
  823MOL0     C11027   9.393  10.303   6.827 -0.1783  0.7997 -0.4113
  823MOL0     C11028   9.513  10.239   6.796 -0.6774  0.3826 -0.1330
  823MOL0     O11029   9.527  10.122   6.727  0.9726 -0.3583 -0.0357
  823MOL0     C11030   9.404  10.056   6.686  0.3797  0.1341  1.1317
  823MOL0     C11031   9.366  10.089   6.540 -0.1243  1.4812 -0.9257
  823MOL0     C11032   9.244  10.004   6.500 -0.0834  0.4947 -0.4021
  823MOL0     C11033   9.223  10.009   6.348  0.5505  0.2380  0.1151
  823MOL0     C11034   9.148  10.129   6.308  0.1869 -0.6920 -0.2719
  823MOL0     C11035   9.077  10.206   6.249  0.0291  0.8054  0.1108
  823MOL0     C11036   9.633  10.286   6.859 -0.0260 -1.1808  0.1281
  823MOL0     C11037   9.624  10.392   6.949 -0.3380  0.9352  0.7992
  823MOL0     H11038   9.803  10.658   7.237  0.0185  0.4426 -0.0961
  823MOL0     H11039   9.842  10.791   7.449 -1.5970  1.4813  2.7046
  823MOL0     H11040   9.525  10.960   7.714  0.4381  1.1178  0.4499
  823MOL0     H11041   9.546  10.789   7.739 -2.0795  0.7819 -2.9180
  823MOL0     H11042   9.797  10.882   7.821  0.2880 -2.4352 -1.8340
  823MOL0     H11043   9.704  11.025   7.840 -0.2931 -0.4105  0.2190
  823MOL0     H11044   9.548  10.814   7.962 -0.3828  0.8258  1.6316
  823MOL0     H11045   9.704  10.841   8.054 -1.8754 -0.0722  2.7321
  823MOL0     H11046   9.559  10.952   8.160  0.8394  0.7432 -0.3118
  823MOL0     H11047   9.628  11.078   8.052 -0.1334  0.2937 -0.6559
  823MOL0     H11048   9.445  11.056   7.891  0.2388 -3.1880 -1.1169
  823MOL0     H11049   9.362  10.944   8.006  1.5230 -0.1338  0.9379
  823MOL0     H11050   9.342  11.139   8.176  0.9177  0.2821  0.2898
  823MOL0     H11051   9.419  11.237   8.056 -1.0166 -0.3855 -3.9454
  823MOL0     H11052   9.234  11.152   7.902  0.4905  0.3584 -0.5822
  823MOL0     H11053   9.156  11.097   8.055  0.4744  0.4590  1.1339
  823MOL0     H11054   9.062  11.298   7.973 -0.9310  1.3755  1.4324
  823MOL0     H11055   9.222  11.386   8.003 -1.6590  0.9982 -3.4988
  823MOL0     H11056   9.332  11.377   8.272  0.3284 -1.3616  1.3415
  823MOL0     H11057   9.131  11.381   8.599 -1.8014 -2.0800 -1.9769
  823MOL0     H11058   9.288  11.310   8.548  1.1516  1.5159 -0.9037
  823MOL0     H11059   9.214  11.587   8.571  1.1890  1.2055  0.5376
  823MOL0     H11060   9.304  11.555   8.426  0.5192 -0.9023 -0.7767
  823MOL0     H11061   9.405  11.493   8.714  1.4202 -0.9478 -0.0197
  823MOL0     H11062   9.454  11.628   8.613 -0.0084  0.4955 -2.5903
  823MOL0     H11063   9.512  11.336   8.549  2.1369 -0.4599  0.3730
  823MOL0     H11064   9.629  11.453   8.586  0.3542 -2.8380 -0.9508
  823MOL0     H11065   9.531  11.472   8.165  0.7153  1.4676  0.2440
  823MOL0     H11066   9.582  11.447   7.948 -1.9674 -2.4476 -1.3113
  823MOL0     H11067   9.753  11.435   7.899 -1.1893  0.4455  0.7852
  823MOL0     H11068   9.639  11.293   7.902  0.5390  0.7794 -1.8436
  823MOL0     H11069  10.252  11.250   8.079 -1.7055  0.7141  0.4270
  823MOL0     H11070  10.435  11.155   7.916  0.4163 -0.0777  0.4748
  823MOL0     H11071  10.495  10.949   7.603 -0.7860  1.1928 -0.2263
  823MOL0     H11072  10.453  11.101   7.679  1.3454 -0.9495 -2.1792
  823MOL0     H11073  10.662  11.092   7.758  0.4545  0.5440  1.8104
  823MOL0     H11074  10.612  10.984   7.876  3.4305 -0.3463  0.5195
  823MOL0     H11075  10.719  10.886   7.615 -0.8348  3.0630 -0.8605
  823MOL0     H11076  10.679  10.779   7.750  0.8567  0.1160 -1.4063
  823MOL0     H11077  10.851  10.921   7.890 -0.5414  0.5155 -0.5862
  823MOL0     H11078  10.916  10.805   7.774  1.1255  0.1024  0.7077
  823MOL0     H11079  10.918  11.107   7.727 -1.8318 -0.6446  1.2056
  823MOL0     H11080  10.973  10.969   7.618  4.6660 -2.0797  0.8030
  823MOL0     H11081  11.055  11.045   7.896 -4.3918  1.1613 -1.1282
  823MOL0     H11082  11.136  10.906   7.805  1.0210  1.4478 -3.6531
  823MOL0     H11083  11.163  11.186   7.707 -0.2739 -0.0688 -0.1399
  823MOL0     H11084  11.237  11.045   7.638  1.4801 -2.2099  1.5387
  823MOL0     H11085  11.281  11.129   7.925 -0.9005 -0.9149 -0.1506
  823MOL0     H11086  11.393  11.147   7.792  0.4528  0.1789 -0.9455
  823MOL0     H11087  10.146  10.850   7.807 -0.3880 -1.8401  2.3756
  823MOL0     H11088   9.985  10.964   7.986 -0.4261 -0.9148 -1.2188
  823MOL0     H11089   9.955  11.273   8.328 -0.5172  4.9844  2.8632
  823MOL0     H11090   9.792  11.377   8.475 -2.2369  2.5739 -1.4669
  823MOL0     H11091   9.431  10.781   7.547  0.0236  0.4905  0.4545
  823MOL0     H11092   9.383  10.646   7.316  0.1291 -1.1060  0.9482
  823MOL0     H11093   9.293  10.448   6.947 -0.3706 -0.6002  1.0101
  823MOL0     H11094   9.300  10.271   6.781 -1.7635  0.0395  2.9424
  823MOL0     H11095   9.428   9.949   6.691 -0.8831 -0.2467 -0.1406
  823MOL0     H11096   9.320  10.080   6.751 -0.1514  0.9953  0.1538
  823MOL0     H11097   9.453  10.050   6.487 -1.2253 -2.6459 -0.0457
  823MOL0     H11098   9.357  10.196   6.519 -1.1338  1.9999  1.7862
  823MOL0     H11099   9.152  10.026   6.555 -2.3759 -2.4403 -2.7486
  823MOL0     H11100   9.272   9.902   6.525  1.5583  1.2823  1.2199
  823MOL0     H11101   9.161   9.924   6.318 -0.0615  0.9148 -0.6104
  823MOL0     H11102   9.322  10.009   6.301  0.9205  0.9862  0.8710
  823MOL0     H11103   9.021  10.277   6.191  0.7171  0.8950 -0.4656
  823MOL0     H11104   9.725  10.236   6.829  0.1131 -2.7891  2.9488
  823MOL0     H11105   9.714  10.442   6.986  0.2705 -0.1744  0.8578
  824MOL0     O11106   3.350   4.676   7.000 -0.1723  0.4315  0.2409
  824MOL0     C11107   3.354   4.562   6.959 -0.4468 -0.0539 -0.1514
  824MOL0     O11108   3.251   4.509   6.880 -0.1841  0.1024 -0.0678
  824MOL0     C11109   3.167   4.597   6.830  0.7027 -0.3794  0.0575
  824MOL0     C11110   3.053   4.638   6.907 -0.1881 -1.0698  0.0301
  824MOL0     C11111   2.960   4.719   6.843 -0.2760 -0.2110  0.8381
  824MOL0     C11112   2.970   4.764   6.707 -0.1983 -0.5844  1.3198
  824MOL0     O11113   2.882   4.854   6.655 -0.4925 -0.1297  0.1909
  824MOL0     C11114   2.747   4.835   6.680  0.1292  0.3608  0.1912
  824MOL0     C11115   2.686   4.813   6.537 -0.5869  0.2814 -0.9137
  824MOL0     C11116   2.544   4.776   6.548  0.1214  0.8399  0.0221
  824MOL0     C11117   2.464   4.905   6.526 -0.4802  0.2588  0.1302
  824MOL0     C11118   2.322   4.886   6.481  1.0950 -0.6067 -0.4894
  824MOL0     C11119   2.298   4.779   6.368 -0.0526  0.1747 -0.4871
  824MOL0     C11120   2.148   4.787   6.328 -0.5777  0.8492 -0.2592
  824MOL0     C11121   2.140   4.689   6.217  0.1526 -0.2649  0.1378
  824MOL0     N11122   2.002   4.667   6.186  1.0927  0.1318 -1.1039
  824MOL0     C11123   1.906   4.589   6.255 -0.2883 -0.9509 -0.3409
  824MOL0     C11124   1.791   4.625   6.194  0.0046  0.1956 -0.2612
  824MOL0     C11125   1.648   4.585   6.226 -0.2507 -0.3021 -1.1132
  824MOL0     C11126   1.608   4.687   6.338 -0.7613 -0.1621 -1.0294
  824MOL0     C11127   1.455   4.658   6.372  0.0666 -0.2909 -0.1397
  824MOL0     C11128   1.426   4.693   6.518 -0.5259 -0.4298  0.6708
  824MOL0     O11129   1.503   4.606   6.601  0.3244 -0.1083 -0.6910
  824MOL0     C11130   1.435   4.536   6.703  0.2685 -0.6090  0.4633
  824MOL0     C11131   1.518   4.440   6.763  0.6506  0.1311  1.1445
  824MOL0     C11132   1.460   4.345   6.845  0.6464  0.3766 -0.0227
  824MOL0     C11133   1.540   4.238   6.901 -0.0702  1.2265 -0.0875
  824MOL0     C11134   1.326   4.353   6.878 -0.4218 -0.9443 -0.5813
  824MOL0     C11135   1.260   4.249   6.960  0.2118  0.1297  0.6018
  824MOL0     O11136   1.162   4.189   6.900 -0.2433  0.1282  0.1458
  824MOL0     C11137   1.126   4.062   6.939  0.9187  0.8347  0.7327
  824MOL0     C11138   0.993   4.026   6.906 -0.1689  0.6738 -0.9436
  824MOL0     C11139   0.950   3.899   6.943 -0.7112 -0.0199  0.5200
  824MOL0     C11140   1.027   3.807   7.013  0.1432 -0.0787 -0.9229
  824MOL0     O11141   0.980   3.683   7.044  0.0576  0.1835 -0.2886
  824MOL0     C11142   0.843   3.652   7.021  0.4105  0.1776  0.0978
  824MOL0     C11143   0.753   3.726   7.124  0.7789 -0.5249  0.3380
  824MOL0     C11144   0.604   3.675   7.130  0.3356 -0.0838 -0.3878
  824MOL0     C11145   0.522   3.753   7.230  0.2070  0.1927  0.3238
  824MOL0     C11146   0.373   3.715   7.222  0.4942  0.6899  0.6903
  824MOL0     C11147   0.325   3.693   7.356 -0.3044  0.6949  0.6375
  824MOL0     C11148   0.173   3.690   7.345 -0.4909  0.6286  1.2941
  824MOL0     C11149   0.097   3.696   7.473 -0.1633 -0.0495 -0.9808
  824MOL0    Cl11150   0.146   3.586   7.611  0.0609  0.0644 -0.2169
  824MOL0     C11151   1.163   3.841   7.044  0.0856  0.0997  0.4142
  824MOL0     C11152   1.210   3.963   6.996 -0.3459 -1.0450  0.0502
  824MOL0     O11153   1.312   4.220   7.066 -0.0104 -0.1604 -0.5449
  824MOL0     C11154   1.246   4.451   6.819  0.2383  0.1128 -0.3578
  824MOL0     C11155   1.295   4.540   6.727 -0.2727 -0.2136 -0.9243
  824MOL0     N11156   1.821   4.704   6.086 -0.1027 -0.3114 -0.0706
  824MOL0     N11157   1.947   4.719   6.073  0.5503 -0.3424  0.1604
  824MOL0     C11158   3.088   4.721   6.642  0.5702 -0.2772 -0.1806
  824MOL0     C11159   3.187   4.646   6.702 -0.0797 -1.0167  0.4002
  824MOL0     C11160   3.461   4.488   7.022 -1.0603  0.2701  0.1391
  824MOL0     C11161   3.520   4.525   7.147  0.3897 -0.3514  0.6557
  824MOL0     C11162   3.614   4.439   7.198  0.3107  0.0704  0.0379
  824MOL0     C11163   3.649   4.321   7.140 -0.2214 -0.3489 -0.1659
  824MOL0     O11164   3.751   4.262   7.197  0.3035  0.4193 -0.2403
  824MOL0     C11165   3.822   4.172   7.114  0.3357 -0.3014  0.2543
  824MOL0     C11166   3.953   4.152   7.190  0.3566  1.1552  0.2811
  824MOL0     C11167   3.943   4.053   7.309  0.2746  0.4169  0.2526
  824MOL0     C11168   4.079   3.992   7.345 -0.1287  0.0479  0.4767
  824MOL0     C11169   4.180   4.099   7.367  0.2425  1.0508  0.1831
  824MOL0     C11170   4.261   4.171   7.417 -0.6271 -0.6590 -0.1871
  824MOL0     C11171   3.584   4.276   7.031 -0.5384 -0.2786 -0.4764
  824MOL0     C11172   3.496   4.358   6.969  0.6131  0.4912 -0.8357
  824MOL0     H11173   3.026   4.608   7.008 -3.2023  1.3230  0.0695
  824MOL0     H11174   2.878   4.755   6.903 -0.9966  0.9012 -0.7428
  824MOL0     H11175   2.723   4.758   6.754 -0.6627  1.6049  1.2668
  824MOL0     H11176   2.702   4.926   6.720 -4.0061 -2.3643  2.5178
  824MOL0     H11177   2.710   4.902   6.479 -1.1589  1.7927  1.0866
  824MOL0     H11178   2.738   4.728   6.492  0.4562  0.1477  0.4868
  824MOL0     H11179   2.523   4.714   6.460  1.6565  0.1954  0.0671
  824MOL0     H11180   2.524   4.721   6.640  3.1784  2.0566  1.5643
  824MOL0     H11181   2.456   4.965   6.616 -2.0432  0.9322 -0.4312
  824MOL0     H11182   2.506   4.972   6.451 -3.7679  3.7229  1.0400
  824MOL0     H11183   2.258   4.855   6.564 -1.0780 -2.1693 -2.6102
  824MOL0     H11184   2.294   4.985   6.443 -0.5701 -1.2791 -1.1008
  824MOL0     H11185   2.364   4.794   6.281  1.3788 -0.5286  0.4348
  824MOL0     H11186   2.326   4.682   6.410  2.5646  1.2729  0.5647
  824MOL0     H11187   2.100   4.738   6.413  2.1586  1.8485  2.0471
  824MOL0     H11188   2.106   4.887   6.315 -3.4126 -0.4456 -2.0065
  824MOL0     H11189   2.196   4.596   6.233 -0.9774 -0.6978  1.8930
  824MOL0     H11190   2.190   4.735   6.131 -1.2816  2.2495  0.5535
  824MOL0     H11191   1.921   4.518   6.336 -0.4192  2.9105  3.3925
  824MOL0     H11192   1.575   4.595   6.145  1.0257  1.3408 -2.1307
  824MOL0     H11193   1.653   4.482   6.262  0.9279  0.0938 -0.0914
  824MOL0     H11194   1.620   4.789   6.301  0.5052 -0.1595 -0.6466
  824MOL0     H11195   1.670   4.675   6.427  0.0436  2.1334 -1.2059
  824MOL0     H11196   1.421   4.555   6.358  1.1974 -1.0026  1.9810
  824MOL0     H11197   1.394   4.725   6.311  0.9337 -0.1170 -0.8401
  824MOL0     H11198   1.318   4.686   6.535 -1.0551 -1.7539 -2.5265
  824MOL0     H11199   1.450   4.797   6.541 -0.4243 -0.5671  1.1845
  824MOL0     H11200   1.624   4.439   6.736  0.2072 -0.3028 -0.7072
  824MOL0     H11201   1.566   4.273   7.002  0.3438 -1.5388  0.8538
  824MOL0     H11202   1.480   4.148   6.916  2.1354 -0.0731  1.7147
  824MOL0     H11203   1.620   4.202   6.835 -0.2491 -1.7721  1.1630
  824MOL0     H11204   0.929   4.091   6.848 -0.3145  0.6511 -0.8083
  824MOL0     H11205   0.849   3.873   6.913 -0.6198  0.5709 -0.3133
  824MOL0     H11206   0.816   3.662   6.916  1.9745 -2.4168 -0.6251
  824MOL0     H11207   0.827   3.546   7.046 -2.3268 -0.7291 -4.3961
  824MOL0     H11208   0.812   3.714   7.215  1.4028  1.7692  0.3060
  824MOL0     H11209   0.749   3.834   7.106 -1.9721 -1.0101 -3.2312
  824MOL0     H11210   0.602   3.567   7.148 -0.3078  0.2599  1.8963
  824MOL0     H11211   0.548   3.695   7.038 -0.8649  1.8930  0.7030
  824MOL0     H11212   0.563   3.733   7.330  0.4764  1.1918  0.4233
  824MOL0     H11213   0.528   3.861   7.217  2.4156  0.3572  1.9526
  824MOL0     H11214   0.363   3.620   7.169 -1.6641 -0.5330  3.0518
  824MOL0     H11215   0.315   3.788   7.164  2.2358  0.0825 -1.9801
  824MOL0     H11216   0.362   3.591   7.373  2.3585  0.7750 -3.3097
  824MOL0     H11217   0.363   3.755   7.438  1.8410  2.0711 -1.2914
  824MOL0     H11218   0.144   3.612   7.275  1.8871  2.9283 -2.6217
  824MOL0     H11219   0.144   3.782   7.293  5.4906  1.8073 -0.7690
  824MOL0     H11220  -0.010   3.684   7.457 -0.5680  0.6632  0.9253
  824MOL0     H11221   0.116   3.797   7.512  3.8783 -1.1937  0.4686
  824MOL0     H11222   1.234   3.776   7.094  3.4507  2.3013 -1.1349
  824MOL0     H11223   1.314   3.989   7.011 -0.3500 -0.3818 -0.9816
  824MOL0     H11224   1.140   4.449   6.838  0.3849 -1.0286  0.4745
  824MOL0     H11225   1.223   4.597   6.669 -0.8940  0.3186  0.3216
  824MOL0     H11226   3.094   4.760   6.541  2.0194 -1.1023 -0.4404
  824MOL0     H11227   3.272   4.609   6.645  0.8521  1.3087  0.1234
  824MOL0     H11228   3.489   4.617   7.195 -3.8078 -1.6371  0.8090
  824MOL0     H11229   3.670   4.480   7.282  1.5050  2.1873 -1.6814
  824MOL0     H11230   3.761   4.083   7.093  1.9832 -1.3699 -0.1431
  824MOL0     H11231   3.847   4.209   7.014 -1.4421 -0.7092 -0.3857
  824MOL0     H11232   3.986   4.248   7.230 -0.4971  1.6368 -0.1606
  824MOL0     H11233   4.026   4.123   7.114 -1.0404  0.8572 -0.9789
  824MOL0     H11234   3.881   3.966   7.284  3.1174 -1.6856  0.0043
  824MOL0     H11235   3.898   4.113   7.388  1.2872  2.7932 -0.8529
  824MOL0     H11236   4.122   3.921   7.275  2.9604  0.1893  2.0585
  824MOL0     H11237   4.069   3.927   7.432 -2.5591 -2.1638 -1.3232
  824MOL0     H11238   4.346   4.225   7.453  0.1660 -2.0605  0.1321
  824MOL0     H11239   3.600   4.173   6.999 -0.2320 -0.7615  1.1412
  824MOL0     H11240   3.444   4.329   6.879 -0.9132  1.2502 -0.2338
  825MOL0     O11241   1.361   2.170   7.613  0.4500  0.0979  0.8760
  825MOL0     C11242   1.465   2.107   7.633  0.7073  0.4295 -0.1223
  825MOL0     O11243   1.472   1.986   7.697  0.2807  0.3951  0.1202
  825MOL0     C11244   1.352   1.911   7.707 -0.7417 -0.1816  0.2644
  825MOL0     C11245   1.300   1.860   7.831 -0.5830 -0.3070 -0.2088
  825MOL0     C11246   1.183   1.780   7.833 -0.7831  0.3307 -0.1983
  825MOL0     C11247   1.115   1.750   7.709  0.2601 -0.4942 -0.7331
  825MOL0     O11248   1.013   1.660   7.700 -0.1690  0.2835  0.4404
  825MOL0     C11249   0.889   1.709   7.760 -0.1172  0.5178 -0.1098
  825MOL0     C11250   0.781   1.612   7.717  0.6085 -0.0920 -0.3285
  825MOL0     C11251   0.755   1.612   7.565 -0.7741  0.4936 -0.1113
  825MOL0     C11252   0.622   1.538   7.541  0.7199 -0.9089 -0.4383
  825MOL0     C11253   0.591   1.522   7.395 -0.6899 -0.1540 -0.8520
  825MOL0     C11254   0.522   1.391   7.367 -0.0323  0.4193 -0.4396
  825MOL0     C11255   0.384   1.399   7.439 -0.3701 -0.7192 -0.5896
  825MOL0     C11256   0.337   1.258   7.467 -0.1079 -0.1994 -0.8745
  825MOL0     N11257   0.286   1.188   7.345 -0.6667 -0.0163 -0.0654
  825MOL0     C11258   0.377   1.128   7.257 -0.5974  0.1772 -0.5899
  825MOL0     C11259   0.297   1.073   7.173 -0.6806  0.1846  0.5424
  825MOL0     C11260   0.337   1.036   7.036 -0.7777  0.1934  0.3606
  825MOL0     C11261   0.406   1.154   6.966 -0.0015 -0.5073 -0.5310
  825MOL0     C11262   0.564   1.152   6.964  0.0102  0.1331 -0.1036
  825MOL0     C11263   0.631   1.276   6.895  0.2053 -0.1019  0.0928
  825MOL0     O11264   0.611   1.398   6.964  0.8287  0.2621 -0.2451
  825MOL0     C11265   0.643   1.516   6.910 -1.3878  0.1107  0.2843
  825MOL0     C11266   0.712   1.534   6.796  0.5474  0.8713  0.8107
  825MOL0     C11267   0.737   1.659   6.743  0.0889  0.0360  0.2691
  825MOL0     C11268   0.807   1.656   6.609  0.7010 -0.3238  0.2261
  825MOL0     C11269   0.710   1.766   6.831  0.6720 -0.5701 -0.3007
  825MOL0     C11270   0.737   1.901   6.795  0.0669 -0.2292 -0.2818
  825MOL0     O11271   0.735   1.999   6.889 -0.3383 -0.7692  0.3261
  825MOL0     C11272   0.730   2.130   6.851  0.0200  0.0564 -0.0792
  825MOL0     C11273   0.617   2.186   6.797 -0.1490  0.3095 -0.3236
  825MOL0     C11274   0.613   2.315   6.759 -0.6918 -0.0392  0.9894
  825MOL0     C11275   0.724   2.394   6.779  0.7994  0.0237 -0.4997
  825MOL0     O11276   0.709   2.519   6.729 -0.1037 -0.2577  0.2460
  825MOL0     C11277   0.829   2.584   6.695 -0.5957 -0.5357  0.2042
  825MOL0     C11278   0.789   2.725   6.647  0.0381  0.4080  0.3738
  825MOL0     C11279   0.721   2.804   6.752 -0.3672 -0.4428  0.1265
  825MOL0     C11280   0.675   2.940   6.699 -0.1054 -0.1985  0.3419
  825MOL0     C11281   0.609   3.028   6.805 -0.2714  0.9352  0.3529
  825MOL0     C11282   0.547   3.153   6.741 -0.1310  0.6347 -0.2089
  825MOL0     C11283   0.670   3.231   6.683 -0.9474 -0.0936  0.4187
  825MOL0     C11284   0.630   3.377   6.671  0.2497  0.8819 -0.3203
  825MOL0    Cl11285   0.610   3.452   6.833 -0.0982  0.4132  0.1883
  825MOL0     C11286   0.837   2.346   6.854 -0.6904  0.5074 -0.0282
  825MOL0     C11287   0.852   2.206   6.875  1.2690  0.6566 -0.8423
  825MOL0     O11288   0.747   1.925   6.674 -0.0462  0.5375 -1.3996
  825MOL0     C11289   0.636   1.751   6.947 -0.5224 -0.5157 -0.6810
  825MOL0     C11290   0.599   1.624   6.985 -0.9288  0.2151 -0.1473
  825MOL0     N11291   0.167   1.081   7.206  0.3059 -1.1690  1.0560
  825MOL0     N11292   0.154   1.161   7.303  0.0312 -0.3318 -0.2811
  825MOL0     C11293   1.169   1.801   7.590  0.2299  0.5507 -0.2367
  825MOL0     C11294   1.280   1.885   7.593  0.3622 -0.5269 -0.4480
  825MOL0     C11295   1.589   2.164   7.567  0.1863 -0.1123  0.8133
  825MOL0     C11296   1.717   2.142   7.622 -0.4466 -0.3526  0.4698
  825MOL0     C11297   1.830   2.188   7.557  0.5801  0.4082 -0.1736
  825MOL0     C11298   1.827   2.273   7.448 -0.4335  0.4727 -0.4665
  825MOL0     O11299   1.929   2.339   7.389  0.0951  0.0643  0.3342
  825MOL0     C11300   2.054   2.316   7.442  0.3808 -0.5727  0.1311
  825MOL0     C11301   2.157   2.390   7.362  0.1906 -0.1398  0.5671
  825MOL0     C11302   2.118   2.535   7.350  1.0424 -0.6542 -0.9183
  825MOL0     C11303   2.218   2.613   7.261 -0.4344 -0.7500  0.0744
  825MOL0     C11304   2.190   2.762   7.251 -0.0547  0.0502 -1.1106
  825MOL0     C11305   2.170   2.878   7.261  0.4491 -0.5327  0.7174
  825MOL0     C11306   1.703   2.301   7.402  0.6043 -0.7408 -0.6798
  825MOL0     C11307   1.587   2.245   7.454  0.3031 -0.6849  0.5254
  825MOL0     H11308   1.355   1.884   7.922 -0.8481 -0.1039 -0.1032
  825MOL0     H11309   1.137   1.738   7.922 -3.0625  1.3003 -0.8265
  825MOL0     H11310   0.891   1.694   7.869 -1.8951  2.5362  0.2662
  825MOL0     H11311   0.865   1.811   7.732 -2.4290 -0.0323 -0.3311
  825MOL0     H11312   0.799   1.507   7.744  0.2544  0.4977  2.5401
  825MOL0     H11313   0.688   1.640   7.768  1.6788  3.0239  0.0581
  825MOL0     H11314   0.749   1.715   7.528  2.3073  1.6702  2.1803
  825MOL0     H11315   0.837   1.564   7.512  0.1396  0.1021  1.5859
  825MOL0     H11316   0.629   1.450   7.604  0.9057 -1.8034 -1.6744
  825MOL0     H11317   0.536   1.592   7.583  1.8245  1.4281 -1.0150
  825MOL0     H11318   0.519   1.596   7.362 -0.1530  0.3638 -0.8736
  825MOL0     H11319   0.685   1.540   7.341 -2.3815  1.5324 -3.4413
  825MOL0     H11320   0.505   1.381   7.260 -0.1784  1.0287 -0.4789
  825MOL0     H11321   0.598   1.321   7.403  1.4585  2.5200  0.7451
  825MOL0     H11322   0.394   1.437   7.542  0.5740 -1.5024 -0.3722
  825MOL0     H11323   0.325   1.463   7.374  0.0350  1.0127  0.6642
  825MOL0     H11324   0.247   1.277   7.526  1.3737  1.7232  0.9150
  825MOL0     H11325   0.411   1.199   7.523  1.8736  3.2750  0.4555
  825MOL0     H11326   0.483   1.147   7.251 -0.9424  2.2347 -1.0133
  825MOL0     H11327   0.397   0.945   7.043 -1.7084 -0.5608 -1.0469
  825MOL0     H11328   0.249   1.015   6.974  1.1417 -0.8717 -2.1670
  825MOL0     H11329   0.369   1.250   7.001  0.9496 -0.4871  0.4858
  825MOL0     H11330   0.384   1.144   6.859  0.1081 -6.1530 -0.3372
  825MOL0     H11331   0.597   1.058   6.918  4.2197  1.4466 -0.1304
  825MOL0     H11332   0.595   1.159   7.069 -1.3804  2.6415  0.1970
  825MOL0     H11333   0.592   1.282   6.793  1.6466  0.3112 -0.4544
  825MOL0     H11334   0.737   1.249   6.886  0.3387 -0.1038  1.4603
  825MOL0     H11335   0.744   1.446   6.742  0.3885  1.6770 -0.6460
  825MOL0     H11336   0.913   1.679   6.619  1.3235 -2.7117 -0.1727
  825MOL0     H11337   0.813   1.560   6.557 -2.3427  0.5035 -1.9333
  825MOL0     H11338   0.752   1.710   6.531 -2.0450 -0.7559  1.7217
  825MOL0     H11339   0.527   2.128   6.780  0.0541 -1.8271  4.3275
  825MOL0     H11340   0.549   2.360   6.684  1.2870 -2.1530 -2.2257
  825MOL0     H11341   0.896   2.603   6.779 -1.0416  2.9505 -0.0806
  825MOL0     H11342   0.865   2.520   6.613 -3.1566 -1.8799  0.0214
  825MOL0     H11343   0.874   2.787   6.618 -0.3098  0.5827 -0.2830
  825MOL0     H11344   0.725   2.715   6.559 -2.0904 -0.8118  1.9467
  825MOL0     H11345   0.788   2.820   6.838 -0.2905  5.1931 -0.6076
  825MOL0     H11346   0.631   2.749   6.778 -1.2640  0.8486 -0.1425
  825MOL0     H11347   0.761   2.988   6.653 -0.0696 -0.3748  0.2245
  825MOL0     H11348   0.616   2.917   6.610  0.5205 -2.3991  0.4342
  825MOL0     H11349   0.685   3.055   6.879  1.9282  1.0394 -1.8337
  825MOL0     H11350   0.522   2.978   6.847  0.5655 -2.1930 -1.3234
  825MOL0     H11351   0.488   3.121   6.655  1.3628 -1.1507 -0.6360
  825MOL0     H11352   0.491   3.208   6.817  0.0535  2.5975 -1.4181
  825MOL0     H11353   0.703   3.197   6.585 -0.8581 -0.4414  0.5677
  825MOL0     H11354   0.755   3.228   6.753  2.8236  3.0125 -3.4772
  825MOL0     H11355   0.538   3.380   6.613  1.0762  0.6038 -1.7114
  825MOL0     H11356   0.701   3.441   6.616 -1.0338  1.5284 -1.2748
  825MOL0     H11357   0.931   2.399   6.856  1.0996 -2.4090  1.7960
  825MOL0     H11358   0.933   2.163   6.932 -0.1266  0.5290  1.1472
  825MOL0     H11359   0.613   1.826   7.022 -1.0515 -2.2745  1.0258
  825MOL0     H11360   0.529   1.615   7.068 -1.4203 -0.2662 -0.6073
  825MOL0     H11361   1.102   1.794   7.505 -0.5927  0.8433  0.3707
  825MOL0     H11362   1.318   1.911   7.495  1.1994 -1.5011 -0.4033
  825MOL0     H11363   1.711   2.062   7.695 -1.2002 -1.0291 -0.2947
  825MOL0     H11364   1.928   2.166   7.599  2.5028  0.1186 -4.3677
  825MOL0     H11365   2.057   2.362   7.541  0.0862 -4.1790  1.9422
  825MOL0     H11366   2.071   2.208   7.445 -1.2989 -0.8375  2.5407
  825MOL0     H11367   2.174   2.356   7.259  1.3928 -1.1367  1.0695
  825MOL0     H11368   2.249   2.373   7.418 -0.5219 -2.2322  1.2200
  825MOL0     H11369   2.105   2.572   7.453 -0.1249 -2.4855 -0.3651
  825MOL0     H11370   2.018   2.548   7.309  0.5517  2.1027  0.8338
  825MOL0     H11371   2.202   2.574   7.160 -1.5948 -2.4261  0.8532
  825MOL0     H11372   2.320   2.599   7.298 -0.1412 -1.9973 -1.1078
  825MOL0     H11373   2.148   2.980   7.283  1.2225 -0.2223  0.0976
  825MOL0     H11374   1.690   2.377   7.326 -1.4883  0.8554  1.1554
  825MOL0     H11375   1.486   2.258   7.416  0.3401 -1.1800  0.2454
  826MOL0     O11376   9.380   1.017   9.574 -0.1603 -0.1718 -0.0042
  826MOL0     C11377   9.310   0.986   9.672 -0.3974 -0.3516 -0.2290
  826MOL0     O11378   9.316   0.871   9.733 -0.3741 -0.1400  0.0651
  826MOL0     C11379   9.427   0.793   9.708 -0.3392 -0.5288 -0.0062
  826MOL0     C11380   9.415   0.657   9.693  0.2058  0.1030  0.5424
  826MOL0     C11381   9.518   0.567   9.693  0.0608 -0.6416  0.4637
  826MOL0     C11382   9.651   0.618   9.715 -0.1991 -0.2562  0.1369
  826MOL0     O11383   9.761   0.539   9.713  0.5477 -0.3963 -0.4046
  826MOL0     C11384   9.761   0.393   9.667 -0.1378 -0.2243  0.1815
  826MOL0     C11385   9.910   0.354   9.655  0.8163 -0.4134 -0.9200
  826MOL0     C11386   9.921   0.196   9.627  0.5033 -0.1989  0.9686
  826MOL0     C11387  10.076   0.163   9.627 -0.8275  0.3231  0.7019
  826MOL0     C11388  10.102   0.016   9.581 -0.8941 -0.1386 -0.5066
  826MOL0     C11389  10.123  -0.074   9.704 -0.1674 -0.2346 -0.1569
  826MOL0     C11390  10.111  -0.223   9.653  0.3895 -0.2599  0.6636
  826MOL0     C11391  10.124  -0.324   9.759 -0.0892  0.7250  0.2743
  826MOL0     N11392  10.116  -0.457   9.714  0.2667  0.3856 -0.6177
  826MOL0     C11393  10.035  -0.556   9.769  0.1755 -1.5312 -0.2352
  826MOL0     C11394  10.044  -0.658   9.686  0.4167 -0.7023  0.1756
  826MOL0     C11395   9.987  -0.799   9.693 -0.6042  0.9917  0.1546
  826MOL0     C11396  10.021  -0.849   9.834 -0.3016  0.7492 -0.1597
  826MOL0     C11397  10.120  -0.971   9.856 -0.5630  0.3555  0.6505
  826MOL0     C11398  10.236  -0.968   9.762 -0.3802 -0.1715  0.2915
  826MOL0     O11399  10.318  -1.075   9.793  0.3657  0.5211  0.0907
  826MOL0     C11400  10.425  -1.063   9.883 -0.8573  0.2831  0.2610
  826MOL0     C11401  10.435  -0.968   9.985  0.2619  0.3919  0.2257
  826MOL0     C11402  10.547  -0.939  10.052 -0.2000  0.2942 -0.0978
  826MOL0     C11403  10.537  -0.819  10.147  0.9348  0.2504 -0.0967
  826MOL0     C11404  10.662  -1.011  10.030 -0.5435  0.8024 -0.2125
  826MOL0     C11405  10.794  -0.990  10.101 -0.0737 -0.0422 -0.0676
  826MOL0     O11406  10.900  -1.085  10.072  0.3444 -0.0255 -0.3944
  826MOL0     C11407  11.011  -1.106  10.155 -0.6740 -0.3275  0.3191
  826MOL0     C11408  11.110  -1.182  10.101  0.7959  0.4876  0.2206
  826MOL0     C11409  11.234  -1.209  10.170  0.2372 -0.7737  0.2710
  826MOL0     C11410  11.244  -1.160  10.305 -0.9528 -0.0605 -0.5289
  826MOL0     O11411  11.369  -1.153  10.376  0.3391  0.9041 -0.1305
  826MOL0     C11412  11.367  -1.152  10.521  0.5810  0.0319 -0.5187
  826MOL0     C11413  11.502  -1.186  10.576  0.0912 -0.0934 -0.7329
  826MOL0     C11414  11.629  -1.150  10.492  0.2375  0.0674 -0.2668
  826MOL0     C11415  11.749  -1.167  10.579 -0.9171  0.4271  0.0780
  826MOL0     C11416  11.884  -1.168  10.509  0.7132  0.0966 -0.2632
  826MOL0     C11417  11.939  -1.028  10.486  0.5073 -0.4936  0.0274
  826MOL0     C11418  12.080  -1.026  10.431  0.4519  0.6274  0.0588
  826MOL0     C11419  12.123  -0.891  10.367 -0.3201  0.4338 -0.1021
  826MOL0    Cl11420  12.010  -0.837  10.249  0.4600 -0.3178 -0.2131
  826MOL0     C11421  11.139  -1.083  10.356 -0.1267  0.3674 -0.6931
  826MOL0     C11422  11.019  -1.068  10.287 -0.3423  0.0694 -0.3828
  826MOL0     O11423  10.814  -0.884  10.156  0.2993  0.5630 -0.9040
  826MOL0     C11424  10.660  -1.109   9.931  0.1884  0.8982 -0.5928
  826MOL0     C11425  10.539  -1.137   9.859  0.2089 -0.2043 -0.1123
  826MOL0     N11426  10.137  -0.623   9.584  0.1302 -0.0839  0.3909
  826MOL0     N11427  10.171  -0.503   9.600  0.1840 -0.0008  0.1632
  826MOL0     C11428   9.673   0.755   9.741  0.4791 -0.4622 -0.2288
  826MOL0     C11429   9.558   0.839   9.727  0.4630  0.4900 -0.8502
  826MOL0     C11430   9.223   1.084   9.716  0.2544 -0.6645 -0.2138
  826MOL0     C11431   9.133   1.055   9.821  0.3997  0.3879 -0.1884
  826MOL0     C11432   9.038   1.142   9.870 -0.4082  0.4945 -0.0080
  826MOL0     C11433   9.047   1.281   9.827 -0.1186  0.4351  0.2202
  826MOL0     O11434   8.958   1.372   9.885 -0.5062  0.3626 -0.5004
  826MOL0     C11435   8.987   1.510   9.883  0.1827 -1.0549 -0.8635
  826MOL0     C11436   8.913   1.574  10.008  0.6957 -0.2865 -0.3109
  826MOL0     C11437   8.980   1.692  10.076  0.1999 -0.3750 -0.7580
  826MOL0     C11438   8.904   1.763  10.190 -1.2416  0.7079  0.4763
  826MOL0     C11439   8.780   1.834  10.150 -0.0119 -0.0882 -1.0110
  826MOL0     C11440   8.673   1.882  10.120  0.0334  0.7020  0.1091
  826MOL0     C11441   9.136   1.314   9.725  0.2733 -0.2323 -0.3580
  826MOL0     C11442   9.214   1.217   9.669 -0.0711  1.0751 -0.0682
  826MOL0     H11443   9.310   0.631   9.682 -0.0206  0.7751  0.9981
  826MOL0     H11444   9.492   0.466   9.662  2.4589 -0.8659 -1.0921
  826MOL0     H11445   9.715   0.332   9.744  0.3103 -1.4913 -0.5159
  826MOL0     H11446   9.707   0.390   9.572  2.1028  2.4269 -1.3594
  826MOL0     H11447   9.964   0.407   9.576  2.7022 -2.0382 -0.8028
  826MOL0     H11448   9.960   0.383   9.748  2.6467 -2.6622 -1.1166
  826MOL0     H11449   9.874   0.141   9.709 -1.1764  0.9239  0.7911
  826MOL0     H11450   9.882   0.175   9.527 -1.4693  2.1137  1.1647
  826MOL0     H11451  10.128   0.236   9.564 -0.2903  1.6180  2.5457
  826MOL0     H11452  10.103   0.184   9.731  0.1031  0.5498  0.4181
  826MOL0     H11453  10.026  -0.016   9.509  0.6798 -2.2621 -1.3385
  826MOL0     H11454  10.201   0.024   9.534  0.0413 -2.7915  0.7956
  826MOL0     H11455  10.222  -0.053   9.746 -0.5823  2.7841 -0.4217
  826MOL0     H11456  10.041  -0.069   9.777  1.9364 -2.4004  2.5508
  826MOL0     H11457  10.012  -0.228   9.606  1.3225  1.6208 -1.7402
  826MOL0     H11458  10.177  -0.240   9.568 -1.5074 -1.3010 -0.6865
  826MOL0     H11459  10.036  -0.300   9.820  1.7689  4.2245  1.8846
  826MOL0     H11460  10.214  -0.305   9.817 -1.7415 -1.6906  3.9641
  826MOL0     H11461   9.980  -0.525   9.858 -0.3661 -1.7254 -0.4993
  826MOL0     H11462   9.878  -0.792   9.689 -1.0572 -2.1522  2.9664
  826MOL0     H11463  10.024  -0.856   9.607  2.9318 -0.3167  2.2978
  826MOL0     H11464   9.925  -0.885   9.872 -2.3352  1.5227 -4.0264
  826MOL0     H11465  10.061  -0.769   9.896 -1.5924  0.3508  1.2670
  826MOL0     H11466  10.065  -1.065   9.867 -1.9024  1.3695  3.6288
  826MOL0     H11467  10.163  -0.961   9.956  1.4115 -5.3805  0.7270
  826MOL0     H11468  10.291  -0.874   9.773  3.3424 -2.3587  2.8455
  826MOL0     H11469  10.203  -0.988   9.659 -0.1293 -1.5336  0.4510
  826MOL0     H11470  10.348  -0.906  10.005 -0.9329 -1.0562 -0.3840
  826MOL0     H11471  10.554  -0.839  10.253 -1.6948  1.5309  0.6635
  826MOL0     H11472  10.597  -0.738  10.104 -0.7413  0.3556 -2.4390
  826MOL0     H11473  10.430  -0.795  10.149 -0.4589 -4.6134 -2.2413
  826MOL0     H11474  11.099  -1.237  10.008 -0.5926 -1.4191  1.4105
  826MOL0     H11475  11.314  -1.265  10.122 -0.4773 -2.9239  1.4185
  826MOL0     H11476  11.341  -1.051  10.552  1.2745  0.6603 -1.9084
  826MOL0     H11477  11.293  -1.227  10.551  1.4642 -0.9143 -0.6575
  826MOL0     H11478  11.508  -1.136  10.673  1.0806 -0.1812 -0.7364
  826MOL0     H11479  11.509  -1.293  10.595  0.1012  0.0728  0.2899
  826MOL0     H11480  11.610  -1.053  10.447  2.4526  0.6876  0.0313
  826MOL0     H11481  11.635  -1.213  10.403 -0.5363  1.0881 -1.0662
  826MOL0     H11482  11.749  -1.088  10.654  1.0944  0.6958 -0.1346
  826MOL0     H11483  11.750  -1.266  10.628  0.8370  0.6413  0.5441
  826MOL0     H11484  11.881  -1.217  10.411  1.4467 -2.2612  0.8219
  826MOL0     H11485  11.951  -1.229  10.570  0.8015 -1.3576 -1.7502
  826MOL0     H11486  11.875  -0.973  10.417  1.4423 -0.5823 -0.9467
  826MOL0     H11487  11.929  -0.966  10.576 -3.3867  2.3784 -2.0650
  826MOL0     H11488  12.087  -1.102  10.353 -0.0846  0.8751 -0.2337
  826MOL0     H11489  12.149  -1.055  10.511  0.9105  1.3621 -0.0589
  826MOL0     H11490  12.225  -0.896  10.328 -0.6990  0.6309 -1.1674
  826MOL0     H11491  12.137  -0.816  10.445  0.4499  2.0151 -1.6923
  826MOL0     H11492  11.139  -1.037  10.455 -3.1397 -2.1792  0.6632
  826MOL0     H11493  10.941  -1.005  10.330  1.4434  2.6054 -0.6355
  826MOL0     H11494  10.745  -1.173   9.911  0.1083  0.5499  0.1411
  826MOL0     H11495  10.525  -1.219   9.788  1.8476 -0.4433 -0.1969
  826MOL0     H11496   9.775   0.784   9.764  0.1120 -0.6739  1.9382
  826MOL0     H11497   9.563   0.945   9.750  0.1091  0.1570  0.9198
  826MOL0     H11498   9.133   0.958   9.870 -2.7484  0.0331 -0.6569
  826MOL0     H11499   8.969   1.102   9.944 -0.0212  0.5804  0.4027
  826MOL0     H11500   9.094   1.525   9.897 -0.4053  3.7479 -0.0302
  826MOL0     H11501   8.945   1.555   9.793  2.3639  1.8250 -0.5655
  826MOL0     H11502   8.883   1.497  10.079  1.9808  0.1626  0.7759
  826MOL0     H11503   8.815   1.608   9.974  1.2218  2.0121  0.3010
  826MOL0     H11504   8.990   1.767   9.998  0.4339  0.7239  0.2888
  826MOL0     H11505   9.078   1.661  10.116  1.2601  0.5987 -2.4900
  826MOL0     H11506   8.973   1.837  10.232 -0.9166  1.1704 -0.8420
  826MOL0     H11507   8.878   1.695  10.272  0.2832 -0.1924  0.2471
  826MOL0     H11508   8.574   1.906  10.088 -0.8129 -1.3988  0.9680
  826MOL0     H11509   9.135   1.408   9.672  1.2073 -1.0495 -1.9335
  826MOL0     H11510   9.276   1.253   9.588  0.8700 -0.2860  0.0113
  827MOL0     O11511  10.750   8.126  10.393 -0.9422  0.0559  0.4122
  827MOL0     C11512  10.821   8.200  10.322  0.8878 -0.4813 -0.1902
  827MOL0     O11513  10.952   8.228  10.338 -0.2090 -0.7353 -0.6328
  827MOL0     C11514  11.019   8.166  10.437 -0.0263 -0.5210  0.5730
  827MOL0     C11515  10.996   8.035  10.492  0.7970 -0.1619 -0.5457
  827MOL0     C11516  11.086   7.970  10.576 -0.2312  0.3439 -0.0347
  827MOL0     C11517  11.206   8.031  10.616  0.2532  0.9902 -1.1610
  827MOL0     O11518  11.295   7.966  10.711 -0.3073  0.4079 -0.0126
  827MOL0     C11519  11.418   8.039  10.733 -0.8205  0.6818 -0.1104
  827MOL0     C11520  11.522   7.980  10.831  0.1164  0.3665 -0.2662
  827MOL0     C11521  11.522   7.825  10.825  0.3496  1.0498 -0.4929
  827MOL0     C11522  11.603   7.768  10.940  0.7176  0.3031 -0.8120
  827MOL0     C11523  11.648   7.622  10.911  0.3274  0.4008  1.0945
  827MOL0     C11524  11.771   7.610  10.826 -1.1418 -0.0301  0.5317
  827MOL0     C11525  11.847   7.480  10.804  0.1548 -0.0733 -0.3255
  827MOL0     C11526  11.975   7.499  10.723  0.0276  0.9131  0.6486
  827MOL0     N11527  12.004   7.380  10.647 -0.2668 -0.0868  0.0092
  827MOL0     C11528  11.939   7.344  10.528 -1.0461  0.8682 -0.6626
  827MOL0     C11529  11.999   7.228  10.490 -0.7628 -1.0843 -0.1266
  827MOL0     C11530  11.983   7.159  10.359 -0.3030  0.2489 -0.6403
  827MOL0     C11531  11.839   7.120  10.326  0.3510  0.2405 -0.7222
  827MOL0     C11532  11.774   7.039  10.436  1.3734 -0.2791  0.0911
  827MOL0     C11533  11.614   7.058  10.426  0.3063  0.4657  0.0048
  827MOL0     O11534  11.569   7.043  10.287 -0.0308 -0.0020 -0.2388
  827MOL0     C11535  11.432   7.063  10.263 -0.5761  0.6435 -0.8948
  827MOL0     C11536  11.337   7.067  10.363 -0.7119 -0.3193  0.4637
  827MOL0     C11537  11.199   7.082  10.338 -0.0023 -0.4846  0.4786
  827MOL0     C11538  11.108   7.080  10.458 -1.0079 -0.6627  0.9114
  827MOL0     C11539  11.150   7.089  10.205  0.1006 -0.0273  0.9486
  827MOL0     C11540  11.012   7.124  10.165 -0.6284  0.9080  0.6423
  827MOL0     O11541  10.954   7.218  10.248 -0.2742 -0.0366 -0.3385
  827MOL0     C11542  10.822   7.256  10.227  0.1467 -0.4660 -0.2588
  827MOL0     C11543  10.792   7.353  10.134 -0.3357  0.1468  0.4456
  827MOL0     C11544  10.657   7.386  10.125  0.9886  0.9511  0.2362
  827MOL0     C11545  10.552   7.313  10.186 -0.8735  0.0216 -0.6025
  827MOL0     O11546  10.421   7.344  10.154  0.1226  0.3920 -1.0199
  827MOL0     C11547  10.387   7.480  10.167  0.1259 -0.6026 -0.2678
  827MOL0     C11548  10.242   7.484  10.225  0.3592 -0.0026 -0.4026
  827MOL0     C11549  10.181   7.630  10.228  0.5918 -0.6320 -1.0675
  827MOL0     C11550  10.055   7.639  10.298  0.8494  0.2671  0.1237
  827MOL0     C11551  10.019   7.781  10.341  0.3251 -0.2721  0.2422
  827MOL0     C11552   9.924   7.774  10.459 -0.4744  0.0020 -0.0741
  827MOL0     C11553   9.941   7.891  10.554 -0.2017  0.2568  0.2239
  827MOL0     C11554   9.866   8.020  10.500 -0.0049 -1.1008  0.1604
  827MOL0    Cl11555   9.812   8.138  10.629 -0.1768  0.3135  0.2467
  827MOL0     C11556  10.588   7.221  10.274  0.9527  0.0856  0.2445
  827MOL0     C11557  10.721   7.196  10.298  0.2499  0.7793  0.1814
  827MOL0     O11558  10.961   7.065  10.069 -0.3917  0.8000 -0.1348
  827MOL0     C11559  11.250   7.077  10.103  0.7375 -1.3216  0.6788
  827MOL0     C11560  11.386   7.067  10.132 -0.8619  0.0536  0.3075
  827MOL0     N11561  12.088   7.193  10.593  0.2655 -0.7425 -0.2411
  827MOL0     N11562  12.094   7.286  10.678  0.8040  1.3280 -0.3900
  827MOL0     C11563  11.231   8.160  10.567 -1.2731 -0.0852  0.6984
  827MOL0     C11564  11.154   8.218  10.472  0.7997  0.6036 -0.7507
  827MOL0     C11565  10.740   8.273  10.220  0.4772 -0.8335  0.4815
  827MOL0     C11566  10.604   8.310  10.227 -0.4421 -0.1837 -0.3120
  827MOL0     C11567  10.552   8.399  10.137 -0.3273 -0.4459 -0.2213
  827MOL0     C11568  10.629   8.442  10.027  0.7701 -0.0276 -0.9416
  827MOL0     O11569  10.576   8.511   9.919  0.3713 -0.9289  0.0430
  827MOL0     C11570  10.436   8.547   9.921  0.5219 -0.1709 -0.0241
  827MOL0     C11571  10.396   8.579   9.774 -0.8549  0.5099  1.3736
  827MOL0     C11572  10.322   8.459   9.706  0.3568  0.1574 -0.1615
  827MOL0     C11573  10.425   8.343   9.680  0.2308 -1.0373  0.3005
  827MOL0     C11574  10.354   8.226   9.652 -0.0825  0.5443  0.4728
  827MOL0     C11575  10.303   8.119   9.632 -0.8213 -0.1861  0.0594
  827MOL0     C11576  10.756   8.403  10.015 -0.7545  0.1318 -0.0173
  827MOL0     C11577  10.812   8.329  10.113 -0.5257  0.0828  0.4252
  827MOL0     H11578  10.905   7.976  10.483  1.3690 -1.1092 -0.2817
  827MOL0     H11579  11.059   7.870  10.609 -3.0836  1.0324 -0.0002
  827MOL0     H11580  11.467   8.054  10.637 -1.0758 -0.2020 -0.3872
  827MOL0     H11581  11.407   8.142  10.768 -1.6804 -0.0185  1.8421
  827MOL0     H11582  11.620   8.020  10.802  1.2236 -1.7892  0.2596
  827MOL0     H11583  11.488   8.004  10.932  2.2672 -0.7661  0.8085
  827MOL0     H11584  11.420   7.788  10.833  0.6287  0.3177 -0.2228
  827MOL0     H11585  11.568   7.788  10.733  0.7028  3.0213 -1.1728
  827MOL0     H11586  11.693   7.829  10.938  0.6886  0.3453 -2.3185
  827MOL0     H11587  11.547   7.773  11.034 -1.3859  1.4452 -2.0478
  827MOL0     H11588  11.683   7.574  11.003 -0.9062  2.1428  2.5415
  827MOL0     H11589  11.568   7.556  10.874  0.9535 -0.9329  2.0224
  827MOL0     H11590  11.740   7.647  10.728 -2.1940 -0.0428  0.8476
  827MOL0     H11591  11.846   7.683  10.858 -2.7924  2.1881 -0.4583
  827MOL0     H11592  11.879   7.441  10.901  0.9460 -2.4202 -1.4628
  827MOL0     H11593  11.783   7.402  10.764 -1.4441 -0.3913  2.5628
  827MOL0     H11594  12.067   7.511  10.782  1.3701  1.5590 -1.4582
  827MOL0     H11595  11.960   7.577  10.648  0.4139  2.1142  1.7775
  827MOL0     H11596  11.858   7.387  10.470  0.0743 -0.3296 -3.2536
  827MOL0     H11597  12.040   7.230  10.298  0.6005 -0.8756 -1.1687
  827MOL0     H11598  12.042   7.067  10.362  0.9355  0.7742 -4.1165
  827MOL0     H11599  11.827   7.069  10.230 -1.8826 -4.1116  1.5788
  827MOL0     H11600  11.785   7.214  10.319 -0.5073  0.0480  2.0982
  827MOL0     H11601  11.807   7.064  10.537  2.7608  1.5285 -0.7366
  827MOL0     H11602  11.800   6.934  10.417  1.6897 -0.2109  0.1517
  827MOL0     H11603  11.583   7.154  10.468 -1.9348 -0.4297  0.5591
  827MOL0     H11604  11.571   6.974  10.480 -1.4767  1.4117  0.1298
  827MOL0     H11605  11.368   7.052  10.465  0.7617 -2.4869 -0.2323
  827MOL0     H11606  11.005   7.061  10.425 -1.2224 -0.1002  1.2356
  827MOL0     H11607  11.135   6.995  10.521 -0.8906 -1.3865 -0.1001
  827MOL0     H11608  11.120   7.179  10.504  0.0657 -0.0535 -0.6042
  827MOL0     H11609  10.880   7.388  10.082 -0.7883 -1.0475 -1.1911
  827MOL0     H11610  10.634   7.463  10.053  2.5263 -1.0196 -2.5259
  827MOL0     H11611  10.448   7.540  10.235 -0.8732  0.1952 -0.0426
  827MOL0     H11612  10.398   7.527  10.069  3.2561  0.0864  0.3110
  827MOL0     H11613  10.176   7.413  10.174 -0.5636 -0.3586  1.2052
  827MOL0     H11614  10.249   7.449  10.329 -0.7248  0.0598 -0.2957
  827MOL0     H11615  10.178   7.650  10.120 -2.6064 -1.5382 -1.2551
  827MOL0     H11616  10.247   7.703  10.276 -1.4900 -0.1389  1.2515
  827MOL0     H11617   9.981   7.582  10.241  1.7714  0.4053 -1.2446
  827MOL0     H11618  10.056   7.574  10.386 -0.8131  1.4777  1.1032
  827MOL0     H11619   9.973   7.839  10.261 -3.2099  0.8375  2.8748
  827MOL0     H11620  10.108   7.840  10.365  0.8621 -1.2786  0.8078
  827MOL0     H11621   9.825   7.751  10.418  0.2622 -0.5526 -1.6060
  827MOL0     H11622   9.943   7.681  10.514 -5.0326  0.3549  2.6093
  827MOL0     H11623  10.047   7.906  10.579 -0.3757 -0.5689  1.5486
  827MOL0     H11624   9.888   7.867  10.646 -0.1141 -1.9887 -0.2518
  827MOL0     H11625   9.774   7.988  10.451 -1.4774 -0.1763  2.1511
  827MOL0     H11626   9.927   8.083  10.435 -0.2312  0.0205  1.0029
  827MOL0     H11627  10.515   7.151  10.313  1.7444  0.1765  1.9819
  827MOL0     H11628  10.740   7.111  10.363 -0.6308  1.7735  1.8134
  827MOL0     H11629  11.223   7.108  10.003 -0.8616 -0.0828  1.4497
  827MOL0     H11630  11.449   7.077  10.044 -1.2184  0.1177  0.0568
  827MOL0     H11631  11.312   8.224  10.601 -0.4914 -1.4648  1.5354
  827MOL0     H11632  11.205   8.312  10.454  6.7468 -2.0130  0.3081
  827MOL0     H11633  10.552   8.269  10.312  1.7659 -0.9284  0.7489
  827MOL0     H11634  10.450   8.435  10.147 -0.8187 -1.3505 -1.7139
  827MOL0     H11635  10.381   8.462   9.963 -2.0410  1.1566 -0.5155
  827MOL0     H11636  10.410   8.629   9.988  1.9831  1.0160 -0.8287
  827MOL0     H11637  10.484   8.604   9.714 -3.0743  0.3753 -2.2099
  827MOL0     H11638  10.324   8.661   9.777 -2.2364 -0.5546 -0.7718
  827MOL0     H11639  10.278   8.491   9.612  1.2388 -2.0390 -1.4135
  827MOL0     H11640  10.248   8.420   9.777  0.8282  0.3213  0.4314
  827MOL0     H11641  10.488   8.327   9.768  1.2360 -0.3967 -0.2911
  827MOL0     H11642  10.493   8.369   9.599 -0.4143 -0.9376 -0.2211
  827MOL0     H11643  10.270   8.018   9.618 -3.5145  0.5121  0.6706
  827MOL0     H11644  10.809   8.430   9.924 -0.0305  1.0554  0.6721
  827MOL0     H11645  10.919   8.313  10.105 -0.6514 -2.2242  2.0846
  828MOL0     O11646   6.802   1.701   7.709 -0.6687  0.8843  0.7827
  828MOL0     C11647   6.915   1.682   7.660 -0.7076  0.3807 -0.0159
  828MOL0     O11648   6.938   1.664   7.528 -0.4785 -0.0810  0.6986
  828MOL0     C11649   6.834   1.684   7.437  0.3660 -0.0451  0.0340
  828MOL0     C11650   6.776   1.812   7.403  0.7824 -0.3540  0.0453
  828MOL0     C11651   6.676   1.822   7.307 -0.9908  0.1119 -0.7553
  828MOL0     C11652   6.633   1.718   7.235 -0.4873 -0.1068  0.6308
  828MOL0     O11653   6.529   1.729   7.142  0.5554 -0.3326  0.3963
  828MOL0     C11654   6.492   1.632   7.050 -0.2302 -0.5128 -0.6125
  828MOL0     C11655   6.390   1.675   6.957 -0.5566 -0.4359  0.9060
  828MOL0     C11656   6.308   1.559   6.895 -0.7071 -0.1581 -0.0297
  828MOL0     C11657   6.373   1.472   6.788  0.1558  0.3049 -0.8651
  828MOL0     C11658   6.261   1.375   6.740 -0.4636  0.0729  0.0358
  828MOL0     C11659   6.308   1.269   6.639  0.3831 -0.3257 -0.3336
  828MOL0     C11660   6.414   1.167   6.684 -0.2312 -0.3588  0.2728
  828MOL0     C11661   6.382   1.085   6.805 -0.0069  0.0544  0.2166
  828MOL0     N11662   6.486   0.988   6.843 -0.0421 -0.1144 -0.5149
  828MOL0     C11663   6.607   1.016   6.906  0.5577  0.1905  0.2112
  828MOL0     C11664   6.658   0.905   6.953  0.1188  0.4031  0.1163
  828MOL0     C11665   6.776   0.874   7.036  0.2750 -0.1478 -0.2866
  828MOL0     C11666   6.895   0.856   6.939  0.6009 -0.1191  1.2558
  828MOL0     C11667   6.931   0.981   6.859 -0.2037 -0.4830 -0.7083
  828MOL0     C11668   7.036   0.960   6.754 -1.0194  0.7934 -0.2014
  828MOL0     O11669   7.153   0.917   6.827  1.0485  0.6054  0.2175
  828MOL0     C11670   7.260   0.854   6.764 -0.1864  0.3750 -0.0067
  828MOL0     C11671   7.362   0.815   6.844 -0.0752 -0.5406 -0.6390
  828MOL0     C11672   7.476   0.756   6.791 -0.4955  0.0064 -0.0156
  828MOL0     C11673   7.577   0.696   6.889 -1.2540  0.5236  0.2848
  828MOL0     C11674   7.486   0.737   6.649  0.7199 -0.9094 -0.6860
  828MOL0     C11675   7.600   0.668   6.593 -0.5393  0.7468  1.4502
  828MOL0     O11676   7.588   0.575   6.499  0.2831  0.6770  0.1060
  828MOL0     C11677   7.701   0.507   6.454 -0.3933 -0.1799  0.4580
  828MOL0     C11678   7.790   0.559   6.356  0.5475 -0.1411 -0.5644
  828MOL0     C11679   7.906   0.500   6.313  0.5009 -0.3140 -0.4821
  828MOL0     C11680   7.933   0.371   6.362 -0.4138  0.0443 -0.0156
  828MOL0     O11681   8.049   0.308   6.337 -0.5783  0.0782  0.4782
  828MOL0     C11682   8.068   0.165   6.350 -0.6006  0.0348  0.2379
  828MOL0     C11683   8.202   0.102   6.317 -0.2844 -0.7669 -0.7879
  828MOL0     C11684   8.268   0.158   6.187  0.3133 -0.2461  0.0574
  828MOL0     C11685   8.425   0.140   6.200  0.5996 -0.3323 -0.1259
  828MOL0     C11686   8.501   0.171   6.066 -0.1689  0.5567  0.2045
  828MOL0     C11687   8.643   0.112   6.074  0.4826  0.2541  0.5560
  828MOL0     C11688   8.751   0.186   6.161 -0.2818  0.3843 -0.0792
  828MOL0     C11689   8.878   0.097   6.150 -1.1444 -0.5507  1.0330
  828MOL0    Cl11690   8.940   0.126   5.986  0.1601  0.1551 -0.0114
  828MOL0     C11691   7.836   0.314   6.454 -0.1852 -0.1013  0.6372
  828MOL0     C11692   7.728   0.376   6.493  0.9029 -0.8097  0.0350
  828MOL0     O11693   7.710   0.715   6.623  0.5182  0.4546  0.7155
  828MOL0     C11694   7.381   0.768   6.567  0.0896  0.6870  0.2293
  828MOL0     C11695   7.261   0.824   6.623  0.2276 -0.8677  0.1608
  828MOL0     N11696   6.561   0.810   6.905 -0.2782 -0.0651 -0.9664
  828MOL0     N11697   6.462   0.860   6.846  0.2344  0.1960 -0.0746
  828MOL0     C11698   6.700   1.596   7.254 -0.2724  0.2293  0.4095
  828MOL0     C11699   6.797   1.571   7.360 -0.6620  1.0212 -0.4251
  828MOL0     C11700   7.028   1.675   7.754  0.2513  1.1097  0.5274
  828MOL0     C11701   7.016   1.722   7.886  0.4181 -0.7242  0.1980
  828MOL0     C11702   7.122   1.714   7.964 -1.7212  0.7135 -0.4547
  828MOL0     C11703   7.240   1.653   7.937 -0.5698 -0.3015 -0.1017
  828MOL0     O11704   7.334   1.654   8.034 -0.2058  0.7676  0.1158
  828MOL0     C11705   7.475   1.633   8.016 -0.3346  0.1163  0.2932
  828MOL0     C11706   7.562   1.730   8.102  0.8464 -0.6147 -0.4255
  828MOL0     C11707   7.712   1.707   8.070  0.2481 -0.7607  0.5064
  828MOL0     C11708   7.810   1.790   8.157  0.5429  0.3546  0.0836
  828MOL0     C11709   7.921   1.827   8.067  0.5178  0.0519  0.3900
  828MOL0     C11710   8.021   1.877   8.015  0.1263 -0.0998 -0.8307
  828MOL0     C11711   7.255   1.595   7.814 -0.1129 -0.2326 -0.1184
  828MOL0     C11712   7.150   1.603   7.719  0.5636 -0.5757 -0.0286
  828MOL0     H11713   6.808   1.903   7.454 -0.9491 -1.0089  2.5207
  828MOL0     H11714   6.628   1.919   7.296 -2.2053 -0.4250 -0.3414
  828MOL0     H11715   6.582   1.598   6.999  1.2209  4.0371 -1.5447
  828MOL0     H11716   6.461   1.549   7.114  2.7774 -0.6273  0.8548
  828MOL0     H11717   6.313   1.735   7.006  0.6714  0.5002  1.7466
  828MOL0     H11718   6.434   1.742   6.883 -1.5998  1.4280  1.8784
  828MOL0     H11719   6.279   1.491   6.975 -0.3387 -0.1640  0.1044
  828MOL0     H11720   6.222   1.607   6.848 -0.3007  0.6105 -0.0143
  828MOL0     H11721   6.401   1.532   6.700 -0.5932  0.8775 -0.7234
  828MOL0     H11722   6.460   1.429   6.837  1.3163  0.1066 -2.9592
  828MOL0     H11723   6.205   1.329   6.822 -1.0033  0.8757  0.1246
  828MOL0     H11724   6.183   1.438   6.697 -0.4445  0.6154  0.7733
  828MOL0     H11725   6.217   1.211   6.619  0.3108 -0.1839 -0.4135
  828MOL0     H11726   6.348   1.313   6.548  1.3724 -0.1886  0.1545
  828MOL0     H11727   6.432   1.107   6.594 -3.2307  3.3701 -3.1905
  828MOL0     H11728   6.501   1.229   6.707  0.6192 -0.7524 -1.6638
  828MOL0     H11729   6.293   1.024   6.789 -0.3981  0.8299 -0.6915
  828MOL0     H11730   6.362   1.148   6.893 -1.8208 -0.0107 -0.1102
  828MOL0     H11731   6.656   1.111   6.924  0.5399 -0.0736  1.7270
  828MOL0     H11732   6.810   0.954   7.102  1.4178 -1.0914  0.3104
  828MOL0     H11733   6.766   0.782   7.094 -0.6849  0.8168  1.1108
  828MOL0     H11734   6.875   0.773   6.870 -0.9763  1.0509  0.2292
  828MOL0     H11735   6.974   0.811   7.000  1.8382 -0.6888 -0.6583
  828MOL0     H11736   6.968   1.048   6.938 -0.7326 -2.4753  1.3219
  828MOL0     H11737   6.852   1.039   6.810  2.7201  1.1873 -3.8949
  828MOL0     H11738   7.057   1.047   6.691  2.1463 -1.1300 -2.0770
  828MOL0     H11739   6.995   0.883   6.688 -1.1611 -0.0605  0.8545
  828MOL0     H11740   7.351   0.839   6.949  1.7238  1.1321 -0.7810
  828MOL0     H11741   7.659   0.766   6.904 -0.4060 -0.1224 -1.1221
  828MOL0     H11742   7.532   0.683   6.988 -1.0463 -0.5441  0.2519
  828MOL0     H11743   7.605   0.597   6.852 -4.6776 -0.5489  0.1559
  828MOL0     H11744   7.768   0.661   6.327  2.2076  0.4213  0.0871
  828MOL0     H11745   7.952   0.542   6.223 -4.1292  2.8433 -1.7746
  828MOL0     H11746   8.060   0.146   6.458  1.0436  1.7088  0.7113
  828MOL0     H11747   7.993   0.103   6.300 -0.5095  1.3337 -1.5676
  828MOL0     H11748   8.266   0.138   6.398  2.1322 -1.8169 -2.1421
  828MOL0     H11749   8.192  -0.006   6.307  2.5954 -1.1252 -0.5912
  828MOL0     H11750   8.242   0.257   6.151  2.9202 -0.0343 -1.5079
  828MOL0     H11751   8.231   0.079   6.120 -2.9636 -1.1592  2.6844
  828MOL0     H11752   8.458   0.212   6.276  0.0220 -0.7519  0.5320
  828MOL0     H11753   8.445   0.037   6.231 -1.6480 -1.1714 -1.2644
  828MOL0     H11754   8.503   0.279   6.051  0.6435  0.5024 -0.1810
  828MOL0     H11755   8.451   0.125   5.980 -1.0324 -1.5424  1.7411
  828MOL0     H11756   8.621   0.016   6.121 -1.9623  0.4889  0.0223
  828MOL0     H11757   8.677   0.110   5.970 -0.5767 -0.3588  0.2073
  828MOL0     H11758   8.716   0.190   6.265  0.6745  1.9361  0.2042
  828MOL0     H11759   8.774   0.287   6.128 -1.5178  0.7445  0.1199
  828MOL0     H11760   8.855  -0.008   6.167 -0.9357 -0.7352  0.1913
  828MOL0     H11761   8.954   0.136   6.219  0.5616 -2.7793  0.4770
  828MOL0     H11762   7.853   0.210   6.481  2.3946  0.3288  0.9523
  828MOL0     H11763   7.673   0.345   6.582 -1.5079 -0.9908 -1.4150
  828MOL0     H11764   7.385   0.766   6.459  1.5620  1.1801  0.2496
  828MOL0     H11765   7.166   0.831   6.572 -2.5297  0.0260  4.8650
  828MOL0     H11766   6.672   1.510   7.194  0.2691  0.2815  0.0773
  828MOL0     H11767   6.846   1.476   7.377 -2.3286 -0.3208 -2.5416
  828MOL0     H11768   6.924   1.768   7.920 -0.1892 -2.6138  1.2385
  828MOL0     H11769   7.119   1.754   8.065  1.5027 -0.4910  0.2199
  828MOL0     H11770   7.516   1.531   8.019 -1.9843 -0.6021 -0.3848
  828MOL0     H11771   7.488   1.661   7.911  1.2927  0.4306  0.5448
  828MOL0     H11772   7.533   1.713   8.206 -1.8764  1.6780 -0.7062
  828MOL0     H11773   7.537   1.830   8.068  4.4428  0.7632  0.5413
  828MOL0     H11774   7.719   1.732   7.964 -3.9919 -0.3700  0.1572
  828MOL0     H11775   7.730   1.601   8.090 -2.7421 -1.4439  0.0836
  828MOL0     H11776   7.834   1.738   8.250 -0.3202 -0.0831  0.0741
  828MOL0     H11777   7.758   1.881   8.190 -1.9035 -1.8037  2.7217
  828MOL0     H11778   8.090   1.930   7.952 -1.9961  1.3715 -2.0470
  828MOL0     H11779   7.343   1.536   7.792 -0.5328 -0.8496 -0.1506
  828MOL0     H11780   7.160   1.567   7.617  1.5221  0.5440 -0.3509
  829MOL0     O11781   4.490   2.646  10.333  0.0810  0.3174 -0.0582
  829MOL0     C11782   4.402   2.561  10.371 -0.4402 -0.9832 -0.3038
  829MOL0     O11783   4.411   2.424  10.357 -0.0148  0.4741  0.4566
  829MOL0     C11784   4.494   2.389  10.256 -0.0619 -0.7201  0.5700
  829MOL0     C11785   4.613   2.318  10.289 -0.5491 -1.0981 -0.1097
  829MOL0     C11786   4.709   2.303  10.187  0.6187  0.1953 -0.7248
  829MOL0     C11787   4.677   2.334  10.049 -0.3697  0.7969  0.0072
  829MOL0     O11788   4.765   2.316   9.948 -0.2902 -0.2729  0.1894
  829MOL0     C11789   4.875   2.225   9.955  0.1397  0.1900 -0.4589
  829MOL0     C11790   4.936   2.192   9.825 -0.6715 -0.3068  0.4001
  829MOL0     C11791   5.084   2.163   9.829  0.1488 -0.1521 -0.2203
  829MOL0     C11792   5.116   2.074   9.704  0.2926  0.1891  0.6562
  829MOL0     C11793   5.264   2.049   9.683 -0.8080 -0.2183 -0.0609
  829MOL0     C11794   5.347   2.160   9.616 -0.8080 -0.1024 -1.0434
  829MOL0     C11795   5.498   2.139   9.629  0.0855  0.8084  0.0110
  829MOL0     C11796   5.562   2.038   9.532 -0.2977  0.4847  0.6225
  829MOL0     N11797   5.712   2.053   9.521  1.2515  0.8358  0.5747
  829MOL0     C11798   5.799   1.985   9.440 -0.6379  0.0622 -0.2927
  829MOL0     C11799   5.926   2.020   9.489 -0.0188 -0.3193  1.3064
  829MOL0     C11800   6.048   1.974   9.421 -0.3094 -0.4546 -0.2672
  829MOL0     C11801   6.140   2.090   9.391  0.4922  0.2069  0.3548
  829MOL0     C11802   6.278   2.042   9.358 -0.2738  0.7070 -0.8855
  829MOL0     C11803   6.380   2.159   9.340 -0.4599  1.4385  0.0468
  829MOL0     O11804   6.337   2.222   9.217 -0.0918 -0.9633  0.1118
  829MOL0     C11805   6.297   2.351   9.216  0.3157 -0.3351 -0.1427
  829MOL0     C11806   6.285   2.411   9.086 -0.1400 -0.6075 -1.4014
  829MOL0     C11807   6.227   2.547   9.081 -1.3446 -0.3913  0.4877
  829MOL0     C11808   6.219   2.612   8.949 -0.0960 -0.0369  0.7322
  829MOL0     C11809   6.172   2.610   9.194 -0.0054  0.3210  0.1017
  829MOL0     C11810   6.095   2.745   9.206 -0.7104  0.7459  0.4700
  829MOL0     O11811   5.987   2.757   9.124  0.2694 -0.0845  0.0430
  829MOL0     C11812   5.904   2.864   9.140 -0.4333 -0.4863 -1.2687
  829MOL0     C11813   5.834   2.885   9.256  0.3305  0.0187 -0.4784
  829MOL0     C11814   5.763   3.002   9.281  1.1876  0.5544 -0.3076
  829MOL0     C11815   5.774   3.105   9.187 -0.1998  0.5222  0.7903
  829MOL0     O11816   5.710   3.214   9.239 -0.2405  0.0093  0.0066
  829MOL0     C11817   5.753   3.332   9.163  0.1864  0.2130  0.1511
  829MOL0     C11818   5.716   3.456   9.232 -0.4203  0.9646 -0.0371
  829MOL0     C11819   5.565   3.473   9.229 -0.6519  0.5911 -0.2312
  829MOL0     C11820   5.513   3.571   9.335 -0.2530 -0.4243  0.1978
  829MOL0     C11821   5.385   3.634   9.288 -0.5411 -0.9256 -0.7462
  829MOL0     C11822   5.269   3.541   9.302  0.0604  0.2450 -0.0458
  829MOL0     C11823   5.143   3.615   9.266  0.7423  0.2804 -0.8335
  829MOL0     C11824   5.010   3.533   9.265  0.1822 -0.9615  0.2964
  829MOL0    Cl11825   4.960   3.462   9.423 -0.2143 -0.3531 -0.2275
  829MOL0     C11826   5.823   3.078   9.054 -1.0836  0.0054  0.1078
  829MOL0     C11827   5.889   2.957   9.034  0.2712 -0.5837 -0.4714
  829MOL0     O11828   6.128   2.825   9.295 -0.2770  0.3877  0.3324
  829MOL0     C11829   6.188   2.547   9.319 -0.5274  0.4963  0.3170
  829MOL0     C11830   6.251   2.423   9.334 -0.2879 -0.4219  0.5596
  829MOL0     N11831   5.901   2.101   9.599 -0.9852 -0.2164 -0.3207
  829MOL0     N11832   5.774   2.110   9.624  0.1287 -0.4180  0.5548
  829MOL0     C11833   4.551   2.388  10.020 -0.7621 -0.1981 -0.5929
  829MOL0     C11834   4.469   2.413  10.124 -0.6955 -0.0152 -0.3224
  829MOL0     C11835   4.297   2.616  10.445  0.8788  0.0309  0.5829
  829MOL0     C11836   4.211   2.533  10.517 -0.0928  0.6065  0.8146
  829MOL0     C11837   4.114   2.586  10.602  0.7309  0.4071  0.8061
  829MOL0     C11838   4.105   2.722  10.622  1.1689  0.1504 -0.5440
  829MOL0     O11839   4.010   2.794  10.697 -0.6973 -1.3955 -0.6411
  829MOL0     C11840   3.905   2.721  10.767 -0.1236  0.5328 -0.6383
  829MOL0     C11841   3.784   2.679  10.676 -1.2717 -0.5573  0.2359
  829MOL0     C11842   3.655   2.617  10.753 -1.2338 -0.6481 -0.4907
  829MOL0     C11843   3.706   2.517  10.853  0.1488 -0.3199 -0.2229
  829MOL0     C11844   3.592   2.440  10.908  0.7604  1.1040 -0.4920
  829MOL0     C11845   3.498   2.401  10.964 -0.4641  0.5947  0.6068
  829MOL0     C11846   4.189   2.806  10.552 -0.1557  0.3117  0.5241
  829MOL0     C11847   4.280   2.752  10.458  1.1022 -0.9074 -0.1894
  829MOL0     H11848   4.641   2.296  10.391  3.0220 -0.2430 -0.7938
  829MOL0     H11849   4.804   2.264  10.221  0.1098  1.1553  2.0709
  829MOL0     H11850   4.961   2.265  10.008  1.5133  0.6669 -2.8896
  829MOL0     H11851   4.843   2.141  10.017 -1.2720  1.9910  1.3770
  829MOL0     H11852   4.883   2.108   9.779  0.6430 -1.3434  0.6852
  829MOL0     H11853   4.940   2.279   9.759  0.6508 -0.8974 -0.3390
  829MOL0     H11854   5.140   2.256   9.829 -1.3157  0.8598  2.7240
  829MOL0     H11855   5.117   2.102   9.914  3.7252 -2.2814 -2.8742
  829MOL0     H11856   5.066   1.977   9.714  3.9941 -1.7216  2.8416
  829MOL0     H11857   5.081   2.127   9.615 -3.2295 -1.5907  0.8185
  829MOL0     H11858   5.313   2.025   9.777  4.8439  3.2519 -1.6519
  829MOL0     H11859   5.269   1.978   9.599 -0.9597 -2.1265  1.4735
  829MOL0     H11860   5.327   2.181   9.511  0.4366  0.7008 -1.1413
  829MOL0     H11861   5.325   2.260   9.657 -0.1436 -0.5064  0.3528
  829MOL0     H11862   5.539   2.240   9.623  0.1827  0.8143  0.7677
  829MOL0     H11863   5.513   2.098   9.729 -2.6181 -0.8284 -0.1601
  829MOL0     H11864   5.516   2.041   9.433  0.7888  0.1678  0.0903
  829MOL0     H11865   5.534   1.935   9.557 -4.5583  1.1390 -0.7450
  829MOL0     H11866   5.785   1.908   9.365  0.2522 -1.8204  1.3722
  829MOL0     H11867   6.095   1.900   9.487 -0.1356  0.4330  0.6353
  829MOL0     H11868   6.037   1.917   9.329  1.8792  0.3990 -1.1084
  829MOL0     H11869   6.139   2.141   9.487 -2.0493  1.8705 -0.4686
  829MOL0     H11870   6.100   2.154   9.312  0.8609 -0.5296 -0.4551
  829MOL0     H11871   6.270   1.976   9.271 -0.6510  0.9444 -1.0314
  829MOL0     H11872   6.322   1.980   9.437 -1.2237  0.6132 -0.4159
  829MOL0     H11873   6.480   2.117   9.331 -1.3702 -1.4302  1.9715
  829MOL0     H11874   6.379   2.209   9.438  0.0009 -3.4494  2.8699
  829MOL0     H11875   6.315   2.356   8.997  0.8760 -3.5185  0.5964
  829MOL0     H11876   6.272   2.708   8.957 -5.1144  3.0226  2.0124
  829MOL0     H11877   6.261   2.548   8.871 -0.8847  0.5851 -0.2192
  829MOL0     H11878   6.117   2.630   8.915 -0.3455 -1.2177  0.8186
  829MOL0     H11879   5.830   2.809   9.333 -2.8656 -1.0410 -1.5042
  829MOL0     H11880   5.708   3.012   9.374 -0.2817  0.4254 -1.1164
  829MOL0     H11881   5.857   3.332   9.130  0.3538  3.5741  0.3742
  829MOL0     H11882   5.698   3.330   9.068  3.0589 -0.3788 -1.5986
  829MOL0     H11883   5.750   3.442   9.335  0.9148 -2.1396 -0.7803
  829MOL0     H11884   5.762   3.548   9.194 -0.3926  1.7713  1.8574
  829MOL0     H11885   5.514   3.376   9.240 -0.9584  0.9373  1.7873
  829MOL0     H11886   5.547   3.514   9.130  1.1721  0.4398 -0.6663
  829MOL0     H11887   5.495   3.522   9.431 -0.7371  0.5574  0.6251
  829MOL0     H11888   5.593   3.646   9.344  0.5157 -1.4339  2.9989
  829MOL0     H11889   5.400   3.663   9.184  1.3510 -0.4428 -0.3753
  829MOL0     H11890   5.355   3.722   9.346 -0.1419 -1.0945 -0.2768
  829MOL0     H11891   5.277   3.454   9.236  1.0903  0.2964 -0.0087
  829MOL0     H11892   5.257   3.499   9.402 -3.7747  0.3476 -0.2977
  829MOL0     H11893   5.143   3.659   9.165  0.6664  0.8413 -0.5961
  829MOL0     H11894   5.119   3.689   9.343 -4.3474 -1.1138 -0.7234
  829MOL0     H11895   5.038   3.460   9.188  2.0386 -0.8267  0.7722
  829MOL0     H11896   4.943   3.605   9.217  1.6253 -1.4898 -2.7940
  829MOL0     H11897   5.827   3.151   8.974  3.2278 -1.6217 -1.4942
  829MOL0     H11898   5.926   2.928   8.937  1.6755  0.4941 -0.2932
  829MOL0     H11899   6.146   2.597   9.406  1.6204  1.1217  1.0839
  829MOL0     H11900   6.260   2.389   9.436 -0.0255  0.4144  0.8200
  829MOL0     H11901   4.537   2.393   9.913  2.5363  1.4917 -1.0553
  829MOL0     H11902   4.379   2.473  10.114  0.2249  1.3086 -1.0524
  829MOL0     H11903   4.220   2.425  10.523 -0.0844  0.6634  2.0236
  829MOL0     H11904   4.050   2.512  10.650 -1.7073 -0.4036 -3.2159
  829MOL0     H11905   3.944   2.627  10.807 -0.6197  0.2068 -0.9120
  829MOL0     H11906   3.865   2.779  10.851  1.4634 -1.0378  1.3054
  829MOL0     H11907   3.812   2.609  10.597 -0.9114  0.6342 -0.7211
  829MOL0     H11908   3.758   2.760  10.608  0.3534 -1.5847 -1.6919
  829MOL0     H11909   3.585   2.570  10.683  0.3253 -0.7870 -2.0502
  829MOL0     H11910   3.597   2.699  10.796 -3.3192 -1.0480 -2.3417
  829MOL0     H11911   3.762   2.570  10.931  1.7876 -3.3867  0.8345
  829MOL0     H11912   3.771   2.441  10.808  2.6607  1.0901  0.8360
  829MOL0     H11913   3.417   2.379  11.031 -1.1525  1.4373  0.0676
  829MOL0     H11914   4.169   2.912  10.567  1.1547  0.5512  0.6668
  829MOL0     H11915   4.338   2.830  10.409 -1.5829  2.1746  1.1742
  830MOL0     O11916   3.460   3.764  10.581  1.2730 -0.0680 -0.2242
  830MOL0     C11917   3.352   3.708  10.616  0.7025 -0.7230  0.4901
  830MOL0     O11918   3.318   3.646  10.733 -0.2296  0.1530 -0.1007
  830MOL0     C11919   3.427   3.617  10.817 -0.7538 -0.6289  0.5262
  830MOL0     C11920   3.555   3.574  10.777 -0.1723 -0.2838 -0.1816
  830MOL0     C11921   3.663   3.551  10.872 -0.0494  0.4407  0.6640
  830MOL0     C11922   3.644   3.568  11.004 -0.7421 -0.6599  0.6183
  830MOL0     O11923   3.749   3.567  11.094  0.2604 -0.3244 -0.4675
  830MOL0     C11924   3.837   3.442  11.110 -0.6722  0.5036 -0.0589
  830MOL0     C11925   3.956   3.477  11.192  0.7883  0.5228 -0.9023
  830MOL0     C11926   4.026   3.607  11.148  0.4095  0.2993  0.4275
  830MOL0     C11927   4.147   3.621  11.231 -0.4208 -0.2787  0.5135
  830MOL0     C11928   4.237   3.745  11.203 -0.1474 -0.4106 -0.0343
  830MOL0     C11929   4.159   3.868  11.253  0.7615  0.1859 -0.4375
  830MOL0     C11930   4.218   4.003  11.227  0.1163 -1.9423  0.0592
  830MOL0     C11931   4.364   4.027  11.265 -0.4021  0.1885 -0.5136
  830MOL0     N11932   4.450   3.970  11.164  0.4638  0.2527 -0.3809
  830MOL0     C11933   4.443   3.975  11.032  0.0848 -0.6122  0.5937
  830MOL0     C11934   4.534   3.889  10.991 -0.3623  0.7904 -0.1894
  830MOL0     C11935   4.550   3.864  10.849  0.5487  0.4533 -0.6766
  830MOL0     C11936   4.675   3.927  10.782 -0.0822  0.0893  0.4377
  830MOL0     C11937   4.674   3.908  10.634  0.0308  0.0944 -0.3073
  830MOL0     C11938   4.562   3.980  10.554 -0.6628 -0.6286 -0.0131
  830MOL0     O11939   4.562   4.125  10.596 -0.1395  0.5042  0.0688
  830MOL0     C11940   4.501   4.214  10.501 -0.5296  0.3065 -0.3369
  830MOL0     C11941   4.403   4.167  10.413  0.2701 -0.1447  0.2901
  830MOL0     C11942   4.336   4.269  10.329 -0.0430  0.5884 -0.2793
  830MOL0     C11943   4.225   4.227  10.225  0.0577  0.6675 -1.0901
  830MOL0     C11944   4.370   4.403  10.336  0.2169 -0.5106  0.1458
  830MOL0     C11945   4.291   4.508  10.271  0.2682 -0.0490  0.4269
  830MOL0     O11946   4.160   4.488  10.261 -0.1373  0.2958 -0.2087
  830MOL0     C11947   4.081   4.579  10.190  0.0780  0.2935  0.0655
  830MOL0     C11948   3.974   4.512  10.136  0.2259 -0.0424 -0.2212
  830MOL0     C11949   3.875   4.582  10.075  0.0341  0.7875 -0.2612
  830MOL0     C11950   3.878   4.723  10.073  0.3233 -0.0187  0.3412
  830MOL0     O11951   3.781   4.802  10.025  0.2370 -0.4463  0.3361
  830MOL0     C11952   3.691   4.754   9.923 -0.2579  0.0784  0.1040
  830MOL0     C11953   3.759   4.757   9.780 -0.5463  0.7292  0.6633
  830MOL0     C11954   3.664   4.754   9.659 -0.0876  0.5016 -0.5497
  830MOL0     C11955   3.523   4.830   9.666 -0.2349  0.6111 -0.1430
  830MOL0     C11956   3.471   4.815   9.527 -0.1174 -0.4692  0.7340
  830MOL0     C11957   3.313   4.844   9.518 -0.4228 -0.2455  0.1345
  830MOL0     C11958   3.279   4.986   9.562  0.5952  0.1359 -0.3230
  830MOL0     C11959   3.134   5.033   9.551  1.0387 -0.7155 -0.5107
  830MOL0    Cl11960   3.085   5.060   9.377 -0.3072 -0.1843 -0.0842
  830MOL0     C11961   3.978   4.786  10.135 -0.2231 -0.5434  0.1863
  830MOL0     C11962   4.090   4.720  10.183 -0.5666 -0.8129  0.3887
  830MOL0     O11963   4.357   4.606  10.234 -0.4351  0.0139 -0.1433
  830MOL0     C11964   4.466   4.442  10.426 -1.2305 -0.5621  0.8751
  830MOL0     C11965   4.530   4.350  10.511  0.0986 -0.2331 -0.2603
  830MOL0     N11966   4.609   3.845  11.097 -0.5396 -0.5394 -0.3794
  830MOL0     N11967   4.555   3.885  11.209  1.1422 -0.5318  0.0389
  830MOL0     C11968   3.518   3.618  11.047 -0.6182 -0.0762  0.1533
  830MOL0     C11969   3.416   3.635  10.959 -0.6253 -0.4539  0.5615
  830MOL0     C11970   3.241   3.723  10.516 -0.4424 -0.3356  0.1405
  830MOL0     C11971   3.256   3.808  10.402  0.7153  0.9852  1.0397
  830MOL0     C11972   3.155   3.807  10.304  0.2928  0.0567  0.1540
  830MOL0     C11973   3.036   3.743  10.330 -0.0111  0.6512 -0.4548
  830MOL0     O11974   2.934   3.753  10.242  0.1618 -0.0965 -0.6894
  830MOL0     C11975   2.812   3.812  10.298  0.9591 -0.3774  0.4700
  830MOL0     C11976   2.830   3.961  10.332  0.4140  0.0557 -0.1959
  830MOL0     C11977   2.869   4.054  10.218  0.2308 -1.3256  0.3411
  830MOL0     C11978   2.765   4.062  10.103 -0.6960  0.0528 -0.0050
  830MOL0     C11979   2.816   4.160   9.998 -0.0673  0.1234  1.1403
  830MOL0     C11980   2.867   4.244   9.928 -0.0591  0.1886  0.5317
  830MOL0     C11981   3.025   3.653  10.439  0.1402  0.3369  0.1984
  830MOL0     C11982   3.126   3.638  10.530  0.5196 -0.4879 -1.0031
  830MOL0     H11983   3.583   3.559  10.673  1.8816  2.0058 -0.0303
  830MOL0     H11984   3.760   3.518  10.835  0.0355  2.0247 -0.6026
  830MOL0     H11985   3.798   3.353  11.161 -0.8551  0.4072 -0.3675
  830MOL0     H11986   3.875   3.413  11.012 -0.3835 -1.8226  0.6750
  830MOL0     H11987   3.926   3.475  11.298  0.6668 -2.1967 -0.9030
  830MOL0     H11988   4.017   3.386  11.193  1.8267  1.1681  1.3630
  830MOL0     H11989   4.036   3.599  11.039 -1.7861 -1.3529  0.2712
  830MOL0     H11990   3.952   3.686  11.160  0.2412  0.7783 -2.7579
  830MOL0     H11991   4.127   3.621  11.339  0.0956 -1.7575  0.6361
  830MOL0     H11992   4.211   3.533  11.217  2.5159  1.5253  1.7856
  830MOL0     H11993   4.325   3.741  11.267 -1.3241 -1.7833  1.5820
  830MOL0     H11994   4.266   3.767  11.100 -2.3295 -1.4802 -0.9529
  830MOL0     H11995   4.066   3.870  11.195  0.6947  2.6967 -0.3653
  830MOL0     H11996   4.148   3.859  11.361  2.0664 -0.0767 -0.3068
  830MOL0     H11997   4.208   4.007  11.118 -3.2740  1.3730  0.2885
  830MOL0     H11998   4.156   4.083  11.268  4.0055  1.4121  0.0506
  830MOL0     H11999   4.371   3.987  11.367 -4.6281  0.3945  0.0308
  830MOL0     H12000   4.386   4.134  11.263  0.7346  0.0923  2.3223
  830MOL0     H12001   4.366   4.034  10.983  0.2041 -1.0405 -0.1081
  830MOL0     H12002   4.562   3.756  10.836 -0.3566  0.4133 -1.2856
  830MOL0     H12003   4.458   3.891  10.795 -1.6971 -2.2573  1.5071
  830MOL0     H12004   4.759   3.874  10.829 -0.0434 -0.9524 -0.7461
  830MOL0     H12005   4.675   4.034  10.803 -1.4465  0.3199 -0.5790
  830MOL0     H12006   4.690   3.804  10.605 -1.8422 -0.1602 -0.5581
  830MOL0     H12007   4.762   3.956  10.591 -0.9688  1.3739 -1.0366
  830MOL0     H12008   4.468   3.931  10.578  0.5830 -3.2051 -0.0644
  830MOL0     H12009   4.579   3.968  10.446 -1.2137  0.9153 -0.2915
  830MOL0     H12010   4.378   4.062  10.408 -4.1819  0.7409 -0.5777
  830MOL0     H12011   4.122   4.230  10.261 -0.2174 -4.3263 -0.7693
  830MOL0     H12012   4.235   4.289  10.135 -0.9841  0.9385 -1.0364
  830MOL0     H12013   4.223   4.126  10.184  0.1312 -0.1119  0.7380
  830MOL0     H12014   3.960   4.405  10.141 -1.2658  0.1098 -0.5739
  830MOL0     H12015   3.786   4.535  10.035 -1.3659  4.0038 -1.2059
  830MOL0     H12016   3.650   4.655   9.945 -1.3601  0.9273  2.2077
  830MOL0     H12017   3.599   4.813   9.916  0.3626  1.3000  1.7285
  830MOL0     H12018   3.813   4.852   9.787 -0.9004  1.0867 -0.9419
  830MOL0     H12019   3.829   4.673   9.783  2.6547  3.2077  0.5094
  830MOL0     H12020   3.644   4.647   9.648 -0.0462  0.5323 -0.9355
  830MOL0     H12021   3.718   4.786   9.569  0.1347  2.5800  0.2803
  830MOL0     H12022   3.463   4.780   9.742  0.9854  2.0719  1.8830
  830MOL0     H12023   3.536   4.934   9.697  0.1124  0.2936  0.8115
  830MOL0     H12024   3.481   4.714   9.486 -2.2579 -1.5519  2.6405
  830MOL0     H12025   3.520   4.889   9.463 -0.4673 -1.7625 -1.1056
  830MOL0     H12026   3.274   4.806   9.423 -1.4661 -2.6526  1.4479
  830MOL0     H12027   3.253   4.775   9.577 -3.0420  1.1218 -0.7824
  830MOL0     H12028   3.336   5.047   9.492  3.1136 -2.1975 -0.4569
  830MOL0     H12029   3.321   5.001   9.662  0.1167 -1.2036  0.1018
  830MOL0     H12030   3.118   5.129   9.600  0.2246 -0.4172 -1.3399
  830MOL0     H12031   3.056   4.979   9.605  0.6132 -1.0624 -1.4439
  830MOL0     H12032   3.971   4.894  10.151  0.0178 -0.1858 -1.9014
  830MOL0     H12033   4.179   4.765  10.226 -1.3480 -1.1922  2.5449
  830MOL0     H12034   4.491   4.548  10.427 -1.8044 -0.4121  2.6726
  830MOL0     H12035   4.614   4.373  10.575 -0.5340 -1.2381  0.9808
  830MOL0     H12036   3.498   3.629  11.153  0.7076  0.3242  0.3866
  830MOL0     H12037   3.318   3.663  10.996 -0.4126  1.0447  0.0491
  830MOL0     H12038   3.348   3.860  10.375 -0.5525  2.4258 -0.6861
  830MOL0     H12039   3.173   3.856  10.209  3.6889  0.2508  0.7580
  830MOL0     H12040   2.733   3.805  10.223  1.2375  0.0095  0.1374
  830MOL0     H12041   2.763   3.755  10.378 -0.0669 -1.7982 -1.0756
  830MOL0     H12042   2.891   3.979  10.420  0.5248  2.0327 -0.6293
  830MOL0     H12043   2.730   3.999  10.351  0.1221 -0.3303 -0.9020
  830MOL0     H12044   2.967   4.018  10.186  0.3521 -0.7507  0.0535
  830MOL0     H12045   2.872   4.152  10.268 -1.0747 -2.5416  3.0196
  830MOL0     H12046   2.666   4.090  10.141 -0.8718 -0.7389  0.1533
  830MOL0     H12047   2.761   3.961  10.061  1.5940 -0.4790  0.9199
  830MOL0     H12048   2.907   4.316   9.860 -2.2828  1.5837  0.5859
  830MOL0     H12049   2.936   3.591  10.442 -1.2101  2.2086  0.3167
  830MOL0     H12050   3.108   3.563  10.606 -0.8783  1.6778  0.9187
  831MOL0     O12051   1.891  10.622   7.525  0.1249 -0.8742  0.5820
  831MOL0     C12052   1.876  10.625   7.647  0.5312  0.7497  0.0028
  831MOL0     O12053   1.962  10.670   7.735  0.2901 -0.1219 -0.6536
  831MOL0     C12054   2.090  10.717   7.705 -0.3900 -0.3275  0.4494
  831MOL0     C12055   2.124  10.789   7.587  0.1488 -0.6279  0.1359
  831MOL0     C12056   2.246  10.850   7.574 -0.0803 -0.6719  0.1432
  831MOL0     C12057   2.348  10.828   7.674 -0.1635 -0.3578  1.2169
  831MOL0     O12058   2.479  10.878   7.663  0.3863 -0.3449 -0.3110
  831MOL0     C12059   2.576  10.885   7.772  0.4702  0.4796 -0.3877
  831MOL0     C12060   2.708  10.912   7.699 -0.3073  0.2113  0.0384
  831MOL0     C12061   2.814  10.995   7.777  0.1886 -0.8309  0.5353
  831MOL0     C12062   2.954  10.980   7.717 -0.3091 -0.3296 -0.2848
  831MOL0     C12063   3.037  11.089   7.805 -0.0801  0.2405  0.1425
  831MOL0     C12064   3.185  11.119   7.761 -0.1791  0.1540 -0.2021
  831MOL0     C12065   3.253  11.209   7.858 -0.2593 -0.2853  0.1932
  831MOL0     C12066   3.386  11.267   7.805  0.1878 -0.2239 -0.3029
  831MOL0     N12067   3.447  11.331   7.920 -0.1157 -0.8008  0.4919
  831MOL0     C12068   3.560  11.284   7.996  0.0792 -0.1748  0.1749
  831MOL0     C12069   3.587  11.381   8.091 -0.1883  0.4032  0.0618
  831MOL0     C12070   3.696  11.362   8.190  0.9240  0.4459 -1.4670
  831MOL0     C12071   3.675  11.248   8.292  0.3918 -0.2351 -0.3203
  831MOL0     C12072   3.533  11.227   8.360  0.5612 -0.5471  0.0869
  831MOL0     C12073   3.498  11.354   8.442  0.7194  0.5295  0.2216
  831MOL0     O12074   3.378  11.318   8.516  1.2006 -0.4190 -0.0177
  831MOL0     C12075   3.255  11.304   8.443 -0.2138 -0.1596 -0.3932
  831MOL0     C12076   3.146  11.265   8.514  0.2970  0.2367  0.1435
  831MOL0     C12077   3.020  11.234   8.453 -0.0984  0.7700 -0.6541
  831MOL0     C12078   2.910  11.189   8.540 -0.5877 -0.2773 -0.1052
  831MOL0     C12079   3.004  11.258   8.316 -0.0472  0.3368 -0.5077
  831MOL0     C12080   2.884  11.239   8.241  0.3889  0.3188  0.4757
  831MOL0     O12081   2.854  11.340   8.152 -0.3544  0.5562 -1.0013
  831MOL0     C12082   2.745  11.331   8.065  0.2645 -0.7234  0.8841
  831MOL0     C12083   2.709  11.452   8.012  0.0606  0.6900 -0.2293
  831MOL0     C12084   2.608  11.462   7.912  0.3467  0.6430  0.1052
  831MOL0     C12085   2.532  11.352   7.872 -0.3067 -0.8956 -1.0433
  831MOL0     O12086   2.432  11.359   7.776  0.2021 -0.5656 -0.1079
  831MOL0     C12087   2.302  11.323   7.816 -0.2019 -0.5241  0.8852
  831MOL0     C12088   2.266  11.181   7.766  0.2209 -0.1863 -0.5464
  831MOL0     C12089   2.114  11.151   7.746 -0.0489 -0.2740  0.0601
  831MOL0     C12090   2.043  11.168   7.882  0.1216 -0.6003  0.4770
  831MOL0     C12091   1.903  11.117   7.860 -0.0399  0.0604 -0.1426
  831MOL0     C12092   1.826  11.086   7.983 -0.5943  0.1528 -0.1521
  831MOL0     C12093   1.702  10.996   7.966  1.1305  0.5476  0.3041
  831MOL0     C12094   1.640  10.949   8.098 -0.0646 -0.6685  0.3331
  831MOL0    Cl12095   1.750  10.835   8.183  0.0998 -0.3626  0.4249
  831MOL0     C12096   2.571  11.224   7.929 -0.5552  0.6153  0.8977
  831MOL0     C12097   2.681  11.216   8.020  1.0299 -0.2717  0.8689
  831MOL0     O12098   2.799  11.151   8.267  0.0921 -0.2612  0.4708
  831MOL0     C12099   3.111  11.321   8.251  0.7345  0.1663  0.7725
  831MOL0     C12100   3.238  11.335   8.307 -0.3717 -0.5465 -0.5263
  831MOL0     N12101   3.482  11.467   8.088  0.1776  0.3456 -0.7107
  831MOL0     N12102   3.410  11.455   7.980  0.2060  0.5050 -0.2182
  831MOL0     C12103   2.311  10.748   7.777 -0.4975  0.2438 -1.0382
  831MOL0     C12104   2.181  10.707   7.800  0.2630  0.4636  0.1904
  831MOL0     C12105   1.751  10.579   7.699 -0.0984  0.5523 -0.5784
  831MOL0     C12106   1.673  10.504   7.614  0.3649  0.9003 -0.3871
  831MOL0     C12107   1.549  10.457   7.653  0.6291 -0.6393  0.3457
  831MOL0     C12108   1.502  10.461   7.786 -1.1675 -0.2711  0.2924
  831MOL0     O12109   1.388  10.425   7.835 -0.3426  0.2244  0.2330
  831MOL0     C12110   1.288  10.355   7.751 -0.3741 -0.5670 -0.4766
  831MOL0     C12111   1.329  10.214   7.730  0.3541  0.0314 -0.7167
  831MOL0     C12112   1.366  10.138   7.859 -0.0948  0.3318  0.3830
  831MOL0     C12113   1.418   9.996   7.840 -0.6167  0.8505 -0.2706
  831MOL0     C12114   1.440   9.916   7.972  0.7824 -0.2129 -0.7943
  831MOL0     C12115   1.468   9.857   8.070  0.4554 -0.4280 -0.3730
  831MOL0     C12116   1.584  10.528   7.874 -0.3647 -0.5469 -0.0793
  831MOL0     C12117   1.704  10.590   7.833 -0.2297  0.0226  0.4347
  831MOL0     H12118   2.049  10.807   7.512  2.7466 -1.3363 -2.8423
  831MOL0     H12119   2.264  10.921   7.494  0.8176 -0.3557  0.6061
  831MOL0     H12120   2.541  10.964   7.840 -2.4129  1.2241 -2.5273
  831MOL0     H12121   2.580  10.788   7.822 -1.2834 -0.3552 -1.7635
  831MOL0     H12122   2.751  10.814   7.675 -0.9928  0.2935 -1.6765
  831MOL0     H12123   2.687  10.959   7.603 -1.4124  1.8025  1.0043
  831MOL0     H12124   2.781  11.099   7.776  1.5217 -0.3570  2.2732
  831MOL0     H12125   2.822  10.959   7.880  1.8226 -0.3065  0.6212
  831MOL0     H12126   2.981  10.877   7.742 -2.0007 -0.7298  0.0216
  831MOL0     H12127   2.964  10.993   7.609  0.5001 -4.5856 -0.9041
  831MOL0     H12128   2.997  11.189   7.789  1.9902  0.7881 -2.2126
  831MOL0     H12129   3.026  11.071   7.912 -1.6846  2.0042  0.3110
  831MOL0     H12130   3.248  11.031   7.746 -0.2338  0.2908 -1.2978
  831MOL0     H12131   3.183  11.168   7.663  0.7511  0.9218  0.1466
  831MOL0     H12132   3.192  11.295   7.888  0.8179  0.3418  0.6510
  831MOL0     H12133   3.279  11.161   7.953  3.5384  0.0235 -0.5305
  831MOL0     H12134   3.366  11.329   7.717  5.2353  0.0169 -1.6036
  831MOL0     H12135   3.451  11.183   7.777  2.7759  0.2509  3.5456
  831MOL0     H12136   3.619  11.195   7.976  2.9458  1.4130  0.8906
  831MOL0     H12137   3.790  11.332   8.143  0.3537 -2.1168 -1.1416
  831MOL0     H12138   3.711  11.450   8.253  2.4476 -0.2483 -0.8290
  831MOL0     H12139   3.744  11.266   8.375  0.0290  0.3056 -0.1293
  831MOL0     H12140   3.707  11.160   8.235  6.2257  1.3922 -0.2084
  831MOL0     H12141   3.534  11.144   8.430 -4.0671  0.2232  1.3948
  831MOL0     H12142   3.464  11.205   8.278 -0.9174  4.0908 -0.2452
  831MOL0     H12143   3.484  11.439   8.374 -2.6053  1.0710  1.3952
  831MOL0     H12144   3.576  11.373   8.516  1.1299 -0.5885  0.0980
  831MOL0     H12145   3.158  11.249   8.621 -1.2528 -1.9657  0.0424
  831MOL0     H12146   2.826  11.259   8.548 -1.1878 -1.2047  2.6451
  831MOL0     H12147   2.868  11.096   8.499 -1.9449  0.3238 -0.1253
  831MOL0     H12148   2.953  11.158   8.635  1.4893  0.2154 -0.8459
  831MOL0     H12149   2.787  11.525   8.031  0.8175 -0.4225  1.0949
  831MOL0     H12150   2.595  11.555   7.857 -2.5791 -0.9279 -2.1360
  831MOL0     H12151   2.296  11.320   7.925 -1.9595  2.4342  0.9702
  831MOL0     H12152   2.238  11.407   7.786 -1.5611 -1.7791  0.0838
  831MOL0     H12153   2.310  11.161   7.668 -0.7079  2.5361 -1.5996
  831MOL0     H12154   2.304  11.108   7.838  2.2221  0.9387 -0.3879
  831MOL0     H12155   2.095  11.049   7.710 -0.8866  0.2419 -1.0269
  831MOL0     H12156   2.072  11.221   7.673 -0.0579 -0.2316  0.1057
  831MOL0     H12157   2.094  11.112   7.961  0.8377  1.2419  1.3548
  831MOL0     H12158   2.037  11.271   7.917  0.2874 -1.1043  2.0917
  831MOL0     H12159   1.904  11.030   7.794  0.4527  1.2498 -1.7558
  831MOL0     H12160   1.849  11.193   7.801  1.9755 -0.7028 -3.2159
  831MOL0     H12161   1.894  11.034   8.051 -1.2976 -0.2808  0.2337
  831MOL0     H12162   1.797  11.178   8.033 -0.4642 -0.7690  1.7035
  831MOL0     H12163   1.727  10.909   7.904  0.6587 -0.0046  0.8651
  831MOL0     H12164   1.637  11.052   7.898 -0.0607 -0.4596  0.5770
  831MOL0     H12165   1.545  10.895   8.087 -0.7152  0.0552  2.0253
  831MOL0     H12166   1.617  11.030   8.168 -0.2672  0.3377 -0.8816
  831MOL0     H12167   2.518  11.134   7.902  0.3916  0.3283 -0.1121
  831MOL0     H12168   2.722  11.119   8.045 -0.5012 -1.1869  0.0205
  831MOL0     H12169   3.106  11.354   8.148 -2.9800  1.7978  1.3154
  831MOL0     H12170   3.315  11.383   8.247 -0.4205  1.9226  1.2223
  831MOL0     H12171   2.363  10.750   7.872 -2.7875  0.7135  0.2935
  831MOL0     H12172   2.160  10.658   7.895 -2.7084  1.7843  0.3231
  831MOL0     H12173   1.688  10.485   7.508 -1.0952 -3.8756  0.0162
  831MOL0     H12174   1.487  10.415   7.574  1.4830 -0.7531 -0.2741
  831MOL0     H12175   1.193  10.366   7.804 -1.0429  0.5506 -1.8332
  831MOL0     H12176   1.279  10.382   7.645  1.7908  1.2056 -0.2807
  831MOL0     H12177   1.422  10.215   7.673  0.7686 -0.1906 -0.0594
  831MOL0     H12178   1.253  10.150   7.685  0.0106  0.8530 -1.3178
  831MOL0     H12179   1.276  10.134   7.922  0.6829 -0.1101  1.5009
  831MOL0     H12180   1.436  10.201   7.915 -0.1458  0.2873  0.4970
  831MOL0     H12181   1.509  10.004   7.781 -0.4071  0.8089  0.0438
  831MOL0     H12182   1.342   9.948   7.777 -2.5557  0.4916  2.1765
  831MOL0     H12183   1.483   9.797   8.158 -2.2966 -0.4528  0.1454
  831MOL0     H12184   1.554  10.521   7.978  0.4638 -0.4267  0.1744
  831MOL0     H12185   1.757  10.638   7.915  0.3063  0.3696 -0.1034
  832MOL0     O12186   2.895   7.846   5.817  0.1933  0.3696 -0.5575
  832MOL0     C12187   2.854   7.741   5.861  0.1704  0.7216 -0.7496
  832MOL0     O12188   2.731   7.724   5.926 -0.3345 -0.1855  0.5118
  832MOL0     C12189   2.650   7.830   5.957  0.2429  0.1993 -0.2404
  832MOL0     C12190   2.577   7.808   6.073  0.7633 -0.9820 -0.4482
  832MOL0     C12191   2.486   7.897   6.130 -0.1848 -0.0595 -0.4030
  832MOL0     C12192   2.462   8.015   6.056 -0.5669  1.3759 -0.9374
  832MOL0     O12193   2.379   8.112   6.090 -0.5717 -0.7205  0.4696
  832MOL0     C12194   2.333   8.109   6.225 -0.6559  0.0497 -0.1493
  832MOL0     C12195   2.241   8.232   6.252  0.5080 -0.0332 -0.4177
  832MOL0     C12196   2.160   8.231   6.383 -0.1705  0.0994  0.4451
  832MOL0     C12197   2.109   8.376   6.409 -0.8903  0.3877  0.7021
  832MOL0     C12198   2.004   8.390   6.513 -0.8165 -0.6590  0.0798
  832MOL0     C12199   1.956   8.534   6.536 -0.1652 -1.0961  1.3483
  832MOL0     C12200   1.850   8.544   6.640 -0.2268 -1.2565  1.1881
  832MOL0     C12201   1.789   8.687   6.646 -0.8562  0.1049 -0.1587
  832MOL0     N12202   1.682   8.680   6.745  0.0135 -0.2612 -0.0988
  832MOL0     C12203   1.559   8.621   6.713  0.0050 -0.7073 -0.4400
  832MOL0     C12204   1.480   8.663   6.816  0.0826 -0.2269  0.0623
  832MOL0     C12205   1.335   8.618   6.843 -0.5092  0.2149  0.2987
  832MOL0     C12206   1.237   8.720   6.803  0.8410 -0.7151 -0.0746
  832MOL0     C12207   1.250   8.846   6.879  0.1977  0.6156  0.4679
  832MOL0     C12208   1.238   8.831   7.028  1.0470 -0.5853 -0.1965
  832MOL0     O12209   1.206   8.958   7.085 -0.0263 -0.3947 -0.4648
  832MOL0     C12210   1.304   9.052   7.091  0.1271  0.1904 -0.0533
  832MOL0     C12211   1.444   9.039   7.066  0.0835 -0.5235 -0.4325
  832MOL0     C12212   1.530   9.141   7.051 -0.2961  0.3749 -1.0406
  832MOL0     C12213   1.671   9.106   7.052 -0.3344  0.1684 -0.2351
  832MOL0     C12214   1.483   9.271   7.066  0.5260 -0.1875 -0.1600
  832MOL0     C12215   1.565   9.396   7.044 -0.0112 -0.7465 -1.1044
  832MOL0     O12216   1.515   9.511   7.098 -0.6927  0.2620 -1.1554
  832MOL0     C12217   1.580   9.629   7.073  0.4724  0.0550  0.0400
  832MOL0     C12218   1.518   9.733   7.002  0.2187  0.1897 -0.6741
  832MOL0     C12219   1.593   9.851   6.974  0.4989 -0.2350 -0.3090
  832MOL0     C12220   1.725   9.862   7.007  0.3996  0.1500 -0.8246
  832MOL0     O12221   1.800   9.978   7.001 -0.2952  1.5093 -0.6968
  832MOL0     C12222   1.825  10.014   6.864  1.5783  0.3887 -0.3742
  832MOL0     C12223   1.829  10.170   6.851 -0.9314 -0.7074  0.4543
  832MOL0     C12224   1.839  10.204   6.703  0.0570  0.2368 -0.2066
  832MOL0     C12225   1.802  10.351   6.679  0.0485 -0.2078 -0.0613
  832MOL0     C12226   1.861  10.397   6.539  0.1048 -0.0499  0.1157
  832MOL0     C12227   1.812  10.522   6.480 -0.3081  0.2579  0.6767
  832MOL0     C12228   1.796  10.645   6.573 -0.0635 -0.2476  1.0513
  832MOL0     C12229   1.678  10.734   6.524  0.2605  0.8161  0.5169
  832MOL0    Cl12230   1.703  10.785   6.353  0.1719  0.1718  0.1324
  832MOL0     C12231   1.776   9.757   7.084 -0.1664 -0.3585 -0.1382
  832MOL0     C12232   1.714   9.634   7.112  0.7980  0.1655  0.2407
  832MOL0     O12233   1.659   9.390   6.959  0.0763  0.0303  0.1374
  832MOL0     C12234   1.349   9.292   7.105  0.2067 -0.0764 -1.0346
  832MOL0     C12235   1.258   9.186   7.119  0.2542  0.4382  0.2461
  832MOL0     N12236   1.551   8.749   6.895  0.0039 -0.1360  0.5566
  832MOL0     N12237   1.670   8.768   6.850 -0.0649  0.1155  0.6720
  832MOL0     C12238   2.530   8.037   5.930  0.3698 -0.5444 -0.9958
  832MOL0     C12239   2.619   7.943   5.881 -0.1890  0.0027  0.3222
  832MOL0     C12240   2.926   7.616   5.835 -0.6816 -0.4111 -0.0060
  832MOL0     C12241   2.915   7.502   5.917 -0.4200  0.0402 -0.2512
  832MOL0     C12242   3.008   7.400   5.909 -0.3095  0.1004  0.0266
  832MOL0     C12243   3.093   7.387   5.806 -0.0250 -0.9755  1.1544
  832MOL0     O12244   3.187   7.286   5.779 -0.0044 -0.8024  0.1289
  832MOL0     C12245   3.223   7.206   5.888  0.3898  0.0644 -0.5322
  832MOL0     C12246   3.371   7.172   5.882 -0.0178  0.8512 -0.3470
  832MOL0     C12247   3.399   7.054   5.976 -1.2595 -0.5059  0.3751
  832MOL0     C12248   3.536   6.986   5.939  0.3642 -0.2786 -0.7808
  832MOL0     C12249   3.580   6.886   6.037  0.4290  0.3408  0.3904
  832MOL0     C12250   3.604   6.809   6.121  1.1823  1.0785 -0.5807
  832MOL0     C12251   3.088   7.492   5.709 -0.0070 -0.4743  0.5881
  832MOL0     C12252   3.013   7.613   5.732 -0.0089  0.5064  0.8518
  832MOL0     H12253   2.597   7.717   6.129  0.3802 -1.6098 -1.3053
  832MOL0     H12254   2.432   7.863   6.217 -2.4756 -1.2665 -2.1801
  832MOL0     H12255   2.279   8.020   6.258 -0.7711 -1.0676 -3.0511
  832MOL0     H12256   2.416   8.126   6.294  0.0432 -0.9325 -0.7381
  832MOL0     H12257   2.303   8.321   6.266  0.0694 -0.0813  2.3756
  832MOL0     H12258   2.183   8.249   6.161 -0.9087 -2.1354  0.0104
  832MOL0     H12259   2.076   8.161   6.379  0.2008 -0.3244 -0.8763
  832MOL0     H12260   2.231   8.201   6.461 -2.3154 -1.6740  1.8188
  832MOL0     H12261   2.194   8.438   6.440  0.3387  0.0841 -1.8304
  832MOL0     H12262   2.073   8.411   6.312 -1.7104  0.8790  1.1665
  832MOL0     H12263   1.920   8.326   6.484  0.7939 -2.5863 -0.6189
  832MOL0     H12264   2.050   8.352   6.605  0.7458  0.9453  0.0258
  832MOL0     H12265   2.038   8.602   6.559  0.7224 -0.8604 -1.9945
  832MOL0     H12266   1.905   8.562   6.443 -0.8991 -2.0112  1.4555
  832MOL0     H12267   1.775   8.472   6.605 -1.1940  0.3846 -0.2703
  832MOL0     H12268   1.892   8.518   6.738 -0.5783 -2.4157  1.0531
  832MOL0     H12269   1.748   8.726   6.552 -0.9758  1.0806  0.2887
  832MOL0     H12270   1.863   8.762   6.678  1.3415 -2.2153  0.4985
  832MOL0     H12271   1.547   8.549   6.632  0.2974 -0.5654 -0.6106
  832MOL0     H12272   1.313   8.525   6.790 -1.6560  0.9912 -0.6593
  832MOL0     H12273   1.319   8.606   6.950  0.6079  1.4159  0.6241
  832MOL0     H12274   1.136   8.678   6.816  1.2296 -1.7507 -0.3194
  832MOL0     H12275   1.244   8.738   6.695 -1.0939 -3.2047 -0.7212
  832MOL0     H12276   1.168   8.911   6.848  0.6092  0.6843 -0.5054
  832MOL0     H12277   1.344   8.896   6.855 -1.3318  2.7775 -1.4601
  832MOL0     H12278   1.309   8.770   7.084 -0.5918 -0.6547  1.9532
  832MOL0     H12279   1.141   8.781   7.028  1.5448 -1.5800 -0.6194
  832MOL0     H12280   1.481   8.937   7.073 -0.1111 -0.7240 -2.0418
  832MOL0     H12281   1.738   9.174   7.104 -0.2287 -1.3250  1.6977
  832MOL0     H12282   1.691   9.010   7.100 -0.6227  0.6078  0.7847
  832MOL0     H12283   1.694   9.112   6.945  1.6724 -0.2296  0.1460
  832MOL0     H12284   1.414   9.715   6.977 -0.7453  1.9482  1.6436
  832MOL0     H12285   1.546   9.937   6.929 -2.4291 -0.2462  2.3694
  832MOL0     H12286   1.921   9.965   6.845  0.1776 -2.6801 -0.1903
  832MOL0     H12287   1.754   9.969   6.794  1.4081  1.5717 -0.9957
  832MOL0     H12288   1.739  10.208   6.901  0.8326  1.3989  2.2512
  832MOL0     H12289   1.908  10.220   6.908 -2.5751  3.0967 -0.2860
  832MOL0     H12290   1.778  10.140   6.639  0.5025 -0.9770  0.5590
  832MOL0     H12291   1.943  10.182   6.673 -0.2776 -1.2139 -0.3911
  832MOL0     H12292   1.694  10.366   6.691 -0.1357  0.3908 -2.1260
  832MOL0     H12293   1.853  10.404   6.759 -0.8432 -1.3066  1.2863
  832MOL0     H12294   1.852  10.320   6.462 -0.2516  2.2319 -2.2541
  832MOL0     H12295   1.969  10.407   6.554  0.1642 -0.1363 -0.2419
  832MOL0     H12296   1.861  10.545   6.385 -1.5048 -0.7702 -0.2341
  832MOL0     H12297   1.709  10.492   6.457 -0.4825 -0.1827  1.9386
  832MOL0     H12298   1.876  10.719   6.568 -1.0794  0.8251  0.2081
  832MOL0     H12299   1.793  10.617   6.679  2.8192 -0.0974  1.2670
  832MOL0     H12300   1.660  10.822   6.586 -2.1628 -0.7679  2.2391
  832MOL0     H12301   1.582  10.681   6.529  0.2995  0.8154  1.3943
  832MOL0     H12302   1.880   9.769   7.112 -0.0090  1.2988 -1.2858
  832MOL0     H12303   1.759   9.556   7.173  1.6569  0.3881 -0.0800
  832MOL0     H12304   1.318   9.395   7.116  3.8837  1.0275  0.2938
  832MOL0     H12305   1.154   9.195   7.150  0.2978 -1.3329  1.0419
  832MOL0     H12306   2.493   8.124   5.877 -0.9106 -0.1739  0.4353
  832MOL0     H12307   2.667   7.964   5.786  1.7591  1.0657  1.4791
  832MOL0     H12308   2.840   7.498   5.995 -0.8456  0.6579 -0.6081
  832MOL0     H12309   2.997   7.329   5.991 -3.4122  0.1174 -0.2402
  832MOL0     H12310   3.195   7.262   5.978 -1.6461 -0.8762 -0.5292
  832MOL0     H12311   3.154   7.121   5.896  1.4902 -0.7581  0.5700
  832MOL0     H12312   3.432   7.251   5.927  0.8737 -0.7045  1.2936
  832MOL0     H12313   3.403   7.150   5.779  0.5921 -2.2351  0.4022
  832MOL0     H12314   3.325   6.975   5.960 -1.6004 -0.1264  0.0884
  832MOL0     H12315   3.402   7.088   6.080 -1.3225 -0.7152  0.4473
  832MOL0     H12316   3.607   7.069   5.942  0.0602 -0.0357  0.0543
  832MOL0     H12317   3.529   6.946   5.837  0.3960 -0.6469 -0.6380
  832MOL0     H12318   3.604   6.742   6.205 -2.0160 -2.1118 -2.8128
  832MOL0     H12319   3.154   7.490   5.622 -1.6985 -2.5976 -0.7573
  832MOL0     H12320   3.036   7.702   5.674 -1.2992 -0.7882 -1.8176
  833MOL0     O12321   5.058   3.811   0.528  0.0601  0.2329  0.9399
  833MOL0     C12322   5.001   3.729   0.605 -0.7991  0.3271 -0.6293
  833MOL0     O12323   4.978   3.601   0.582 -0.7091  1.2961 -0.0726
  833MOL0     C12324   5.032   3.536   0.473 -0.0543  0.0020  0.0281
  833MOL0     C12325   4.944   3.504   0.367  0.6715  0.1136  0.8039
  833MOL0     C12326   5.003   3.433   0.256  0.5158 -0.1368 -0.4799
  833MOL0     C12327   5.132   3.379   0.259  0.1110 -0.5181 -0.1285
  833MOL0     O12328   5.158   3.295   0.156  0.1832 -0.3458  0.4158
  833MOL0     C12329   5.285   3.231   0.144  0.4234  0.5279 -0.5178
  833MOL0     C12330   5.332   3.217   0.000  0.1888  0.0870  0.0511
  833MOL0     C12331   5.485   3.196  -0.016  0.6503 -0.2253 -0.6165
  833MOL0     C12332   5.515   3.173  -0.172  0.1842 -0.6208  0.4519
  833MOL0     C12333   5.654   3.123  -0.195  0.2724 -0.4851  0.2001
  833MOL0     C12334   5.752   3.240  -0.180  0.4747 -0.0423 -0.6711
  833MOL0     C12335   5.891   3.219  -0.235  0.8791  0.1669 -0.1211
  833MOL0     C12336   5.899   3.193  -0.392  0.6160 -0.1169 -0.3576
  833MOL0     N12337   6.036   3.214  -0.446  1.1015 -0.3106 -0.2228
  833MOL0     C12338   6.133   3.118  -0.448 -0.1388 -0.1116 -0.2965
  833MOL0     C12339   6.244   3.170  -0.499 -0.7320 -0.4202 -0.1546
  833MOL0     C12340   6.373   3.106  -0.520 -0.2478  0.3859  0.0451
  833MOL0     C12341   6.487   3.183  -0.452  0.3633 -0.4340  0.3586
  833MOL0     C12342   6.618   3.134  -0.493  0.1030 -0.2045 -0.2369
  833MOL0     C12343   6.641   2.983  -0.506 -0.4182  0.6108 -0.4604
  833MOL0     O12344   6.788   2.959  -0.506 -0.2776 -0.1258 -0.5162
  833MOL0     C12345   6.851   2.870  -0.426 -0.8551  0.1581 -0.8083
  833MOL0     C12346   6.937   2.776  -0.488  0.4553  0.0496 -0.2375
  833MOL0     C12347   7.001   2.673  -0.418 -0.4387 -0.6595 -0.7567
  833MOL0     C12348   7.091   2.584  -0.501  1.1007 -0.6821  0.4140
  833MOL0     C12349   6.977   2.665  -0.278 -0.4588  0.1676 -0.0816
  833MOL0     C12350   7.041   2.558  -0.202  0.8085 -0.6697 -0.5943
  833MOL0     O12351   7.060   2.440  -0.274  0.9483  0.0307  0.6700
  833MOL0     C12352   7.105   2.329  -0.202 -0.6960  0.1301 -0.4830
  833MOL0     C12353   7.201   2.335  -0.099  0.2755 -0.4560 -0.6143
  833MOL0     C12354   7.232   2.218  -0.021  0.2160  0.9559  0.3279
  833MOL0     C12355   7.162   2.095  -0.049  0.2587  0.5014  0.8999
  833MOL0     O12356   7.173   1.978   0.026 -0.0688 -0.0530  0.7159
  833MOL0     C12357   7.299   1.924   0.049  0.2303  0.2049 -0.1347
  833MOL0     C12358   7.273   1.802   0.136  0.9603  0.0084  0.0055
  833MOL0     C12359   7.400   1.728   0.184 -0.2419 -0.0306 -0.6878
  833MOL0     C12360   7.481   1.656   0.078 -0.1328  0.9079  0.1485
  833MOL0     C12361   7.609   1.588   0.137  0.5918 -0.7741 -0.1162
  833MOL0     C12362   7.703   1.530   0.038  0.4021 -0.0148 -0.4303
  833MOL0     C12363   7.827   1.480   0.111  0.5853  0.2992 -0.3493
  833MOL0     C12364   7.916   1.417   0.009  0.0744  0.5778  0.2005
  833MOL0    Cl12365   7.959   1.537  -0.115  0.0755 -0.0871 -0.1725
  833MOL0     C12366   7.086   2.089  -0.164 -0.2909  0.6026  0.8700
  833MOL0     C12367   7.058   2.202  -0.240  0.1586 -0.3580 -1.4209
  833MOL0     O12368   7.058   2.583  -0.081  0.1078 -0.6482 -0.0804
  833MOL0     C12369   6.908   2.769  -0.215 -0.2742 -0.6279  0.2050
  833MOL0     C12370   6.844   2.865  -0.292  1.6095 -1.0897  0.4513
  833MOL0     N12371   6.214   3.304  -0.531 -0.6350  0.1593  0.4564
  833MOL0     N12372   6.091   3.325  -0.498 -0.2083  0.5415  0.7242
  833MOL0     C12373   5.204   3.408   0.372 -0.0878 -0.5711  0.6312
  833MOL0     C12374   5.154   3.484   0.476  0.2610 -0.3824 -0.1388
  833MOL0     C12375   4.938   3.804   0.724  0.2881  0.8719 -0.1884
  833MOL0     C12376   4.948   3.945   0.727 -0.0890 -1.1043 -0.9430
  833MOL0     C12377   4.887   4.022   0.837  0.8538  0.4661  0.0250
  833MOL0     C12378   4.793   3.954   0.919 -0.0583 -0.4368  0.8552
  833MOL0     O12379   4.711   4.013   1.005 -0.1425 -0.5578  0.4306
  833MOL0     C12380   4.738   4.144   1.055  0.0052 -0.5764 -0.5257
  833MOL0     C12381   4.699   4.149   1.209 -0.2455  0.6305 -0.2780
  833MOL0     C12382   4.807   4.084   1.292 -0.6534 -0.7715 -0.4879
  833MOL0     C12383   4.759   4.032   1.431  0.0809  0.1214 -0.2098
  833MOL0     C12384   4.740   4.147   1.520  0.8051 -0.3353 -0.9291
  833MOL0     C12385   4.709   4.243   1.592  0.3764 -0.2511  0.4103
  833MOL0     C12386   4.776   3.811   0.904  0.8784 -0.2329 -0.0961
  833MOL0     C12387   4.851   3.744   0.807  0.6599 -0.2738 -0.3582
  833MOL0     H12388   4.842   3.541   0.360 -0.1597 -2.1601 -0.0411
  833MOL0     H12389   4.938   3.423   0.169  0.9877  2.3899 -1.2194
  833MOL0     H12390   5.371   3.288   0.182  0.2089  1.3150 -1.2124
  833MOL0     H12391   5.283   3.129   0.185 -1.1408  1.2675  1.3973
  833MOL0     H12392   5.272   3.135  -0.039 -1.6814 -0.4587  3.5944
  833MOL0     H12393   5.294   3.309  -0.045 -0.4782 -0.5555 -0.7085
  833MOL0     H12394   5.541   3.278   0.029 -2.1843  1.2233  0.4898
  833MOL0     H12395   5.514   3.106   0.040  0.6583  1.3348  2.0391
  833MOL0     H12396   5.438   3.110  -0.217 -1.9263  1.3897  1.0683
  833MOL0     H12397   5.508   3.269  -0.224  0.1172 -0.2280  1.1732
  833MOL0     H12398   5.680   3.044  -0.124 -0.7351 -0.0675  1.0744
  833MOL0     H12399   5.662   3.090  -0.298 -1.8863 -0.8099  0.0846
  833MOL0     H12400   5.707   3.333  -0.217  0.2146  0.6393  1.2672
  833MOL0     H12401   5.758   3.262  -0.073 -0.0873  2.1265 -1.0405
  833MOL0     H12402   5.959   3.305  -0.229  0.0317  0.8659 -0.2678
  833MOL0     H12403   5.927   3.141  -0.169 -1.6177 -1.1542 -0.1811
  833MOL0     H12404   5.828   3.255  -0.446 -1.5829 -0.5953  1.7540
  833MOL0     H12405   5.882   3.086  -0.413  2.4075 -0.9261  1.8794
  833MOL0     H12406   6.137   3.011  -0.429  0.6934 -0.2226 -1.0471
  833MOL0     H12407   6.380   3.004  -0.481 -0.0316  1.0257  1.7954
  833MOL0     H12408   6.384   3.107  -0.629  0.3870  0.3725  0.1055
  833MOL0     H12409   6.477   3.178  -0.343  0.7394  1.1405  0.4912
  833MOL0     H12410   6.487   3.289  -0.478 -2.7748  0.0024  1.7229
  833MOL0     H12411   6.695   3.167  -0.423  1.0052  2.0355 -2.1386
  833MOL0     H12412   6.648   3.179  -0.588 -0.3934  1.4464  0.3560
  833MOL0     H12413   6.595   2.935  -0.593 -0.5864 -1.3116  0.6169
  833MOL0     H12414   6.594   2.917  -0.432 -3.4245  1.1642 -1.7318
  833MOL0     H12415   6.943   2.801  -0.593  1.6363  0.7271 -0.0334
  833MOL0     H12416   7.114   2.624  -0.600 -1.5946 -0.9635 -0.4090
  833MOL0     H12417   7.181   2.571  -0.440  1.8261  0.4066 -0.3867
  833MOL0     H12418   7.050   2.483  -0.510 -1.7595  0.3477  1.0288
  833MOL0     H12419   7.259   2.426  -0.088 -0.2788 -0.3393  2.1303
  833MOL0     H12420   7.304   2.214   0.060  0.7053 -1.5905 -0.1531
  833MOL0     H12421   7.352   1.882  -0.037  3.9235  1.2183  1.4043
  833MOL0     H12422   7.369   2.002   0.083  0.8088  0.5931 -2.1017
  833MOL0     H12423   7.233   1.840   0.231  0.9120 -1.5904  0.6489
  833MOL0     H12424   7.214   1.731   0.077  0.8801  2.2235 -2.8241
  833MOL0     H12425   7.376   1.648   0.255 -1.3344  0.7358 -0.1711
  833MOL0     H12426   7.456   1.807   0.236 -1.5180 -0.1756  0.9905
  833MOL0     H12427   7.419   1.577   0.035 -0.0938  0.0424  1.5986
  833MOL0     H12428   7.515   1.724  -0.000  3.7531 -0.2211  0.6642
  833MOL0     H12429   7.582   1.509   0.209 -0.0936 -0.3832  0.0638
  833MOL0     H12430   7.661   1.670   0.186 -1.1505  1.0271 -1.1476
  833MOL0     H12431   7.647   1.454  -0.019  3.1588 -2.1685 -0.5008
  833MOL0     H12432   7.724   1.611  -0.032 -2.2743 -0.3120 -1.7284
  833MOL0     H12433   7.799   1.410   0.190  0.4466  2.6767  1.8343
  833MOL0     H12434   7.873   1.565   0.162  0.2760 -0.7985  1.8526
  833MOL0     H12435   7.872   1.328  -0.035  2.0263  0.3372 -1.4062
  833MOL0     H12436   8.013   1.398   0.056 -0.0722  1.0327  0.6950
  833MOL0     H12437   7.057   1.987  -0.188  0.7220  0.1985  1.3031
  833MOL0     H12438   7.000   2.190  -0.332 -0.5525 -1.3575 -0.8582
  833MOL0     H12439   6.911   2.772  -0.106  2.7596 -2.6306  0.2783
  833MOL0     H12440   6.790   2.950  -0.250  0.1700 -1.0626 -1.3401
  833MOL0     H12441   5.308   3.375   0.373  1.0167  2.3614  4.1532
  833MOL0     H12442   5.214   3.503   0.565  3.3428 -2.3498 -1.6260
  833MOL0     H12443   5.008   3.998   0.654 -0.4100  1.0429  0.2770
  833MOL0     H12444   4.890   4.130   0.839 -1.0481  0.5902 -0.9835
  833MOL0     H12445   4.840   4.179   1.038 -1.7495  3.7465 -4.3031
  833MOL0     H12446   4.671   4.216   1.005 -0.3820 -1.0538 -0.7005
  833MOL0     H12447   4.600   4.103   1.224  0.3886 -0.8235 -0.3918
  833MOL0     H12448   4.697   4.254   1.240  1.8357  0.4669  0.5656
  833MOL0     H12449   4.897   4.145   1.303  1.1669 -2.5474 -4.0258
  833MOL0     H12450   4.837   3.990   1.245  0.5990 -0.2496 -0.7861
  833MOL0     H12451   4.840   3.976   1.480  0.0211  1.3035  1.3011
  833MOL0     H12452   4.667   3.973   1.422  1.0934 -1.6074  0.3288
  833MOL0     H12453   4.690   4.324   1.659  0.6982  2.0631 -2.1254
  833MOL0     H12454   4.704   3.765   0.971  1.2706  2.0427  2.0258
  833MOL0     H12455   4.817   3.643   0.787  0.8847 -0.3144 -0.5492
  834MOL0     O12456   0.223   4.464   4.531  0.3289  0.6411  0.5816
  834MOL0     C12457   0.246   4.344   4.544 -0.0800  0.0930 -0.1429
  834MOL0     O12458   0.164   4.258   4.609 -0.2247  0.0880 -0.4306
  834MOL0     C12459   0.033   4.259   4.585  1.1072  0.0473  0.7693
  834MOL0     C12460  -0.033   4.139   4.564 -0.4766 -1.3354 -0.9996
  834MOL0     C12461  -0.168   4.129   4.534 -0.3483 -0.0488  0.0716
  834MOL0     C12462  -0.258   4.237   4.548 -0.2818 -0.0863  1.0554
  834MOL0     O12463  -0.384   4.232   4.496 -0.0869  0.6024  0.3455
  834MOL0     C12464  -0.425   4.324   4.407 -0.3494 -0.2313 -0.3876
  834MOL0     C12465  -0.552   4.282   4.351  1.6402 -0.2836  0.1531
  834MOL0     C12466  -0.660   4.247   4.445 -0.1553 -0.3297  1.0346
  834MOL0     C12467  -0.695   4.331   4.572 -0.8481  0.2441  0.0152
  834MOL0     C12468  -0.835   4.327   4.617  0.9473 -0.8567 -0.8548
  834MOL0     C12469  -0.899   4.185   4.632  0.0442  0.6329 -0.1810
  834MOL0     C12470  -1.045   4.177   4.683 -0.5806  0.4863  1.1570
  834MOL0     C12471  -1.153   4.224   4.583 -0.4093  0.1574 -0.3627
  834MOL0     N12472  -1.285   4.227   4.649 -0.2975 -0.1112 -0.5316
  834MOL0     C12473  -1.394   4.152   4.614  1.0822  0.6969  0.0453
  834MOL0     C12474  -1.495   4.194   4.694 -0.2959  0.0435  0.3438
  834MOL0     C12475  -1.628   4.121   4.704 -0.2743  0.5263  0.2107
  834MOL0     C12476  -1.758   4.203   4.690  0.2604 -0.5726  0.2916
  834MOL0     C12477  -1.860   4.144   4.783  0.2080 -0.8397 -0.5087
  834MOL0     C12478  -1.984   4.235   4.818 -0.6738  0.3213 -0.4564
  834MOL0     O12479  -2.059   4.177   4.924  0.0751 -0.0108 -0.2727
  834MOL0     C12480  -2.148   4.255   4.991  0.6134 -0.3587 -0.5253
  834MOL0     C12481  -2.196   4.216   5.113  0.0452  0.4416 -0.0991
  834MOL0     C12482  -2.296   4.288   5.185 -0.0033  0.6384  0.0518
  834MOL0     C12483  -2.336   4.240   5.325 -0.1920  0.6283 -0.2654
  834MOL0     C12484  -2.349   4.412   5.133  0.2003 -0.2517 -0.3335
  834MOL0     C12485  -2.456   4.499   5.195 -0.3200  0.1311 -0.4643
  834MOL0     O12486  -2.499   4.604   5.122 -0.2121 -0.5401 -0.5055
  834MOL0     C12487  -2.603   4.671   5.178  0.0878 -0.4333 -0.1846
  834MOL0     C12488  -2.733   4.648   5.136  1.1451  0.5828 -0.2586
  834MOL0     C12489  -2.841   4.730   5.193 -0.5851 -0.1845 -0.8119
  834MOL0     C12490  -2.812   4.821   5.297  0.1743  0.0422 -0.1143
  834MOL0     O12491  -2.897   4.905   5.356  0.6717 -0.4733 -0.3624
  834MOL0     C12492  -3.033   4.901   5.321  0.0584  0.9594 -0.4036
  834MOL0     C12493  -3.094   4.995   5.423 -0.2418  0.7781  0.8436
  834MOL0     C12494  -3.246   5.011   5.407  0.0814  0.5639  0.2179
  834MOL0     C12495  -3.296   5.108   5.510  0.6019  0.0374 -0.3734
  834MOL0     C12496  -3.451   5.119   5.495  0.2945 -0.2962  0.3074
  834MOL0     C12497  -3.511   5.220   5.587  0.0036  0.4843  0.4826
  834MOL0     C12498  -3.634   5.283   5.526  1.0271 -0.4165  0.2114
  834MOL0     C12499  -3.742   5.173   5.528 -0.3092  0.5523  0.1297
  834MOL0    Cl12500  -3.786   5.109   5.692  0.2467  0.2801 -0.4454
  834MOL0     C12501  -2.683   4.842   5.338 -0.1223  0.2725  0.2099
  834MOL0     C12502  -2.580   4.777   5.271  0.1090 -0.2369 -0.3549
  834MOL0     O12503  -2.498   4.467   5.310  0.7842 -0.8025 -0.5517
  834MOL0     C12504  -2.288   4.454   5.008 -0.1993 -0.4452 -0.0207
  834MOL0     C12505  -2.193   4.383   4.945  0.2247 -0.7509 -0.2251
  834MOL0     N12506  -1.449   4.299   4.774 -0.3935 -0.8423 -0.6441
  834MOL0     N12507  -1.321   4.311   4.750 -0.5646 -0.6421 -0.9166
  834MOL0     C12508  -0.194   4.359   4.578  1.1136 -0.3340 -0.3460
  834MOL0     C12509  -0.050   4.377   4.585  0.8250 -0.0110 -0.0287
  834MOL0     C12510   0.369   4.289   4.493 -0.6311 -0.3391 -0.3559
  834MOL0     C12511   0.405   4.146   4.503  0.5083 -0.8501  1.0696
  834MOL0     C12512   0.513   4.091   4.439  0.3858 -0.0129 -0.3634
  834MOL0     C12513   0.604   4.172   4.375 -0.3765  0.6784 -0.5065
  834MOL0     O12514   0.716   4.103   4.317  0.4920  0.7396 -0.5294
  834MOL0     C12515   0.836   4.177   4.278 -0.5926 -0.2759 -0.7974
  834MOL0     C12516   0.943   4.187   4.389 -0.2575 -0.3476  0.2874
  834MOL0     C12517   0.956   4.045   4.467  0.5894 -0.9306 -0.1306
  834MOL0     C12518   1.091   4.033   4.547 -0.1235 -0.7237  0.3611
  834MOL0     C12519   1.107   4.139   4.654 -0.6245 -0.0068  0.4140
  834MOL0     C12520   1.114   4.203   4.761 -0.2792  0.5546  0.0094
  834MOL0     C12521   0.574   4.305   4.356  0.2888 -0.3192  0.2437
  834MOL0     C12522   0.459   4.366   4.420  0.3558 -0.5395  0.2322
  834MOL0     H12523   0.025   4.047   4.557  0.6892 -1.0253  2.6647
  834MOL0     H12524  -0.222   4.043   4.494  1.0371 -0.5537 -0.7817
  834MOL0     H12525  -0.438   4.417   4.462  3.1489 -0.6118  1.3944
  834MOL0     H12526  -0.352   4.339   4.327 -0.3834  0.4807 -0.2914
  834MOL0     H12527  -0.596   4.364   4.293  0.3648 -0.6623  0.5518
  834MOL0     H12528  -0.530   4.203   4.279  0.2439 -0.1656 -0.4444
  834MOL0     H12529  -0.743   4.260   4.375 -0.7310  0.9717  1.9208
  834MOL0     H12530  -0.633   4.144   4.471 -0.0184 -0.7588 -0.7083
  834MOL0     H12531  -0.646   4.283   4.658 -1.2083  1.0777  0.6971
  834MOL0     H12532  -0.663   4.435   4.560 -2.5553  0.7008 -0.8559
  834MOL0     H12533  -0.841   4.378   4.714 -0.2574 -0.6914 -0.9979
  834MOL0     H12534  -0.901   4.381   4.549 -3.7337  0.4276  3.9997
  834MOL0     H12535  -0.891   4.129   4.538  1.6695  0.4959  0.0026
  834MOL0     H12536  -0.831   4.139   4.705  0.4049  2.6821  0.8401
  834MOL0     H12537  -1.053   4.069   4.696  1.7607  0.0583 -0.3628
  834MOL0     H12538  -1.055   4.227   4.780 -1.5476  0.5724  1.0287
  834MOL0     H12539  -1.146   4.165   4.492  1.0960 -0.3998  0.0790
  834MOL0     H12540  -1.137   4.329   4.553 -1.2288 -0.1317 -1.9212
  834MOL0     H12541  -1.400   4.070   4.543 -0.3698  1.8815 -1.2895
  834MOL0     H12542  -1.635   4.033   4.639 -0.9790  0.7261  0.0145
  834MOL0     H12543  -1.644   4.081   4.805 -1.7973 -0.2572 -0.3153
  834MOL0     H12544  -1.787   4.201   4.585 -0.0984  3.5472  0.1479
  834MOL0     H12545  -1.733   4.306   4.717  1.8633 -1.2269  1.4315
  834MOL0     H12546  -1.823   4.117   4.882 -1.6676  1.6076  0.9882
  834MOL0     H12547  -1.901   4.056   4.732 -2.9361 -1.7873  3.1379
  834MOL0     H12548  -2.056   4.249   4.737 -0.9430 -3.6239 -1.1194
  834MOL0     H12549  -1.950   4.335   4.846  0.3618 -0.2697  0.4799
  834MOL0     H12550  -2.156   4.123   5.153  0.8760  1.2562  0.9949
  834MOL0     H12551  -2.443   4.222   5.337  0.2204 -1.2463  1.0757
  834MOL0     H12552  -2.293   4.142   5.350 -1.2934  0.3401  0.5991
  834MOL0     H12553  -2.303   4.318   5.395 -3.1615  1.7175  0.0886
  834MOL0     H12554  -2.765   4.572   5.066  1.5972 -0.9148  1.0924
  834MOL0     H12555  -2.938   4.726   5.145 -0.6537 -0.9704 -0.6095
  834MOL0     H12556  -3.055   4.935   5.220 -3.8109  0.7828  0.2259
  834MOL0     H12557  -3.068   4.798   5.336  1.0246  1.0164  3.1540
  834MOL0     H12558  -3.068   4.957   5.522 -0.1459 -1.7308 -0.0790
  834MOL0     H12559  -3.050   5.095   5.422  3.2942 -0.6277  0.7184
  834MOL0     H12560  -3.299   4.915   5.418  0.5202  0.5200  2.3258
  834MOL0     H12561  -3.266   5.042   5.304 -1.9331 -2.2219 -0.3626
  834MOL0     H12562  -3.276   5.079   5.613 -0.1071  0.9084  0.0294
  834MOL0     H12563  -3.249   5.205   5.491  0.2696  0.4626  0.8914
  834MOL0     H12564  -3.496   5.020   5.489 -1.7964  0.5830  0.4861
  834MOL0     H12565  -3.452   5.161   5.394 -2.1347  2.3615  1.2922
  834MOL0     H12566  -3.531   5.165   5.680  0.6142 -1.8846 -0.6972
  834MOL0     H12567  -3.439   5.301   5.599  2.7151 -1.8012  0.6779
  834MOL0     H12568  -3.631   5.340   5.433 -0.5782  0.0930  0.4387
  834MOL0     H12569  -3.667   5.365   5.591  1.8582  2.5959 -2.8982
  834MOL0     H12570  -3.713   5.100   5.452  2.2249  2.6391 -1.0549
  834MOL0     H12571  -3.830   5.229   5.496 -1.2279 -0.6812  0.4247
  834MOL0     H12572  -2.647   4.906   5.417  1.0148 -0.0141 -0.0549
  834MOL0     H12573  -2.474   4.791   5.289  0.7288 -2.0944 -2.1726
  834MOL0     H12574  -2.321   4.533   4.942 -1.6150 -0.6087  0.4633
  834MOL0     H12575  -2.158   4.427   4.852 -0.3018  0.1296 -0.0138
  834MOL0     H12576  -0.263   4.443   4.577  0.1033 -1.0868 -3.3857
  834MOL0     H12577  -0.015   4.479   4.597  0.3927  0.0870  0.4529
  834MOL0     H12578   0.347   4.078   4.564  1.7164  0.6604  4.1392
  834MOL0     H12579   0.534   3.989   4.469  0.5514  0.3280  0.7220
  834MOL0     H12580   0.887   4.114   4.205 -0.3829 -0.9989 -0.0416
  834MOL0     H12581   0.817   4.282   4.252 -0.1273  0.9503  3.1185
  834MOL0     H12582   0.913   4.269   4.455 -2.5167 -1.7978  1.1974
  834MOL0     H12583   1.040   4.195   4.340  1.4649 -2.6176  2.9896
  834MOL0     H12584   0.953   3.965   4.392  1.5077  1.3484 -2.7860
  834MOL0     H12585   0.867   4.028   4.529 -1.2190  3.8240 -0.9506
  834MOL0     H12586   1.181   4.051   4.487 -0.9007  0.4773 -0.4990
  834MOL0     H12587   1.103   3.934   4.591 -1.2661 -2.4138 -2.8057
  834MOL0     H12588   1.122   4.251   4.856  1.2538 -1.2411  0.8717
  834MOL0     H12589   0.634   4.369   4.292  0.9393 -3.2590 -2.2607
  834MOL0     H12590   0.444   4.471   4.398 -2.2299  0.4360  5.2327
  835MOL0     O12591   8.465   1.443   3.333  0.2904 -0.9971  1.2804
  835MOL0     C12592   8.542   1.347   3.354 -0.2900  0.0980 -0.1292
  835MOL0     O12593   8.558   1.246   3.268 -0.6999  0.1057 -0.1344
  835MOL0     C12594   8.490   1.236   3.148 -0.1325  0.6235 -0.4697
  835MOL0     C12595   8.551   1.287   3.038  0.7291  0.1253  0.5321
  835MOL0     C12596   8.476   1.301   2.913  0.7426 -0.5325  0.1982
  835MOL0     C12597   8.347   1.246   2.902  0.7875  0.1871  0.3920
  835MOL0     O12598   8.288   1.259   2.778 -0.4354 -0.3880 -0.5152
  835MOL0     C12599   8.158   1.225   2.771  0.2160  0.7209  1.0540
  835MOL0     C12600   8.130   1.239   2.625  0.3723  0.4971  0.1839
  835MOL0     C12601   8.210   1.154   2.531 -0.1395 -0.0700 -0.6111
  835MOL0     C12602   8.141   1.144   2.388  0.3466  0.7486 -0.7254
  835MOL0     C12603   8.201   1.031   2.304 -0.3288 -0.5776 -0.6734
  835MOL0     C12604   8.132   1.005   2.174  0.6444 -0.0856 -0.0614
  835MOL0     C12605   8.206   0.901   2.095  0.0581  0.6294 -0.1979
  835MOL0     C12606   8.112   0.833   1.994 -0.1831 -0.8606  0.0194
  835MOL0     N12607   8.104   0.891   1.857 -0.4804  0.4767 -0.3772
  835MOL0     C12608   8.007   0.979   1.804  0.0163  0.9825 -0.1738
  835MOL0     C12609   8.025   0.992   1.676 -0.4261  0.2709  0.8286
  835MOL0     C12610   7.936   1.062   1.582 -0.0652  0.2071 -0.2410
  835MOL0     C12611   7.959   1.209   1.548  0.0591 -0.3429 -0.8583
  835MOL0     C12612   8.045   1.236   1.435 -0.0383  0.4186  0.1316
  835MOL0     C12613   8.050   1.386   1.410  0.4383 -0.6665 -0.3620
  835MOL0     O12614   8.183   1.436   1.393  0.1268 -0.0271 -0.3027
  835MOL0     C12615   8.224   1.450   1.262 -0.1665  0.9484 -1.2303
  835MOL0     C12616   8.153   1.406   1.148 -0.6538 -0.4108 -0.7135
  835MOL0     C12617   8.202   1.420   1.018  0.5315 -0.7895 -0.4893
  835MOL0     C12618   8.128   1.347   0.912 -0.6128  0.1399  0.2549
  835MOL0     C12619   8.318   1.500   0.994  0.6046  0.5859  0.0449
  835MOL0     C12620   8.368   1.522   0.856  0.4396  0.0546  0.2234
  835MOL0     O12621   8.505   1.549   0.849  0.3186  0.9053 -0.3180
  835MOL0     C12622   8.546   1.539   0.716  0.3104  0.6920  0.5934
  835MOL0     C12623   8.633   1.432   0.676  0.4938 -0.1577 -0.5004
  835MOL0     C12624   8.668   1.430   0.539 -1.0313 -0.4229 -0.6224
  835MOL0     C12625   8.616   1.521   0.445 -1.0060  0.0195  0.3070
  835MOL0     O12626   8.646   1.523   0.314 -0.0189  0.0466  0.2759
  835MOL0     C12627   8.775   1.496   0.275  0.3416 -0.5380  0.1192
  835MOL0     C12628   8.793   1.535   0.125 -0.1034 -0.0972 -0.0764
  835MOL0     C12629   8.741   1.435   0.033 -0.3886 -0.3233 -0.0165
  835MOL0     C12630   8.814   1.435  -0.099 -0.8153 -0.2426  0.5904
  835MOL0     C12631   8.787   1.306  -0.179 -0.4026 -0.0210  0.4338
  835MOL0     C12632   8.858   1.183  -0.125  0.6580 -0.1787  0.3037
  835MOL0     C12633   8.833   1.062  -0.231 -1.0961 -0.2028  0.7332
  835MOL0     C12634   8.962   1.023  -0.296 -0.9928 -0.5939  0.3260
  835MOL0    Cl12635   8.948   0.890  -0.422 -0.5989  0.3434 -0.1683
  835MOL0     C12636   8.525   1.613   0.488  0.3819  0.9144  0.5135
  835MOL0     C12637   8.502   1.626   0.623  0.4514 -0.1156 -0.6623
  835MOL0     O12638   8.288   1.534   0.760 -0.4119  0.0621  0.1697
  835MOL0     C12639   8.381   1.543   1.107 -0.0835 -0.4892 -0.3666
  835MOL0     C12640   8.337   1.519   1.240 -0.6236 -0.6076 -1.0631
  835MOL0     N12641   8.150   0.925   1.651 -0.6466 -0.5417 -0.4971
  835MOL0     N12642   8.197   0.874   1.758  0.1330 -0.3229  0.7369
  835MOL0     C12643   8.282   1.202   3.024  0.7997  0.0085  0.5113
  835MOL0     C12644   8.358   1.197   3.140  0.1016  0.5604  0.0954
  835MOL0     C12645   8.597   1.316   3.487  0.8060  0.0932 -0.2671
  835MOL0     C12646   8.574   1.405   3.588 -0.3283 -0.1360  1.1468
  835MOL0     C12647   8.620   1.379   3.720  0.7738 -1.1963 -0.2850
  835MOL0     C12648   8.693   1.273   3.752 -0.2202 -0.3786 -0.0156
  835MOL0     O12649   8.722   1.265   3.885  0.4328 -0.0740 -0.0563
  835MOL0     C12650   8.841   1.195   3.920  0.0859  0.6592 -0.7352
  835MOL0     C12651   8.865   1.219   4.085  0.0696  1.0085  0.1935
  835MOL0     C12652   9.002   1.162   4.108 -0.0414 -0.1886 -0.5665
  835MOL0     C12653   9.025   1.176   4.264  1.3000  0.0135  0.0235
  835MOL0     C12654   9.150   1.127   4.306 -0.1986  0.1494 -0.1082
  835MOL0     C12655   9.247   1.087   4.362 -0.7859  0.5803 -0.1443
  835MOL0     C12656   8.733   1.191   3.655 -0.0758  0.0683  0.3087
  835MOL0     C12657   8.682   1.205   3.529 -0.0294  0.5901  0.7992
  835MOL0     H12658   8.651   1.323   3.060  0.6813 -2.1080  5.7385
  835MOL0     H12659   8.513   1.351   2.824  1.5230  1.0841  1.3948
  835MOL0     H12660   8.144   1.120   2.796  0.8577  0.3487 -0.0561
  835MOL0     H12661   8.103   1.300   2.828 -0.3835  1.5781 -0.5874
  835MOL0     H12662   8.028   1.210   2.600 -0.2501  2.0572  0.8569
  835MOL0     H12663   8.149   1.344   2.601  1.8122  0.1354 -0.4310
  835MOL0     H12664   8.311   1.195   2.523  0.0806 -0.3024  0.7069
  835MOL0     H12665   8.209   1.056   2.579  0.6286  0.3432  0.2754
  835MOL0     H12666   8.032   1.132   2.395  0.4123 -1.6609 -2.4313
  835MOL0     H12667   8.153   1.236   2.330 -2.4754  0.4009 -2.0419
  835MOL0     H12668   8.305   1.059   2.284 -0.2117 -0.3416  0.2172
  835MOL0     H12669   8.217   0.936   2.357  0.1988 -0.0475  0.1286
  835MOL0     H12670   8.033   0.970   2.202  1.2459 -2.2981 -0.5056
  835MOL0     H12671   8.128   1.101   2.123  0.8437  2.1265  3.6694
  835MOL0     H12672   8.297   0.941   2.050  0.2614 -0.5683 -0.9090
  835MOL0     H12673   8.237   0.827   2.171  1.3868  1.9528  0.6218
  835MOL0     H12674   8.014   0.837   2.043  0.8838  1.7398  2.2481
  835MOL0     H12675   8.141   0.728   1.981  2.7097  0.1247 -2.5518
  835MOL0     H12676   7.917   1.019   1.850 -0.0310  1.1962 -0.4569
  835MOL0     H12677   7.953   1.009   1.488  1.9591  0.1285  0.1268
  835MOL0     H12678   7.830   1.038   1.600 -0.0723 -0.5600 -1.2153
  835MOL0     H12679   8.000   1.245   1.643 -3.2263 -1.9909  1.3998
  835MOL0     H12680   7.863   1.256   1.524 -0.1735  0.8319  1.9444
  835MOL0     H12681   8.015   1.176   1.348  3.1194 -0.7246 -0.3062
  835MOL0     H12682   8.140   1.196   1.471 -0.9837 -0.1142  2.1461
  835MOL0     H12683   8.031   1.449   1.497  3.8343 -0.0149  0.0382
  835MOL0     H12684   7.971   1.425   1.345 -0.9262  0.0061  1.5937
  835MOL0     H12685   8.061   1.349   1.153  0.3767 -2.0686  0.0843
  835MOL0     H12686   8.056   1.277   0.958 -1.4186  1.0725  0.4484
  835MOL0     H12687   8.069   1.406   0.840 -0.6292 -2.1979 -1.8008
  835MOL0     H12688   8.208   1.293   0.861  0.2274  1.4791  0.1104
  835MOL0     H12689   8.663   1.351   0.741  2.8933 -0.2402 -1.6053
  835MOL0     H12690   8.743   1.356   0.513 -0.4139  0.0112 -0.0691
  835MOL0     H12691   8.845   1.548   0.342 -0.3415 -1.9648  2.0395
  835MOL0     H12692   8.799   1.390   0.286 -1.0911 -1.1593 -2.0533
  835MOL0     H12693   8.738   1.629   0.111  1.5481  1.0161  0.5402
  835MOL0     H12694   8.897   1.557   0.098  0.5952  0.4375  2.7663
  835MOL0     H12695   8.635   1.442   0.006  0.0399 -0.9377 -2.0513
  835MOL0     H12696   8.753   1.339   0.084  2.6195  0.1994  0.3954
  835MOL0     H12697   8.792   1.509  -0.176  2.2313 -2.7169 -3.0409
  835MOL0     H12698   8.922   1.443  -0.081 -1.0294  2.3284  1.0065
  835MOL0     H12699   8.829   1.327  -0.278  1.1000  1.6694  1.3594
  835MOL0     H12700   8.683   1.275  -0.191  0.0125 -2.0066  1.5703
  835MOL0     H12701   8.965   1.197  -0.107  0.3255  0.5014  1.9569
  835MOL0     H12702   8.814   1.159  -0.028 -2.5642  1.0709 -0.7272
  835MOL0     H12703   8.768   1.093  -0.313  0.7357  0.8260 -0.3831
  835MOL0     H12704   8.791   0.970  -0.189 -0.3798 -1.7380 -1.6738
  835MOL0     H12705   9.048   1.007  -0.231 -1.8748  3.3642  2.8539
  835MOL0     H12706   8.982   1.111  -0.358 -2.8367 -0.0510  0.4417
  835MOL0     H12707   8.484   1.683   0.415  3.5829  2.8796  0.4265
  835MOL0     H12708   8.437   1.708   0.652  0.1410 -0.2371 -1.0031
  835MOL0     H12709   8.459   1.618   1.100  2.0494 -2.2513  2.1279
  835MOL0     H12710   8.388   1.570   1.322 -2.1393 -0.9672  0.1418
  835MOL0     H12711   8.178   1.171   3.020  0.0650  2.3481 -2.3492
  835MOL0     H12712   8.309   1.162   3.229  0.6182  0.6360  0.4168
  835MOL0     H12713   8.519   1.497   3.573 -0.9616 -0.5593  0.8313
  835MOL0     H12714   8.597   1.452   3.796 -4.0256 -1.5733 -1.1030
  835MOL0     H12715   8.817   1.088   3.913  0.7727  0.4439  0.0388
  835MOL0     H12716   8.930   1.223   3.864  0.8926 -0.2542  0.0603
  835MOL0     H12717   8.792   1.169   4.150 -0.7233  2.3650  0.3846
  835MOL0     H12718   8.869   1.326   4.103  0.3803  1.5197 -2.4672
  835MOL0     H12719   9.080   1.212   4.049  1.3526 -1.8237 -0.1932
  835MOL0     H12720   9.006   1.058   4.075 -0.4312 -0.1609 -0.7061
  835MOL0     H12721   8.945   1.119   4.313  1.4353  0.3539  0.6468
  835MOL0     H12722   9.013   1.277   4.304  0.3334 -0.2787  0.5158
  835MOL0     H12723   9.344   1.064   4.401  0.0799  0.2321 -2.3689
  835MOL0     H12724   8.794   1.105   3.680 -1.4381 -0.6210  1.4191
  835MOL0     H12725   8.720   1.136   3.454  0.3132 -1.6275  2.9005
  836MOL0     O12726   0.677   0.630   1.720  0.2403  0.5439 -0.4401
  836MOL0     C12727   0.718   0.720   1.791 -0.2360 -0.2189  0.4695
  836MOL0     O12728   0.671   0.743   1.917 -0.1405 -0.2131  1.0724
  836MOL0     C12729   0.592   0.650   1.982  0.4742 -0.5594  0.7091
  836MOL0     C12730   0.646   0.575   2.083  0.6077  0.0989  0.1654
  836MOL0     C12731   0.560   0.474   2.148 -0.2945 -1.2346 -0.6338
  836MOL0     C12732   0.431   0.456   2.107  0.3335  0.4422 -0.4238
  836MOL0     O12733   0.373   0.360   2.174 -0.6030  0.4580  0.1993
  836MOL0     C12734   0.232   0.367   2.161 -0.1206  0.6109 -0.1001
  836MOL0     C12735   0.163   0.253   2.240  0.0250 -0.5296 -0.1693
  836MOL0     C12736   0.197   0.256   2.396 -0.1619  0.6169 -0.2583
  836MOL0     C12737   0.099   0.177   2.479  0.2484 -0.7599 -0.0740
  836MOL0     C12738   0.136   0.185   2.630  0.1518 -0.1569  0.3981
  836MOL0     C12739   0.194   0.313   2.694 -0.5007 -0.0321  0.4504
  836MOL0     C12740   0.101   0.433   2.671  0.5995  0.2163  0.5618
  836MOL0     C12741  -0.005   0.444   2.781 -0.0767 -0.4121 -0.2425
  836MOL0     N12742   0.039   0.468   2.916  0.6679  0.2487 -0.5802
  836MOL0     C12743   0.035   0.378   3.019  1.0907  0.2116 -0.6355
  836MOL0     C12744   0.120   0.431   3.116  0.0811 -0.2945 -0.2684
  836MOL0     C12745   0.132   0.394   3.264 -0.6909 -0.1878 -0.1672
  836MOL0     C12746   0.127   0.242   3.283  0.0714 -0.3136 -0.7645
  836MOL0     C12747  -0.020   0.215   3.336  0.0367 -0.1793  1.0886
  836MOL0     C12748  -0.035   0.227   3.486  0.2272 -0.0932 -0.3662
  836MOL0     O12749   0.002   0.100   3.548  0.1686  0.0092  0.4665
  836MOL0     C12750  -0.091   0.002   3.547 -0.6185 -0.5382  0.2766
  836MOL0     C12751  -0.049  -0.128   3.503  0.4634  0.1562 -0.7663
  836MOL0     C12752  -0.149  -0.218   3.485 -0.9120  0.5976  1.3130
  836MOL0     C12753  -0.099  -0.334   3.399 -0.7036 -0.9850  0.3758
  836MOL0     C12754  -0.279  -0.192   3.533  1.0988  1.2337  0.6404
  836MOL0     C12755  -0.379  -0.308   3.512  0.3351 -0.3209  0.2719
  836MOL0     O12756  -0.336  -0.435   3.520 -0.2478 -0.0077  0.1316
  836MOL0     C12757  -0.399  -0.537   3.455 -0.4266  0.1397  0.4827
  836MOL0     C12758  -0.349  -0.655   3.496  1.2701 -0.1227 -0.3521
  836MOL0     C12759  -0.407  -0.770   3.454  0.4435 -0.2871  0.6623
  836MOL0     C12760  -0.522  -0.769   3.366 -0.8904 -0.2174 -0.8965
  836MOL0     O12761  -0.576  -0.889   3.333  0.7563 -0.0168  0.2478
  836MOL0     C12762  -0.684  -0.907   3.246  0.7338 -0.3464  0.4623
  836MOL0     C12763  -0.641  -0.944   3.108 -0.7176  0.1331  0.9364
  836MOL0     C12764  -0.584  -1.087   3.087 -0.2911 -0.5393  1.1410
  836MOL0     C12765  -0.662  -1.197   3.159 -0.1976  0.5525 -0.6921
  836MOL0     C12766  -0.625  -1.338   3.097  0.2314  0.1120 -0.8879
  836MOL0     C12767  -0.690  -1.357   2.963  0.8961  0.6237 -0.9989
  836MOL0     C12768  -0.650  -1.494   2.893  0.6012 -0.1784 -0.5026
  836MOL0     C12769  -0.679  -1.507   2.744  0.1613 -0.2548 -0.5169
  836MOL0    Cl12770  -0.858  -1.522   2.723  0.1040 -0.3041  0.0458
  836MOL0     C12771  -0.573  -0.646   3.330  0.3012 -0.3977  0.2196
  836MOL0     C12772  -0.505  -0.526   3.365 -0.8132  0.2732 -0.6679
  836MOL0     O12773  -0.491  -0.271   3.505  0.2775  0.0369 -0.1880
  836MOL0     C12774  -0.311  -0.079   3.595 -0.1103 -0.3726 -0.1193
  836MOL0     C12775  -0.215   0.020   3.607 -0.5936  0.4341 -0.8498
  836MOL0     N12776   0.170   0.550   3.069  0.4587 -0.6366  0.1087
  836MOL0     N12777   0.115   0.577   2.953 -0.1301  0.4106 -1.0174
  836MOL0     C12778   0.377   0.546   2.004  0.2397  0.6693 -0.6517
  836MOL0     C12779   0.460   0.635   1.938  0.1361  0.2134  0.1611
  836MOL0     C12780   0.841   0.787   1.727  0.2014  0.0606 -1.8964
  836MOL0     C12781   0.867   0.788   1.588 -0.4592 -0.7329  0.1965
  836MOL0     C12782   0.975   0.858   1.535 -0.0811 -0.0412 -0.0908
  836MOL0     C12783   1.049   0.941   1.619  0.1696 -0.0308 -0.2397
  836MOL0     O12784   1.164   1.000   1.566  1.0477  0.6335  0.5721
  836MOL0     C12785   1.245   1.088   1.639 -0.5040 -0.6404  1.2684
  836MOL0     C12786   1.340   1.139   1.527  0.2854  0.4147  0.3395
  836MOL0     C12787   1.459   1.046   1.507  0.4149 -0.3173  0.8443
  836MOL0     C12788   1.553   1.011   1.619  0.8051 -0.7320  0.8310
  836MOL0     C12789   1.675   0.935   1.586 -0.0098  0.4102 -0.7453
  836MOL0     C12790   1.782   0.894   1.571 -0.6038  0.7180 -0.6424
  836MOL0     C12791   1.020   0.951   1.762 -0.3121  0.5501  0.3389
  836MOL0     C12792   0.911   0.884   1.815 -0.8009  0.8401  0.3712
  836MOL0     H12793   0.748   0.600   2.110  0.1924  0.2421  1.6428
  836MOL0     H12794   0.599   0.424   2.236 -2.3556 -2.6914 -0.4811
  836MOL0     H12795   0.194   0.462   2.200 -3.0416 -0.7281  0.5992
  836MOL0     H12796   0.196   0.344   2.060 -0.0368  1.1280 -0.2552
  836MOL0     H12797   0.057   0.260   2.217 -0.3504  0.4170  1.6530
  836MOL0     H12798   0.187   0.156   2.194 -0.6240  0.5812 -3.0579
  836MOL0     H12799   0.296   0.212   2.411 -0.1286 -0.7067 -3.4933
  836MOL0     H12800   0.205   0.364   2.414  0.1575  0.4154  0.8676
  836MOL0     H12801  -0.000   0.220   2.461  0.2219 -1.4015 -1.5209
  836MOL0     H12802   0.091   0.072   2.451 -0.2961 -1.3290  2.0096
  836MOL0     H12803   0.055   0.154   2.696  0.0264 -2.5272 -0.7717
  836MOL0     H12804   0.213   0.109   2.648 -0.4138 -0.2813  2.4777
  836MOL0     H12805   0.221   0.292   2.798  1.5681 -5.1533 -0.8260
  836MOL0     H12806   0.288   0.342   2.647 -1.8394  2.3232 -0.9195
  836MOL0     H12807   0.144   0.533   2.672  0.7005  0.2711 -2.2364
  836MOL0     H12808   0.047   0.421   2.577  2.7787  0.5288 -0.8154
  836MOL0     H12809  -0.069   0.355   2.790  0.5027 -0.7046  1.2556
  836MOL0     H12810  -0.058   0.532   2.744 -0.9093 -0.9430 -0.3453
  836MOL0     H12811  -0.015   0.281   3.013  1.4678  0.0636 -1.5520
  836MOL0     H12812   0.232   0.421   3.300 -0.0437 -1.6634 -0.7527
  836MOL0     H12813   0.062   0.454   3.322  1.4430  1.8282  0.4815
  836MOL0     H12814   0.200   0.208   3.356 -0.3719 -1.9795 -1.0535
  836MOL0     H12815   0.148   0.188   3.190  0.2296  2.3608 -2.3976
  836MOL0     H12816  -0.036   0.115   3.294  2.1373 -0.0600 -0.1197
  836MOL0     H12817  -0.084   0.283   3.279  0.7407 -2.2487 -2.4875
  836MOL0     H12818  -0.139   0.257   3.500  0.2498 -0.3647  0.4190
  836MOL0     H12819   0.026   0.314   3.514 -0.3127  0.9573 -2.2316
  836MOL0     H12820   0.057  -0.132   3.478  1.0598  1.6410  1.2704
  836MOL0     H12821  -0.176  -0.354   3.324  1.7451  0.7139 -2.7978
  836MOL0     H12822  -0.011  -0.301   3.343 -0.7581  0.5729  1.1589
  836MOL0     H12823  -0.067  -0.416   3.464  0.8208  1.5613  3.0847
  836MOL0     H12824  -0.276  -0.651   3.576  2.6570  2.3890 -1.6216
  836MOL0     H12825  -0.371  -0.865   3.493  0.4842  0.1893  1.8473
  836MOL0     H12826  -0.749  -0.987   3.283 -0.5913  0.4935  0.0421
  836MOL0     H12827  -0.751  -0.822   3.232  1.2634 -0.0770 -0.5330
  836MOL0     H12828  -0.728  -0.939   3.041 -1.2845 -2.9083  1.2961
  836MOL0     H12829  -0.566  -0.872   3.074 -2.4643  0.7050 -2.0520
  836MOL0     H12830  -0.480  -1.092   3.121  0.4360  0.6711 -0.7356
  836MOL0     H12831  -0.574  -1.108   2.980  1.4317  2.1135  0.6617
  836MOL0     H12832  -0.631  -1.202   3.264 -1.4582 -4.4565 -0.2980
  836MOL0     H12833  -0.769  -1.173   3.153 -0.6089 -1.2729 -1.2819
  836MOL0     H12834  -0.653  -1.420   3.163 -0.1772  0.4013 -0.6956
  836MOL0     H12835  -0.517  -1.352   3.082  0.0483 -0.0495 -2.1055
  836MOL0     H12836  -0.797  -1.331   2.960  0.3580 -1.4353 -1.2471
  836MOL0     H12837  -0.633  -1.281   2.908  3.0644  1.6198  2.3617
  836MOL0     H12838  -0.696  -1.577   2.949  0.9967 -0.1557 -0.1351
  836MOL0     H12839  -0.542  -1.501   2.906  0.8004  0.6637 -1.6098
  836MOL0     H12840  -0.632  -1.599   2.709  1.2069 -0.4034  1.1658
  836MOL0     H12841  -0.635  -1.421   2.692  0.7242  0.8332  1.6364
  836MOL0     H12842  -0.649  -0.635   3.253 -0.4576  0.4535  1.0693
  836MOL0     H12843  -0.547  -0.434   3.326  0.1574 -0.4727 -3.8405
  836MOL0     H12844  -0.409  -0.067   3.640  0.9955  3.0218  1.7279
  836MOL0     H12845  -0.233   0.102   3.675  0.4302 -1.4165  1.8204
  836MOL0     H12846   0.275   0.528   1.972 -0.6833  0.9940  1.8973
  836MOL0     H12847   0.426   0.697   1.855 -2.3196  1.2695  1.8369
  836MOL0     H12848   0.804   0.726   1.525  1.8260 -3.1551  0.1147
  836MOL0     H12849   1.001   0.834   1.433  0.5391  1.6628 -0.3669
  836MOL0     H12850   1.176   1.167   1.672  0.5570  0.0440  1.8876
  836MOL0     H12851   1.298   1.040   1.722 -0.8639 -1.1320  1.2223
  836MOL0     H12852   1.381   1.236   1.556 -0.1655  1.2144 -1.6047
  836MOL0     H12853   1.293   1.146   1.429  2.1469 -4.6433 -1.2499
  836MOL0     H12854   1.501   1.078   1.411 -0.9551 -0.1566  0.2790
  836MOL0     H12855   1.422   0.947   1.480  0.9209 -0.1328 -0.6679
  836MOL0     H12856   1.497   0.953   1.693 -1.1978  1.2765  1.0259
  836MOL0     H12857   1.583   1.105   1.666  0.7248  0.3972 -1.2805
  836MOL0     H12858   1.882   0.856   1.569  0.1035  2.2695  1.4188
  836MOL0     H12859   1.080   1.016   1.825  0.9071  1.0635 -1.2699
  836MOL0     H12860   0.889   0.897   1.920 -1.9062  0.0741  0.2535
  837MOL0     O12861   1.136   8.091   3.354  0.3626  0.0708  0.2173
  837MOL0     C12862   1.019   8.078   3.387  0.3799 -0.7922  0.7235
  837MOL0     O12863   0.933   7.985   3.332  0.6459  0.3478  0.5807
  837MOL0     C12864   0.973   7.904   3.230 -0.3266  0.3121 -0.5987
  837MOL0     C12865   0.890   7.883   3.121  0.5599 -0.3910 -0.3931
  837MOL0     C12866   0.919   7.783   3.025  1.0437 -0.2392 -0.2387
  837MOL0     C12867   1.032   7.707   3.038  0.1631  0.0527  0.6484
  837MOL0     O12868   1.042   7.609   2.945  0.1508 -0.6039  0.7559
  837MOL0     C12869   1.164   7.534   2.931  0.1627 -0.2399 -0.4227
  837MOL0     C12870   1.157   7.441   2.811 -0.4939 -0.0959  0.1295
  837MOL0     C12871   1.142   7.521   2.685 -0.6043 -1.4567 -0.1249
  837MOL0     C12872   1.286   7.577   2.657 -0.7643 -0.5672  1.8266
  837MOL0     C12873   1.290   7.635   2.515 -0.7349  0.5233  0.1791
  837MOL0     C12874   1.435   7.662   2.477 -0.1651 -0.9887 -0.3774
  837MOL0     C12875   1.498   7.794   2.531  0.9871 -0.1862 -0.2804
  837MOL0     C12876   1.649   7.809   2.519 -0.2174 -0.3102  0.6455
  837MOL0     N12877   1.708   7.896   2.616 -0.8613  0.7756 -0.2988
  837MOL0     C12878   1.717   7.874   2.751 -0.6683  0.2397  0.1086
  837MOL0     C12879   1.751   8.001   2.791 -0.5546  0.6785 -0.3401
  837MOL0     C12880   1.783   8.037   2.945  0.5232 -0.6581  0.3828
  837MOL0     C12881   1.908   8.126   2.950  0.1510  0.2350 -0.2153
  837MOL0     C12882   1.861   8.274   2.935  0.7944  0.6236  0.4458
  837MOL0     C12883   1.974   8.376   2.978  0.6556  0.2270  0.1678
  837MOL0     O12884   2.006   8.366   3.120 -0.1652 -0.0737 -0.1809
  837MOL0     C12885   2.126   8.401   3.168 -0.2657 -0.5323 -0.4532
  837MOL0     C12886   2.142   8.378   3.304  0.0742  1.1643 -0.8635
  837MOL0     C12887   2.258   8.395   3.375  0.5303  0.5267 -0.1167
  837MOL0     C12888   2.256   8.362   3.528 -0.3485 -0.2586  0.6050
  837MOL0     C12889   2.357   8.469   3.305  0.8167  0.2955 -0.1479
  837MOL0     C12890   2.478   8.491   3.362 -0.2313 -0.3804 -0.5732
  837MOL0     O12891   2.589   8.442   3.295  0.3372 -0.2241  0.3955
  837MOL0     C12892   2.715   8.479   3.337  0.1341 -0.1135 -0.4614
  837MOL0     C12893   2.759   8.600   3.408 -0.2656  0.1550  0.3604
  837MOL0     C12894   2.892   8.613   3.446 -0.7458 -0.0313  0.8091
  837MOL0     C12895   2.990   8.510   3.410  0.8960  0.0135 -0.3458
  837MOL0     O12896   3.126   8.522   3.432 -0.4214  0.0878 -0.1542
  837MOL0     C12897   3.175   8.620   3.524 -0.6315  0.6371 -0.0967
  837MOL0     C12898   3.329   8.638   3.495  0.6909 -0.0844  0.6455
  837MOL0     C12899   3.404   8.501   3.509 -0.2100 -0.2973 -0.1572
  837MOL0     C12900   3.555   8.504   3.456  0.3850  0.0269 -0.0519
  837MOL0     C12901   3.623   8.369   3.460  0.0390  0.2284 -0.7771
  837MOL0     C12902   3.694   8.323   3.589  0.2755  0.1555 -1.1221
  837MOL0     C12903   3.612   8.313   3.718  0.1956  0.6470  0.2992
  837MOL0     C12904   3.666   8.225   3.827  0.6606  0.5725 -0.5584
  837MOL0    Cl12905   3.709   8.060   3.765  0.2327  0.2151  0.6164
  837MOL0     C12906   2.947   8.402   3.340 -0.9768  1.1350  0.6073
  837MOL0     C12907   2.819   8.391   3.303  0.8091  0.2616 -0.5872
  837MOL0     O12908   2.480   8.534   3.479  0.0833 -0.2223  0.0421
  837MOL0     C12909   2.342   8.508   3.173 -0.1511 -0.2748  0.4318
  837MOL0     C12910   2.231   8.465   3.100  0.1174  0.1977 -0.0269
  837MOL0     N12911   1.771   8.089   2.687  0.4960  0.4496 -0.1370
  837MOL0     N12912   1.757   8.019   2.587  0.8080 -0.0551 -0.0098
  837MOL0     C12913   1.118   7.719   3.150  0.4609  0.0742 -0.1002
  837MOL0     C12914   1.084   7.812   3.245 -0.3483  0.0935  0.7799
  837MOL0     C12915   0.964   8.165   3.482 -0.1384 -0.0434  0.5003
  837MOL0     C12916   0.831   8.150   3.526  0.0998  0.5077  0.2003
  837MOL0     C12917   0.773   8.222   3.631  0.1269 -0.4491  0.5525
  837MOL0     C12918   0.847   8.311   3.699  0.1860 -0.0225  0.6458
  837MOL0     O12919   0.813   8.390   3.804 -0.1659 -0.3774 -0.0295
  837MOL0     C12920   0.674   8.404   3.836 -0.5196  0.3865  0.7376
  837MOL0     C12921   0.602   8.480   3.729  0.1540 -0.5594  0.1010
  837MOL0     C12922   0.449   8.484   3.760  0.1474 -0.1122  0.2705
  837MOL0     C12923   0.368   8.361   3.695 -0.6177  0.2880 -0.4808
  837MOL0     C12924   0.382   8.383   3.546 -0.2222  0.6147 -0.8048
  837MOL0     C12925   0.389   8.374   3.425 -0.0198 -0.0264  0.5886
  837MOL0     C12926   0.978   8.324   3.659  0.7300 -0.5369  0.4608
  837MOL0     C12927   1.040   8.258   3.554  0.6085  0.2574 -0.2343
  837MOL0     H12928   0.801   7.943   3.107  0.2978 -0.0217  2.3388
  837MOL0     H12929   0.857   7.763   2.938 -0.4062  1.2685  0.3993
  837MOL0     H12930   1.253   7.593   2.908  0.5165 -1.6767 -3.2530
  837MOL0     H12931   1.174   7.466   3.016  0.9360 -0.8726 -0.9963
  837MOL0     H12932   1.251   7.385   2.801 -1.1639 -1.2561  0.1317
  837MOL0     H12933   1.075   7.370   2.820 -1.9320  1.6297  1.1930
  837MOL0     H12934   1.135   7.449   2.603  2.7439 -0.4570 -1.4983
  837MOL0     H12935   1.057   7.590   2.688  0.6815  0.2508 -1.0013
  837MOL0     H12936   1.323   7.654   2.725  0.9999  0.9740 -0.6980
  837MOL0     H12937   1.356   7.492   2.655 -1.8703 -1.5347 -1.4911
  837MOL0     H12938   1.256   7.568   2.435  3.9107  0.5459 -2.1256
  837MOL0     H12939   1.230   7.726   2.501  0.3827  1.1974 -0.3570
  837MOL0     H12940   1.500   7.579   2.508 -0.1449 -0.8110  0.0705
  837MOL0     H12941   1.443   7.669   2.369  1.8317 -0.7990 -0.2580
  837MOL0     H12942   1.439   7.873   2.484 -1.3328 -0.4696  1.9519
  837MOL0     H12943   1.475   7.788   2.638 -2.8740  3.2745 -0.6816
  837MOL0     H12944   1.668   7.847   2.418 -0.4267 -2.3038 -0.1852
  837MOL0     H12945   1.693   7.709   2.516  0.2223 -0.1157  0.3299
  837MOL0     H12946   1.675   7.796   2.813  1.7551 -0.7194  0.6656
  837MOL0     H12947   1.694   8.080   2.992  1.4641  0.9667  0.7694
  837MOL0     H12948   1.805   7.941   2.992  1.1244 -1.6580 -1.7729
  837MOL0     H12949   1.977   8.112   2.866  0.5335  1.5615 -0.1514
  837MOL0     H12950   1.955   8.111   3.048  0.7393 -0.1862 -0.5567
  837MOL0     H12951   1.774   8.291   2.999  1.6322  0.7078  1.6054
  837MOL0     H12952   1.847   8.293   2.828  2.9684 -0.7441 -0.1460
  837MOL0     H12953   1.941   8.477   2.953  0.2026  0.0365 -0.0190
  837MOL0     H12954   2.059   8.360   2.911  1.0693  1.1209  0.4616
  837MOL0     H12955   2.065   8.324   3.359 -0.6346  2.7817 -0.2027
  837MOL0     H12956   2.320   8.275   3.545 -1.9708 -1.5172  0.5316
  837MOL0     H12957   2.292   8.445   3.589  0.8014  0.9498 -1.5874
  837MOL0     H12958   2.152   8.336   3.551 -0.4608 -0.2289  0.1354
  837MOL0     H12959   2.693   8.683   3.431 -1.6249 -0.8011  0.0377
  837MOL0     H12960   2.914   8.710   3.489 -0.8929  0.4786 -0.2345
  837MOL0     H12961   3.128   8.717   3.506  0.5683  1.4374  0.8853
  837MOL0     H12962   3.163   8.593   3.630  3.5893 -2.2080 -0.1089
  837MOL0     H12963   3.337   8.666   3.390 -1.2819 -1.0414  0.2058
  837MOL0     H12964   3.382   8.711   3.558  2.1825 -1.3687  0.9540
  837MOL0     H12965   3.348   8.418   3.465 -0.3957  0.0306 -0.5408
  837MOL0     H12966   3.405   8.478   3.616 -0.5563  1.5550  0.2774
  837MOL0     H12967   3.561   8.547   3.356 -1.7792  1.8479  0.5172
  837MOL0     H12968   3.602   8.572   3.528 -2.6438  2.1480  0.1066
  837MOL0     H12969   3.695   8.373   3.378  0.5425 -0.5920 -0.3851
  837MOL0     H12970   3.558   8.288   3.426  0.2949 -0.5751  0.5723
  837MOL0     H12971   3.761   8.236   3.583  1.4336  0.5230  3.0302
  837MOL0     H12972   3.761   8.404   3.617  2.2532 -2.1345  1.2480
  837MOL0     H12973   3.520   8.262   3.689  1.3505 -0.7370 -1.1556
  837MOL0     H12974   3.588   8.408   3.768  0.8556  1.2957 -0.5807
  837MOL0     H12975   3.586   8.224   3.901  2.0172  0.8128  0.9838
  837MOL0     H12976   3.757   8.273   3.865  0.7825  0.6318 -0.9260
  837MOL0     H12977   3.021   8.325   3.321 -1.0164  0.9585  1.1569
  837MOL0     H12978   2.794   8.302   3.245 -0.0949 -0.2044  0.4796
  837MOL0     H12979   2.412   8.571   3.118 -0.8601  3.5494  3.4483
  837MOL0     H12980   2.214   8.502   3.000 -2.7483  2.1079  1.0234
  837MOL0     H12981   1.204   7.657   3.171 -0.8685 -1.2995  1.6558
  837MOL0     H12982   1.127   7.818   3.345 -1.9813  0.5932  1.4876
  837MOL0     H12983   0.765   8.078   3.479  0.3347  0.8680 -0.7063
  837MOL0     H12984   0.676   8.187   3.663  1.5183 -4.4260  0.9886
  837MOL0     H12985   0.634   8.303   3.847  0.1709 -0.2875 -1.9925
  837MOL0     H12986   0.656   8.465   3.924 -3.2924  1.3977 -0.4120
  837MOL0     H12987   0.604   8.443   3.626 -2.0534  2.3734 -1.1437
  837MOL0     H12988   0.633   8.585   3.729 -2.9520  0.4778  1.6104
  837MOL0     H12989   0.406   8.578   3.726  1.0639 -0.8796 -3.4853
  837MOL0     H12990   0.430   8.485   3.868 -0.0760  0.2124  0.2290
  837MOL0     H12991   0.267   8.358   3.737 -1.1270 -2.3749 -1.7354
  837MOL0     H12992   0.411   8.265   3.722  0.3445  0.7644 -0.2628
  837MOL0     H12993   0.422   8.363   3.324  2.1484  1.0332  1.1180
  837MOL0     H12994   1.041   8.390   3.719 -0.1605  1.0466 -0.2808
  837MOL0     H12995   1.145   8.280   3.538  0.0409  3.2499 -0.3155
  838MOL0     O12996   9.250   7.784  10.208 -0.5559  0.3919  0.4217
  838MOL0     C12997   9.283   7.716  10.302 -0.1710 -0.0184 -0.7553
  838MOL0     O12998   9.340   7.771  10.415 -0.1618  0.2927  0.7759
  838MOL0     C12999   9.363   7.902  10.416  0.1414  0.2522 -0.0077
  838MOL0     C13000   9.491   7.956  10.376 -1.2252 -0.5338 -0.0535
  838MOL0     C13001   9.518   8.097  10.380  0.1143  0.0736  0.1461
  838MOL0     C13002   9.412   8.186  10.416  0.3586  0.0287 -0.2905
  838MOL0     O13003   9.419   8.316  10.438 -0.4870 -0.1445  1.1746
  838MOL0     C13004   9.529   8.389  10.389  0.4926  1.2061  0.5338
  838MOL0     C13005   9.483   8.538  10.404  1.1070  0.1062 -0.0115
  838MOL0     C13006   9.345   8.566  10.342  0.1072 -0.9584  0.0140
  838MOL0     C13007   9.328   8.716  10.308  0.3397 -0.8622  0.5117
  838MOL0     C13008   9.248   8.799  10.405  0.3849 -0.2964  0.4142
  838MOL0     C13009   9.259   8.957  10.400 -0.2507 -0.2603  0.9914
  838MOL0     C13010   9.227   9.017  10.253  0.7509  0.0499 -0.6045
  838MOL0     C13011   9.085   8.976  10.205  0.1249  1.3727 -0.2551
  838MOL0     N13012   8.979   9.033  10.291  0.6598  0.1390  0.7336
  838MOL0     C13013   8.944   9.165  10.309  0.0051 -0.5247 -0.6004
  838MOL0     C13014   8.832   9.182  10.375  1.1029  0.5108 -0.2537
  838MOL0     C13015   8.772   9.313  10.397  0.4854 -0.0351 -0.7521
  838MOL0     C13016   8.680   9.328  10.529 -0.0016 -0.0165 -0.7592
  838MOL0     C13017   8.595   9.461  10.514 -0.2041  0.4967  0.2894
  838MOL0     C13018   8.631   9.554  10.626 -0.3822 -0.1370 -0.7445
  838MOL0     O13019   8.592   9.694  10.603 -0.0734  0.6050 -0.1329
  838MOL0     C13020   8.464   9.721  10.625 -0.2065  0.4624  0.3781
  838MOL0     C13021   8.422   9.745  10.758 -0.4477 -0.9592 -0.1031
  838MOL0     C13022   8.289   9.761  10.787 -0.1486 -0.1331 -0.0792
  838MOL0     C13023   8.258   9.793  10.933  0.2008  0.1702  1.0668
  838MOL0     C13024   8.194   9.742  10.685 -0.8666  0.1731  1.2180
  838MOL0     C13025   8.047   9.758  10.713 -0.5904 -0.3977  0.0249
  838MOL0     O13026   8.012   9.724  10.843 -0.4529 -0.2476 -0.3846
  838MOL0     C13027   7.878   9.743  10.885 -1.6529 -0.2655 -0.7144
  838MOL0     C13028   7.775   9.642  10.849 -0.4070 -0.6584 -0.1608
  838MOL0     C13029   7.643   9.664  10.895  0.9072  0.3569  0.4559
  838MOL0     C13030   7.608   9.777  10.967  0.4277 -0.3414  0.2923
  838MOL0     O13031   7.474   9.779  11.025 -0.2242 -0.4448 -0.4613
  838MOL0     C13032   7.422   9.896  11.100 -0.6084 -0.3908  0.4141
  838MOL0     C13033   7.270   9.883  11.139  0.0842  0.3133 -0.2030
  838MOL0     C13034   7.217   9.753  11.194  0.1704  1.0494  0.3630
  838MOL0     C13035   7.203   9.643  11.082 -0.1607  0.9979  0.3014
  838MOL0     C13036   7.116   9.508  11.105  0.0305  0.3895  0.2571
  838MOL0     C13037   6.967   9.536  11.156 -0.9195 -0.4754  0.4646
  838MOL0     C13038   6.894   9.650  11.073  0.6783 -0.5275 -0.6331
  838MOL0     C13039   6.750   9.667  11.113  0.4549 -0.8326 -0.3017
  838MOL0    Cl13040   6.650   9.528  11.077 -0.5325 -0.0761 -0.0936
  838MOL0     C13041   7.707   9.871  10.996 -0.0749 -0.1812 -0.7440
  838MOL0     C13042   7.840   9.849  10.953 -2.2171  1.0376 -1.0215
  838MOL0     O13043   7.967   9.782  10.617  0.3913  0.7447 -0.8315
  838MOL0     C13044   8.235   9.702  10.552 -0.9696  0.6811  0.0045
  838MOL0     C13045   8.376   9.699  10.525  1.2095 -0.1470  0.1800
  838MOL0     N13046   8.783   9.055  10.380 -0.0914  0.3965 -0.4825
  838MOL0     N13047   8.872   8.968  10.340  0.2205 -0.4221  0.3782
  838MOL0     C13048   9.292   8.125  10.457  0.8511 -0.3176  0.0151
  838MOL0     C13049   9.264   7.988  10.458 -0.0417 -0.1432  0.3099
  838MOL0     C13050   9.245   7.574  10.298 -0.3739 -0.2871 -0.5098
  838MOL0     C13051   9.137   7.531  10.218  0.6987  0.5559 -0.4045
  838MOL0     C13052   9.103   7.395  10.225  1.2642  0.1131  0.7077
  838MOL0     C13053   9.165   7.305  10.308 -0.1861  0.7710 -0.2032
  838MOL0     O13054   9.117   7.175  10.295 -0.0463 -0.6511  0.2777
  838MOL0     C13055   9.151   7.086  10.399 -1.1111  0.0273 -0.0679
  838MOL0     C13056   9.128   6.938  10.343  0.3299 -0.0911  1.3874
  838MOL0     C13057   9.158   6.906  10.197 -0.1292 -0.4265  0.0921
  838MOL0     C13058   9.306   6.903  10.165 -0.6547  0.1781 -0.1098
  838MOL0     C13059   9.345   6.877  10.030  0.6483  0.4836  0.2641
  838MOL0     C13060   9.356   6.859   9.914  0.0779 -0.7574 -0.3752
  838MOL0     C13061   9.272   7.350  10.381  0.8448 -0.0194  0.2073
  838MOL0     C13062   9.309   7.476  10.382 -0.1037 -0.4375  0.3651
  838MOL0     H13063   9.574   7.896  10.338  0.8552  0.0817  3.1041
  838MOL0     H13064   9.615   8.141  10.357 -0.5700  2.1042  0.9256
  838MOL0     H13065   9.617   8.377  10.452  2.0314  3.4516 -1.0439
  838MOL0     H13066   9.538   8.366  10.282 -3.0028 -2.3660  0.7711
  838MOL0     H13067   9.483   8.554  10.512 -1.8180 -0.8113  0.2065
  838MOL0     H13068   9.561   8.599  10.356  0.0999  1.7429  0.3508
  838MOL0     H13069   9.332   8.507  10.250 -2.7660 -2.0465  1.0322
  838MOL0     H13070   9.263   8.533  10.405 -2.1885 -3.6776 -3.9838
  838MOL0     H13071   9.424   8.766  10.291 -0.0905 -0.5467 -1.2376
  838MOL0     H13072   9.284   8.737  10.210  1.8337  3.3247  0.5188
  838MOL0     H13073   9.141   8.780  10.414 -0.4650  4.1221  2.3730
  838MOL0     H13074   9.298   8.773  10.499  2.5080  0.7085 -0.3590
  838MOL0     H13075   9.207   9.006  10.483 -2.4520 -1.3006  0.3261
  838MOL0     H13076   9.364   8.979  10.420 -0.2279  2.0804 -1.0589
  838MOL0     H13077   9.236   9.126  10.257 -0.2672  0.1610 -1.0263
  838MOL0     H13078   9.309   8.990  10.185  1.7054  0.5746  0.3001
  838MOL0     H13079   9.060   8.870  10.193  2.0001  0.3441  3.4104
  838MOL0     H13080   9.084   9.014  10.103 -0.3576  0.9706 -0.3990
  838MOL0     H13081   8.996   9.250  10.266 -2.2387  1.8941  1.1752
  838MOL0     H13082   8.859   9.377  10.414  0.5048 -0.6132  1.6515
  838MOL0     H13083   8.714   9.348  10.311 -4.4392 -0.5345  2.0277
  838MOL0     H13084   8.737   9.312  10.621  1.8899  1.1155 -1.6668
  838MOL0     H13085   8.611   9.244  10.529  0.6892 -0.6195  0.7200
  838MOL0     H13086   8.486   9.448  10.513 -0.1459 -0.3608  1.9024
  838MOL0     H13087   8.618   9.523  10.427 -0.3558  1.7386  1.1141
  838MOL0     H13088   8.739   9.558  10.640 -0.5865  2.4985  0.8567
  838MOL0     H13089   8.590   9.522  10.722  3.4209  0.2794  1.2006
  838MOL0     H13090   8.497   9.770  10.832 -3.4459  0.0478  2.8048
  838MOL0     H13091   8.185   9.873  10.944 -1.4246 -0.9229 -1.0614
  838MOL0     H13092   8.217   9.699  10.971 -0.5445  0.5293  1.1726
  838MOL0     H13093   8.353   9.819  10.981  1.2499 -0.1482 -0.7152
  838MOL0     H13094   7.823   9.554  10.807  0.7822 -2.0159  3.6253
  838MOL0     H13095   7.572   9.583  10.885  0.0704  0.9253  1.5773
  838MOL0     H13096   7.495   9.918  11.178  0.4623 -1.0880 -0.3582
  838MOL0     H13097   7.436   9.976  11.027  2.0583 -0.9280  0.2278
  838MOL0     H13098   7.236   9.962  11.206  0.6142  0.6072 -0.2767
  838MOL0     H13099   7.207   9.898  11.051  0.6796  1.4531 -0.4552
  838MOL0     H13100   7.118   9.769  11.237  0.0761 -0.3641  0.7458
  838MOL0     H13101   7.290   9.713  11.264 -0.9857 -2.4584 -0.2258
  838MOL0     H13102   7.170   9.687  10.988 -0.4551 -0.0480 -0.1024
  838MOL0     H13103   7.299   9.595  11.060 -0.0662  0.8379  1.0270
  838MOL0     H13104   7.166   9.462  11.191 -1.0496 -0.8744  0.2380
  838MOL0     H13105   7.118   9.438  11.021 -0.0712  1.1311 -0.3758
  838MOL0     H13106   6.911   9.442  11.154 -1.4777 -0.1475  0.5518
  838MOL0     H13107   6.975   9.575  11.258  2.5436 -0.9352  0.4888
  838MOL0     H13108   6.886   9.615  10.969 -0.4913  0.0685 -0.7571
  838MOL0     H13109   6.933   9.752  11.080  0.9685 -0.7342  1.2158
  838MOL0     H13110   6.709   9.760  11.072  2.8986  1.7422  2.5563
  838MOL0     H13111   6.743   9.678  11.222  0.1576 -1.0872 -0.2941
  838MOL0     H13112   7.677   9.958  11.052 -0.5158 -0.3004 -0.7860
  838MOL0     H13113   7.915   9.923  10.976  0.6539 -1.5765 -1.2860
  838MOL0     H13114   8.152   9.688  10.483 -1.0429 -2.9171  0.6207
  838MOL0     H13115   8.418   9.685  10.426  2.4657 -0.2890  0.7191
  838MOL0     H13116   9.217   8.192  10.497 -0.1450 -2.3801  1.8214
  838MOL0     H13117   9.166   7.960  10.497 -0.0892 -3.2437 -1.7329
  838MOL0     H13118   9.070   7.595  10.161  1.7216  0.1027 -2.1789
  838MOL0     H13119   9.021   7.350  10.171  0.9516 -1.3159  2.2991
  838MOL0     H13120   9.258   7.079  10.422 -0.4240 -0.5346 -2.9702
  838MOL0     H13121   9.102   7.103  10.495 -0.3378 -1.1992  0.5734
  838MOL0     H13122   9.021   6.922  10.362 -0.3722  1.3221 -0.9494
  838MOL0     H13123   9.181   6.874  10.414  0.6570  1.5840  2.7078
  838MOL0     H13124   9.089   6.961  10.133 -1.3999 -2.1923 -0.1430
  838MOL0     H13125   9.126   6.801  10.189 -1.6662  0.1251 -1.7638
  838MOL0     H13126   9.358   6.829  10.227 -1.6767 -1.6155 -1.3222
  838MOL0     H13127   9.343   7.003  10.189 -0.1442 -0.0241 -0.0394
  838MOL0     H13128   9.372   6.845   9.809  1.2382  3.5902 -0.9720
  838MOL0     H13129   9.321   7.286  10.453  3.4306 -0.4555 -1.8019
  838MOL0     H13130   9.394   7.511  10.440  1.5612  2.0480 -3.1667
  839MOL0     O13131   9.003   7.719   3.429 -0.0921  0.1750 -0.0972
  839MOL0     C13132   9.080   7.810   3.419  0.3293 -0.3277 -0.2871
  839MOL0     O13133   9.061   7.933   3.456  0.2961  0.5319 -0.0054
  839MOL0     C13134   8.945   7.969   3.520  0.7933 -0.0789  0.6666
  839MOL0     C13135   8.954   8.068   3.617  0.6121  0.8933  0.4593
  839MOL0     C13136   8.855   8.101   3.712 -0.0241  0.4157  0.8351
  839MOL0     C13137   8.725   8.047   3.688 -0.0166  0.5949  0.1834
  839MOL0     O13138   8.613   8.069   3.766 -0.8809 -0.3613 -0.5966
  839MOL0     C13139   8.613   8.200   3.827  0.4584 -0.5032  0.7908
  839MOL0     C13140   8.557   8.298   3.719  0.4445 -0.5220  0.6737
  839MOL0     C13141   8.594   8.444   3.754  0.7849  0.4009  0.4141
  839MOL0     C13142   8.578   8.533   3.635  1.1570 -1.0703  0.6531
  839MOL0     C13143   8.649   8.670   3.667 -0.2101  0.9729 -0.1414
  839MOL0     C13144   8.675   8.762   3.553  0.4410  0.6686  0.7679
  839MOL0     C13145   8.698   8.904   3.610  0.5995  0.2157  0.1357
  839MOL0     C13146   8.738   9.006   3.507 -0.2400  0.1852  0.6220
  839MOL0     N13147   8.779   9.137   3.569  0.3849 -0.9576  0.1059
  839MOL0     C13148   8.885   9.169   3.653  0.1407 -0.5673  1.4782
  839MOL0     C13149   8.864   9.291   3.698 -0.4003 -0.4934 -1.3976
  839MOL0     C13150   8.942   9.363   3.808 -0.0413 -0.1231  0.4880
  839MOL0     C13151   9.058   9.281   3.867 -0.1751  0.5552 -0.0889
  839MOL0     C13152   9.196   9.302   3.794  0.1539 -0.0311 -0.5420
  839MOL0     C13153   9.271   9.166   3.805 -0.0816  0.6838 -0.0510
  839MOL0     O13154   9.401   9.173   3.750 -0.4982  1.0511  0.4363
  839MOL0     C13155   9.484   9.056   3.761  0.2226 -0.8396 -0.1865
  839MOL0     C13156   9.613   9.059   3.700 -0.1913 -0.0150 -0.0357
  839MOL0     C13157   9.708   8.953   3.729  0.0644  0.1578  0.0104
  839MOL0     C13158   9.845   8.985   3.697  0.7033  0.8130 -0.2480
  839MOL0     C13159   9.663   8.841   3.790 -0.2311  0.7000 -0.9948
  839MOL0     C13160   9.748   8.720   3.806  0.0149  0.3832  0.3726
  839MOL0     O13161   9.686   8.618   3.885  0.5118  0.5205 -0.2824
  839MOL0     C13162   9.745   8.492   3.900 -0.5643 -0.4437 -0.0692
  839MOL0     C13163   9.770   8.435   4.024  0.0134 -0.6234  0.0777
  839MOL0     C13164   9.839   8.318   4.036  0.8790  0.8059  0.5565
  839MOL0     C13165   9.866   8.235   3.925 -0.2715 -0.2094  0.6416
  839MOL0     O13166   9.921   8.110   3.926 -0.5016 -0.2762 -0.3249
  839MOL0     C13167   9.880   8.014   4.026 -0.2371  0.8378 -0.2579
  839MOL0     C13168   9.921   7.869   4.029 -0.1978 -0.2596 -0.3897
  839MOL0     C13169   9.833   7.781   4.121 -0.1899 -0.2001 -0.5043
  839MOL0     C13170   9.843   7.819   4.267 -0.2008 -0.3591 -0.7603
  839MOL0     C13171   9.975   7.807   4.339  0.0266  0.4631 -0.6594
  839MOL0     C13172  10.004   7.906   4.463 -0.3624 -0.0125  0.1583
  839MOL0     C13173   9.880   7.930   4.552  0.0332 -0.2203 -0.5102
  839MOL0     C13174   9.841   7.823   4.647 -0.2485  0.3554 -0.3165
  839MOL0    Cl13175   9.682   7.868   4.717 -0.3898 -0.1782 -0.2845
  839MOL0     C13176   9.835   8.294   3.799  1.3295 -0.4501  0.2688
  839MOL0     C13177   9.785   8.421   3.789  0.3507  0.1547  0.1004
  839MOL0     O13178   9.856   8.701   3.749 -0.1628  0.8381  0.1062
  839MOL0     C13179   9.534   8.842   3.839 -0.8970  0.3141 -0.6891
  839MOL0     C13180   9.445   8.942   3.831  0.0007 -0.1786  0.1881
  839MOL0     N13181   8.754   9.330   3.625  0.9141  0.2377 -0.1891
  839MOL0     N13182   8.703   9.248   3.553 -0.6341  0.3365 -0.3629
  839MOL0     C13183   8.703   7.963   3.576 -0.3936 -0.2370  0.1430
  839MOL0     C13184   8.813   7.919   3.496  0.0425 -0.2102 -0.1658
  839MOL0     C13185   9.202   7.786   3.333 -0.3859  0.5154 -0.0634
  839MOL0     C13186   9.272   7.893   3.270  0.3463  0.6703 -0.1772
  839MOL0     C13187   9.378   7.870   3.183 -0.8661  0.3116 -0.0904
  839MOL0     C13188   9.423   7.742   3.164  0.0246  1.0794  0.6232
  839MOL0     O13189   9.540   7.727   3.097 -0.1943 -0.5325  0.5421
  839MOL0     C13190   9.544   7.777   2.960 -1.1600 -0.3568  0.1311
  839MOL0     C13191   9.569   7.662   2.867 -0.6013  0.4399  0.5271
  839MOL0     C13192   9.724   7.639   2.864 -0.2673  0.5205 -0.3079
  839MOL0     C13193   9.753   7.525   2.771 -0.1841 -0.1397 -0.0044
  839MOL0     C13194   9.894   7.479   2.761  0.6417 -0.9383 -0.0328
  839MOL0     C13195  10.006   7.439   2.746  0.2004 -0.3322 -0.1008
  839MOL0     C13196   9.370   7.637   3.233  0.0100  0.0256 -0.1827
  839MOL0     C13197   9.256   7.654   3.315 -1.1076 -0.5735 -0.3942
  839MOL0     H13198   9.054   8.105   3.635  0.2206  2.2211  0.0446
  839MOL0     H13199   8.883   8.158   3.800  0.7310 -3.6621  3.4760
  839MOL0     H13200   8.538   8.207   3.907 -0.8551  4.3315 -0.5357
  839MOL0     H13201   8.707   8.233   3.871 -0.2939  1.5034  0.9860
  839MOL0     H13202   8.596   8.271   3.621  1.6005 -0.3562  1.0792
  839MOL0     H13203   8.450   8.275   3.722  0.0261  0.9469 -0.9576
  839MOL0     H13204   8.539   8.485   3.839 -1.1150 -2.4383  0.6789
  839MOL0     H13205   8.702   8.444   3.769  1.7226  4.0269 -4.0592
  839MOL0     H13206   8.611   8.485   3.543 -0.4838  2.4219 -1.9926
  839MOL0     H13207   8.472   8.547   3.616  1.5850 -0.4126 -1.4958
  839MOL0     H13208   8.597   8.713   3.754 -2.2223 -3.2701  1.0108
  839MOL0     H13209   8.746   8.639   3.706 -1.2382 -0.6707  1.2399
  839MOL0     H13210   8.764   8.737   3.495 -1.5726 -0.8200 -1.9084
  839MOL0     H13211   8.595   8.769   3.479  1.1877  0.0079 -0.1247
  839MOL0     H13212   8.609   8.935   3.666  0.7083  1.2281 -0.2341
  839MOL0     H13213   8.776   8.897   3.686  0.6280 -0.0169  0.0871
  839MOL0     H13214   8.659   9.029   3.435 -1.8976  0.0352  2.3144
  839MOL0     H13215   8.820   8.962   3.450 -1.1891  2.2029 -2.5888
  839MOL0     H13216   8.981   9.121   3.671  1.5594  1.4311 -0.2687
  839MOL0     H13217   8.977   9.462   3.777  0.9575 -1.1133 -1.8357
  839MOL0     H13218   8.870   9.384   3.887 -1.6852  0.0689 -0.9915
  839MOL0     H13219   9.035   9.174   3.868  0.3360  0.4244 -1.1617
  839MOL0     H13220   9.071   9.314   3.971  0.8395  3.3493 -1.0158
  839MOL0     H13221   9.265   9.376   3.836 -0.8667 -0.4747  2.1084
  839MOL0     H13222   9.173   9.321   3.689 -3.2140 -0.0923  0.0622
  839MOL0     H13223   9.212   9.084   3.762  1.2321 -0.5296  0.3641
  839MOL0     H13224   9.286   9.143   3.910  0.3665  2.0152  0.1986
  839MOL0     H13225   9.656   9.141   3.643  1.7122 -1.3138 -0.5614
  839MOL0     H13226   9.867   8.925   3.608  3.2573 -1.6779  1.8399
  839MOL0     H13227   9.849   9.090   3.668  1.0885  1.2328  1.2645
  839MOL0     H13228   9.915   8.944   3.771 -1.6019 -0.8408  1.1394
  839MOL0     H13229   9.729   8.481   4.113  1.1725  0.6512 -0.0106
  839MOL0     H13230   9.843   8.264   4.130 -3.2181 -0.0118  0.4543
  839MOL0     H13231   9.908   8.058   4.123  1.1817 -3.6261  1.6238
  839MOL0     H13232   9.772   7.999   4.029  0.0414 -1.2294  0.8605
  839MOL0     H13233   9.913   7.839   3.924 -0.5386  2.6365 -1.2774
  839MOL0     H13234  10.026   7.861   4.057  0.3759  2.5318 -1.4360
  839MOL0     H13235   9.853   7.674   4.110  0.7681 -0.1640  0.6617
  839MOL0     H13236   9.732   7.804   4.087 -0.5070  0.3371  0.7707
  839MOL0     H13237   9.810   7.922   4.285  0.3187 -0.8289  4.2354
  839MOL0     H13238   9.772   7.768   4.333  0.5614  1.8429  1.9631
  839MOL0     H13239  10.059   7.815   4.269  0.9501  2.3346  0.5608
  839MOL0     H13240   9.977   7.704   4.374 -3.2420  0.1885 -0.9843
  839MOL0     H13241  10.087   7.871   4.525 -0.2597 -0.8263 -0.4268
  839MOL0     H13242  10.032   8.005   4.426  0.3297 -0.0756  0.4837
  839MOL0     H13243   9.792   7.951   4.491  0.6673 -2.6133 -2.4156
  839MOL0     H13244   9.894   8.021   4.610 -0.1644 -0.6476  0.2255
  839MOL0     H13245   9.905   7.804   4.733 -1.0216 -1.6094 -0.1354
  839MOL0     H13246   9.839   7.731   4.589 -0.1627  0.8351 -1.0880
  839MOL0     H13247   9.852   8.235   3.709 -1.0944 -0.9803  0.0872
  839MOL0     H13248   9.771   8.467   3.692 -1.3001  1.9711  1.1176
  839MOL0     H13249   9.495   8.750   3.881 -3.6953  2.4879  1.8968
  839MOL0     H13250   9.351   8.933   3.884 -0.0108  2.2170  0.6786
  839MOL0     H13251   8.606   7.916   3.557 -1.5575  1.2657  2.0242
  839MOL0     H13252   8.788   7.846   3.419  0.8837 -1.1885  0.4597
  839MOL0     H13253   9.223   7.989   3.275 -2.0051 -0.4921  0.6369
  839MOL0     H13254   9.424   7.954   3.132  0.0552 -1.0096 -1.5381
  839MOL0     H13255   9.448   7.825   2.941 -0.1726  1.3674 -0.7991
  839MOL0     H13256   9.624   7.852   2.952 -1.5085 -0.1643 -1.9388
  839MOL0     H13257   9.527   7.688   2.769 -0.1425 -0.7971 -0.0217
  839MOL0     H13258   9.527   7.571   2.910 -0.8632  1.9543  3.7585
  839MOL0     H13259   9.756   7.617   2.966 -2.0693 -3.4619 -0.4159
  839MOL0     H13260   9.778   7.725   2.822  2.3355 -0.9169 -0.0740
  839MOL0     H13261   9.729   7.551   2.668  1.6184 -1.9057 -0.9462
  839MOL0     H13262   9.691   7.438   2.795 -2.3606  1.6662  1.2512
  839MOL0     H13263  10.104   7.399   2.731  1.8653  3.2419  0.1973
  839MOL0     H13264   9.416   7.540   3.214 -1.7738 -0.1888 -4.7736
  839MOL0     H13265   9.199   7.571   3.356  2.3678 -2.5541  0.8314
  840MOL0     O13266  10.540   1.724   2.632  0.6539  0.5416  0.1460
  840MOL0     C13267  10.649   1.691   2.599 -0.8064 -0.4072 -0.1491
  840MOL0     O13268  10.684   1.619   2.499 -0.4810  0.5308  0.7452
  840MOL0     C13269  10.592   1.598   2.387  0.1872 -0.8707 -0.0119
  840MOL0     C13270  10.456   1.561   2.405 -0.0325  1.1892  0.1062
  840MOL0     C13271  10.381   1.534   2.294  0.3954  0.0355 -0.1674
  840MOL0     C13272  10.430   1.535   2.160  0.1069 -0.0120  0.1815
  840MOL0     O13273  10.351   1.528   2.052  0.2487  0.3366  0.2186
  840MOL0     C13274  10.354   1.647   1.977 -0.6357 -0.6059 -0.0449
  840MOL0     C13275  10.254   1.748   2.040 -0.0541  0.3470 -0.4804
  840MOL0     C13276  10.115   1.681   2.050 -0.2534 -0.4741 -0.3675
  840MOL0     C13277  10.018   1.780   2.116  1.4829  0.9214 -0.2121
  840MOL0     C13278   9.870   1.731   2.110  0.5090  0.4263  0.9861
  840MOL0     C13279   9.766   1.799   2.202 -0.9546  0.8071  0.8064
  840MOL0     C13280   9.622   1.750   2.167  0.1017 -0.5091 -0.8050
  840MOL0     C13281   9.523   1.841   2.239 -0.1929  0.7446  0.7629
  840MOL0     N13282   9.396   1.820   2.172 -0.0007  0.5451  0.4073
  840MOL0     C13283   9.318   1.716   2.218  0.7633  0.6296 -0.3194
  840MOL0     C13284   9.193   1.743   2.166  0.6144  0.1833 -0.1988
  840MOL0     C13285   9.081   1.649   2.209 -0.7042  0.0642  0.7234
  840MOL0     C13286   9.052   1.540   2.112 -0.0614  0.4534 -0.3602
  840MOL0     C13287   9.169   1.436   2.113 -0.1002 -0.5727 -0.2702
  840MOL0     C13288   9.150   1.323   2.013 -0.1973 -0.4716  0.2291
  840MOL0     O13289   9.115   1.366   1.877  0.5976  0.7093 -1.1198
  840MOL0     C13290   9.197   1.424   1.785 -0.1967 -0.0829 -0.7125
  840MOL0     C13291   9.336   1.438   1.811  0.4456  0.3735 -0.3335
  840MOL0     C13292   9.426   1.491   1.720 -0.2175 -0.0229  0.3201
  840MOL0     C13293   9.576   1.490   1.765  0.5911  0.1101  0.4476
  840MOL0     C13294   9.373   1.540   1.591  1.1961 -0.4724  0.0233
  840MOL0     C13295   9.455   1.607   1.485  0.0671 -0.3763  0.0845
  840MOL0     O13296   9.594   1.611   1.505  0.8615 -0.3205 -0.5850
  840MOL0     C13297   9.663   1.710   1.444  0.0937 -0.1989 -0.4317
  840MOL0     C13298   9.795   1.675   1.406  0.1595  0.2239 -0.0527
  840MOL0     C13299   9.883   1.759   1.343  0.3968 -0.0859  0.1981
  840MOL0     C13300   9.837   1.884   1.307 -0.8812  0.1192  0.2889
  840MOL0     O13301   9.921   1.966   1.229  0.5359 -0.7222  0.1635
  840MOL0     C13302   9.863   2.018   1.108  0.2736 -0.0582  0.2560
  840MOL0     C13303   9.873   1.901   0.997 -0.2033  0.0630  0.1265
  840MOL0     C13304  10.017   1.864   0.962 -0.1739 -0.3530  0.0070
  840MOL0     C13305  10.044   1.723   0.997 -1.3485 -1.0416 -0.7960
  840MOL0     C13306  10.195   1.677   0.968  0.1531  0.3453 -0.1729
  840MOL0     C13307  10.240   1.649   0.829 -0.7466  0.1280 -0.3527
  840MOL0     C13308  10.386   1.591   0.824  0.2197 -0.7078  0.1313
  840MOL0     C13309  10.441   1.516   0.701 -0.3151 -0.4007  0.4506
  840MOL0    Cl13310  10.332   1.384   0.673 -0.1778  0.1362  0.1345
  840MOL0     C13311   9.713   1.928   1.351  0.7367 -0.0910 -0.1506
  840MOL0     C13312   9.622   1.848   1.415  0.1996 -0.5141  0.7275
  840MOL0     O13313   9.395   1.670   1.399 -0.0565  0.5189 -0.0408
  840MOL0     C13314   9.231   1.535   1.575  0.5520  0.9286  0.3650
  840MOL0     C13315   9.151   1.476   1.676  0.5798 -0.1926 -0.2660
  840MOL0     N13316   9.196   1.868   2.101  0.5729 -0.3727 -0.1579
  840MOL0     N13317   9.321   1.911   2.109  0.1036 -0.0285 -0.5805
  840MOL0     C13318  10.563   1.581   2.151 -0.7543 -0.0875 -0.5819
  840MOL0     C13319  10.650   1.602   2.258  0.5869 -0.4188  0.2649
  840MOL0     C13320  10.755   1.708   2.700 -0.2075 -0.0813 -0.4086
  840MOL0     C13321  10.893   1.710   2.660 -1.0940  0.1786 -0.4052
  840MOL0     C13322  10.999   1.735   2.758  0.7812 -0.2281 -0.2220
  840MOL0     C13323  10.958   1.758   2.886  0.5088 -0.3612 -0.3602
  840MOL0     O13324  11.073   1.783   2.966 -0.4584 -0.2269 -0.1754
  840MOL0     C13325  11.057   1.789   3.112 -0.1812  1.0462  0.0270
  840MOL0     C13326  11.194   1.766   3.181 -0.1287 -0.8875  0.9995
  840MOL0     C13327  11.278   1.893   3.170 -0.1631  0.2991 -0.2968
  840MOL0     C13328  11.237   2.027   3.255  0.5147  0.1073 -0.3127
  840MOL0     C13329  11.278   2.008   3.392 -0.4753  1.3703  0.0335
  840MOL0     C13330  11.293   2.003   3.516 -0.4779 -0.1039  0.0984
  840MOL0     C13331  10.828   1.757   2.930 -0.3926  0.7296  1.0656
  840MOL0     C13332  10.720   1.733   2.837 -0.3224  0.9484  0.3877
  840MOL0     H13333  10.420   1.548   2.506 -0.1010  2.6857  0.2889
  840MOL0     H13334  10.276   1.507   2.297  0.4901 -0.4096 -0.6088
  840MOL0     H13335  10.450   1.695   1.958 -1.9432  2.1183 -0.3066
  840MOL0     H13336  10.304   1.618   1.885 -2.0598 -0.1178  0.5436
  840MOL0     H13337  10.292   1.794   2.132  0.7478 -1.9826  0.4604
  840MOL0     H13338  10.253   1.828   1.966 -0.6729  0.9022  0.1106
  840MOL0     H13339  10.074   1.657   1.952  0.8322 -0.0610 -0.9468
  840MOL0     H13340  10.117   1.591   2.111  1.3163 -0.0774  0.1997
  840MOL0     H13341  10.050   1.796   2.220 -4.0172 -1.0316  2.1607
  840MOL0     H13342  10.009   1.875   2.063 -3.5957  0.7104 -0.1712
  840MOL0     H13343   9.846   1.752   2.005 -0.2886 -5.3203 -0.3405
  840MOL0     H13344   9.855   1.623   2.114  0.8148  0.3285 -0.0569
  840MOL0     H13345   9.791   1.794   2.309  5.1088  1.6390 -0.2023
  840MOL0     H13346   9.771   1.905   2.176  2.0282  0.2406 -1.3656
  840MOL0     H13347   9.618   1.757   2.058  3.9086 -1.0487 -1.1197
  840MOL0     H13348   9.613   1.648   2.203  1.2202 -0.4129 -0.2098
  840MOL0     H13349   9.557   1.945   2.238 -0.3088  0.7823  0.7414
  840MOL0     H13350   9.511   1.816   2.345 -2.4670  0.2703  0.4395
  840MOL0     H13351   9.345   1.622   2.264 -1.9454 -0.1502 -0.1407
  840MOL0     H13352   9.106   1.600   2.304 -5.4256 -0.8222  1.7493
  840MOL0     H13353   8.990   1.706   2.227 -1.5702 -1.0919  0.1642
  840MOL0     H13354   9.045   1.577   2.010 -1.5185 -0.1145 -0.4885
  840MOL0     H13355   8.954   1.504   2.147 -0.1707  0.7442 -0.3629
  840MOL0     H13356   9.183   1.391   2.211  2.1002 -0.9319 -0.6889
  840MOL0     H13357   9.253   1.501   2.087 -0.4712 -0.9204 -2.5447
  840MOL0     H13358   9.076   1.256   2.057 -1.9063  0.1134 -1.5589
  840MOL0     H13359   9.237   1.258   1.999  1.8564  1.6993  2.1167
  840MOL0     H13360   9.377   1.392   1.901  1.1544  1.6851  0.0431
  840MOL0     H13361   9.581   1.475   1.873 -3.4579 -1.0621  0.6481
  840MOL0     H13362   9.638   1.406   1.734  0.1669 -0.3148  0.7376
  840MOL0     H13363   9.615   1.590   1.741 -0.3164  0.4622  0.3854
  840MOL0     H13364   9.818   1.572   1.433 -2.7493 -0.3448  0.5781
  840MOL0     H13365   9.984   1.723   1.323  0.6324 -0.0281  1.2275
  840MOL0     H13366   9.756   2.041   1.117  0.4793  2.5843 -2.5020
  840MOL0     H13367   9.917   2.107   1.073 -0.9208  2.1953  3.6797
  840MOL0     H13368   9.816   1.818   1.041  1.9270 -1.8344 -0.4745
  840MOL0     H13369   9.822   1.940   0.909 -1.6010 -0.3264  0.7336
  840MOL0     H13370  10.092   1.930   1.007  0.3097 -0.1512 -1.0476
  840MOL0     H13371  10.031   1.867   0.853 -1.6477  2.6238 -0.1807
  840MOL0     H13372  10.028   1.707   1.104  2.6054  1.6007  0.4064
  840MOL0     H13373   9.973   1.668   0.935 -4.8143  3.5785 -1.4870
  840MOL0     H13374  10.202   1.582   1.020 -0.4175 -0.9101 -2.2709
  840MOL0     H13375  10.269   1.739   1.019  0.2944  0.1021 -0.0835
  840MOL0     H13376  10.178   1.581   0.771 -0.1774  1.4990 -2.6848
  840MOL0     H13377  10.249   1.748   0.782  2.7584  0.9659  1.6925
  840MOL0     H13378  10.392   1.528   0.914  3.6798 -3.7162 -1.8912
  840MOL0     H13379  10.460   1.671   0.830 -2.9232  2.5209 -0.6673
  840MOL0     H13380  10.539   1.471   0.715  0.5411  0.3380 -2.5275
  840MOL0     H13381  10.454   1.589   0.620  3.7218 -0.2099  1.0819
  840MOL0     H13382   9.680   2.028   1.325 -1.0571 -0.6447 -0.1828
  840MOL0     H13383   9.529   1.895   1.447  0.0287  1.7231 -2.5375
  840MOL0     H13384   9.186   1.558   1.479  1.7510 -0.9736 -0.7314
  840MOL0     H13385   9.043   1.468   1.662 -0.0874  3.6633  1.3184
  840MOL0     H13386  10.604   1.615   2.057  1.4029  1.2119  0.7557
  840MOL0     H13387  10.749   1.644   2.246 -0.6605  1.9509 -3.0486
  840MOL0     H13388  10.920   1.707   2.555 -1.5513 -0.8957 -0.5037
  840MOL0     H13389  11.100   1.751   2.721  1.3771  1.3462  1.8481
  840MOL0     H13390  11.012   1.887   3.130 -2.2879 -0.3413  3.1027
  840MOL0     H13391  10.990   1.709   3.143 -2.4911  2.1571 -1.8289
  840MOL0     H13392  11.248   1.685   3.130 -1.8313 -1.5716  0.2277
  840MOL0     H13393  11.181   1.737   3.286 -1.1361  0.3261  1.2298
  840MOL0     H13394  11.273   1.935   3.069  2.1405  0.2048 -0.4923
  840MOL0     H13395  11.386   1.879   3.170  0.0598  1.7064  0.8549
  840MOL0     H13396  11.129   2.046   3.249  0.3920 -0.8474 -1.6315
  840MOL0     H13397  11.285   2.111   3.205  0.7891  0.1750  0.0629
  840MOL0     H13398  11.292   1.991   3.622  0.8744 -2.5234 -0.0890
  840MOL0     H13399  10.805   1.790   3.031  0.6958 -0.1809  1.6368
  840MOL0     H13400  10.617   1.748   2.865 -0.3084  1.5962  0.1052
  841MOL0     O13401  10.709  10.999   9.282 -0.0596  0.0531 -0.2658
  841MOL0     C13402  10.739  11.106   9.330  0.2467 -0.3809 -0.5546
  841MOL0     O13403  10.652  11.220   9.337 -0.4731  1.0580 -0.1283
  841MOL0     C13404  10.515  11.205   9.321 -0.2260 -0.0910 -0.0106
  841MOL0     C13405  10.438  11.313   9.265  0.3292 -0.0269 -0.0029
  841MOL0     C13406  10.299  11.318   9.265  0.8250  0.2972 -0.0260
  841MOL0     C13407  10.236  11.202   9.278 -0.0902  0.6189  0.4393
  841MOL0     O13408  10.099  11.182   9.274  1.7109 -0.1129 -0.5651
  841MOL0     C13409  10.018  11.307   9.266 -0.1525  0.5052  0.0938
  841MOL0     C13410   9.874  11.271   9.301 -0.3644 -0.2578  0.4008
  841MOL0     C13411   9.793  11.400   9.303  0.4600 -0.9562  0.4311
  841MOL0     C13412   9.644  11.383   9.321  0.3658  0.0200  0.4054
  841MOL0     C13413   9.587  11.518   9.344  0.1598 -0.4673  0.2349
  841MOL0     C13414   9.433  11.524   9.330  0.1444  0.0635 -0.4246
  841MOL0     C13415   9.390  11.678   9.353 -0.7778  0.4549 -0.1583
  841MOL0     C13416   9.233  11.669   9.335 -0.3445 -0.1727 -0.0343
  841MOL0     N13417   9.194  11.802   9.287  0.0998 -0.3838 -0.3953
  841MOL0     C13418   9.244  11.923   9.323  0.2461  0.4850  0.2020
  841MOL0     C13419   9.191  12.013   9.241  0.5096 -0.3963  0.0795
  841MOL0     C13420   9.193  12.170   9.243  0.1831  0.6777 -0.0729
  841MOL0     C13421   9.097  12.209   9.358  0.3493  0.2878 -0.0124
  841MOL0     C13422   9.100  12.366   9.377 -0.5228  1.3260  0.3139
  841MOL0     C13423   8.992  12.398   9.482 -0.1628 -0.1159  1.3790
  841MOL0     O13424   8.867  12.419   9.415 -0.0603 -0.6723  0.7542
  841MOL0     C13425   8.774  12.487   9.487  0.3581  0.2701 -0.5054
  841MOL0     C13426   8.642  12.500   9.439  0.0013 -0.3697 -0.6101
  841MOL0     C13427   8.547  12.567   9.514  1.1611  0.0593  0.4742
  841MOL0     C13428   8.411  12.546   9.440  0.3987  0.2005 -0.8405
  841MOL0     C13429   8.568  12.629   9.647  0.1161  0.2593  0.2920
  841MOL0     C13430   8.470  12.701   9.735 -0.3422 -0.4401 -0.0593
  841MOL0     O13431   8.519  12.762   9.853  0.4427 -0.0987 -0.0343
  841MOL0     C13432   8.451  12.875   9.897  0.2280  0.1018  0.3404
  841MOL0     C13433   8.348  12.873   9.992 -0.0090  0.2374 -0.3404
  841MOL0     C13434   8.304  12.994  10.042  0.4568  0.2534  0.8260
  841MOL0     C13435   8.366  13.114  10.016 -0.2026 -0.3787  0.3962
  841MOL0     O13436   8.313  13.232  10.037 -0.9428 -1.2607 -0.2159
  841MOL0     C13437   8.176  13.245  10.033  0.8797 -0.6581  0.2468
  841MOL0     C13438   8.132  13.384  10.097  0.0458 -0.4961  0.3764
  841MOL0     C13439   8.150  13.378  10.250 -1.0088  0.0041  0.3064
  841MOL0     C13440   8.017  13.368  10.320  0.7495  1.1831  0.7545
  841MOL0     C13441   8.036  13.386  10.470  0.1666  0.0569 -0.0372
  841MOL0     C13442   7.891  13.393  10.532 -1.1972 -0.2335  0.0057
  841MOL0     C13443   7.905  13.391  10.686  0.0334  0.7436  0.2082
  841MOL0     C13444   7.758  13.407  10.745 -0.4266  0.4693 -0.4157
  841MOL0    Cl13445   7.650  13.270  10.705 -0.0693  0.6922 -0.1958
  841MOL0     C13446   8.473  13.116   9.926  0.3327  0.3046 -1.0580
  841MOL0     C13447   8.508  12.999   9.868  0.4831  0.0029  0.4320
  841MOL0     O13448   8.363  12.723   9.690 -0.0755 -0.0952  0.0488
  841MOL0     C13449   8.703  12.622   9.688 -0.4457 -0.3653 -0.3757
  841MOL0     C13450   8.796  12.564   9.607 -0.9344  0.3973  0.3891
  841MOL0     N13451   9.097  11.943   9.169 -0.4195 -0.2435 -0.2323
  841MOL0     N13452   9.105  11.819   9.181 -0.5733  0.6412  0.6144
  841MOL0     C13453  10.303  11.085   9.317 -0.4832 -0.5344 -0.3055
  841MOL0     C13454  10.439  11.088   9.335  0.0218  0.2332 -0.6306
  841MOL0     C13455  10.882  11.120   9.368  0.0363 -0.4064 -0.4438
  841MOL0     C13456  10.939  11.242   9.416 -1.1286 -0.7237 -0.8476
  841MOL0     C13457  11.078  11.258   9.444  0.0467  0.0146 -0.5955
  841MOL0     C13458  11.161  11.151   9.428  0.0647  0.6899  0.9193
  841MOL0     O13459  11.290  11.173   9.471  0.3215 -0.4194  0.4248
  841MOL0     C13460  11.400  11.098   9.412  0.2338  0.2926 -1.2601
  841MOL0     C13461  11.538  11.156   9.446 -0.4844 -0.2483 -0.0787
  841MOL0     C13462  11.548  11.298   9.402 -1.2797  0.5081 -0.1188
  841MOL0     C13463  11.679  11.349   9.457  0.6638 -0.1622  0.3094
  841MOL0     C13464  11.702  11.484   9.406  0.4361  0.9671  0.4946
  841MOL0     C13465  11.749  11.585   9.366  0.8384  0.5885 -0.5041
  841MOL0     C13466  11.108  11.034   9.384  0.3363  1.0504 -0.0775
  841MOL0     C13467  10.977  11.014   9.354 -0.3685  0.6396 -0.2093
  841MOL0     H13468  10.495  11.401   9.239 -1.1027  0.2869 -2.3756
  841MOL0     H13469  10.244  11.410   9.245 -0.2077 -0.3636 -0.3004
  841MOL0     H13470  10.058  11.378   9.339  1.2112  0.1449 -0.2822
  841MOL0     H13471  10.022  11.364   9.173 -0.3080  1.1427  0.4658
  841MOL0     H13472   9.848  11.201   9.221  1.4770 -0.0520 -0.4252
  841MOL0     H13473   9.869  11.225   9.401  2.7667  2.3974  1.9680
  841MOL0     H13474   9.827  11.461   9.387 -3.0089  2.3425 -0.2902
  841MOL0     H13475   9.809  11.454   9.209 -0.7362 -0.5776  0.4266
  841MOL0     H13476   9.605  11.332   9.232  0.2813 -1.7933  1.4434
  841MOL0     H13477   9.635  11.319   9.409 -0.7912  1.2545  1.2266
  841MOL0     H13478   9.611  11.547   9.447 -0.5241  1.5015 -0.1135
  841MOL0     H13479   9.626  11.600   9.283 -0.4269  0.7566  1.4277
  841MOL0     H13480   9.406  11.495   9.228  1.7054 -1.6706 -0.4007
  841MOL0     H13481   9.388  11.448   9.395  0.8074 -0.9227 -1.1015
  841MOL0     H13482   9.418  11.704   9.455  2.7037 -1.9916 -0.3348
  841MOL0     H13483   9.446  11.739   9.281  2.8151 -1.8769  0.4032
  841MOL0     H13484   9.185  11.651   9.432  0.5931 -1.0706  0.2694
  841MOL0     H13485   9.202  11.595   9.261 -3.3495  2.2163 -1.4142
  841MOL0     H13486   9.299  11.948   9.413 -0.5606  0.3632  0.7382
  841MOL0     H13487   9.293  12.213   9.240  0.0721  0.9768  0.3462
  841MOL0     H13488   9.150  12.217   9.155 -0.4084  1.7619  0.7661
  841MOL0     H13489   9.135  12.162   9.449  1.5149  1.1281 -0.0352
  841MOL0     H13490   8.995  12.172   9.347  1.1207 -1.4170 -2.1224
  841MOL0     H13491   9.080  12.422   9.285  1.6195  0.4442 -0.7756
  841MOL0     H13492   9.198  12.401   9.409 -0.5440  1.5752  0.1129
  841MOL0     H13493   9.035  12.484   9.535  0.9605 -0.9352  1.8467
  841MOL0     H13494   8.990  12.323   9.562  2.6143 -1.7995  0.0198
  841MOL0     H13495   8.628  12.462   9.339  0.2587 -0.6022 -0.5595
  841MOL0     H13496   8.350  12.637   9.441  1.7888  1.1615 -0.4154
  841MOL0     H13497   8.424  12.530   9.332 -0.9965  0.9256 -1.1447
  841MOL0     H13498   8.360  12.462   9.487  1.5055  1.5120  3.1085
  841MOL0     H13499   8.302  12.783  10.030 -0.9002  1.2675  1.1567
  841MOL0     H13500   8.225  12.991  10.116 -0.9090 -4.0466 -0.5305
  841MOL0     H13501   8.130  13.246   9.934  1.4370  0.5915 -0.0205
  841MOL0     H13502   8.128  13.167  10.093 -4.2490 -0.6579 -3.2527
  841MOL0     H13503   8.182  13.468  10.048 -2.8270  0.2658 -1.5327
  841MOL0     H13504   8.025  13.394  10.076  0.2839  2.0663 -0.0267
  841MOL0     H13505   8.190  13.477  10.274  1.1200 -0.4738 -1.0666
  841MOL0     H13506   8.215  13.292  10.267 -1.5349 -0.1524  1.5697
  841MOL0     H13507   7.955  13.445  10.274  3.6444  3.3094  0.0838
  841MOL0     H13508   7.971  13.271  10.299  1.0825  1.1854 -0.0204
  841MOL0     H13509   8.091  13.476  10.496 -0.7438  0.9164 -0.9907
  841MOL0     H13510   8.094  13.304  10.514 -0.6171  0.4833  1.8916
  841MOL0     H13511   7.847  13.492  10.515 -0.2022  0.6259  2.0374
  841MOL0     H13512   7.840  13.306  10.492 -1.4304  0.4389 -1.2119
  841MOL0     H13513   7.969  13.474  10.718  1.0990 -0.7168  2.0145
  841MOL0     H13514   7.956  13.299  10.713  1.4760  1.1361 -1.0503
  841MOL0     H13515   7.703  13.493  10.705 -2.6140 -0.9168 -0.5129
  841MOL0     H13516   7.755  13.416  10.854 -0.6533  1.3627 -0.4844
  841MOL0     H13517   8.518  13.209   9.892 -4.2938  4.1301  1.8951
  841MOL0     H13518   8.575  12.991   9.783 -1.0282  2.8913 -1.2067
  841MOL0     H13519   8.740  12.668   9.779 -0.3295 -1.8208  0.3489
  841MOL0     H13520   8.899  12.554   9.640 -1.4863 -3.9522  1.4322
  841MOL0     H13521  10.243  10.997   9.339  4.1005 -3.8285  0.2552
  841MOL0     H13522  10.489  11.000   9.374  0.3906  1.2985  1.4802
  841MOL0     H13523  10.876  11.327   9.440  0.1069 -0.2942  1.1074
  841MOL0     H13524  11.113  11.355   9.478  1.7478 -0.6904 -0.2356
  841MOL0     H13525  11.390  10.994   9.445 -2.3353  0.9885  0.4175
  841MOL0     H13526  11.391  11.089   9.304 -1.2774  0.4581 -1.1588
  841MOL0     H13527  11.617  11.102   9.393  4.1172  0.9541  4.7069
  841MOL0     H13528  11.560  11.140   9.552 -1.0375  2.7241  0.5633
  841MOL0     H13529  11.468  11.360   9.444 -4.4613 -3.1249 -0.2142
  841MOL0     H13530  11.541  11.297   9.293 -0.2984  0.5657 -0.1902
  841MOL0     H13531  11.760  11.277   9.442 -0.5775 -1.8158  1.2028
  841MOL0     H13532  11.673  11.358   9.566 -1.2679  2.8260  0.0838
  841MOL0     H13533  11.813  11.666   9.339  0.1109  0.5419 -2.5334
  841MOL0     H13534  11.181  10.956   9.367 -0.5133  0.1679  0.2921
  841MOL0     H13535  10.959  10.908   9.339  2.3783 -0.2682  1.9352
  842MOL0     O13536   7.402   8.318   6.130  0.6531 -0.4960 -0.0145
  842MOL0     C13537   7.327   8.416   6.146  0.2802  0.3209 -0.3151
  842MOL0     O13538   7.183   8.411   6.136 -0.4415  0.3460  0.8213
  842MOL0     C13539   7.109   8.301   6.082  0.1595 -0.3357 -1.3571
  842MOL0     C13540   7.166   8.207   5.998 -0.5606  0.3483  0.7295
  842MOL0     C13541   7.095   8.092   5.948 -1.0094 -0.2723 -0.4716
  842MOL0     C13542   6.962   8.071   6.000  0.2545  0.2815  0.2836
  842MOL0     O13543   6.903   7.951   5.978  0.0293  0.8382 -0.2727
  842MOL0     C13544   6.856   7.909   5.843  0.1630  0.5940  0.6016
  842MOL0     C13545   6.747   7.986   5.801  0.6657 -0.3276  0.0630
  842MOL0     C13546   6.615   7.954   5.889  0.1564  0.1816  0.2684
  842MOL0     C13547   6.528   8.065   5.845  0.8906  0.2282 -0.5184
  842MOL0     C13548   6.378   8.013   5.828  0.5800  0.6158 -0.0597
  842MOL0     C13549   6.275   8.125   5.796  0.0538 -0.3262  0.6758
  842MOL0     C13550   6.145   8.052   5.770 -0.6013  1.2122  0.2882
  842MOL0     C13551   6.031   8.150   5.756 -0.1646 -0.3248  0.4260
  842MOL0     N13552   6.002   8.232   5.883 -0.6170  0.9835  0.6904
  842MOL0     C13553   6.042   8.195   6.013  0.9731 -1.2958 -0.3775
  842MOL0     C13554   5.958   8.269   6.094  0.5180 -0.0534  0.1628
  842MOL0     C13555   5.926   8.252   6.244 -0.6493 -0.3440  0.2306
  842MOL0     C13556   5.897   8.381   6.313 -0.3619 -0.6122 -1.1396
  842MOL0     C13557   6.009   8.488   6.309  0.3000  0.3312  0.9401
  842MOL0     C13558   5.981   8.592   6.416 -0.0028  0.4354 -0.0755
  842MOL0     O13559   5.857   8.658   6.393  0.7224  0.3839 -0.1925
  842MOL0     C13560   5.800   8.726   6.504 -0.4402 -0.2152 -0.5880
  842MOL0     C13561   5.865   8.752   6.626  0.3270  0.0132 -0.3486
  842MOL0     C13562   5.798   8.827   6.729 -0.3740  1.0052 -0.2297
  842MOL0     C13563   5.871   8.846   6.860  0.6108  0.2884  0.7508
  842MOL0     C13564   5.673   8.868   6.713  0.8084  0.6295 -0.7186
  842MOL0     C13565   5.589   8.927   6.817 -0.3056 -0.6462  0.9404
  842MOL0     O13566   5.634   9.043   6.877  0.5685 -0.2046  0.7291
  842MOL0     C13567   5.584   9.085   7.003  0.1817 -0.4617  0.0446
  842MOL0     C13568   5.577   9.001   7.118  0.4013  0.1799 -0.5007
  842MOL0     C13569   5.526   9.050   7.241  0.5308  0.0940 -0.0714
  842MOL0     C13570   5.469   9.183   7.250 -1.2651 -0.2029 -0.2351
  842MOL0     O13571   5.417   9.234   7.363 -0.2730 -0.9427  0.7416
  842MOL0     C13572   5.319   9.158   7.429  0.4018  1.3055  0.7384
  842MOL0     C13573   5.283   9.235   7.552  0.2062  0.1621 -1.2950
  842MOL0     C13574   5.173   9.171   7.651 -0.3458  0.7209  0.1030
  842MOL0     C13575   5.038   9.186   7.585  0.6398 -0.5756  0.2615
  842MOL0     C13576   4.923   9.131   7.672 -0.1509 -0.0435 -0.3652
  842MOL0     C13577   4.787   9.088   7.604 -0.1693  0.0146 -0.0852
  842MOL0     C13578   4.730   9.180   7.506 -0.9315  0.1572  0.0404
  842MOL0     C13579   4.594   9.119   7.450  0.2021 -0.1483  0.0856
  842MOL0    Cl13580   4.622   8.984   7.332  0.3694 -0.1210 -0.1006
  842MOL0     C13581   5.471   9.265   7.131  0.2556 -0.1940 -0.9532
  842MOL0     C13582   5.539   9.218   7.017  0.2515  1.0003 -0.3768
  842MOL0     O13583   5.477   8.880   6.829 -0.1206  0.0881 -0.2476
  842MOL0     C13584   5.608   8.844   6.588  0.5783 -0.2674 -0.1112
  842MOL0     C13585   5.676   8.779   6.487  0.9654 -0.4057  0.4966
  842MOL0     N13586   5.883   8.350   6.009 -0.3058 -0.9509 -0.0302
  842MOL0     N13587   5.917   8.335   5.884 -0.1874 -0.9434  0.3780
  842MOL0     C13588   6.906   8.154   6.098 -0.6947  0.0945 -0.3065
  842MOL0     C13589   6.976   8.272   6.129 -1.3443 -0.0290  0.5760
  842MOL0     C13590   7.397   8.535   6.206  0.8857 -0.8436  0.5986
  842MOL0     C13591   7.322   8.654   6.205  0.5854 -0.9627 -0.2633
  842MOL0     C13592   7.384   8.772   6.250 -0.4003 -0.1904  0.0743
  842MOL0     C13593   7.519   8.783   6.295  0.0547  0.5062 -0.4880
  842MOL0     O13594   7.578   8.894   6.348 -0.6695 -0.0916  0.1513
  842MOL0     C13595   7.527   9.027   6.333 -0.2103  0.0951 -0.1755
  842MOL0     C13596   7.635   9.127   6.378  0.0622 -0.9102 -0.4985
  842MOL0     C13597   7.685   9.108   6.528 -0.1845 -0.2740  0.3535
  842MOL0     C13598   7.584   9.154   6.631  0.0662  0.7120  0.6116
  842MOL0     C13599   7.581   9.299   6.615  1.3840  1.1920 -0.1226
  842MOL0     C13600   7.576   9.418   6.604  0.1103 -0.6585  0.9239
  842MOL0     C13601   7.590   8.656   6.290 -0.3417  0.3899 -0.2801
  842MOL0     C13602   7.527   8.541   6.248  0.1045  0.0227 -0.2406
  842MOL0     H13603   7.259   8.232   5.948 -1.4154  1.8117 -0.2092
  842MOL0     H13604   7.145   8.013   5.892  1.0820  1.0914 -0.6348
  842MOL0     H13605   6.942   7.923   5.776  0.5217  0.9725  1.1229
  842MOL0     H13606   6.825   7.805   5.836  0.2014  0.6614 -0.7595
  842MOL0     H13607   6.784   8.089   5.806 -1.1652  0.3605  0.2925
  842MOL0     H13608   6.705   7.968   5.701 -1.6301 -0.0024  0.9040
  842MOL0     H13609   6.569   7.861   5.853 -2.4861  1.6725 -0.4802
  842MOL0     H13610   6.633   7.957   5.997 -1.1355  1.6263  0.4759
  842MOL0     H13611   6.547   8.150   5.912  0.8032  0.2192 -0.4821
  842MOL0     H13612   6.548   8.106   5.745 -1.2561  1.5758 -0.4656
  842MOL0     H13613   6.373   7.938   5.749 -2.3615 -0.8884  1.3668
  842MOL0     H13614   6.348   7.954   5.916  1.5588 -0.3174 -0.3211
  842MOL0     H13615   6.266   8.199   5.876  1.2077  0.9553 -0.3258
  842MOL0     H13616   6.285   8.176   5.699 -2.5092  0.2837  0.6568
  842MOL0     H13617   6.147   8.004   5.672 -2.9189  0.1780  0.6810
  842MOL0     H13618   6.114   7.978   5.844 -1.3100 -2.5369 -3.3443
  842MOL0     H13619   5.944   8.085   5.751 -0.4345  0.1159 -1.0381
  842MOL0     H13620   6.038   8.216   5.668  1.2169 -2.5648 -1.2576
  842MOL0     H13621   6.109   8.111   6.030  0.8999 -1.4960 -1.0443
  842MOL0     H13622   5.845   8.179   6.255 -0.3112 -0.9435 -1.0988
  842MOL0     H13623   6.010   8.203   6.293 -0.8357  0.5783  1.5353
  842MOL0     H13624   5.885   8.354   6.418 -1.7576  1.0822 -0.8352
  842MOL0     H13625   5.805   8.414   6.265 -0.5929 -0.6672 -0.7403
  842MOL0     H13626   6.013   8.531   6.209 -0.4803 -1.0946  0.2620
  842MOL0     H13627   6.102   8.433   6.322  1.8318  2.8102  1.2040
  842MOL0     H13628   6.059   8.668   6.424  0.9581 -0.3181 -1.6906
  842MOL0     H13629   5.980   8.536   6.510  1.9076 -0.9881 -0.8412
  842MOL0     H13630   5.964   8.714   6.647  1.0934  2.6965  1.3981
  842MOL0     H13631   5.915   8.946   6.858  0.1474  0.4829 -0.2136
  842MOL0     H13632   5.801   8.828   6.942  1.4581 -0.2670  1.3649
  842MOL0     H13633   5.938   8.759   6.859  0.2083 -0.0702 -1.5859
  842MOL0     H13634   5.623   8.903   7.118 -1.8112 -0.9961  2.2511
  842MOL0     H13635   5.532   8.988   7.330  1.4127  0.9295  0.4667
  842MOL0     H13636   5.230   9.155   7.366  0.5421 -0.9024  0.5655
  842MOL0     H13637   5.354   9.057   7.451 -0.9374  0.6787  0.0787
  842MOL0     H13638   5.375   9.252   7.608 -2.5204 -0.4349  4.0722
  842MOL0     H13639   5.232   9.328   7.528  1.4529  1.3998  0.5960
  842MOL0     H13640   5.163   9.235   7.739 -0.9553  2.0071 -0.8447
  842MOL0     H13641   5.194   9.070   7.684 -2.5483 -0.0270 -0.5492
  842MOL0     H13642   5.015   9.291   7.565  0.9021 -0.5714 -0.0161
  842MOL0     H13643   5.042   9.136   7.488  0.3729  1.3818 -0.7988
  842MOL0     H13644   4.907   9.217   7.738 -1.3379  0.3832 -1.1736
  842MOL0     H13645   4.963   9.040   7.719  0.7467 -0.0790 -1.1706
  842MOL0     H13646   4.808   8.990   7.560 -0.3094  1.0502 -2.5978
  842MOL0     H13647   4.704   9.076   7.675 -1.0745 -1.3697 -1.3268
  842MOL0     H13648   4.796   9.218   7.427 -0.6925  1.5077  0.8509
  842MOL0     H13649   4.701   9.269   7.563 -0.5714 -0.7100  1.6302
  842MOL0     H13650   4.531   9.200   7.412  0.6590 -1.2658 -3.3506
  842MOL0     H13651   4.541   9.064   7.528 -1.2376 -0.0808 -0.8103
  842MOL0     H13652   5.425   9.364   7.132  0.4313 -0.1165 -0.0855
  842MOL0     H13653   5.556   9.286   6.934 -2.8484  1.0732 -1.0868
  842MOL0     H13654   5.508   8.876   6.563  0.1547  0.1820  2.0086
  842MOL0     H13655   5.617   8.767   6.396 -1.8314  0.8327  2.0221
  842MOL0     H13656   6.807   8.130   6.136 -0.0240 -0.7058  1.0115
  842MOL0     H13657   6.932   8.343   6.198 -1.0065  0.3720  0.3898
  842MOL0     H13658   7.222   8.647   6.165 -0.7000  0.4705  2.4860
  842MOL0     H13659   7.326   8.863   6.250 -2.0964 -1.2230  0.5183
  842MOL0     H13660   7.502   9.053   6.230  0.3745  6.7353  0.9159
  842MOL0     H13661   7.435   9.038   6.391 -0.8800 -3.8875 -0.2009
  842MOL0     H13662   7.605   9.232   6.370  3.3772  0.4590  2.0743
  842MOL0     H13663   7.723   9.116   6.314 -0.5258  0.5156 -1.6101
  842MOL0     H13664   7.777   9.166   6.546 -1.3854  3.9838 -4.6827
  842MOL0     H13665   7.715   9.005   6.550  0.0988  0.3368  3.2624
  842MOL0     H13666   7.623   9.127   6.730  1.3036 -1.2495 -0.3419
  842MOL0     H13667   7.479   9.125   6.620  0.5812 -1.1515  0.1369
  842MOL0     H13668   7.579   9.523   6.584  0.3025 -1.0907 -1.6781
  842MOL0     H13669   7.688   8.653   6.336 -0.7721  0.9454  0.7037
  842MOL0     H13670   7.580   8.450   6.273  0.1935 -0.0776 -0.7866
  843MOL0     O13671   2.091   9.285   5.924 -0.0245 -0.6331 -0.5742
  843MOL0     C13672   2.199   9.234   5.931  0.3683  0.8108  0.4682
  843MOL0     O13673   2.309   9.290   5.985  0.2380  0.3767 -0.6650
  843MOL0     C13674   2.303   9.399   6.065 -0.2987  0.3471  0.5649
  843MOL0     C13675   2.218   9.404   6.178 -0.3295 -0.3646  0.1989
  843MOL0     C13676   2.210   9.525   6.244  0.0199  1.2651 -1.2718
  843MOL0     C13677   2.287   9.635   6.212 -0.9753 -0.5610 -0.3937
  843MOL0     O13678   2.278   9.757   6.276  0.3228  0.0364  0.6238
  843MOL0     C13679   2.184   9.785   6.383  0.3363  0.7110  0.1996
  843MOL0     C13680   2.161   9.933   6.395  0.7740  0.1055 -1.0323
  843MOL0     C13681   2.108  10.006   6.270 -0.2524  0.5583 -0.3648
  843MOL0     C13682   2.122  10.159   6.301 -0.2159  0.0009  0.2004
  843MOL0     C13683   2.105  10.241   6.169  0.0836  0.3036  0.0655
  843MOL0     C13684   2.157  10.379   6.197 -0.3744 -0.1623  0.2618
  843MOL0     C13685   2.169  10.466   6.070 -0.6565 -0.1930  0.0215
  843MOL0     C13686   2.027  10.497   6.011 -0.0178 -0.5746  0.5732
  843MOL0     N13687   2.031  10.589   5.899  0.8834  0.2585  0.7185
  843MOL0     C13688   2.105  10.696   5.895  0.0861 -0.3106  0.7803
  843MOL0     C13689   2.085  10.754   5.766 -0.0514  0.0649  0.2865
  843MOL0     C13690   2.171  10.864   5.707  0.0910  0.1672  0.0566
  843MOL0     C13691   2.077  10.981   5.685  0.1274 -0.5337  1.1693
  843MOL0     C13692   2.009  11.020   5.817 -0.0165 -0.0843  1.0809
  843MOL0     C13693   1.931  11.141   5.800  0.3147  0.3702  0.2456
  843MOL0     O13694   2.008  11.257   5.763 -0.5444 -0.0745 -0.0388
  843MOL0     C13695   1.952  11.384   5.786 -0.1502 -0.3142  0.4909
  843MOL0     C13696   1.823  11.405   5.847  0.9449 -1.2245  0.3573
  843MOL0     C13697   1.772  11.536   5.856 -0.4106 -0.0434 -0.8093
  843MOL0     C13698   1.648  11.539   5.942 -0.5248 -0.4933  0.2627
  843MOL0     C13699   1.867  11.645   5.838  0.4097  0.0949  0.0841
  843MOL0     C13700   1.835  11.782   5.876 -0.4211  0.9932  0.1298
  843MOL0     O13701   1.932  11.872   5.855  0.3604  0.3395 -0.0930
  843MOL0     C13702   1.915  12.006   5.882  0.0805 -0.4458 -0.4937
  843MOL0     C13703   2.015  12.072   5.959  0.4354 -0.0062 -0.1814
  843MOL0     C13704   2.012  12.207   5.987 -0.1114  0.2513 -0.0597
  843MOL0     C13705   1.901  12.281   5.944 -0.0435  1.2593  0.1626
  843MOL0     O13706   1.907  12.415   5.971 -0.4699  0.4825 -0.0461
  843MOL0     C13707   1.972  12.484   5.868 -0.3885 -0.9379  0.4858
  843MOL0     C13708   1.983  12.635   5.907 -0.2129 -0.3792  0.2141
  843MOL0     C13709   2.062  12.651   6.039 -0.2361  0.4156  1.0390
  843MOL0     C13710   2.155  12.779   6.041 -1.0220  0.3206  0.7502
  843MOL0     C13711   2.274  12.772   5.943  0.5332 -0.3269  1.1214
  843MOL0     C13712   2.366  12.893   5.935 -0.4669 -0.0625 -0.1449
  843MOL0     C13713   2.482  12.871   5.833  0.3072  0.0647  1.1938
  843MOL0     C13714   2.591  12.776   5.878  0.7637  0.8857 -0.9365
  843MOL0    Cl13715   2.706  12.746   5.746 -0.1220 -0.1379  0.2560
  843MOL0     C13716   1.791  12.216   5.881 -0.2942  1.3647  0.3498
  843MOL0     C13717   1.799  12.081   5.850 -0.1299 -0.1309 -0.2645
  843MOL0     O13718   1.729  11.804   5.934  0.2358 -0.3524  0.2492
  843MOL0     C13719   1.991  11.620   5.777  0.3014 -0.2760 -0.9028
  843MOL0     C13720   2.034  11.486   5.756  1.1764 -0.5494 -0.0043
  843MOL0     N13721   1.994  10.673   5.692 -0.0619 -0.5592 -0.4502
  843MOL0     N13722   1.973  10.575   5.776  0.2602  0.2950  0.0063
  843MOL0     C13723   2.364   9.624   6.108 -0.4495 -0.0242  0.7184
  843MOL0     C13724   2.381   9.496   6.032 -0.8557  0.1099 -0.5870
  843MOL0     C13725   2.220   9.113   5.855  0.7927  0.1182  0.9377
  843MOL0     C13726   2.107   9.043   5.805  0.2514  0.1818 -0.2141
  843MOL0     C13727   2.129   8.932   5.734  0.6919 -0.3087 -0.6858
  843MOL0     C13728   2.261   8.880   5.718 -0.3940  0.5385 -0.0036
  843MOL0     O13729   2.275   8.755   5.650  0.4023  0.0258 -0.1266
  843MOL0     C13730   2.171   8.659   5.685 -0.9293  0.7409  0.4931
  843MOL0     C13731   2.209   8.518   5.666 -0.9589 -0.6148  0.6954
  843MOL0     C13732   2.268   8.464   5.794  0.0887  0.5611 -0.3902
  843MOL0     C13733   2.334   8.325   5.785  0.6489 -0.5129  0.0334
  843MOL0     C13734   2.471   8.335   5.724  0.5767 -0.7816 -0.3598
  843MOL0     C13735   2.574   8.348   5.660 -0.0359  1.3508 -0.4995
  843MOL0     C13736   2.372   8.952   5.765 -0.1812 -0.5937  0.2647
  843MOL0     C13737   2.352   9.066   5.843  0.2995  0.2796  0.0859
  843MOL0     H13738   2.145   9.327   6.199 -0.8532 -1.2235 -3.8649
  843MOL0     H13739   2.136   9.516   6.323 -2.9353 -0.4241 -3.9647
  843MOL0     H13740   2.088   9.738   6.362  1.1601 -0.0175 -2.3569
  843MOL0     H13741   2.228   9.744   6.474 -0.8452 -1.6414 -0.2090
  843MOL0     H13742   2.097   9.953   6.481  1.9899  0.0084 -0.0721
  843MOL0     H13743   2.258   9.981   6.412  0.8663 -0.5087  0.3229
  843MOL0     H13744   2.177   9.968   6.194  0.1459 -1.8118  1.0826
  843MOL0     H13745   2.006   9.975   6.246 -0.2621 -1.3350  1.8000
  843MOL0     H13746   2.057  10.194   6.382 -0.0491  1.2187 -0.1714
  843MOL0     H13747   2.226  10.171   6.333 -0.2053 -0.0423  0.1823
  843MOL0     H13748   2.161  10.192   6.089 -2.0314 -2.9964  0.3853
  843MOL0     H13749   2.002  10.251   6.133 -1.1375  1.1164  3.3761
  843MOL0     H13750   2.096  10.417   6.279  1.4262  1.3962  0.9567
  843MOL0     H13751   2.261  10.386   6.230  0.0881  2.6921 -1.4161
  843MOL0     H13752   2.226  10.554   6.100  1.8730 -1.0935 -1.8121
  843MOL0     H13753   2.232  10.406   6.003  2.7499  0.5350  2.3096
  843MOL0     H13754   1.962  10.545   6.085 -1.1311  0.0774 -0.7897
  843MOL0     H13755   1.993  10.398   5.980  0.6672 -0.4496 -0.6410
  843MOL0     H13756   2.175  10.730   5.970  0.0399 -1.1837  1.2353
  843MOL0     H13757   2.256  10.881   5.773 -1.8174 -0.0604  2.6962
  843MOL0     H13758   2.204  10.822   5.611 -1.6934 -1.7095  0.1935
  843MOL0     H13759   2.005  10.954   5.609  0.8843 -0.4271  0.3984
  843MOL0     H13760   2.137  11.068   5.655  1.1449 -1.0917  1.5109
  843MOL0     H13761   2.080  11.014   5.900  0.9822 -4.8434  0.1512
  843MOL0     H13762   1.932  10.945   5.841  1.1441 -1.9901 -0.8445
  843MOL0     H13763   1.873  11.160   5.890 -1.1486 -1.0273 -0.3491
  843MOL0     H13764   1.865  11.127   5.713 -0.5073 -2.3142  1.1980
  843MOL0     H13765   1.762  11.322   5.880 -4.5872  0.6564 -3.6181
  843MOL0     H13766   1.604  11.440   5.957 -1.5743  0.0725  1.0304
  843MOL0     H13767   1.671  11.580   6.041  2.5478  0.8701 -0.8924
  843MOL0     H13768   1.570  11.608   5.907  0.1657  0.4638  0.5604
  843MOL0     H13769   2.082  11.997   6.000 -1.1181 -1.7291 -0.6716
  843MOL0     H13770   2.089  12.260   6.041  0.3233  0.2355 -0.6523
  843MOL0     H13771   2.073  12.451   5.841  0.1703  2.1310 -1.6276
  843MOL0     H13772   1.915  12.476   5.775 -2.1388  1.0366  1.3190
  843MOL0     H13773   2.036  12.683   5.824  2.2676 -0.1627  1.8349
  843MOL0     H13774   1.882  12.676   5.911  0.5484  1.5931  0.0327
  843MOL0     H13775   2.124  12.560   6.046  0.1830  0.6118  0.0762
  843MOL0     H13776   1.991  12.648   6.122 -0.4347  2.0456  0.9606
  843MOL0     H13777   2.102  12.872   6.021  0.1071  1.5019  2.8668
  843MOL0     H13778   2.192  12.786   6.144  1.7020 -2.0549  0.0853
  843MOL0     H13779   2.246  12.737   5.844  0.0089  1.0954  0.7514
  843MOL0     H13780   2.341  12.692   5.974  1.2660  0.9123  2.8995
  843MOL0     H13781   2.302  12.978   5.912 -0.1440  0.7366  1.8046
  843MOL0     H13782   2.403  12.918   6.034 -0.3188  2.2006 -0.7152
  843MOL0     H13783   2.526  12.971   5.821 -0.1133  0.2192  0.8851
  843MOL0     H13784   2.446  12.823   5.741  5.3819 -2.9736  0.4324
  843MOL0     H13785   2.545  12.678   5.898 -0.9052  1.5032 -1.5725
  843MOL0     H13786   2.641  12.812   5.968  0.3425  2.2388 -1.2279
  843MOL0     H13787   1.703  12.262   5.837  0.3387  0.2261 -2.3504
  843MOL0     H13788   1.725  12.031   5.788  1.8107 -2.4420 -0.8849
  843MOL0     H13789   2.056  11.701   5.747  2.6407 -0.8504  2.1495
  843MOL0     H13790   2.129  11.457   5.712  0.2253 -4.1584  0.0443
  843MOL0     H13791   2.413   9.715   6.075 -1.2110  0.7582  1.6600
  843MOL0     H13792   2.447   9.487   5.946 -2.3886  2.9674 -2.2154
  843MOL0     H13793   2.008   9.084   5.820  0.1331  0.3717 -1.3801
  843MOL0     H13794   2.042   8.879   5.696  1.6239 -0.9584 -1.9907
  843MOL0     H13795   2.147   8.671   5.791  0.0588  0.6548  0.7357
  843MOL0     H13796   2.088   8.682   5.617  0.7174  0.1010 -1.8531
  843MOL0     H13797   2.282   8.509   5.585  0.2529  3.8811  1.0300
  843MOL0     H13798   2.124   8.456   5.637 -0.5992  0.1489 -2.3297
  843MOL0     H13799   2.187   8.447   5.866  1.1662 -0.5783  0.6087
  843MOL0     H13800   2.341   8.538   5.830  0.0158  0.5177 -0.1486
  843MOL0     H13801   2.266   8.259   5.730  0.2722  1.3667 -1.8597
  843MOL0     H13802   2.334   8.294   5.890  0.1894  1.0262  0.5203
  843MOL0     H13803   2.662   8.348   5.599 -0.5315 -1.6231 -1.3843
  843MOL0     H13804   2.467   8.913   5.732  0.6459  2.7702 -1.7959
  843MOL0     H13805   2.440   9.114   5.886  0.1602 -1.7162  2.8636
  844MOL0     O13806   0.456   3.780   4.548  0.0085  0.4344 -0.0630
  844MOL0     C13807   0.481   3.701   4.632 -0.8242  0.0193 -0.5525
  844MOL0     O13808   0.526   3.727   4.761 -0.1445 -0.1355 -0.2325
  844MOL0     C13809   0.542   3.852   4.789  0.4923 -0.4314  0.4707
  844MOL0     C13810   0.669   3.907   4.788  0.0606 -0.4972 -0.1178
  844MOL0     C13811   0.674   4.042   4.833 -0.0872 -0.6162  0.5582
  844MOL0     C13812   0.565   4.122   4.874  0.2323  1.0501  0.3087
  844MOL0     O13813   0.593   4.235   4.950 -0.1398  0.3446  0.3766
  844MOL0     C13814   0.503   4.345   4.954 -1.1153  0.1689 -0.0003
  844MOL0     C13815   0.523   4.432   4.830 -0.5671 -0.0363  0.2129
  844MOL0     C13816   0.667   4.498   4.824  0.7548 -0.0958 -0.4629
  844MOL0     C13817   0.753   4.468   4.706  0.2644 -1.0206 -0.0278
  844MOL0     C13818   0.908   4.491   4.724  0.2243  0.5865  0.2177
  844MOL0     C13819   0.943   4.634   4.750 -0.0310 -0.2759  0.4898
  844MOL0     C13820   0.934   4.715   4.626 -0.4160 -0.3139  0.3168
  844MOL0     C13821   0.973   4.859   4.657  0.1868  0.5071 -0.5702
  844MOL0     N13822   1.114   4.887   4.694  0.0375 -0.0532 -0.5900
  844MOL0     C13823   1.223   4.889   4.610 -0.6273 -1.3134  0.0142
  844MOL0     C13824   1.328   4.945   4.678  0.4336  0.5750 -0.1882
  844MOL0     C13825   1.447   4.989   4.599  0.4694  0.6897  0.1586
  844MOL0     C13826   1.434   5.144   4.580  0.5027 -0.4472  0.1171
  844MOL0     C13827   1.545   5.206   4.494  1.1009  0.3094  0.0270
  844MOL0     C13828   1.544   5.359   4.490  0.5391  0.6681 -0.4484
  844MOL0     O13829   1.408   5.402   4.459 -0.9592  0.0227 -0.0749
  844MOL0     C13830   1.400   5.469   4.341 -0.7362 -0.4232  0.1518
  844MOL0     C13831   1.352   5.600   4.336 -0.4932  0.2960  0.0872
  844MOL0     C13832   1.355   5.671   4.216 -0.4492  0.6282  0.7436
  844MOL0     C13833   1.306   5.814   4.237 -1.1752  0.4205  0.2985
  844MOL0     C13834   1.380   5.610   4.090  0.1749  0.7535 -0.2146
  844MOL0     C13835   1.370   5.670   3.958 -0.6519  0.2912  0.0062
  844MOL0     O13836   1.339   5.798   3.946  0.2953 -0.5652 -0.2822
  844MOL0     C13837   1.331   5.847   3.820  0.0435  0.7418  0.6842
  844MOL0     C13838   1.441   5.844   3.740 -0.4864 -0.4543 -0.7841
  844MOL0     C13839   1.432   5.905   3.616 -0.7316  0.3735  1.2467
  844MOL0     C13840   1.320   5.981   3.577  0.3553 -1.0687 -0.0410
  844MOL0     O13841   1.316   6.056   3.462 -0.7690  0.8985 -0.2075
  844MOL0     C13842   1.396   6.173   3.461 -0.2436 -0.2567 -0.6870
  844MOL0     C13843   1.493   6.182   3.339 -0.2738 -0.3452  0.7639
  844MOL0     C13844   1.594   6.295   3.333  0.6022  0.1019  0.9295
  844MOL0     C13845   1.524   6.434   3.340 -0.1273 -0.3352 -0.4763
  844MOL0     C13846   1.626   6.550   3.324  0.3976 -0.3997  0.7456
  844MOL0     C13847   1.718   6.564   3.443 -0.0195 -0.4837 -0.4161
  844MOL0     C13848   1.658   6.646   3.558  0.2629  0.3012  0.3800
  844MOL0     C13849   1.735   6.633   3.689 -0.5651  0.3761 -0.2837
  844MOL0    Cl13850   1.737   6.451   3.731  0.0775 -0.4831 -0.0101
  844MOL0     C13851   1.208   5.994   3.656 -0.6902  0.2457 -0.0281
  844MOL0     C13852   1.222   5.919   3.779  0.6233  0.1983 -0.3295
  844MOL0     O13853   1.388   5.595   3.864  1.2343 -0.5079  1.2365
  844MOL0     C13854   1.425   5.476   4.099 -0.6067 -0.0541 -0.2083
  844MOL0     C13855   1.431   5.405   4.216  0.1470 -0.8386  0.2448
  844MOL0     N13856   1.279   4.973   4.810 -0.0951  0.7229 -0.0185
  844MOL0     N13857   1.157   4.923   4.817 -0.3094 -0.3453 -0.4035
  844MOL0     C13858   0.444   4.062   4.857 -0.0668  0.5645  0.2592
  844MOL0     C13859   0.429   3.921   4.830  0.3291 -0.0591  0.5672
  844MOL0     C13860   0.437   3.560   4.601 -0.3329  0.3162  0.1309
  844MOL0     C13861   0.441   3.461   4.702  0.3893  0.3182 -0.5202
  844MOL0     C13862   0.400   3.329   4.678 -0.1503 -0.4801 -0.9090
  844MOL0     C13863   0.335   3.297   4.555 -0.6080  0.8435 -0.3938
  844MOL0     O13864   0.305   3.164   4.537 -0.2392 -0.1230 -0.4563
  844MOL0     C13865   0.205   3.126   4.442 -0.2807 -0.4314 -0.0233
  844MOL0     C13866   0.078   3.113   4.520 -0.5009  0.0099  0.0611
  844MOL0     C13867  -0.037   3.088   4.424 -0.2824 -0.2134  0.0365
  844MOL0     C13868  -0.169   3.077   4.494  0.0432 -0.1571 -0.5777
  844MOL0     C13869  -0.268   3.060   4.385 -0.2344  0.7907  0.6672
  844MOL0     C13870  -0.350   3.039   4.293  0.2226 -0.3866  0.4598
  844MOL0     C13871   0.324   3.394   4.457  0.5534 -0.0871  0.4641
  844MOL0     C13872   0.381   3.523   4.483  0.2188  0.0072 -0.2424
  844MOL0     H13873   0.749   3.843   4.753  0.5359  1.9545 -4.1009
  844MOL0     H13874   0.768   4.097   4.845  1.7762 -3.4788 -0.0864
  844MOL0     H13875   0.405   4.297   4.955 -0.3451 -1.4503  0.4824
  844MOL0     H13876   0.510   4.408   5.043 -0.0386 -0.5157  0.4218
  844MOL0     H13877   0.500   4.367   4.745 -3.0871 -0.9402  1.4769
  844MOL0     H13878   0.436   4.498   4.831 -0.7518 -0.2788  0.5555
  844MOL0     H13879   0.654   4.604   4.846 -1.1254 -0.9330  3.2867
  844MOL0     H13880   0.718   4.465   4.915 -0.4858 -0.3357  0.1777
  844MOL0     H13881   0.729   4.371   4.663 -2.3478 -1.0420  1.3012
  844MOL0     H13882   0.716   4.535   4.627 -2.1102 -0.5143  1.3974
  844MOL0     H13883   0.933   4.430   4.810  1.5175 -0.9995 -1.2195
  844MOL0     H13884   0.959   4.450   4.636  0.6247 -2.3059  1.6991
  844MOL0     H13885   0.876   4.679   4.823 -1.8435  1.7899 -2.2433
  844MOL0     H13886   1.043   4.641   4.795  0.0568  0.9676  0.1465
  844MOL0     H13887   0.983   4.678   4.536 -1.7017 -1.7851  0.1840
  844MOL0     H13888   0.831   4.716   4.590 -1.2920 -0.5181  2.6568
  844MOL0     H13889   0.911   4.891   4.741 -0.7027  1.9184 -1.7249
  844MOL0     H13890   0.932   4.932   4.587 -0.1299  0.7189 -0.1723
  844MOL0     H13891   1.209   4.864   4.506 -0.1887 -0.2456 -0.3104
  844MOL0     H13892   1.537   4.955   4.652  1.2459 -1.4185 -2.2908
  844MOL0     H13893   1.442   4.932   4.506 -0.0871 -0.9508  1.1535
  844MOL0     H13894   1.440   5.169   4.686  2.8010  1.8248 -0.4613
  844MOL0     H13895   1.335   5.174   4.543  0.2604  1.2138  1.9660
  844MOL0     H13896   1.550   5.159   4.395  0.2052  1.1642 -0.4473
  844MOL0     H13897   1.645   5.195   4.538  1.4540  1.4430 -0.4463
  844MOL0     H13898   1.619   5.402   4.423 -1.4280  1.7252 -2.0632
  844MOL0     H13899   1.569   5.389   4.592 -0.2865  0.6328 -0.2280
  844MOL0     H13900   1.319   5.650   4.425 -3.7233 -2.3658  0.5726
  844MOL0     H13901   1.310   5.836   4.344 -2.2086  0.4285  0.3516
  844MOL0     H13902   1.374   5.884   4.188 -1.1283 -0.0644 -0.3519
  844MOL0     H13903   1.204   5.829   4.200 -1.6698  1.8408  2.1300
  844MOL0     H13904   1.532   5.792   3.769  0.6944  1.5281 -0.6753
  844MOL0     H13905   1.525   5.892   3.561 -0.9969  1.2670  0.5752
  844MOL0     H13906   1.323   6.254   3.448  1.7833  1.5083 -1.7415
  844MOL0     H13907   1.442   6.190   3.559 -1.3754 -0.6568 -0.0625
  844MOL0     H13908   1.556   6.093   3.339 -2.9879 -2.4399 -1.1982
  844MOL0     H13909   1.430   6.183   3.250 -1.2802  4.9664  1.1827
  844MOL0     H13910   1.644   6.272   3.239 -2.8929 -0.9929 -0.8527
  844MOL0     H13911   1.663   6.285   3.417  2.6727 -1.2637 -0.8426
  844MOL0     H13912   1.452   6.441   3.259  0.4536  2.1696 -0.8492
  844MOL0     H13913   1.475   6.440   3.438 -0.8573 -3.9559 -0.4856
  844MOL0     H13914   1.567   6.642   3.311 -0.9919 -1.6058 -2.7471
  844MOL0     H13915   1.682   6.548   3.230 -2.4234  3.0509 -1.2751
  844MOL0     H13916   1.763   6.471   3.479  2.5263  1.0858  0.7971
  844MOL0     H13917   1.804   6.621   3.405  1.1706 -1.6368  0.4684
  844MOL0     H13918   1.556   6.613   3.578  1.6980 -2.0238  5.5446
  844MOL0     H13919   1.648   6.748   3.522  1.5047  0.7988  1.3433
  844MOL0     H13920   1.680   6.691   3.764 -0.2145 -1.4885  1.4812
  844MOL0     H13921   1.839   6.666   3.681 -0.3903  0.1915  1.0126
  844MOL0     H13922   1.122   6.049   3.620 -0.6249 -1.3568 -2.8459
  844MOL0     H13923   1.141   5.933   3.851  1.6478  4.2189  0.2799
  844MOL0     H13924   1.461   5.422   4.012  1.1214  1.0935 -0.2479
  844MOL0     H13925   1.463   5.301   4.210  0.1216 -1.0545  2.7971
  844MOL0     H13926   0.352   4.106   4.895 -0.5654 -0.1479 -0.0914
  844MOL0     H13927   0.344   3.854   4.840  2.2080 -2.4233  1.8215
  844MOL0     H13928   0.473   3.491   4.802 -1.1583 -0.4797  0.2569
  844MOL0     H13929   0.401   3.252   4.755  1.1245  0.9293  0.5403
  844MOL0     H13930   0.190   3.184   4.351  2.0777 -3.0412 -2.2805
  844MOL0     H13931   0.227   3.023   4.410 -2.7816 -1.1830  0.4506
  844MOL0     H13932   0.060   3.202   4.580  0.3000  1.9100 -2.3137
  844MOL0     H13933   0.088   3.026   4.584  2.2917  0.4319  0.3116
  844MOL0     H13934  -0.018   2.994   4.372  3.3149 -0.9666  2.3621
  844MOL0     H13935  -0.055   3.173   4.357 -2.1995 -0.8155 -0.2696
  844MOL0     H13936  -0.197   3.175   4.533 -4.1036 -0.8606 -1.3505
  844MOL0     H13937  -0.160   2.995   4.566  1.2377 -1.1201 -1.7566
  844MOL0     H13938  -0.416   3.035   4.208 -3.1511  1.6724  2.7352
  844MOL0     H13939   0.268   3.372   4.367  0.4384  1.0404  0.2429
  844MOL0     H13940   0.380   3.584   4.393 -0.1087 -2.2964 -1.9034
  845MOL0     O13941   9.170   4.598   6.006 -1.2211 -0.5445  0.4611
  845MOL0     C13942   9.202   4.689   5.928 -0.0456 -0.0027  0.3141
  845MOL0     O13943   9.119   4.746   5.836 -0.1568  0.7789  0.2707
  845MOL0     C13944   8.991   4.704   5.824 -0.7360 -0.0117  0.8359
  845MOL0     C13945   8.906   4.704   5.930  0.1773  0.0992 -1.3751
  845MOL0     C13946   8.779   4.645   5.932  0.0650  0.2108  0.0748
  845MOL0     C13947   8.728   4.595   5.810  0.9756 -0.1495  0.0444
  845MOL0     O13948   8.604   4.551   5.791 -0.1509  0.0271  0.0116
  845MOL0     C13949   8.511   4.575   5.893 -0.2003  0.5895  0.3110
  845MOL0     C13950   8.388   4.491   5.852  0.0952  0.1329 -0.0558
  845MOL0     C13951   8.334   4.533   5.718 -0.0270 -0.1075 -0.4409
  845MOL0     C13952   8.264   4.670   5.719 -0.4749 -0.9051 -0.7024
  845MOL0     C13953   8.151   4.689   5.827 -0.6863 -0.6289 -0.7686
  845MOL0     C13954   8.083   4.823   5.809 -0.8997  0.2424  0.9289
  845MOL0     C13955   7.987   4.832   5.926 -0.3898  0.6653  0.8745
  845MOL0     C13956   7.901   4.956   5.924 -0.3579 -0.9130 -0.0258
  845MOL0     N13957   7.968   5.058   6.002 -0.0864 -0.6230  0.9062
  845MOL0     C13958   7.914   5.114   6.123 -0.3128  1.5504  0.5363
  845MOL0     C13959   8.020   5.188   6.164 -0.6827  0.0873 -0.9685
  845MOL0     C13960   8.011   5.272   6.288  0.0220 -0.7431 -0.3765
  845MOL0     C13961   7.904   5.385   6.277 -0.6232  0.0713  0.2766
  845MOL0     C13962   7.918   5.509   6.368  0.5762  0.5050 -0.2053
  845MOL0     C13963   7.969   5.640   6.296 -0.2543 -0.1894 -0.6617
  845MOL0     O13964   8.112   5.632   6.279 -0.3865 -0.1609 -0.4149
  845MOL0     C13965   8.190   5.665   6.393 -0.1115  0.0158 -0.2264
  845MOL0     C13966   8.329   5.652   6.372 -0.9830 -1.0018 -0.6190
  845MOL0     C13967   8.422   5.686   6.471 -0.7458 -0.2880 -0.2179
  845MOL0     C13968   8.567   5.648   6.453 -0.8460 -0.4761 -0.4484
  845MOL0     C13969   8.372   5.737   6.592 -0.2894 -0.1174  0.0562
  845MOL0     C13970   8.463   5.770   6.710 -0.1235 -0.2273  0.0097
  845MOL0     O13971   8.423   5.722   6.832  0.1161  0.0783  0.2389
  845MOL0     C13972   8.487   5.742   6.951  0.2113  0.2458 -0.1237
  845MOL0     C13973   8.408   5.759   7.066  0.0724 -0.1610  0.1686
  845MOL0     C13974   8.479   5.743   7.189 -0.4032  0.1695 -0.3091
  845MOL0     C13975   8.623   5.726   7.192 -0.2319  0.1202 -0.1265
  845MOL0     O13976   8.690   5.706   7.308  0.4386  0.1725 -0.0141
  845MOL0     C13977   8.653   5.582   7.368 -0.0073 -0.0836 -0.4101
  845MOL0     C13978   8.766   5.535   7.468 -0.1754  0.4599 -0.3094
  845MOL0     C13979   8.902   5.484   7.406  0.0475  0.5237  0.1603
  845MOL0     C13980   8.898   5.332   7.358  0.1145 -0.7290 -0.6492
  845MOL0     C13981   9.037   5.267   7.384 -0.0977 -1.0630  0.2990
  845MOL0     C13982   9.033   5.120   7.330 -0.4830 -0.3263  0.1451
  845MOL0     C13983   9.159   5.045   7.355 -0.7537 -0.1190  0.8035
  845MOL0     C13984   9.210   5.040   7.499  0.2842 -0.0799 -0.0792
  845MOL0    Cl13985   9.327   4.899   7.512  0.0547  0.0187 -0.5062
  845MOL0     C13986   8.697   5.740   7.082 -0.4487  0.0741  0.2263
  845MOL0     C13987   8.629   5.728   6.961 -0.7199 -0.4705  0.4000
  845MOL0     O13988   8.564   5.842   6.694 -0.3946 -0.8002  0.2828
  845MOL0     C13989   8.236   5.750   6.622  0.3814 -0.6394  1.4337
  845MOL0     C13990   8.146   5.709   6.518  0.1386  0.1418  0.0871
  845MOL0     N13991   8.115   5.182   6.072 -0.0239 -0.3511 -0.2477
  845MOL0     N13992   8.086   5.119   5.965  1.2654  0.1954  0.0279
  845MOL0     C13993   8.811   4.600   5.691 -1.4188 -0.1723  0.4362
  845MOL0     C13994   8.947   4.651   5.701  0.1448  0.8749  0.0064
  845MOL0     C13995   9.341   4.740   5.935  0.4136  0.4294 -0.7847
  845MOL0     C13996   9.381   4.844   5.845  0.8290  0.8204 -0.5039
  845MOL0     C13997   9.498   4.906   5.858  0.2942  0.1512  0.5803
  845MOL0     C13998   9.580   4.876   5.967 -0.5463  0.6805 -0.3317
  845MOL0     O13999   9.701   4.932   6.004  0.0958  0.5978  0.3017
  845MOL0     C14000   9.793   4.968   5.900  0.3663  0.3281  0.6375
  845MOL0     C14001   9.934   4.936   5.959 -0.0887  0.0907  0.8436
  845MOL0     C14002   9.985   5.047   6.055  0.4497  0.0350 -0.6693
  845MOL0     C14003  10.132   5.039   6.097 -0.8462 -0.0480  0.5108
  845MOL0     C14004  10.164   5.157   6.185 -0.3643 -0.6977  0.2080
  845MOL0     C14005  10.207   5.240   6.261  0.0319 -0.4042 -0.7870
  845MOL0     C14006   9.538   4.782   6.062 -0.3142 -0.2644 -0.6269
  845MOL0     C14007   9.420   4.707   6.050 -0.3013 -0.2182  0.2682
  845MOL0     H14008   8.950   4.758   6.013  1.3190  1.3311 -2.7094
  845MOL0     H14009   8.728   4.657   6.027  2.1260  1.2473  1.1085
  845MOL0     H14010   8.548   4.537   5.989 -0.9325 -0.6437  0.1318
  845MOL0     H14011   8.483   4.679   5.910 -1.0764  0.4187 -0.0547
  845MOL0     H14012   8.411   4.389   5.822 -1.6684  0.7158 -4.0764
  845MOL0     H14013   8.312   4.490   5.931 -2.8567 -1.7902 -2.6576
  845MOL0     H14014   8.420   4.515   5.653  0.8138  0.8343  0.3606
  845MOL0     H14015   8.251   4.465   5.699  0.3855 -0.6587 -0.3058
  845MOL0     H14016   8.338   4.751   5.721 -1.4301  0.0205  1.5654
  845MOL0     H14017   8.228   4.687   5.617 -0.7400  1.2194 -0.3195
  845MOL0     H14018   8.078   4.608   5.824 -1.1878 -0.1580 -2.4060
  845MOL0     H14019   8.190   4.656   5.924 -1.6301 -4.0959 -1.4232
  845MOL0     H14020   8.160   4.900   5.822 -1.6987  1.6777 -2.0377
  845MOL0     H14021   8.024   4.840   5.719  0.5565 -0.2936 -0.1589
  845MOL0     H14022   7.914   4.752   5.918  1.6436 -1.0962 -1.9757
  845MOL0     H14023   8.046   4.820   6.017 -0.8170 -0.6505  0.9863
  845MOL0     H14024   7.809   4.935   5.978 -1.1806  1.2142 -0.4975
  845MOL0     H14025   7.872   4.977   5.820  1.4502 -1.3905 -0.6685
  845MOL0     H14026   7.834   5.082   6.189  0.3950  0.9609  1.1226
  845MOL0     H14027   8.012   5.202   6.372 -0.6759 -0.6922 -0.3205
  845MOL0     H14028   8.105   5.328   6.292  1.4520 -3.0544  0.3268
  845MOL0     H14029   7.806   5.340   6.297 -0.9108  0.3078 -0.5530
  845MOL0     H14030   7.894   5.430   6.178 -2.0564  4.3038  2.1220
  845MOL0     H14031   7.986   5.477   6.448  1.2258 -1.5569 -1.4914
  845MOL0     H14032   7.820   5.526   6.413 -0.1451  1.6494 -2.0982
  845MOL0     H14033   7.936   5.719   6.364 -1.0822 -2.2383  1.4339
  845MOL0     H14034   7.918   5.651   6.200  0.5684  0.5550 -1.0294
  845MOL0     H14035   8.365   5.631   6.272  0.9796 -0.1707 -0.1312
  845MOL0     H14036   8.595   5.631   6.349 -2.3921 -1.3440 -0.7604
  845MOL0     H14037   8.630   5.727   6.495 -2.1973  0.8383 -0.8205
  845MOL0     H14038   8.599   5.560   6.509  1.7742  0.1978 -0.7447
  845MOL0     H14039   8.300   5.749   7.065  0.1565 -1.1707  0.2664
  845MOL0     H14040   8.430   5.734   7.285  0.5899 -0.5915  0.1399
  845MOL0     H14041   8.571   5.609   7.435  0.1359  1.3670 -0.7733
  845MOL0     H14042   8.625   5.499   7.303  0.1767 -0.2112 -0.3280
  845MOL0     H14043   8.793   5.618   7.534  1.5061 -0.6147  0.4117
  845MOL0     H14044   8.726   5.458   7.535 -0.9324  0.8225 -0.3340
  845MOL0     H14045   8.979   5.492   7.483  0.4923 -1.5517 -0.0226
  845MOL0     H14046   8.941   5.548   7.326 -2.1208  3.0176  0.9528
  845MOL0     H14047   8.824   5.279   7.418 -1.1449  1.0794 -0.5331
  845MOL0     H14048   8.875   5.318   7.252 -0.3760 -0.6291 -0.5599
  845MOL0     H14049   9.064   5.277   7.489 -0.1342  3.9556  0.0981
  845MOL0     H14050   9.125   5.318   7.343  2.2076 -2.1346  3.5434
  845MOL0     H14051   8.959   5.056   7.379 -0.2982 -3.1185 -2.8658
  845MOL0     H14052   9.012   5.138   7.224  1.4229 -2.4973 -0.6717
  845MOL0     H14053   9.237   5.088   7.292  0.0509 -0.2583  1.6811
  845MOL0     H14054   9.144   4.943   7.319 -0.0263 -0.4813  1.4746
  845MOL0     H14055   9.123   5.016   7.562 -0.3701 -2.5972 -1.7808
  845MOL0     H14056   9.253   5.137   7.525 -1.2093  0.6909 -0.3559
  845MOL0     H14057   8.805   5.733   7.081 -0.5240 -2.0827 -1.5591
  845MOL0     H14058   8.687   5.729   6.869  1.8850 -1.8022  1.9042
  845MOL0     H14059   8.195   5.790   6.714 -2.1202  1.9312 -0.6256
  845MOL0     H14060   8.042   5.720   6.547  0.9094  1.9815  2.5851
  845MOL0     H14061   8.783   4.561   5.594  2.4304 -2.2516 -0.0453
  845MOL0     H14062   9.004   4.657   5.609 -0.5948  4.3352 -0.3626
  845MOL0     H14063   9.311   4.863   5.765 -0.4020 -2.6339 -0.4552
  845MOL0     H14064   9.536   4.980   5.790  2.3594 -0.4606  0.9906
  845MOL0     H14065   9.776   4.913   5.808  2.4000  1.1071 -0.2772
  845MOL0     H14066   9.770   5.072   5.873  1.7684  0.3321 -0.7081
  845MOL0     H14067   9.999   4.929   5.871 -0.5536 -0.8379  0.5603
  845MOL0     H14068   9.944   4.837   6.003  2.1579  0.8178  2.1637
  845MOL0     H14069   9.923   5.056   6.145  0.4924  2.3017 -0.8001
  845MOL0     H14070   9.983   5.147   6.010 -1.1883  0.4549  0.2628
  845MOL0     H14071  10.202   5.042   6.012  0.2928  2.0938  1.4306
  845MOL0     H14072  10.162   4.945   6.143  2.0882  0.1573 -0.7117
  845MOL0     H14073  10.242   5.310   6.334 -0.8243 -1.1389  0.3705
  845MOL0     H14074   9.598   4.759   6.150  0.6145 -1.3234 -1.4979
  845MOL0     H14075   9.383   4.637   6.124 -0.1657 -2.8832 -2.0146
  846MOL0     O14076   5.081   2.307   1.214  1.0872 -0.3547 -0.9338
  846MOL0     C14077   5.104   2.234   1.315  0.6236  0.2358  0.3613
  846MOL0     O14078   5.039   2.234   1.440  0.0087  0.6402  0.4211
  846MOL0     C14079   4.926   2.313   1.464  0.8945  0.3592  0.2381
  846MOL0     C14080   4.897   2.331   1.599  0.1287  0.2361  0.0821
  846MOL0     C14081   4.781   2.405   1.634 -0.5936  1.0013  0.6671
  846MOL0     C14082   4.695   2.458   1.535 -0.3484  0.6436  0.9776
  846MOL0     O14083   4.590   2.527   1.581 -0.1077  0.1053 -0.7142
  846MOL0     C14084   4.537   2.638   1.508  0.5759  0.3231  1.0567
  846MOL0     C14085   4.445   2.737   1.588 -0.1747 -0.3721  0.5683
  846MOL0     C14086   4.390   2.846   1.494 -0.1022  0.0643 -0.2948
  846MOL0     C14087   4.332   2.980   1.542 -0.2456  0.7283  0.3432
  846MOL0     C14088   4.257   2.983   1.671 -0.3915 -0.6852 -0.1387
  846MOL0     C14089   4.177   3.115   1.688 -0.6609 -0.4725  0.6655
  846MOL0     C14090   4.108   3.126   1.819  0.7767 -0.2326  0.6418
  846MOL0     C14091   4.031   3.260   1.855 -0.4108  0.4562 -1.0871
  846MOL0     N14092   4.001   3.267   2.002 -0.4072 -0.1480  0.4163
  846MOL0     C14093   3.878   3.272   2.063  0.4201  0.2873  0.0181
  846MOL0     C14094   3.906   3.274   2.199 -0.7180  0.7228  1.0252
  846MOL0     C14095   3.796   3.234   2.295 -0.1597 -0.2466 -0.5187
  846MOL0     C14096   3.809   3.102   2.377  0.0336  0.3648  0.6045
  846MOL0     C14097   3.848   2.982   2.293 -0.0543 -0.2816  0.4802
  846MOL0     C14098   3.850   2.851   2.369  0.7161 -0.0923 -0.1880
  846MOL0     O14099   3.726   2.829   2.442 -0.3670 -0.3859  0.1932
  846MOL0     C14100   3.708   2.712   2.507 -0.1759  0.1081 -0.2675
  846MOL0     C14101   3.803   2.611   2.521  0.5575  0.1133  0.1939
  846MOL0     C14102   3.766   2.487   2.579  0.2396  0.6591 -0.5499
  846MOL0     C14103   3.870   2.378   2.571 -0.3070 -0.0532 -0.1560
  846MOL0     C14104   3.643   2.476   2.650 -0.3013 -0.2594  0.1469
  846MOL0     C14105   3.592   2.354   2.720 -0.3962  0.4873  0.4789
  846MOL0     O14106   3.476   2.367   2.793 -0.5785 -0.2301  0.0859
  846MOL0     C14107   3.422   2.260   2.869 -0.0184 -0.8474  0.5121
  846MOL0     C14108   3.388   2.287   2.999 -0.7788 -0.1500  0.3781
  846MOL0     C14109   3.333   2.188   3.080 -0.5341  0.0326 -0.5935
  846MOL0     C14110   3.307   2.062   3.027  0.1049 -1.3959  0.4723
  846MOL0     O14111   3.225   1.969   3.091 -0.1698  0.1051 -0.7211
  846MOL0     C14112   3.127   2.024   3.178 -0.6331 -0.2481  0.2301
  846MOL0     C14113   3.075   1.914   3.262  0.5126 -0.0388  0.6386
  846MOL0     C14114   3.184   1.845   3.349 -0.3115  0.2604 -1.1705
  846MOL0     C14115   3.204   1.929   3.468  0.0303 -0.5588 -0.5198
  846MOL0     C14116   3.094   1.918   3.575  0.5502  0.6308  0.3535
  846MOL0     C14117   3.094   2.029   3.680 -0.2645  0.0267  1.7935
  846MOL0     C14118   3.169   2.000   3.806 -0.1942  0.2473 -0.3084
  846MOL0     C14119   3.214   2.124   3.885 -0.0841 -0.6617 -1.1798
  846MOL0    Cl14120   3.072   2.211   3.938  0.0974 -0.2564 -0.0445
  846MOL0     C14121   3.362   2.039   2.903 -0.0640  0.1125  0.9048
  846MOL0     C14122   3.418   2.135   2.819 -0.0945 -0.8344 -0.0929
  846MOL0     O14123   3.672   2.263   2.723 -0.8746 -0.2954 -0.0445
  846MOL0     C14124   3.551   2.589   2.648 -0.0959  0.0165 -0.5635
  846MOL0     C14125   3.590   2.702   2.577  0.1883  0.2179  0.3242
  846MOL0     N14126   4.039   3.293   2.214 -0.1948  0.1426 -0.6845
  846MOL0     N14127   4.094   3.292   2.098  0.7397  0.5360 -0.2343
  846MOL0     C14128   4.729   2.442   1.402  0.0877  0.1817  0.2766
  846MOL0     C14129   4.833   2.359   1.365  0.3934 -0.5772  0.4028
  846MOL0     C14130   5.200   2.119   1.293 -0.5162 -0.5152 -0.9750
  846MOL0     C14131   5.268   2.112   1.170 -0.1626 -0.1912  0.3184
  846MOL0     C14132   5.368   2.019   1.151  0.4308  1.2212  0.1095
  846MOL0     C14133   5.411   1.933   1.255 -0.4383  0.3484 -0.5958
  846MOL0     O14134   5.499   1.831   1.247 -0.1555  0.1363 -0.2796
  846MOL0     C14135   5.584   1.802   1.143  0.3280  0.7043 -0.2567
  846MOL0     C14136   5.709   1.734   1.207  0.4479  0.7913  0.2127
  846MOL0     C14137   5.827   1.711   1.110  0.0279 -0.5791 -0.0817
  846MOL0     C14138   5.960   1.708   1.203  0.1606 -1.2140  0.6074
  846MOL0     C14139   6.082   1.684   1.133  0.6530 -0.4211 -0.5339
  846MOL0     C14140   6.182   1.673   1.066 -0.1635 -0.1713  0.2433
  846MOL0     C14141   5.351   1.945   1.379  0.0026 -0.0542  0.2850
  846MOL0     C14142   5.251   2.036   1.399  0.6847  0.4943 -0.2667
  846MOL0     H14143   4.958   2.291   1.678 -0.2455  0.5417  0.5371
  846MOL0     H14144   4.755   2.409   1.739  0.0147 -3.9159  1.2792
  846MOL0     H14145   4.609   2.694   1.448 -0.2562 -1.2802 -1.6172
  846MOL0     H14146   4.472   2.589   1.434 -1.8896  0.4899  2.9669
  846MOL0     H14147   4.354   2.684   1.619 -0.9932  1.4557  1.4562
  846MOL0     H14148   4.500   2.780   1.672  1.8044 -0.8154 -0.4359
  846MOL0     H14149   4.469   2.875   1.425 -0.8967  0.2835 -1.1208
  846MOL0     H14150   4.310   2.801   1.435 -1.9590  3.5207 -0.7230
  846MOL0     H14151   4.409   3.050   1.575 -0.5217  0.8201  0.8060
  846MOL0     H14152   4.264   3.026   1.470 -2.1623 -0.9818  0.9746
  846MOL0     H14153   4.192   2.895   1.685 -0.0533 -0.9874 -0.4455
  846MOL0     H14154   4.335   2.976   1.747 -0.8480 -2.1719  0.2226
  846MOL0     H14155   4.243   3.201   1.675 -0.4235 -0.8853 -1.2391
  846MOL0     H14156   4.094   3.129   1.617 -2.5037 -1.2023  2.5762
  846MOL0     H14157   4.025   3.054   1.826 -0.1316  0.6456 -0.7666
  846MOL0     H14158   4.192   3.101   1.884  2.3544 -0.1961 -1.2868
  846MOL0     H14159   3.945   3.280   1.789 -1.1288  0.7214 -0.0941
  846MOL0     H14160   4.099   3.340   1.825 -0.0773  0.7679  0.4274
  846MOL0     H14161   3.783   3.251   2.015  0.3200  0.5608  0.0944
  846MOL0     H14162   3.771   3.311   2.368 -1.0626 -0.2112 -0.8504
  846MOL0     H14163   3.709   3.224   2.230 -0.8070  5.4218 -1.0054
  846MOL0     H14164   3.717   3.085   2.433  2.3741  0.0170  4.7235
  846MOL0     H14165   3.878   3.110   2.461 -0.8310  0.7140  1.2898
  846MOL0     H14166   3.950   3.003   2.260  0.5194  1.5798  3.0662
  846MOL0     H14167   3.778   2.977   2.210  1.8908 -0.6077 -1.2109
  846MOL0     H14168   3.941   2.837   2.428  2.7658  3.1122 -2.2876
  846MOL0     H14169   3.849   2.782   2.284 -4.7526  0.2491 -0.8047
  846MOL0     H14170   3.902   2.625   2.480  2.1207 -1.0866  3.2618
  846MOL0     H14171   3.844   2.276   2.543 -1.5933  0.5857 -1.4204
  846MOL0     H14172   3.943   2.412   2.497 -0.1987  0.8336  0.3524
  846MOL0     H14173   3.923   2.377   2.666 -2.4525 -1.4697  1.1081
  846MOL0     H14174   3.410   2.387   3.037  0.7933 -1.2297  2.5367
  846MOL0     H14175   3.290   2.211   3.177 -0.6905  1.0635 -0.8945
  846MOL0     H14176   3.162   2.096   3.253 -1.3111 -1.3812  1.6997
  846MOL0     H14177   3.043   2.067   3.123  1.5884  0.9986 -2.3775
  846MOL0     H14178   2.992   1.958   3.319 -0.6362 -1.2726 -0.0366
  846MOL0     H14179   3.034   1.839   3.194 -0.0055  0.1860  0.6912
  846MOL0     H14180   3.272   1.819   3.290 -0.0662  2.2515 -1.7449
  846MOL0     H14181   3.135   1.755   3.387 -1.6664  2.1427  1.9994
  846MOL0     H14182   3.297   1.910   3.524 -0.0800  1.8478  0.6132
  846MOL0     H14183   3.201   2.032   3.432 -1.9791 -0.6032 -0.5635
  846MOL0     H14184   3.108   1.817   3.614 -1.2291 -0.0029 -0.5216
  846MOL0     H14185   3.002   1.930   3.517  1.7500 -0.6767 -1.9871
  846MOL0     H14186   3.134   2.119   3.631  0.6787 -0.9434  0.7194
  846MOL0     H14187   2.991   2.057   3.702 -0.1141  3.4708 -0.8984
  846MOL0     H14188   3.243   1.921   3.790 -3.0144 -2.7535  0.3519
  846MOL0     H14189   3.100   1.945   3.871 -2.2444  3.8509  0.8384
  846MOL0     H14190   3.276   2.189   3.823  2.8711 -2.8434 -0.7369
  846MOL0     H14191   3.275   2.092   3.969  0.7346  1.2815 -0.9924
  846MOL0     H14192   3.347   1.939   2.864 -1.0532  0.5717  0.0395
  846MOL0     H14193   3.461   2.105   2.724 -1.6264  2.3465 -1.9740
  846MOL0     H14194   3.460   2.584   2.707  0.9589 -2.1554  1.0030
  846MOL0     H14195   3.517   2.780   2.561 -0.6738 -0.8719 -1.3243
  846MOL0     H14196   4.670   2.486   1.322  1.2436  1.8758  0.2970
  846MOL0     H14197   4.849   2.323   1.264  3.2166  0.4184  0.4092
  846MOL0     H14198   5.242   2.182   1.091  2.8523  1.3651  0.5929
  846MOL0     H14199   5.408   2.002   1.051  1.8353  1.1870  0.6645
  846MOL0     H14200   5.530   1.729   1.081 -0.0806 -1.5991  2.6042
  846MOL0     H14201   5.608   1.894   1.089 -0.2037  2.5641  2.5155
  846MOL0     H14202   5.671   1.639   1.244 -0.6784  1.8790  1.9926
  846MOL0     H14203   5.742   1.779   1.301 -1.9968 -1.2311  2.1531
  846MOL0     H14204   5.826   1.775   1.022 -2.9686 -1.5043 -0.8237
  846MOL0     H14205   5.816   1.608   1.077 -1.8279  0.1013 -1.7642
  846MOL0     H14206   5.939   1.633   1.280 -0.0263  0.5483  2.3704
  846MOL0     H14207   5.968   1.805   1.253 -0.0636 -0.3330 -0.9980
  846MOL0     H14208   6.275   1.673   1.013 -0.5353  1.0600 -0.4362
  846MOL0     H14209   5.390   1.888   1.462 -0.3029 -1.8153 -0.7468
  846MOL0     H14210   5.206   2.030   1.498 -1.3610  2.9553 -0.9351
  847MOL0     O14211   8.650  10.501   3.810 -0.1660  0.2208 -0.2941
  847MOL0     C14212   8.691  10.594   3.738 -0.0296 -0.4585  0.3926
  847MOL0     O14213   8.798  10.673   3.768 -0.7241 -0.8585 -0.2627
  847MOL0     C14214   8.873  10.633   3.877  0.4350  0.1192  0.1876
  847MOL0     C14215   8.976  10.541   3.875  0.5983  0.4327 -0.7760
  847MOL0     C14216   9.049  10.490   3.981 -0.1273 -0.7662  0.6759
  847MOL0     C14217   9.021  10.549   4.104 -0.2640 -0.2087 -0.0136
  847MOL0     O14218   9.099  10.520   4.211 -0.8907  0.3397  0.2169
  847MOL0     C14219   9.222  10.595   4.210  0.6380  0.6011 -0.0817
  847MOL0     C14220   9.297  10.567   4.343 -0.3165  0.3529 -0.4673
  847MOL0     C14221   9.426  10.640   4.348  0.2562 -0.8461 -0.3874
  847MOL0     C14222   9.489  10.640   4.498  0.6738 -0.2871 -0.3303
  847MOL0     C14223   9.641  10.655   4.505 -0.1298 -0.0380  0.4183
  847MOL0     C14224   9.676  10.676   4.652 -0.4475  0.3510 -1.4552
  847MOL0     C14225   9.824  10.653   4.686 -0.1201 -0.6243 -0.3343
  847MOL0     C14226   9.850  10.716   4.818 -0.3504 -0.7591  0.1680
  847MOL0     N14227   9.967  10.658   4.883  0.3314  0.1331 -0.8253
  847MOL0     C14228  10.095  10.670   4.844 -0.3456  0.3720  0.7656
  847MOL0     C14229  10.173  10.625   4.944  0.0658 -0.0269  0.0351
  847MOL0     C14230  10.317  10.628   4.965 -0.4026  0.6438  0.1137
  847MOL0     C14231  10.368  10.768   4.959  0.1589  0.1417 -0.1155
  847MOL0     C14232  10.518  10.782   4.989 -0.2231  0.2163 -0.0971
  847MOL0     C14233  10.612  10.672   4.944 -0.5212 -1.2276 -0.7436
  847MOL0     O14234  10.623  10.680   4.801 -0.7622  0.2983  0.1701
  847MOL0     C14235  10.607  10.562   4.729  0.9887 -0.4489 -0.3542
  847MOL0     C14236  10.534  10.572   4.613  0.0381  0.0622  0.7488
  847MOL0     C14237  10.503  10.460   4.523 -0.2831 -0.2733 -0.3367
  847MOL0     C14238  10.430  10.493   4.390 -0.0237  0.7060 -0.6035
  847MOL0     C14239  10.556  10.336   4.561 -0.1898 -0.5844  0.0332
  847MOL0     C14240  10.545  10.212   4.476  0.7452 -0.2631  0.0396
  847MOL0     O14241  10.557  10.099   4.548 -0.2704  0.3321  0.3065
  847MOL0     C14242  10.483   9.985   4.519  0.3309 -0.3969  0.1195
  847MOL0     C14243  10.514   9.912   4.396  0.6714 -0.4847  0.3126
  847MOL0     C14244  10.446   9.793   4.374  0.2892  0.2594  0.4421
  847MOL0     C14245  10.357   9.738   4.470 -0.1742 -0.2780 -0.6320
  847MOL0     O14246  10.288   9.622   4.453 -0.0177 -0.1431 -0.0373
  847MOL0     C14247  10.156   9.646   4.419  0.5818 -0.7201 -0.3120
  847MOL0     C14248  10.086   9.524   4.368 -1.2424  0.4245 -0.0223
  847MOL0     C14249  10.055   9.536   4.214 -0.7258 -0.2573 -0.0701
  847MOL0     C14250  10.178   9.576   4.119  1.3935 -0.1687 -0.6342
  847MOL0     C14251  10.287   9.469   4.120 -0.6507 -0.4356  0.6889
  847MOL0     C14252  10.403   9.501   4.025  0.6250 -0.1477 -0.1842
  847MOL0     C14253  10.473   9.373   3.990 -0.0224 -0.3773 -0.2383
  847MOL0     C14254  10.544   9.393   3.859  0.0882 -0.0416 -0.1021
  847MOL0    Cl14255  10.612   9.239   3.791  0.1660  0.8122  0.4753
  847MOL0     C14256  10.332   9.808   4.591  0.5754 -0.4430 -0.4413
  847MOL0     C14257  10.391   9.930   4.610 -0.0827 -0.4341 -0.4008
  847MOL0     O14258  10.517  10.222   4.359 -0.6539 -0.3823  0.0994
  847MOL0     C14259  10.622  10.317   4.683 -1.0162 -0.3333 -0.5012
  847MOL0     C14260  10.650  10.435   4.758 -1.0170 -0.9334  0.2346
  847MOL0     N14261  10.084  10.579   5.049 -0.7990  0.7652 -0.3705
  847MOL0     N14262   9.965  10.600   5.012 -1.1310 -0.1975  0.4238
  847MOL0     C14263   8.920  10.643   4.116  0.8418 -0.9296 -0.1720
  847MOL0     C14264   8.855  10.696   4.002  0.1025 -0.2336 -0.3373
  847MOL0     C14265   8.626  10.614   3.605 -0.2124  0.3347 -0.3306
  847MOL0     C14266   8.501  10.554   3.582  0.4462  0.0939  0.3096
  847MOL0     C14267   8.446  10.562   3.455 -0.4744 -0.2463  0.6234
  847MOL0     C14268   8.514  10.627   3.348  1.0508 -0.9920 -0.0612
  847MOL0     O14269   8.440  10.647   3.229  0.1031 -0.5349  0.4057
  847MOL0     C14270   8.517  10.656   3.106 -0.6457 -0.3935  0.4852
  847MOL0     C14271   8.437  10.590   3.000  1.1335 -0.5091 -0.3788
  847MOL0     C14272   8.432  10.436   3.002 -1.2205 -0.0412 -1.1008
  847MOL0     C14273   8.391  10.382   2.863  0.8664 -0.0289 -0.0457
  847MOL0     C14274   8.286  10.277   2.874  0.5454  0.3897  0.0781
  847MOL0     C14275   8.209  10.204   2.917  0.9960  0.0242  0.5188
  847MOL0     C14276   8.633  10.695   3.381 -0.6171 -0.3643  0.5998
  847MOL0     C14277   8.694  10.678   3.508  0.1758 -0.7629 -0.0055
  847MOL0     H14278   8.994  10.506   3.773 -1.2131  0.1635 -1.0445
  847MOL0     H14279   9.138  10.428   3.978 -0.8893 -1.8562 -1.3007
  847MOL0     H14280   9.297  10.577   4.133 -0.9309  3.0017 -2.3615
  847MOL0     H14281   9.192  10.699   4.197 -1.5159  0.1936  1.0872
  847MOL0     H14282   9.230  10.583   4.428 -3.0662 -0.9957 -2.2171
  847MOL0     H14283   9.321  10.460   4.334 -1.0200  0.3660 -4.5278
  847MOL0     H14284   9.488  10.587   4.274  0.8249 -1.3470  0.4298
  847MOL0     H14285   9.419  10.744   4.317  1.2278 -0.2229  1.3333
  847MOL0     H14286   9.450  10.723   4.557  2.8915 -2.0206  4.0794
  847MOL0     H14287   9.473  10.549   4.557  1.4646 -1.4102 -1.7840
  847MOL0     H14288   9.695  10.573   4.456  2.1738  1.9169 -0.5353
  847MOL0     H14289   9.672  10.742   4.447 -0.6381 -1.8337 -2.7934
  847MOL0     H14290   9.658  10.781   4.677  0.8266 -0.4607  4.0223
  847MOL0     H14291   9.611  10.622   4.720  1.8489 -1.9954 -0.9546
  847MOL0     H14292   9.862  10.550   4.686  4.1086  0.7401  1.7501
  847MOL0     H14293   9.870  10.711   4.606 -2.2648  0.7773 -0.6396
  847MOL0     H14294   9.765  10.722   4.886  1.3231 -1.4998  2.4524
  847MOL0     H14295   9.876  10.822   4.803 -1.1264 -0.5396  0.3595
  847MOL0     H14296  10.125  10.699   4.744 -2.6865 -0.7373 -0.3465
  847MOL0     H14297  10.341  10.592   5.066  2.8310 -0.0589 -0.7808
  847MOL0     H14298  10.370  10.577   4.884  1.6124  2.0198  0.4707
  847MOL0     H14299  10.314  10.816   5.041  0.0607  2.5338 -1.4934
  847MOL0     H14300  10.333  10.807   4.863  1.5105  0.4326 -0.5124
  847MOL0     H14301  10.534  10.806   5.094 -0.6634  0.1328 -0.0077
  847MOL0     H14302  10.549  10.869   4.930  0.1535 -1.8801 -3.2234
  847MOL0     H14303  10.574  10.572   4.966  0.2187 -1.4958 -0.6530
  847MOL0     H14304  10.709  10.676   4.995 -0.9544  0.1716  0.0247
  847MOL0     H14305  10.499  10.672   4.587 -1.1120 -0.6545 -0.6017
  847MOL0     H14306  10.392  10.595   4.402  1.5441  1.3637 -1.0232
  847MOL0     H14307  10.493  10.485   4.301 -1.8153  0.6650 -1.9331
  847MOL0     H14308  10.344  10.426   4.376  0.4223 -0.3299  1.3147
  847MOL0     H14309  10.588   9.946   4.325  0.2868  0.6247  0.4296
  847MOL0     H14310  10.449   9.751   4.274 -0.6516  0.4615  0.3190
  847MOL0     H14311  10.108   9.679   4.512  1.0724  1.7595 -0.8575
  847MOL0     H14312  10.148   9.730   4.350 -1.3939  0.9412  1.7529
  847MOL0     H14313  10.155   9.441   4.388 -0.6349  1.2806  1.6842
  847MOL0     H14314   9.996   9.506   4.426 -1.8366 -0.0758 -1.0749
  847MOL0     H14315   9.979   9.614   4.203 -0.5082  0.0212  0.3865
  847MOL0     H14316  10.018   9.439   4.180 -0.3400 -0.1935 -0.6967
  847MOL0     H14317  10.138   9.587   4.018  0.1691  0.7430 -0.0738
  847MOL0     H14318  10.225   9.665   4.160  2.2539 -1.4437  1.3395
  847MOL0     H14319  10.247   9.375   4.082  2.2845 -1.1518 -0.9102
  847MOL0     H14320  10.322   9.446   4.220  1.5812 -1.4727 -0.2720
  847MOL0     H14321  10.363   9.559   3.942  0.8448  1.0795  0.5474
  847MOL0     H14322  10.472   9.563   4.083  1.3294  1.0031 -2.1345
  847MOL0     H14323  10.397   9.296   3.971 -0.8578 -0.5625  3.2672
  847MOL0     H14324  10.535   9.353   4.078 -0.4916  1.3934  0.5382
  847MOL0     H14325  10.630   9.460   3.872 -0.6671  0.8945  0.1781
  847MOL0     H14326  10.466   9.434   3.794 -0.5643  1.4000  1.4903
  847MOL0     H14327  10.253   9.769   4.655 -2.4427  1.2966 -2.8504
  847MOL0     H14328  10.367   9.979   4.704  0.6475 -0.5637 -0.1329
  847MOL0     H14329  10.668  10.225   4.717  0.1021  0.4829  0.2782
  847MOL0     H14330  10.709  10.403   4.843  0.4988 -2.6081 -1.3389
  847MOL0     H14331   8.891  10.690   4.209 -1.7687 -3.8738  0.6758
  847MOL0     H14332   8.798  10.785   4.026 -0.5086 -0.3632 -1.2667
  847MOL0     H14333   8.434  10.509   3.655  0.7611 -1.6975 -0.4378
  847MOL0     H14334   8.344  10.537   3.431 -0.5622  0.8371 -0.2153
  847MOL0     H14335   8.529  10.760   3.074  2.5929 -0.0055  2.4919
  847MOL0     H14336   8.617  10.615   3.126 -1.0370 -1.6393 -0.0197
  847MOL0     H14337   8.478  10.621   2.904  1.2533  3.1750  0.6880
  847MOL0     H14338   8.333  10.624   3.007  1.4967  0.7719 -0.8406
  847MOL0     H14339   8.364  10.411   3.084 -1.7176  1.0867 -1.1475
  847MOL0     H14340   8.533  10.402   3.025 -1.0205  0.6705 -0.8994
  847MOL0     H14341   8.478  10.338   2.812 -0.1179 -0.4972 -1.3682
  847MOL0     H14342   8.370  10.462   2.791 -2.3733  0.0014  0.7797
  847MOL0     H14343   8.124  10.141   2.933  1.3900 -2.6074 -5.2390
  847MOL0     H14344   8.693  10.754   3.312 -0.1501 -0.6626  0.7477
  847MOL0     H14345   8.788  10.728   3.531  0.1956 -1.8113  2.4664
  848MOL0     O14346  10.714   9.523   6.513  0.5248  0.3228  0.5417
  848MOL0     C14347  10.727   9.534   6.634 -0.1903 -0.0004 -0.3962
  848MOL0     O14348  10.833   9.587   6.700  0.5418 -0.0028 -0.2649
  848MOL0     C14349  10.944   9.575   6.625 -0.4005  0.2073  0.4023
  848MOL0     C14350  11.027   9.466   6.641 -0.2884 -0.3168  0.7349
  848MOL0     C14351  11.137   9.460   6.557  0.2489  0.0613 -0.6197
  848MOL0     C14352  11.163   9.545   6.451 -1.0617  0.5309 -0.1808
  848MOL0     O14353  11.279   9.545   6.374  0.7222  0.5397  0.3846
  848MOL0     C14354  11.374   9.438   6.379 -0.5848  0.7153  0.2860
  848MOL0     C14355  11.506   9.510   6.338  0.1962 -0.4132 -0.5352
  848MOL0     C14356  11.618   9.423   6.390 -0.0287 -0.7915 -0.0868
  848MOL0     C14357  11.748   9.473   6.336  0.2958  0.5109  0.2250
  848MOL0     C14358  11.870   9.390   6.354 -0.2570  0.5028  0.3944
  848MOL0     C14359  11.870   9.251   6.290 -0.4834  0.0521 -0.1072
  848MOL0     C14360  12.001   9.189   6.281  0.4050  0.3683 -0.3826
  848MOL0     C14361  11.977   9.057   6.208  0.2624  1.4609  0.7522
  848MOL0     N14362  12.097   8.972   6.220  0.8568  0.3708  0.1088
  848MOL0     C14363  12.227   9.013   6.224 -0.4155  0.0387  1.4776
  848MOL0     C14364  12.308   8.900   6.237  0.2586 -0.7513 -0.8778
  848MOL0     C14365  12.459   8.894   6.249  0.0898  0.3100  0.2621
  848MOL0     C14366  12.540   9.023   6.228  0.0621  0.0582  1.0521
  848MOL0     C14367  12.673   9.018   6.298  1.2721 -1.0373 -0.6054
  848MOL0     C14368  12.762   8.903   6.255  0.5114 -0.1686 -0.6427
  848MOL0     O14369  12.730   8.773   6.319  0.0034 -1.0566 -0.0636
  848MOL0     C14370  12.817   8.669   6.302 -0.3073 -0.7805  0.2642
  848MOL0     C14371  12.912   8.671   6.203  0.7210 -1.3933  0.1547
  848MOL0     C14372  13.005   8.569   6.193  0.2677 -0.6904  0.9132
  848MOL0     C14373  13.097   8.584   6.072 -0.8647 -0.0887  0.3136
  848MOL0     C14374  13.004   8.458   6.277 -0.4732  0.0977  0.0818
  848MOL0     C14375  13.096   8.346   6.272 -0.2794  0.5256  0.8956
  848MOL0     O14376  13.061   8.238   6.361 -0.4838  0.1459  0.1368
  848MOL0     C14377  13.135   8.118   6.365  0.4115 -0.2084 -0.8440
  848MOL0     C14378  13.220   8.088   6.467  0.0239 -0.1412 -0.1427
  848MOL0     C14379  13.283   7.967   6.461 -0.6334  0.0851 -0.5630
  848MOL0     C14380  13.256   7.872   6.361 -0.1210  0.6218 -0.2615
  848MOL0     O14381  13.347   7.773   6.347  0.0397 -0.8308 -0.4561
  848MOL0     C14382  13.466   7.837   6.301  0.3298  0.4224 -0.2738
  848MOL0     C14383  13.571   7.726   6.290  0.0790 -0.0823  0.3186
  848MOL0     C14384  13.618   7.683   6.431  0.5586 -0.0794  0.1544
  848MOL0     C14385  13.533   7.588   6.521 -1.2806  0.7933 -0.3797
  848MOL0     C14386  13.634   7.541   6.624  1.0122 -0.6901 -1.3131
  848MOL0     C14387  13.560   7.476   6.750  0.7014 -0.3724  1.1795
  848MOL0     C14388  13.648   7.428   6.861  0.5945  0.4621  0.9060
  848MOL0     C14389  13.737   7.312   6.832 -0.1400  0.6488  0.0370
  848MOL0    Cl14390  13.842   7.296   6.980 -0.2009 -0.0278  0.1019
  848MOL0     C14391  13.158   7.897   6.270 -0.2079 -0.1248  0.5228
  848MOL0     C14392  13.092   8.022   6.272 -2.0871  0.0956  0.5407
  848MOL0     O14393  13.200   8.352   6.200  0.2519 -0.3943 -0.1623
  848MOL0     C14394  12.911   8.459   6.375 -0.4233 -0.7506 -0.1920
  848MOL0     C14395  12.811   8.565   6.391  0.0414 -0.0595 -0.1721
  848MOL0     N14396  12.222   8.794   6.230 -0.2445  0.0533 -0.0318
  848MOL0     N14397  12.099   8.830   6.228  0.3140 -0.4756  0.7325
  848MOL0     C14398  11.070   9.638   6.418  0.5227 -0.9373 -0.7439
  848MOL0     C14399  10.959   9.658   6.505  0.1192 -0.4340  0.7258
  848MOL0     C14400  10.623   9.475   6.722 -0.0036  0.6268 -0.2803
  848MOL0     C14401  10.489   9.466   6.683 -0.3098 -0.3053  0.5544
  848MOL0     C14402  10.400   9.417   6.774  1.2742 -0.6607 -0.1375
  848MOL0     C14403  10.434   9.392   6.905  0.5531  0.9857 -0.0590
  848MOL0     O14404  10.342   9.323   6.969  0.2638 -0.5269  0.0802
  848MOL0     C14405  10.367   9.267   7.100  0.2832 -0.3803  0.2458
  848MOL0     C14406  10.355   9.115   7.085  0.9713 -0.6962 -0.0544
  848MOL0     C14407  10.205   9.085   7.043 -0.2924  0.1850  0.6615
  848MOL0     C14408  10.175   8.944   6.990  0.5126 -0.2482 -0.0174
  848MOL0     C14409  10.031   8.928   6.983 -1.0832 -0.0174 -1.0341
  848MOL0     C14410   9.917   8.916   6.967  0.0042 -0.2968  0.1397
  848MOL0     C14411  10.567   9.401   6.941  0.9107  0.8158 -0.6090
  848MOL0     C14412  10.659   9.437   6.853 -0.4536 -0.5394 -0.4225
  848MOL0     H14413  11.022   9.394   6.722 -0.9038 -1.2125 -0.0640
  848MOL0     H14414  11.207   9.379   6.577 -0.1997  0.0208  0.9107
  848MOL0     H14415  11.376   9.385   6.474  0.0379 -3.2382 -1.7257
  848MOL0     H14416  11.353   9.360   6.305  1.3936 -0.1395  0.5663
  848MOL0     H14417  11.506   9.527   6.230  1.0674  2.5792 -0.1455
  848MOL0     H14418  11.511   9.609   6.383  1.6798 -1.1173  0.9680
  848MOL0     H14419  11.631   9.444   6.497  1.4948  2.6283 -0.8208
  848MOL0     H14420  11.610   9.314   6.380 -1.3810 -1.3179  4.2968
  848MOL0     H14421  11.738   9.496   6.230  1.6667  2.4932  0.4665
  848MOL0     H14422  11.772   9.567   6.387 -1.0239 -0.7942  3.5660
  848MOL0     H14423  11.953   9.440   6.303 -0.4790  0.5573  0.0862
  848MOL0     H14424  11.891   9.380   6.461 -2.8104  1.2098  1.0234
  848MOL0     H14425  11.800   9.187   6.345 -3.4080  0.9377 -2.5546
  848MOL0     H14426  11.814   9.251   6.196 -0.3838  3.2602 -0.2823
  848MOL0     H14427  12.061   9.259   6.223  0.8979 -0.6353 -1.0968
  848MOL0     H14428  12.034   9.180   6.385 -0.7537  0.6106  0.0300
  848MOL0     H14429  11.968   9.073   6.100 -1.3908 -0.4204  0.5406
  848MOL0     H14430  11.891   9.003   6.248  0.8167 -1.8823 -2.0385
  848MOL0     H14431  12.247   9.119   6.216 -0.2258 -0.0384  0.9358
  848MOL0     H14432  12.474   8.856   6.351 -1.0464 -2.9263 -0.6566
  848MOL0     H14433  12.495   8.812   6.185 -0.0113 -1.4558  2.3338
  848MOL0     H14434  12.479   9.104   6.270  2.3019  1.3089  2.0792
  848MOL0     H14435  12.546   9.053   6.123  3.4569 -0.2706  1.0372
  848MOL0     H14436  12.648   9.001   6.403 -1.4808  2.0199 -0.5680
  848MOL0     H14437  12.725   9.114   6.290  0.8133 -0.5902  1.3088
  848MOL0     H14438  12.860   8.936   6.290  0.5287 -0.8896 -0.0011
  848MOL0     H14439  12.758   8.901   6.145 -1.2131  2.0147 -0.6950
  848MOL0     H14440  12.921   8.757   6.137  1.8238 -1.1482  0.5969
  848MOL0     H14441  13.202   8.568   6.100 -1.7249 -2.7276  2.5097
  848MOL0     H14442  13.081   8.500   6.005 -3.3593  0.3898  0.2293
  848MOL0     H14443  13.087   8.679   6.019  5.0081  1.4096  1.0742
  848MOL0     H14444  13.227   8.154   6.553 -0.6071 -2.5824  1.9071
  848MOL0     H14445  13.344   7.945   6.547  3.6243  0.0283 -3.3101
  848MOL0     H14446  13.455   7.890   6.206  0.9088  1.0775  0.0131
  848MOL0     H14447  13.513   7.903   6.375  1.4157 -1.1630  0.5131
  848MOL0     H14448  13.525   7.642   6.237 -0.2953  0.7464 -0.7241
  848MOL0     H14449  13.654   7.758   6.226  0.7293 -3.1251 -0.4855
  848MOL0     H14450  13.620   7.780   6.482  1.0212 -0.6461  1.2613
  848MOL0     H14451  13.721   7.645   6.426  1.0640  1.0435  1.3747
  848MOL0     H14452  13.454   7.651   6.564 -1.6114 -0.0188  0.2267
  848MOL0     H14453  13.484   7.510   6.462 -0.8755 -1.6807  2.3373
  848MOL0     H14454  13.686   7.621   6.678 -0.3059 -0.2403 -0.6563
  848MOL0     H14455  13.705   7.472   6.578  0.4316 -2.0547 -0.2398
  848MOL0     H14456  13.486   7.550   6.783 -2.2265 -1.9616 -1.2340
  848MOL0     H14457  13.488   7.399   6.718 -3.9978  4.6745 -2.3435
  848MOL0     H14458  13.582   7.406   6.944 -0.8167 -0.0934 -0.3161
  848MOL0     H14459  13.707   7.514   6.894 -0.1999  0.2312  3.0093
  848MOL0     H14460  13.788   7.321   6.736  0.9766 -1.5847  0.3677
  848MOL0     H14461  13.672   7.226   6.818  3.0675 -1.7441 -1.3702
  848MOL0     H14462  13.128   7.823   6.197  4.3388  0.6402 -2.5675
  848MOL0     H14463  13.015   8.041   6.197 -0.3481 -1.6859 -1.8748
  848MOL0     H14464  12.907   8.380   6.450 -0.7637 -1.0588 -0.5284
  848MOL0     H14465  12.728   8.565   6.461 -0.1751  5.0945 -0.0616
  848MOL0     H14466  11.067   9.703   6.331 -1.6980  0.9040  0.5999
  848MOL0     H14467  10.887   9.736   6.483  0.4419 -0.5577 -0.8844
  848MOL0     H14468  10.450   9.493   6.586 -2.0313  0.6277  1.4534
  848MOL0     H14469  10.299   9.406   6.736  1.3237  1.2994 -0.9362
  848MOL0     H14470  10.469   9.290   7.130  0.7528 -0.0538 -1.4795
  848MOL0     H14471  10.287   9.310   7.161 -1.0865 -1.0213 -1.0121
  848MOL0     H14472  10.375   9.062   7.179 -2.3959 -4.4749 -1.1911
  848MOL0     H14473  10.429   9.075   7.015  0.3203 -3.0287  0.4849
  848MOL0     H14474  10.179   9.157   6.965 -0.5288 -0.9671 -0.3532
  848MOL0     H14475  10.146   9.115   7.130  2.7538  4.1047  1.6711
  848MOL0     H14476  10.211   8.875   7.067 -0.1333  0.3922  0.8728
  848MOL0     H14477  10.222   8.936   6.892 -1.5358  2.4184 -1.3590
  848MOL0     H14478   9.812   8.894   6.963 -0.5793  2.2482 -3.2781
  848MOL0     H14479  10.609   9.368   7.035 -1.1188  3.0931  1.2156
  848MOL0     H14480  10.761   9.438   6.891 -0.1162 -0.4710 -1.3028
  849MOL0     O14481   4.484   6.117   8.033 -0.0883 -0.0260 -0.5037
  849MOL0     C14482   4.508   6.232   7.998  0.5726 -0.6045 -0.1320
  849MOL0     O14483   4.416   6.331   8.001 -0.8937  0.0080 -0.8706
  849MOL0     C14484   4.323   6.320   8.101  0.5780 -0.0360  1.0984
  849MOL0     C14485   4.356   6.308   8.235  0.1459 -0.1344  0.3523
  849MOL0     C14486   4.260   6.280   8.330 -1.5344  0.5791  0.0639
  849MOL0     C14487   4.130   6.252   8.303  0.3671 -0.0390 -0.5261
  849MOL0     O14488   4.035   6.215   8.396  0.6197 -0.0306  0.0500
  849MOL0     C14489   4.075   6.195   8.533  0.4177  0.2146  0.9511
  849MOL0     C14490   3.945   6.152   8.603  0.0277 -0.5940 -1.0134
  849MOL0     C14491   3.928   5.995   8.566 -0.4240  0.8718  0.2061
  849MOL0     C14492   3.790   5.956   8.608  0.4640  0.1142 -0.1815
  849MOL0     C14493   3.774   5.937   8.758  0.5538  0.2295 -1.1503
  849MOL0     C14494   3.635   5.877   8.760 -0.0904 -0.4711 -0.3005
  849MOL0     C14495   3.600   5.869   8.898  0.5065  0.0017 -0.4958
  849MOL0     C14496   3.445   5.850   8.922  0.1581 -0.2752 -0.7264
  849MOL0     N14497   3.388   5.737   8.850  1.3483  0.2062  0.1652
  849MOL0     C14498   3.393   5.602   8.888 -0.1155  0.4452 -0.1426
  849MOL0     C14499   3.333   5.525   8.786  0.8958 -0.3703 -0.4070
  849MOL0     C14500   3.299   5.375   8.791 -0.0406  0.6423 -0.2801
  849MOL0     C14501   3.391   5.281   8.712  0.6276  0.3933  0.6419
  849MOL0     C14502   3.423   5.341   8.571 -0.2471 -0.4072 -0.3199
  849MOL0     C14503   3.505   5.237   8.497 -0.7800 -1.3823 -0.7606
  849MOL0     O14504   3.635   5.230   8.570  0.6591  0.7028  0.6676
  849MOL0     C14505   3.704   5.116   8.552  0.2272  0.3685 -0.3606
  849MOL0     C14506   3.708   5.036   8.437 -0.0625 -0.2828 -0.0661
  849MOL0     C14507   3.799   4.927   8.432 -0.1718 -0.4227  0.4598
  849MOL0     C14508   3.817   4.851   8.297  0.2327 -0.2084 -0.5176
  849MOL0     C14509   3.884   4.888   8.544  0.0729  0.6143  0.5133
  849MOL0     C14510   3.971   4.767   8.548  0.3006  0.3193 -0.0995
  849MOL0     O14511   4.008   4.733   8.681  0.1935  0.0941 -0.2950
  849MOL0     C14512   4.098   4.630   8.691 -0.3661  0.5252 -0.6906
  849MOL0     C14513   4.237   4.648   8.667  0.5292  0.0864  0.0239
  849MOL0     C14514   4.320   4.545   8.694 -0.7016  0.0114 -0.1907
  849MOL0     C14515   4.281   4.420   8.744  0.9893  0.2119 -0.1623
  849MOL0     O14516   4.379   4.333   8.775 -0.3242 -0.4140 -0.0822
  849MOL0     C14517   4.359   4.197   8.796  0.7419  0.6150  0.3881
  849MOL0     C14518   4.336   4.161   8.941 -0.2941 -1.0605  0.2640
  849MOL0     C14519   4.247   4.040   8.940  0.0966  0.0892  0.4523
  849MOL0     C14520   4.313   3.911   8.898 -0.2876 -0.2199  0.8130
  849MOL0     C14521   4.215   3.796   8.903  0.8494  0.3034  0.5516
  849MOL0     C14522   4.192   3.742   9.039 -0.6475  0.2541  0.0626
  849MOL0     C14523   4.320   3.684   9.098 -0.6158  0.6447  0.2448
  849MOL0     C14524   4.295   3.599   9.227  0.1055 -0.4921  0.9150
  849MOL0    Cl14525   4.447   3.536   9.296 -0.3594  0.0934  0.2762
  849MOL0     C14526   4.145   4.395   8.755 -0.0615  0.5348  0.0693
  849MOL0     C14527   4.052   4.503   8.735 -0.3309  0.7561 -0.2807
  849MOL0     O14528   4.020   4.722   8.447  0.6213  0.3691  0.1971
  849MOL0     C14529   3.871   4.968   8.660 -0.0871 -0.5413 -0.2502
  849MOL0     C14530   3.789   5.080   8.658  0.3628  0.2039  0.3194
  849MOL0     N14531   3.305   5.622   8.687 -0.1691 -1.2457 -0.6423
  849MOL0     N14532   3.329   5.743   8.726 -0.1390  0.8397 -0.5671
  849MOL0     C14533   4.091   6.259   8.170  0.0645 -0.1146  0.0710
  849MOL0     C14534   4.189   6.293   8.069  0.1686 -0.8980  0.3115
  849MOL0     C14535   4.641   6.270   7.945  0.4336 -0.1372  0.7598
  849MOL0     C14536   4.745   6.172   7.933 -0.4491  0.3898 -0.0723
  849MOL0     C14537   4.863   6.209   7.878  0.1718  0.2444 -0.7868
  849MOL0     C14538   4.891   6.344   7.841  0.0206  0.1727 -0.7106
  849MOL0     O14539   5.010   6.398   7.797  0.1946 -0.4689  0.0274
  849MOL0     C14540   5.129   6.322   7.787 -0.0073 -0.3175  0.7837
  849MOL0     C14541   5.214   6.377   7.674  0.8599 -0.1594 -0.1381
  849MOL0     C14542   5.143   6.393   7.533  0.1658  0.3432  0.0215
  849MOL0     C14543   5.112   6.254   7.479  0.5366 -0.3592 -1.0527
  849MOL0     C14544   5.008   6.279   7.372 -0.1405  0.1579  0.4312
  849MOL0     C14545   4.916   6.307   7.301  0.5826  1.3254  0.7095
  849MOL0     C14546   4.796   6.438   7.868 -0.4853 -0.6282  0.4065
  849MOL0     C14547   4.673   6.404   7.918 -0.1840  0.0061  0.2182
  849MOL0     H14548   4.457   6.327   8.269  0.8234  2.1468 -2.5212
  849MOL0     H14549   4.293   6.284   8.433 -0.9857  0.8801 -0.1189
  849MOL0     H14550   4.155   6.120   8.543  1.0265  0.7972  0.5694
  849MOL0     H14551   4.110   6.287   8.580  2.3676 -0.6441  1.3003
  849MOL0     H14552   3.962   6.165   8.711  1.1271  1.6202 -1.3939
  849MOL0     H14553   3.863   6.220   8.579 -0.1318  0.5625  2.2560
  849MOL0     H14554   3.936   5.969   8.460 -1.4213 -1.9627  0.7394
  849MOL0     H14555   4.008   5.941   8.618 -0.5495  1.3236  0.8812
  849MOL0     H14556   3.712   6.022   8.567 -0.4414 -1.4386 -1.0522
  849MOL0     H14557   3.754   5.869   8.552 -4.3872  1.1591  0.8503
  849MOL0     H14558   3.853   5.877   8.807  0.3481 -0.0288 -1.1304
  849MOL0     H14559   3.786   6.033   8.810  0.2637 -1.1990  1.8140
  849MOL0     H14560   3.570   5.949   8.710 -2.0545 -3.0084 -1.6328
  849MOL0     H14561   3.624   5.784   8.703  1.6047 -1.3062  0.6710
  849MOL0     H14562   3.648   5.790   8.956  0.0771  0.9371  1.1831
  849MOL0     H14563   3.633   5.957   8.954 -0.2746 -1.5206  2.5674
  849MOL0     H14564   3.399   5.943   8.890  4.4091  2.3655  0.0361
  849MOL0     H14565   3.418   5.833   9.027 -3.6005 -2.8666 -1.8922
  849MOL0     H14566   3.436   5.559   8.978 -1.2931  1.8533  1.1231
  849MOL0     H14567   3.288   5.345   8.896 -0.6919 -0.2940 -0.6037
  849MOL0     H14568   3.200   5.378   8.747 -0.4932  0.7925  0.7125
  849MOL0     H14569   3.334   5.189   8.701  0.4306  0.4265  1.3488
  849MOL0     H14570   3.485   5.252   8.761  1.8347  3.2983  0.2940
  849MOL0     H14571   3.460   5.444   8.562 -2.8959  0.7223  0.6801
  849MOL0     H14572   3.334   5.347   8.508  1.1562 -0.2506 -2.4300
  849MOL0     H14573   3.529   5.263   8.394  0.1811 -2.9122 -0.9612
  849MOL0     H14574   3.455   5.141   8.513  1.7497 -2.1777  5.2141
  849MOL0     H14575   3.652   5.071   8.350 -1.3729  0.0030  0.8587
  849MOL0     H14576   3.913   4.881   8.255 -0.0211  1.9164  0.3097
  849MOL0     H14577   3.816   4.743   8.317  2.1832  0.3331  3.4062
  849MOL0     H14578   3.727   4.878   8.242 -0.4047 -1.5059 -0.1490
  849MOL0     H14579   4.282   4.743   8.641  1.4285  0.2118  1.8545
  849MOL0     H14580   4.428   4.558   8.685 -0.4348 -0.4196  1.8690
  849MOL0     H14581   4.270   4.176   8.735  0.9015  2.4077 -0.5139
  849MOL0     H14582   4.438   4.140   8.745  1.1308  0.5913  1.0069
  849MOL0     H14583   4.427   4.140   8.998 -1.6345 -1.8330  2.2105
  849MOL0     H14584   4.282   4.242   8.990  2.0255  1.5636 -1.2371
  849MOL0     H14585   4.165   4.059   8.870  0.1908 -1.3408 -0.0751
  849MOL0     H14586   4.188   4.029   9.032 -1.3315 -2.5852 -0.6622
  849MOL0     H14587   4.347   3.915   8.794 -1.0931 -0.3953  0.5338
  849MOL0     H14588   4.398   3.890   8.964 -1.2101 -0.9937  1.7692
  849MOL0     H14589   4.260   3.720   8.838  1.7689 -1.7836  3.4238
  849MOL0     H14590   4.115   3.818   8.867  0.4371  0.0809  1.5199
  849MOL0     H14591   4.166   3.810   9.120  1.3256 -0.6060  1.4909
  849MOL0     H14592   4.109   3.672   9.032 -0.1968 -0.5557  2.2066
  849MOL0     H14593   4.381   3.769   9.130 -1.1923  0.9502  0.5334
  849MOL0     H14594   4.369   3.629   9.017  2.2240  1.0624  1.5301
  849MOL0     H14595   4.231   3.513   9.206 -1.6385  0.1855  3.0817
  849MOL0     H14596   4.236   3.657   9.299 -1.8155  1.4976 -2.0013
  849MOL0     H14597   4.100   4.305   8.796 -2.8234  1.9077  0.3153
  849MOL0     H14598   3.949   4.478   8.759 -0.2365  0.6627  0.0308
  849MOL0     H14599   3.916   4.944   8.756  0.3441  0.0978 -0.2882
  849MOL0     H14600   3.781   5.141   8.747 -0.2470  0.8225 -0.1482
  849MOL0     H14601   3.992   6.236   8.131  0.2271  0.4900 -0.7108
  849MOL0     H14602   4.167   6.288   7.963  1.9262  0.5477 -0.1682
  849MOL0     H14603   4.733   6.067   7.956 -1.0924  1.0102  2.7753
  849MOL0     H14604   4.933   6.132   7.849  1.4187  0.8120  0.6350
  849MOL0     H14605   5.176   6.340   7.884  1.4337 -0.2731  0.1025
  849MOL0     H14606   5.106   6.216   7.771 -1.7454  0.2384 -0.6214
  849MOL0     H14607   5.299   6.308   7.670  0.6740 -0.7331  3.1375
  849MOL0     H14608   5.264   6.470   7.701  0.0641 -0.1278  1.3345
  849MOL0     H14609   5.202   6.455   7.465  0.2376  2.8228  2.1771
  849MOL0     H14610   5.053   6.452   7.552  1.5549  2.2842  0.9152
  849MOL0     H14611   5.065   6.189   7.553 -0.0050  1.5486  0.3640
  849MOL0     H14612   5.200   6.202   7.440 -0.2151 -2.7263  0.2290
  849MOL0     H14613   4.828   6.337   7.248  1.0035  1.8354  0.2906
  849MOL0     H14614   4.811   6.544   7.846 -1.1802 -0.3699  1.1237
  849MOL0     H14615   4.592   6.475   7.934 -0.5349 -0.2035 -0.5753
  850MOL0     O14616   1.246   4.216   8.792 -0.0377 -0.2998 -0.1541
  850MOL0     C14617   1.178   4.319   8.784  0.7500 -0.1984  0.7216
  850MOL0     O14618   1.188   4.413   8.690  0.2563 -0.3534 -0.4854
  850MOL0     C14619   1.275   4.375   8.587  0.7113 -0.2955 -0.5175
  850MOL0     C14620   1.417   4.400   8.587 -0.4333  0.0820  0.4226
  850MOL0     C14621   1.495   4.383   8.469  0.4328  0.0316  0.2653
  850MOL0     C14622   1.428   4.335   8.351  0.7632 -0.3368 -0.3643
  850MOL0     O14623   1.510   4.315   8.241 -0.3912 -0.2073 -0.0938
  850MOL0     C14624   1.462   4.369   8.114  0.1440 -0.2557 -1.6226
  850MOL0     C14625   1.424   4.254   8.023  0.5746 -0.6959 -0.2143
  850MOL0     C14626   1.481   4.274   7.880 -0.3095  0.4469  0.1570
  850MOL0     C14627   1.406   4.173   7.777 -0.5239  0.0947 -0.9106
  850MOL0     C14628   1.470   4.159   7.638  0.2414  0.5191 -0.8778
  850MOL0     C14629   1.380   4.056   7.566 -0.7470  0.4377 -0.7173
  850MOL0     C14630   1.421   4.060   7.421  0.0453 -0.0279  0.4110
  850MOL0     C14631   1.352   3.957   7.329  0.6271 -0.4917 -0.3466
  850MOL0     N14632   1.415   3.821   7.317  0.2317  0.2232  0.4885
  850MOL0     C14633   1.538   3.790   7.274 -0.2436 -0.2945 -0.2227
  850MOL0     C14634   1.560   3.660   7.306  0.0481 -0.9902 -0.2485
  850MOL0     C14635   1.679   3.574   7.270 -0.0117  0.5956  0.6574
  850MOL0     C14636   1.636   3.458   7.176  0.5819  0.6855  0.7225
  850MOL0     C14637   1.582   3.336   7.250 -0.0844 -0.0079 -0.4292
  850MOL0     C14638   1.527   3.227   7.159  0.4807  0.5628 -0.5142
  850MOL0     O14639   1.392   3.270   7.137 -0.2174  0.5272  0.7000
  850MOL0     C14640   1.326   3.181   7.056 -0.2877  0.6659 -0.1986
  850MOL0     C14641   1.221   3.110   7.113  0.7010 -0.0302  0.2474
  850MOL0     C14642   1.143   3.020   7.038 -0.3531 -0.0017  0.2972
  850MOL0     C14643   1.032   2.950   7.111  0.0184  0.3198  0.8554
  850MOL0     C14644   1.183   2.992   6.907  0.9493 -0.0956 -0.3846
  850MOL0     C14645   1.091   2.917   6.811  0.2900 -0.4884  0.1006
  850MOL0     O14646   1.051   2.977   6.694  0.1008  0.6976 -0.3541
  850MOL0     C14647   1.042   3.109   6.674 -0.1198 -0.0511  0.4900
  850MOL0     C14648   1.008   3.220   6.768 -0.3277  0.5466 -0.4186
  850MOL0     C14649   1.009   3.361   6.736 -0.7649  0.3281 -0.8508
  850MOL0     C14650   1.048   3.395   6.604  1.4800 -0.9936  0.1336
  850MOL0     O14651   1.027   3.528   6.556 -0.6100 -0.2165 -0.3917
  850MOL0     C14652   1.011   3.638   6.650 -0.5554 -0.2099 -0.5298
  850MOL0     C14653   1.010   3.783   6.586 -0.7129 -0.0887 -1.1410
  850MOL0     C14654   1.137   3.805   6.508  0.1299  0.4640  0.2945
  850MOL0     C14655   1.191   3.937   6.565 -0.2463 -0.3114  0.2307
  850MOL0     C14656   1.317   3.971   6.496 -0.4841  0.3014 -0.3918
  850MOL0     C14657   1.383   4.100   6.554  1.1819 -0.1536 -1.0733
  850MOL0     C14658   1.513   4.127   6.478 -0.9345 -1.1305 -0.4499
  850MOL0     C14659   1.484   4.164   6.337  0.4807  0.2408 -0.0961
  850MOL0    Cl14660   1.503   4.025   6.225  0.0300 -0.4105  0.8547
  850MOL0     C14661   1.067   3.289   6.519 -0.6467  0.1653  0.1063
  850MOL0     C14662   1.074   3.156   6.553 -0.0439  0.4647 -0.5019
  850MOL0     O14663   1.058   2.802   6.847 -0.5008 -0.0678  0.5550
  850MOL0     C14664   1.284   3.059   6.859  0.7689  0.1202  0.1629
  850MOL0     C14665   1.359   3.160   6.924  0.3361  0.8989 -0.7359
  850MOL0     N14666   1.447   3.618   7.372  0.3603 -0.3946  0.0124
  850MOL0     N14667   1.362   3.715   7.383 -0.1182 -0.1950 -0.1766
  850MOL0     C14668   1.286   4.323   8.344 -0.3875 -0.3138 -0.5089
  850MOL0     C14669   1.216   4.340   8.467  0.6171  0.3859  0.4506
  850MOL0     C14670   1.069   4.350   8.893 -0.1896 -0.2105 -0.0425
  850MOL0     C14671   1.060   4.265   9.011 -0.0797  0.7824  0.1833
  850MOL0     C14672   0.972   4.291   9.113  0.1659  0.1935  0.4366
  850MOL0     C14673   0.874   4.396   9.096 -0.3233  0.3544  0.2682
  850MOL0     O14674   0.777   4.395   9.187  0.1239  0.3937 -0.0673
  850MOL0     C14675   0.661   4.475   9.153  0.0538  0.1976 -0.1520
  850MOL0     C14676   0.543   4.457   9.247 -0.5868  0.7603 -0.0865
  850MOL0     C14677   0.532   4.313   9.287  0.6060 -0.1487  0.5704
  850MOL0     C14678   0.408   4.298   9.367  1.2603  0.4016 -0.9380
  850MOL0     C14679   0.280   4.271   9.298 -0.7765 -0.3545  0.0162
  850MOL0     C14680   0.162   4.272   9.267  0.0761 -0.0206 -0.0815
  850MOL0     C14681   0.890   4.483   8.985  0.0121  1.0981 -1.0057
  850MOL0     C14682   0.986   4.462   8.889 -0.4867  0.2851 -0.3396
  850MOL0     H14683   1.455   4.418   8.687 -0.0701  0.4212  0.2247
  850MOL0     H14684   1.602   4.403   8.470  0.2251  1.4780 -1.3859
  850MOL0     H14685   1.390   4.451   8.116  0.2807 -0.0723 -3.1405
  850MOL0     H14686   1.545   4.429   8.074  0.1357  0.1852 -1.0032
  850MOL0     H14687   1.459   4.157   8.057  1.4722 -0.5170 -0.6032
  850MOL0     H14688   1.315   4.259   8.011  0.5372  3.6138  0.2427
  850MOL0     H14689   1.474   4.377   7.843  0.6999  0.7129  0.6897
  850MOL0     H14690   1.586   4.247   7.877  0.2455  2.3332  0.8537
  850MOL0     H14691   1.382   4.081   7.831 -0.8943  0.4004 -0.5456
  850MOL0     H14692   1.309   4.220   7.759 -0.7121  0.1273  0.1508
  850MOL0     H14693   1.478   4.256   7.588  0.1973  1.0010  0.0427
  850MOL0     H14694   1.565   4.105   7.644  2.1739  3.7150 -0.6792
  850MOL0     H14695   1.393   3.958   7.612 -1.2436  1.0962  0.9133
  850MOL0     H14696   1.274   4.080   7.579 -0.7521 -0.2993  0.7918
  850MOL0     H14697   1.384   4.152   7.374 -1.6566 -1.7393 -1.8577
  850MOL0     H14698   1.528   4.048   7.402 -0.2728  0.0742 -1.7359
  850MOL0     H14699   1.353   4.005   7.230 -3.7181 -0.7731 -0.6989
  850MOL0     H14700   1.253   3.939   7.370  2.4188 -5.3893  2.7107
  850MOL0     H14701   1.603   3.851   7.213 -0.2441 -0.1096 -0.0378
  850MOL0     H14702   1.754   3.635   7.219  0.3776 -0.2709  0.1711
  850MOL0     H14703   1.737   3.563   7.362  0.9646  0.1403 -0.0003
  850MOL0     H14704   1.728   3.429   7.125  0.4542 -2.0394  1.8314
  850MOL0     H14705   1.554   3.493   7.113 -0.6424 -1.5648  0.9384
  850MOL0     H14706   1.510   3.369   7.325 -0.9301 -0.5770 -0.9708
  850MOL0     H14707   1.657   3.290   7.315  0.4838  1.8573  0.2995
  850MOL0     H14708   1.525   3.130   7.210  1.8293  1.7146  1.8840
  850MOL0     H14709   1.586   3.227   7.067  2.3700  3.3053  0.5899
  850MOL0     H14710   1.192   3.129   7.216  0.6955  1.0209  0.0662
  850MOL0     H14711   1.003   2.853   7.071 -2.9566  1.9466 -1.3488
  850MOL0     H14712   1.069   2.926   7.211  3.6368 -0.1801 -0.4678
  850MOL0     H14713   0.948   3.015   7.138  0.8311  0.7316  2.5062
  850MOL0     H14714   0.984   3.187   6.868 -0.7687  0.4625 -0.5508
  850MOL0     H14715   0.982   3.429   6.816 -1.9803 -1.4637  0.3366
  850MOL0     H14716   0.914   3.621   6.698  0.7090 -4.8227  0.8681
  850MOL0     H14717   1.090   3.633   6.725 -1.9907  0.4794  1.0809
  850MOL0     H14718   0.926   3.785   6.515 -2.0164  2.1390  0.3419
  850MOL0     H14719   0.983   3.856   6.662 -1.2001 -3.2934  2.0607
  850MOL0     H14720   1.127   3.817   6.400  0.4328 -0.1132  0.1990
  850MOL0     H14721   1.216   3.731   6.524  1.9337  2.9044  3.9356
  850MOL0     H14722   1.118   4.015   6.541  0.1754 -0.2444 -0.9138
  850MOL0     H14723   1.218   3.940   6.671  4.4198  5.2749 -0.6027
  850MOL0     H14724   1.293   3.987   6.391  0.9621  0.4438 -0.7280
  850MOL0     H14725   1.396   3.894   6.497  0.5217  1.2966 -0.7517
  850MOL0     H14726   1.321   4.188   6.533  1.0045  0.3979  1.4592
  850MOL0     H14727   1.414   4.087   6.658  0.6811 -2.9402 -1.1946
  850MOL0     H14728   1.589   4.049   6.487  1.1850  0.9529  1.0271
  850MOL0     H14729   1.555   4.213   6.531 -1.1709  0.8744 -3.2777
  850MOL0     H14730   1.566   4.234   6.320  2.7969 -2.1992  0.3734
  850MOL0     H14731   1.390   4.217   6.320  1.0920  0.7466 -2.0931
  850MOL0     H14732   1.061   3.313   6.413  0.4496  1.7083  0.3594
  850MOL0     H14733   1.090   3.080   6.477 -0.6840 -1.0297  0.7898
  850MOL0     H14734   1.313   3.042   6.756  1.8088 -0.2193  0.4992
  850MOL0     H14735   1.442   3.215   6.881 -0.5091  3.7770  1.0173
  850MOL0     H14736   1.239   4.287   8.254 -0.9633  0.5750 -0.5821
  850MOL0     H14737   1.111   4.339   8.439  0.5143  1.2772  0.7672
  850MOL0     H14738   1.122   4.176   9.019 -0.1846  0.7000  0.0819
  850MOL0     H14739   0.987   4.224   9.197 -1.6369  0.3345  0.9163
  850MOL0     H14740   0.678   4.583   9.150 -1.2235  0.4172 -0.0967
  850MOL0     H14741   0.619   4.448   9.056 -0.7366  1.3524 -0.1472
  850MOL0     H14742   0.456   4.494   9.193 -1.0411 -0.9767 -0.6167
  850MOL0     H14743   0.556   4.525   9.331  1.9350 -1.4232  1.4504
  850MOL0     H14744   0.625   4.293   9.341  0.6738  5.4854  3.3290
  850MOL0     H14745   0.523   4.258   9.193  0.7880  1.8030 -0.6480
  850MOL0     H14746   0.404   4.374   9.446 -1.1117 -3.4692  3.1448
  850MOL0     H14747   0.436   4.216   9.434 -0.6134  1.9978  2.0559
  850MOL0     H14748   0.060   4.277   9.234  0.0293  0.7471  0.1608
  850MOL0     H14749   0.818   4.565   8.985 -0.5328  0.6384 -0.1064
  850MOL0     H14750   0.979   4.521   8.798 -0.4165 -1.6058 -1.6117
  851MOL0     O14751   3.836   3.204   8.557  0.1262  0.1840 -0.1473
  851MOL0     C14752   3.866   3.180   8.678  0.6604 -0.6694 -0.1283
  851MOL0     O14753   3.785   3.202   8.785 -0.2481 -0.0957  0.1406
  851MOL0     C14754   3.668   3.258   8.760 -0.0392  0.5137  0.9387
  851MOL0     C14755   3.562   3.176   8.721 -0.8652  0.0088  0.3994
  851MOL0     C14756   3.437   3.230   8.690 -0.3360 -0.3747 -0.2975
  851MOL0     C14757   3.415   3.370   8.689  0.6112  0.3279  0.8489
  851MOL0     O14758   3.295   3.428   8.669  0.0897 -0.0765 -0.5277
  851MOL0     C14759   3.288   3.486   8.538  0.1833 -0.2270  0.7799
  851MOL0     C14760   3.151   3.549   8.510  1.0315  0.1107  0.8832
  851MOL0     C14761   3.133   3.652   8.401 -0.0635 -0.3624  0.1452
  851MOL0     C14762   3.211   3.608   8.288 -0.2883  0.2940  0.1515
  851MOL0     C14763   3.179   3.696   8.162 -0.4998  0.6146  0.4544
  851MOL0     C14764   3.261   3.669   8.039 -0.2580  0.0092 -0.2854
  851MOL0     C14765   3.257   3.523   7.980  0.1895 -0.2766 -0.0509
  851MOL0     C14766   3.331   3.508   7.849 -0.6500  0.0250 -0.0773
  851MOL0     N14767   3.342   3.366   7.818  0.2563 -0.0303 -0.3757
  851MOL0     C14768   3.429   3.270   7.863  0.4343 -0.0016  0.1549
  851MOL0     C14769   3.383   3.146   7.835  0.2867  0.4273  0.5281
  851MOL0     C14770   3.457   3.024   7.859  0.4689 -0.1169  0.3713
  851MOL0     C14771   3.373   2.896   7.847 -0.6783 -0.1759  0.0423
  851MOL0     C14772   3.271   2.864   7.959  0.3594 -0.5228  0.6977
  851MOL0     C14773   3.225   2.715   7.962 -0.9633 -0.1915 -0.9246
  851MOL0     O14774   3.124   2.721   8.061 -0.4491 -0.0978  0.0030
  851MOL0     C14775   3.036   2.615   8.080 -0.2483  0.3860 -0.6812
  851MOL0     C14776   2.999   2.527   7.986 -0.1441 -0.8819 -0.2529
  851MOL0     C14777   2.907   2.432   8.026  0.1465 -0.8128  0.3579
  851MOL0     C14778   2.886   2.321   7.929 -0.1614 -0.0431  0.3190
  851MOL0     C14779   2.841   2.431   8.149  0.5627  0.7595 -0.6283
  851MOL0     C14780   2.731   2.341   8.194  0.2558 -0.5667  0.3037
  851MOL0     O14781   2.625   2.419   8.249  0.2969 -0.2209 -0.6355
  851MOL0     C14782   2.531   2.351   8.325  0.6071 -0.2807 -0.5796
  851MOL0     C14783   2.466   2.230   8.303 -0.7010  0.2116  0.3201
  851MOL0     C14784   2.375   2.175   8.399 -0.9340 -0.2203  0.1945
  851MOL0     C14785   2.349   2.242   8.518 -0.6700 -0.0048 -0.1068
  851MOL0     O14786   2.259   2.196   8.611  0.2248 -0.1770  0.3185
  851MOL0     C14787   2.159   2.110   8.571 -0.2200  0.2433 -0.2872
  851MOL0     C14788   2.053   2.100   8.680 -0.5530  0.2147  0.0405
  851MOL0     C14789   1.931   2.180   8.663  0.1613 -0.1179  0.1199
  851MOL0     C14790   1.825   2.143   8.766  0.0987 -0.5338  1.1330
  851MOL0     C14791   1.691   2.210   8.739  0.7590 -0.3690  0.3933
  851MOL0     C14792   1.585   2.124   8.807  0.0392 -0.0038  0.8123
  851MOL0     C14793   1.450   2.197   8.822 -0.5923  0.7466  0.6062
  851MOL0     C14794   1.368   2.174   8.689 -0.7539  0.4134 -0.2029
  851MOL0    Cl14795   1.312   2.019   8.654  0.3065  0.1242  0.0207
  851MOL0     C14796   2.406   2.367   8.536  0.1217  0.3350 -0.1385
  851MOL0     C14797   2.498   2.420   8.443  0.2662  0.2492 -0.3875
  851MOL0     O14798   2.732   2.218   8.178 -0.0193  0.0802 -0.4294
  851MOL0     C14799   2.871   2.540   8.238 -0.4633  0.0470  0.2160
  851MOL0     C14800   2.969   2.624   8.201 -0.5562  0.2703  0.0732
  851MOL0     N14801   3.261   3.172   7.786  0.4805 -0.3042  1.1693
  851MOL0     N14802   3.236   3.299   7.765  1.4458 -0.2967 -0.4020
  851MOL0     C14803   3.519   3.452   8.715 -0.4726 -0.3760 -0.1509
  851MOL0     C14804   3.642   3.393   8.762 -0.0474 -0.8748  0.3133
  851MOL0     C14805   4.004   3.119   8.709  0.8425 -0.4505  0.2165
  851MOL0     C14806   4.069   3.026   8.620  0.5902  0.5602  0.0842
  851MOL0     C14807   4.195   2.960   8.649  0.1620 -0.4185 -0.4976
  851MOL0     C14808   4.257   2.991   8.766 -1.0287  0.9020 -0.7795
  851MOL0     O14809   4.383   2.930   8.784 -0.7897  0.3946 -0.3669
  851MOL0     C14810   4.475   2.953   8.885  0.1341  0.1169 -0.0707
  851MOL0     C14811   4.536   2.821   8.914 -0.5774  0.5616  0.0087
  851MOL0     C14812   4.636   2.768   8.809  0.1023  0.2293 -0.3593
  851MOL0     C14813   4.777   2.817   8.823 -0.2745 -0.1946 -0.3318
  851MOL0     C14814   4.855   2.771   8.939  0.1394 -0.7480 -0.2717
  851MOL0     C14815   4.887   2.722   9.042 -0.5922 -0.1138 -0.1508
  851MOL0     C14816   4.196   3.090   8.851  0.1864  0.6997 -0.1441
  851MOL0     C14817   4.072   3.146   8.828  0.0473 -0.5523  0.0807
  851MOL0     H14818   3.579   3.069   8.713 -3.5549 -0.4395 -0.2215
  851MOL0     H14819   3.356   3.160   8.670  2.2524 -2.6893 -4.0087
  851MOL0     H14820   3.358   3.571   8.536 -0.1486  0.0354  0.1017
  851MOL0     H14821   3.305   3.409   8.462  3.4560  1.2766 -0.2169
  851MOL0     H14822   3.087   3.464   8.484  0.5702  0.6816  0.1327
  851MOL0     H14823   3.110   3.596   8.600 -1.3049  0.2022 -0.1390
  851MOL0     H14824   3.026   3.645   8.383  0.2565  0.0535 -2.1874
  851MOL0     H14825   3.161   3.752   8.435  0.3135 -0.7564  1.0338
  851MOL0     H14826   3.319   3.612   8.306  0.2335  1.2919 -2.7091
  851MOL0     H14827   3.190   3.501   8.280 -1.5607  0.6562 -2.3155
  851MOL0     H14828   3.075   3.674   8.133 -0.7021  4.3542 -2.3979
  851MOL0     H14829   3.181   3.803   8.186 -0.2232  0.5654  0.6539
  851MOL0     H14830   3.225   3.747   7.972  3.0432  4.4826  2.6057
  851MOL0     H14831   3.369   3.682   8.054  0.1172 -1.9955 -0.9822
  851MOL0     H14832   3.306   3.458   8.053  4.4346 -0.8376 -3.0585
  851MOL0     H14833   3.153   3.491   7.968  0.1883 -0.5711  0.6820
  851MOL0     H14834   3.435   3.539   7.862  0.6815 -3.0515 -2.2218
  851MOL0     H14835   3.271   3.550   7.768 -0.0011  0.4050 -0.3684
  851MOL0     H14836   3.522   3.281   7.918  0.5083  1.5767 -0.2322
  851MOL0     H14837   3.538   3.013   7.786  1.8886  1.2216  1.6588
  851MOL0     H14838   3.506   3.024   7.957 -0.1256 -1.8823  0.7110
  851MOL0     H14839   3.453   2.822   7.859  0.3082  0.8477 -0.0613
  851MOL0     H14840   3.322   2.885   7.751  1.2325 -0.6948 -0.9544
  851MOL0     H14841   3.188   2.918   7.913 -2.1639 -2.8624  2.2210
  851MOL0     H14842   3.293   2.904   8.059 -1.3154  2.2839  0.0621
  851MOL0     H14843   3.302   2.648   8.000 -0.8039  1.0955  1.1323
  851MOL0     H14844   3.193   2.686   7.861  1.3808  0.6457 -1.9825
  851MOL0     H14845   3.047   2.522   7.889 -1.2202 -1.6873 -0.7725
  851MOL0     H14846   2.884   2.223   7.976  2.3616  0.9248  2.7015
  851MOL0     H14847   2.785   2.329   7.886  0.8055  0.6427 -1.9541
  851MOL0     H14848   2.962   2.324   7.850 -0.5060  1.1150  0.0112
  851MOL0     H14849   2.483   2.167   8.217 -2.7130  0.8476 -0.6127
  851MOL0     H14850   2.343   2.071   8.396 -0.8601 -0.2442  0.2291
  851MOL0     H14851   2.122   2.148   8.476  4.3976  0.6794 -2.1602
  851MOL0     H14852   2.199   2.011   8.546  0.9351  0.3605  0.9683
  851MOL0     H14853   2.030   1.993   8.682 -0.6865  0.1214 -2.7305
  851MOL0     H14854   2.097   2.132   8.775 -1.0542  2.2093 -0.3439
  851MOL0     H14855   1.891   2.160   8.563 -0.1141 -0.4849  0.2976
  851MOL0     H14856   1.952   2.286   8.673  2.9482  0.0386 -4.6446
  851MOL0     H14857   1.806   2.035   8.765 -2.2024 -0.1685  0.1651
  851MOL0     H14858   1.857   2.167   8.868 -0.5495 -1.9733  1.7146
  851MOL0     H14859   1.669   2.194   8.632  1.3445 -0.8333  0.3341
  851MOL0     H14860   1.697   2.312   8.775  4.0274 -0.0262 -0.7649
  851MOL0     H14861   1.571   2.032   8.749  0.6993  1.4118 -1.6954
  851MOL0     H14862   1.612   2.076   8.902 -1.3160 -0.2948  1.0847
  851MOL0     H14863   1.482   2.301   8.831  1.2648  0.3462 -0.6945
  851MOL0     H14864   1.390   2.161   8.906  0.2873 -1.6965  0.2641
  851MOL0     H14865   1.445   2.194   8.613 -1.8227  1.0831 -1.1469
  851MOL0     H14866   1.286   2.246   8.679  0.2630  1.7635  0.8792
  851MOL0     H14867   2.397   2.429   8.625  1.0399  0.9602 -0.4705
  851MOL0     H14868   2.547   2.517   8.449  0.8417  0.0886 -1.9136
  851MOL0     H14869   2.815   2.556   8.330  1.3133  3.2729  0.8534
  851MOL0     H14870   3.008   2.695   8.273  0.1692  1.5879 -1.5486
  851MOL0     H14871   3.515   3.560   8.703  0.5115 -0.5506 -2.6507
  851MOL0     H14872   3.731   3.447   8.794  0.9781 -2.7627  0.8292
  851MOL0     H14873   4.025   2.997   8.525  0.2740  1.0244  0.0844
  851MOL0     H14874   4.227   2.883   8.580  0.6547 -0.0378 -0.7085
  851MOL0     H14875   4.542   3.035   8.859 -1.4943  1.7334  0.6270
  851MOL0     H14876   4.423   2.989   8.974 -1.7854  0.9637 -1.4491
  851MOL0     H14877   4.459   2.745   8.930 -1.0708  0.5821 -2.0282
  851MOL0     H14878   4.591   2.836   9.008 -0.0188  1.0876 -0.3911
  851MOL0     H14879   4.598   2.782   8.707 -4.2928 -0.9121  0.9224
  851MOL0     H14880   4.632   2.659   8.818 -2.8722  0.1966 -1.1022
  851MOL0     H14881   4.774   2.926   8.825 -1.1091 -0.2034  2.5951
  851MOL0     H14882   4.833   2.773   8.739 -0.0585  1.5299 -1.1305
  851MOL0     H14883   4.921   2.679   9.134  2.4830 -0.0473 -1.1445
  851MOL0     H14884   4.239   3.112   8.948  0.6799 -1.9663  0.3126
  851MOL0     H14885   4.026   3.213   8.900  0.6747 -0.2113  0.1750
  852MOL0     O14886   4.867   1.979   8.289 -0.0904  0.1163 -0.6653
  852MOL0     C14887   4.880   1.903   8.194 -0.2469 -0.8032  0.0458
  852MOL0     O14888   4.793   1.885   8.088  0.4324 -0.0852 -0.0892
  852MOL0     C14889   4.724   2.003   8.073 -0.5836  0.7151  0.1050
  852MOL0     C14890   4.782   2.117   8.013 -0.5808  0.7599 -0.8602
  852MOL0     C14891   4.702   2.230   8.004  0.2874  0.8187  0.8103
  852MOL0     C14892   4.556   2.220   8.028  0.2644  0.5262 -0.2562
  852MOL0     O14893   4.481   2.336   8.004 -0.5343  0.4352 -0.7353
  852MOL0     C14894   4.347   2.338   8.030  0.5208  0.3811 -0.0795
  852MOL0     C14895   4.317   2.344   8.172 -0.3190  0.0925  0.5920
  852MOL0     C14896   4.183   2.410   8.212 -0.6718  0.5054 -0.0659
  852MOL0     C14897   4.142   2.413   8.353  1.2159  0.7700 -0.1291
  852MOL0     C14898   3.988   2.397   8.380  0.4973 -0.3563  0.0846
  852MOL0     C14899   3.959   2.245   8.360 -0.7485 -0.6443 -0.3302
  852MOL0     C14900   3.804   2.218   8.349 -0.9156 -0.4403  0.1332
  852MOL0     C14901   3.733   2.204   8.481  0.6948 -1.0855  0.0982
  852MOL0     N14902   3.605   2.148   8.457  0.2118 -0.0489  0.5860
  852MOL0     C14903   3.579   2.014   8.432 -1.1839  0.3473 -0.3946
  852MOL0     C14904   3.447   2.003   8.455 -0.1184  1.2442 -0.3041
  852MOL0     C14905   3.361   1.881   8.453 -0.7744 -0.6291 -0.4482
  852MOL0     C14906   3.298   1.846   8.592 -0.2666  0.5044  0.3661
  852MOL0     C14907   3.183   1.753   8.581 -0.6114 -0.1462 -0.0401
  852MOL0     C14908   3.116   1.725   8.711  0.4865 -0.0356 -0.5823
  852MOL0     O14909   3.213   1.674   8.802 -0.4666 -0.1684 -0.8676
  852MOL0     C14910   3.180   1.687   8.933 -0.0042 -0.5396 -0.7868
  852MOL0     C14911   3.282   1.695   9.033  0.3290 -0.8847 -0.7316
  852MOL0     C14912   3.257   1.711   9.164  0.4954  0.2745 -0.4986
  852MOL0     C14913   3.380   1.707   9.255  0.2543 -0.5881  0.2206
  852MOL0     C14914   3.127   1.723   9.213  0.4001 -0.6173 -0.7561
  852MOL0     C14915   3.103   1.752   9.357  0.0401 -0.4249  1.1003
  852MOL0     O14916   2.993   1.829   9.377 -0.1037  0.7734  0.2112
  852MOL0     C14917   2.937   1.833   9.501 -0.2811 -0.7729  0.6349
  852MOL0     C14918   2.995   1.909   9.604 -0.1162 -0.0053 -0.2457
  852MOL0     C14919   2.940   1.924   9.732 -0.0910  0.7153 -0.1694
  852MOL0     C14920   2.827   1.848   9.748  0.6178 -0.2153 -0.3960
  852MOL0     O14921   2.756   1.837   9.869  0.5789 -0.8137 -0.2522
  852MOL0     C14922   2.791   1.943   9.969 -0.2173  0.0477  0.8346
  852MOL0     C14923   2.715   1.945  10.093 -0.2969 -0.6611  0.0892
  852MOL0     C14924   2.563   1.964  10.086 -0.0857  0.3981 -0.1578
  852MOL0     C14925   2.511   2.098  10.033 -0.1414  0.1754 -0.2645
  852MOL0     C14926   2.366   2.117  10.066  0.1497  0.1050 -0.3600
  852MOL0     C14927   2.329   2.260  10.011  0.1000 -0.8049 -0.1947
  852MOL0     C14928   2.180   2.293  10.020  0.6408 -1.2392  0.2100
  852MOL0     C14929   2.162   2.350  10.157  0.0758  1.0365  0.2760
  852MOL0    Cl14930   2.010   2.446  10.141  0.0309 -0.0340  0.3741
  852MOL0     C14931   2.769   1.771   9.650 -0.7519  0.3681 -0.1223
  852MOL0     C14932   2.820   1.760   9.524 -0.6299  0.2689 -0.0812
  852MOL0     O14933   3.183   1.717   9.449 -0.1281 -0.7950  0.2907
  852MOL0     C14934   3.027   1.729   9.117  0.0402  0.8069  0.2120
  852MOL0     C14935   3.045   1.708   8.985  0.4610 -0.6121  0.2906
  852MOL0     N14936   3.399   2.127   8.492  0.8797 -0.9913 -0.0611
  852MOL0     N14937   3.491   2.216   8.499  0.0608  1.0341  0.3570
  852MOL0     C14938   4.507   2.095   8.076  0.6901 -0.0192  0.3703
  852MOL0     C14939   4.584   1.989   8.102 -0.5803 -0.5377 -0.2909
  852MOL0     C14940   4.981   1.794   8.207  0.3907 -0.9719  0.4982
  852MOL0     C14941   5.059   1.768   8.326  0.9825  0.1292  0.0308
  852MOL0     C14942   5.146   1.659   8.331 -0.3217 -0.3337 -0.2649
  852MOL0     C14943   5.163   1.567   8.218  0.1073 -0.0329  0.1542
  852MOL0     O14944   5.222   1.442   8.215 -0.4849  0.2598  0.6372
  852MOL0     C14945   5.329   1.424   8.304 -1.1643 -0.0967  0.2842
  852MOL0     C14946   5.410   1.297   8.264  0.0462 -0.4363 -1.5252
  852MOL0     C14947   5.510   1.266   8.369  0.0224 -0.4060  0.3694
  852MOL0     C14948   5.584   1.132   8.326 -0.0187 -0.3916 -0.8880
  852MOL0     C14949   5.695   1.095   8.420 -0.3008  0.2114 -0.7854
  852MOL0     C14950   5.787   1.046   8.479 -0.1615  0.3272  0.0050
  852MOL0     C14951   5.081   1.585   8.107 -0.3230  0.1841  0.4079
  852MOL0     C14952   4.997   1.695   8.101  0.0491 -0.9169 -0.3218
  852MOL0     H14953   4.883   2.118   7.975  0.2110  1.9302  1.0828
  852MOL0     H14954   4.747   2.319   7.962  0.3839  0.5755  0.3884
  852MOL0     H14955   4.311   2.431   7.984 -1.2277 -0.5180 -0.5968
  852MOL0     H14956   4.287   2.261   7.981  0.6678  0.6133 -0.6381
  852MOL0     H14957   4.311   2.243   8.214  2.9369 -0.6303 -0.4134
  852MOL0     H14958   4.392   2.405   8.224  0.7533  1.3408 -2.2327
  852MOL0     H14959   4.194   2.515   8.181 -0.3405  0.9988  1.6361
  852MOL0     H14960   4.104   2.359   8.155 -1.2174  0.2082  0.9423
  852MOL0     H14961   4.195   2.337   8.410 -1.3368 -1.3998 -0.4762
  852MOL0     H14962   4.177   2.514   8.378 -0.0803  1.9003 -2.5429
  852MOL0     H14963   3.976   2.437   8.481  0.0313  2.2405 -0.9328
  852MOL0     H14964   3.922   2.462   8.323  2.4480  0.4653 -1.3199
  852MOL0     H14965   4.013   2.200   8.276 -0.2570 -1.9344  0.6486
  852MOL0     H14966   3.989   2.180   8.443 -1.2386 -0.8449 -0.3052
  852MOL0     H14967   3.757   2.305   8.303 -1.7174 -1.2749 -0.6552
  852MOL0     H14968   3.788   2.132   8.284 -0.0583  0.9130 -1.9708
  852MOL0     H14969   3.727   2.309   8.513  1.3657 -0.0563 -2.8321
  852MOL0     H14970   3.789   2.145   8.554  1.4022 -0.0380  0.4238
  852MOL0     H14971   3.655   1.943   8.402 -0.7372 -0.0440  1.5332
  852MOL0     H14972   3.286   1.895   8.375 -0.7132  0.7371 -0.2885
  852MOL0     H14973   3.421   1.809   8.398  0.4734  2.7778 -3.9609
  852MOL0     H14974   3.269   1.932   8.653  0.8111  1.7302 -0.7865
  852MOL0     H14975   3.384   1.806   8.646 -1.7976  0.0834  2.6380
  852MOL0     H14976   3.211   1.654   8.542  0.5587  0.9837 -2.2486
  852MOL0     H14977   3.116   1.801   8.509 -0.1434  2.3490  1.1043
  852MOL0     H14978   3.040   1.648   8.699 -0.2123  0.3446  1.0703
  852MOL0     H14979   3.070   1.818   8.747  2.0149  0.5401 -0.0192
  852MOL0     H14980   3.386   1.690   9.002  1.0193 -2.3278  1.6042
  852MOL0     H14981   3.399   1.612   9.307  1.3537 -1.1723 -1.1618
  852MOL0     H14982   3.468   1.720   9.191  1.8778  0.7470  2.5950
  852MOL0     H14983   3.386   1.795   9.319 -0.7525  0.3969 -0.9885
  852MOL0     H14984   3.083   1.971   9.590  0.6947 -1.5781 -3.0711
  852MOL0     H14985   2.993   1.965   9.817 -0.8293 -1.0367  1.1989
  852MOL0     H14986   2.894   1.936  10.005 -0.2437  1.9351  1.4330
  852MOL0     H14987   2.783   2.039   9.916 -0.4738 -0.8967 -0.9239
  852MOL0     H14988   2.743   1.851  10.143 -1.1973 -2.7841 -3.0726
  852MOL0     H14989   2.765   2.029  10.142 -1.3880  0.0462  0.0281
  852MOL0     H14990   2.533   1.957  10.191 -0.0114 -1.0945 -0.2119
  852MOL0     H14991   2.511   1.884  10.031 -3.0800  2.0481  0.0400
  852MOL0     H14992   2.556   2.182  10.087 -0.7888  0.8662 -0.7815
  852MOL0     H14993   2.529   2.119   9.927 -0.3125 -2.2640 -0.8247
  852MOL0     H14994   2.349   2.087  10.170 -0.2232 -2.3896 -1.0632
  852MOL0     H14995   2.305   2.048  10.006 -1.7009 -0.9904  2.5740
  852MOL0     H14996   2.392   2.327  10.069 -0.3174 -0.8000  0.2591
  852MOL0     H14997   2.355   2.275   9.906  1.7895 -0.2840  0.2780
  852MOL0     H14998   2.119   2.204  10.000 -1.2579  0.3359 -1.4126
  852MOL0     H14999   2.151   2.352   9.933  0.3300 -1.8711 -0.1220
  852MOL0     H15000   2.240   2.413  10.203 -1.5424  2.3604  1.3257
  852MOL0     H15001   2.157   2.271  10.232  2.7410  1.3082  0.8637
  852MOL0     H15002   2.675   1.720   9.670 -1.8696  1.7286 -1.5924
  852MOL0     H15003   2.779   1.690   9.451  0.8624 -0.7200 -0.0096
  852MOL0     H15004   2.924   1.732   9.152  0.0649 -0.9146  0.4870
  852MOL0     H15005   2.966   1.708   8.910  0.8314 -2.3259 -0.1501
  852MOL0     H15006   4.399   2.081   8.082  0.5131  1.8222  2.5749
  852MOL0     H15007   4.568   1.886   8.131  1.4888 -0.7824  0.1299
  852MOL0     H15008   5.057   1.828   8.417 -2.7880  0.5081 -0.1375
  852MOL0     H15009   5.203   1.644   8.422 -1.2191  0.5187  0.4607
  852MOL0     H15010   5.386   1.517   8.305 -0.5247 -0.3726 -2.6483
  852MOL0     H15011   5.282   1.412   8.403 -2.5453 -2.4605 -0.5646
  852MOL0     H15012   5.447   1.302   8.161 -2.4326 -1.8696 -2.5779
  852MOL0     H15013   5.341   1.212   8.274 -0.3601  0.1661  2.6107
  852MOL0     H15014   5.457   1.251   8.463 -0.9531 -0.8224 -0.2304
  852MOL0     H15015   5.577   1.352   8.375 -1.6592  0.8378  3.6546
  852MOL0     H15016   5.627   1.141   8.226  0.5897 -3.9160 -1.0731
  852MOL0     H15017   5.507   1.055   8.338 -1.5835  0.9597 -1.8325
  852MOL0     H15018   5.870   1.011   8.536  0.8246 -1.2966 -2.2660
  852MOL0     H15019   5.070   1.519   8.021 -1.6104 -2.6791  2.6110
  852MOL0     H15020   4.932   1.708   8.015  1.1875  2.4535 -0.8682
  853MOL0     O15021   8.153   3.890  10.795  0.4056 -0.6557  0.1787
  853MOL0     C15022   8.047   3.917  10.852 -0.5050  0.0221  0.5012
  853MOL0     O15023   8.032   3.979  10.965 -0.8436 -0.1827 -0.1090
  853MOL0     C15024   8.144   4.005  11.037  0.2764 -0.3629  0.5172
  853MOL0     C15025   8.235   4.101  10.999  0.2404  0.5966 -0.1542
  853MOL0     C15026   8.341   4.142  11.082  0.9052  0.0135 -0.5679
  853MOL0     C15027   8.352   4.102  11.211  0.0791  0.5355 -0.3654
  853MOL0     O15028   8.461   4.127  11.289  0.1500 -0.5464 -0.3894
  853MOL0     C15029   8.565   4.228  11.256 -0.6354 -0.5298 -0.2660
  853MOL0     C15030   8.631   4.263  11.381 -0.2105  1.5045 -0.2555
  853MOL0     C15031   8.727   4.380  11.371 -0.0404  0.4124 -0.1990
  853MOL0     C15032   8.839   4.389  11.477 -0.1186  1.2711  0.9583
  853MOL0     C15033   8.797   4.352  11.620 -0.2780  0.0171  1.4229
  853MOL0     C15034   8.902   4.379  11.725 -0.4577  0.2265  0.5637
  853MOL0     C15035   8.924   4.524  11.761  0.0166 -0.7628  0.1716
  853MOL0     C15036   9.033   4.542  11.878  0.0066  0.4101 -0.0106
  853MOL0     N15037   9.039   4.686  11.905 -0.3675  1.1366  0.3449
  853MOL0     C15038   9.063   4.787  11.820  0.0818 -0.0834  1.0063
  853MOL0     C15039   9.087   4.896  11.890 -0.7433  0.0787 -1.0554
  853MOL0     C15040   9.136   5.032  11.833  0.4514 -0.1857  0.1476
  853MOL0     C15041   9.022   5.140  11.832 -0.5083 -0.1874 -0.4991
  853MOL0     C15042   9.063   5.264  11.756  0.6946  0.0626  0.1098
  853MOL0     C15043   8.988   5.390  11.790 -0.3076  0.3862 -0.4219
  853MOL0     O15044   8.850   5.377  11.750 -0.0925  0.3845 -0.8526
  853MOL0     C15045   8.823   5.423  11.627  0.4378 -0.5540  0.7159
  853MOL0     C15046   8.809   5.557  11.596  0.4227 -0.3759 -0.0587
  853MOL0     C15047   8.795   5.604  11.461 -0.1622  0.4607  0.7270
  853MOL0     C15048   8.773   5.754  11.438 -0.0739  0.3109  0.6604
  853MOL0     C15049   8.797   5.506  11.357 -0.6749  0.6480 -0.1912
  853MOL0     C15050   8.818   5.534  11.206  0.0034 -0.5163 -0.1376
  853MOL0     O15051   8.833   5.421  11.132 -0.7972 -0.1918 -0.5211
  853MOL0     C15052   8.813   5.439  10.991  0.6489  0.3617  0.3183
  853MOL0     C15053   8.916   5.481  10.903  0.1238  0.0232 -0.0349
  853MOL0     C15054   8.884   5.479  10.766  0.2975  0.2858  0.5242
  853MOL0     C15055   8.760   5.442  10.708 -0.3830 -0.4203  0.6512
  853MOL0     O15056   8.764   5.455  10.568 -0.1431 -0.4829 -0.9604
  853MOL0     C15057   8.660   5.391  10.487  0.1649 -0.9874 -0.2549
  853MOL0     C15058   8.701   5.412  10.344 -0.0626 -0.4912 -0.0443
  853MOL0     C15059   8.625   5.353  10.232 -0.6247  0.5548 -1.0980
  853MOL0     C15060   8.694   5.355  10.096  0.2159 -0.9833 -0.9630
  853MOL0     C15061   8.610   5.312   9.972 -0.4825 -0.4209  0.2232
  853MOL0     C15062   8.691   5.322   9.841 -0.5284 -0.5594 -0.3197
  853MOL0     C15063   8.606   5.263   9.730 -0.0676 -0.2339  1.2006
  853MOL0     C15064   8.664   5.290   9.592 -0.4158 -0.2590 -0.5613
  853MOL0    Cl15065   8.664   5.156   9.481  0.2862  0.2851  0.0587
  853MOL0     C15066   8.669   5.391  10.792  0.4294  0.0908  0.3069
  853MOL0     C15067   8.694   5.396  10.935  0.1977  1.0854 -0.6322
  853MOL0     O15068   8.793   5.650  11.162 -0.5037  0.5313  0.1705
  853MOL0     C15069   8.802   5.368  11.399  0.5765 -0.6868  0.8258
  853MOL0     C15070   8.813   5.329  11.526 -0.7342  0.5504  0.2099
  853MOL0     N15071   9.108   4.858  12.021  0.9403 -0.2759  0.1205
  853MOL0     N15072   9.078   4.737  12.026  0.4788 -0.4703  0.3644
  853MOL0     C15073   8.271   3.993  11.243 -0.8039 -0.5173  0.1665
  853MOL0     C15074   8.171   3.946  11.155 -0.1025  0.2410  0.2840
  853MOL0     C15075   7.927   3.862  10.782  0.7037 -0.2653 -0.3840
  853MOL0     C15076   7.939   3.797  10.652  0.3459  0.6869  0.8894
  853MOL0     C15077   7.830   3.755  10.570 -0.1599 -0.2182  0.0826
  853MOL0     C15078   7.699   3.775  10.617 -0.0429 -0.8078 -0.6471
  853MOL0     O15079   7.601   3.731  10.539  0.3510 -0.4458 -0.2052
  853MOL0     C15080   7.478   3.802  10.523  0.0752 -0.7348 -0.9270
  853MOL0     C15081   7.431   3.768  10.391  0.1924  0.1353  0.2792
  853MOL0     C15082   7.515   3.848  10.290 -0.8657  1.4085 -0.9325
  853MOL0     C15083   7.469   3.813  10.152 -0.3361  0.0055  0.2920
  853MOL0     C15084   7.547   3.866  10.041 -0.0898 -0.6682 -1.1673
  853MOL0     C15085   7.619   3.937   9.969  0.6223 -0.4433  0.0168
  853MOL0     C15086   7.683   3.839  10.745 -0.0431 -0.8743  0.3778
  853MOL0     C15087   7.795   3.872  10.829 -0.4307 -0.2920 -0.3213
  853MOL0     H15088   8.220   4.156  10.907  1.2666  1.5518  0.2218
  853MOL0     H15089   8.409   4.220  11.046  1.0854  1.2631  2.2374
  853MOL0     H15090   8.643   4.194  11.187  0.1060  0.1852  0.2124
  853MOL0     H15091   8.513   4.315  11.214 -2.0316 -0.7702  0.8787
  853MOL0     H15092   8.559   4.271  11.463  0.4753  2.4750  0.2768
  853MOL0     H15093   8.692   4.179  11.415 -0.9042  2.1540  2.9985
  853MOL0     H15094   8.777   4.368  11.274 -2.9340 -2.1412 -1.5634
  853MOL0     H15095   8.668   4.472  11.376  0.5285  0.6989  2.4671
  853MOL0     H15096   8.918   4.320  11.446 -0.7316 -0.7396  3.4948
  853MOL0     H15097   8.877   4.491  11.467 -0.5403  1.6487  2.8057
  853MOL0     H15098   8.713   4.416  11.646  1.6603  3.6202 -0.3455
  853MOL0     H15099   8.765   4.247  11.622  0.3003 -0.2839 -1.0357
  853MOL0     H15100   8.881   4.316  11.813 -0.2277  0.1244  0.5480
  853MOL0     H15101   8.993   4.336  11.681 -0.0772 -1.7441  3.0061
  853MOL0     H15102   8.973   4.580  11.680  1.8691 -0.1638  1.6401
  853MOL0     H15103   8.832   4.572  11.794  2.1591  1.7193  3.1121
  853MOL0     H15104   9.132   4.509  11.845 -0.5897 -0.0943 -1.3480
  853MOL0     H15105   8.988   4.485  11.960 -0.8005  0.9337 -0.0876
  853MOL0     H15106   9.046   4.782  11.713 -0.3152  0.1247  1.0582
  853MOL0     H15107   9.223   5.070  11.887  0.2321  2.1963 -1.0750
  853MOL0     H15108   9.163   5.015  11.729 -1.8428  0.7782 -0.6600
  853MOL0     H15109   9.003   5.161  11.937  0.7859 -0.0918 -0.2673
  853MOL0     H15110   8.928   5.104  11.789  0.1595  0.6532 -2.8727
  853MOL0     H15111   9.058   5.246  11.648  2.3805  4.2730 -0.8754
  853MOL0     H15112   9.168   5.283  11.779  1.5702 -4.3938  0.6781
  853MOL0     H15113   9.032   5.472  11.732 -2.0694 -0.3354 -2.9859
  853MOL0     H15114   8.992   5.423  11.894 -0.0025 -1.0964  0.0570
  853MOL0     H15115   8.819   5.621  11.684  2.2618 -2.0955  1.0838
  853MOL0     H15116   8.749   5.808  11.530 -0.4173  0.6133  0.4008
  853MOL0     H15117   8.854   5.802  11.381  1.0241 -0.6121  1.4097
  853MOL0     H15118   8.690   5.771  11.368  1.5179 -0.1024 -1.4412
  853MOL0     H15119   9.009   5.514  10.948 -0.7260  2.2570  0.1753
  853MOL0     H15120   8.962   5.514  10.698  0.8826  1.6823  1.8430
  853MOL0     H15121   8.659   5.284  10.512  0.5618 -0.8192  0.5021
  853MOL0     H15122   8.560   5.433  10.505 -0.2234 -2.0373  0.1661
  853MOL0     H15123   8.702   5.521  10.328 -2.3345 -0.2610  1.0285
  853MOL0     H15124   8.807   5.394  10.325 -0.0060  1.6474 -2.3209
  853MOL0     H15125   8.537   5.418  10.230 -0.0955  1.2724 -1.4565
  853MOL0     H15126   8.582   5.254  10.251  0.3383  0.3942  0.4100
  853MOL0     H15127   8.722   5.460  10.083 -1.8923 -0.0059  1.6139
  853MOL0     H15128   8.780   5.288  10.097  0.8984 -0.1988 -2.5158
  853MOL0     H15129   8.523   5.376   9.952 -0.6151 -0.5235  0.4736
  853MOL0     H15130   8.582   5.206   9.980 -2.3332 -0.3494 -3.1803
  853MOL0     H15131   8.715   5.427   9.821  2.8025 -1.6376 -2.7472
  853MOL0     H15132   8.777   5.256   9.853  0.2000  0.7014  2.0979
  853MOL0     H15133   8.504   5.301   9.721  0.2965  0.3502 -1.2341
  853MOL0     H15134   8.605   5.154   9.740 -0.0687 -0.4916 -1.0082
  853MOL0     H15135   8.768   5.323   9.597 -0.1495 -1.1569 -0.0251
  853MOL0     H15136   8.596   5.366   9.550  0.2635  1.3752  1.1701
  853MOL0     H15137   8.570   5.359  10.761  0.3444 -0.8634  1.4773
  853MOL0     H15138   8.621   5.353  11.003  1.4050 -2.1707 -1.2068
  853MOL0     H15139   8.801   5.287  11.327  2.5594  1.2874 -1.5986
  853MOL0     H15140   8.825   5.226  11.558 -2.6880  0.0346 -0.6133
  853MOL0     H15141   8.282   3.930  11.331  0.1437 -0.9336 -0.2336
  853MOL0     H15142   8.108   3.862  11.180  1.3931 -0.8652  0.4867
  853MOL0     H15143   8.034   3.769  10.609  0.4860 -0.4803  1.9200
  853MOL0     H15144   7.851   3.703  10.477  0.2531  1.4507 -0.8137
  853MOL0     H15145   7.411   3.790  10.608 -1.7293  0.9298 -2.0148
  853MOL0     H15146   7.492   3.911  10.518 -2.4237 -0.3365 -0.5051
  853MOL0     H15147   7.322   3.771  10.382  0.0348 -2.1983  0.8350
  853MOL0     H15148   7.450   3.661  10.380 -2.3961 -0.2797 -0.9103
  853MOL0     H15149   7.619   3.820  10.305 -0.8112  1.9830 -0.2139
  853MOL0     H15150   7.498   3.954  10.309 -0.4956  1.1096  1.3749
  853MOL0     H15151   7.370   3.856  10.138  0.3949  1.6065 -0.1932
  853MOL0     H15152   7.465   3.704  10.144  0.2086  0.0680 -1.1482
  853MOL0     H15153   7.692   4.004   9.929  1.2938 -1.1705  0.0262
  853MOL0     H15154   7.584   3.856  10.784  0.2617 -0.6481  1.0667
  853MOL0     H15155   7.790   3.927  10.922  0.3622 -0.6020 -0.0868
  854MOL0     O15156   9.115   0.136   9.706 -0.2020  0.7395 -0.2701
  854MOL0     C15157   9.224   0.176   9.738  0.1593 -0.5259 -0.0984
  854MOL0     O15158   9.264   0.312   9.768 -0.2702  0.0575 -0.1539
  854MOL0     C15159   9.163   0.406   9.772 -0.6456 -0.0435 -0.6101
  854MOL0     C15160   9.164   0.492   9.869 -0.0109  0.9238 -0.6286
  854MOL0     C15161   9.067   0.594   9.883 -0.8894 -0.9246 -0.3570
  854MOL0     C15162   8.966   0.617   9.784 -0.0885 -0.2165 -0.1502
  854MOL0     O15163   8.891   0.729   9.796 -0.0771 -0.3908 -0.0048
  854MOL0     C15164   8.750   0.737   9.755 -0.5965 -0.1226 -0.0560
  854MOL0     C15165   8.654   0.703   9.865  0.5912 -0.2601  0.2537
  854MOL0     C15166   8.697   0.751  10.006 -0.2053 -0.3266 -0.2046
  854MOL0     C15167   8.690   0.906  10.016 -0.6478 -0.5700 -0.5320
  854MOL0     C15168   8.691   0.983  10.143  1.5644 -0.2156  1.1370
  854MOL0     C15169   8.821   0.960  10.223  0.1988 -0.5241 -0.3321
  854MOL0     C15170   8.825   1.081  10.325 -0.1261 -0.8249  0.6310
  854MOL0     C15171   8.983   1.086  10.369  0.0718  0.2401 -0.9129
  854MOL0     N15172   9.027   0.948  10.420 -0.7007 -0.3544  0.0374
  854MOL0     C15173   8.999   0.891  10.535 -0.4672 -0.1088  0.7497
  854MOL0     C15174   9.059   0.765  10.520 -0.1208  0.4830 -0.9104
  854MOL0     C15175   9.068   0.673  10.636 -0.0116 -0.5002 -1.4762
  854MOL0     C15176   9.109   0.526  10.596  0.5192 -0.6969  0.3489
  854MOL0     C15177   9.080   0.413  10.691  0.4295 -0.0898  0.2863
  854MOL0     C15178   9.146   0.418  10.830  0.8091 -0.6564  0.6842
  854MOL0     O15179   9.285   0.378  10.827 -0.2316  0.4033  0.4386
  854MOL0     C15180   9.380   0.438  10.907  0.6077 -0.3931 -0.1786
  854MOL0     C15181   9.363   0.566  10.968  0.0215  0.5487 -0.3612
  854MOL0     C15182   9.469   0.630  11.041  0.0824  1.8551  0.4048
  854MOL0     C15183   9.441   0.767  11.096  0.0911 -0.3103  0.7242
  854MOL0     C15184   9.590   0.554  11.058  0.2307  0.0772  0.4423
  854MOL0     C15185   9.712   0.614  11.129  0.0938 -0.2247 -0.2059
  854MOL0     O15186   9.816   0.525  11.137 -0.3271 -0.4793 -0.4473
  854MOL0     C15187   9.928   0.556  11.210 -0.7919  0.6333  0.1897
  854MOL0     C15188   9.983   0.459  11.291 -0.5040  0.4781  0.2472
  854MOL0     C15189  10.102   0.477  11.357  0.4093 -0.4265 -0.8192
  854MOL0     C15190  10.173   0.599  11.353  0.0059  0.7088 -1.1492
  854MOL0     O15191  10.282   0.616  11.434  0.7052  0.1832 -0.6192
  854MOL0     C15192  10.319   0.748  11.470 -0.0358  0.0350 -0.1137
  854MOL0     C15193  10.432   0.744  11.578  0.1620 -0.1823  0.2011
  854MOL0     C15194  10.495   0.881  11.597  0.2810  0.7259 -0.1373
  854MOL0     C15195  10.417   0.955  11.694 -0.4977  0.0850  0.2485
  854MOL0     C15196  10.515   1.071  11.755  0.8625  0.2739  0.4552
  854MOL0     C15197  10.439   1.189  11.815  0.5766  0.1965 -0.1146
  854MOL0     C15198  10.526   1.318  11.804  0.1873  0.3420 -0.2691
  854MOL0     C15199  10.514   1.381  11.660 -0.1226  1.0513 -0.2751
  854MOL0    Cl15200  10.614   1.525  11.635 -0.4972 -0.3729  0.6104
  854MOL0     C15201  10.120   0.699  11.267  0.2824 -0.5662 -0.2089
  854MOL0     C15202   9.996   0.675  11.197 -0.2754  0.4053  0.2134
  854MOL0     O15203   9.710   0.725  11.184  0.6211 -0.6846 -0.1385
  854MOL0     C15204   9.594   0.425  11.001 -0.3247 -0.4144 -0.4229
  854MOL0     C15205   9.492   0.373  10.923  0.1659 -0.0627  0.0746
  854MOL0     N15206   9.120   0.754  10.399 -0.0861 -0.0973  0.2975
  854MOL0     N15207   9.097   0.866  10.339  0.2859 -0.0896 -0.5347
  854MOL0     C15208   8.965   0.525   9.677  0.0295 -0.1567  0.5659
  854MOL0     C15209   9.057   0.419   9.674  0.5223  0.3140 -0.6642
  854MOL0     C15210   9.326   0.079   9.728 -0.5615 -0.0282 -0.2193
  854MOL0     C15211   9.439   0.094   9.800 -1.0917 -1.0987  0.0161
  854MOL0     C15212   9.548   0.007   9.810  0.0517  0.6987 -0.1296
  854MOL0     C15213   9.539  -0.104   9.720 -0.0117  0.6511  0.1486
  854MOL0     O15214   9.641  -0.196   9.715 -0.6678  0.6186  0.3163
  854MOL0     C15215   9.635  -0.324   9.774  0.2261  0.5307 -0.8768
  854MOL0     C15216   9.694  -0.435   9.686 -0.1836  0.0334  0.7593
  854MOL0     C15217   9.613  -0.468   9.550 -0.0292 -0.1270 -0.3468
  854MOL0     C15218   9.709  -0.509   9.439 -0.8493  0.4905 -0.3714
  854MOL0     C15219   9.635  -0.545   9.325 -0.4223  0.3221  0.1414
  854MOL0     C15220   9.570  -0.566   9.222  0.6115  1.1651  0.4527
  854MOL0     C15221   9.430  -0.120   9.635 -0.7206  0.4284 -0.4833
  854MOL0     C15222   9.320  -0.035   9.640  0.4419 -1.5109  0.6245
  854MOL0     H15223   9.235   0.490   9.951 -2.3197  3.8141  1.6977
  854MOL0     H15224   9.077   0.652   9.974  1.4260 -2.6571  0.5862
  854MOL0     H15225   8.744   0.844   9.732  0.2864 -0.1945 -0.6875
  854MOL0     H15226   8.731   0.687   9.660  1.8183 -1.0472 -0.1314
  854MOL0     H15227   8.553   0.734   9.838  0.2196  0.2783  2.1621
  854MOL0     H15228   8.644   0.594   9.868 -1.4820 -0.0694  1.7826
  854MOL0     H15229   8.638   0.701  10.084  2.3044  0.1190  2.1249
  854MOL0     H15230   8.796   0.712  10.033 -0.2084  1.0771  2.1360
  854MOL0     H15231   8.774   0.951   9.963  0.2495 -0.4233  0.9447
  854MOL0     H15232   8.598   0.932   9.962 -1.5973  0.2828  1.4008
  854MOL0     H15233   8.671   1.089  10.124  3.8618  1.3465  5.7525
  854MOL0     H15234   8.613   0.940  10.206  1.8372 -2.0016  0.3156
  854MOL0     H15235   8.808   0.862  10.271  2.5051 -0.8173 -0.2184
  854MOL0     H15236   8.911   0.969  10.163  0.8299 -0.1916  0.6388
  854MOL0     H15237   8.786   1.169  10.272  1.3498 -1.7997 -2.3044
  854MOL0     H15238   8.760   1.049  10.407 -2.1346 -3.9919 -1.9082
  854MOL0     H15239   8.992   1.149  10.458  2.3794  1.0696 -1.6494
  854MOL0     H15240   9.049   1.125  10.291 -0.0426  2.0306 -0.1602
  854MOL0     H15241   8.949   0.935  10.620 -1.6978  1.7818 -0.8597
  854MOL0     H15242   9.131   0.707  10.718 -1.3948 -2.1480  0.3528
  854MOL0     H15243   8.967   0.685  10.678  0.9038  1.0838  0.4650
  854MOL0     H15244   9.215   0.517  10.568  0.3379 -1.2548 -0.1838
  854MOL0     H15245   9.059   0.510  10.500  0.9510  3.5800 -0.8200
  854MOL0     H15246   9.114   0.319  10.645  3.5407  0.2141  1.7375
  854MOL0     H15247   8.971   0.410  10.696 -0.3262 -3.2793 -6.3687
  854MOL0     H15248   9.088   0.345  10.887 -1.2829  0.1455 -0.3310
  854MOL0     H15249   9.121   0.520  10.860 -0.6942  0.3378 -3.3515
  854MOL0     H15250   9.265   0.612  10.976 -0.0156  0.2958  0.8670
  854MOL0     H15251   9.475   0.774  11.199  4.0932  1.5158 -0.5290
  854MOL0     H15252   9.505   0.835  11.038 -1.8439 -0.5181 -1.8655
  854MOL0     H15253   9.336   0.797  11.093  0.1038 -0.2768  0.4939
  854MOL0     H15254   9.948   0.356  11.290  0.8945 -0.0692  2.2033
  854MOL0     H15255  10.139   0.399  11.422  2.1949  0.8249 -0.2554
  854MOL0     H15256  10.345   0.803  11.379 -0.7990  0.7538  0.0935
  854MOL0     H15257  10.241   0.805  11.520  0.1414 -2.8256  3.8656
  854MOL0     H15258  10.394   0.706  11.673  2.1193  0.0661  1.1395
  854MOL0     H15259  10.494   0.662  11.540 -2.2569 -1.6251 -0.8442
  854MOL0     H15260  10.511   0.943  11.509 -1.1647  1.1670 -0.1179
  854MOL0     H15261  10.590   0.859  11.647  0.6446 -0.8429 -1.4253
  854MOL0     H15262  10.337   1.012  11.644  0.1727  0.8644  0.0348
  854MOL0     H15263  10.382   0.904  11.784 -0.1093  0.8512  0.8439
  854MOL0     H15264  10.584   1.107  11.677 -0.5306 -1.3190 -1.6145
  854MOL0     H15265  10.576   1.026  11.833  0.1660 -3.0646 -0.7776
  854MOL0     H15266  10.336   1.196  11.780  0.3659  1.7628  0.6954
  854MOL0     H15267  10.423   1.151  11.916  4.4534 -1.7706 -0.0400
  854MOL0     H15268  10.631   1.295  11.825  0.0522  1.0393  1.3249
  854MOL0     H15269  10.496   1.387  11.884  0.9666  0.0731  0.2681
  854MOL0     H15270  10.411   1.415  11.643  0.4707  2.3238 -1.5905
  854MOL0     H15271  10.544   1.309  11.584 -0.8313  0.7818 -0.3030
  854MOL0     H15272  10.170   0.795  11.255 -0.8117  0.3963  2.3492
  854MOL0     H15273   9.968   0.760  11.135 -0.1420 -0.4530 -1.0818
  854MOL0     H15274   9.678   0.357  11.010  0.7198  0.3483 -3.2312
  854MOL0     H15275   9.505   0.276  10.876 -2.6809 -0.6282  0.2310
  854MOL0     H15276   8.894   0.536   9.596 -1.1032 -1.2620  1.3802
  854MOL0     H15277   9.031   0.339   9.606 -1.1141 -0.0658  0.3537
  854MOL0     H15278   9.439   0.180   9.867 -1.9355 -0.1227 -1.2077
  854MOL0     H15279   9.633   0.030   9.873  0.4176  1.7786 -0.9756
  854MOL0     H15280   9.694  -0.319   9.867 -1.0809 -0.3816  0.0374
  854MOL0     H15281   9.533  -0.353   9.800  0.5060 -0.1974 -0.5614
  854MOL0     H15282   9.704  -0.522   9.751  0.1785 -1.8098 -1.6097
  854MOL0     H15283   9.796  -0.402   9.664  0.9182 -3.1877  0.5950
  854MOL0     H15284   9.543  -0.390   9.520 -1.0289  0.2182  2.5331
  854MOL0     H15285   9.549  -0.552   9.577 -1.1694  1.2851  1.6161
  854MOL0     H15286   9.755  -0.601   9.475 -0.2832  0.5875 -0.8343
  854MOL0     H15287   9.776  -0.425   9.418 -1.1750  0.1675 -3.0616
  854MOL0     H15288   9.522  -0.593   9.130 -0.5558 -0.6154  1.5165
  854MOL0     H15289   9.415  -0.203   9.566 -1.8714  1.7624 -1.8979
  854MOL0     H15290   9.228  -0.050   9.584  0.8341  4.2308 -2.3058
  855MOL0     O15291   7.284   1.456   8.321 -0.4399  0.6790  1.1572
  855MOL0     C15292   7.357   1.539   8.377 -0.3762  0.0897 -0.5342
  855MOL0     O15293   7.326   1.650   8.441  0.0443  0.6035  0.4872
  855MOL0     C15294   7.192   1.668   8.473 -0.7899  0.3309 -0.1762
  855MOL0     C15295   7.153   1.665   8.604  0.5921 -0.8372 -0.2588
  855MOL0     C15296   7.019   1.693   8.627 -0.4563 -0.9856 -0.2290
  855MOL0     C15297   6.933   1.727   8.531 -0.1217 -0.5389 -0.1316
  855MOL0     O15298   6.804   1.767   8.565  0.2014  0.2436 -0.4704
  855MOL0     C15299   6.708   1.659   8.582 -0.1184  0.2975 -0.7406
  855MOL0     C15300   6.569   1.702   8.628 -0.0617 -0.5793  0.1607
  855MOL0     C15301   6.477   1.585   8.620  0.3585  1.0520 -0.3850
  855MOL0     C15302   6.364   1.597   8.523 -0.2408  0.6704  0.1332
  855MOL0     C15303   6.426   1.595   8.380 -0.7537 -0.1866  0.5317
  855MOL0     C15304   6.310   1.558   8.298 -0.0910  1.2284 -0.4379
  855MOL0     C15305   6.354   1.550   8.148 -0.0322  0.8720 -0.4754
  855MOL0     C15306   6.435   1.669   8.092 -0.1198  0.3623  0.3382
  855MOL0     N15307   6.414   1.674   7.951 -0.3258  0.3452 -0.5861
  855MOL0     C15308   6.501   1.655   7.846 -0.4262 -0.7391 -0.4872
  855MOL0     C15309   6.428   1.697   7.733 -0.0035 -0.1439  0.6015
  855MOL0     C15310   6.473   1.709   7.588 -0.0510 -0.5510 -0.0518
  855MOL0     C15311   6.378   1.638   7.485  1.1779  0.5915 -0.8536
  855MOL0     C15312   6.407   1.490   7.472 -0.0841 -0.0275  0.1391
  855MOL0     C15313   6.309   1.421   7.374  0.2183  0.2008  0.4562
  855MOL0     O15314   6.333   1.287   7.340 -0.0774  0.0892 -0.1458
  855MOL0     C15315   6.261   1.223   7.239 -0.1122  0.2744  0.6697
  855MOL0     C15316   6.271   1.083   7.228  0.1200 -0.4827  0.0272
  855MOL0     C15317   6.197   1.014   7.126 -0.8880  0.1847  0.4532
  855MOL0     C15318   6.214   0.864   7.114 -0.4132 -0.4932  0.2247
  855MOL0     C15319   6.097   1.083   7.054 -0.3581  0.5641 -0.5423
  855MOL0     C15320   5.996   1.026   6.964  0.3254 -0.8421  0.4094
  855MOL0     O15321   6.002   1.069   6.829 -0.5483  0.1838 -0.3409
  855MOL0     C15322   5.914   1.044   6.731  0.2400  0.7244  0.2747
  855MOL0     C15323   5.842   0.926   6.710 -1.3082  0.0046  0.0150
  855MOL0     C15324   5.746   0.917   6.615  0.7226  0.2068 -0.0553
  855MOL0     C15325   5.707   1.022   6.541 -0.3595 -0.1099  0.8040
  855MOL0     O15326   5.605   0.995   6.458  0.3213  0.3293 -0.2739
  855MOL0     C15327   5.580   1.094   6.361 -0.1015 -0.2812  1.1015
  855MOL0     C15328   5.457   1.074   6.283  0.7170 -0.3569  0.0375
  855MOL0     C15329   5.332   1.056   6.379 -0.2427  0.7085  1.5960
  855MOL0     C15330   5.205   1.007   6.303 -0.2417 -0.1334 -0.2858
  855MOL0     C15331   5.085   0.996   6.401 -0.3082  0.6923 -0.9407
  855MOL0     C15332   4.951   0.945   6.343 -0.0858  0.1012 -0.7938
  855MOL0     C15333   4.916   1.010   6.208 -0.0563  0.4704 -1.2717
  855MOL0     C15334   4.898   1.159   6.220  0.7988 -0.5473  0.5260
  855MOL0    Cl15335   4.761   1.202   6.336 -0.0511  0.0564 -0.1778
  855MOL0     C15336   5.772   1.146   6.558 -0.0346  0.5697  0.1010
  855MOL0     C15337   5.879   1.158   6.655  0.2057 -0.3166  0.5553
  855MOL0     O15338   5.912   0.944   7.002 -0.3266 -0.3751 -0.4209
  855MOL0     C15339   6.090   1.221   7.072 -0.4518 -0.4252 -1.1344
  855MOL0     C15340   6.174   1.290   7.160  0.0607 -0.0837  0.6343
  855MOL0     N15341   6.301   1.730   7.775 -0.6218 -0.0966 -0.2608
  855MOL0     N15342   6.295   1.731   7.902 -0.7745  0.0181 -0.0413
  855MOL0     C15343   6.981   1.736   8.403  0.1667 -0.9585  0.7030
  855MOL0     C15344   7.111   1.705   8.372 -0.4994  0.1560  0.0209
  855MOL0     C15345   7.501   1.490   8.409  0.6195 -0.4393  0.4854
  855MOL0     C15346   7.562   1.417   8.312 -0.6062  1.3431  0.8801
  855MOL0     C15347   7.696   1.368   8.344  0.4667 -0.1994 -0.7120
  855MOL0     C15348   7.756   1.401   8.464  0.9536 -0.3190 -0.0438
  855MOL0     O15349   7.878   1.344   8.474 -0.9699 -0.0822 -0.6071
  855MOL0     C15350   7.952   1.360   8.597 -0.1415  0.3298 -1.1646
  855MOL0     C15351   8.099   1.313   8.584 -0.8265 -0.4111 -0.1172
  855MOL0     C15352   8.177   1.322   8.720  0.6065 -0.0857  0.0028
  855MOL0     C15353   8.210   1.465   8.762  0.0463 -0.0704 -0.1124
  855MOL0     C15354   8.344   1.509   8.707  0.4721  0.8047 -0.8029
  855MOL0     C15355   8.454   1.532   8.668  0.1419 -0.8156 -0.4130
  855MOL0     C15356   7.690   1.474   8.563 -0.0721 -0.4298 -0.4972
  855MOL0     C15357   7.566   1.526   8.526  0.0415  0.2921 -0.4248
  855MOL0     H15358   7.220   1.639   8.686 -0.0467 -0.2304  0.4669
  855MOL0     H15359   6.992   1.672   8.730 -0.5244 -1.9601 -0.4344
  855MOL0     H15360   6.701   1.604   8.487  3.9111 -2.4642  0.2859
  855MOL0     H15361   6.763   1.587   8.644 -0.9867  0.2095 -0.0605
  855MOL0     H15362   6.564   1.727   8.735 -2.3059 -2.0103  0.4584
  855MOL0     H15363   6.542   1.789   8.567  0.7359  1.3911  2.4128
  855MOL0     H15364   6.532   1.492   8.604 -1.9053 -0.2022 -1.4057
  855MOL0     H15365   6.434   1.557   8.717 -0.8086 -3.4504 -1.9269
  855MOL0     H15366   6.294   1.514   8.534  1.7995 -1.0690  0.6731
  855MOL0     H15367   6.323   1.698   8.532  1.4205  1.6062 -1.9166
  855MOL0     H15368   6.473   1.685   8.339 -1.6126 -0.3087 -0.7889
  855MOL0     H15369   6.499   1.516   8.364  0.0425  0.5798  0.3035
  855MOL0     H15370   6.265   1.465   8.334  1.9553  1.0627  1.9331
  855MOL0     H15371   6.229   1.632   8.297  0.4072  1.8275 -2.7583
  855MOL0     H15372   6.393   1.448   8.135 -1.7272  0.4598 -2.9716
  855MOL0     H15373   6.255   1.549   8.103  0.6685  0.9155 -2.0762
  855MOL0     H15374   6.541   1.654   8.114 -0.1755 -0.0154  0.3366
  855MOL0     H15375   6.397   1.767   8.123  4.3483  2.6033 -0.3375
  855MOL0     H15376   6.601   1.614   7.847  0.0469  0.3829  0.0512
  855MOL0     H15377   6.476   1.817   7.573 -2.2239 -0.3324  0.6649
  855MOL0     H15378   6.575   1.672   7.578  1.0377  2.7282 -3.1016
  855MOL0     H15379   6.402   1.665   7.382 -0.2346  0.6486 -1.1833
  855MOL0     H15380   6.277   1.661   7.518  2.0982 -1.0138  3.8522
  855MOL0     H15381   6.396   1.439   7.569 -1.5856 -1.2295 -0.6175
  855MOL0     H15382   6.509   1.468   7.439  0.1797 -1.7784  1.8760
  855MOL0     H15383   6.305   1.471   7.277 -0.4775 -1.7861 -0.5866
  855MOL0     H15384   6.206   1.442   7.404  0.2381  2.6079 -0.9028
  855MOL0     H15385   6.348   1.030   7.283 -0.0728  0.4930  1.3062
  855MOL0     H15386   6.257   0.828   7.208  0.2769  0.9277  0.4773
  855MOL0     H15387   6.121   0.807   7.098  0.2782 -1.4517 -0.4816
  855MOL0     H15388   6.276   0.829   7.031 -0.5364 -2.0472  0.7451
  855MOL0     H15389   5.866   0.843   6.776  0.0971  1.1275  0.9698
  855MOL0     H15390   5.698   0.820   6.610  0.9400  0.1461 -1.6043
  855MOL0     H15391   5.563   1.187   6.417 -0.7645  2.1428 -2.7724
  855MOL0     H15392   5.665   1.105   6.293 -0.9975 -3.8739 -0.8359
  855MOL0     H15393   5.440   1.157   6.213 -0.5063  0.0416  0.7785
  855MOL0     H15394   5.462   0.989   6.215 -0.8159  1.4453 -2.5081
  855MOL0     H15395   5.303   1.143   6.438 -1.5138  0.8267  0.8332
  855MOL0     H15396   5.359   0.978   6.451 -2.4763 -1.3968  0.3120
  855MOL0     H15397   5.191   1.085   6.228 -0.6941 -0.0028 -0.0682
  855MOL0     H15398   5.224   0.912   6.252  1.9583 -1.8805  3.3386
  855MOL0     H15399   5.073   1.095   6.447 -0.8059  0.5735 -0.8193
  855MOL0     H15400   5.115   0.925   6.478 -1.7589 -1.8934 -2.6051
  855MOL0     H15401   4.959   0.835   6.344 -0.2361  0.0928 -0.0720
  855MOL0     H15402   4.866   0.959   6.411 -0.9533 -1.4144 -1.5018
  855MOL0     H15403   4.830   0.952   6.174  0.6514 -0.4092 -1.6132
  855MOL0     H15404   4.997   0.983   6.139  0.6476 -2.8446  0.6016
  855MOL0     H15405   4.879   1.194   6.118  0.1999  1.0686  1.1644
  855MOL0     H15406   4.985   1.214   6.255  0.5824 -0.5326  1.0612
  855MOL0     H15407   5.752   1.232   6.496  1.8048 -0.0890 -1.5008
  855MOL0     H15408   5.920   1.257   6.673 -0.0517 -0.6627  3.6373
  855MOL0     H15409   6.022   1.275   7.007 -0.9603 -0.5124 -0.6791
  855MOL0     H15410   6.155   1.397   7.167 -2.3849 -0.4180  0.2092
  855MOL0     H15411   6.908   1.774   8.332 -1.6550 -3.1463  1.3120
  855MOL0     H15412   7.153   1.723   8.273 -1.3516 -1.2728 -0.6354
  855MOL0     H15413   7.509   1.384   8.223  1.7806 -2.7554  0.7258
  855MOL0     H15414   7.750   1.301   8.277  0.0655 -1.9447  0.6371
  855MOL0     H15415   7.949   1.467   8.622 -0.2508  1.0830 -4.1204
  855MOL0     H15416   7.901   1.298   8.672 -0.6666  1.5049 -0.5116
  855MOL0     H15417   8.146   1.368   8.502 -0.0092 -0.5181  0.2669
  855MOL0     H15418   8.103   1.205   8.567  1.6817 -0.5873  1.1414
  855MOL0     H15419   8.272   1.277   8.691 -0.4285 -0.5313 -3.0979
  855MOL0     H15420   8.123   1.271   8.800  0.4997 -0.1972 -0.1410
  855MOL0     H15421   8.221   1.466   8.871  0.4826 -0.1864 -0.1533
  855MOL0     H15422   8.138   1.541   8.732 -1.2402 -0.9871  0.5117
  855MOL0     H15423   8.557   1.541   8.640  2.0708 -0.3323  5.4539
  855MOL0     H15424   7.731   1.487   8.663  0.4082  0.0748 -0.7487
  855MOL0     H15425   7.514   1.577   8.607  0.6436  0.5720 -0.2089
  856MOL0     O15426   4.153   8.220   6.250 -0.0458 -0.0200  0.8462
  856MOL0     C15427   4.140   8.331   6.297  0.1897  0.7039 -0.1882
  856MOL0     O15428   4.192   8.447   6.244  0.6319  0.6047 -0.1235
  856MOL0     C15429   4.298   8.447   6.158  0.8455  0.6289  0.0156
  856MOL0     C15430   4.384   8.344   6.128 -0.0587 -0.2003 -0.3146
  856MOL0     C15431   4.477   8.363   6.023  0.4096  0.0094  1.5958
  856MOL0     C15432   4.488   8.483   5.956 -0.1743 -0.3970  0.1594
  856MOL0     O15433   4.585   8.487   5.863 -0.2609 -0.7985  0.5655
  856MOL0     C15434   4.548   8.547   5.738 -0.3857  0.8052  0.3961
  856MOL0     C15435   4.606   8.448   5.635  1.0121  0.2520  0.5347
  856MOL0     C15436   4.554   8.474   5.494 -0.3551  0.4426  0.5480
  856MOL0     C15437   4.542   8.338   5.411 -0.9235  0.4235 -0.8283
  856MOL0     C15438   4.451   8.347   5.291  0.4280  0.1816 -0.7668
  856MOL0     C15439   4.297   8.357   5.327 -0.5296  0.4087  0.1811
  856MOL0     C15440   4.256   8.244   5.418  1.0512  0.0857  0.4797
  856MOL0     C15441   4.101   8.234   5.413  0.5065  0.7679 -0.7187
  856MOL0     N15442   4.039   8.106   5.467 -0.1614  0.7149 -0.4546
  856MOL0     C15443   4.029   8.061   5.595  0.0178  0.0768  0.0254
  856MOL0     C15444   3.948   7.955   5.587 -0.0966  0.2740  0.6568
  856MOL0     C15445   3.923   7.870   5.717 -0.2967  0.1563  2.1455
  856MOL0     C15446   3.960   7.726   5.701  0.2039  0.1239  1.0625
  856MOL0     C15447   3.921   7.661   5.842 -1.0090 -1.1092 -0.3204
  856MOL0     C15448   3.957   7.517   5.852  0.0227 -0.6457  0.7019
  856MOL0     O15449   3.943   7.462   5.727 -0.1024 -0.4104 -0.0520
  856MOL0     C15450   4.023   7.355   5.696 -0.6079 -0.5439  0.3619
  856MOL0     C15451   4.047   7.341   5.560  0.9937 -0.1415  0.0648
  856MOL0     C15452   4.123   7.229   5.517 -0.2924  0.5941 -1.4599
  856MOL0     C15453   4.123   7.210   5.363 -0.9657  1.0039  0.3538
  856MOL0     C15454   4.182   7.144   5.616  0.5249 -0.1975 -0.2956
  856MOL0     C15455   4.258   7.023   5.583 -0.1907 -0.0749  0.8401
  856MOL0     O15456   4.288   6.936   5.680  0.4148 -0.1908 -0.4103
  856MOL0     C15457   4.292   6.800   5.664  0.4354  0.0470  0.7993
  856MOL0     C15458   4.373   6.725   5.751 -0.1682 -0.3582  0.5798
  856MOL0     C15459   4.393   6.587   5.734  0.6052 -0.7328 -0.0102
  856MOL0     C15460   4.338   6.529   5.620 -0.9695 -0.6605 -0.3458
  856MOL0     O15461   4.365   6.394   5.607  0.4228 -0.4449 -0.1466
  856MOL0     C15462   4.339   6.333   5.480 -0.2646  0.7709 -0.2488
  856MOL0     C15463   4.367   6.178   5.475  0.1026  0.4787  0.9776
  856MOL0     C15464   4.512   6.150   5.497 -0.3018 -0.5956 -0.0405
  856MOL0     C15465   4.555   6.014   5.443  0.1924  0.4422  0.9015
  856MOL0     C15466   4.695   5.987   5.498 -0.7572  0.1851 -0.1593
  856MOL0     C15467   4.744   5.854   5.449  1.0531 -0.2616  1.3720
  856MOL0     C15468   4.876   5.819   5.519  0.6379  0.3881 -0.5624
  856MOL0     C15469   4.957   5.709   5.441 -0.8121 -0.3409  0.0014
  856MOL0    Cl15470   5.019   5.778   5.290 -0.3888 -0.5230  0.1363
  856MOL0     C15471   4.261   6.607   5.533 -0.6576 -0.5875 -0.6902
  856MOL0     C15472   4.237   6.739   5.552 -1.0601 -0.1464 -0.8725
  856MOL0     O15473   4.264   6.998   5.462  0.3150  0.2208  1.0141
  856MOL0     C15474   4.153   7.166   5.752  0.2959 -0.2800  0.7047
  856MOL0     C15475   4.071   7.266   5.792  0.4411  0.0910 -0.8322
  856MOL0     N15476   3.896   7.924   5.465  0.7631 -0.3063 -0.0740
  856MOL0     N15477   3.964   8.012   5.391 -0.8885 -0.1798 -0.4473
  856MOL0     C15478   4.402   8.586   5.985  0.1577  0.5100 -0.0535
  856MOL0     C15479   4.303   8.562   6.082  1.0042 -0.3417  0.8865
  856MOL0     C15480   4.049   8.350   6.412  0.9662  0.1561  0.6778
  856MOL0     C15481   3.936   8.266   6.428  0.9040 -0.3304  0.0075
  856MOL0     C15482   3.828   8.315   6.508  0.1709 -0.1636 -0.3452
  856MOL0     C15483   3.848   8.428   6.585  0.0780  0.0032 -0.0711
  856MOL0     O15484   3.747   8.448   6.678 -0.1122  0.2020  0.4191
  856MOL0     C15485   3.731   8.585   6.707  0.3649 -0.8334  0.0978
  856MOL0     C15486   3.582   8.603   6.756  0.4555  0.3487  0.7976
  856MOL0     C15487   3.559   8.749   6.805 -0.6802 -0.0747 -0.9365
  856MOL0     C15488   3.455   8.830   6.730 -0.1199 -0.4800  0.5769
  856MOL0     C15489   3.318   8.785   6.763  0.3347  0.1719 -1.1100
  856MOL0     C15490   3.215   8.738   6.803 -0.1317  0.7070 -0.3921
  856MOL0     C15491   3.970   8.492   6.582  0.9990 -0.0471 -0.6247
  856MOL0     C15492   4.073   8.459   6.495  0.4419 -0.5639  1.2597
  856MOL0     H15493   4.375   8.253   6.186 -2.6906 -0.1826 -0.5991
  856MOL0     H15494   4.539   8.279   5.992 -1.4117 -0.9453  0.2788
  856MOL0     H15495   4.439   8.540   5.740 -0.3270 -2.4176 -1.3001
  856MOL0     H15496   4.579   8.650   5.720 -0.2536  0.5062 -1.2020
  856MOL0     H15497   4.715   8.450   5.645  1.1718  0.8855 -1.0961
  856MOL0     H15498   4.565   8.349   5.659 -0.7844  0.5179 -1.1907
  856MOL0     H15499   4.456   8.523   5.496  0.2855  1.7416  1.7588
  856MOL0     H15500   4.612   8.542   5.431 -1.0884  0.9989  0.4562
  856MOL0     H15501   4.644   8.308   5.383 -0.0160  1.4184  1.2221
  856MOL0     H15502   4.502   8.253   5.467 -2.8402  0.7931 -1.5593
  856MOL0     H15503   4.484   8.431   5.230  2.2745 -0.6171 -0.9192
  856MOL0     H15504   4.462   8.258   5.229 -0.4948 -0.1310 -0.5054
  856MOL0     H15505   4.266   8.448   5.379  0.4870 -0.2551  2.0379
  856MOL0     H15506   4.252   8.350   5.228  3.4708 -0.8200 -1.7480
  856MOL0     H15507   4.288   8.149   5.372  0.3790  0.1066 -0.0432
  856MOL0     H15508   4.287   8.250   5.523 -4.1113 -0.1345  2.2707
  856MOL0     H15509   4.062   8.245   5.311  0.5056 -0.6653 -0.8899
  856MOL0     H15510   4.051   8.318   5.462  0.5205  0.9435 -0.9994
  856MOL0     H15511   4.078   8.099   5.684  0.9939  1.0571 -0.8975
  856MOL0     H15512   3.996   7.910   5.788 -0.1852  0.4942  1.8454
  856MOL0     H15513   3.823   7.889   5.758 -1.1621  0.0979  0.1877
  856MOL0     H15514   4.068   7.714   5.687 -0.0881 -1.9166  0.1895
  856MOL0     H15515   3.899   7.678   5.624  1.1524 -0.7718  0.8400
  856MOL0     H15516   3.813   7.670   5.860 -0.6783 -0.2584  1.4446
  856MOL0     H15517   3.957   7.708   5.934 -2.7465 -0.1928 -0.0582
  856MOL0     H15518   3.896   7.476   5.934 -1.3227  2.3911  1.3790
  856MOL0     H15519   4.061   7.520   5.885  0.2622  1.7939 -0.0526
  856MOL0     H15520   3.994   7.405   5.490  0.7813  0.9349  1.1790
  856MOL0     H15521   4.087   7.291   5.300 -0.1499 -0.7029 -2.4570
  856MOL0     H15522   4.230   7.203   5.338 -0.9701  0.3636  0.4934
  856MOL0     H15523   4.070   7.118   5.341  1.1427  0.2489 -2.0339
  856MOL0     H15524   4.412   6.764   5.844  0.1372 -1.9355  1.1500
  856MOL0     H15525   4.460   6.538   5.803  0.8457  0.5673  0.7158
  856MOL0     H15526   4.237   6.356   5.452 -1.7246 -2.2948  1.9387
  856MOL0     H15527   4.409   6.371   5.405  0.8596 -3.0409 -1.3350
  856MOL0     H15528   4.297   6.135   5.547 -3.5118 -0.9724 -2.9892
  856MOL0     H15529   4.334   6.144   5.377 -0.3109 -1.7892  1.8494
  856MOL0     H15530   4.517   6.133   5.604  0.5447 -2.7475 -0.3759
  856MOL0     H15531   4.578   6.233   5.471  2.6832 -2.6325  0.5964
  856MOL0     H15532   4.479   5.945   5.482 -0.4692  1.1051  0.7834
  856MOL0     H15533   4.547   6.022   5.334 -3.6201 -0.2531  0.9899
  856MOL0     H15534   4.701   5.979   5.607 -1.8299 -0.8609 -0.1487
  856MOL0     H15535   4.776   6.058   5.480  0.7414 -1.2766  0.5969
  856MOL0     H15536   4.662   5.783   5.464  0.3629  0.5140  1.3311
  856MOL0     H15537   4.750   5.861   5.340  2.4662 -1.5342  1.3318
  856MOL0     H15538   4.855   5.792   5.623 -0.6387 -0.3300 -0.9923
  856MOL0     H15539   4.939   5.908   5.527 -0.4441  1.1124  0.3213
  856MOL0     H15540   4.891   5.625   5.418 -0.6599 -0.6506  0.6716
  856MOL0     H15541   5.034   5.661   5.501 -0.6147 -0.1781 -0.1193
  856MOL0     H15542   4.235   6.575   5.432  2.3597  2.7684 -2.7857
  856MOL0     H15543   4.174   6.786   5.477 -1.9784  0.2014  0.0939
  856MOL0     H15544   4.191   7.090   5.819 -0.7135 -2.6524 -1.2635
  856MOL0     H15545   4.030   7.269   5.893  0.4942 -2.8077 -0.6443
  856MOL0     H15546   4.401   8.670   5.917  0.4987 -0.2456 -1.0110
  856MOL0     H15547   4.232   8.639   6.110  2.9062  1.1668  1.7801
  856MOL0     H15548   3.922   8.175   6.370 -3.2162 -0.0253  0.2518
  856MOL0     H15549   3.729   8.271   6.511 -1.2106  2.6485  2.7281
  856MOL0     H15550   3.792   8.623   6.789  3.0009 -0.7579 -1.7680
  856MOL0     H15551   3.755   8.654   6.626 -0.3509  1.3757  1.6748
  856MOL0     H15552   3.567   8.527   6.833  0.4348  0.8597  1.3001
  856MOL0     H15553   3.514   8.583   6.672  0.6104 -1.1511  1.0113
  856MOL0     H15554   3.656   8.800   6.805 -0.1968 -0.9054 -2.9347
  856MOL0     H15555   3.531   8.742   6.911  1.1540  0.0366 -0.4092
  856MOL0     H15556   3.479   8.813   6.625 -1.6258  1.4336 -0.1362
  856MOL0     H15557   3.466   8.937   6.749 -4.5062  0.2950 -0.0256
  856MOL0     H15558   3.130   8.685   6.840  0.2340  1.1879  1.1941
  856MOL0     H15559   3.989   8.576   6.648 -1.6682 -0.0558  0.2844
  856MOL0     H15560   4.153   8.532   6.492 -0.7208  0.7349  0.7406
  857MOL0     O15561   6.068   9.596   4.376 -0.8969  0.2034  0.5112
  857MOL0     C15562   6.096   9.612   4.499  0.4811  0.6193  0.7432
  857MOL0     O15563   6.015   9.585   4.599 -0.9828 -0.0414 -0.3940
  857MOL0     C15564   5.883   9.571   4.575 -0.2113 -1.4350  0.5723
  857MOL0     C15565   5.795   9.679   4.594 -0.7899  1.4365  0.3918
  857MOL0     C15566   5.656   9.665   4.567 -0.3443 -0.0203  0.3770
  857MOL0     C15567   5.610   9.540   4.531  0.1557  1.2722  0.6336
  857MOL0     O15568   5.476   9.514   4.504 -0.0972 -0.5875 -0.7887
  857MOL0     C15569   5.380   9.615   4.550 -0.7808 -0.1782 -0.1465
  857MOL0     C15570   5.240   9.573   4.494 -2.0720  0.1765  0.6290
  857MOL0     C15571   5.136   9.671   4.510 -0.9150  0.2847 -0.7102
  857MOL0     C15572   5.106   9.698   4.667 -0.2087 -0.1954  1.0576
  857MOL0     C15573   5.004   9.814   4.675  0.5631  0.2577 -1.1465
  857MOL0     C15574   4.968   9.824   4.824  1.0186 -0.3152 -0.0872
  857MOL0     C15575   4.846   9.920   4.845  0.2727 -0.2101  0.3866
  857MOL0     C15576   4.813   9.937   4.994 -0.3158 -0.1398 -0.0369
  857MOL0     N15577   4.689  10.010   5.022  0.3566  0.0352  1.0036
  857MOL0     C15578   4.647  10.121   4.965 -0.1028  0.2828  0.1407
  857MOL0     C15579   4.520  10.141   5.017 -0.3406 -0.0010  0.1222
  857MOL0     C15580   4.435  10.255   4.989 -1.1700  0.2006  0.1831
  857MOL0     C15581   4.513  10.377   4.992 -0.1140 -0.3524 -0.5677
  857MOL0     C15582   4.420  10.490   5.055  0.0386  0.2487 -0.3249
  857MOL0     C15583   4.500  10.618   5.073 -0.2967 -0.1087 -0.1502
  857MOL0     O15584   4.432  10.742   5.044  1.0758 -0.2790 -0.2094
  857MOL0     C15585   4.368  10.786   5.151  0.0122 -0.0225 -0.2829
  857MOL0     C15586   4.404  10.919   5.198 -0.2622  0.9812 -0.7574
  857MOL0     C15587   4.331  10.983   5.296  0.0104 -0.0778  0.4180
  857MOL0     C15588   4.362  11.133   5.330  0.1911 -0.2595 -0.3615
  857MOL0     C15589   4.225  10.910   5.370 -0.3068  0.6725 -0.6233
  857MOL0     C15590   4.131  10.979   5.466  0.7294  0.2049  0.5577
  857MOL0     O15591   4.036  10.900   5.515 -0.1677  0.1804 -0.0074
  857MOL0     C15592   3.934  10.958   5.592  1.0413  0.4190 -0.1164
  857MOL0     C15593   3.912  10.912   5.727 -0.4395  0.1153  0.4776
  857MOL0     C15594   3.811  10.962   5.796 -0.2159 -0.2890  0.3133
  857MOL0     C15595   3.725  11.058   5.747  0.7500 -0.3070  0.7679
  857MOL0     O15596   3.625  11.114   5.816  0.0036  0.7262 -0.6404
  857MOL0     C15597   3.608  11.098   5.961 -0.2554  0.3780  0.0191
  857MOL0     C15598   3.548  11.221   6.015 -0.5100 -0.6927  0.5307
  857MOL0     C15599   3.471  11.201   6.142 -0.1635 -0.3377 -0.3872
  857MOL0     C15600   3.429  11.349   6.171  0.3007  0.5562 -0.2535
  857MOL0     C15601   3.343  11.345   6.301 -0.7600 -0.3372  0.1917
  857MOL0     C15602   3.298  11.488   6.345 -0.1790 -0.5936  0.2751
  857MOL0     C15603   3.227  11.487   6.483 -0.5350 -0.0350  0.0171
  857MOL0     C15604   3.122  11.587   6.490 -0.7806  0.5466  0.5343
  857MOL0    Cl15605   3.032  11.589   6.647  0.1185  0.6687  0.0402
  857MOL0     C15606   3.746  11.111   5.618 -0.2282  0.0096 -0.3935
  857MOL0     C15607   3.852  11.063   5.542  0.3479  0.5575  0.6776
  857MOL0     O15608   4.126  11.103   5.468 -0.6508  0.6871 -1.0634
  857MOL0     C15609   4.196  10.776   5.334  0.4299  0.6207 -0.8331
  857MOL0     C15610   4.266  10.723   5.230 -1.1018  0.0160  0.3101
  857MOL0     N15611   4.512  10.066   5.134 -0.6211 -1.5100 -0.2163
  857MOL0     N15612   4.609   9.978   5.129 -0.9167 -0.6924 -0.1620
  857MOL0     C15613   5.696   9.427   4.507  0.6060 -0.1587  0.4404
  857MOL0     C15614   5.832   9.449   4.525  0.2130  0.3350  0.5505
  857MOL0     C15615   6.232   9.666   4.531 -0.4103 -0.3361 -1.0632
  857MOL0     C15616   6.256   9.715   4.665 -1.3637  0.4809  0.1609
  857MOL0     C15617   6.376   9.775   4.706 -0.0474  0.0911  0.1177
  857MOL0     C15618   6.481   9.785   4.614 -0.2039 -0.4184 -0.4192
  857MOL0     O15619   6.594   9.854   4.626 -0.1757 -0.5995  0.5341
  857MOL0     C15620   6.615   9.929   4.745  0.2869 -0.3110  0.2399
  857MOL0     C15621   6.658   9.833   4.865 -1.4977  0.1465  0.3421
  857MOL0     C15622   6.791   9.755   4.839  0.6192  0.3066  0.5218
  857MOL0     C15623   6.915   9.842   4.833 -0.3773 -0.0151  0.6486
  857MOL0     C15624   6.943   9.920   4.954 -0.0279  0.6811 -0.5269
  857MOL0     C15625   6.966   9.979   5.059 -0.2360 -0.7259  0.8404
  857MOL0     C15626   6.463   9.738   4.484  0.1241  1.4916  0.7865
  857MOL0     C15627   6.338   9.676   4.450  0.0505 -0.0533 -0.0756
  857MOL0     H15628   5.832   9.766   4.648 -0.7844 -0.1859  3.1522
  857MOL0     H15629   5.594   9.751   4.588 -1.3061 -1.0846  2.1643
  857MOL0     H15630   5.371   9.616   4.659  0.7492 -2.4898  0.0674
  857MOL0     H15631   5.405   9.719   4.529 -0.4182  0.9886  4.9158
  857MOL0     H15632   5.253   9.554   4.387  1.4238 -0.9641  1.1494
  857MOL0     H15633   5.208   9.476   4.534 -0.9074 -2.1588 -3.4897
  857MOL0     H15634   5.168   9.769   4.473  1.9995  1.2938  3.6723
  857MOL0     H15635   5.045   9.631   4.463  1.5160 -1.0075 -4.7861
  857MOL0     H15636   5.070   9.601   4.701 -1.0320 -0.2752  0.0061
  857MOL0     H15637   5.202   9.721   4.714 -0.1538 -2.2063  2.0046
  857MOL0     H15638   5.047   9.912   4.652  0.1298  0.8858  0.5252
  857MOL0     H15639   4.922   9.793   4.606 -0.5196  0.8641 -0.1139
  857MOL0     H15640   4.948   9.727   4.870 -0.9258  0.8553  1.7094
  857MOL0     H15641   5.056   9.866   4.874  1.5340 -2.2580  0.7345
  857MOL0     H15642   4.869  10.016   4.797 -3.9427  1.2801  0.9445
  857MOL0     H15643   4.763   9.870   4.795 -0.2944 -0.5618  1.6311
  857MOL0     H15644   4.903   9.983   5.035 -0.5108 -0.0083  0.2452
  857MOL0     H15645   4.809   9.841   5.046  2.6591  0.3254  1.2642
  857MOL0     H15646   4.709  10.177   4.896  0.1845 -1.9042 -1.4739
  857MOL0     H15647   4.382  10.238   4.894  0.5400  2.0310 -1.1858
  857MOL0     H15648   4.354  10.259   5.061  1.3571  0.9814  3.1796
  857MOL0     H15649   4.538  10.406   4.890  1.0335 -2.5070 -0.9459
  857MOL0     H15650   4.601  10.372   5.055  0.3421  2.3117 -0.8428
  857MOL0     H15651   4.375  10.458   5.149 -2.2893 -3.3447 -2.4296
  857MOL0     H15652   4.328  10.502   4.998 -0.4220  0.9712  0.5517
  857MOL0     H15653   4.568  10.626   4.988 -1.4087 -1.5473 -1.2227
  857MOL0     H15654   4.551  10.614   5.170  2.2449  2.5623 -1.2277
  857MOL0     H15655   4.486  10.977   5.158  1.6770 -2.3432 -2.0385
  857MOL0     H15656   4.271  11.193   5.316  1.8500  1.9630 -2.4530
  857MOL0     H15657   4.401  11.139   5.432 -0.4029 -0.0868 -0.1359
  857MOL0     H15658   4.436  11.179   5.264  1.0068 -1.3224 -0.2042
  857MOL0     H15659   3.957  10.826   5.776 -1.9855  0.2010  2.1355
  857MOL0     H15660   3.802  10.921   5.896 -0.5071  0.2781  0.5261
  857MOL0     H15661   3.554  11.005   5.980  0.8074 -0.1882  0.3498
  857MOL0     H15662   3.705  11.088   6.011 -0.8569  0.5389  1.2647
  857MOL0     H15663   3.633  11.290   6.023 -1.0756  0.3089 -1.4495
  857MOL0     H15664   3.471  11.261   5.948 -0.1645 -0.8164  0.0566
  857MOL0     H15665   3.539  11.168   6.221  1.2898 -0.7669 -1.7512
  857MOL0     H15666   3.384  11.136   6.135  0.4507 -1.1797 -0.3752
  857MOL0     H15667   3.511  11.417   6.193  0.7213 -0.7216  2.4507
  857MOL0     H15668   3.371  11.386   6.085  2.7504  0.0806 -2.2459
  857MOL0     H15669   3.395  11.290   6.379 -0.8923 -1.1846 -0.3045
  857MOL0     H15670   3.257  11.278   6.293 -1.7379  0.9998 -1.4372
  857MOL0     H15671   3.380  11.560   6.334  0.9397 -1.8170  0.3214
  857MOL0     H15672   3.217  11.510   6.275  0.6407 -0.4884 -0.6720
  857MOL0     H15673   3.297  11.489   6.567 -1.2421  0.0023  0.6230
  857MOL0     H15674   3.167  11.396   6.486  0.1944 -0.5588 -0.8674
  857MOL0     H15675   3.044  11.567   6.417  0.0954 -0.5532 -0.1293
  857MOL0     H15676   3.161  11.688   6.470 -0.5950  0.3964  0.1313
  857MOL0     H15677   3.685  11.195   5.583 -0.5994 -0.7816 -1.7319
  857MOL0     H15678   3.872  11.097   5.442 -0.8819 -0.3529  0.0948
  857MOL0     H15679   4.128  10.706   5.381  1.0998  0.0193 -0.7390
  857MOL0     H15680   4.232  10.628   5.191 -1.3409 -0.2154  1.0561
  857MOL0     H15681   5.654   9.329   4.488  1.4289 -0.5160  0.4340
  857MOL0     H15682   5.904   9.370   4.506 -1.6438 -0.8810 -1.8188
  857MOL0     H15683   6.187   9.708   4.749  1.1055  1.8304  2.4729
  857MOL0     H15684   6.365   9.814   4.807 -3.9682  0.6627 -0.3917
  857MOL0     H15685   6.685  10.010   4.721  2.3621 -2.1354 -0.2512
  857MOL0     H15686   6.522   9.976   4.776  0.2896 -0.3771  0.3460
  857MOL0     H15687   6.584   9.752   4.871 -0.9553 -0.6121 -1.9768
  857MOL0     H15688   6.645   9.883   4.961 -1.0278 -0.7378  0.8761
  857MOL0     H15689   6.771   9.694   4.751 -0.4562  1.9658 -0.4477
  857MOL0     H15690   6.802   9.686   4.923 -3.0711 -0.4515  0.5154
  857MOL0     H15691   6.916   9.909   4.746  1.3195  2.5156  2.4713
  857MOL0     H15692   7.000   9.774   4.820 -1.0083 -0.5614 -0.7198
  857MOL0     H15693   6.980  10.029   5.153 -0.2549 -0.7743  0.8692
  857MOL0     H15694   6.531   9.754   4.401 -1.1098 -0.8538 -0.7735
  857MOL0     H15695   6.336   9.645   4.346 -0.3587 -0.5846  0.0851
  858MOL0     O15696   2.326  10.114   3.478  0.6152  0.3748 -0.1451
  858MOL0     C15697   2.306  10.169   3.586  0.2138 -0.0801  0.2753
  858MOL0     O15698   2.238  10.280   3.603 -0.1635  0.1284 -0.5666
  858MOL0     C15699   2.177  10.337   3.498 -0.0502  0.1384  0.3564
  858MOL0     C15700   2.202  10.469   3.476 -0.1057  0.4603  0.6608
  858MOL0     C15701   2.142  10.546   3.377  0.3292  0.7133  0.1266
  858MOL0     C15702   2.052  10.484   3.295  0.6759 -0.8307  0.0302
  858MOL0     O15703   1.992  10.561   3.203  0.6014  0.3972  0.5116
  858MOL0     C15704   1.881  10.510   3.138 -0.0075  0.5997  1.0689
  858MOL0     C15705   1.766  10.491   3.245  0.7866  0.5557  0.0486
  858MOL0     C15706   1.645  10.428   3.187  0.6289  0.6567  0.4208
  858MOL0     C15707   1.520  10.445   3.285 -0.9685 -0.0929  1.3032
  858MOL0     C15708   1.400  10.413   3.204  1.0677  0.3274 -0.4125
  858MOL0     C15709   1.270  10.445   3.285 -0.6330 -0.5425  0.0605
  858MOL0     C15710   1.151  10.457   3.191  0.7267 -0.1985  0.1715
  858MOL0     C15711   1.046  10.554   3.247 -0.5200 -0.0064  0.5303
  858MOL0     N15712   0.945  10.594   3.149 -0.5158  0.3173 -0.2687
  858MOL0     C15713   0.956  10.673   3.034 -0.1063  0.0565  0.2541
  858MOL0     C15714   0.835  10.665   2.978 -1.3989  0.3253  0.3651
  858MOL0     C15715   0.806  10.718   2.848  0.1794  0.1809  0.2609
  858MOL0     C15716   0.647  10.762   2.830 -0.0103 -0.0257  0.2366
  858MOL0     C15717   0.614  10.810   2.686  0.5058  0.1020  0.4174
  858MOL0     C15718   0.461  10.851   2.669  0.2662 -0.0685  0.4630
  858MOL0     O15719   0.430  10.873   2.530 -0.1530  0.6912 -0.1214
  858MOL0     C15720   0.333  10.795   2.474 -0.2043  0.7338  0.2754
  858MOL0     C15721   0.347  10.661   2.484 -0.1403  0.1065 -0.3462
  858MOL0     C15722   0.251  10.581   2.412 -0.5774 -0.1725  0.7914
  858MOL0     C15723   0.286  10.434   2.399 -0.1397 -0.2543 -0.5385
  858MOL0     C15724   0.136  10.640   2.349  0.7527 -0.0111 -0.1416
  858MOL0     C15725   0.029  10.569   2.279 -0.3431  0.2214  0.9611
  858MOL0     O15726  -0.081  10.645   2.244 -0.1908  0.9805  0.4424
  858MOL0     C15727  -0.176  10.592   2.162  0.6850 -0.0767 -0.0380
  858MOL0     C15728  -0.150  10.536   2.040 -0.1762 -0.0706  0.6457
  858MOL0     C15729  -0.250  10.507   1.949  0.8182 -0.8961  0.1829
  858MOL0     C15730  -0.390  10.538   1.981  0.2962  0.7801 -0.1779
  858MOL0     O15731  -0.493  10.502   1.904  0.7067  0.8192  0.4913
  858MOL0     C15732  -0.472  10.532   1.762 -0.3902 -0.9601 -0.3506
  858MOL0     C15733  -0.586  10.502   1.662 -0.7138 -0.2818  0.2865
  858MOL0     C15734  -0.720  10.584   1.682 -1.3576  0.2623  0.2746
  858MOL0     C15735  -0.775  10.614   1.543  0.1477  0.7079 -1.2386
  858MOL0     C15736  -0.696  10.715   1.465 -1.0552  0.1249  0.6018
  858MOL0     C15737  -0.771  10.758   1.339 -0.1416 -0.2328  0.4116
  858MOL0     C15738  -0.770  10.650   1.236 -0.1427  0.4331 -0.4640
  858MOL0     C15739  -0.801  10.701   1.098  0.3423 -0.3320 -0.1352
  858MOL0    Cl15740  -0.823  10.577   0.974  0.2549  0.3161  0.2361
  858MOL0     C15741  -0.418  10.597   2.106  0.0075 -0.0680  0.3522
  858MOL0     C15742  -0.302  10.624   2.198  0.9502 -0.4447  0.3734
  858MOL0     O15743   0.032  10.447   2.270  0.5976  0.1629 -0.1994
  858MOL0     C15744   0.128  10.781   2.356 -0.5136 -0.1208 -1.0331
  858MOL0     C15745   0.225  10.857   2.426 -0.3645  0.3841  0.0992
  858MOL0     N15746   0.755  10.573   3.044  0.4975  0.4951  1.1140
  858MOL0     N15747   0.820  10.533   3.145 -0.6228 -0.2849  0.4920
  858MOL0     C15748   2.023  10.353   3.316 -0.7358  0.1750 -0.0735
  858MOL0     C15749   2.078  10.273   3.422 -0.1623  0.1584  0.3724
  858MOL0     C15750   2.346  10.094   3.701  0.9396 -0.7472 -0.1198
  858MOL0     C15751   2.364  10.167   3.821 -0.3676 -0.2177  0.0380
  858MOL0     C15752   2.403  10.100   3.938  0.1550  0.1627  0.1442
  858MOL0     C15753   2.447   9.966   3.948  0.8571  0.3303 -0.5906
  858MOL0     O15754   2.484   9.898   4.065  0.4057  0.2109  0.7340
  858MOL0     C15755   2.494   9.755   4.061  0.8319  0.5595  0.4137
  858MOL0     C15756   2.522   9.693   4.193 -0.4641 -0.5558 -0.2556
  858MOL0     C15757   2.655   9.727   4.248 -0.4621  0.0456  0.3374
  858MOL0     C15758   2.661   9.692   4.398 -0.8220  0.0257  0.9133
  858MOL0     C15759   2.647   9.552   4.413  0.6885  0.5518  0.6538
  858MOL0     C15760   2.630   9.432   4.438 -0.3976 -0.2146 -0.6331
  858MOL0     C15761   2.431   9.894   3.822 -0.0370  0.9394 -0.5215
  858MOL0     C15762   2.388   9.963   3.704 -0.4563  1.0107 -0.6784
  858MOL0     H15763   2.277  10.514   3.541  1.0418  1.0850 -1.0332
  858MOL0     H15764   2.159  10.653   3.366  0.6525  0.4406 -3.0319
  858MOL0     H15765   1.852  10.581   3.060  3.6941 -0.7662 -1.8391
  858MOL0     H15766   1.909  10.420   3.082  1.7460  1.3048  0.7307
  858MOL0     H15767   1.784  10.433   3.335 -0.3371 -1.5245 -0.9804
  858MOL0     H15768   1.738  10.591   3.281  0.9053  0.9711 -0.9543
  858MOL0     H15769   1.631  10.475   3.089 -1.0714 -0.6335 -0.0031
  858MOL0     H15770   1.661  10.320   3.172 -0.6077  0.4311  0.6589
  858MOL0     H15771   1.524  10.380   3.372  0.7354  0.4195  1.6403
  858MOL0     H15772   1.505  10.549   3.315  1.1850  1.1350 -1.4183
  858MOL0     H15773   1.400  10.483   3.120 -0.7724  5.0720  3.1682
  858MOL0     H15774   1.395  10.306   3.179  0.3361 -0.6804  3.4095
  858MOL0     H15775   1.238  10.385   3.371 -1.4096  1.2597  1.0813
  858MOL0     H15776   1.287  10.542   3.334  0.7327 -0.5697 -0.3296
  858MOL0     H15777   1.185  10.493   3.093  0.0699  0.6071  0.2293
  858MOL0     H15778   1.103  10.360   3.178  2.3977 -0.9594 -0.7231
  858MOL0     H15779   1.095  10.642   3.288  0.1945  0.0129 -0.3121
  858MOL0     H15780   0.997  10.501   3.329 -1.6393  1.2300  0.6900
  858MOL0     H15781   1.039  10.731   2.995 -1.5307  0.5766 -2.2158
  858MOL0     H15782   0.858  10.814   2.836 -0.7818  0.6361 -0.4058
  858MOL0     H15783   0.845  10.644   2.778  0.4829  0.4557  0.1351
  858MOL0     H15784   0.633  10.849   2.894 -1.2608  0.1515 -0.2652
  858MOL0     H15785   0.586  10.679   2.867 -1.0066  0.7049  0.2526
  858MOL0     H15786   0.636  10.727   2.619  2.0639 -1.0882  2.2921
  858MOL0     H15787   0.667  10.904   2.668  0.3650 -0.1494 -1.5045
  858MOL0     H15788   0.450  10.946   2.723  0.7012  2.5562 -3.6656
  858MOL0     H15789   0.399  10.774   2.716  0.3228 -0.0651  0.5452
  858MOL0     H15790   0.428  10.609   2.534 -0.1430 -1.1812 -1.6104
  858MOL0     H15791   0.253  10.384   2.308 -2.0366  0.3257 -0.2049
  858MOL0     H15792   0.394  10.417   2.412 -0.2532 -0.0101  0.9070
  858MOL0     H15793   0.245  10.397   2.494 -0.1176  0.9417 -0.0371
  858MOL0     H15794  -0.049  10.501   2.025 -0.6072 -0.4970 -1.5808
  858MOL0     H15795  -0.227  10.463   1.853  0.1192  0.5634 -0.6960
  858MOL0     H15796  -0.469  10.641   1.749  3.1265 -0.9270 -0.2289
  858MOL0     H15797  -0.385  10.480   1.722  0.4562 -1.0676  1.5100
  858MOL0     H15798  -0.539  10.500   1.564  0.1633  0.0145  0.6877
  858MOL0     H15799  -0.612  10.397   1.677  2.0936 -0.7715  2.7457
  858MOL0     H15800  -0.716  10.674   1.744 -4.2885  0.0571  0.9387
  858MOL0     H15801  -0.782  10.513   1.738 -1.4408  0.2721  0.1949
  858MOL0     H15802  -0.778  10.531   1.472 -0.7050 -0.2563 -0.1071
  858MOL0     H15803  -0.880  10.639   1.560 -0.3141 -0.7958 -1.7503
  858MOL0     H15804  -0.601  10.674   1.429 -1.2734  1.1961 -1.3347
  858MOL0     H15805  -0.672  10.799   1.529 -1.4344  0.5828  0.1532
  858MOL0     H15806  -0.874  10.794   1.347 -0.1836 -0.7472  2.6701
  858MOL0     H15807  -0.722  10.847   1.299 -1.7691  2.0439  3.1682
  858MOL0     H15808  -0.846  10.579   1.268  0.3524  0.7504  1.5840
  858MOL0     H15809  -0.674  10.596   1.237 -1.2743 -1.6605 -0.1916
  858MOL0     H15810  -0.715  10.761   1.067  1.3532 -1.3443  0.5947
  858MOL0     H15811  -0.891  10.763   1.104 -0.7511 -1.9306  0.9020
  858MOL0     H15812  -0.524  10.607   2.130  0.8084  2.0374  3.6808
  858MOL0     H15813  -0.318  10.682   2.288 -0.2339  1.9724 -1.2915
  858MOL0     H15814   0.051  10.841   2.310  0.3287  0.2679 -1.9578
  858MOL0     H15815   0.224  10.966   2.428  1.7816  0.4967 -1.6070
  858MOL0     H15816   1.958  10.308   3.241  0.6471 -0.5037 -0.9047
  858MOL0     H15817   2.049  10.169   3.431 -0.8660  0.3290  0.1267
  858MOL0     H15818   2.328  10.270   3.819  0.2934  0.0050 -1.1396
  858MOL0     H15819   2.436  10.158   4.024  0.2480  0.6474 -0.2142
  858MOL0     H15820   2.398   9.717   4.027  0.9814 -0.5408  1.1529
  858MOL0     H15821   2.565   9.707   3.993 -1.5387  0.0987 -1.9102
  858MOL0     H15822   2.528   9.584   4.185  0.7610 -0.3570 -3.4922
  858MOL0     H15823   2.442   9.722   4.262  0.1502  1.1193 -0.1964
  858MOL0     H15824   2.678   9.834   4.256 -0.5031 -0.0094  1.3529
  858MOL0     H15825   2.737   9.678   4.195  0.2254  2.6089 -1.1248
  858MOL0     H15826   2.587   9.746   4.457  0.2674  2.9090 -0.1661
  858MOL0     H15827   2.756   9.725   4.443  0.7730 -2.4427 -0.4311
  858MOL0     H15828   2.625   9.326   4.450 -2.5867 -0.2701 -1.5383
  858MOL0     H15829   2.460   9.790   3.810  0.5611  1.0550 -0.1263
  858MOL0     H15830   2.412   9.902   3.618  0.6400 -0.0047  0.3010
  859MOL0     O15831  10.164   4.708  10.252  0.2098  0.0958  0.1016
  859MOL0     C15832  10.248   4.741  10.346  1.0741  0.7830 -0.1236
  859MOL0     O15833  10.285   4.655  10.450 -0.0111  0.5292 -0.0463
  859MOL0     C15834  10.238   4.527  10.469  0.3757 -0.0353  0.3643
  859MOL0     C15835  10.329   4.423  10.460 -1.0425 -0.0130 -0.0389
  859MOL0     C15836  10.284   4.292  10.476  0.9739  0.8256 -0.1595
  859MOL0     C15837  10.155   4.266  10.515 -0.0676 -1.1761 -0.1282
  859MOL0     O15838  10.132   4.127  10.522 -0.4114  0.1775  0.3789
  859MOL0     C15839  10.009   4.071  10.567  0.3835 -0.3943  0.5090
  859MOL0     C15840   9.987   4.092  10.717  0.4435 -0.9863  0.2343
  859MOL0     C15841  10.029   3.968  10.803  0.0874  0.2443  1.0617
  859MOL0     C15842  10.063   3.993  10.953  0.9776 -0.5089  0.0991
  859MOL0     C15843  10.142   3.881  11.024  0.4042  0.5072  0.2039
  859MOL0     C15844  10.177   3.916  11.168 -0.2209 -0.0611 -0.2047
  859MOL0     C15845  10.207   3.780  11.250 -0.1302 -0.3433 -0.1546
  859MOL0     C15846  10.075   3.715  11.292  0.3255 -0.5512  0.1009
  859MOL0     N15847   9.998   3.783  11.397  1.1014 -0.3879 -0.0548
  859MOL0     C15848  10.038   3.887  11.468  0.2590  0.8281  0.4776
  859MOL0     C15849   9.948   3.892  11.571 -0.3302 -0.8740  0.5819
  859MOL0     C15850   9.926   4.012  11.660  0.1207 -0.4473  0.4971
  859MOL0     C15851  10.049   4.054  11.740 -0.4169  0.8265  0.2675
  859MOL0     C15852  10.067   3.988  11.879  1.0326 -0.8057 -0.1749
  859MOL0     C15853  10.067   3.832  11.893  0.0693  0.5651 -1.1462
  859MOL0     O15854  10.132   3.762  11.793  0.4991  0.2514  0.7272
  859MOL0     C15855  10.255   3.716  11.802 -0.4331  1.1747 -0.0847
  859MOL0     C15856  10.313   3.655  11.688 -0.1438  0.0834  0.4718
  859MOL0     C15857  10.445   3.605  11.679 -0.1579  0.5833  0.7691
  859MOL0     C15858  10.495   3.534  11.548 -0.3932 -0.2194 -0.1559
  859MOL0     C15859  10.525   3.621  11.797  0.6052 -0.5572  0.2739
  859MOL0     C15860  10.670   3.582  11.807  0.1811 -0.8674  0.3570
  859MOL0     O15861  10.729   3.594  11.936 -0.5146  0.6636  1.0213
  859MOL0     C15862  10.858   3.556  11.968 -0.5141  0.1110 -0.5872
  859MOL0     C15863  10.919   3.457  11.899  0.9973 -0.3324  1.0194
  859MOL0     C15864  11.033   3.396  11.954  1.0788  0.6720 -0.7829
  859MOL0     C15865  11.083   3.446  12.077  0.4906  0.6009 -0.7315
  859MOL0     O15866  11.193   3.379  12.128  1.0402  0.7210 -0.8604
  859MOL0     C15867  11.290   3.446  12.217 -0.4152 -0.3494 -0.6238
  859MOL0     C15868  11.235   3.406  12.360 -0.4276  0.4219  1.0373
  859MOL0     C15869  11.318   3.486  12.455 -0.2257 -0.1721 -0.3676
  859MOL0     C15870  11.309   3.433  12.593  0.1576 -0.3057  0.1605
  859MOL0     C15871  11.419   3.511  12.679 -0.3739 -0.0907  0.6550
  859MOL0     C15872  11.375   3.502  12.825 -0.2879 -0.4607  0.6642
  859MOL0     C15873  11.461   3.581  12.918 -0.1336  0.3060 -0.0917
  859MOL0     C15874  11.391   3.606  13.048 -0.4849 -0.5111 -0.6158
  859MOL0    Cl15875  11.490   3.698  13.162  0.2701 -0.2156  0.1593
  859MOL0     C15876  11.017   3.552  12.146 -0.3098  1.0178  0.2917
  859MOL0     C15877  10.904   3.602  12.094  1.8069 -0.3473  0.0742
  859MOL0     O15878  10.735   3.559  11.707  0.1073 -0.1282  0.5414
  859MOL0     C15879  10.470   3.676  11.917  0.6777  0.4038  0.1602
  859MOL0     C15880  10.335   3.717  11.919 -0.0962  0.8872 -0.2118
  859MOL0     N15881   9.857   3.781  11.560  0.1545  0.0850 -0.0509
  859MOL0     N15882   9.898   3.710  11.462 -0.1649 -0.7454  0.5914
  859MOL0     C15883  10.063   4.373  10.527 -0.3259 -0.1993  0.7812
  859MOL0     C15884  10.106   4.498  10.509  0.5263  0.0137  0.6595
  859MOL0     C15885  10.331   4.861  10.329 -0.3284 -0.0775  0.3003
  859MOL0     C15886  10.318   4.952  10.218 -0.4087  0.4372 -0.6322
  859MOL0     C15887  10.397   5.064  10.205  0.0382 -0.1329 -0.9522
  859MOL0     C15888  10.498   5.095  10.295  0.5638 -0.5608 -0.0072
  859MOL0     O15889  10.563   5.213  10.277 -0.0604 -0.5724  0.5755
  859MOL0     C15890  10.608   5.282  10.383 -0.7194 -0.0254 -0.7806
  859MOL0     C15891  10.651   5.422  10.333  0.2267 -0.1205  0.9869
  859MOL0     C15892  10.792   5.418  10.261 -0.0800 -0.0324 -0.1812
  859MOL0     C15893  10.833   5.562  10.251 -0.5769  0.1607 -0.5116
  859MOL0     C15894  10.947   5.570  10.158 -0.2764  0.2463 -1.3351
  859MOL0     C15895  11.035   5.554  10.082  0.1405  0.4859  0.0173
  859MOL0     C15896  10.510   5.013  10.402 -0.5790 -0.2348 -0.7535
  859MOL0     C15897  10.436   4.897  10.418 -0.4258  0.9093 -0.0640
  859MOL0     H15898  10.436   4.434  10.448 -0.8712  3.6136  2.8740
  859MOL0     H15899  10.347   4.205  10.460  0.2583  0.3208 -0.2648
  859MOL0     H15900   9.924   4.118  10.516  0.4429  0.9060  1.5415
  859MOL0     H15901  10.006   3.965  10.541 -0.5202  0.5384 -4.0633
  859MOL0     H15902  10.032   4.184  10.755  1.9443 -1.2408 -0.8580
  859MOL0     H15903   9.885   4.112  10.752  1.4277 -0.3283  3.0568
  859MOL0     H15904   9.950   3.892  10.810 -0.3831  0.7188  0.9776
  859MOL0     H15905  10.117   3.919  10.762  0.4278  2.0958 -0.5939
  859MOL0     H15906  10.133   4.077  10.951 -0.0544  0.4695 -3.7941
  859MOL0     H15907   9.971   4.018  11.006 -0.1845 -1.8536 -1.2160
  859MOL0     H15908  10.084   3.789  11.013  0.8825  0.4761 -3.3692
  859MOL0     H15909  10.227   3.861  10.958 -0.5290 -2.8124 -0.1633
  859MOL0     H15910  10.265   3.980  11.180  1.7895 -2.4146 -1.7076
  859MOL0     H15911  10.095   3.974  11.213  0.9717  0.7745  0.9477
  859MOL0     H15912  10.253   3.709  11.182  0.8878 -0.0818  0.2427
  859MOL0     H15913  10.276   3.792  11.334 -0.2514 -0.4102 -0.0436
  859MOL0     H15914  10.090   3.610  11.319 -3.1225 -0.9454  0.9764
  859MOL0     H15915  10.010   3.722  11.204 -2.2575  0.5828  1.9728
  859MOL0     H15916  10.123   3.950  11.442 -1.6277  3.1716 -0.4696
  859MOL0     H15917   9.897   4.091  11.590  2.6870  1.6246  1.6158
  859MOL0     H15918   9.846   3.990  11.731  0.4242 -0.8535  0.7135
  859MOL0     H15919  10.036   4.162  11.738 -0.5983  0.7971 -0.4493
  859MOL0     H15920  10.132   4.010  11.684 -2.6971 -4.5684  0.4399
  859MOL0     H15921   9.987   4.021  11.946  0.7981 -0.7366 -0.4867
  859MOL0     H15922  10.162   4.025  11.917  1.1604  0.2664 -1.4462
  859MOL0     H15923   9.962   3.802  11.893  0.0468  0.6423 -0.7649
  859MOL0     H15924  10.116   3.821  11.991 -1.6039 -0.1199 -0.3560
  859MOL0     H15925  10.264   3.664  11.592  1.4613  0.3267 -0.3482
  859MOL0     H15926  10.418   3.524  11.471 -2.2136 -1.3381  1.7183
  859MOL0     H15927  10.581   3.582  11.501 -2.5580  4.5730  0.1503
  859MOL0     H15928  10.533   3.436  11.577 -0.1494 -0.9142 -2.6106
  859MOL0     H15929  10.880   3.416  11.807  0.1020  0.6645  0.9435
  859MOL0     H15930  11.076   3.308  11.906  0.7824 -0.3210  0.7175
  859MOL0     H15931  11.391   3.406  12.209 -0.3041 -0.4984  1.1347
  859MOL0     H15932  11.280   3.553  12.198 -1.8642 -0.4177 -0.3560
  859MOL0     H15933  11.131   3.435  12.372 -0.5736  0.3534 -0.0232
  859MOL0     H15934  11.255   3.303  12.391  1.2919  0.0337 -1.0881
  859MOL0     H15935  11.291   3.592  12.451 -0.4011 -0.2387 -3.7596
  859MOL0     H15936  11.423   3.489  12.424  0.6488  1.2320  2.3713
  859MOL0     H15937  11.214   3.472  12.631  1.3746  1.7300  1.3154
  859MOL0     H15938  11.317   3.324  12.595 -1.4238 -0.4293  1.6599
  859MOL0     H15939  11.414   3.616  12.647 -2.2725 -0.7841 -1.6390
  859MOL0     H15940  11.516   3.463  12.665  1.0274  1.5471  3.7690
  859MOL0     H15941  11.273   3.542  12.832 -0.5126 -0.4960 -1.6083
  859MOL0     H15942  11.369   3.396  12.850  1.9033 -1.7832 -3.5049
  859MOL0     H15943  11.501   3.674  12.876  0.1354  0.5562  0.7136
  859MOL0     H15944  11.551   3.521  12.935 -0.2970 -0.4886 -1.7849
  859MOL0     H15945  11.379   3.515  13.108  1.9012 -0.4475  0.0517
  859MOL0     H15946  11.298   3.662  13.035  1.2043  2.0364 -2.6217
  859MOL0     H15947  11.067   3.600  12.229 -0.7740  0.7581  0.7204
  859MOL0     H15948  10.834   3.665  12.148 -0.3674 -0.8182 -1.9915
  859MOL0     H15949  10.525   3.701  12.006 -0.2412  1.6052  0.4208
  859MOL0     H15950  10.309   3.754  12.017  0.3546  0.2857  0.1420
  859MOL0     H15951   9.963   4.338  10.547  0.3144 -1.6863  1.4935
  859MOL0     H15952  10.031   4.577  10.499 -0.8932 -1.5939 -3.3583
  859MOL0     H15953  10.249   4.935  10.136 -0.8095  1.1579 -0.4511
  859MOL0     H15954  10.363   5.125  10.121 -1.8481  0.6563  0.3140
  859MOL0     H15955  10.534   5.304  10.461  0.4245  0.2022  0.2872
  859MOL0     H15956  10.692   5.227  10.428 -0.4785 -0.8140 -2.1536
  859MOL0     H15957  10.647   5.491  10.417 -2.3948 -0.0937  0.9380
  859MOL0     H15958  10.583   5.461  10.256  2.0903  2.6708  0.6247
  859MOL0     H15959  10.790   5.369  10.163 -0.8135 -0.5326  0.0767
  859MOL0     H15960  10.865   5.362  10.319  0.8621 -1.4316 -2.5660
  859MOL0     H15961  10.860   5.591  10.352  1.9773 -3.5329  0.0841
  859MOL0     H15962  10.757   5.616  10.194 -1.6802 -1.1926 -0.3869
  859MOL0     H15963  11.105   5.528  10.006 -2.3491  2.8941 -3.3907
  859MOL0     H15964  10.578   5.028  10.485 -1.6218  0.0348  0.0838
  859MOL0     H15965  10.464   4.838  10.504 -0.4030  2.8368  1.3215
  860MOL0     O15966   7.908  10.148   3.270  0.1452  0.6673  0.6699
  860MOL0     C15967   7.892  10.187   3.157 -0.3622 -0.6163  0.3018
  860MOL0     O15968   7.830  10.131   3.052  0.1491  0.1008  0.3044
  860MOL0     C15969   7.754  10.023   3.068  0.3424  0.3571 -0.6875
  860MOL0     C15970   7.794   9.894   3.043  0.0232  0.5547  0.5103
  860MOL0     C15971   7.687   9.795   3.044 -0.1203  0.0607 -0.1499
  860MOL0     C15972   7.559   9.832   3.091 -0.0259 -0.5556  0.6601
  860MOL0     O15973   7.474   9.735   3.120 -0.0506  0.9014 -0.7245
  860MOL0     C15974   7.334   9.755   3.064 -0.3166  0.0232  0.3334
  860MOL0     C15975   7.287   9.627   2.991  0.4087 -0.0283  0.4763
  860MOL0     C15976   7.377   9.626   2.866 -0.6118 -0.0824 -0.6421
  860MOL0     C15977   7.379   9.486   2.808 -0.3112  0.0527  0.1266
  860MOL0     C15978   7.440   9.473   2.668 -0.9065  0.2711 -0.1022
  860MOL0     C15979   7.427   9.337   2.590 -0.4502  0.9060  0.2445
  860MOL0     C15980   7.489   9.205   2.662  0.5904  0.2486  0.2489
  860MOL0     C15981   7.476   9.089   2.569 -0.3547  0.1518  0.2918
  860MOL0     N15982   7.336   9.049   2.557  0.0708  0.4400 -0.1676
  860MOL0     C15983   7.298   8.962   2.457 -0.1646  0.2833  0.8046
  860MOL0     C15984   7.178   8.912   2.509 -0.2754 -0.0370 -0.6079
  860MOL0     C15985   7.092   8.798   2.462  0.4672  0.0480 -0.8070
  860MOL0     C15986   7.170   8.681   2.406  0.3803 -0.2911 -0.0500
  860MOL0     C15987   7.194   8.576   2.515 -0.0718  0.2120  0.8815
  860MOL0     C15988   7.320   8.496   2.460  0.6929 -0.0187 -0.3626
  860MOL0     O15989   7.440   8.576   2.486 -0.0208 -0.3357 -0.5565
  860MOL0     C15990   7.533   8.616   2.386  0.2601 -1.2132 -1.2169
  860MOL0     C15991   7.614   8.724   2.416  0.2622  0.1820  0.3291
  860MOL0     C15992   7.701   8.791   2.333 -0.3982  0.4802  0.4334
  860MOL0     C15993   7.786   8.913   2.381  0.3744 -0.1924  1.1440
  860MOL0     C15994   7.711   8.735   2.200  0.6384 -0.5785 -0.1194
  860MOL0     C15995   7.786   8.788   2.093  0.0867  0.2417  0.1072
  860MOL0     O15996   7.849   8.911   2.111  0.6049  0.0624  0.8687
  860MOL0     C15997   7.851   9.000   2.003  0.2037  0.1076  0.0395
  860MOL0     C15998   7.749   9.014   1.907  0.2052  0.2324 -0.7191
  860MOL0     C15999   7.753   9.123   1.820  0.6552 -0.1640 -0.0203
  860MOL0     C16000   7.872   9.203   1.818  0.7731  0.6859 -0.7547
  860MOL0     O16001   7.877   9.297   1.728 -0.5715  0.0629  0.1831
  860MOL0     C16002   7.975   9.404   1.725 -0.0361 -0.2478 -0.7581
  860MOL0     C16003   7.922   9.539   1.782  0.1284  0.2438 -0.0349
  860MOL0     C16004   7.883   9.544   1.928  0.7047  0.0471 -0.5669
  860MOL0     C16005   8.014   9.579   2.011  0.7281 -0.1282 -0.4363
  860MOL0     C16006   7.971   9.597   2.153  0.2269 -0.4318 -0.1323
  860MOL0     C16007   7.931   9.466   2.227 -0.3182  0.3215  1.4470
  860MOL0     C16008   7.929   9.482   2.380  0.4230 -0.0512 -0.1039
  860MOL0     C16009   7.919   9.350   2.444 -0.1159 -0.2987 -0.4919
  860MOL0    Cl16010   7.761   9.257   2.428 -0.1446  0.0114 -0.5373
  860MOL0     C16011   7.969   9.185   1.916 -0.5034 -0.0060 -0.1037
  860MOL0     C16012   7.959   9.087   2.003  0.3410 -0.0591 -0.0204
  860MOL0     O16013   7.785   8.730   1.984 -0.1893  0.8465  0.5094
  860MOL0     C16014   7.638   8.613   2.174  0.3527 -0.1574  0.2652
  860MOL0     C16015   7.539   8.562   2.259  0.6601 -0.1447 -0.0693
  860MOL0     N16016   7.150   8.970   2.636  0.0347  0.0269 -0.3350
  860MOL0     N16017   7.246   9.056   2.660  0.4712 -0.0780  1.5070
  860MOL0     C16018   7.530   9.963   3.110 -0.4529  0.4645 -0.4623
  860MOL0     C16019   7.625  10.055   3.105  0.4477  0.0307  0.4565
  860MOL0     C16020   7.958  10.321   3.132 -0.1752 -0.1399  0.7015
  860MOL0     C16021   8.038  10.391   3.233  0.2774  0.4184  0.5102
  860MOL0     C16022   8.058  10.527   3.215  0.1936  0.0122  0.4829
  860MOL0     C16023   8.050  10.579   3.088  0.7203  0.6386  0.1851
  860MOL0     O16024   8.066  10.713   3.058 -0.1664  0.0593 -1.0371
  860MOL0     C16025   8.123  10.802   3.157 -0.3452  0.3554 -0.0217
  860MOL0     C16026   8.127  10.947   3.110  0.0417 -0.3946 -0.1642
  860MOL0     C16027   8.229  10.951   2.998  0.0637 -0.2064  0.9740
  860MOL0     C16028   8.260  11.081   2.924 -1.0172 -0.2502  0.2598
  860MOL0     C16029   8.160  11.184   2.953  0.4000 -0.1334  0.5099
  860MOL0     C16030   8.080  11.267   2.992  1.1236  0.3881 -0.8669
  860MOL0     C16031   7.992  10.499   2.988 -0.9671  0.4393 -0.0916
  860MOL0     C16032   7.943  10.381   3.002 -0.1643  0.1714 -0.6881
  860MOL0     H16033   7.895   9.858   3.022  0.3972  1.8566  0.0356
  860MOL0     H16034   7.717   9.692   3.030 -0.2708  0.1252 -1.0449
  860MOL0     H16035   7.256   9.788   3.134  0.0221  5.8801 -1.4749
  860MOL0     H16036   7.338   9.834   2.988 -1.6721  1.0905  1.3128
  860MOL0     H16037   7.295   9.539   3.056 -2.5998 -1.2910 -0.6620
  860MOL0     H16038   7.186   9.641   2.952  0.0731 -4.3009 -0.7226
  860MOL0     H16039   7.344   9.697   2.789 -0.1982 -2.4029 -3.1073
  860MOL0     H16040   7.481   9.657   2.879  0.7212 -4.1708 -0.2707
  860MOL0     H16041   7.424   9.416   2.879  2.0998  1.6682  0.3113
  860MOL0     H16042   7.275   9.453   2.797 -0.1950 -0.5368  0.6809
  860MOL0     H16043   7.402   9.554   2.605  0.5078  0.3640 -0.8651
  860MOL0     H16044   7.545   9.500   2.677 -0.1825 -2.5733  1.1087
  860MOL0     H16045   7.320   9.315   2.587 -0.3171  0.2287 -2.8209
  860MOL0     H16046   7.458   9.340   2.485 -1.3712  1.2566 -0.0265
  860MOL0     H16047   7.594   9.226   2.684  2.0664 -1.3839 -4.1451
  860MOL0     H16048   7.437   9.178   2.754 -0.7766 -2.9554 -1.3081
  860MOL0     H16049   7.547   9.013   2.602 -0.4015  0.7603  1.8593
  860MOL0     H16050   7.512   9.122   2.471 -2.3878  1.4989 -0.0622
  860MOL0     H16051   7.357   8.936   2.370 -0.7131  2.5138 -0.3203
  860MOL0     H16052   7.028   8.768   2.546  1.3198 -2.2396 -0.9044
  860MOL0     H16053   7.029   8.847   2.387  0.6395  0.1611 -0.8810
  860MOL0     H16054   7.264   8.707   2.356 -0.4057 -0.2435 -1.5553
  860MOL0     H16055   7.117   8.641   2.320  0.7462  2.5011 -1.6973
  860MOL0     H16056   7.105   8.513   2.513  1.3820 -1.9547 -0.9714
  860MOL0     H16057   7.207   8.622   2.613 -2.5401  1.0630  0.8861
  860MOL0     H16058   7.309   8.460   2.357  2.1844 -1.0130 -0.2091
  860MOL0     H16059   7.328   8.414   2.532 -1.9601  1.8675  2.2970
  860MOL0     H16060   7.589   8.773   2.509  0.9481  1.0066  0.0886
  860MOL0     H16061   7.789   8.908   2.490 -0.8374 -1.2951  1.1517
  860MOL0     H16062   7.888   8.914   2.341  0.4064  3.3911  1.0020
  860MOL0     H16063   7.735   9.004   2.348 -0.4666  0.6816  4.4801
  860MOL0     H16064   7.671   8.938   1.910 -0.3600  0.8266  0.5641
  860MOL0     H16065   7.680   9.141   1.742 -0.0514  3.6905  1.2916
  860MOL0     H16066   8.070   9.392   1.776 -0.3621 -0.7869 -0.2683
  860MOL0     H16067   8.018   9.411   1.625  2.6007  0.1689  0.3304
  860MOL0     H16068   7.982   9.622   1.744  1.2532 -0.2253  0.6658
  860MOL0     H16069   7.829   9.562   1.728  0.6269 -1.5034 -1.7848
  860MOL0     H16070   7.825   9.457   1.961 -0.5475  1.3497  0.8488
  860MOL0     H16071   7.819   9.633   1.929 -0.5798 -0.8317 -1.6294
  860MOL0     H16072   8.066   9.483   2.010 -0.9874 -1.0972  0.1987
  860MOL0     H16073   8.056   9.670   1.967 -1.6118  1.7892  1.0675
  860MOL0     H16074   7.883   9.661   2.152  0.1496 -0.5050  0.8788
  860MOL0     H16075   8.058   9.638   2.206 -0.1069  0.0935  0.0063
  860MOL0     H16076   7.834   9.431   2.192  0.0000  0.9181 -0.1282
  860MOL0     H16077   8.003   9.386   2.203 -1.3097 -0.0853 -0.3782
  860MOL0     H16078   7.845   9.544   2.412 -0.5572 -1.1639 -0.4937
  860MOL0     H16079   8.020   9.523   2.426 -0.5980 -0.1135  2.1346
  860MOL0     H16080   7.928   9.379   2.549 -1.0959  3.2604 -1.2464
  860MOL0     H16081   8.009   9.292   2.421  0.4240  1.1115 -2.2570
  860MOL0     H16082   8.059   9.246   1.926 -0.2687 -0.2890 -0.4841
  860MOL0     H16083   8.032   9.078   2.082 -1.1355 -2.2751  1.1781
  860MOL0     H16084   7.644   8.569   2.075 -0.7008 -0.1453  0.1942
  860MOL0     H16085   7.477   8.477   2.233 -0.1434 -0.2090  1.8632
  860MOL0     H16086   7.426   9.990   3.125  0.1042  2.1456  0.5754
  860MOL0     H16087   7.585  10.156   3.100 -0.2614 -0.2185  0.9156
  860MOL0     H16088   8.064  10.357   3.334 -0.5369  3.5210  1.8696
  860MOL0     H16089   8.103  10.584   3.296  1.1346  2.4779 -1.6372
  860MOL0     H16090   8.087  10.792   3.260  0.6218  1.6521  0.4723
  860MOL0     H16091   8.227  10.772   3.173 -0.7663 -0.7525  0.7323
  860MOL0     H16092   8.152  11.001   3.202 -1.7782 -1.1143  0.8137
  860MOL0     H16093   8.029  10.973   3.070  0.8233  0.4195 -1.6118
  860MOL0     H16094   8.194  10.880   2.922 -0.6206  1.4269 -0.3006
  860MOL0     H16095   8.330  10.928   3.033  1.2850 -0.1726 -2.1614
  860MOL0     H16096   8.267  11.048   2.820  1.6904 -3.5181  1.3006
  860MOL0     H16097   8.361  11.112   2.952 -0.5060 -0.7787 -0.9609
  860MOL0     H16098   7.999  11.332   3.019 -0.4863 -3.5109  6.3217
  860MOL0     H16099   7.993  10.538   2.886 -1.1010 -1.2801 -0.7790
  860MOL0     H16100   7.881  10.334   2.926 -0.1383 -2.4857  0.7832
  861MOL0     O16101   1.548   7.853   0.723  0.2337 -0.6680 -0.1468
  861MOL0     C16102   1.672   7.865   0.729  0.3713 -0.5393  0.4821
  861MOL0     O16103   1.760   7.808   0.825 -0.0380  0.1291 -0.4685
  861MOL0     C16104   1.718   7.719   0.908  0.1550  1.1637 -0.0465
  861MOL0     C16105   1.620   7.625   0.882 -0.4626  0.5174  1.0473
  861MOL0     C16106   1.585   7.529   0.981  0.8733  0.4234 -0.1593
  861MOL0     C16107   1.636   7.535   1.109  0.0862  0.6417  0.0540
  861MOL0     O16108   1.586   7.435   1.195  0.5725 -0.4142 -0.5845
  861MOL0     C16109   1.589   7.447   1.335 -0.2362  0.0352 -0.1515
  861MOL0     C16110   1.486   7.351   1.401  1.1470  0.0836  0.1239
  861MOL0     C16111   1.342   7.354   1.338  0.0487  0.1996  0.1730
  861MOL0     C16112   1.222   7.321   1.419  1.0151 -0.4011 -0.2363
  861MOL0     C16113   1.232   7.222   1.538  1.2156  0.2113 -0.4624
  861MOL0     C16114   1.258   7.079   1.500 -0.2718  0.5118 -0.8985
  861MOL0     C16115   1.205   6.981   1.599  0.6777 -0.0870  0.0597
  861MOL0     C16116   1.217   6.840   1.558 -0.5264  0.4683  0.1433
  861MOL0     N16117   1.134   6.804   1.442 -0.3966 -0.0489 -0.1201
  861MOL0     C16118   1.023   6.872   1.397  0.5358 -0.7664  0.8126
  861MOL0     C16119   0.988   6.804   1.284 -0.5335 -0.1233  0.3062
  861MOL0     C16120   0.882   6.853   1.186  0.4642  0.1808  0.2358
  861MOL0     C16121   0.740   6.805   1.219  0.5058  0.4574  1.0938
  861MOL0     C16122   0.690   6.873   1.347 -0.4640 -0.4882  0.3542
  861MOL0     C16123   0.540   6.820   1.366 -0.5648  0.4846  0.0050
  861MOL0     O16124   0.473   6.882   1.478  0.6298 -0.1557 -0.1762
  861MOL0     C16125   0.347   6.835   1.507  0.0335 -0.5037  0.5928
  861MOL0     C16126   0.276   6.909   1.598  0.2099  0.6082 -0.3899
  861MOL0     C16127   0.154   6.873   1.649  0.5228 -0.4613  0.3466
  861MOL0     C16128   0.089   6.967   1.743 -0.0947 -0.3691 -0.0995
  861MOL0     C16129   0.097   6.752   1.600 -0.3453 -0.5338 -0.4534
  861MOL0     C16130  -0.038   6.714   1.630 -0.8587  0.2585 -0.5983
  861MOL0     O16131  -0.066   6.580   1.656 -0.8947 -0.6823 -0.2825
  861MOL0     C16132  -0.192   6.536   1.649 -0.1398  0.2560  0.0590
  861MOL0     C16133  -0.278   6.546   1.538  0.3507 -0.2090 -0.5916
  861MOL0     C16134  -0.417   6.512   1.544 -0.4791  0.1107 -0.2269
  861MOL0     C16135  -0.475   6.481   1.666  0.2647  0.2376 -0.7524
  861MOL0     O16136  -0.610   6.465   1.677  0.6742  0.4607  0.3468
  861MOL0     C16137  -0.688   6.372   1.593 -0.4180 -0.4987  0.2122
  861MOL0     C16138  -0.832   6.417   1.578 -0.2741 -0.7777  0.2758
  861MOL0     C16139  -0.847   6.569   1.539  0.0327 -0.5179 -0.8516
  861MOL0     C16140  -0.856   6.591   1.395  0.2836 -0.0555  0.8218
  861MOL0     C16141  -0.876   6.737   1.348 -0.3480 -0.2423 -0.0428
  861MOL0     C16142  -0.780   6.844   1.412  0.3715 -0.0272  0.4961
  861MOL0     C16143  -0.634   6.831   1.376  0.5288 -0.8390  0.3615
  861MOL0     C16144  -0.552   6.911   1.485 -0.0711 -0.0281  0.3407
  861MOL0    Cl16145  -0.625   7.071   1.527 -0.0201 -0.5864  0.0366
  861MOL0     C16146  -0.398   6.480   1.776  0.9017  0.0986  0.3142
  861MOL0     C16147  -0.258   6.502   1.772 -0.1013 -0.2215 -0.1000
  861MOL0     O16148  -0.122   6.795   1.600 -0.2737  0.1286 -0.6464
  861MOL0     C16149   0.174   6.670   1.520  0.5078 -0.0259 -0.2361
  861MOL0     C16150   0.292   6.710   1.460  0.9025 -0.3325  0.0459
  861MOL0     N16151   1.078   6.705   1.257  0.0128 -0.2653 -0.7467
  861MOL0     N16152   1.159   6.694   1.355 -0.1417 -0.2871 -0.2759
  861MOL0     C16153   1.736   7.621   1.136 -0.1103 -0.7012 -0.1385
  861MOL0     C16154   1.772   7.719   1.040  0.2711 -0.1854  0.4686
  861MOL0     C16155   1.732   7.965   0.638 -0.0250 -0.8633  0.4009
  861MOL0     C16156   1.875   7.988   0.649 -0.5510 -0.1483  0.4494
  861MOL0     C16157   1.945   8.078   0.557  0.5645 -0.0269  0.4354
  861MOL0     C16158   1.872   8.154   0.469 -0.8287  0.0240  1.2315
  861MOL0     O16159   1.939   8.244   0.395  0.2879 -0.6310  0.4186
  861MOL0     C16160   1.871   8.321   0.289  0.9914  0.0193  0.4027
  861MOL0     C16161   1.973   8.386   0.197  0.2985 -0.2411 -0.0953
  861MOL0     C16162   2.034   8.289   0.091  0.0095 -0.1204  0.3359
  861MOL0     C16163   2.135   8.387   0.026  0.1135  0.1066 -0.1850
  861MOL0     C16164   2.221   8.328  -0.078 -0.1511 -0.5114  1.4803
  861MOL0     C16165   2.317   8.299  -0.148 -0.2821 -0.6974  0.3034
  861MOL0     C16166   1.737   8.137   0.462 -0.1257  0.2170  0.2131
  861MOL0     C16167   1.665   8.034   0.538  0.1301  0.2630  0.2610
  861MOL0     H16168   1.572   7.622   0.784 -0.3066 -0.7195  0.9969
  861MOL0     H16169   1.503   7.461   0.960  0.6771  0.2337  1.0975
  861MOL0     H16170   1.692   7.425   1.365 -0.2342 -0.6709 -0.6591
  861MOL0     H16171   1.557   7.549   1.361 -1.4313 -0.7832  1.7351
  861MOL0     H16172   1.527   7.253   1.372  0.8269  0.7669 -2.9317
  861MOL0     H16173   1.476   7.363   1.510 -1.8494 -4.4438  0.6449
  861MOL0     H16174   1.330   7.457   1.302 -2.1802  0.6917  2.0990
  861MOL0     H16175   1.344   7.304   1.240 -0.4233  2.4573 -1.0723
  861MOL0     H16176   1.171   7.408   1.460 -2.5153 -2.1545 -0.5469
  861MOL0     H16177   1.142   7.286   1.354 -0.9752  1.6837  0.9458
  861MOL0     H16178   1.300   7.256   1.617  3.1789  0.4693 -2.1714
  861MOL0     H16179   1.135   7.214   1.586  1.5646 -1.0147  0.0724
  861MOL0     H16180   1.197   7.063   1.411 -1.0082 -1.0809 -0.1458
  861MOL0     H16181   1.364   7.069   1.472 -0.0443 -2.1125  0.6265
  861MOL0     H16182   1.267   6.992   1.688  0.2909 -0.5462  0.3903
  861MOL0     H16183   1.098   6.996   1.615 -0.2988 -3.7138 -1.8834
  861MOL0     H16184   1.193   6.776   1.643 -2.2949  0.6985 -0.1384
  861MOL0     H16185   1.318   6.823   1.520 -1.6855  1.2798 -3.7864
  861MOL0     H16186   0.991   6.971   1.428 -0.9924 -1.0139  0.0765
  861MOL0     H16187   0.889   6.962   1.179  0.6137  0.0918 -1.7558
  861MOL0     H16188   0.912   6.819   1.086 -1.7290 -0.9906 -0.0687
  861MOL0     H16189   0.758   6.700   1.243  0.5385  0.7690  2.5424
  861MOL0     H16190   0.681   6.830   1.130  1.5275  0.3609  0.3782
  861MOL0     H16191   0.688   6.983   1.347 -0.5428 -0.4894  0.2613
  861MOL0     H16192   0.756   6.846   1.430  2.2213  0.0220 -1.5066
  861MOL0     H16193   0.550   6.713   1.385 -1.5961  0.6341  1.5936
  861MOL0     H16194   0.491   6.859   1.276 -1.2739 -2.2715 -0.8850
  861MOL0     H16195   0.327   7.002   1.621  1.1503  0.0355 -0.0955
  861MOL0     H16196   0.049   7.050   1.684  1.0410 -0.4515 -1.0106
  861MOL0     H16197  -0.001   6.927   1.790 -0.7597  0.5156 -0.5781
  861MOL0     H16198   0.159   6.994   1.823  0.7148 -1.8504 -0.2778
  861MOL0     H16199  -0.234   6.573   1.442  1.0299 -2.6713 -1.0304
  861MOL0     H16200  -0.474   6.526   1.453  0.6095 -3.0587 -1.5098
  861MOL0     H16201  -0.643   6.352   1.496  0.6564  0.1880  0.5585
  861MOL0     H16202  -0.691   6.278   1.650 -1.5281 -0.2952  0.5122
  861MOL0     H16203  -0.880   6.351   1.505 -0.2896 -0.3392 -0.1110
  861MOL0     H16204  -0.890   6.394   1.668 -3.7804 -0.3670 -1.7234
  861MOL0     H16205  -0.761   6.629   1.572  1.1427 -2.0450 -0.8377
  861MOL0     H16206  -0.939   6.605   1.585  0.4518 -1.7120  1.0551
  861MOL0     H16207  -0.768   6.549   1.346  0.5488 -0.9035  1.9832
  861MOL0     H16208  -0.944   6.534   1.363  0.6425 -0.7085  0.9853
  861MOL0     H16209  -0.981   6.767   1.357  0.1726  1.3440  1.2851
  861MOL0     H16210  -0.861   6.731   1.239 -1.1939  1.0890 -0.2517
  861MOL0     H16211  -0.823   6.937   1.374 -1.1636 -0.6341  0.6607
  861MOL0     H16212  -0.780   6.847   1.521  0.7962  0.6010  0.4784
  861MOL0     H16213  -0.624   6.886   1.282 -0.1039  1.4017  1.5571
  861MOL0     H16214  -0.597   6.729   1.360 -0.5547 -0.8558 -2.7669
  861MOL0     H16215  -0.453   6.929   1.443 -0.3661 -0.8907 -0.7746
  861MOL0     H16216  -0.542   6.850   1.576  1.4273 -0.6188 -0.1858
  861MOL0     H16217  -0.445   6.478   1.874  3.0329  0.5011  1.3947
  861MOL0     H16218  -0.209   6.507   1.868  0.3287  0.0790 -0.3330
  861MOL0     H16219   0.128   6.579   1.485  1.9329 -1.9971  2.6094
  861MOL0     H16220   0.338   6.641   1.390  4.8642  2.1893 -0.1633
  861MOL0     H16221   1.788   7.605   1.230 -1.1965  0.8055  0.7583
  861MOL0     H16222   1.856   7.785   1.064 -0.3457  0.6413  0.4094
  861MOL0     H16223   1.926   7.936   0.730 -0.4476 -0.3845  0.2337
  861MOL0     H16224   2.053   8.090   0.559  1.2975 -3.6246 -3.4392
  861MOL0     H16225   1.806   8.254   0.232  0.2099  0.1253  1.1436
  861MOL0     H16226   1.804   8.389   0.342  0.9897  1.5626 -1.4864
  861MOL0     H16227   2.035   8.441   0.268 -0.5737 -0.8876  1.1936
  861MOL0     H16228   1.921   8.468   0.146  1.1994 -0.9854 -2.3214
  861MOL0     H16229   1.968   8.258   0.009 -1.1462  0.3196  1.0827
  861MOL0     H16230   2.079   8.204   0.143  1.6542  0.4362 -0.1201
  861MOL0     H16231   2.202   8.437   0.097  0.5269 -2.7585  1.6121
  861MOL0     H16232   2.078   8.443  -0.049 -1.5618 -2.5476 -1.0456
  861MOL0     H16233   2.398   8.260  -0.207 -0.2513 -5.4208  2.9243
  861MOL0     H16234   1.677   8.197   0.394  2.3809  3.4641  0.6090
  861MOL0     H16235   1.561   8.012   0.517 -0.4148  0.1300  2.7234
  862MOL0     O16236   7.159   5.583   9.539  0.8327 -0.4323  0.2607
  862MOL0     C16237   7.187   5.643   9.640  0.5205  0.0307 -0.1913
  862MOL0     O16238   7.183   5.592   9.774  0.5994 -0.0955  0.1120
  862MOL0     C16239   7.132   5.462   9.784  0.6468 -0.6066 -0.8417
  862MOL0     C16240   7.004   5.414   9.759  0.4044  0.6407  0.6898
  862MOL0     C16241   6.969   5.277   9.777  0.6315  0.0967  0.1967
  862MOL0     C16242   7.068   5.195   9.815 -0.5498  0.8152 -0.1726
  862MOL0     O16243   7.053   5.058   9.825 -0.5794  0.1188 -0.3892
  862MOL0     C16244   6.925   4.991   9.842 -0.4620 -0.8610  0.4168
  862MOL0     C16245   6.868   4.930   9.711  0.6657  0.2523 -0.9104
  862MOL0     C16246   6.946   4.808   9.674 -0.5735 -0.1752  0.0539
  862MOL0     C16247   7.055   4.826   9.571  0.4014  0.8471  0.6445
  862MOL0     C16248   7.158   4.711   9.543 -0.0235 -0.7019  0.6913
  862MOL0     C16249   7.225   4.667   9.674  0.1341 -0.4172  0.0148
  862MOL0     C16250   7.369   4.620   9.642 -0.6075  1.1388  0.0671
  862MOL0     C16251   7.462   4.652   9.760  0.7148 -0.0810 -1.0171
  862MOL0     N16252   7.486   4.799   9.779 -0.2801 -0.8107 -0.2270
  862MOL0     C16253   7.509   4.895   9.682  0.1152 -0.7021  0.6508
  862MOL0     C16254   7.496   5.014   9.744 -0.1755  0.1610 -0.4311
  862MOL0     C16255   7.498   5.152   9.682  0.3598 -0.3220 -0.0213
  862MOL0     C16256   7.572   5.267   9.758 -0.2115 -0.5811 -0.0397
  862MOL0     C16257   7.718   5.285   9.749 -0.2833  0.5261 -0.7841
  862MOL0     C16258   7.783   5.270   9.611 -0.3041  0.1396  1.4265
  862MOL0     O16259   7.918   5.334   9.619 -0.3441  0.1341  0.3048
  862MOL0     C16260   8.022   5.244   9.649  0.7119  0.1987  0.1382
  862MOL0     C16261   8.082   5.273   9.770 -0.1469  0.3474  0.4526
  862MOL0     C16262   8.187   5.188   9.814 -0.6003 -0.8013  1.0258
  862MOL0     C16263   8.237   5.220   9.949 -0.5005  0.6946 -0.5543
  862MOL0     C16264   8.236   5.077   9.735 -0.2196  0.1486  0.6160
  862MOL0     C16265   8.350   4.987   9.775 -0.0479 -0.3397 -0.1892
  862MOL0     O16266   8.393   4.893   9.681 -0.3911 -0.6426 -0.0287
  862MOL0     C16267   8.508   4.822   9.711  0.3753  0.4003  0.1367
  862MOL0     C16268   8.506   4.698   9.786  0.6698  0.1873  0.2462
  862MOL0     C16269   8.628   4.621   9.802 -0.5343 -0.7252  0.6432
  862MOL0     C16270   8.747   4.680   9.760  0.2872 -0.0644  0.4044
  862MOL0     O16271   8.871   4.626   9.769  0.5834  0.0628  0.0722
  862MOL0     C16272   8.890   4.517   9.860  0.5668 -1.1336 -0.4129
  862MOL0     C16273   9.037   4.514   9.897  0.4435  0.3296  0.3510
  862MOL0     C16274   9.080   4.635   9.980  0.2785 -0.6316  0.1064
  862MOL0     C16275   9.222   4.600  10.039 -0.0327 -0.2382 -0.6036
  862MOL0     C16276   9.285   4.710  10.113 -0.0588 -1.0776 -0.6224
  862MOL0     C16277   9.433   4.711  10.125 -0.4606 -0.7419 -0.7501
  862MOL0     C16278   9.502   4.719   9.992  0.2466  0.2098 -0.0667
  862MOL0     C16279   9.459   4.840   9.904 -0.1958  0.3640 -0.3039
  862MOL0    Cl16280   9.545   4.988   9.967 -0.4612 -0.1106 -0.0756
  862MOL0     C16281   8.747   4.802   9.701  0.7904  0.1521 -0.5336
  862MOL0     C16282   8.625   4.869   9.672 -0.1755  1.0068 -0.1987
  862MOL0     O16283   8.380   4.983   9.894  0.1378 -0.1315  0.6900
  862MOL0     C16284   8.165   5.052   9.609 -1.1438 -0.6115  0.8610
  862MOL0     C16285   8.059   5.132   9.573  0.6608 -0.9367  1.2928
  862MOL0     N16286   7.481   4.991   9.876  0.2917  0.5966 -0.3592
  862MOL0     N16287   7.484   4.867   9.901 -0.4028 -0.0707  0.0368
  862MOL0     C16288   7.192   5.242   9.846 -0.3318 -0.2744 -0.2484
  862MOL0     C16289   7.231   5.374   9.839 -0.6322 -0.3555  0.0888
  862MOL0     C16290   7.198   5.785   9.628  1.1806  0.5815 -1.2365
  862MOL0     C16291   7.219   5.842   9.505 -0.2823  0.5196 -0.8602
  862MOL0     C16292   7.226   5.976   9.497 -0.3177 -0.6453  0.3026
  862MOL0     C16293   7.225   6.065   9.603 -0.4570  0.4783  0.7811
  862MOL0     O16294   7.229   6.194   9.567 -0.1694  0.0153 -0.3154
  862MOL0     C16295   7.173   6.282   9.668  0.0061  0.1760  0.2087
  862MOL0     C16296   7.142   6.423   9.601 -0.6192 -0.5526 -0.3228
  862MOL0     C16297   7.235   6.487   9.491 -0.0219 -0.4559 -0.7021
  862MOL0     C16298   7.377   6.516   9.532  0.4212  0.4233 -0.6166
  862MOL0     C16299   7.383   6.621   9.644  0.7964  0.5154 -0.0806
  862MOL0     C16300   7.386   6.713   9.727 -0.0505  0.3458 -0.0005
  862MOL0     C16301   7.220   6.004   9.738  0.4678 -0.9967  0.0888
  862MOL0     C16302   7.203   5.865   9.749  1.2341 -0.4543 -0.9739
  862MOL0     H16303   6.938   5.485   9.709 -1.0526 -0.2287  1.3077
  862MOL0     H16304   6.876   5.231   9.746 -0.2978  0.8481  1.7511
  862MOL0     H16305   6.941   4.909   9.914 -1.4608 -0.3097  1.3079
  862MOL0     H16306   6.853   5.059   9.889 -2.6502 -1.6194 -1.6343
  862MOL0     H16307   6.765   4.908   9.740  1.8187 -0.1413  3.5080
  862MOL0     H16308   6.869   4.999   9.626  0.3650 -0.5416 -1.5736
  862MOL0     H16309   6.994   4.751   9.754  1.6694 -0.7893 -1.5927
  862MOL0     H16310   6.869   4.743   9.631 -0.3102  0.0109 -0.7161
  862MOL0     H16311   6.996   4.849   9.481  0.6304  0.4626  0.3928
  862MOL0     H16312   7.120   4.908   9.600  3.0021 -0.8383 -0.1002
  862MOL0     H16313   7.115   4.619   9.502 -1.3290 -1.4220  3.4822
  862MOL0     H16314   7.231   4.763   9.480  0.5930 -1.0170  1.1360
  862MOL0     H16315   7.215   4.748   9.747 -2.6231 -1.5723  1.0719
  862MOL0     H16316   7.166   4.585   9.715 -1.8077 -0.4592 -2.5933
  862MOL0     H16317   7.366   4.511   9.631 -0.1109  0.8857  2.0498
  862MOL0     H16318   7.413   4.661   9.550 -0.6216 -2.3580 -1.6729
  862MOL0     H16319   7.551   4.599   9.724 -0.0719 -1.4453 -0.9888
  862MOL0     H16320   7.423   4.606   9.851 -0.2996  1.0663 -0.8473
  862MOL0     H16321   7.519   4.878   9.575 -0.7757  4.0531 -0.4021
  862MOL0     H16322   7.547   5.146   9.585  1.9584  1.5495  0.6058
  862MOL0     H16323   7.399   5.189   9.652 -0.6943 -0.2857  3.0777
  862MOL0     H16324   7.538   5.266   9.862 -0.5767  0.5374 -0.1337
  862MOL0     H16325   7.524   5.357   9.717  0.7654  0.1732  0.4102
  862MOL0     H16326   7.760   5.215   9.821  1.0588  0.2398 -1.7923
  862MOL0     H16327   7.750   5.383   9.786  0.5765  0.2124 -0.6682
  862MOL0     H16328   7.726   5.321   9.533 -1.0206  2.3765  3.3103
  862MOL0     H16329   7.791   5.167   9.576  3.9445  0.6150  0.3928
  862MOL0     H16330   8.046   5.360   9.825 -0.6169  2.1700 -2.5295
  862MOL0     H16331   8.203   5.142  10.018  0.2785 -0.9858 -1.9961
  862MOL0     H16332   8.346   5.225   9.943 -0.4548 -0.8186 -1.4311
  862MOL0     H16333   8.201   5.315   9.990  1.7200  0.3823  2.4000
  862MOL0     H16334   8.409   4.666   9.825  1.2017  0.7631  2.1398
  862MOL0     H16335   8.619   4.521   9.844 -1.4432 -1.1018 -0.3805
  862MOL0     H16336   8.837   4.532   9.954  2.2974 -0.7940  0.5391
  862MOL0     H16337   8.875   4.419   9.813  2.6350 -0.4841 -2.6217
  862MOL0     H16338   9.058   4.431   9.966  2.9875 -0.1506 -0.8595
  862MOL0     H16339   9.109   4.509   9.815  2.1402  0.2833  1.7759
  862MOL0     H16340   9.004   4.645  10.058  0.5778 -0.1862  0.3441
  862MOL0     H16341   9.087   4.726   9.919 -0.2993  0.5649  1.7772
  862MOL0     H16342   9.217   4.510  10.101  0.8341 -0.5619 -0.9894
  862MOL0     H16343   9.280   4.577   9.950 -1.3936 -0.6655 -1.4109
  862MOL0     H16344   9.240   4.718  10.212 -1.1293 -1.6516 -1.0548
  862MOL0     H16345   9.256   4.804  10.066 -0.5594 -0.7261  0.3535
  862MOL0     H16346   9.464   4.800  10.181  2.2882 -2.1612  0.1888
  862MOL0     H16347   9.460   4.614  10.169 -0.7355 -0.0058  1.1049
  862MOL0     H16348   9.487   4.624   9.941  1.8571 -0.2319  0.2321
  862MOL0     H16349   9.607   4.734  10.016  0.3419  1.5606 -1.2066
  862MOL0     H16350   9.353   4.859   9.884 -0.3644 -0.0146  0.1942
  862MOL0     H16351   9.508   4.822   9.808  1.9483  0.0099  0.7915
  862MOL0     H16352   8.846   4.842   9.683  1.5563 -0.0405  2.6841
  862MOL0     H16353   8.634   4.953   9.604  0.9626  0.0599 -1.2815
  862MOL0     H16354   8.191   4.982   9.531 -0.5355 -1.7266  2.0214
  862MOL0     H16355   8.015   5.140   9.474 -1.7470  0.1733  2.3720
  862MOL0     H16356   7.266   5.170   9.880  2.2543  2.5070  0.4279
  862MOL0     H16357   7.333   5.403   9.862 -0.3890 -2.5545  2.1207
  862MOL0     H16358   7.216   5.792   9.408 -0.7713  2.6608 -2.0222
  862MOL0     H16359   7.246   6.023   9.401  1.7944 -3.0115 -0.5326
  862MOL0     H16360   7.086   6.253   9.727  1.2569 -2.8686  0.7165
  862MOL0     H16361   7.248   6.297   9.747  1.2730  3.4254 -1.3925
  862MOL0     H16362   7.151   6.493   9.684 -3.8705 -0.6946  0.2812
  862MOL0     H16363   7.040   6.427   9.562  0.6711  2.1068 -3.9229
  862MOL0     H16364   7.193   6.583   9.458 -1.0586 -0.6179  0.0865
  862MOL0     H16365   7.238   6.424   9.401  0.4584  0.4790 -1.3617
  862MOL0     H16366   7.437   6.544   9.446 -0.1120  3.6172 -0.0683
  862MOL0     H16367   7.414   6.421   9.572  0.9466  0.6440 -0.5719
  862MOL0     H16368   7.376   6.800   9.788 -1.6149 -1.2983  2.2608
  862MOL0     H16369   7.234   6.066   9.826  1.9227 -0.8813 -0.1961
  862MOL0     H16370   7.174   5.821   9.844 -0.0349  1.5263 -0.3686
  863MOL0     O16371   2.811  10.426   7.415  0.6180 -0.2180 -0.8654
  863MOL0     C16372   2.745  10.534   7.405 -0.4041  1.1366  0.6517
  863MOL0     O16373   2.793  10.663   7.407  0.0353 -0.3089 -0.7320
  863MOL0     C16374   2.925  10.693   7.447  0.0195 -0.3709  0.8109
  863MOL0     C16375   2.989  10.623   7.549  0.5756  0.4427 -0.3601
  863MOL0     C16376   3.118  10.642   7.577 -0.1346 -0.1769 -0.4057
  863MOL0     C16377   3.197  10.743   7.505  0.7379  0.5427  0.8074
  863MOL0     O16378   3.329  10.775   7.519 -0.0873 -0.2023 -0.7673
  863MOL0     C16379   3.377  10.766   7.650  0.5658 -0.1206  0.2033
  863MOL0     C16380   3.526  10.792   7.663  0.4638  0.1845 -0.1675
  863MOL0     C16381   3.569  10.926   7.611 -0.2332  0.0965  0.4013
  863MOL0     C16382   3.726  10.932   7.622 -0.9635  0.2480  0.1083
  863MOL0     C16383   3.784  11.073   7.594  0.2598 -0.1540  0.1835
  863MOL0     C16384   3.781  11.101   7.438  0.5374 -0.5468  0.3416
  863MOL0     C16385   3.835  11.243   7.396 -0.0005 -0.1388  0.1249
  863MOL0     C16386   3.729  11.360   7.414  0.2371  0.8752 -0.2330
  863MOL0     N16387   3.589  11.324   7.355 -1.0609 -0.4041 -0.0936
  863MOL0     C16388   3.567  11.337   7.221 -0.2740 -0.3576 -0.1672
  863MOL0     C16389   3.438  11.297   7.212 -0.4450  0.1042 -0.6232
  863MOL0     C16390   3.356  11.302   7.085 -0.6031 -0.3358 -0.3708
  863MOL0     C16391   3.427  11.225   6.966  0.4407  0.2135 -0.5882
  863MOL0     C16392   3.326  11.201   6.856 -0.5761  0.8063  0.2167
  863MOL0     C16393   3.352  11.076   6.761 -0.3501 -0.3112 -0.2390
  863MOL0     O16394   3.299  11.113   6.634 -0.0268 -0.2276 -0.3568
  863MOL0     C16395   3.194  11.044   6.578 -0.4034  0.5176  0.0066
  863MOL0     C16396   3.075  11.120   6.569  0.0655  0.1411  0.4836
  863MOL0     C16397   2.962  11.053   6.520  0.0892 -0.3671 -0.8367
  863MOL0     C16398   2.835  11.133   6.544 -0.2370 -0.9633 -0.4250
  863MOL0     C16399   2.974  10.923   6.457 -0.4891 -0.2290 -0.2003
  863MOL0     C16400   2.854  10.853   6.403  0.7076  0.1986  0.3978
  863MOL0     O16401   2.876  10.723   6.378  0.3193  0.3588 -0.1706
  863MOL0     C16402   2.780  10.621   6.362  0.1359  0.2942  0.0828
  863MOL0     C16403   2.823  10.502   6.303  0.3084 -0.2380  0.0650
  863MOL0     C16404   2.738  10.395   6.292 -0.9933 -0.4402 -0.2513
  863MOL0     C16405   2.607  10.401   6.340  0.2803 -0.3579  0.8438
  863MOL0     O16406   2.534  10.288   6.340 -0.2990 -0.2074 -0.2924
  863MOL0     C16407   2.571  10.192   6.452 -0.7170 -0.4207  0.7718
  863MOL0     C16408   2.558  10.048   6.405 -0.2145  0.4699  0.6294
  863MOL0     C16409   2.551   9.950   6.517  0.5864  0.1579  0.1973
  863MOL0     C16410   2.551   9.806   6.477 -0.2882 -0.1173  0.3732
  863MOL0     C16411   2.508   9.705   6.576 -0.0699 -0.6956 -0.1498
  863MOL0     C16412   2.583   9.704   6.714  0.0470  0.1181  0.0618
  863MOL0     C16413   2.583   9.559   6.758  0.2969 -0.7701 -0.3343
  863MOL0     C16414   2.612   9.549   6.901 -0.4648 -0.4114  0.3461
  863MOL0    Cl16415   2.471   9.600   7.006 -0.1881  0.4194  0.3930
  863MOL0     C16416   2.557  10.519   6.378  0.1658  0.2110 -0.7884
  863MOL0     C16417   2.643  10.629   6.393 -0.1531  0.1547 -0.0024
  863MOL0     O16418   2.757  10.917   6.376 -0.1022 -0.0614  1.1672
  863MOL0     C16419   3.101  10.864   6.460  1.3131  0.1349 -0.4251
  863MOL0     C16420   3.210  10.927   6.507  0.3019  0.3775 -1.0572
  863MOL0     N16421   3.376  11.272   7.339 -0.1019 -0.6289  0.2081
  863MOL0     N16422   3.476  11.278   7.422 -0.0035  0.2571  0.5016
  863MOL0     C16423   3.130  10.810   7.410 -0.1346 -0.1974  0.2153
  863MOL0     C16424   2.989  10.792   7.379 -0.3054  0.5206 -0.0626
  863MOL0     C16425   2.610  10.516   7.358  0.3371  0.4942 -0.9294
  863MOL0     C16426   2.572  10.395   7.309  0.0363  0.0138  0.0271
  863MOL0     C16427   2.434  10.374   7.268 -0.1437  0.1085 -0.1869
  863MOL0     C16428   2.340  10.475   7.265  0.4353 -0.4192  0.5140
  863MOL0     O16429   2.221  10.451   7.206  0.0904 -0.5279  0.7054
  863MOL0     C16430   2.117  10.550   7.232  0.8852 -0.4925  0.4487
  863MOL0     C16431   1.983  10.476   7.199 -0.9446  0.2843  0.3566
  863MOL0     C16432   1.875  10.581   7.189 -0.9268 -0.7545  0.2738
  863MOL0     C16433   1.744  10.517   7.162  0.3590  0.4514 -0.0880
  863MOL0     C16434   1.645  10.611   7.214 -0.3249 -0.5926 -0.2767
  863MOL0     C16435   1.575  10.706   7.243 -0.7511 -0.2419  0.4958
  863MOL0     C16436   2.380  10.600   7.313  0.2672 -0.3641  0.4738
  863MOL0     C16437   2.510  10.620   7.356 -1.1491 -0.2654 -0.8617
  863MOL0     H16438   2.931  10.550   7.604 -1.2799  1.5757 -0.7428
  863MOL0     H16439   3.175  10.574   7.640 -1.4086 -0.6462  0.2780
  863MOL0     H16440   3.316  10.835   7.709 -2.9754 -2.5171 -0.3141
  863MOL0     H16441   3.357  10.674   7.706 -0.1933 -0.7445 -1.0459
  863MOL0     H16442   3.533  10.785   7.772 -0.4158 -6.7916 -0.0997
  863MOL0     H16443   3.591  10.716   7.619  1.7649  0.3846  1.3220
  863MOL0     H16444   3.540  10.924   7.506  1.4893  0.5696 -0.1243
  863MOL0     H16445   3.526  11.015   7.657  0.4360  0.4237  0.4102
  863MOL0     H16446   3.758  10.903   7.722  1.8366  4.1734  0.6037
  863MOL0     H16447   3.767  10.856   7.556 -0.3967  1.5322 -1.0854
  863MOL0     H16448   3.731  11.155   7.643  0.0433 -0.7830  1.0217
  863MOL0     H16449   3.890  11.068   7.619  0.2119 -0.7985  0.2893
  863MOL0     H16450   3.834  11.016   7.393 -0.7869 -1.3419  0.2112
  863MOL0     H16451   3.680  11.092   7.397  0.7271 -1.2299  0.0070
  863MOL0     H16452   3.916  11.262   7.468 -1.4236  1.7252  1.3369
  863MOL0     H16453   3.869  11.235   7.292 -2.3407  0.7146 -0.7609
  863MOL0     H16454   3.767  11.453   7.370  1.8900  1.6902  2.6860
  863MOL0     H16455   3.714  11.382   7.520 -1.0687  2.1570 -0.6626
  863MOL0     H16456   3.630  11.363   7.137 -0.3945  2.1118  0.4204
  863MOL0     H16457   3.257  11.258   7.101 -1.7569  0.8444 -3.4585
  863MOL0     H16458   3.349  11.403   7.043  2.2227 -1.2918 -3.6518
  863MOL0     H16459   3.473  11.129   6.991  0.2066  0.1007 -0.5888
  863MOL0     H16460   3.500  11.295   6.924  0.2691  1.4290  1.0446
  863MOL0     H16461   3.310  11.295   6.802 -0.0448  1.3018  0.9157
  863MOL0     H16462   3.230  11.178   6.903 -0.9869 -3.9671 -2.2955
  863MOL0     H16463   3.308  10.984   6.801 -1.5630  0.7193  0.8903
  863MOL0     H16464   3.457  11.060   6.734 -0.6644 -1.2857 -0.9548
  863MOL0     H16465   3.057  11.224   6.594 -3.1332  0.2643 -1.6780
  863MOL0     H16466   2.758  11.092   6.611 -3.7303  1.4199 -2.6465
  863MOL0     H16467   2.850  11.236   6.576  2.0219 -1.1542 -0.7199
  863MOL0     H16468   2.788  11.137   6.446 -0.9227 -2.0033 -0.1592
  863MOL0     H16469   2.922  10.488   6.260 -0.9970 -0.2479 -3.2081
  863MOL0     H16470   2.773  10.304   6.244 -1.1288  0.6347 -2.5380
  863MOL0     H16471   2.673  10.206   6.489  0.5462 -1.5316 -1.9872
  863MOL0     H16472   2.493  10.211   6.527 -0.0670  0.3292  1.2745
  863MOL0     H16473   2.481  10.028   6.330  0.3952 -2.5192  0.6779
  863MOL0     H16474   2.650  10.019   6.354  1.1284  2.7519  1.5752
  863MOL0     H16475   2.461   9.987   6.567  1.0061  2.2670 -0.5048
  863MOL0     H16476   2.633   9.970   6.587  0.2676  1.4663  0.2312
  863MOL0     H16477   2.481   9.783   6.396  1.2227 -1.3494 -0.6631
  863MOL0     H16478   2.654   9.788   6.444 -0.1308  1.9858 -0.4451
  863MOL0     H16479   2.508   9.603   6.534  0.6433 -1.7806  2.3344
  863MOL0     H16480   2.402   9.715   6.598 -0.2763 -1.4449 -0.7656
  863MOL0     H16481   2.682   9.749   6.707  0.4128 -0.9848 -3.4796
  863MOL0     H16482   2.519   9.762   6.782  0.5306  0.6247  0.0935
  863MOL0     H16483   2.657   9.508   6.695 -1.7010 -1.1457 -2.5115
  863MOL0     H16484   2.489   9.508   6.738  0.2926 -0.8635 -0.0798
  863MOL0     H16485   2.696   9.614   6.925 -1.2746  1.2844 -1.2062
  863MOL0     H16486   2.635   9.444   6.922 -2.3853 -0.6783  1.3713
  863MOL0     H16487   2.451  10.535   6.393  0.2162  3.3302 -2.7869
  863MOL0     H16488   2.602  10.724   6.426  0.7416  1.0510 -1.3336
  863MOL0     H16489   3.118  10.760   6.433 -0.1217 -0.6187  1.3819
  863MOL0     H16490   3.310  10.885   6.502 -0.3978 -1.6471  0.5084
  863MOL0     H16491   3.184  10.890   7.362  0.2856  1.3303  3.0167
  863MOL0     H16492   2.925  10.850   7.313 -0.2445 -0.4789 -1.0225
  863MOL0     H16493   2.644  10.316   7.292 -1.7340 -1.9764  1.2407
  863MOL0     H16494   2.394  10.277   7.242 -5.3260  1.9127 -0.1147
  863MOL0     H16495   2.119  10.586   7.335  0.1397 -0.5761  0.5043
  863MOL0     H16496   2.135  10.626   7.156  0.0040 -0.4879  0.2250
  863MOL0     H16497   1.954  10.416   7.286 -0.2064  0.4803  0.7475
  863MOL0     H16498   1.983  10.410   7.112  0.3651  2.1998 -1.1717
  863MOL0     H16499   1.899  10.655   7.112  2.9690  0.3729  2.3089
  863MOL0     H16500   1.862  10.645   7.277 -1.3625  0.9028 -0.9496
  863MOL0     H16501   1.717  10.421   7.206 -0.3750  0.5721 -0.2549
  863MOL0     H16502   1.736  10.488   7.056 -2.7948 -0.3983  0.2652
  863MOL0     H16503   1.507  10.787   7.264 -2.2606 -1.4830  0.5722
  863MOL0     H16504   2.322  10.692   7.314 -0.4801 -0.8091  2.9153
  863MOL0     H16505   2.547  10.715   7.392 -0.6610 -1.1388  1.0689
  864MOL0     O16506   5.797   0.149   5.696  0.0179 -0.1911 -0.3383
  864MOL0     C16507   5.796   0.208   5.807 -0.4069  0.5934 -0.0478
  864MOL0     O16508   5.686   0.263   5.865 -0.2629 -0.5529 -0.1578
  864MOL0     C16509   5.559   0.230   5.827 -0.7470 -0.7278 -0.6467
  864MOL0     C16510   5.453   0.316   5.861  0.2703  0.0962 -0.6433
  864MOL0     C16511   5.321   0.295   5.833 -0.7697  0.0060 -0.6714
  864MOL0     C16512   5.281   0.177   5.784 -0.3097  0.8330 -0.5560
  864MOL0     O16513   5.149   0.140   5.756 -0.4606 -0.3101 -0.1411
  864MOL0     C16514   5.038   0.205   5.830 -0.4554 -0.7425  0.4683
  864MOL0     C16515   4.900   0.191   5.774  0.1937  0.8379 -0.2695
  864MOL0     C16516   4.869   0.038   5.769  0.1780  0.0286  0.1465
  864MOL0     C16517   4.731   0.014   5.714  1.2763 -0.2290  0.1717
  864MOL0     C16518   4.702  -0.130   5.754  0.3575  0.0825  0.5562
  864MOL0     C16519   4.562  -0.163   5.693  0.4351  0.0067  0.8154
  864MOL0     C16520   4.509  -0.299   5.738 -0.2131 -0.0284  0.4259
  864MOL0     C16521   4.452  -0.304   5.874 -0.2735  0.0059 -0.2364
  864MOL0     N16522   4.319  -0.233   5.872  0.3042 -1.3845  0.2687
  864MOL0     C16523   4.200  -0.263   5.808  0.4058 -0.0842 -0.1312
  864MOL0     C16524   4.115  -0.164   5.857  0.7892  0.8879  0.2789
  864MOL0     C16525   3.961  -0.153   5.832  0.0881  0.2084 -0.1157
  864MOL0     C16526   3.880  -0.020   5.880 -0.2610  0.4263  0.4423
  864MOL0     C16527   3.893   0.085   5.770  0.4950 -1.1705  0.3278
  864MOL0     C16528   4.030   0.148   5.747  0.3112  0.4103  0.3593
  864MOL0     O16529   4.037   0.247   5.645 -0.3368 -0.8963 -0.1955
  864MOL0     C16530   4.100   0.230   5.519 -0.3384 -0.1535  0.6541
  864MOL0     C16531   4.127   0.354   5.449 -0.0442  0.8015 -0.4430
  864MOL0     C16532   4.164   0.342   5.314 -0.7785 -0.8994 -0.0142
  864MOL0     C16533   4.204   0.473   5.245  0.0510  0.7464 -0.6707
  864MOL0     C16534   4.203   0.222   5.255  0.5934  0.0655  0.6003
  864MOL0     C16535   4.252   0.213   5.114 -0.5098 -0.2834 -1.1495
  864MOL0     O16536   4.187   0.284   5.022  0.0478  0.5602 -0.2423
  864MOL0     C16537   4.247   0.291   4.895 -0.1117  0.5440  0.2554
  864MOL0     C16538   4.377   0.336   4.872 -0.2852  0.6720 -0.1877
  864MOL0     C16539   4.429   0.318   4.740 -0.7393 -0.1207  0.0138
  864MOL0     C16540   4.362   0.242   4.639 -0.2624 -0.3559 -0.2749
  864MOL0     O16541   4.437   0.224   4.524  0.4636  0.3428 -0.1540
  864MOL0     C16542   4.353   0.189   4.410  0.1298 -0.4966  0.4226
  864MOL0     C16543   4.443   0.200   4.286  0.3872  0.6611  1.2500
  864MOL0     C16544   4.368   0.238   4.157  0.2576  0.4429 -0.1610
  864MOL0     C16545   4.348   0.388   4.140 -0.2026  0.5334  0.6231
  864MOL0     C16546   4.295   0.424   3.995 -0.1421  0.1240  0.1378
  864MOL0     C16547   4.270   0.577   4.007  0.1422  0.2934  0.4086
  864MOL0     C16548   4.213   0.631   3.876 -0.3186 -0.3942 -0.0436
  864MOL0     C16549   4.187   0.777   3.880 -0.6269  0.1086 -0.3095
  864MOL0    Cl16550   4.126   0.848   3.725 -0.3942  0.3972  0.1779
  864MOL0     C16551   4.235   0.195   4.671 -0.0745 -0.5546 -1.1537
  864MOL0     C16552   4.177   0.216   4.800 -0.5959  0.2359 -0.0458
  864MOL0     O16553   4.349   0.137   5.099  0.4216 -0.1814 -0.3565
  864MOL0     C16554   4.168   0.107   5.329  0.0197 -0.1202  0.1505
  864MOL0     C16555   4.117   0.108   5.455  0.9324  0.0966 -0.9505
  864MOL0     N16556   4.183  -0.076   5.940 -0.3056 -0.7070 -0.2936
  864MOL0     N16557   4.306  -0.116   5.948  0.7119  0.4077 -0.2548
  864MOL0     C16558   5.379   0.088   5.749 -0.3076  0.7519 -0.8726
  864MOL0     C16559   5.517   0.113   5.761 -0.2533  0.9502  1.0310
  864MOL0     C16560   5.917   0.217   5.884 -0.3282  0.6840 -0.0466
  864MOL0     C16561   6.022   0.128   5.863 -0.4612 -0.4992  0.4375
  864MOL0     C16562   6.145   0.144   5.929 -1.1231 -0.6347  0.5853
  864MOL0     C16563   6.178   0.243   6.023 -0.0247  0.4035  0.6729
  864MOL0     O16564   6.297   0.264   6.105  0.1698 -0.5207  0.2471
  864MOL0     C16565   6.407   0.173   6.095 -0.1501 -0.1244 -0.1435
  864MOL0     C16566   6.535   0.249   6.106 -0.5034 -0.0404  0.0998
  864MOL0     C16567   6.541   0.316   6.245 -0.6161 -0.2817  0.2942
  864MOL0     C16568   6.666   0.414   6.248  0.1139  0.7003  0.5488
  864MOL0     C16569   6.653   0.494   6.374  0.0217 -1.0344  0.2277
  864MOL0     C16570   6.629   0.558   6.478 -0.4946  1.0100 -0.3457
  864MOL0     C16571   6.065   0.326   6.058 -0.6450  0.1521  0.2537
  864MOL0     C16572   5.936   0.314   5.992  0.5101  0.2155 -0.4313
  864MOL0     H16573   5.488   0.397   5.924 -0.0576 -1.5471  1.8026
  864MOL0     H16574   5.252   0.365   5.878 -0.7009 -2.2406  3.3684
  864MOL0     H16575   5.035   0.159   5.929 -1.8876  1.1494  1.3648
  864MOL0     H16576   5.062   0.311   5.835  0.0451 -0.7603 -1.0493
  864MOL0     H16577   4.823   0.238   5.835 -1.6277 -1.0573 -0.9898
  864MOL0     H16578   4.894   0.240   5.676  2.0631  1.3907 -0.1490
  864MOL0     H16579   4.945   0.004   5.698 -1.2270 -0.0092 -1.3965
  864MOL0     H16580   4.894  -0.008   5.865 -0.2087 -1.1413 -0.2939
  864MOL0     H16581   4.649   0.076   5.750 -1.8269 -3.1152 -1.3596
  864MOL0     H16582   4.743   0.016   5.605  2.0678  2.2067  0.2413
  864MOL0     H16583   4.781  -0.198   5.720  1.9256  1.5281  1.1382
  864MOL0     H16584   4.702  -0.134   5.864  1.7928 -0.0641  0.5668
  864MOL0     H16585   4.489  -0.090   5.729 -0.3026 -0.4433  0.2633
  864MOL0     H16586   4.561  -0.163   5.584  0.8801  1.6609  0.7875
  864MOL0     H16587   4.433  -0.338   5.670  1.1232 -1.8427 -0.1196
  864MOL0     H16588   4.595  -0.367   5.736  0.0849  0.2864  1.7122
  864MOL0     H16589   4.518  -0.253   5.944 -0.7984 -1.2631  1.2659
  864MOL0     H16590   4.445  -0.410   5.900  2.7088 -0.5369 -1.2636
  864MOL0     H16591   4.171  -0.342   5.741 -1.2854  1.8890 -1.8657
  864MOL0     H16592   3.951  -0.174   5.725 -0.8806 -0.4787  0.0967
  864MOL0     H16593   3.905  -0.230   5.884  0.0172 -0.6265 -1.3981
  864MOL0     H16594   3.910   0.019   5.978 -1.1843  1.9093  0.1704
  864MOL0     H16595   3.777  -0.053   5.894 -0.2297  0.2445  0.2463
  864MOL0     H16596   3.827   0.161   5.812  1.1122 -0.6416  0.3503
  864MOL0     H16597   3.853   0.030   5.684  1.1351 -2.8511  1.0610
  864MOL0     H16598   4.094   0.072   5.701  1.8633  3.4684 -3.0052
  864MOL0     H16599   4.073   0.187   5.840  2.5675  1.0469 -0.8852
  864MOL0     H16600   4.107   0.440   5.513 -0.8105 -0.3266  0.9009
  864MOL0     H16601   4.197   0.555   5.317  3.1463  2.8831 -2.4945
  864MOL0     H16602   4.307   0.463   5.208  0.0636 -2.1177 -0.0379
  864MOL0     H16603   4.129   0.504   5.172 -1.0806  0.0218  0.1573
  864MOL0     H16604   4.435   0.380   4.952  1.0035  0.3182 -0.8887
  864MOL0     H16605   4.531   0.347   4.716 -0.5857 -1.0450 -0.4800
  864MOL0     H16606   4.315   0.088   4.430  4.3155 -1.8977  2.6381
  864MOL0     H16607   4.267   0.256   4.401 -0.0566 -0.5311  1.7148
  864MOL0     H16608   4.531   0.261   4.308  1.9612 -2.0062  3.0240
  864MOL0     H16609   4.478   0.100   4.255 -0.0662  0.8169  0.2022
  864MOL0     H16610   4.275   0.181   4.162 -1.8036  3.6667  2.1435
  864MOL0     H16611   4.420   0.199   4.069 -1.7278  1.5998 -1.9649
  864MOL0     H16612   4.283   0.433   4.216  0.5016  0.3901  1.3176
  864MOL0     H16613   4.446   0.433   4.157  1.4998 -2.4925 -0.4016
  864MOL0     H16614   4.202   0.378   3.960  0.4320 -1.3689  0.5105
  864MOL0     H16615   4.377   0.402   3.926  0.2993 -3.9098  1.6908
  864MOL0     H16616   4.199   0.597   4.088 -0.2497 -2.6577  0.9035
  864MOL0     H16617   4.364   0.629   4.027 -1.1499  2.4040  1.3912
  864MOL0     H16618   4.128   0.572   3.843  0.1309  0.1658 -2.3400
  864MOL0     H16619   4.294   0.626   3.802 -1.2603  0.5425 -1.1597
  864MOL0     H16620   4.285   0.819   3.906 -1.2021 -0.1959  2.6660
  864MOL0     H16621   4.110   0.793   3.956  1.4299  3.2313  1.3398
  864MOL0     H16622   4.181   0.138   4.597 -0.1762 -1.6810 -0.2277
  864MOL0     H16623   4.077   0.178   4.821 -1.3450  2.1275 -0.0430
  864MOL0     H16624   4.181   0.010   5.282 -0.4767  0.1795 -0.6358
  864MOL0     H16625   4.096   0.014   5.505 -0.4255 -0.6768 -2.8366
  864MOL0     H16626   5.358  -0.014   5.719  2.4129 -0.1106 -0.1482
  864MOL0     H16627   5.594   0.038   5.748 -0.1955  0.9784  1.2064
  864MOL0     H16628   6.011   0.048   5.789 -0.0939  0.8058 -1.0883
  864MOL0     H16629   6.216   0.070   5.890  0.9479  2.5565 -2.2608
  864MOL0     H16630   6.397   0.107   6.181 -0.6000 -0.4543 -0.4444
  864MOL0     H16631   6.425   0.121   6.000  0.5027  0.9276 -0.6134
  864MOL0     H16632   6.549   0.315   6.019  2.6319 -0.5175  0.1190
  864MOL0     H16633   6.625   0.188   6.094  0.4936  1.1813  1.0231
  864MOL0     H16634   6.528   0.243   6.326 -2.3304 -0.7964 -0.4006
  864MOL0     H16635   6.459   0.383   6.274 -2.8434 -2.2586 -1.0173
  864MOL0     H16636   6.678   0.472   6.156  0.3083 -1.7572 -1.0829
  864MOL0     H16637   6.756   0.355   6.268  0.4394  0.7050 -0.8441
  864MOL0     H16638   6.618   0.619   6.565 -1.3909  0.6660 -0.2069
  864MOL0     H16639   6.071   0.393   6.142  1.6980  1.1727 -0.6423
  864MOL0     H16640   5.864   0.387   6.027  1.8260  0.7059  1.4035
  865MOL0     O16641   4.899   4.562   3.942 -0.0680  0.1797 -0.2073
  865MOL0     C16642   4.917   4.555   3.824 -0.1525 -0.0488  0.8783
  865MOL0     O16643   4.840   4.481   3.738 -0.1247  0.0758 -0.4078
  865MOL0     C16644   4.703   4.467   3.759  0.1478 -0.6464  0.4090
  865MOL0     C16645   4.627   4.517   3.870  0.1567 -0.5946 -0.0677
  865MOL0     C16646   4.489   4.482   3.876  0.2083 -0.0179  0.4324
  865MOL0     C16647   4.426   4.410   3.770  0.3649 -0.2899  0.4905
  865MOL0     O16648   4.299   4.381   3.794 -0.1517  0.3167 -0.3509
  865MOL0     C16649   4.277   4.242   3.779  0.3356  0.8033  0.1897
  865MOL0     C16650   4.132   4.198   3.829  0.7551 -0.6941 -0.0537
  865MOL0     C16651   4.091   4.274   3.959 -0.1494 -0.1100  0.7032
  865MOL0     C16652   3.968   4.354   3.920 -0.2476 -0.1651 -0.4907
  865MOL0     C16653   3.911   4.429   4.037 -0.5590  0.0053 -0.6209
  865MOL0     C16654   3.794   4.510   3.987  0.3853 -0.4070  0.3672
  865MOL0     C16655   3.739   4.612   4.094 -1.0196 -0.0858  0.1931
  865MOL0     C16656   3.625   4.693   4.032 -0.4090 -0.0517  0.0738
  865MOL0     N16657   3.655   4.831   4.004  0.1412  1.2217  0.5401
  865MOL0     C16658   3.711   4.883   3.889 -0.3889  0.7855 -0.2066
  865MOL0     C16659   3.746   5.006   3.918  0.3706 -1.1722 -0.2834
  865MOL0     C16660   3.815   5.108   3.835 -0.2201 -0.1281  0.3872
  865MOL0     C16661   3.721   5.236   3.815  0.0878 -0.3892  0.2075
  865MOL0     C16662   3.759   5.345   3.906  0.7755 -0.5219 -0.3005
  865MOL0     C16663   3.878   5.421   3.861 -0.6825 -0.0076  0.0520
  865MOL0     O16664   3.885   5.542   3.930  0.8926 -0.7145 -0.5277
  865MOL0     C16665   3.986   5.626   3.905 -0.6259 -0.8899 -1.2221
  865MOL0     C16666   4.109   5.621   3.971 -1.4825 -0.7226  0.4849
  865MOL0     C16667   4.219   5.705   3.933 -0.1173 -0.9508  0.6470
  865MOL0     C16668   4.352   5.699   4.008  0.8616 -1.3608  0.5928
  865MOL0     C16669   4.207   5.791   3.821 -0.3686 -0.1308 -0.0843
  865MOL0     C16670   4.325   5.854   3.770  0.2577 -0.7618  0.1539
  865MOL0     O16671   4.319   5.985   3.775 -0.4392  0.5912 -0.4512
  865MOL0     C16672   4.392   6.072   3.694  0.1306  0.3419 -1.1996
  865MOL0     C16673   4.387   6.212   3.731 -0.1498 -0.4258  0.0842
  865MOL0     C16674   4.471   6.308   3.681  0.2738 -0.4181  0.0724
  865MOL0     C16675   4.545   6.272   3.570  0.4048  0.6340 -0.2436
  865MOL0     O16676   4.634   6.361   3.511 -0.0213 -0.8234  0.3986
  865MOL0     C16677   4.664   6.349   3.373  0.0317 -0.5239 -0.3382
  865MOL0     C16678   4.733   6.476   3.338 -1.1295 -0.3366  0.4687
  865MOL0     C16679   4.650   6.606   3.379  0.8833  0.0537 -0.5266
  865MOL0     C16680   4.742   6.728   3.368  0.3718  0.1503 -0.6563
  865MOL0     C16681   4.800   6.765   3.229 -0.2783 -0.0762 -0.5564
  865MOL0     C16682   4.866   6.904   3.208 -0.0516  0.8754 -0.3268
  865MOL0     C16683   4.951   6.940   3.328  0.1694 -0.0624  0.1700
  865MOL0     C16684   5.032   7.060   3.303  0.1276 -0.4076 -0.2299
  865MOL0    Cl16685   4.939   7.203   3.273  0.0069  0.4184  0.1694
  865MOL0     C16686   4.557   6.129   3.526 -0.2711  0.0505 -0.8753
  865MOL0     C16687   4.473   6.035   3.588 -0.5899  1.0326 -0.2244
  865MOL0     O16688   4.408   5.791   3.705  0.4227 -0.0475  0.3479
  865MOL0     C16689   4.084   5.803   3.765 -0.2163  1.1229  0.6014
  865MOL0     C16690   3.972   5.725   3.806  0.1339  1.0087 -0.2300
  865MOL0     N16691   3.716   5.028   4.052  0.0226 -0.0133 -1.0810
  865MOL0     N16692   3.657   4.922   4.103 -0.1997  0.4414 -0.6325
  865MOL0     C16693   4.494   4.373   3.663 -0.3080 -0.4786  0.3740
  865MOL0     C16694   4.635   4.404   3.656 -0.7240 -0.2589 -0.0773
  865MOL0     C16695   5.043   4.599   3.776 -0.8967 -0.5794  0.0464
  865MOL0     C16696   5.148   4.630   3.859 -0.2933 -0.4665  0.2271
  865MOL0     C16697   5.276   4.651   3.807 -0.3861  0.2378 -0.4434
  865MOL0     C16698   5.310   4.633   3.676  0.4558  0.0216  0.8780
  865MOL0     O16699   5.434   4.661   3.618 -0.3801 -0.3679 -0.0699
  865MOL0     C16700   5.549   4.699   3.697  0.2961 -0.2284  0.2890
  865MOL0     C16701   5.538   4.850   3.740 -0.2677 -0.2070  0.5584
  865MOL0     C16702   5.519   4.951   3.621 -0.4630  0.0133 -0.9290
  865MOL0     C16703   5.532   5.093   3.665  0.6566 -0.0872  0.4291
  865MOL0     C16704   5.493   5.180   3.556  0.1168  0.7093 -0.4627
  865MOL0     C16705   5.437   5.246   3.472  0.6743 -0.8551 -0.4693
  865MOL0     C16706   5.209   4.598   3.589  0.5845  0.2266  0.3425
  865MOL0     C16707   5.072   4.600   3.636  0.0749 -0.1297 -1.0835
  865MOL0     H16708   4.675   4.569   3.953 -0.2926 -1.6897  0.8948
  865MOL0     H16709   4.433   4.504   3.966  1.6721 -0.2957  1.4322
  865MOL0     H16710   4.290   4.207   3.676  1.3340  0.3547  0.4574
  865MOL0     H16711   4.346   4.175   3.830  0.7739 -0.9264 -2.4695
  865MOL0     H16712   4.049   4.214   3.759 -2.2281 -0.9959  3.1467
  865MOL0     H16713   4.131   4.094   3.863  0.7741 -0.1772  1.6020
  865MOL0     H16714   4.069   4.205   4.041 -1.5719  0.1152  0.5340
  865MOL0     H16715   4.172   4.340   3.991  0.8250 -0.5605 -0.7674
  865MOL0     H16716   3.996   4.417   3.835  0.3328  0.2841  0.0259
  865MOL0     H16717   3.897   4.285   3.874  1.6761 -2.1436 -0.6428
  865MOL0     H16718   3.895   4.356   4.117  3.7229  1.6021  2.0708
  865MOL0     H16719   3.975   4.503   4.087  0.4339 -0.5008 -1.1100
  865MOL0     H16720   3.817   4.567   3.896 -1.9376 -0.9587 -0.6571
  865MOL0     H16721   3.715   4.438   3.961  1.1751 -1.8639  1.7992
  865MOL0     H16722   3.693   4.559   4.179 -5.1045  0.8557 -1.1741
  865MOL0     H16723   3.816   4.681   4.129 -1.1768 -1.9387  5.0814
  865MOL0     H16724   3.548   4.685   4.109 -1.2392 -4.7475 -0.9679
  865MOL0     H16725   3.590   4.639   3.944 -3.4272 -2.2686  2.4490
  865MOL0     H16726   3.731   4.842   3.790  1.6232 -0.9778  0.8449
  865MOL0     H16727   3.909   5.136   3.885 -0.5507  3.3385 -0.6677
  865MOL0     H16728   3.846   5.073   3.737  0.8276 -1.5396  1.1832
  865MOL0     H16729   3.618   5.198   3.820 -2.0196  4.3431 -1.4801
  865MOL0     H16730   3.724   5.277   3.714 -2.0108  0.3094  0.3796
  865MOL0     H16731   3.757   5.314   4.011  2.3344 -2.3589 -0.7739
  865MOL0     H16732   3.676   5.416   3.895 -0.4459 -1.6240  1.3486
  865MOL0     H16733   3.898   5.441   3.756  0.3428  2.8844  0.7132
  865MOL0     H16734   3.967   5.362   3.887 -0.3159 -0.4752 -2.1113
  865MOL0     H16735   4.130   5.552   4.052 -1.8987 -1.3386  0.0780
  865MOL0     H16736   4.421   5.640   3.947  0.0335 -1.4733 -0.2478
  865MOL0     H16737   4.392   5.800   4.020 -2.3612  0.1398 -0.2943
  865MOL0     H16738   4.335   5.649   4.104 -0.7548  1.9827  2.2150
  865MOL0     H16739   4.327   6.231   3.819  0.7960  1.1187  0.4452
  865MOL0     H16740   4.474   6.412   3.710  0.5354 -0.5090  0.3825
  865MOL0     H16741   4.724   6.262   3.347 -0.2272 -0.6246 -0.6129
  865MOL0     H16742   4.565   6.336   3.327  0.1966  0.2297 -0.9247
  865MOL0     H16743   4.834   6.479   3.380 -1.5327  1.3740  1.3781
  865MOL0     H16744   4.749   6.482   3.230  2.0104  3.1356  0.9480
  865MOL0     H16745   4.620   6.607   3.484  3.2629  2.0089  0.2209
  865MOL0     H16746   4.560   6.628   3.320 -1.2148 -2.2082  1.6357
  865MOL0     H16747   4.686   6.818   3.393  0.7688  0.0204  0.8043
  865MOL0     H16748   4.826   6.726   3.439  0.2061  2.5986 -0.3164
  865MOL0     H16749   4.722   6.763   3.152  1.7550  0.4585 -2.7595
  865MOL0     H16750   4.872   6.686   3.209  0.9883  1.0499 -0.5633
  865MOL0     H16751   4.925   6.898   3.116 -0.2611 -0.6613 -0.3758
  865MOL0     H16752   4.793   6.986   3.199  0.0654  1.2544  1.7207
  865MOL0     H16753   5.008   6.849   3.350 -3.5781 -3.9295 -4.0381
  865MOL0     H16754   4.884   6.955   3.413  1.6643 -4.3397  2.4205
  865MOL0     H16755   5.096   7.035   3.218  0.9562 -1.9938  0.8072
  865MOL0     H16756   5.099   7.078   3.389  1.0604 -0.2918 -0.9628
  865MOL0     H16757   4.629   6.102   3.450 -1.4900  0.3783 -2.1840
  865MOL0     H16758   4.476   5.936   3.545 -2.2229  0.4984  0.7950
  865MOL0     H16759   4.075   5.874   3.683  0.8331  0.9167  0.2970
  865MOL0     H16760   3.872   5.737   3.763 -1.1176 -3.2741  1.0546
  865MOL0     H16761   4.456   4.315   3.579 -0.7424 -1.0384  0.9512
  865MOL0     H16762   4.690   4.363   3.572  0.6507 -0.8627  1.0735
  865MOL0     H16763   5.126   4.642   3.965 -0.7672  0.1592  0.0652
  865MOL0     H16764   5.342   4.700   3.877 -1.3552 -2.2791  2.4615
  865MOL0     H16765   5.554   4.636   3.786 -3.1896 -2.1397 -0.7085
  865MOL0     H16766   5.639   4.691   3.634 -0.7236  5.8808 -2.7474
  865MOL0     H16767   5.634   4.880   3.784 -1.2646  3.0636  0.7692
  865MOL0     H16768   5.460   4.870   3.815  1.3797  0.5086  2.1603
  865MOL0     H16769   5.423   4.945   3.569 -1.8410 -1.1693  1.6341
  865MOL0     H16770   5.600   4.927   3.550  0.1112 -0.9347  0.0218
  865MOL0     H16771   5.633   5.110   3.702  0.0270 -0.1144  2.2849
  865MOL0     H16772   5.466   5.110   3.751  0.8178 -3.9766  1.4859
  865MOL0     H16773   5.386   5.304   3.398  1.0323 -1.7598 -1.4565
  865MOL0     H16774   5.224   4.584   3.482  2.3739  1.9668  0.2848
  865MOL0     H16775   4.989   4.578   3.570 -1.7059 -0.3473  1.0749
  866MOL0     O16776   1.303   4.016  10.300  0.5885 -0.4243 -0.7736
  866MOL0     C16777   1.270   4.034  10.417 -0.0829  0.3328  0.3011
  866MOL0     O16778   1.182   3.959  10.492  0.3182  0.0732 -0.1971
  866MOL0     C16779   1.169   3.827  10.463 -0.4148 -0.2849  0.0604
  866MOL0     C16780   1.040   3.765  10.470 -0.1577 -0.5170  0.0261
  866MOL0     C16781   1.028   3.629  10.464  0.1326  0.1179 -0.1897
  866MOL0     C16782   1.136   3.547  10.434 -0.5486  1.4493  0.6466
  866MOL0     O16783   1.130   3.405  10.415  0.0146 -0.2647 -0.4659
  866MOL0     C16784   1.005   3.341  10.445 -0.7684 -0.5448  0.2512
  866MOL0     C16785   1.008   3.273  10.580  0.2343 -0.1290  0.2511
  866MOL0     C16786   0.966   3.371  10.691  0.0913 -0.4374  0.6079
  866MOL0     C16787   0.985   3.310  10.830  1.2785 -0.4558  0.3039
  866MOL0     C16788   0.972   3.409  10.950  0.6750  0.6627 -0.4113
  866MOL0     C16789   0.999   3.369  11.098  0.5627  0.0451 -0.0567
  866MOL0     C16790   0.920   3.247  11.141 -0.0375  0.2953  0.1426
  866MOL0     C16791   0.919   3.248  11.293  0.6046 -0.2879 -0.1544
  866MOL0     N16792   0.814   3.152  11.348 -0.0787  0.3901  0.2674
  866MOL0     C16793   0.792   3.024  11.304 -0.5263  0.1148 -0.8695
  866MOL0     C16794   0.670   2.982  11.358  0.0647 -0.5223  0.7995
  866MOL0     C16795   0.604   2.847  11.351 -0.8199  0.0965  0.6744
  866MOL0     C16796   0.467   2.857  11.297  1.4275 -1.0464 -0.4477
  866MOL0     C16797   0.409   2.719  11.268  0.1051  0.0338  1.2376
  866MOL0     C16798   0.259   2.706  11.270  0.1027  0.2195 -0.5543
  866MOL0     O16799   0.214   2.697  11.403  0.2289  0.4837  0.2235
  866MOL0     C16800   0.087   2.647  11.424  0.0272  0.6722 -0.8106
  866MOL0     C16801   0.061   2.603  11.554  0.3293 -0.5179 -0.2675
  866MOL0     C16802  -0.069   2.557  11.596  0.0230  0.1993 -0.0193
  866MOL0     C16803  -0.085   2.508  11.731  0.2046  0.3142 -0.1992
  866MOL0     C16804  -0.168   2.558  11.500  0.2902  0.8399 -0.0956
  866MOL0     C16805  -0.321   2.525  11.529 -0.6092  0.1936 -0.4395
  866MOL0     O16806  -0.408   2.488  11.428 -0.0456  0.3276 -1.1561
  866MOL0     C16807  -0.539   2.486  11.466  0.2253 -0.1549  0.7557
  866MOL0     C16808  -0.588   2.395  11.546 -0.1623  0.1179  0.0132
  866MOL0     C16809  -0.706   2.408  11.610  0.5531  1.4691  0.0878
  866MOL0     C16810  -0.786   2.520  11.583  0.4210  0.2537 -0.7455
  866MOL0     O16811  -0.910   2.535  11.650  0.7844  0.1421  0.3473
  866MOL0     C16812  -0.961   2.666  11.671 -0.5318 -0.3678  0.8642
  866MOL0     C16813  -1.073   2.654  11.783 -0.7866 -0.3918  0.4932
  866MOL0     C16814  -1.020   2.585  11.899 -0.1219 -0.2885  0.0104
  866MOL0     C16815  -1.110   2.626  12.023  0.4740 -0.8715 -0.9107
  866MOL0     C16816  -1.041   2.573  12.155  1.6860 -0.5449  0.0754
  866MOL0     C16817  -1.091   2.649  12.287  0.5345 -0.4630 -1.0316
  866MOL0     C16818  -1.251   2.652  12.303  0.5889  0.1945  0.5344
  866MOL0     C16819  -1.296   2.639  12.447 -0.0727  0.4558 -0.5066
  866MOL0    Cl16820  -1.469   2.684  12.485  0.0253 -0.1518  0.1214
  866MOL0     C16821  -0.724   2.620  11.499  0.7280  0.9062  1.3722
  866MOL0     C16822  -0.611   2.591  11.428  0.3835  0.1268 -0.5610
  866MOL0     O16823  -0.360   2.549  11.642  0.0149  0.5139 -0.1580
  866MOL0     C16824  -0.134   2.577  11.370 -0.2576 -0.0993 -0.7257
  866MOL0     C16825  -0.009   2.623  11.328  0.0311  0.9570  0.0735
  866MOL0     N16826   0.634   3.084  11.446 -0.5658 -0.0235 -0.1128
  866MOL0     N16827   0.721   3.176  11.442 -0.5447 -0.3888 -0.2609
  866MOL0     C16828   1.265   3.608  10.407  0.5107 -0.8210 -0.0472
  866MOL0     C16829   1.280   3.748  10.426  0.1033 -0.7907  0.0440
  866MOL0     C16830   1.318   4.157  10.477  1.2890  0.0058  0.6132
  866MOL0     C16831   1.216   4.224  10.544  0.1496  0.2572 -0.3840
  866MOL0     C16832   1.249   4.347  10.602 -0.0789 -0.0224 -0.0846
  866MOL0     C16833   1.386   4.395  10.593 -0.4760 -0.6862 -0.0839
  866MOL0     O16834   1.419   4.510  10.668  0.4531  0.2276  0.1320
  866MOL0     C16835   1.539   4.581  10.646 -0.1123 -0.8942  0.2077
  866MOL0     C16836   1.533   4.654  10.507  0.2572 -0.1557 -0.3866
  866MOL0     C16837   1.649   4.749  10.499 -0.9641  0.2053 -0.4999
  866MOL0     C16838   1.606   4.892  10.464  0.7595 -0.7605 -0.3610
  866MOL0     C16839   1.533   4.885  10.333  0.7230  0.6039  0.6694
  866MOL0     C16840   1.485   4.859  10.222 -0.2296 -0.2863 -0.4627
  866MOL0     C16841   1.476   4.329  10.512 -0.5894  0.1944  0.1753
  866MOL0     C16842   1.441   4.215  10.445  0.1523  0.1086 -0.2981
  866MOL0     H16843   0.955   3.828  10.493 -1.9064 -2.0883 -1.7456
  866MOL0     H16844   0.925   3.603  10.488  0.2663  0.2542  0.5563
  866MOL0     H16845   0.924   3.413  10.431 -1.1922 -0.7913  1.3625
  866MOL0     H16846   0.991   3.268  10.365  0.7990  3.0109 -3.6492
  866MOL0     H16847   0.928   3.198  10.589 -0.5422  0.1696 -2.9025
  866MOL0     H16848   1.106   3.232  10.608  0.2782 -2.4825 -2.7867
  866MOL0     H16849   1.004   3.472  10.673 -1.2097 -0.0499 -0.1722
  866MOL0     H16850   0.859   3.386  10.671 -0.2631 -2.4642  0.7816
  866MOL0     H16851   0.913   3.228  10.841 -1.0160  1.5411  1.1645
  866MOL0     H16852   1.087   3.273  10.839  0.4068 -2.8838  0.7613
  866MOL0     H16853   1.059   3.472  10.931 -0.1820  1.8869 -0.4110
  866MOL0     H16854   0.888   3.477  10.933  1.5792  2.1936  0.8898
  866MOL0     H16855   1.106   3.363  11.116  0.5213  1.9363  1.0249
  866MOL0     H16856   0.958   3.452  11.155 -0.7183  0.5988 -1.7065
  866MOL0     H16857   0.814   3.254  11.116 -0.0260 -0.8541 -0.2900
  866MOL0     H16858   0.949   3.151  11.098 -2.7243 -0.4239 -0.2530
  866MOL0     H16859   0.894   3.351  11.321  1.2823  0.1072 -0.9720
  866MOL0     H16860   1.014   3.217  11.337 -0.6982 -0.4806  2.8071
  866MOL0     H16861   0.861   2.973  11.237  0.0854  1.2612 -1.1402
  866MOL0     H16862   0.657   2.773  11.291 -0.3560  0.8650  0.1087
  866MOL0     H16863   0.599   2.807  11.453  0.2034  1.4725  1.2916
  866MOL0     H16864   0.471   2.924  11.211 -2.0709  0.7585  0.6048
  866MOL0     H16865   0.403   2.907  11.370  0.3429 -3.5921  0.4560
  866MOL0     H16866   0.447   2.647  11.341 -3.1327 -1.9824  1.1226
  866MOL0     H16867   0.449   2.693  11.169  2.8690 -0.4132  2.3817
  866MOL0     H16868   0.222   2.612  11.226 -2.6037  0.9353  0.0434
  866MOL0     H16869   0.212   2.790  11.219 -0.4973  0.5282  0.4821
  866MOL0     H16870   0.134   2.610  11.634 -0.7646 -4.1101  1.2542
  866MOL0     H16871  -0.134   2.581  11.796  0.1550  0.6980 -0.6682
  866MOL0     H16872  -0.153   2.422  11.732  0.0502  0.4391  0.2142
  866MOL0     H16873   0.006   2.485  11.787  0.1468 -0.1394 -0.2868
  866MOL0     H16874  -0.522   2.311  11.566 -0.8860 -0.0351  2.0004
  866MOL0     H16875  -0.730   2.330  11.682  0.3352  0.2209 -1.2871
  866MOL0     H16876  -0.878   2.727  11.706 -1.6822  0.0026  3.1386
  866MOL0     H16877  -1.001   2.710  11.579  0.9992 -1.0216 -0.1617
  866MOL0     H16878  -1.093   2.759  11.807  0.8211 -0.1397  0.8184
  866MOL0     H16879  -1.165   2.603  11.752 -1.6899  1.0033  0.7682
  866MOL0     H16880  -0.916   2.619  11.906  0.7137 -2.4217 -1.0693
  866MOL0     H16881  -1.018   2.478  11.877  1.3238 -0.3798  0.4700
  866MOL0     H16882  -1.125   2.734  12.029 -0.9442 -0.7848 -4.2294
  866MOL0     H16883  -1.205   2.571  12.013 -1.9100  1.8468  3.5202
  866MOL0     H16884  -0.931   2.575  12.151  1.8437  0.1634  2.9396
  866MOL0     H16885  -1.081   2.473  12.174 -0.2275  0.1698  0.0134
  866MOL0     H16886  -1.057   2.593  12.374  0.0949 -2.8867 -2.3128
  866MOL0     H16887  -1.047   2.749  12.288  0.3031 -0.3590 -1.0792
  866MOL0     H16888  -1.299   2.578  12.237 -1.0164 -0.5854  2.4692
  866MOL0     H16889  -1.295   2.746  12.269  0.9076  0.8773  1.9261
  866MOL0     H16890  -1.233   2.701  12.511  1.9692 -0.3738 -1.6138
  866MOL0     H16891  -1.290   2.534  12.480 -3.7129  1.2582  3.6337
  866MOL0     H16892  -0.781   2.705  11.462 -0.9786 -0.2695  1.1693
  866MOL0     H16893  -0.567   2.661  11.358  1.7005 -0.6689 -0.5859
  866MOL0     H16894  -0.209   2.569  11.292  1.1292 -1.2216 -2.0028
  866MOL0     H16895  -0.006   2.644  11.221 -1.7366  1.3319  0.0732
  866MOL0     H16896   1.349   3.544  10.382 -1.4139 -3.0654 -1.1975
  866MOL0     H16897   1.376   3.796  10.412 -0.9094  2.3623  2.6953
  866MOL0     H16898   1.117   4.184  10.561  0.9981 -0.9391  2.3897
  866MOL0     H16899   1.175   4.404  10.657  0.0127 -0.3844  0.4207
  866MOL0     H16900   1.557   4.655  10.724  0.5797  0.1691 -0.9286
  866MOL0     H16901   1.624   4.513  10.649  0.2755 -0.4388 -0.1963
  866MOL0     H16902   1.434   4.692  10.481  0.0685 -1.7869 -2.3362
  866MOL0     H16903   1.541   4.584  10.423  0.3350 -0.7413  0.0944
  866MOL0     H16904   1.719   4.705  10.426 -0.5123  0.2831 -0.1179
  866MOL0     H16905   1.692   4.748  10.599 -1.6102 -2.2455 -0.1837
  866MOL0     H16906   1.690   4.955  10.433  0.7413 -0.3204  0.4754
  866MOL0     H16907   1.537   4.942  10.532 -0.9006  1.8921 -3.6570
  866MOL0     H16908   1.438   4.848  10.127 -1.5193  1.0697 -0.0283
  866MOL0     H16909   1.574   4.373  10.497 -2.0148  5.1558  3.1590
  866MOL0     H16910   1.517   4.176  10.378  0.4748  0.1895  0.0177
  867MOL0     O16911   2.253   4.151  10.373  0.7695  0.0373  0.1111
  867MOL0     C16912   2.366   4.145  10.414  0.3960  0.5703 -0.2644
  867MOL0     O16913   2.440   4.024  10.406 -0.6447 -0.5903 -0.0726
  867MOL0     C16914   2.408   3.914  10.324  0.5469  0.6737  0.0336
  867MOL0     C16915   2.460   3.793  10.358  1.1954  0.0052  0.1860
  867MOL0     C16916   2.436   3.676  10.274  0.4358 -0.4382  0.2637
  867MOL0     C16917   2.349   3.679  10.167  0.5709 -0.4066  0.2464
  867MOL0     O16918   2.322   3.552  10.105 -0.4042 -0.6829 -1.0912
  867MOL0     C16919   2.199   3.557  10.026  0.4632 -0.3462 -0.0386
  867MOL0     C16920   2.171   3.413   9.991 -0.6192  0.0159 -0.4878
  867MOL0     C16921   2.188   3.307  10.104  0.4274 -0.0485 -0.3082
  867MOL0     C16922   2.135   3.173  10.050  1.1281 -0.5200  0.5051
  867MOL0     C16923   2.153   3.045  10.148 -0.0721 -1.1107  0.6673
  867MOL0     C16924   2.134   2.911  10.077 -0.6540 -1.3659 -0.9906
  867MOL0     C16925   1.994   2.912  10.016 -0.6210  0.1551 -1.0307
  867MOL0     C16926   1.963   2.775   9.960  0.8610  0.5507  1.1475
  867MOL0     N16927   2.026   2.750   9.827  0.4516 -0.0962 -0.7054
  867MOL0     C16928   2.132   2.664   9.809  0.1375  0.3748  0.8223
  867MOL0     C16929   2.144   2.674   9.674 -0.1501 -0.1781 -0.3803
  867MOL0     C16930   2.239   2.581   9.599  0.3485  0.3291 -0.0461
  867MOL0     C16931   2.298   2.633   9.473  0.3325  0.1276 -1.0250
  867MOL0     C16932   2.437   2.565   9.450 -0.7005 -0.5645 -0.7046
  867MOL0     C16933   2.525   2.658   9.362  0.5050 -0.5367 -0.1072
  867MOL0     O16934   2.553   2.782   9.428  0.5905  0.0767  0.3796
  867MOL0     C16935   2.557   2.892   9.341  0.4604  0.8137  0.5697
  867MOL0     C16936   2.681   2.930   9.274  0.1094 -0.5896 -0.7426
  867MOL0     C16937   2.689   3.041   9.188  0.4121  0.0971  0.4437
  867MOL0     C16938   2.831   3.064   9.141 -0.2421  0.1680 -0.0292
  867MOL0     C16939   2.572   3.119   9.167 -0.5061  0.0999 -0.3417
  867MOL0     C16940   2.560   3.237   9.071 -0.0861 -0.0413  0.2663
  867MOL0     O16941   2.440   3.284   9.061 -0.0963  0.0524 -0.7557
  867MOL0     C16942   2.386   3.250   8.938  0.5099 -1.3010 -0.1757
  867MOL0     C16943   2.383   3.350   8.842 -0.1202  0.9570  0.6914
  867MOL0     C16944   2.332   3.332   8.714  0.6648  0.3248 -0.0756
  867MOL0     C16945   2.280   3.204   8.679  0.8791  0.2790  0.3460
  867MOL0     O16946   2.234   3.167   8.550  0.7054 -0.2932 -0.2914
  867MOL0     C16947   2.214   3.265   8.444  0.2072  0.6496  0.6087
  867MOL0     C16948   2.252   3.221   8.300 -0.1717 -0.1884  0.4614
  867MOL0     C16949   2.167   3.094   8.260 -0.4182 -0.3957 -0.1031
  867MOL0     C16950   2.188   3.051   8.110 -0.1962  0.2190 -0.9816
  867MOL0     C16951   2.065   2.980   8.039 -0.3937  0.7939 -0.3373
  867MOL0     C16952   1.943   3.058   8.055  0.1728 -1.1169  0.3808
  867MOL0     C16953   1.847   3.031   7.934  0.5267  0.5344 -0.6859
  867MOL0     C16954   1.790   2.881   7.927  0.6335 -0.1688 -0.1319
  867MOL0    Cl16955   1.713   2.817   8.078  0.1564 -0.1727 -0.0675
  867MOL0     C16956   2.282   3.101   8.774 -0.4863  1.1769 -0.3133
  867MOL0     C16957   2.327   3.127   8.906  0.0352  0.0091  0.8209
  867MOL0     O16958   2.660   3.280   9.010  0.1693 -0.1858  0.6274
  867MOL0     C16959   2.455   3.073   9.234  0.5175  0.0572  0.4378
  867MOL0     C16960   2.446   2.960   9.310  0.1013  0.4700  0.3144
  867MOL0     N16961   2.055   2.763   9.619 -0.2494  0.5792 -0.0281
  867MOL0     N16962   1.982   2.805   9.713 -0.3581 -0.3749 -0.2153
  867MOL0     C16963   2.301   3.808  10.128  0.4659 -0.4394 -0.8315
  867MOL0     C16964   2.326   3.921  10.206 -0.7729  0.0728 -0.8046
  867MOL0     C16965   2.441   4.262  10.466  1.2484  0.0828 -0.0920
  867MOL0     C16966   2.584   4.256  10.452  0.5968 -0.0245  0.0833
  867MOL0     C16967   2.659   4.363  10.479  0.0518  0.0527  0.1872
  867MOL0     C16968   2.609   4.481  10.536 -0.3957  0.2466  1.0410
  867MOL0     O16969   2.704   4.569  10.572 -0.4545 -0.2393  0.3355
  867MOL0     C16970   2.660   4.638  10.694 -0.3807 -0.8281 -0.0947
  867MOL0     C16971   2.784   4.704  10.760 -1.1961  0.6308  0.1615
  867MOL0     C16972   2.883   4.603  10.815 -0.9388 -0.9370  0.5012
  867MOL0     C16973   2.829   4.515  10.929  0.3407  0.3998  0.0088
  867MOL0     C16974   2.741   4.583  11.021 -0.1957 -0.4949 -0.2357
  867MOL0     C16975   2.663   4.647  11.083  0.1562  0.4713 -0.5679
  867MOL0     C16976   2.471   4.489  10.554 -0.2376  0.3605 -0.0296
  867MOL0     C16977   2.385   4.385  10.514 -0.9538  0.4112  0.6709
  867MOL0     H16978   2.515   3.781  10.451  2.2418  2.3085 -0.0718
  867MOL0     H16979   2.469   3.581  10.315 -1.1595  0.0853  3.0627
  867MOL0     H16980   2.132   3.599  10.102  2.4465  2.2910  0.4122
  867MOL0     H16981   2.193   3.628   9.943  0.8119 -0.3858 -0.0986
  867MOL0     H16982   2.068   3.419   9.954 -0.8587 -1.0475 -0.0419
  867MOL0     H16983   2.239   3.383   9.910 -0.6550  0.5628 -0.7216
  867MOL0     H16984   2.294   3.310  10.129  0.7771 -0.5001 -1.7043
  867MOL0     H16985   2.122   3.344  10.184  1.4724 -1.2370  1.1832
  867MOL0     H16986   2.031   3.188  10.018  2.3237  0.8650 -3.3610
  867MOL0     H16987   2.189   3.161   9.955  1.5120  0.0731  0.6477
  867MOL0     H16988   2.253   3.050  10.193 -1.4013  1.9826  3.6875
  867MOL0     H16989   2.090   3.076  10.231 -2.1762  5.4015 -2.6858
  867MOL0     H16990   2.211   2.914  10.000  0.2466  1.6419 -0.0995
  867MOL0     H16991   2.140   2.822  10.142  0.8509  0.2144  1.1804
  867MOL0     H16992   1.921   2.942  10.091 -3.1518 -0.1941 -3.2077
  867MOL0     H16993   1.978   2.989   9.940  2.0541  2.0004  0.1098
  867MOL0     H16994   1.853   2.774   9.958  0.8533 -0.8607 -1.8266
  867MOL0     H16995   1.985   2.688  10.022 -3.5486 -2.8984 -1.5337
  867MOL0     H16996   2.189   2.608   9.883  3.5614  0.4116 -1.5547
  867MOL0     H16997   2.324   2.565   9.666  0.4489  1.1883  0.0400
  867MOL0     H16998   2.192   2.486   9.569  0.0291  0.1512  0.9702
  867MOL0     H16999   2.295   2.742   9.474  1.7829  0.2091  1.4663
  867MOL0     H17000   2.233   2.606   9.389 -1.0322  3.2772 -1.1076
  867MOL0     H17001   2.428   2.471   9.395 -3.8340  0.6080 -2.4904
  867MOL0     H17002   2.488   2.556   9.546 -0.7948  0.7904 -0.5098
  867MOL0     H17003   2.465   2.677   9.273 -0.3879  1.3790  0.8261
  867MOL0     H17004   2.621   2.611   9.338  0.9721  1.1101 -1.7278
  867MOL0     H17005   2.765   2.862   9.291 -0.6924 -1.3105  0.5692
  867MOL0     H17006   2.882   3.146   9.193  1.6068 -1.1574  0.3506
  867MOL0     H17007   2.896   2.980   9.168  0.6263  0.0620 -2.2432
  867MOL0     H17008   2.828   3.078   9.032 -0.1163 -0.0178 -0.0568
  867MOL0     H17009   2.428   3.444   8.874 -0.8080  1.8909 -0.9817
  867MOL0     H17010   2.328   3.424   8.656  2.3339  2.5754  3.1074
  867MOL0     H17011   2.109   3.296   8.442  0.1812  0.5937  0.9737
  867MOL0     H17012   2.282   3.350   8.460 -0.3928  1.8969 -2.6622
  867MOL0     H17013   2.228   3.307   8.237 -1.0096 -0.0396  0.9686
  867MOL0     H17014   2.360   3.201   8.293  0.2400  2.1364 -1.1555
  867MOL0     H17015   2.066   3.129   8.285 -0.5386  2.8617 -4.1286
  867MOL0     H17016   2.193   3.014   8.330 -1.2824  0.5321  1.3533
  867MOL0     H17017   2.198   3.141   8.049  2.1319  1.0933  0.5386
  867MOL0     H17018   2.278   2.990   8.098 -0.2677  0.3614 -2.4036
  867MOL0     H17019   2.051   2.881   8.083  1.6460  0.7062  0.1969
  867MOL0     H17020   2.071   2.962   7.931 -0.2775 -0.5003 -0.1315
  867MOL0     H17021   1.887   3.040   8.146 -1.1309  2.0176  0.3322
  867MOL0     H17022   1.982   3.160   8.059 -0.9096 -0.5765 -1.4494
  867MOL0     H17023   1.887   3.064   7.837 -0.5349 -1.9388 -2.0727
  867MOL0     H17024   1.755   3.090   7.943 -0.9308 -1.2288 -2.8451
  867MOL0     H17025   1.873   2.816   7.899 -0.9813 -3.8338  2.8454
  867MOL0     H17026   1.716   2.887   7.847  0.0944  0.3527  0.3994
  867MOL0     H17027   2.243   3.002   8.751 -2.2166  1.7589 -0.0349
  867MOL0     H17028   2.326   3.047   8.979  1.4415 -0.5412  0.2521
  867MOL0     H17029   2.362   3.124   9.214  0.9622  0.2391 -1.2896
  867MOL0     H17030   2.349   2.923   9.342 -0.7670  1.7851 -0.7045
  867MOL0     H17031   2.227   3.807  10.048 -2.8650 -2.8265  1.9575
  867MOL0     H17032   2.291   4.021  10.181  0.5846 -0.0158 -3.4949
  867MOL0     H17033   2.640   4.175  10.405  0.5724 -0.4633  0.7842
  867MOL0     H17034   2.764   4.345  10.458  0.4430  3.1834 -1.0197
  867MOL0     H17035   2.598   4.722  10.662  3.5993  2.6709  0.5008
  867MOL0     H17036   2.608   4.567  10.759  0.4959 -0.0057  1.5767
  867MOL0     H17037   2.747   4.775  10.835  0.5259  1.5769  0.1558
  867MOL0     H17038   2.827   4.766  10.681 -1.0994  0.0466 -0.2475
  867MOL0     H17039   2.963   4.660  10.864 -2.4528 -0.3569  2.3826
  867MOL0     H17040   2.926   4.535  10.740  2.7609  1.7114 -0.0617
  867MOL0     H17041   2.911   4.483  10.994 -2.4897  3.9823  6.3076
  867MOL0     H17042   2.772   4.434  10.881 -1.6345  2.4074 -1.1970
  867MOL0     H17043   2.587   4.718  11.111 -2.9179 -1.6597 -2.7904
  867MOL0     H17044   2.427   4.583  10.587  1.8505  1.3275  0.1197
  867MOL0     H17045   2.277   4.382  10.506 -0.8717 -2.5885 -5.0973
  868MOL0     O17046   4.246  11.422   2.464 -0.5231  0.7056  0.3622
  868MOL0     C17047   4.138  11.407   2.407  0.0611  0.3214  0.1146
  868MOL0     O17048   4.066  11.283   2.407 -0.2539  0.3171  0.0260
  868MOL0     C17049   4.102  11.191   2.498  0.2023 -0.9727 -0.6504
  868MOL0     C17050   4.058  11.205   2.632 -0.1415 -0.2509  0.1758
  868MOL0     C17051   4.081  11.099   2.711 -0.4111  0.0982 -0.3769
  868MOL0     C17052   4.156  10.986   2.686 -0.7866 -0.0831  0.3091
  868MOL0     O17053   4.190  10.884   2.762 -0.0357 -0.4453  0.7100
  868MOL0     C17054   4.109  10.853   2.876 -0.0117  0.4802 -1.0824
  868MOL0     C17055   4.138  10.709   2.929  0.7435 -0.3586  0.0640
  868MOL0     C17056   4.288  10.694   2.936 -0.6909 -0.2477 -0.1208
  868MOL0     C17057   4.321  10.576   3.015  0.5798  0.0243  0.4933
  868MOL0     C17058   4.472  10.547   2.993  0.0271 -0.5790 -0.9089
  868MOL0     C17059   4.540  10.454   3.104  0.0629  0.6629 -0.4666
  868MOL0     C17060   4.519  10.506   3.248  0.4066 -0.6483  1.2142
  868MOL0     C17061   4.602  10.421   3.339 -0.7513  0.0530  0.8699
  868MOL0     N17062   4.595  10.449   3.481 -0.3950 -0.4604  0.2871
  868MOL0     C17063   4.561  10.359   3.571 -0.2062  0.0082 -0.7316
  868MOL0     C17064   4.554  10.427   3.695  0.3875  0.1123  1.6123
  868MOL0     C17065   4.512  10.370   3.832  0.4348  0.7047  0.0270
  868MOL0     C17066   4.367  10.430   3.864 -0.4520 -0.1779  0.7959
  868MOL0     C17067   4.266  10.366   3.765  0.1381  0.5693  0.3466
  868MOL0     C17068   4.126  10.366   3.810 -0.1667  0.1141 -0.2813
  868MOL0     O17069   4.111  10.288   3.931 -0.2881 -0.6087  0.2968
  868MOL0     C17070   3.995  10.285   3.990 -0.2682  0.1181  0.2100
  868MOL0     C17071   3.964  10.176   4.072  0.2773  0.8752 -0.0523
  868MOL0     C17072   3.867  10.171   4.163 -0.7966  1.1963 -1.0536
  868MOL0     C17073   3.861  10.048   4.244 -0.7747  0.6709 -1.2406
  868MOL0     C17074   3.775  10.275   4.173 -1.3969 -0.2870  0.0914
  868MOL0     C17075   3.672  10.285   4.276 -0.7015 -0.1383  0.8482
  868MOL0     O17076   3.613  10.408   4.291 -0.5775 -0.1721 -0.7322
  868MOL0     C17077   3.510  10.396   4.380  0.3622 -0.8176 -0.9146
  868MOL0     C17078   3.508  10.491   4.485 -0.0864 -0.5666  1.4092
  868MOL0     C17079   3.408  10.490   4.585 -0.0791  0.4177  0.1752
  868MOL0     C17080   3.288  10.408   4.563 -0.0019 -0.4996 -0.4006
  868MOL0     O17081   3.180  10.420   4.658  0.0596  0.0441  0.2526
  868MOL0     C17082   3.188  10.482   4.787  0.1382  0.4328  0.5829
  868MOL0     C17083   3.051  10.503   4.853 -0.1965 -0.1658 -0.7976
  868MOL0     C17084   2.980  10.373   4.872  0.7775  0.2556  0.1765
  868MOL0     C17085   3.046  10.280   4.981 -0.2439 -0.3558 -0.1135
  868MOL0     C17086   2.964  10.149   4.986  0.1421  0.5603 -0.1644
  868MOL0     C17087   2.989  10.054   5.100 -0.9041 -0.4009 -0.5480
  868MOL0     C17088   2.936   9.916   5.059  0.3973 -0.6171 -0.2686
  868MOL0     C17089   3.034   9.801   5.079  0.3747  0.6361  0.2616
  868MOL0    Cl17090   2.933   9.656   5.074 -0.2504 -0.5348  0.4651
  868MOL0     C17091   3.277  10.325   4.452  0.2772 -0.4776  0.3848
  868MOL0     C17092   3.392  10.319   4.367 -0.5467  0.5324 -1.0138
  868MOL0     O17093   3.640  10.179   4.331 -0.0739 -0.2902 -0.8836
  868MOL0     C17094   3.799  10.392   4.094 -0.4538  0.4446  0.3381
  868MOL0     C17095   3.900  10.386   3.998  0.6626  0.7919 -0.2095
  868MOL0     N17096   4.601  10.552   3.667 -0.2336  0.4368  0.2480
  868MOL0     N17097   4.632  10.566   3.545  0.1799 -0.9167 -0.2394
  868MOL0     C17098   4.198  10.969   2.551  1.1777  0.0115  0.1242
  868MOL0     C17099   4.169  11.076   2.459  0.0004  0.0142  0.8933
  868MOL0     C17100   4.100  11.502   2.303 -0.6088 -0.0005  0.1438
  868MOL0     C17101   3.965  11.538   2.278 -0.0665  0.7354  1.0104
  868MOL0     C17102   3.939  11.613   2.159 -0.4893  0.2106  1.2744
  868MOL0     C17103   4.036  11.666   2.072  0.2777 -0.8393  0.7349
  868MOL0     O17104   4.013  11.757   1.972 -0.4054 -0.2783 -0.4610
  868MOL0     C17105   3.903  11.727   1.885 -0.9095 -0.3699  0.0664
  868MOL0     C17106   3.952  11.753   1.745 -0.1905 -0.3364  0.7620
  868MOL0     C17107   3.938  11.911   1.717 -0.4319 -0.6425  0.4170
  868MOL0     C17108   3.953  11.947   1.564  0.6434  0.0709  0.3908
  868MOL0     C17109   3.823  11.917   1.500 -0.8528 -0.3714  0.6656
  868MOL0     C17110   3.711  11.898   1.474  1.0777  0.0001 -0.2111
  868MOL0     C17111   4.174  11.635   2.109  0.8786  0.1081  1.1686
  868MOL0     C17112   4.206  11.562   2.220 -0.4933  0.0573 -0.3507
  868MOL0     H17113   3.991  11.283   2.670  1.6081  1.0706  0.6866
  868MOL0     H17114   4.053  11.105   2.816  3.3499  0.7447  0.7210
  868MOL0     H17115   4.125  10.925   2.956  0.6375 -0.4468 -0.3604
  868MOL0     H17116   4.003  10.845   2.853 -0.1176  0.8214 -0.7066
  868MOL0     H17117   4.093  10.690   3.027  0.6236  2.2559  0.6077
  868MOL0     H17118   4.100  10.635   2.859 -2.4515 -1.5802  2.7995
  868MOL0     H17119   4.320  10.683   2.832 -0.4236  0.5807 -0.1301
  868MOL0     H17120   4.316  10.785   2.989  0.6907 -1.2518  0.9361
  868MOL0     H17121   4.307  10.608   3.119  3.4219  1.0996  0.6366
  868MOL0     H17122   4.262  10.493   2.977 -0.5568  2.2390 -3.0589
  868MOL0     H17123   4.478  10.505   2.892  1.4720 -0.6542 -0.8056
  868MOL0     H17124   4.522  10.644   2.995 -2.2631  0.7288  2.7591
  868MOL0     H17125   4.488  10.358   3.105  1.1387  0.0761  0.7925
  868MOL0     H17126   4.643  10.429   3.079 -1.0668 -2.9524 -2.2352
  868MOL0     H17127   4.561  10.606   3.260  0.9188 -1.1023  3.6818
  868MOL0     H17128   4.413  10.498   3.274 -0.5068  0.4612 -1.7609
  868MOL0     H17129   4.705  10.423   3.304 -0.3393 -3.6296  1.4797
  868MOL0     H17130   4.567  10.318   3.330  0.2183 -0.1709 -0.8047
  868MOL0     H17131   4.534  10.255   3.555  1.0659 -0.3473 -0.6126
  868MOL0     H17132   4.506  10.262   3.816  2.3256  0.9125 -2.9804
  868MOL0     H17133   4.587  10.384   3.911  0.1461 -2.9317  1.1309
  868MOL0     H17134   4.366  10.537   3.839  0.7679 -0.5333 -0.9535
  868MOL0     H17135   4.344  10.409   3.969  1.8481 -2.4599  0.9530
  868MOL0     H17136   4.304  10.265   3.747  2.7045  1.2934  1.3021
  868MOL0     H17137   4.274  10.424   3.672  2.7662  4.8237  2.8985
  868MOL0     H17138   4.058  10.323   3.736  0.9442 -1.0109 -0.6948
  868MOL0     H17139   4.076  10.461   3.830 -0.8685 -0.8040  2.7689
  868MOL0     H17140   4.025  10.087   4.068  0.4164  0.8629  1.6112
  868MOL0     H17141   3.880  10.070   4.350 -0.7767  0.3075 -1.1631
  868MOL0     H17142   3.767   9.993   4.236  0.4319 -1.5083 -1.2547
  868MOL0     H17143   3.940   9.975   4.223  0.3729  0.7354  2.1260
  868MOL0     H17144   3.593  10.559   4.486 -2.2838  2.6993 -2.4192
  868MOL0     H17145   3.429  10.554   4.670  2.2145  0.6396 -0.4953
  868MOL0     H17146   3.242  10.413   4.851 -4.0507 -3.0831  0.8126
  868MOL0     H17147   3.245  10.575   4.782 -1.8855  1.7475  0.7506
  868MOL0     H17148   3.072  10.547   4.951  3.0404  2.2633 -2.3930
  868MOL0     H17149   2.985  10.567   4.794 -0.9613 -2.6387 -2.8132
  868MOL0     H17150   2.969  10.328   4.773  2.2404  2.3796 -1.0202
  868MOL0     H17151   2.880  10.400   4.908  0.7546  0.3756  0.0209
  868MOL0     H17152   3.150  10.251   4.963 -0.9886 -3.3374 -0.1868
  868MOL0     H17153   3.038  10.340   5.072  1.4613  0.1766 -0.2756
  868MOL0     H17154   2.992  10.099   4.893 -1.5051 -1.7737  0.5171
  868MOL0     H17155   2.861  10.181   4.971  0.3539  1.3489  0.0121
  868MOL0     H17156   3.097  10.045   5.116 -1.0425 -1.7692 -0.2497
  868MOL0     H17157   2.960  10.099   5.194  0.9315  0.5403 -0.3847
  868MOL0     H17158   2.902   9.904   4.956  0.4308  0.8237 -0.4594
  868MOL0     H17159   2.857   9.887   5.129  1.0869  1.9987  1.7188
  868MOL0     H17160   3.092   9.808   5.172  2.2600  0.0392 -0.8225
  868MOL0     H17161   3.099   9.802   4.991 -2.4079 -0.4429 -1.9674
  868MOL0     H17162   3.186  10.269   4.437  0.2073  0.1248 -1.8609
  868MOL0     H17163   3.397  10.240   4.292 -3.8186 -1.5869  0.7475
  868MOL0     H17164   3.745  10.486   4.099  1.4569  1.8338 -2.3991
  868MOL0     H17165   3.904  10.473   3.934 -1.6302 -0.9533 -2.9713
  868MOL0     H17166   4.256  10.880   2.528  2.5294  1.0379 -0.6099
  868MOL0     H17167   4.202  11.073   2.356 -2.0711  0.9640  0.1359
  868MOL0     H17168   3.884  11.523   2.349  0.6262  0.6019  1.7849
  868MOL0     H17169   3.835  11.635   2.136 -0.2870 -0.7401 -0.8452
  868MOL0     H17170   3.869  11.624   1.902  1.2244 -0.9861  0.9525
  868MOL0     H17171   3.817  11.786   1.919 -1.9792 -2.0270  0.3827
  868MOL0     H17172   3.885  11.700   1.676  1.5494 -0.9699 -0.5151
  868MOL0     H17173   4.055  11.719   1.734 -0.8921 -2.5537  0.7077
  868MOL0     H17174   4.003  11.963   1.787  0.5629 -1.1772 -0.0787
  868MOL0     H17175   3.836  11.936   1.746 -1.1869 -0.9151 -1.7861
  868MOL0     H17176   4.043  11.901   1.523 -0.1168 -1.2127  0.1103
  868MOL0     H17177   3.963  12.055   1.550 -3.9512  0.7836  1.0456
  868MOL0     H17178   3.607  11.878   1.459  1.6557 -1.9027 -2.1866
  868MOL0     H17179   4.253  11.692   2.061  2.6434 -2.0885  1.3504
  868MOL0     H17180   4.309  11.538   2.244 -0.3750 -2.3166 -2.7928
  869MOL0     O17181   0.875   6.558   9.715  0.8825 -0.2474  0.5028
  869MOL0     C17182   0.969   6.502   9.763  0.4396  0.8828  0.6976
  869MOL0     O17183   0.974   6.373   9.793 -0.4983 -0.4760 -0.0781
  869MOL0     C17184   0.881   6.282   9.742 -1.0981  0.2822 -0.4886
  869MOL0     C17185   0.744   6.295   9.786  0.5809  0.7756 -0.1131
  869MOL0     C17186   0.658   6.194   9.759  1.0285  0.4822 -0.7728
  869MOL0     C17187   0.698   6.092   9.672  0.6373 -0.3180  0.0356
  869MOL0     O17188   0.608   5.994   9.635  0.2279  0.0561  0.0429
  869MOL0     C17189   0.660   5.866   9.619  0.5559 -0.9226  0.5124
  869MOL0     C17190   0.553   5.765   9.655 -0.9241  0.6214  0.0921
  869MOL0     C17191   0.440   5.764   9.553 -0.4456  0.8198  0.1842
  869MOL0     C17192   0.307   5.722   9.618 -0.4685 -0.0994  0.5033
  869MOL0     C17193   0.212   5.646   9.537 -0.0515 -0.5298  0.4918
  869MOL0     C17194   0.178   5.705   9.400  0.8209 -1.1408  0.2589
  869MOL0     C17195   0.103   5.840   9.391  0.4037 -0.8459  0.3604
  869MOL0     C17196  -0.036   5.855   9.463  0.1513  0.3799 -0.3514
  869MOL0     N17197  -0.083   5.993   9.467  0.1466 -0.0142  0.5583
  869MOL0     C17198  -0.086   6.092   9.367 -0.7929 -1.0731  0.3820
  869MOL0     C17199  -0.172   6.191   9.409 -0.4387 -0.8864 -0.1276
  869MOL0     C17200  -0.221   6.314   9.339 -0.6890 -0.6274 -0.0007
  869MOL0     C17201  -0.111   6.425   9.340 -0.0125  0.9568  0.5014
  869MOL0     C17202  -0.162   6.562   9.306 -0.4364 -0.7577 -0.3273
  869MOL0     C17203  -0.218   6.576   9.157 -1.0450  0.0427 -0.4158
  869MOL0     O17204  -0.116   6.527   9.067 -0.2804  0.1407  0.3237
  869MOL0     C17205  -0.010   6.603   9.056 -0.2045 -1.2382 -0.9313
  869MOL0     C17206  -0.012   6.742   9.019 -0.5551  0.1584 -0.5462
  869MOL0     C17207   0.101   6.830   9.010  1.1699  0.4907  0.5986
  869MOL0     C17208   0.080   6.972   8.956 -0.0599 -0.1850 -0.5980
  869MOL0     C17209   0.224   6.779   9.033 -0.5287  1.2537  0.2124
  869MOL0     C17210   0.349   6.854   9.006 -1.0675  0.7821  0.5190
  869MOL0     O17211   0.459   6.780   8.989  0.1236  0.1936  0.2285
  869MOL0     C17212   0.581   6.836   8.968  0.1537  0.2218  0.2016
  869MOL0     C17213   0.685   6.745   8.991  0.9120 -0.7435  0.0293
  869MOL0     C17214   0.811   6.785   8.940  0.1047  0.1159 -0.3412
  869MOL0     C17215   0.838   6.904   8.888 -0.2097  0.6072  0.2421
  869MOL0     O17216   0.962   6.932   8.839 -0.7014  0.0227  0.0496
  869MOL0     C17217   1.016   7.056   8.877  0.6529 -0.4004 -0.0177
  869MOL0     C17218   1.064   7.113   8.744  0.1159 -0.0311 -0.4089
  869MOL0     C17219   1.170   7.214   8.769 -1.2489 -1.1310 -0.1210
  869MOL0     C17220   1.241   7.275   8.643 -0.1009  1.1301 -0.1230
  869MOL0     C17221   1.337   7.380   8.707 -0.1726 -0.3165  1.1593
  869MOL0     C17222   1.406   7.443   8.588 -0.2229  0.6585 -0.2019
  869MOL0     C17223   1.523   7.533   8.633  0.3058 -0.0584 -1.2361
  869MOL0     C17224   1.571   7.606   8.511  0.3183  0.2927  0.1611
  869MOL0    Cl17225   1.712   7.693   8.570 -0.5416 -0.1602 -0.0995
  869MOL0     C17226   0.730   6.998   8.873 -1.1688  0.7647  0.3984
  869MOL0     C17227   0.604   6.960   8.896 -0.7498  0.2644 -0.2084
  869MOL0     O17228   0.355   6.971   9.036 -0.4531 -0.5656  0.0681
  869MOL0     C17229   0.235   6.636   9.058  0.0934  0.0775  0.2544
  869MOL0     C17230   0.114   6.548   9.074 -0.6786 -0.3439 -0.9465
  869MOL0     N17231  -0.221   6.143   9.529  0.0577  0.3717  0.0329
  869MOL0     N17232  -0.162   6.034   9.572  0.0710  0.2321  0.2813
  869MOL0     C17233   0.828   6.090   9.620  0.7152 -1.0924  1.2777
  869MOL0     C17234   0.916   6.187   9.649 -0.9944 -1.2455 -0.2404
  869MOL0     C17235   1.091   6.584   9.781  0.3478 -0.6994 -0.9383
  869MOL0     C17236   1.098   6.720   9.738 -0.0644  0.7617 -0.3512
  869MOL0     C17237   1.216   6.793   9.743 -0.6670  0.3721 -0.3450
  869MOL0     C17238   1.332   6.735   9.788 -0.3234 -0.5409 -0.2711
  869MOL0     O17239   1.449   6.806   9.778  0.4995 -0.8944 -0.1365
  869MOL0     C17240   1.581   6.740   9.772 -0.2028  0.1785 -0.3119
  869MOL0     C17241   1.696   6.852   9.751 -0.0912 -0.4769  0.4111
  869MOL0     C17242   1.707   6.924   9.611 -1.2428 -0.0997 -0.1187
  869MOL0     C17243   1.725   7.084   9.630 -0.2142  0.7443 -0.3150
  869MOL0     C17244   1.859   7.110   9.688  0.9844  0.1048  0.6486
  869MOL0     C17245   1.967   7.129   9.736 -1.1344  0.2806  0.2628
  869MOL0     C17246   1.333   6.600   9.821 -0.2455 -0.0724  0.0172
  869MOL0     C17247   1.214   6.529   9.824  0.0105 -0.3664 -0.9077
  869MOL0     H17248   0.704   6.367   9.857 -1.7764 -4.4742  4.6848
  869MOL0     H17249   0.554   6.194   9.792  1.5160  0.2127  0.8136
  869MOL0     H17250   0.685   5.857   9.513 -2.6082  2.5199 -0.7375
  869MOL0     H17251   0.743   5.848   9.688 -0.9103  1.0724  2.9666
  869MOL0     H17252   0.599   5.666   9.655 -1.0270  0.5114 -2.5100
  869MOL0     H17253   0.514   5.783   9.756  0.5044  1.4033  0.5328
  869MOL0     H17254   0.436   5.858   9.496  0.2818  0.3321 -0.7000
  869MOL0     H17255   0.475   5.691   9.480 -1.7683  0.4374 -0.0926
  869MOL0     H17256   0.332   5.672   9.712 -0.8447  0.0544  0.6862
  869MOL0     H17257   0.256   5.808   9.662 -0.9090 -1.2505  2.3976
  869MOL0     H17258   0.244   5.542   9.524  0.4087 -0.7746  3.1688
  869MOL0     H17259   0.116   5.642   9.589 -0.3578  1.6896  0.1853
  869MOL0     H17260   0.274   5.720   9.350 -0.5527  1.5534 -1.8306
  869MOL0     H17261   0.111   5.631   9.354 -0.4122 -1.6950  2.7627
  869MOL0     H17262   0.175   5.905   9.441 -1.5896 -0.5877  3.1614
  869MOL0     H17263   0.091   5.867   9.286  2.1812  1.0223  0.5786
  869MOL0     H17264  -0.027   5.807   9.561 -1.7028 -1.5813 -1.0614
  869MOL0     H17265  -0.110   5.798   9.405 -0.7562  1.8132 -0.6385
  869MOL0     H17266  -0.030   6.100   9.275  2.1741  0.8457  2.1622
  869MOL0     H17267  -0.237   6.292   9.233  1.9237 -1.6545 -0.2441
  869MOL0     H17268  -0.316   6.340   9.387 -0.7812 -1.1649  0.1198
  869MOL0     H17269  -0.031   6.385   9.277 -0.9475  0.8029 -0.6396
  869MOL0     H17270  -0.066   6.433   9.439 -1.3662 -0.7216  1.3169
  869MOL0     H17271  -0.082   6.637   9.309 -2.6319  1.7456 -0.4452
  869MOL0     H17272  -0.238   6.588   9.380  1.1375 -0.7531  1.3631
  869MOL0     H17273  -0.246   6.679   9.133 -1.8837 -0.4300 -1.5494
  869MOL0     H17274  -0.313   6.532   9.126  0.6143 -2.0461 -2.9591
  869MOL0     H17275  -0.113   6.775   8.997 -0.9397 -1.7714 -2.0129
  869MOL0     H17276   0.072   7.041   9.040  2.6047 -0.0789 -0.3408
  869MOL0     H17277   0.167   7.013   8.905  0.0276  1.2883  0.6779
  869MOL0     H17278  -0.016   6.985   8.904 -0.6073  1.1706  0.6893
  869MOL0     H17279   0.664   6.648   9.033  0.6696  0.1692  2.1330
  869MOL0     H17280   0.886   6.711   8.966  2.4623  1.9654 -1.4143
  869MOL0     H17281   0.950   7.128   8.927 -1.0848  1.9626 -4.9969
  869MOL0     H17282   1.101   7.035   8.942  0.0125 -3.6503 -0.0871
  869MOL0     H17283   1.107   7.034   8.682 -1.8439 -2.0250  0.6399
  869MOL0     H17284   0.980   7.159   8.691  0.0590  0.2359 -0.0889
  869MOL0     H17285   1.239   7.157   8.832 -0.9853 -2.2665 -1.3887
  869MOL0     H17286   1.133   7.300   8.825  2.0600  0.4209 -0.1320
  869MOL0     H17287   1.304   7.199   8.596  1.6123  0.7492  2.5283
  869MOL0     H17288   1.165   7.317   8.578 -1.1310  0.1007  0.3933
  869MOL0     H17289   1.400   7.332   8.783  0.3098 -0.5220  0.6341
  869MOL0     H17290   1.283   7.459   8.759  1.8636  2.9034 -1.2926
  869MOL0     H17291   1.447   7.360   8.530 -2.5189  0.1671 -1.2431
  869MOL0     H17292   1.337   7.503   8.528  1.7281 -0.1672 -3.5319
  869MOL0     H17293   1.608   7.477   8.672  1.3375  0.3887 -2.7484
  869MOL0     H17294   1.482   7.605   8.705 -0.5125  1.4363 -3.1089
  869MOL0     H17295   1.489   7.669   8.476  2.0687  0.6238 -3.9750
  869MOL0     H17296   1.598   7.537   8.431 -1.0481 -0.6039  0.4218
  869MOL0     H17297   0.741   7.095   8.824  0.8838  0.7147  0.6741
  869MOL0     H17298   0.521   7.021   8.861 -0.3694  0.7100 -0.3449
  869MOL0     H17299   0.336   6.598   9.062  0.6125  1.5507  2.5323
  869MOL0     H17300   0.126   6.444   9.101 -2.3723  0.2855  2.7960
  869MOL0     H17301   0.848   6.027   9.534 -1.8073 -0.6165  0.2282
  869MOL0     H17302   1.017   6.194   9.612 -0.4858  3.4944  1.3819
  869MOL0     H17303   1.008   6.762   9.695  0.4175  3.3883  1.0471
  869MOL0     H17304   1.221   6.896   9.708 -1.1292 -0.5041 -3.3311
  869MOL0     H17305   1.589   6.702   9.874  0.4156  1.4322  0.1250
  869MOL0     H17306   1.604   6.658   9.702  1.7110  0.9343 -0.6293
  869MOL0     H17307   1.791   6.803   9.778 -0.5724 -0.6683  1.8289
  869MOL0     H17308   1.678   6.927   9.828 -1.5696  1.3735 -1.6144
  869MOL0     H17309   1.607   6.908   9.570 -1.1398  0.1727 -0.4796
  869MOL0     H17310   1.770   6.874   9.538  1.6309  1.1742  1.3338
  869MOL0     H17311   1.647   7.137   9.685 -0.0594  3.0815 -2.1995
  869MOL0     H17312   1.737   7.127   9.531 -0.4393  1.3266 -0.0879
  869MOL0     H17313   2.063   7.149   9.779 -0.6524  0.5969 -0.9184
  869MOL0     H17314   1.419   6.544   9.856 -0.3529 -0.1052  0.2356
  869MOL0     H17315   1.213   6.422   9.844 -1.4460  0.0173  1.5949
  870MOL0     O17316  10.536   4.450   1.516  0.1319 -0.3540 -0.3801
  870MOL0     C17317  10.554   4.492   1.407  0.8134 -0.0472 -0.3435
  870MOL0     O17318  10.467   4.497   1.299  0.6658  0.3714 -0.5667
  870MOL0     C17319  10.341   4.456   1.311  0.0746  1.0187 -0.5163
  870MOL0     C17320  10.313   4.328   1.363  0.4678 -0.1138  0.4627
  870MOL0     C17321  10.185   4.270   1.349  0.6786  1.7478  0.9453
  870MOL0     C17322  10.075   4.349   1.300  0.2446  0.4448 -0.1713
  870MOL0     O17323   9.953   4.284   1.302 -0.1443  0.7574  0.3707
  870MOL0     C17324   9.853   4.338   1.219  0.0338 -0.2386 -0.5580
  870MOL0     C17325   9.764   4.217   1.184  0.9928  0.0060  0.0873
  870MOL0     C17326   9.616   4.247   1.147 -1.4595  0.1962  0.6479
  870MOL0     C17327   9.542   4.277   1.277  0.6621 -0.2947 -0.5467
  870MOL0     C17328   9.503   4.152   1.355 -0.1719 -0.8201 -0.6140
  870MOL0     C17329   9.387   4.082   1.302 -0.3086  0.2539 -0.4758
  870MOL0     C17330   9.259   4.162   1.335  0.5263  0.0690  0.2271
  870MOL0     C17331   9.132   4.106   1.285  0.8216  0.1088  0.1955
  870MOL0     N17332   9.129   4.098   1.136  0.4295  0.2031  0.7603
  870MOL0     C17333   9.128   4.202   1.039 -0.0569 -0.2003 -0.8735
  870MOL0     C17334   9.126   4.143   0.912  0.7774  0.2385 -1.0080
  870MOL0     C17335   9.128   4.199   0.769  0.6474 -0.3095 -1.0422
  870MOL0     C17336   9.274   4.223   0.720  0.5833  0.1516  0.3167
  870MOL0     C17337   9.360   4.302   0.818 -0.2293 -0.5668 -0.4885
  870MOL0     C17338   9.295   4.442   0.846 -0.3281 -0.4049  0.2654
  870MOL0     O17339   9.383   4.511   0.935  0.2515 -0.4946  0.2300
  870MOL0     C17340   9.353   4.645   0.946  0.3636  0.5020 -0.6376
  870MOL0     C17341   9.413   4.703   1.064 -0.8487 -0.4143 -0.0047
  870MOL0     C17342   9.422   4.845   1.080 -0.6011 -0.2627  0.3031
  870MOL0     C17343   9.507   4.894   1.196  0.1204  0.0626 -0.4204
  870MOL0     C17344   9.352   4.931   1.002 -0.3113 -0.0974  1.5522
  870MOL0     C17345   9.312   5.076   1.034  0.3272 -0.2596  0.1643
  870MOL0     O17346   9.289   5.100   1.169 -0.5036  0.4800 -0.0833
  870MOL0     C17347   9.202   5.201   1.212  0.1924  0.1517  0.4279
  870MOL0     C17348   9.132   5.171   1.327  0.1238 -0.1587  0.4509
  870MOL0     C17349   9.029   5.254   1.378 -0.1808  0.0740 -0.0724
  870MOL0     C17350   9.003   5.371   1.314 -0.9600  0.3372  0.1853
  870MOL0     O17351   8.905   5.458   1.346 -0.0486  0.1492 -0.2563
  870MOL0     C17352   8.808   5.428   1.442  0.3442  0.0909  0.9111
  870MOL0     C17353   8.742   5.564   1.473 -0.8459 -0.3714  0.1774
  870MOL0     C17354   8.671   5.556   1.609  0.2088  0.0298  0.4408
  870MOL0     C17355   8.766   5.608   1.726 -0.6171 -0.0639 -0.6197
  870MOL0     C17356   8.688   5.652   1.854  0.2088 -0.9888  0.6776
  870MOL0     C17357   8.620   5.539   1.928  0.6112 -0.4770  0.7892
  870MOL0     C17358   8.564   5.598   2.065  0.3549 -0.3218  0.3273
  870MOL0     C17359   8.504   5.491   2.147  1.4653 -0.4865 -0.2133
  870MOL0    Cl17360   8.396   5.380   2.057  0.3556  0.1370 -0.2021
  870MOL0     C17361   9.076   5.412   1.197 -0.6772  0.0641  0.2980
  870MOL0     C17362   9.178   5.324   1.149  1.4749  0.2255 -0.2321
  870MOL0     O17363   9.301   5.150   0.938 -0.0469  0.0128 -0.0915
  870MOL0     C17364   9.282   4.874   0.893 -0.5218 -0.0395  0.5378
  870MOL0     C17365   9.299   4.739   0.853 -0.0985  0.3370  0.3225
  870MOL0     N17366   9.136   4.007   0.933  0.1147  0.5712 -0.0688
  870MOL0     N17367   9.136   3.981   1.060 -1.0334 -0.4011 -0.5218
  870MOL0     C17368  10.102   4.484   1.269 -0.0857 -0.1974  1.0471
  870MOL0     C17369  10.236   4.531   1.265  0.1229 -0.5820  0.4740
  870MOL0     C17370  10.669   4.597   1.386 -0.2578 -0.0926  0.0408
  870MOL0     C17371  10.782   4.605   1.468 -0.0328 -0.1615 -0.3168
  870MOL0     C17372  10.876   4.699   1.441  0.0143  0.5017 -0.0412
  870MOL0     C17373  10.858   4.794   1.342 -0.8233 -0.0689 -0.3801
  870MOL0     O17374  10.955   4.898   1.337  0.3649  0.0510  0.3088
  870MOL0     C17375  10.981   4.982   1.230  0.1692  0.4679  0.0534
  870MOL0     C17376  11.066   5.098   1.287 -0.1946  0.6280  0.2367
  870MOL0     C17377  10.978   5.172   1.388  0.4337 -0.4131  0.4930
  870MOL0     C17378  11.023   5.323   1.426  0.0383 -0.4202  1.2151
  870MOL0     C17379  10.990   5.422   1.318  0.8674  0.3551  0.5134
  870MOL0     C17380  10.942   5.494   1.229  0.0769 -0.0534  0.5969
  870MOL0     C17381  10.751   4.788   1.262 -0.7763  0.8970 -0.0032
  870MOL0     C17382  10.649   4.689   1.287 -0.7267 -0.3145 -1.3626
  870MOL0     H17383  10.398   4.270   1.398 -0.4507 -0.7185  1.7509
  870MOL0     H17384  10.179   4.171   1.392 -1.5178  1.3338 -0.1839
  870MOL0     H17385   9.797   4.418   1.269 -0.6786 -0.2454 -1.3398
  870MOL0     H17386   9.901   4.378   1.129 -0.5875  0.6759 -0.4928
  870MOL0     H17387   9.810   4.166   1.098  0.3824 -0.7918  0.2243
  870MOL0     H17388   9.765   4.144   1.265 -0.3182 -1.9359 -1.5722
  870MOL0     H17389   9.615   4.330   1.075  0.7341  0.0357  0.3616
  870MOL0     H17390   9.573   4.160   1.097 -0.0017  0.6653 -1.5576
  870MOL0     H17391   9.596   4.350   1.339  1.1052 -0.0426 -1.2124
  870MOL0     H17392   9.451   4.323   1.236 -0.2259 -2.5669 -1.2522
  870MOL0     H17393   9.591   4.087   1.360  1.2045  1.0291  0.1918
  870MOL0     H17394   9.474   4.188   1.454 -2.1411 -3.2729 -0.1857
  870MOL0     H17395   9.390   4.061   1.195 -0.3081  2.6736 -1.0117
  870MOL0     H17396   9.381   3.990   1.361 -1.3154  0.8218  0.3562
  870MOL0     H17397   9.236   4.164   1.442  1.4584  0.5789  0.4288
  870MOL0     H17398   9.251   4.264   1.297  1.4815  0.1800  0.3004
  870MOL0     H17399   9.048   4.166   1.318  1.8540  2.2452 -0.8844
  870MOL0     H17400   9.124   4.011   1.340  1.1269 -0.2142 -0.3057
  870MOL0     H17401   9.117   4.308   1.055 -0.6329 -0.4009  0.1412
  870MOL0     H17402   9.073   4.130   0.704  0.2713 -0.1173 -0.9305
  870MOL0     H17403   9.056   4.281   0.763 -0.5609 -1.2018  0.5277
  870MOL0     H17404   9.263   4.281   0.628 -0.8518  3.7613  2.5487
  870MOL0     H17405   9.327   4.130   0.698  0.5977  1.0627 -4.6017
  870MOL0     H17406   9.457   4.321   0.773  0.3563 -1.3185  0.4253
  870MOL0     H17407   9.396   4.255   0.910  1.9277  0.3324 -0.8223
  870MOL0     H17408   9.198   4.446   0.897 -1.0073 -0.9510 -0.9580
  870MOL0     H17409   9.285   4.500   0.754  2.4646  0.6064  0.4782
  870MOL0     H17410   9.462   4.644   1.141  0.2760 -0.2201 -0.5396
  870MOL0     H17411   9.547   4.992   1.170 -1.1323  1.0312  1.0976
  870MOL0     H17412   9.439   4.920   1.277 -1.8607  2.3880 -2.6615
  870MOL0     H17413   9.585   4.819   1.218 -1.2093 -1.1439  0.3730
  870MOL0     H17414   9.133   5.068   1.362  0.1904  0.0698  1.1466
  870MOL0     H17415   8.982   5.226   1.472  1.5390  4.0209  2.2653
  870MOL0     H17416   8.734   5.361   1.399  0.1756  1.7786 -1.6711
  870MOL0     H17417   8.868   5.385   1.523  0.7506  3.0360  2.3343
  870MOL0     H17418   8.825   5.634   1.483 -2.4979  1.5840  1.1840
  870MOL0     H17419   8.679   5.588   1.387  0.6290 -1.4648 -1.2668
  870MOL0     H17420   8.660   5.448   1.628  3.8400 -0.5078  0.2815
  870MOL0     H17421   8.577   5.610   1.599  0.1457  0.0287  0.9834
  870MOL0     H17422   8.838   5.528   1.743 -1.3720 -0.5432  0.3994
  870MOL0     H17423   8.818   5.690   1.676 -1.5111 -0.9429 -3.1535
  870MOL0     H17424   8.619   5.731   1.823  3.3032  1.5700 -0.2238
  870MOL0     H17425   8.751   5.714   1.918  1.2228  0.6152 -1.7482
  870MOL0     H17426   8.536   5.515   1.862  0.5479 -1.6589  1.2655
  870MOL0     H17427   8.695   5.459   1.934  0.3815 -1.2072 -3.3788
  870MOL0     H17428   8.484   5.668   2.040 -0.7442 -1.9098 -0.7785
  870MOL0     H17429   8.651   5.639   2.118  0.6586 -0.4146 -0.0892
  870MOL0     H17430   8.438   5.543   2.217  1.6747  3.5494 -2.7499
  870MOL0     H17431   8.586   5.436   2.194  1.3986  1.4927  2.4787
  870MOL0     H17432   9.036   5.494   1.138  0.0502 -0.3281 -0.7686
  870MOL0     H17433   9.234   5.351   1.060 -0.8058 -0.1745 -1.8791
  870MOL0     H17434   9.217   4.925   0.823  0.0066 -0.2248 -0.0889
  870MOL0     H17435   9.257   4.705   0.758  3.1819 -0.4505 -0.9772
  870MOL0     H17436  10.020   4.549   1.242 -0.2986 -1.3576 -1.3606
  870MOL0     H17437  10.254   4.629   1.223 -0.3163 -0.3845  0.7422
  870MOL0     H17438  10.810   4.546   1.554  2.3481  0.1314 -0.8272
  870MOL0     H17439  10.961   4.701   1.509 -0.5678 -0.5942  0.7586
  870MOL0     H17440  11.037   4.927   1.154  1.2151 -0.7526  1.6441
  870MOL0     H17441  10.889   5.014   1.180  0.7495  1.0481 -0.6743
  870MOL0     H17442  11.079   5.173   1.208 -1.3378  2.2954  1.5776
  870MOL0     H17443  11.158   5.059   1.331 -0.9564 -1.3332  0.1852
  870MOL0     H17444  10.974   5.108   1.476 -2.0574 -1.8801 -0.5942
  870MOL0     H17445  10.876   5.175   1.350 -0.6848 -4.7784  2.5020
  870MOL0     H17446  11.128   5.332   1.455  0.7818 -3.9573  0.1782
  870MOL0     H17447  10.961   5.356   1.510  1.7806  1.2206  1.9295
  870MOL0     H17448  10.900   5.561   1.158 -0.5573  0.6991  1.6455
  870MOL0     H17449  10.739   4.864   1.185  0.2331 -0.4200 -1.5364
  870MOL0     H17450  10.560   4.693   1.225  0.3985 -2.6783 -3.2586
  871MOL0     O17451   3.612   6.395   0.696 -0.2089  0.2128 -0.7140
  871MOL0     C17452   3.501   6.446   0.724 -0.2923  0.8090  0.2349
  871MOL0     O17453   3.446   6.441   0.846  0.6442 -0.2215  0.3177
  871MOL0     C17454   3.540   6.406   0.945  1.0986  0.8219 -0.5273
  871MOL0     C17455   3.505   6.298   1.031  0.0269  0.6030  0.1775
  871MOL0     C17456   3.585   6.256   1.139 -1.1616 -0.7564 -0.3961
  871MOL0     C17457   3.690   6.348   1.176  0.1498  0.4331  0.6127
  871MOL0     O17458   3.780   6.345   1.282  0.5731  0.7300 -0.0513
  871MOL0     C17459   3.723   6.305   1.408  0.1597 -0.2623  0.2226
  871MOL0     C17460   3.813   6.213   1.493  0.1517  0.1866 -0.3562
  871MOL0     C17461   3.956   6.269   1.521 -0.3450 -0.8498  0.2062
  871MOL0     C17462   4.056   6.169   1.582 -0.1630  0.0383  0.2500
  871MOL0     C17463   4.041   6.115   1.725  0.9176  1.4466  0.0392
  871MOL0     C17464   4.050   6.224   1.827 -0.2551  0.6572  0.7310
  871MOL0     C17465   4.026   6.187   1.968  0.2248  0.4581  0.1073
  871MOL0     C17466   4.041   6.318   2.054 -0.8342  0.5847  0.2397
  871MOL0     N17467   3.923   6.331   2.139 -0.2964  0.4342  0.2956
  871MOL0     C17468   3.890   6.244   2.243  0.4016  0.8129  0.6138
  871MOL0     C17469   3.780   6.294   2.293 -0.0387  0.0817  0.2585
  871MOL0     C17470   3.712   6.234   2.407 -0.6805  0.1397  1.2122
  871MOL0     C17471   3.711   6.335   2.520  0.4532  0.5709  0.1351
  871MOL0     C17472   3.610   6.281   2.626  0.4322  0.9373 -0.8501
  871MOL0     C17473   3.626   6.348   2.764 -0.1878 -0.0092  0.3203
  871MOL0     O17474   3.556   6.272   2.862  0.9249 -0.6243 -0.1570
  871MOL0     C17475   3.622   6.212   2.962 -0.1050 -0.1481 -0.6966
  871MOL0     C17476   3.694   6.277   3.061 -0.3614  0.9584  0.4722
  871MOL0     C17477   3.759   6.194   3.153 -0.1276  0.1318 -1.5622
  871MOL0     C17478   3.812   6.278   3.274  0.1177 -1.0907  1.2235
  871MOL0     C17479   3.782   6.056   3.132 -0.0031 -0.4897  0.0476
  871MOL0     C17480   3.846   5.968   3.237  0.0012  0.2874 -0.5102
  871MOL0     O17481   3.871   5.839   3.190  0.1886  0.3477  0.3966
  871MOL0     C17482   3.922   5.745   3.281  0.6332  0.6252 -0.3512
  871MOL0     C17483   4.052   5.723   3.308  0.0706 -0.1381 -0.8261
  871MOL0     C17484   4.098   5.632   3.407  1.4763  1.3054 -0.4705
  871MOL0     C17485   4.000   5.551   3.475 -0.1593  0.1486 -1.2610
  871MOL0     O17486   4.039   5.457   3.566  0.5409  0.3489  0.0305
  871MOL0     C17487   4.171   5.475   3.626  0.7781  0.0913 -0.3005
  871MOL0     C17488   4.205   5.344   3.687  0.1694  0.6366 -0.9522
  871MOL0     C17489   4.195   5.229   3.579 -0.2907 -0.2858  0.3306
  871MOL0     C17490   4.314   5.131   3.581 -0.0764  0.1133  0.5962
  871MOL0     C17491   4.301   5.030   3.471 -0.5305  0.8358 -0.1353
  871MOL0     C17492   4.198   4.927   3.492 -0.1185  0.5088 -0.4137
  871MOL0     C17493   4.228   4.827   3.606 -0.2684 -0.2766  0.0170
  871MOL0     C17494   4.131   4.714   3.601 -0.1891  2.0238 -0.3070
  871MOL0    Cl17495   3.984   4.741   3.705  0.1806 -0.0654  0.2247
  871MOL0     C17496   3.871   5.552   3.419 -0.0947 -0.7274 -0.9985
  871MOL0     C17497   3.833   5.654   3.325  0.4285 -0.3397  1.0007
  871MOL0     O17498   3.863   6.002   3.354 -0.7562 -0.3924  0.5064
  871MOL0     C17499   3.735   5.990   3.014  0.4228 -0.2586 -0.4753
  871MOL0     C17500   3.642   6.071   2.943  0.3763 -0.0869 -0.3852
  871MOL0     N17501   3.754   6.415   2.224  0.9316 -0.2702  0.5589
  871MOL0     N17502   3.838   6.434   2.134  0.1938 -0.3965  0.2994
  871MOL0     C17503   3.717   6.460   1.089  0.1883 -0.1187 -1.1832
  871MOL0     C17504   3.647   6.488   0.972  0.7833 -0.9670 -0.2054
  871MOL0     C17505   3.435   6.518   0.608 -0.1986  0.4474  0.1599
  871MOL0     C17506   3.481   6.521   0.478 -0.0776  0.7057  0.2702
  871MOL0     C17507   3.417   6.596   0.373 -0.2545 -0.0059 -0.9136
  871MOL0     C17508   3.287   6.657   0.410 -1.0472 -0.2827 -0.2077
  871MOL0     O17509   3.210   6.706   0.313  0.7312 -0.0233  0.0163
  871MOL0     C17510   3.147   6.602   0.238 -0.0050  0.1157  0.9341
  871MOL0     C17511   3.084   6.659   0.114  0.8776 -0.3017  0.2958
  871MOL0     C17512   2.966   6.753   0.136 -0.3253  0.0570  0.3704
  871MOL0     C17513   2.903   6.826   0.019  0.3246 -0.6598  0.3353
  871MOL0     C17514   2.837   6.736  -0.073 -0.0429  1.1388  0.4419
  871MOL0     C17515   2.801   6.662  -0.167 -0.0808 -0.2814 -0.1822
  871MOL0     C17516   3.244   6.658   0.540  0.5632 -0.2728  0.7189
  871MOL0     C17517   3.315   6.586   0.631 -0.7269  0.1506 -0.1100
  871MOL0     H17518   3.415   6.242   1.006  0.1679 -0.0179  0.9980
  871MOL0     H17519   3.568   6.165   1.195  0.5671 -0.4427  0.7088
  871MOL0     H17520   3.717   6.401   1.459 -3.7832 -0.6639  0.8201
  871MOL0     H17521   3.629   6.249   1.404  0.3271 -0.6583  1.4452
  871MOL0     H17522   3.767   6.191   1.590 -1.6423  2.5667 -0.5760
  871MOL0     H17523   3.823   6.124   1.430 -0.4044 -1.3554  1.6266
  871MOL0     H17524   3.999   6.299   1.425 -0.2615 -3.9410 -0.8490
  871MOL0     H17525   3.963   6.366   1.571  0.4992  0.1149 -1.6730
  871MOL0     H17526   4.057   6.077   1.523  0.5939 -1.1559  2.0138
  871MOL0     H17527   4.156   6.209   1.566  0.0565 -1.1422 -1.5996
  871MOL0     H17528   3.941   6.071   1.736  0.8723  1.5442  0.0213
  871MOL0     H17529   4.118   6.040   1.742  0.6992  0.4108 -3.0077
  871MOL0     H17530   4.158   6.237   1.821  0.3332 -3.3587  0.0778
  871MOL0     H17531   3.990   6.313   1.806 -1.5394  0.2014  2.2225
  871MOL0     H17532   3.918   6.169   1.962 -0.0213  0.9199  2.2714
  871MOL0     H17533   4.091   6.106   2.002 -0.3288 -0.1332 -0.2225
  871MOL0     H17534   4.051   6.411   1.998 -0.3723  0.8181  0.6954
  871MOL0     H17535   4.133   6.300   2.110  0.7869 -0.2232 -2.5357
  871MOL0     H17536   3.926   6.146   2.272  1.5993  1.2075  0.5349
  871MOL0     H17537   3.609   6.200   2.392  0.1913 -1.5392 -2.0952
  871MOL0     H17538   3.766   6.143   2.436 -1.3844 -0.7563 -0.1470
  871MOL0     H17539   3.695   6.437   2.482  2.4390 -0.1441 -3.0015
  871MOL0     H17540   3.809   6.342   2.569 -0.7514  1.9356  2.5388
  871MOL0     H17541   3.644   6.180   2.647  0.9834  1.6292  1.8986
  871MOL0     H17542   3.504   6.284   2.597  0.5698 -0.3112 -1.5838
  871MOL0     H17543   3.582   6.448   2.761  1.4256  0.7116 -0.2874
  871MOL0     H17544   3.732   6.350   2.791 -0.6568 -0.8808  2.3537
  871MOL0     H17545   3.691   6.386   3.063  0.9211  1.0047  0.7250
  871MOL0     H17546   3.759   6.373   3.266 -2.6037 -2.6448 -0.8411
  871MOL0     H17547   3.797   6.232   3.372 -1.1441 -0.0849  1.5331
  871MOL0     H17548   3.917   6.309   3.269 -0.2723  0.2672  0.8987
  871MOL0     H17549   4.122   5.792   3.262 -1.1851  2.0662  0.4084
  871MOL0     H17550   4.201   5.643   3.438  0.7511 -1.3476  3.6232
  871MOL0     H17551   4.252   5.486   3.553 -0.5387  1.9265 -1.5784
  871MOL0     H17552   4.168   5.544   3.711  0.0349  0.0162 -0.2631
  871MOL0     H17553   4.309   5.340   3.722  0.0903  1.4864 -0.5809
  871MOL0     H17554   4.137   5.326   3.771 -1.5783  4.9372 -1.1806
  871MOL0     H17555   4.197   5.265   3.476 -0.9863  1.8174  0.9961
  871MOL0     H17556   4.102   5.174   3.600 -0.4500  0.4962  1.8831
  871MOL0     H17557   4.395   5.201   3.555 -2.5576  2.7647 -0.4881
  871MOL0     H17558   4.324   5.090   3.682  0.7137  0.0528  0.5037
  871MOL0     H17559   4.395   4.979   3.450 -2.9802 -2.3555 -5.1324
  871MOL0     H17560   4.283   5.085   3.378  1.1684  1.3198 -0.2059
  871MOL0     H17561   4.099   4.968   3.515  0.6039  1.4300  1.2162
  871MOL0     H17562   4.196   4.867   3.401 -2.6689 -2.5813  1.4673
  871MOL0     H17563   4.227   4.872   3.706 -0.6573  0.8581 -0.4822
  871MOL0     H17564   4.328   4.782   3.601  0.6370  0.7486  4.3869
  871MOL0     H17565   4.171   4.621   3.643 -1.0345  1.5071 -0.6256
  871MOL0     H17566   4.106   4.689   3.497 -1.3212  0.2952  0.3451
  871MOL0     H17567   3.808   5.465   3.438  0.0535 -0.5720  0.2973
  871MOL0     H17568   3.735   5.670   3.280 -1.4153  0.5942  4.8180
  871MOL0     H17569   3.762   5.888   2.991  0.3442 -0.2524 -0.5959
  871MOL0     H17570   3.585   6.020   2.866  0.8852  2.2800 -2.4794
  871MOL0     H17571   3.797   6.525   1.124 -0.2521  0.0018 -0.3777
  871MOL0     H17572   3.663   6.579   0.916  2.8740 -2.8052 -2.8419
  871MOL0     H17573   3.567   6.462   0.449 -1.3642 -1.0746 -0.1321
  871MOL0     H17574   3.460   6.623   0.277 -0.8905  2.8238 -0.5088
  871MOL0     H17575   3.206   6.513   0.216  0.1019  0.9288 -2.8077
  871MOL0     H17576   3.075   6.556   0.305 -1.0328 -1.2047 -0.9624
  871MOL0     H17577   3.065   6.574   0.047 -0.5755 -0.7661  1.2595
  871MOL0     H17578   3.161   6.715   0.059  1.1485 -2.8000 -2.0546
  871MOL0     H17579   3.020   6.821   0.203 -0.4716  1.8109 -1.2285
  871MOL0     H17580   2.891   6.703   0.198  2.1581 -1.3674  2.4102
  871MOL0     H17581   2.984   6.881  -0.029 -0.4135 -0.3146 -0.5259
  871MOL0     H17582   2.839   6.911   0.042 -0.5935 -1.5895  1.3497
  871MOL0     H17583   2.767   6.606  -0.251  0.2900 -1.3003  0.3139
  871MOL0     H17584   3.150   6.704   0.572  2.0822  0.7680  4.1182
  871MOL0     H17585   3.275   6.569   0.730 -0.7638  2.8461  0.4112
  872MOL0     O17586   4.828  11.309   7.904  0.4911 -0.5407 -0.2528
  872MOL0     C17587   4.770  11.271   7.802  0.5031  0.4705  0.1789
  872MOL0     O17588   4.717  11.151   7.779  0.0726 -0.1126 -0.7121
  872MOL0     C17589   4.724  11.053   7.882  0.3093  0.0075  0.0346
  872MOL0     C17590   4.612  10.984   7.940 -0.8434  0.2525  0.9716
  872MOL0     C17591   4.633  10.886   8.040 -0.4554 -0.1911  1.1598
  872MOL0     C17592   4.754  10.839   8.083 -0.4676  0.0049  0.4263
  872MOL0     O17593   4.770  10.750   8.184 -0.2232 -0.0721  0.6493
  872MOL0     C17594   4.662  10.661   8.224 -0.4110 -0.1710  0.3106
  872MOL0     C17595   4.728  10.559   8.322  0.1753  0.9062 -0.4093
  872MOL0     C17596   4.732  10.607   8.468 -0.5272 -0.4010 -0.0386
  872MOL0     C17597   4.744  10.490   8.565 -0.0240 -0.1344 -0.3764
  872MOL0     C17598   4.709  10.506   8.706 -0.1159 -0.3976 -1.6107
  872MOL0     C17599   4.823  10.565   8.804  0.1295 -0.3536 -0.4324
  872MOL0     C17600   4.814  10.534   8.952 -0.9121  0.1296 -0.2093
  872MOL0     C17601   4.692  10.588   9.037 -0.0700  0.1417  0.8663
  872MOL0     N17602   4.636  10.709   8.984 -0.1835 -0.2404  0.1955
  872MOL0     C17603   4.681  10.841   8.988 -0.5405 -0.2814  0.0732
  872MOL0     C17604   4.594  10.919   8.929  0.3215 -1.3632  0.3477
  872MOL0     C17605   4.622  11.065   8.885 -0.2328 -0.0480 -0.3411
  872MOL0     C17606   4.713  11.065   8.759  0.1810 -0.6364 -0.0576
  872MOL0     C17607   4.646  11.002   8.644  0.4514  1.1036  0.2122
  872MOL0     C17608   4.736  10.978   8.529 -0.6678 -0.0902 -0.3711
  872MOL0     O17609   4.772  11.098   8.466  1.1566 -0.5518  0.1361
  872MOL0     C17610   4.685  11.151   8.376  0.2708  0.6697  0.3799
  872MOL0     C17611   4.551  11.122   8.365 -0.3679 -0.8536 -0.6856
  872MOL0     C17612   4.468  11.175   8.265 -0.8321  0.9205  0.1471
  872MOL0     C17613   4.321  11.134   8.256 -0.5303  0.0993  0.4302
  872MOL0     C17614   4.516  11.273   8.176  0.1226 -0.9580  0.1533
  872MOL0     C17615   4.446  11.351   8.074  0.3964  0.3336 -0.1194
  872MOL0     O17616   4.507  11.355   7.950 -0.2106 -0.4707 -0.0608
  872MOL0     C17617   4.433  11.392   7.839 -0.5914  0.2432 -0.1538
  872MOL0     C17618   4.384  11.518   7.804 -0.7889 -0.5067  1.0183
  872MOL0     C17619   4.316  11.547   7.685 -1.0297  0.6023 -0.8277
  872MOL0     C17620   4.292  11.447   7.594  0.2222  0.0747 -0.6314
  872MOL0     O17621   4.200  11.475   7.499 -0.8993  0.0167  0.7711
  872MOL0     C17622   4.252  11.553   7.392 -1.0952 -0.1995  1.2911
  872MOL0     C17623   4.158  11.662   7.349  0.7019 -0.0936  0.8759
  872MOL0     C17624   4.187  11.715   7.207  1.3073  0.4933  0.1080
  872MOL0     C17625   4.296  11.830   7.201 -0.2150 -0.4262 -0.4104
  872MOL0     C17626   4.387  11.867   7.093  0.0913  0.8132 -0.2040
  872MOL0     C17627   4.297  11.915   6.977  0.2131  0.7744 -0.0592
  872MOL0     C17628   4.376  11.997   6.863  1.3264 -0.1814 -0.3045
  872MOL0     C17629   4.504  11.929   6.829  0.6173  0.3084  0.3688
  872MOL0    Cl17630   4.632  11.945   6.958 -0.1836 -0.1589  0.2512
  872MOL0     C17631   4.350  11.324   7.626  0.7073  0.2374  0.0959
  872MOL0     C17632   4.413  11.289   7.746  0.0877  0.8516 -0.8287
  872MOL0     O17633   4.334  11.390   8.090  0.0635  0.1578 -1.0763
  872MOL0     C17634   4.652  11.302   8.198  1.1118  0.6415  0.1952
  872MOL0     C17635   4.738  11.243   8.288 -0.2101  0.0612  0.4881
  872MOL0     N17636   4.493  10.837   8.877  0.1957 -0.2645 -0.7921
  872MOL0     N17637   4.524  10.710   8.910  0.3079 -0.6205 -0.8754
  872MOL0     C17638   4.866  10.902   8.022 -0.0031 -0.5172 -0.4662
  872MOL0     C17639   4.853  11.005   7.931 -0.2139 -0.4032  0.0515
  872MOL0     C17640   4.770  11.363   7.680  0.5130  0.2852 -0.0763
  872MOL0     C17641   4.794  11.494   7.693 -0.4413  0.1876 -0.4986
  872MOL0     C17642   4.811  11.588   7.589  0.3019  0.8574  1.1963
  872MOL0     C17643   4.785  11.546   7.460  0.3514  0.9106  0.6493
  872MOL0     O17644   4.780  11.627   7.350  0.3871 -0.3827  0.0041
  872MOL0     C17645   4.837  11.761   7.336  1.2063  0.4357 -0.2135
  872MOL0     C17646   4.740  11.874   7.401 -0.4470 -0.4445  1.4236
  872MOL0     C17647   4.738  11.996   7.309  0.0036  0.5485 -0.4241
  872MOL0     C17648   4.652  12.101   7.375 -0.6933 -0.7291 -1.0704
  872MOL0     C17649   4.662  12.224   7.289 -0.2853  0.6275 -0.3072
  872MOL0     C17650   4.678  12.332   7.239  0.3173 -0.4392 -0.0883
  872MOL0     C17651   4.759  11.409   7.442 -0.6955 -0.4577  0.1977
  872MOL0     C17652   4.745  11.322   7.549 -0.3447  0.5037  0.2733
  872MOL0     H17653   4.517  11.008   7.894 -1.0229  1.4315  1.9008
  872MOL0     H17654   4.543  10.848   8.087  0.1055 -1.8924  0.9256
  872MOL0     H17655   4.585  10.714   8.281 -0.3839  0.3263 -0.1124
  872MOL0     H17656   4.610  10.622   8.136  0.5629  0.7576 -0.7093
  872MOL0     H17657   4.670  10.466   8.318  1.6460 -0.0121 -3.7177
  872MOL0     H17658   4.821  10.519   8.280 -1.4963 -1.7565 -1.8871
  872MOL0     H17659   4.803  10.689   8.487  0.2205 -1.7746  3.9074
  872MOL0     H17660   4.635  10.654   8.488  0.1576  0.2958  1.8140
  872MOL0     H17661   4.672  10.413   8.537 -0.6266 -0.5369  1.9967
  872MOL0     H17662   4.836  10.432   8.557 -1.0208 -1.6037 -1.6430
  872MOL0     H17663   4.611  10.552   8.719  0.4880  0.3227  0.9393
  872MOL0     H17664   4.695  10.402   8.737 -3.0423 -0.1403 -1.8315
  872MOL0     H17665   4.921  10.535   8.765  0.0331 -1.0160 -0.1807
  872MOL0     H17666   4.829  10.673   8.787 -0.7567 -0.4764 -1.6473
  872MOL0     H17667   4.828  10.426   8.963 -2.0553  0.0548  0.6386
  872MOL0     H17668   4.900  10.578   9.004 -1.0758  2.1102 -1.5155
  872MOL0     H17669   4.725  10.617   9.137 -0.5754 -0.1550  1.1250
  872MOL0     H17670   4.610  10.515   9.044  0.8212 -1.3762 -2.5853
  872MOL0     H17671   4.767  10.881   9.041 -0.9536 -2.0100  2.1623
  872MOL0     H17672   4.530  11.121   8.868 -2.3270 -2.6015  1.7481
  872MOL0     H17673   4.666  11.119   8.970 -3.2687  0.0435  1.3164
  872MOL0     H17674   4.809  11.019   8.784  1.0670  1.3852  0.4466
  872MOL0     H17675   4.737  11.166   8.725 -0.6641 -0.3177  0.2609
  872MOL0     H17676   4.558  11.061   8.616  0.3771  0.6185 -0.6183
  872MOL0     H17677   4.619  10.900   8.674  0.3908  1.2449  0.6493
  872MOL0     H17678   4.690  10.911   8.455 -1.0618  0.5917 -0.7495
  872MOL0     H17679   4.830  10.931   8.559 -0.8814 -1.6323 -1.9325
  872MOL0     H17680   4.495  11.042   8.413 -2.2412  0.2058 -0.9817
  872MOL0     H17681   4.267  11.228   8.272 -0.1193  0.4900 -0.4010
  872MOL0     H17682   4.296  11.091   8.159 -3.3701  2.8374 -0.2000
  872MOL0     H17683   4.304  11.072   8.344  5.9095  0.3598  2.4067
  872MOL0     H17684   4.396  11.603   7.871 -2.9900 -1.9700  3.4949
  872MOL0     H17685   4.260  11.639   7.671  1.3169  1.9369 -2.0589
  872MOL0     H17686   4.356  11.585   7.405 -2.0227  2.9347  1.6741
  872MOL0     H17687   4.261  11.478   7.313  0.2556  0.9996  0.2578
  872MOL0     H17688   4.058  11.621   7.367 -1.0221  2.8225 -1.1309
  872MOL0     H17689   4.176  11.738   7.426  3.5674  0.3743 -0.1288
  872MOL0     H17690   4.086  11.741   7.173  1.5799  2.1234  0.4612
  872MOL0     H17691   4.225  11.633   7.145  5.3622  0.1217  2.6863
  872MOL0     H17692   4.251  11.926   7.226  1.1267  0.4307 -1.1423
  872MOL0     H17693   4.352  11.812   7.294  0.7938 -0.5266 -1.0240
  872MOL0     H17694   4.455  11.785   7.070 -0.4819 -0.3941  2.0801
  872MOL0     H17695   4.449  11.953   7.120  1.3142  0.0881 -0.6421
  872MOL0     H17696   4.250  11.830   6.928 -0.1822  1.2178 -0.4689
  872MOL0     H17697   4.219  11.984   7.011  2.6103  3.4448  0.3875
  872MOL0     H17698   4.394  12.098   6.900 -0.8555 -0.0546  0.5547
  872MOL0     H17699   4.311  12.013   6.777 -0.6648  0.7535  1.2727
  872MOL0     H17700   4.542  11.969   6.735  1.6874 -1.1486  0.1476
  872MOL0     H17701   4.484  11.824   6.809  0.3948 -0.0672  2.3237
  872MOL0     H17702   4.307  11.250   7.559 -5.3363  2.1371  1.2703
  872MOL0     H17703   4.436  11.184   7.755  1.0090  1.1274  0.2248
  872MOL0     H17704   4.697  11.374   8.129  0.7703  3.8597  3.0503
  872MOL0     H17705   4.840  11.278   8.293  0.5955 -1.5960 -2.5130
  872MOL0     H17706   4.962  10.860   8.049 -1.6341 -2.8977  2.2336
  872MOL0     H17707   4.939  11.050   7.882  0.4988 -0.0704  1.5619
  872MOL0     H17708   4.809  11.533   7.793  0.3651 -2.2244  0.3786
  872MOL0     H17709   4.832  11.693   7.607  1.1997  0.7477  0.8631
  872MOL0     H17710   4.928  11.754   7.396 -0.7418 -2.7895  2.7031
  872MOL0     H17711   4.847  11.794   7.232  1.2075  1.4878  0.1066
  872MOL0     H17712   4.793  11.907   7.491  0.9761 -0.8939  0.7879
  872MOL0     H17713   4.636  11.843   7.405 -0.9509  0.8501 -0.4072
  872MOL0     H17714   4.688  11.962   7.217 -0.3427 -3.3494  1.0126
  872MOL0     H17715   4.840  12.025   7.284  0.1544 -0.4324 -1.0288
  872MOL0     H17716   4.682  12.127   7.477 -0.6385  1.5629 -1.6046
  872MOL0     H17717   4.546  12.077   7.384 -1.0805  1.5111  2.8571
  872MOL0     H17718   4.710  12.431   7.214 -1.8449  0.4024  0.2575
  872MOL0     H17719   4.739  11.385   7.338 -3.2774 -1.6002  0.8807
  872MOL0     H17720   4.728  11.215   7.537 -0.0668  0.5675 -0.8037
  873MOL0     O17721   6.033   9.909   4.826 -0.7162 -0.1848  0.3227
  873MOL0     C17722   6.045  10.019   4.884 -0.0672 -0.1151  0.4088
  873MOL0     O17723   5.962  10.121   4.870  0.3382  0.2727 -0.4745
  873MOL0     C17724   5.848  10.101   4.797 -0.8284 -0.5912  0.8966
  873MOL0     C17725   5.853  10.138   4.663 -0.6978  0.9061  0.0737
  873MOL0     C17726   5.741  10.115   4.573 -0.7773 -0.6254 -0.9703
  873MOL0     C17727   5.635  10.037   4.611 -0.3909 -0.2284 -0.4823
  873MOL0     O17728   5.540  10.018   4.523  0.2966 -1.0600 -0.3063
  873MOL0     C17729   5.418  10.090   4.557 -0.0756 -0.2072 -0.3320
  873MOL0     C17730   5.312  10.057   4.450  0.5913  0.0902 -0.7634
  873MOL0     C17731   5.377  10.037   4.312  0.7457  0.5019 -0.5096
  873MOL0     C17732   5.267  10.013   4.204 -0.0271 -0.4579 -1.4772
  873MOL0     C17733   5.331  10.038   4.069  0.1113  0.4694  0.4037
  873MOL0     C17734   5.246   9.945   3.971 -0.0728  0.1017  0.2975
  873MOL0     C17735   5.255   9.953   3.819 -0.4879 -0.6542 -0.4893
  873MOL0     C17736   5.396   9.891   3.775 -0.0071 -0.1770  1.0178
  873MOL0     N17737   5.438   9.956   3.650  0.8375 -0.3963 -0.4734
  873MOL0     C17738   5.497  10.076   3.659 -0.3903  0.9595 -0.2334
  873MOL0     C17739   5.461  10.147   3.554  0.2869 -0.6034  0.1345
  873MOL0     C17740   5.471  10.296   3.544  0.3614  0.1858 -0.3729
  873MOL0     C17741   5.611  10.329   3.536  0.2849  0.5385 -0.7621
  873MOL0     C17742   5.639  10.462   3.473  1.0976 -0.3909  0.0903
  873MOL0     C17743   5.781  10.496   3.513 -0.3158 -0.3754 -0.3585
  873MOL0     O17744   5.810  10.630   3.461  0.2635 -0.6315 -0.1514
  873MOL0     C17745   5.918  10.698   3.506 -0.7978 -0.2007  0.4387
  873MOL0     C17746   5.936  10.828   3.460  0.2130  0.6187  0.1023
  873MOL0     C17747   6.047  10.907   3.490 -0.6559 -0.0287 -0.0706
  873MOL0     C17748   6.050  11.049   3.432  0.2506  0.3680  0.5703
  873MOL0     C17749   6.138  10.865   3.589 -0.4554  0.3142 -0.0119
  873MOL0     C17750   6.256  10.945   3.636 -0.6404  0.5609  0.2958
  873MOL0     O17751   6.256  11.079   3.622 -0.3240  0.4995  0.2492
  873MOL0     C17752   6.360  11.167   3.602  0.2925  0.2615  0.1232
  873MOL0     C17753   6.484  11.123   3.559  0.9327 -1.1530 -0.7166
  873MOL0     C17754   6.583  11.215   3.523  0.2591  0.0014 -0.3517
  873MOL0     C17755   6.564  11.349   3.555  0.0389  0.6564  0.4230
  873MOL0     O17756   6.648  11.441   3.509  0.5275 -0.3043 -0.5179
  873MOL0     C17757   6.786  11.444   3.555 -0.2507  0.0065  0.6988
  873MOL0     C17758   6.870  11.435   3.430 -0.7908 -0.4165 -0.2046
  873MOL0     C17759   6.864  11.553   3.332  0.4765 -0.0492 -0.2605
  873MOL0     C17760   6.891  11.693   3.397  0.6709 -0.3693 -0.0411
  873MOL0     C17761   6.887  11.800   3.287  0.3138 -0.3489  0.1800
  873MOL0     C17762   6.919  11.940   3.340  0.2691 -1.2324  0.5846
  873MOL0     C17763   6.803  12.009   3.424 -0.7680  0.9416  0.5333
  873MOL0     C17764   6.797  12.158   3.400 -0.1037 -0.8519 -0.8200
  873MOL0    Cl17765   6.955  12.244   3.455 -0.6767 -0.0062  0.8387
  873MOL0     C17766   6.443  11.400   3.600  0.1816 -0.8082 -0.0933
  873MOL0     C17767   6.346  11.306   3.629  0.8472  0.5602 -0.0130
  873MOL0     O17768   6.354  10.887   3.678  0.2519  0.5558  0.3414
  873MOL0     C17769   6.126  10.730   3.631  0.1623  0.1856 -0.8897
  873MOL0     C17770   6.016  10.649   3.597 -0.3691 -0.1080  0.2524
  873MOL0     N17771   5.392  10.059   3.473  0.4408  0.1663  0.1477
  873MOL0     N17772   5.383   9.942   3.527  0.4078  0.2440  0.8867
  873MOL0     C17773   5.626   9.996   4.745  0.2818  0.0683  0.2918
  873MOL0     C17774   5.734  10.032   4.835  0.3068 -0.5301 -0.5325
  873MOL0     C17775   6.168  10.049   4.951 -0.4238  0.6753  0.4484
  873MOL0     C17776   6.207  10.178   4.991  0.1465 -0.2496  1.0932
  873MOL0     C17777   6.339  10.196   5.037 -0.3266  0.2131 -0.3369
  873MOL0     C17778   6.423  10.094   5.072 -0.4295  0.1766 -0.5810
  873MOL0     O17779   6.535  10.111   5.145 -1.2296  0.2310 -0.6599
  873MOL0     C17780   6.639  10.182   5.082  0.7554  0.1210  0.8790
  873MOL0     C17781   6.733  10.228   5.193  0.0549 -0.4603  0.7023
  873MOL0     C17782   6.842  10.307   5.125 -0.1094  0.5840 -0.7131
  873MOL0     C17783   6.919  10.376   5.231 -0.5393 -0.2384 -0.3953
  873MOL0     C17784   7.013  10.285   5.297  0.4969 -0.0469  0.0260
  873MOL0     C17785   7.097  10.210   5.344  0.0235  0.1618  0.8828
  873MOL0     C17786   6.371   9.965   5.054  0.0493  0.1909  0.5512
  873MOL0     C17787   6.248   9.944   4.993  0.0825 -0.0463 -0.8981
  873MOL0     H17788   5.937  10.195   4.625  1.5436 -2.9133 -1.3080
  873MOL0     H17789   5.741  10.147   4.469  0.5639 -1.5983 -1.3038
  873MOL0     H17790   5.380  10.078   4.659  0.1672 -3.6321 -0.5552
  873MOL0     H17791   5.448  10.195   4.547  1.6144 -0.5429  0.6673
  873MOL0     H17792   5.254   9.974   4.493 -1.1192 -0.0869 -3.2104
  873MOL0     H17793   5.240  10.137   4.437  1.8213  1.4427  0.3989
  873MOL0     H17794   5.433  10.130   4.296 -0.5793  1.5710  0.7633
  873MOL0     H17795   5.452   9.957   4.319  0.4524  0.3662  2.0642
  873MOL0     H17796   5.229   9.910   4.209 -0.0880 -0.4023 -0.5739
  873MOL0     H17797   5.183  10.081   4.223  0.5927 -0.1133  0.1458
  873MOL0     H17798   5.320  10.142   4.037 -1.2792  0.3672  0.4726
  873MOL0     H17799   5.437  10.011   4.074  0.0538  0.4251  2.1066
  873MOL0     H17800   5.265   9.838   3.984 -2.1148 -0.2361  0.6976
  873MOL0     H17801   5.143   9.964   3.999 -0.3315  0.1518 -0.6372
  873MOL0     H17802   5.172   9.899   3.772  0.5569 -2.3090 -0.4991
  873MOL0     H17803   5.262  10.058   3.790  2.0339 -0.9908 -1.3648
  873MOL0     H17804   5.384   9.784   3.755 -0.3889 -0.5958  3.2411
  873MOL0     H17805   5.475   9.908   3.849  2.3863  2.9859 -1.9829
  873MOL0     H17806   5.561  10.117   3.737  1.7177 -0.7001 -0.9728
  873MOL0     H17807   5.421  10.319   3.449 -3.9424 -0.5313  1.4659
  873MOL0     H17808   5.423  10.352   3.625  0.9921  2.2010 -1.3220
  873MOL0     H17809   5.663  10.257   3.471 -0.4718  0.7541 -1.6329
  873MOL0     H17810   5.649  10.321   3.638 -0.3118  1.2069 -0.4759
  873MOL0     H17811   5.573  10.534   3.520 -0.1254 -2.8285  2.3699
  873MOL0     H17812   5.620  10.459   3.365 -0.6059  0.7350  0.3167
  873MOL0     H17813   5.845  10.415   3.475 -2.7520 -1.5990 -2.1776
  873MOL0     H17814   5.784  10.509   3.621  1.0861  2.1321 -0.6188
  873MOL0     H17815   5.857  10.871   3.399  0.3553  1.4901  0.5126
  873MOL0     H17816   5.985  11.051   3.344 -0.3857  1.5191  1.0467
  873MOL0     H17817   6.029  11.126   3.507 -0.0415  0.2007  0.6648
  873MOL0     H17818   6.151  11.056   3.391  0.9908 -0.2407  2.1816
  873MOL0     H17819   6.508  11.022   3.525  2.3820 -1.4336  1.0070
  873MOL0     H17820   6.673  11.176   3.477  2.1276  2.3155  1.0937
  873MOL0     H17821   6.812  11.541   3.597  0.7718  0.0401  0.0291
  873MOL0     H17822   6.808  11.362   3.624 -2.8965  0.6354  2.4148
  873MOL0     H17823   6.976  11.426   3.458 -1.0538 -1.6308  0.4804
  873MOL0     H17824   6.847  11.343   3.375  0.2880 -0.9492  0.1912
  873MOL0     H17825   6.765  11.559   3.287 -0.5102  1.4877  1.9371
  873MOL0     H17826   6.921  11.536   3.240 -1.7172 -3.4376 -1.1695
  873MOL0     H17827   6.806  11.708   3.465 -0.7548  0.6824 -1.9377
  873MOL0     H17828   6.988  11.696   3.448  1.0233  3.9315 -0.5549
  873MOL0     H17829   6.791  11.806   3.234  0.6910 -2.2455 -0.8113
  873MOL0     H17830   6.961  11.770   3.212 -0.7780 -0.5990 -0.8364
  873MOL0     H17831   7.011  11.935   3.399  0.5528 -0.8821  0.1806
  873MOL0     H17832   6.942  12.005   3.255 -2.8080  0.1056  0.6578
  873MOL0     H17833   6.810  11.972   3.526  1.0558 -0.0640  0.0913
  873MOL0     H17834   6.708  11.969   3.386  0.7263 -0.4886 -1.9293
  873MOL0     H17835   6.708  12.199   3.449  0.1213 -1.8401  0.4874
  873MOL0     H17836   6.787  12.176   3.293 -2.1203  0.4049 -0.4766
  873MOL0     H17837   6.428  11.506   3.618 -0.3459 -0.9891  0.5428
  873MOL0     H17838   6.249  11.347   3.655  1.7261  3.4763 -0.9198
  873MOL0     H17839   6.208  10.687   3.688  2.3694  3.5328 -1.2426
  873MOL0     H17840   6.031  10.546   3.628 -0.1294 -0.0172  0.4366
  873MOL0     H17841   5.543   9.933   4.777 -2.0530  1.6450 -2.1305
  873MOL0     H17842   5.738   9.982   4.932 -0.3621 -0.2711 -0.3618
  873MOL0     H17843   6.148  10.269   4.993  1.4979  0.7255 -0.4176
  873MOL0     H17844   6.360  10.293   5.081  0.6246  0.2991 -0.9407
  873MOL0     H17845   6.682  10.130   4.996 -0.8778  1.2380 -0.7016
  873MOL0     H17846   6.603  10.274   5.035  1.6980  0.4933  0.8546
  873MOL0     H17847   6.781  10.139   5.236  3.4286  0.7686 -0.2144
  873MOL0     H17848   6.692  10.292   5.272 -1.6651 -1.6366  0.8297
  873MOL0     H17849   6.791  10.389   5.073 -1.6904 -0.2479 -0.5292
  873MOL0     H17850   6.900  10.236   5.066 -0.4178 -0.3916  0.1437
  873MOL0     H17851   6.845  10.416   5.301 -1.7458 -2.7366 -0.1316
  873MOL0     H17852   6.981  10.457   5.190  0.7644 -1.3745 -0.7551
  873MOL0     H17853   7.176  10.145   5.377  0.6953 -0.9379 -2.5603
  873MOL0     H17854   6.427   9.885   5.102 -0.0953  1.0863  2.2764
  873MOL0     H17855   6.209   9.842   4.985 -1.6843  0.6192 -1.3569
  874MOL0     O17856   3.385   2.124   4.475 -0.0171 -0.0203 -0.7490
  874MOL0     C17857   3.427   2.106   4.358 -0.6654  0.3719 -0.1350
  874MOL0     O17858   3.388   2.010   4.268 -0.4479 -0.0328 -0.4054
  874MOL0     C17859   3.268   1.954   4.266  0.4435  0.0686  0.5522
  874MOL0     C17860   3.166   2.036   4.274 -0.0978 -0.6954  0.3330
  874MOL0     C17861   3.039   1.991   4.270  0.2484  0.4127 -0.1063
  874MOL0     C17862   3.013   1.851   4.253 -0.2953  0.3734  0.1290
  874MOL0     O17863   2.892   1.794   4.254 -0.7199  0.2694 -0.0258
  874MOL0     C17864   2.809   1.810   4.140 -0.4129  0.2724  0.6614
  874MOL0     C17865   2.730   1.685   4.116  0.9504 -0.6371 -0.0940
  874MOL0     C17866   2.825   1.572   4.056 -0.3835 -0.0806 -0.1231
  874MOL0     C17867   2.750   1.446   4.082 -0.2825  0.3914 -0.6892
  874MOL0     C17868   2.811   1.309   4.039 -0.4438 -1.0840 -0.0110
  874MOL0     C17869   2.711   1.194   4.016  0.0835 -0.0447  0.1909
  874MOL0     C17870   2.640   1.161   4.154  0.1288  0.1014  0.1283
  874MOL0     C17871   2.558   1.033   4.148  0.8753  0.2087  0.2945
  874MOL0     N17872   2.441   1.045   4.068  1.2076 -0.0277  0.0669
  874MOL0     C17873   2.426   1.010   3.935 -0.7934  0.0153 -0.7657
  874MOL0     C17874   2.311   1.070   3.895  0.5601 -0.3888 -0.3240
  874MOL0     C17875   2.246   1.060   3.755 -0.1257 -0.6784  0.9767
  874MOL0     C17876   2.142   1.168   3.726  0.8721  0.0018 -0.4682
  874MOL0     C17877   2.089   1.150   3.583  0.2709  0.1219  0.4078
  874MOL0     C17878   2.056   1.009   3.540 -0.0266  0.7299  0.7670
  874MOL0     O17879   2.043   1.020   3.393  0.3105  0.0228 -0.2807
  874MOL0     C17880   1.948   0.943   3.321 -0.5397  0.1347  1.2558
  874MOL0     C17881   1.863   0.842   3.371 -0.0906 -0.5075 -0.5015
  874MOL0     C17882   1.777   0.781   3.283 -0.0179  1.5510  0.1732
  874MOL0     C17883   1.682   0.673   3.337  0.1129  0.1193 -0.1837
  874MOL0     C17884   1.764   0.816   3.148 -0.6189 -0.1269  0.4772
  874MOL0     C17885   1.656   0.770   3.049 -0.6229 -0.1506 -0.1264
  874MOL0     O17886   1.583   0.650   3.074  0.0418  0.2316 -0.0333
  874MOL0     C17887   1.488   0.612   2.988  0.0160  0.9164 -0.4016
  874MOL0     C17888   1.376   0.688   2.979  0.2817 -1.0374  0.4590
  874MOL0     C17889   1.269   0.660   2.888  0.2646  0.2597 -0.9254
  874MOL0     C17890   1.282   0.552   2.806  0.3697 -0.1739 -0.0890
  874MOL0     O17891   1.192   0.524   2.702 -0.1187  0.6686 -0.8602
  874MOL0     C17892   1.134   0.625   2.620  0.2779  0.7451 -0.3024
  874MOL0     C17893   1.025   0.562   2.520 -0.4337 -0.2425  0.1077
  874MOL0     C17894   1.080   0.451   2.425 -0.4078  0.8520 -0.1295
  874MOL0     C17895   0.969   0.418   2.325 -0.2987 -0.2902 -0.7839
  874MOL0     C17896   1.007   0.314   2.219 -1.3738  0.3118 -0.5715
  874MOL0     C17897   0.886   0.290   2.127 -0.4218 -0.2438  0.0823
  874MOL0     C17898   0.925   0.192   2.012  0.7874 -0.2638 -0.3390
  874MOL0     C17899   0.910   0.044   2.054  0.1792  0.0122  0.6306
  874MOL0    Cl17900   0.973  -0.053   1.907  0.2331  0.0172  0.1447
  874MOL0     C17901   1.388   0.461   2.826 -0.2143 -0.9493  0.7781
  874MOL0     C17902   1.489   0.492   2.915  0.6668 -0.2052 -0.6419
  874MOL0     O17903   1.645   0.838   2.948 -1.0009  0.8753  0.6039
  874MOL0     C17904   1.858   0.915   3.103 -0.6869  0.1989  0.1218
  874MOL0     C17905   1.938   0.980   3.189  0.1238 -0.4042  0.7234
  874MOL0     N17906   2.251   1.113   4.008  0.4734  0.5691 -0.0986
  874MOL0     N17907   2.323   1.104   4.114  0.7019 -0.3646 -0.0092
  874MOL0     C17908   3.118   1.765   4.252 -0.1628 -0.0030  0.1169
  874MOL0     C17909   3.252   1.817   4.256  0.0677 -0.0744  0.1039
  874MOL0     C17910   3.540   2.189   4.309  0.9666 -0.2567  0.2857
  874MOL0     C17911   3.622   2.239   4.411 -0.6318  0.1208 -0.8343
  874MOL0     C17912   3.737   2.313   4.387  0.7042 -0.2992 -0.1640
  874MOL0     C17913   3.773   2.335   4.253 -0.3759 -0.1024 -0.6078
  874MOL0     O17914   3.873   2.421   4.225  0.0245  0.4847  0.2206
  874MOL0     C17915   3.952   2.396   4.102  0.5846  0.2545  0.4200
  874MOL0     C17916   4.063   2.494   4.088 -0.5442  0.3587  0.0516
  874MOL0     C17917   4.174   2.450   4.188 -0.5996 -0.1751  0.2474
  874MOL0     C17918   4.309   2.522   4.159  0.3787 -0.1679  0.2187
  874MOL0     C17919   4.356   2.467   4.034  0.0425  0.8945  0.1438
  874MOL0     C17920   4.398   2.415   3.932  0.0962 -0.5750  1.3236
  874MOL0     C17921   3.698   2.275   4.156  0.9437  0.2652  0.1768
  874MOL0     C17922   3.590   2.204   4.174  0.9901 -0.3396 -0.1354
  874MOL0     H17923   3.186   2.143   4.271  3.2755 -1.2451 -1.8174
  874MOL0     H17924   2.952   2.056   4.280  1.9029  2.7652 -0.1013
  874MOL0     H17925   2.745   1.897   4.154 -0.7445 -0.1728  2.0848
  874MOL0     H17926   2.873   1.817   4.051 -0.2049 -1.1004  0.6798
  874MOL0     H17927   2.685   1.658   4.212  0.9668 -4.3286 -0.9565
  874MOL0     H17928   2.660   1.718   4.039  2.1847  2.9516  0.1262
  874MOL0     H17929   2.838   1.588   3.949 -0.5892  0.0264 -0.1311
  874MOL0     H17930   2.924   1.567   4.102 -0.7911  1.6327  1.0131
  874MOL0     H17931   2.738   1.434   4.190 -5.3654 -1.2180 -1.1510
  874MOL0     H17932   2.651   1.459   4.038 -1.3499  0.4996  1.5836
  874MOL0     H17933   2.851   1.315   3.938  0.8666 -0.9649  0.5003
  874MOL0     H17934   2.900   1.284   4.098 -0.3822  1.7131  1.2210
  874MOL0     H17935   2.624   1.223   3.957  0.1831  1.7378  0.8638
  874MOL0     H17936   2.760   1.112   3.963 -0.6832 -1.2552  1.2993
  874MOL0     H17937   2.720   1.138   4.226 -0.3613  2.7784  1.6596
  874MOL0     H17938   2.581   1.243   4.194  1.0100  0.1479  1.3950
  874MOL0     H17939   2.515   1.006   4.245 -0.5683 -2.4095 -0.9527
  874MOL0     H17940   2.614   0.951   4.104 -1.8310 -1.7542  0.2262
  874MOL0     H17941   2.501   0.975   3.864  0.6836 -0.6839  1.0436
  874MOL0     H17942   2.321   1.050   3.676 -0.0865 -4.6369  1.3450
  874MOL0     H17943   2.207   0.959   3.768 -0.7227 -0.3410  1.9378
  874MOL0     H17944   2.182   1.269   3.737  0.9949  0.1143 -1.8254
  874MOL0     H17945   2.068   1.143   3.803  2.8042 -2.3112  0.7727
  874MOL0     H17946   2.171   1.179   3.516 -0.1354  3.7896  1.2629
  874MOL0     H17947   1.996   1.204   3.562  1.1553  1.2721 -0.7538
  874MOL0     H17948   1.967   0.975   3.595 -0.1617 -0.3437 -0.0800
  874MOL0     H17949   2.136   0.935   3.549  0.8787  1.4716 -0.8110
  874MOL0     H17950   1.859   0.812   3.475  0.4869 -2.5505 -1.0282
  874MOL0     H17951   1.713   0.648   3.438 -0.6708  2.0645  0.5954
  874MOL0     H17952   1.580   0.713   3.335 -0.4701 -1.0635 -4.3668
  874MOL0     H17953   1.696   0.583   3.277  2.0494 -0.9457  1.7505
  874MOL0     H17954   1.365   0.779   3.037  1.3582 -1.0072  0.6393
  874MOL0     H17955   1.185   0.726   2.876 -1.2410 -1.4443 -0.2059
  874MOL0     H17956   1.083   0.699   2.682 -2.3545 -0.7370 -0.5620
  874MOL0     H17957   1.216   0.668   2.561  2.1936 -1.4527  0.6471
  874MOL0     H17958   0.939   0.522   2.573 -0.5323  1.8140  1.6240
  874MOL0     H17959   0.985   0.646   2.463 -2.2827 -0.8756  0.4162
  874MOL0     H17960   1.103   0.360   2.482  1.9811  0.9672 -0.7971
  874MOL0     H17961   1.170   0.486   2.374  0.2968 -0.6044  0.0488
  874MOL0     H17962   0.874   0.393   2.374 -1.3421  2.6042 -1.1355
  874MOL0     H17963   0.945   0.504   2.262 -0.5452 -0.7844 -1.3706
  874MOL0     H17964   1.048   0.223   2.264 -1.5647  2.0510  3.4828
  874MOL0     H17965   1.087   0.349   2.153 -3.1533  4.9303 -0.6167
  874MOL0     H17966   0.802   0.243   2.178 -1.0511 -0.5040 -1.1625
  874MOL0     H17967   0.863   0.383   2.074  0.8178  1.7865  2.8280
  874MOL0     H17968   1.032   0.200   1.995  1.3999  0.2917  2.9853
  874MOL0     H17969   0.870   0.212   1.920  0.8152  1.7046  0.0146
  874MOL0     H17970   0.805   0.031   2.083 -0.1904 -1.0440 -1.0158
  874MOL0     H17971   0.979   0.019   2.135 -0.2242  0.8053  1.2375
  874MOL0     H17972   1.391   0.375   2.759  1.6598 -1.4086  1.3910
  874MOL0     H17973   1.583   0.437   2.921  0.9534  0.4448  1.7720
  874MOL0     H17974   1.848   0.954   3.002  1.7295  1.7142  0.3749
  874MOL0     H17975   2.005   1.054   3.146 -2.9559  2.2538  0.1127
  874MOL0     H17976   3.100   1.658   4.261  3.1796 -0.5899  1.4710
  874MOL0     H17977   3.342   1.757   4.256  1.7230  2.2997 -0.7058
  874MOL0     H17978   3.600   2.230   4.517  0.0012 -4.0791 -0.8948
  874MOL0     H17979   3.796   2.363   4.464 -0.6169  0.9975  0.0408
  874MOL0     H17980   4.007   2.302   4.108  3.0865  1.6071  0.1322
  874MOL0     H17981   3.891   2.385   4.012  0.9837 -0.8880  0.2735
  874MOL0     H17982   4.026   2.596   4.101  0.5106  0.9274 -1.1982
  874MOL0     H17983   4.098   2.479   3.986 -3.3503  1.3186 -1.1357
  874MOL0     H17984   4.188   2.341   4.182 -0.4540 -0.0634 -3.1235
  874MOL0     H17985   4.147   2.480   4.290  2.7909 -2.4468  2.0138
  874MOL0     H17986   4.382   2.483   4.230  0.6118 -0.9239 -0.4273
  874MOL0     H17987   4.290   2.629   4.155 -2.1603 -0.5632 -0.1999
  874MOL0     H17988   4.425   2.355   3.847  2.2728  0.3547  1.2958
  874MOL0     H17989   3.710   2.295   4.050  0.6228  1.9753  0.4374
  874MOL0     H17990   3.538   2.156   4.092 -0.3226 -0.2380  0.6065
  875MOL0     O17991   7.333   4.698  11.387 -0.1953  0.0245  0.4893
  875MOL0     C17992   7.424   4.709  11.467 -0.4170 -0.4987 -0.7735
  875MOL0     O17993   7.427   4.785  11.587  0.2984  0.6456 -0.1249
  875MOL0     C17994   7.315   4.847  11.640  0.2404  0.4711 -0.4228
  875MOL0     C17995   7.345   4.942  11.734  0.1442  0.0833 -1.2778
  875MOL0     C17996   7.245   4.994  11.820 -0.7081 -0.0150 -0.4701
  875MOL0     C17997   7.115   4.964  11.802 -0.1776 -0.5983  0.3716
  875MOL0     O17998   7.025   5.005  11.901 -0.2590 -0.2108 -0.3464
  875MOL0     C17999   6.900   5.024  11.836  0.9716 -0.5730 -0.3355
  875MOL0     C18000   6.824   5.141  11.903  0.6500  0.3355  0.4666
  875MOL0     C18001   6.790   5.116  12.059  0.3298 -0.0619 -0.4092
  875MOL0     C18002   6.789   5.252  12.137  0.5727 -0.7871 -0.2946
  875MOL0     C18003   6.930   5.291  12.189 -0.6059 -0.5211 -0.2585
  875MOL0     C18004   6.950   5.430  12.253  0.4702  0.0058  0.3657
  875MOL0     C18005   7.101   5.449  12.284 -0.3013  0.1375 -0.6402
  875MOL0     C18006   7.186   5.518  12.176 -0.0912 -0.5745 -0.0876
  875MOL0     N18007   7.319   5.559  12.217  0.0557 -0.2239 -0.1137
  875MOL0     C18008   7.424   5.549  12.128 -0.2005 -0.9145 -0.4571
  875MOL0     C18009   7.519   5.609  12.201 -0.5490  0.5110 -0.5248
  875MOL0     C18010   7.663   5.640  12.147  0.6096 -0.2776  1.1233
  875MOL0     C18011   7.766   5.556  12.222 -0.9854 -0.1358 -0.8039
  875MOL0     C18012   7.914   5.609  12.206  0.2754  0.2241 -0.3193
  875MOL0     C18013   8.023   5.516  12.261  0.2219 -0.0799  1.0956
  875MOL0     O18014   8.148   5.578  12.254 -0.5355 -0.1922 -0.1710
  875MOL0     C18015   8.174   5.702  12.308  0.2042 -0.1292  0.1029
  875MOL0     C18016   8.118   5.755  12.427  0.5787  0.3995 -0.7490
  875MOL0     C18017   8.143   5.883  12.469 -0.7160 -0.6998 -0.7005
  875MOL0     C18018   8.080   5.947  12.596 -0.9048 -0.2088 -0.7873
  875MOL0     C18019   8.245   5.956  12.396 -0.5648 -0.2081  0.0203
  875MOL0     C18020   8.286   6.097  12.429 -0.1363  0.5261 -0.0681
  875MOL0     O18021   8.183   6.186  12.433 -0.7365 -0.5367 -0.3234
  875MOL0     C18022   8.211   6.314  12.431 -0.0948 -0.0828 -0.4218
  875MOL0     C18023   8.205   6.367  12.297  0.2231 -0.4920  0.3582
  875MOL0     C18024   8.208   6.505  12.270  0.9097  0.0788  0.0674
  875MOL0     C18025   8.229   6.592  12.383  0.5959  0.5323  0.0259
  875MOL0     O18026   8.241   6.723  12.379  0.1436 -0.7161 -0.6774
  875MOL0     C18027   8.255   6.793  12.261 -0.2783  0.6784 -0.4508
  875MOL0     C18028   8.264   6.939  12.302  0.9074  1.1202  0.4296
  875MOL0     C18029   8.286   7.031  12.176  0.1135  0.3406 -0.5822
  875MOL0     C18030   8.161   7.064  12.104  0.1710  0.2647 -0.2188
  875MOL0     C18031   8.179   7.177  11.994  0.2360 -0.5766  0.3960
  875MOL0     C18032   8.267   7.142  11.874 -0.0514 -0.7287  0.2404
  875MOL0     C18033   8.281   7.253  11.772 -0.3749 -0.4219  0.3191
  875MOL0     C18034   8.326   7.214  11.632 -0.5314  0.7689 -0.8621
  875MOL0    Cl18035   8.429   7.060  11.638 -0.2438  0.3606 -0.5641
  875MOL0     C18036   8.227   6.545  12.512 -0.3722  0.8120 -0.9857
  875MOL0     C18037   8.214   6.404  12.541  0.4382 -0.4436 -0.1123
  875MOL0     O18038   8.404   6.126  12.437  0.0972  0.3334  0.7151
  875MOL0     C18039   8.311   5.901  12.285  0.9230 -0.1258  0.4243
  875MOL0     C18040   8.268   5.772  12.241  0.5301  0.3824  1.3980
  875MOL0     N18041   7.473   5.657  12.323  0.1769  0.1211 -0.7157
  875MOL0     N18042   7.358   5.628  12.325 -0.3279  0.2506  0.3601
  875MOL0     C18043   7.084   4.871  11.700 -0.3626  0.3501 -0.4522
  875MOL0     C18044   7.180   4.806  11.622  0.2616  0.1921  0.0126
  875MOL0     C18045   7.547   4.635  11.427  0.3274  0.0963 -0.8233
  875MOL0     C18046   7.541   4.531  11.331 -0.3643  0.9061 -0.0250
  875MOL0     C18047   7.662   4.455  11.310 -0.0293  0.5095 -1.0973
  875MOL0     C18048   7.779   4.477  11.391  0.8422  0.2567  2.1251
  875MOL0     O18049   7.895   4.398  11.387 -0.5655 -0.7070 -0.6247
  875MOL0     C18050   7.934   4.352  11.253  0.3689  1.1499 -0.2632
  875MOL0     C18051   8.084   4.336  11.258 -0.0466  0.0234  0.4892
  875MOL0     C18052   8.164   4.473  11.235 -0.3370  0.2640 -0.5603
  875MOL0     C18053   8.277   4.492  11.348 -0.1205  0.1261  0.2674
  875MOL0     C18054   8.336   4.626  11.358 -0.1316  0.4599 -0.3241
  875MOL0     C18055   8.379   4.737  11.372 -0.4665 -0.5175 -0.1612
  875MOL0     C18056   7.772   4.582  11.470  0.9110 -0.6139 -0.6788
  875MOL0     C18057   7.663   4.661  11.493  0.3792  0.9654  0.0831
  875MOL0     H18058   7.446   4.981  11.751 -0.6167  1.4517  0.4728
  875MOL0     H18059   7.274   5.052  11.907  2.5158 -2.0316 -0.0308
  875MOL0     H18060   6.911   5.040  11.729  1.2179 -1.6626 -0.4888
  875MOL0     H18061   6.839   4.932  11.840 -2.4166  1.5215  1.2364
  875MOL0     H18062   6.878   5.235  11.900 -2.2417  2.1169  0.3236
  875MOL0     H18063   6.731   5.169  11.852  0.9152  3.4495  1.4854
  875MOL0     H18064   6.689   5.074  12.055  0.2057 -0.0321  1.4835
  875MOL0     H18065   6.860   5.046  12.105 -0.2345 -0.4761 -0.1741
  875MOL0     H18066   6.748   5.331  12.074 -2.4801 -2.2794 -0.3439
  875MOL0     H18067   6.716   5.235  12.216  0.0931 -0.4635 -0.6676
  875MOL0     H18068   6.951   5.221  12.270 -1.5853 -0.7789 -0.2204
  875MOL0     H18069   7.007   5.274  12.113 -0.9791 -1.1778 -0.5061
  875MOL0     H18070   6.914   5.510  12.187 -1.4520 -0.7744  0.4176
  875MOL0     H18071   6.890   5.437  12.344  1.0111  1.8370  0.6424
  875MOL0     H18072   7.114   5.504  12.378 -0.7830  0.3758 -0.7104
  875MOL0     H18073   7.145   5.353  12.312 -1.7401 -0.1106  0.9926
  875MOL0     H18074   7.127   5.605  12.144 -0.7740 -0.4632  1.3684
  875MOL0     H18075   7.198   5.458  12.085  0.4266 -0.7589  0.1016
  875MOL0     H18076   7.419   5.515  12.025  1.3353 -0.2532 -0.7699
  875MOL0     H18077   7.673   5.619  12.040 -0.3975 -2.3076  1.3835
  875MOL0     H18078   7.683   5.747  12.157  2.3704 -0.3480 -0.8630
  875MOL0     H18079   7.764   5.460  12.169  1.0698 -0.1450 -0.9462
  875MOL0     H18080   7.741   5.538  12.327 -1.1073 -1.8382 -1.0928
  875MOL0     H18081   7.923   5.705  12.259  0.3366  1.1021 -1.8738
  875MOL0     H18082   7.941   5.618  12.101  1.9700 -1.9618 -0.1475
  875MOL0     H18083   8.030   5.433  12.190 -1.3744  1.4761 -1.0443
  875MOL0     H18084   7.988   5.483  12.359  0.1526 -1.5419  0.5946
  875MOL0     H18085   8.042   5.693  12.472  2.0697 -0.0465  1.2583
  875MOL0     H18086   8.071   5.869  12.672  0.5209 -0.6154 -1.0000
  875MOL0     H18087   8.129   6.033  12.642 -2.0693 -1.0623  2.2609
  875MOL0     H18088   7.978   5.975  12.569 -0.7507  3.3254  1.6709
  875MOL0     H18089   8.200   6.301  12.211  0.8620  0.2476 -0.2636
  875MOL0     H18090   8.209   6.541  12.168 -0.9524  1.2870  0.4270
  875MOL0     H18091   8.354   6.776  12.218 -0.6196  1.3708 -1.5473
  875MOL0     H18092   8.181   6.769  12.184 -0.9308 -1.7586  0.8406
  875MOL0     H18093   8.170   6.962  12.352  0.6559 -0.2591  0.6217
  875MOL0     H18094   8.349   6.959  12.368  1.2605  2.9458 -0.5016
  875MOL0     H18095   8.360   6.991  12.107  0.1512 -1.6764  0.5370
  875MOL0     H18096   8.323   7.126  12.217  0.3975 -0.6682  1.6635
  875MOL0     H18097   8.130   6.978  12.044 -2.4663 -0.4123  1.8942
  875MOL0     H18098   8.078   7.092  12.170  0.7662  0.8431  0.2924
  875MOL0     H18099   8.227   7.260  12.047  0.9337 -0.4742 -0.3768
  875MOL0     H18100   8.082   7.207  11.953  1.7013  1.3206 -1.9826
  875MOL0     H18101   8.369   7.137  11.913  0.5521  3.7976 -0.2257
  875MOL0     H18102   8.230   7.056  11.819  2.5016 -1.1670 -0.9274
  875MOL0     H18103   8.353   7.325  11.812 -1.7137  0.9549  0.3229
  875MOL0     H18104   8.186   7.306  11.759  0.0788  0.7022  1.3957
  875MOL0     H18105   8.379   7.295  11.581  0.7336  0.1705 -0.5357
  875MOL0     H18106   8.246   7.182  11.565 -0.5545 -1.2097  0.0440
  875MOL0     H18107   8.225   6.622  12.589  1.1466  1.3849 -1.4821
  875MOL0     H18108   8.195   6.369  12.642 -0.9074  0.4284 -0.0420
  875MOL0     H18109   8.384   5.956  12.225 -0.1292  0.0808 -0.6953
  875MOL0     H18110   8.313   5.731  12.150 -1.4775 -0.4793  0.7503
  875MOL0     H18111   6.981   4.846  11.678 -1.1661  2.0142  1.1315
  875MOL0     H18112   7.147   4.725  11.558  1.6157 -1.0526  0.8021
  875MOL0     H18113   7.454   4.500  11.274  0.7692  0.2725 -1.4596
  875MOL0     H18114   7.672   4.382  11.230  2.6924  1.0172 -1.3152
  875MOL0     H18115   7.881   4.260  11.227 -0.2774  1.3306  0.3827
  875MOL0     H18116   7.896   4.426  11.182 -0.4310  0.6248 -0.3897
  875MOL0     H18117   8.108   4.274  11.172 -1.5822 -1.4242  1.0466
  875MOL0     H18118   8.104   4.283  11.352 -0.9348 -1.2735 -0.0333
  875MOL0     H18119   8.099   4.561  11.243 -0.5603  0.1099 -0.6790
  875MOL0     H18120   8.218   4.464  11.140 -0.8481  1.2544 -0.9614
  875MOL0     H18121   8.354   4.421  11.316 -1.7416 -0.5742 -2.5120
  875MOL0     H18122   8.247   4.463  11.449 -3.3209 -3.1154 -1.3568
  875MOL0     H18123   8.419   4.835  11.389 -0.0458 -0.1153 -3.0028
  875MOL0     H18124   7.855   4.606  11.537 -0.5815 -0.1229  1.0809
  875MOL0     H18125   7.658   4.747  11.560 -1.3783  1.9451 -1.2248
  876MOL0     O18126   7.330   8.400   5.022 -0.9655 -0.8652  0.1222
  876MOL0     C18127   7.441   8.411   4.968 -0.3631  0.8865 -0.1082
  876MOL0     O18128   7.563   8.364   5.016 -0.7035 -0.9218 -0.2772
  876MOL0     C18129   7.571   8.301   5.134 -0.0471  0.2424 -0.2265
  876MOL0     C18130   7.498   8.188   5.170  0.0451  0.5761  0.0277
  876MOL0     C18131   7.506   8.124   5.300 -0.2210  0.7238  0.5911
  876MOL0     C18132   7.590   8.182   5.396 -0.1080 -0.3183  0.0738
  876MOL0     O18133   7.597   8.130   5.524  0.2215  0.1311 -0.0546
  876MOL0     C18134   7.458   8.124   5.587  0.0822 -0.1386  0.8602
  876MOL0     C18135   7.476   8.145   5.734  0.8265 -0.7618  0.1141
  876MOL0     C18136   7.514   8.292   5.785 -0.4241 -0.0827  0.2098
  876MOL0     C18137   7.415   8.408   5.742  0.0863 -0.0860 -0.0959
  876MOL0     C18138   7.449   8.541   5.813 -0.8313  0.5117 -0.4529
  876MOL0     C18139   7.344   8.635   5.783 -0.0059  0.2612  0.6625
  876MOL0     C18140   7.359   8.773   5.844 -0.0015  0.2498  0.2042
  876MOL0     C18141   7.255   8.866   5.809  0.0807 -0.6151  0.3858
  876MOL0     N18142   7.252   8.992   5.890 -0.4939  0.0742 -0.5320
  876MOL0     C18143   7.362   9.070   5.905  0.3123  0.4738 -0.2991
  876MOL0     C18144   7.321   9.185   5.961  0.2551 -1.2264  0.1482
  876MOL0     C18145   7.403   9.313   5.970  0.4876 -0.0790 -0.3414
  876MOL0     C18146   7.447   9.329   6.118  0.5215 -0.9796 -0.0446
  876MOL0     C18147   7.531   9.464   6.147  0.4813 -0.3371  0.2048
  876MOL0     C18148   7.650   9.504   6.057  0.4603  1.1944  0.4772
  876MOL0     O18149   7.734   9.392   6.035  0.3949  0.0809 -0.1653
  876MOL0     C18150   7.830   9.360   6.124 -0.2859 -0.0702 -0.4747
  876MOL0     C18151   7.833   9.413   6.260  0.2245  0.0868  0.6244
  876MOL0     C18152   7.933   9.377   6.359 -0.4375  0.2755 -0.1681
  876MOL0     C18153   7.928   9.436   6.500 -0.8746 -0.5032 -0.7174
  876MOL0     C18154   8.027   9.281   6.318 -0.2886  0.1486  0.2846
  876MOL0     C18155   8.147   9.238   6.401  0.7899 -0.6010 -0.0575
  876MOL0     O18156   8.234   9.141   6.345 -0.6415 -0.2517  0.4023
  876MOL0     C18157   8.337   9.082   6.416 -0.0526 -0.2883  0.2384
  876MOL0     C18158   8.439   9.167   6.461  0.2142 -0.2598 -0.0262
  876MOL0     C18159   8.529   9.115   6.562 -0.1862  0.0959 -0.3231
  876MOL0     C18160   8.522   8.973   6.593  0.4859 -0.6158 -0.4311
  876MOL0     O18161   8.601   8.913   6.694  0.3920 -0.3997  0.4875
  876MOL0     C18162   8.737   8.963   6.716  0.2625  0.3943  0.2353
  876MOL0     C18163   8.821   8.897   6.610  0.3060 -0.8660  1.3409
  876MOL0     C18164   8.866   8.760   6.651  0.2627  0.1656  0.0515
  876MOL0     C18165   8.879   8.681   6.522  0.5782 -0.2348  0.3157
  876MOL0     C18166   8.879   8.533   6.566 -0.6346 -1.4823  0.8445
  876MOL0     C18167   8.941   8.446   6.450 -0.2976  0.6292 -0.2706
  876MOL0     C18168   8.957   8.295   6.487 -0.4075 -0.1665 -0.2017
  876MOL0     C18169   9.009   8.208   6.371  0.8250 -0.3876  0.2135
  876MOL0    Cl18170   9.169   8.250   6.313  0.1267 -0.1836 -0.0945
  876MOL0     C18171   8.420   8.897   6.543 -0.7143 -0.1401 -0.4782
  876MOL0     C18172   8.322   8.950   6.456  0.0628 -0.0422  0.1029
  876MOL0     O18173   8.152   9.284   6.517 -1.0845 -0.1175  0.3592
  876MOL0     C18174   8.025   9.230   6.188 -0.0196 -0.6557  0.1931
  876MOL0     C18175   7.928   9.267   6.094  0.2491 -0.6455 -0.0347
  876MOL0     N18176   7.196   9.164   5.995 -0.3495  0.1519 -0.1039
  876MOL0     N18177   7.153   9.041   5.956  0.8686  0.1572  0.6467
  876MOL0     C18178   7.671   8.286   5.360  0.0875  0.8936 -0.3135
  876MOL0     C18179   7.660   8.350   5.229  0.3052 -0.2621 -0.6727
  876MOL0     C18180   7.456   8.462   4.829  1.0364  0.1565 -0.3262
  876MOL0     C18181   7.586   8.476   4.771  0.1281 -0.7375 -0.7290
  876MOL0     C18182   7.601   8.511   4.632  0.0382 -0.0507 -1.2692
  876MOL0     C18183   7.487   8.537   4.551  0.9881 -0.5386  0.3045
  876MOL0     O18184   7.499   8.577   4.412 -1.1120 -0.2655  0.1521
  876MOL0     C18185   7.392   8.664   4.362 -0.3293  0.4174  0.4012
  876MOL0     C18186   7.401   8.792   4.447  1.4539  0.3790  0.2839
  876MOL0     C18187   7.282   8.891   4.416  0.2436  0.0137 -0.2245
  876MOL0     C18188   7.322   8.982   4.299 -0.2170  0.1663  1.0692
  876MOL0     C18189   7.429   9.075   4.332  0.2247 -0.2339  0.2400
  876MOL0     C18190   7.531   9.136   4.346 -0.4234  0.1396 -0.6381
  876MOL0     C18191   7.361   8.525   4.620 -0.0814 -0.4004  0.1147
  876MOL0     C18192   7.344   8.500   4.754  1.2077  1.6806 -0.4246
  876MOL0     H18193   7.444   8.127   5.098  0.8257 -2.4023  1.8041
  876MOL0     H18194   7.469   8.025   5.324  0.1197  0.9209  2.0539
  876MOL0     H18195   7.403   8.213   5.555  0.9786 -0.6671 -2.4710
  876MOL0     H18196   7.405   8.032   5.565  0.6155 -0.0335 -1.0337
  876MOL0     H18197   7.380   8.130   5.783  0.9117 -0.0834  0.4980
  876MOL0     H18198   7.539   8.068   5.780  0.6257  0.5512  2.7816
  876MOL0     H18199   7.538   8.291   5.892  0.5771 -0.5321 -0.0061
  876MOL0     H18200   7.613   8.321   5.751  1.1021 -1.6399  2.9778
  876MOL0     H18201   7.425   8.420   5.634  2.5292  1.1675  0.2028
  876MOL0     H18202   7.315   8.374   5.770  0.0483  0.8602  1.0019
  876MOL0     H18203   7.452   8.529   5.922 -3.4035  1.9317 -0.1455
  876MOL0     H18204   7.547   8.568   5.774 -0.4180 -1.1258 -0.6087
  876MOL0     H18205   7.321   8.638   5.676  2.6904 -4.4200 -0.3168
  876MOL0     H18206   7.258   8.598   5.838 -1.8965  0.2011 -2.1077
  876MOL0     H18207   7.341   8.765   5.952 -0.9859  1.6536  0.1697
  876MOL0     H18208   7.458   8.816   5.830  1.2080 -1.9472  1.4185
  876MOL0     H18209   7.153   8.827   5.813  1.5900 -5.2660  0.0940
  876MOL0     H18210   7.280   8.903   5.709  1.6127  1.9442  1.6094
  876MOL0     H18211   7.451   9.064   5.843 -2.1978  0.7666 -4.2716
  876MOL0     H18212   7.495   9.300   5.912  1.4654  0.7619  0.9364
  876MOL0     H18213   7.335   9.388   5.930 -0.1061  2.5915  4.7453
  876MOL0     H18214   7.504   9.243   6.154  0.8390 -1.9145 -2.5610
  876MOL0     H18215   7.356   9.344   6.177  0.0098 -2.0131 -0.5491
  876MOL0     H18216   7.557   9.471   6.253  0.7462  0.9582  0.0690
  876MOL0     H18217   7.460   9.544   6.127  0.4308 -0.9273 -2.3149
  876MOL0     H18218   7.707   9.589   6.096  1.6253  0.9146 -0.5355
  876MOL0     H18219   7.617   9.526   5.955  3.5909 -2.0709 -1.4681
  876MOL0     H18220   7.748   9.476   6.287  0.4326 -0.2380  2.1452
  876MOL0     H18221   7.923   9.361   6.579 -0.6879  0.0959 -0.1283
  876MOL0     H18222   8.012   9.507   6.497 -1.0936 -0.2064  0.0396
  876MOL0     H18223   7.842   9.498   6.526  2.1015  3.3644  0.8417
  876MOL0     H18224   8.443   9.275   6.448 -0.7738  0.0509  1.8887
  876MOL0     H18225   8.593   9.178   6.624 -1.7448  0.9062  0.5255
  876MOL0     H18226   8.741   9.072   6.712 -0.0382  0.7021  4.2258
  876MOL0     H18227   8.786   8.935   6.809 -0.5032 -2.3795 -0.1042
  876MOL0     H18228   8.760   8.891   6.519 -0.3853  1.5764  1.5667
  876MOL0     H18229   8.907   8.961   6.592 -1.2571  1.5109  1.8612
  876MOL0     H18230   8.796   8.704   6.713  0.1990 -1.3249 -1.3179
  876MOL0     H18231   8.961   8.769   6.703  2.5732 -2.4086 -3.3133
  876MOL0     H18232   8.789   8.690   6.460  0.2435 -0.8340  0.7004
  876MOL0     H18233   8.967   8.708   6.463  0.3330  4.0570  1.5756
  876MOL0     H18234   8.784   8.502   6.611 -0.8721 -0.0634  1.3708
  876MOL0     H18235   8.962   8.522   6.637 -0.6679  0.1797  1.1780
  876MOL0     H18236   8.880   8.465   6.361  1.0545 -0.2637 -1.4274
  876MOL0     H18237   9.048   8.466   6.434 -0.5836  2.1243 -0.4554
  876MOL0     H18238   8.855   8.270   6.519 -1.3734  0.2088 -2.7724
  876MOL0     H18239   9.008   8.290   6.584 -4.5051  0.0875  2.2375
  876MOL0     H18240   8.953   8.229   6.279  2.2909 -0.1278 -0.6440
  876MOL0     H18241   8.999   8.102   6.397 -1.7875 -0.6545 -1.4651
  876MOL0     H18242   8.427   8.790   6.559  0.0589  0.0612  0.6376
  876MOL0     H18243   8.247   8.882   6.417 -0.1838  0.6267 -0.6255
  876MOL0     H18244   8.104   9.167   6.149  1.4548  1.3003 -0.1321
  876MOL0     H18245   7.942   9.240   5.990  0.8426  0.3849 -0.2373
  876MOL0     H18246   7.735   8.326   5.438 -1.6625  2.9876  0.1336
  876MOL0     H18247   7.727   8.433   5.207  0.6642 -1.0635 -2.8165
  876MOL0     H18248   7.674   8.450   4.829 -1.5685 -2.1311  1.4131
  876MOL0     H18249   7.699   8.511   4.585 -0.4204  0.3341 -2.2629
  876MOL0     H18250   7.422   8.679   4.258  1.0609 -1.3210  0.4930
  876MOL0     H18251   7.293   8.619   4.354 -0.9741  1.4024  2.2583
  876MOL0     H18252   7.498   8.841   4.430  0.8975  1.5537  0.3698
  876MOL0     H18253   7.398   8.778   4.555 -4.5280  1.0764  0.5375
  876MOL0     H18254   7.255   8.950   4.505  1.1021 -0.6983  0.5280
  876MOL0     H18255   7.196   8.831   4.385  0.3129 -0.6745  0.8533
  876MOL0     H18256   7.235   9.038   4.265 -0.7566  0.5861  2.9789
  876MOL0     H18257   7.342   8.899   4.231 -1.6975  0.0316  0.7744
  876MOL0     H18258   7.623   9.191   4.352  1.4795 -2.9303  0.8264
  876MOL0     H18259   7.277   8.534   4.553  1.1336  3.3098 -1.2098
  876MOL0     H18260   7.243   8.478   4.789  2.2787 -3.3722  0.2192
  877MOL0     O18261   4.421  10.119   0.283 -0.7121 -0.1580 -0.2315
  877MOL0     C18262   4.407  10.143   0.403 -0.6159  0.0818  1.1738
  877MOL0     O18263   4.504  10.180   0.481 -0.1051  0.3239 -1.0342
  877MOL0     C18264   4.631  10.187   0.440 -0.2272 -0.8535 -0.0597
  877MOL0     C18265   4.730  10.088   0.466  0.0602 -0.3152 -0.3301
  877MOL0     C18266   4.859  10.099   0.422  1.0282  0.3617 -0.2705
  877MOL0     C18267   4.890  10.213   0.344 -0.4426 -0.4177  1.0400
  877MOL0     O18268   5.021  10.218   0.297 -0.5051 -0.0452 -0.2448
  877MOL0     C18269   5.069  10.335   0.228  0.7738  0.4754  0.4357
  877MOL0     C18270   5.220  10.338   0.247  1.3760 -0.6267 -0.4272
  877MOL0     C18271   5.262  10.362   0.397  0.7135 -0.9936 -0.1839
  877MOL0     C18272   5.423  10.375   0.401  0.1122 -0.6189  0.7157
  877MOL0     C18273   5.473  10.434   0.529 -0.1303  0.5373  0.2265
  877MOL0     C18274   5.619  10.454   0.534 -0.5057  0.7498  0.4524
  877MOL0     C18275   5.666  10.536   0.658 -0.0845  0.0428  0.0357
  877MOL0     C18276   5.630  10.499   0.799 -0.3283  0.7685  0.1234
  877MOL0     N18277   5.690  10.368   0.827 -1.2008 -0.3289  0.4111
  877MOL0     C18278   5.819  10.356   0.872  0.0952  0.2399 -0.2373
  877MOL0     C18279   5.839  10.220   0.901 -0.8149 -0.8579 -0.0111
  877MOL0     C18280   5.947  10.174   0.991 -0.1853 -0.2052  0.2950
  877MOL0     C18281   5.903  10.158   1.139 -0.2366  0.2833  0.1972
  877MOL0     C18282   6.026  10.129   1.226  0.0465  0.2780  0.3161
  877MOL0     C18283   5.975  10.109   1.367  0.2082 -0.6088 -0.0475
  877MOL0     O18284   5.899   9.987   1.366  0.0607  0.6054  1.0770
  877MOL0     C18285   5.836   9.949   1.482 -0.2024 -0.1180  0.8373
  877MOL0     C18286   5.795  10.042   1.579  1.0498  0.0835 -1.2617
  877MOL0     C18287   5.719   9.996   1.697  0.0195 -0.0074  0.2939
  877MOL0     C18288   5.687  10.091   1.797  0.7763  0.4523 -0.3317
  877MOL0     C18289   5.683   9.865   1.710 -0.1087  0.0509 -0.3844
  877MOL0     C18290   5.597   9.809   1.825 -1.0000 -0.3753 -0.4675
  877MOL0     O18291   5.533   9.895   1.913 -0.2892  0.1165 -0.3894
  877MOL0     C18292   5.481   9.856   2.032  0.0393 -0.5429 -0.1802
  877MOL0     C18293   5.341   9.842   2.039  0.5061  1.4237  0.1772
  877MOL0     C18294   5.279   9.812   2.165 -0.0925  0.3350  0.4564
  877MOL0     C18295   5.349   9.809   2.284  0.4094  0.0550 -0.6896
  877MOL0     O18296   5.270   9.798   2.396 -0.2803 -0.1400 -0.2312
  877MOL0     C18297   5.339   9.797   2.522 -0.4917 -0.0072 -0.3648
  877MOL0     C18298   5.235   9.777   2.632  0.3697  0.6681 -0.8434
  877MOL0     C18299   5.294   9.745   2.775 -0.1741 -1.1817 -0.1698
  877MOL0     C18300   5.361   9.606   2.794  0.1788 -1.1405  0.5022
  877MOL0     C18301   5.375   9.574   2.944 -1.6612 -0.2670 -0.0783
  877MOL0     C18302   5.400   9.426   2.963 -0.7368 -0.4013  0.1111
  877MOL0     C18303   5.273   9.347   2.957  0.1984  0.1387  0.4241
  877MOL0     C18304   5.315   9.200   2.985  0.1251 -0.1428  0.0609
  877MOL0    Cl18305   5.435   9.133   2.864  0.1646  0.1262 -0.4333
  877MOL0     C18306   5.488   9.837   2.284 -0.6067  0.1525  0.3480
  877MOL0     C18307   5.558   9.845   2.155 -0.2206  0.5228 -0.0611
  877MOL0     O18308   5.612   9.693   1.853 -1.1581  0.0711  0.0607
  877MOL0     C18309   5.731   9.778   1.619 -0.2561 -0.6240  0.3887
  877MOL0     C18310   5.805   9.821   1.508 -0.0511 -0.4631 -0.6800
  877MOL0     N18311   5.713  10.162   0.884  0.1393 -0.5971 -0.1547
  877MOL0     N18312   5.627  10.253   0.848  0.2387  0.6711 -0.4714
  877MOL0     C18313   4.793  10.316   0.322 -0.5388 -0.5533 -1.1127
  877MOL0     C18314   4.671  10.303   0.372  0.0090 -0.8616  0.0840
  877MOL0     C18315   4.271  10.125   0.460  0.1019 -0.6575  0.2608
  877MOL0     C18316   4.160  10.088   0.380  0.2487 -0.4660  0.2590
  877MOL0     C18317   4.037  10.058   0.442 -0.8752  0.8921  0.2836
  877MOL0     C18318   4.021  10.061   0.576 -0.1095  0.0515  0.3209
  877MOL0     O18319   3.905  10.011   0.624 -0.0661 -0.1786  0.6201
  877MOL0     C18320   3.875  10.050   0.753  0.8616  0.9773 -0.2088
  877MOL0     C18321   3.729  10.011   0.781  1.0240  0.1973  0.2278
  877MOL0     C18322   3.636  10.094   0.698 -0.7793 -0.3691 -0.5691
  877MOL0     C18323   3.497  10.064   0.727 -0.0070  0.0275  0.3686
  877MOL0     C18324   3.402  10.151   0.659  0.8155 -0.6894 -0.1092
  877MOL0     C18325   3.331  10.214   0.587  0.5030 -0.8116  0.0953
  877MOL0     C18326   4.126  10.104   0.658  0.5309 -0.0441 -0.0107
  877MOL0     C18327   4.251  10.119   0.601  0.1692  0.3725 -0.4843
  877MOL0     H18328   4.696  10.012   0.536 -2.2966  0.8648 -0.0914
  877MOL0     H18329   4.924  10.013   0.433  0.0299 -0.4417 -0.5092
  877MOL0     H18330   5.048  10.326   0.121 -0.7953  4.4898  0.2221
  877MOL0     H18331   5.028  10.434   0.251  0.8052  0.2449  1.5375
  877MOL0     H18332   5.274  10.248   0.219  1.0719 -0.6557 -0.9489
  877MOL0     H18333   5.263  10.417   0.184  1.7648  1.5850  2.4331
  877MOL0     H18334   5.217  10.449   0.444  0.6628  0.3101 -2.4657
  877MOL0     H18335   5.243  10.265   0.442  4.9764 -3.0642 -2.1608
  877MOL0     H18336   5.455  10.271   0.391  0.6531 -0.2445 -4.0033
  877MOL0     H18337   5.461  10.443   0.324  0.4485 -0.7429  0.7687
  877MOL0     H18338   5.422  10.530   0.538  0.5708  0.7272  3.6238
  877MOL0     H18339   5.438  10.361   0.603 -3.2289  2.0575  0.3737
  877MOL0     H18340   5.651  10.350   0.543 -0.0015  1.0720  3.1813
  877MOL0     H18341   5.659  10.499   0.443 -1.6222 -1.8811 -1.4679
  877MOL0     H18342   5.774  10.545   0.638 -0.3972 -1.1914 -2.6330
  877MOL0     H18343   5.631  10.639   0.647 -0.6490 -0.1510  0.0141
  877MOL0     H18344   5.523  10.488   0.820 -0.4776  2.0827  0.1094
  877MOL0     H18345   5.663  10.580   0.865  0.5931  1.1437 -0.7758
  877MOL0     H18346   5.895  10.433   0.870  0.1100  0.2347 -2.5077
  877MOL0     H18347   5.982  10.080   0.948 -1.0710  0.5331 -2.2176
  877MOL0     H18348   6.025  10.250   0.982  1.0204 -0.9924  3.0150
  877MOL0     H18349   5.824  10.083   1.134  0.7150 -0.6601 -3.0092
  877MOL0     H18350   5.853  10.250   1.171 -1.5098  0.2819 -1.6229
  877MOL0     H18351   6.100  10.209   1.229 -1.4362  1.7118  0.3951
  877MOL0     H18352   6.077  10.038   1.193 -0.9648 -0.0832 -0.3147
  877MOL0     H18353   5.912  10.194   1.393  1.1692  0.6002 -1.5291
  877MOL0     H18354   6.057  10.092   1.437  0.4179  2.3297  0.5333
  877MOL0     H18355   5.807  10.150   1.572  2.3002  0.5727  4.1893
  877MOL0     H18356   5.582  10.121   1.795  0.7425  0.3440 -2.2510
  877MOL0     H18357   5.712  10.059   1.898 -0.6061  1.5311  0.3970
  877MOL0     H18358   5.740  10.186   1.784  0.2118  0.7236 -0.7342
  877MOL0     H18359   5.281   9.841   1.948  0.0942  2.1444  0.4365
  877MOL0     H18360   5.172   9.795   2.177  0.5944 -3.2518  3.7337
  877MOL0     H18361   5.419   9.722   2.529  1.4171  1.8998 -0.7400
  877MOL0     H18362   5.389   9.893   2.536 -1.0490 -0.0003  1.8500
  877MOL0     H18363   5.168   9.864   2.630 -0.8197 -0.2066 -3.6402
  877MOL0     H18364   5.172   9.692   2.606  1.2713 -0.0840 -0.6194
  877MOL0     H18365   5.214   9.751   2.849  1.5259 -1.2505  1.7561
  877MOL0     H18366   5.364   9.825   2.799 -2.3310  0.8051 -0.2288
  877MOL0     H18367   5.293   9.531   2.754 -0.4158 -0.6487  0.5788
  877MOL0     H18368   5.457   9.600   2.742 -1.8915 -0.6285 -3.7661
  877MOL0     H18369   5.293   9.614   3.004 -0.5630  0.4232  1.0063
  877MOL0     H18370   5.455   9.632   2.990 -4.1816  1.6898  2.1714
  877MOL0     H18371   5.468   9.393   2.884 -0.6336  0.0027  0.0281
  877MOL0     H18372   5.463   9.406   3.051  1.6532  1.3503 -1.0836
  877MOL0     H18373   5.221   9.351   2.860 -0.6424  0.6137  0.8868
  877MOL0     H18374   5.211   9.362   3.045 -3.1149 -0.8077 -1.5772
  877MOL0     H18375   5.231   9.129   2.982 -0.5970  0.6951 -0.2096
  877MOL0     H18376   5.377   9.200   3.075 -3.2170  0.5648  2.5893
  877MOL0     H18377   5.559   9.849   2.365 -0.3342  2.9598 -0.2054
  877MOL0     H18378   5.666   9.847   2.143 -0.0420 -2.9842 -0.0785
  877MOL0     H18379   5.698   9.675   1.618  4.4844 -2.5219 -3.9831
  877MOL0     H18380   5.837   9.743   1.439  2.6352  0.6367 -0.8161
  877MOL0     H18381   4.809  10.412   0.273 -0.5385 -0.7104 -1.4179
  877MOL0     H18382   4.596  10.378   0.350 -0.9189 -1.9922 -0.7954
  877MOL0     H18383   4.173  10.088   0.272  3.6841 -3.6097  0.4525
  877MOL0     H18384   3.962  10.022   0.371  1.5941 -2.8398 -0.7267
  877MOL0     H18385   3.927   9.990   0.828  0.6446  2.7777  1.4536
  877MOL0     H18386   3.901  10.154   0.773  4.0157  0.3600 -0.5538
  877MOL0     H18387   3.707  10.043   0.883  1.0431 -0.3157  0.3945
  877MOL0     H18388   3.719   9.902   0.786 -1.7159  0.2410 -1.9181
  877MOL0     H18389   3.649  10.066   0.593 -2.1875 -0.3757 -0.7603
  877MOL0     H18390   3.639  10.203   0.712 -1.8900  0.0176 -2.8867
  877MOL0     H18391   3.465  10.083   0.830 -2.0334  3.5715 -0.7349
  877MOL0     H18392   3.488   9.958   0.701  1.4756  0.1762 -0.9082
  877MOL0     H18393   3.270  10.255   0.509  1.0777 -0.7827 -0.3368
  877MOL0     H18394   4.129  10.105   0.767  1.3757 -1.2795  0.0077
  877MOL0     H18395   4.344  10.122   0.657 -0.9441 -2.7138  1.8747
  878MOL0     O18396   0.682   8.104   9.155  0.4487 -0.3080  0.3819
  878MOL0     C18397   0.720   8.094   9.266 -0.3303  0.1121  0.4851
  878MOL0     O18398   0.665   8.029   9.369  0.0293  0.6183  0.6167
  878MOL0     C18399   0.552   7.946   9.337  0.2960 -0.2848 -0.1757
  878MOL0     C18400   0.565   7.839   9.243  0.5040 -1.2839 -0.6455
  878MOL0     C18401   0.457   7.752   9.222  0.7638 -0.2369 -1.7293
  878MOL0     C18402   0.335   7.780   9.291  0.0157 -0.0369  0.1127
  878MOL0     O18403   0.238   7.687   9.271 -0.3020 -0.1262  0.1896
  878MOL0     C18404   0.103   7.717   9.297  0.3947  0.3488  0.3057
  878MOL0     C18405   0.020   7.590   9.248  0.0907  0.1286  0.0596
  878MOL0     C18406   0.028   7.469   9.348 -0.4239 -0.7666 -0.4648
  878MOL0     C18407  -0.105   7.387   9.336 -1.1340 -0.1231  0.3055
  878MOL0     C18408  -0.106   7.293   9.211 -1.3046 -0.1588  0.3769
  878MOL0     C18409  -0.236   7.231   9.186 -0.9087  0.2159 -0.0171
  878MOL0     C18410  -0.239   7.136   9.058  0.4420  0.1644  0.4799
  878MOL0     C18411  -0.384   7.089   9.007  0.0182  0.4815  0.0298
  878MOL0     N18412  -0.444   6.983   9.090  0.2969 -0.5507 -0.0187
  878MOL0     C18413  -0.568   7.004   9.138 -0.6639  0.0166 -0.2326
  878MOL0     C18414  -0.611   6.886   9.165  0.7096  0.8700  0.1717
  878MOL0     C18415  -0.745   6.829   9.202  0.1451 -0.5296  0.5669
  878MOL0     C18416  -0.842   6.947   9.229 -0.8523  0.2287  0.6939
  878MOL0     C18417  -0.957   6.911   9.330  0.2027  0.3900 -0.9987
  878MOL0     C18418  -1.047   7.033   9.363 -0.8772 -0.3872 -0.4658
  878MOL0     O18419  -0.974   7.159   9.365  0.4549  0.1848 -0.9296
  878MOL0     C18420  -1.044   7.273   9.370 -0.5936 -0.5990  0.2131
  878MOL0     C18421  -0.962   7.379   9.367 -0.8147  0.7860  0.5183
  878MOL0     C18422  -1.006   7.506   9.337 -0.0973  0.4998 -0.4627
  878MOL0     C18423  -0.909   7.621   9.345  0.0722  0.4112 -0.7193
  878MOL0     C18424  -1.148   7.521   9.305  0.2406 -0.9006  0.6865
  878MOL0     C18425  -1.214   7.652   9.286 -0.8798  0.2081  0.1592
  878MOL0     O18426  -1.339   7.653   9.230 -0.4857  0.6285  0.8819
  878MOL0     C18427  -1.415   7.766   9.240 -0.6396  0.0452  0.0780
  878MOL0     C18428  -1.393   7.875   9.155 -0.0701  1.0156  0.1533
  878MOL0     C18429  -1.467   7.987   9.169 -0.1309 -0.9133 -0.2915
  878MOL0     C18430  -1.571   7.999   9.273  0.0033  0.5200  0.8612
  878MOL0     O18431  -1.642   8.113   9.308 -0.5140  0.3073 -0.1668
  878MOL0     C18432  -1.592   8.240   9.281  1.0980  0.0059  0.2787
  878MOL0     C18433  -1.626   8.338   9.396  0.2043  0.3993  0.3233
  878MOL0     C18434  -1.551   8.291   9.524 -0.4938 -0.0462 -0.1457
  878MOL0     C18435  -1.572   8.397   9.631  0.4163 -0.2500  0.1935
  878MOL0     C18436  -1.550   8.335   9.771  0.2977  0.6433 -0.0778
  878MOL0     C18437  -1.547   8.456   9.867  0.9645  0.0768 -0.0810
  878MOL0     C18438  -1.523   8.395  10.006  0.3425 -0.0773  0.2060
  878MOL0     C18439  -1.639   8.323  10.069  0.8209 -0.7669 -1.1787
  878MOL0    Cl18440  -1.602   8.275  10.239  0.3378  0.0840  0.4500
  878MOL0     C18441  -1.597   7.882   9.357 -0.9330  0.1070  1.2142
  878MOL0     C18442  -1.520   7.768   9.323 -0.6237 -0.4293  0.1062
  878MOL0     O18443  -1.154   7.749   9.321 -1.3241  0.4673 -0.2683
  878MOL0     C18444  -1.237   7.410   9.324  0.4328  0.7125 -0.5395
  878MOL0     C18445  -1.176   7.285   9.365 -0.8907 -0.1976 -0.6719
  878MOL0     N18446  -0.506   6.793   9.145 -0.1725  0.0635  0.1081
  878MOL0     N18447  -0.403   6.853   9.099  0.0193  0.3025 -0.0820
  878MOL0     C18448   0.317   7.886   9.376  0.3434 -0.3882  1.0562
  878MOL0     C18449   0.431   7.964   9.409 -0.0172 -0.4640 -0.0292
  878MOL0     C18450   0.842   8.178   9.290  0.2823 -0.0471  0.3180
  878MOL0     C18451   0.905   8.243   9.191  0.3242 -0.8534  0.3910
  878MOL0     C18452   1.019   8.317   9.207  0.3218  0.6559  0.7718
  878MOL0     C18453   1.078   8.323   9.330 -0.8459 -1.0630 -1.2394
  878MOL0     O18454   1.199   8.382   9.337 -0.6296 -0.1343  0.6010
  878MOL0     C18455   1.260   8.405   9.467  0.7624 -0.0424  0.9801
  878MOL0     C18456   1.406   8.423   9.422 -0.8662 -0.3201  0.2985
  878MOL0     C18457   1.505   8.464   9.537  0.0527 -0.6761  0.4440
  878MOL0     C18458   1.650   8.499   9.489 -0.4100 -0.4669  0.0557
  878MOL0     C18459   1.751   8.485   9.593  0.2200 -0.0758 -0.1915
  878MOL0     C18460   1.829   8.469   9.678  0.0308 -1.2322  0.3077
  878MOL0     C18461   1.018   8.257   9.435  0.3337 -0.1126  0.0344
  878MOL0     C18462   0.897   8.190   9.416  0.0464  0.5638 -0.1794
  878MOL0     H18463   0.659   7.814   9.194 -0.2186 -2.4419 -1.4888
  878MOL0     H18464   0.454   7.675   9.146  1.9518 -1.2442 -0.8027
  878MOL0     H18465   0.085   7.737   9.403 -0.7467  0.5743  0.0848
  878MOL0     H18466   0.063   7.806   9.248 -3.1136 -2.4505 -2.4848
  878MOL0     H18467  -0.085   7.620   9.235  0.5292  0.8834 -2.3667
  878MOL0     H18468   0.042   7.569   9.143  1.4219  0.6897  0.2086
  878MOL0     H18469   0.113   7.410   9.312  0.5893 -0.6061  1.5634
  878MOL0     H18470   0.048   7.504   9.449 -0.2375  3.5640 -1.8250
  878MOL0     H18471  -0.110   7.327   9.428  1.7318 -1.6038 -0.3955
  878MOL0     H18472  -0.199   7.444   9.333 -1.0466  0.0158  0.1712
  878MOL0     H18473  -0.067   7.351   9.127  1.2745  0.7703  2.0815
  878MOL0     H18474  -0.037   7.208   9.222 -1.6904 -0.5420 -0.1381
  878MOL0     H18475  -0.267   7.165   9.268 -1.5747  0.1109 -0.3445
  878MOL0     H18476  -0.305   7.316   9.180 -2.0554 -0.7674 -3.6674
  878MOL0     H18477  -0.174   7.173   8.977  3.3369 -3.6420  0.8149
  878MOL0     H18478  -0.185   7.048   9.092 -1.0987 -0.5129  1.2718
  878MOL0     H18479  -0.362   7.043   8.910  2.6921 -2.5905  1.8916
  878MOL0     H18480  -0.444   7.178   8.984  1.0003  0.6567 -2.1327
  878MOL0     H18481  -0.613   7.102   9.151 -0.6872 -0.1780  1.4082
  878MOL0     H18482  -0.782   6.784   9.109  2.1939  1.1629 -1.2105
  878MOL0     H18483  -0.739   6.773   9.295 -0.6163  1.4662  1.8777
  878MOL0     H18484  -0.893   6.974   9.136  1.4575  0.6672 -0.4962
  878MOL0     H18485  -0.794   7.040   9.263 -0.9967 -0.8726  4.3569
  878MOL0     H18486  -0.905   6.873   9.419  4.5163 -2.5216 -4.3350
  878MOL0     H18487  -1.007   6.819   9.297  0.3877 -0.4622  0.9262
  878MOL0     H18488  -1.077   7.022   9.467 -3.0759  1.0371 -0.8795
  878MOL0     H18489  -1.129   7.036   9.291 -0.3598  3.2011 -1.0657
  878MOL0     H18490  -0.857   7.353   9.369 -1.0168 -0.5951 -1.9270
  878MOL0     H18491  -0.804   7.596   9.361 -0.0972 -0.0790 -0.3701
  878MOL0     H18492  -0.913   7.681   9.253  3.7886  1.3741 -0.3945
  878MOL0     H18493  -0.921   7.686   9.432  1.6598 -1.0996  0.6845
  878MOL0     H18494  -1.320   7.877   9.075  0.8458  2.8953  0.9705
  878MOL0     H18495  -1.452   8.064   9.094 -0.1985 -0.7797 -0.1700
  878MOL0     H18496  -1.483   8.239   9.281  1.0914 -0.8435  0.4649
  878MOL0     H18497  -1.634   8.267   9.184 -2.2908 -3.8160  0.4244
  878MOL0     H18498  -1.588   8.434   9.361  1.9973 -0.4625 -0.2203
  878MOL0     H18499  -1.734   8.342   9.410 -0.3196  2.9990 -3.0225
  878MOL0     H18500  -1.444   8.296   9.499 -0.5967 -0.8587 -0.8001
  878MOL0     H18501  -1.573   8.187   9.551  1.7817 -0.9205 -1.3504
  878MOL0     H18502  -1.506   8.484   9.619  0.6672 -0.5695 -0.8537
  878MOL0     H18503  -1.670   8.444   9.619 -0.4006 -2.4105 -2.7178
  878MOL0     H18504  -1.461   8.273   9.766 -0.0478 -0.0250  1.6100
  878MOL0     H18505  -1.634   8.268   9.790  1.0577 -0.3794 -0.2556
  878MOL0     H18506  -1.473   8.528   9.831  0.1447  0.6188 -0.7087
  878MOL0     H18507  -1.645   8.504   9.865 -0.1852 -2.1410 -2.1482
  878MOL0     H18508  -1.498   8.469  10.082 -5.0018 -0.8245  3.2166
  878MOL0     H18509  -1.438   8.327   9.999  1.2239  0.7893  2.0024
  878MOL0     H18510  -1.671   8.233  10.016  3.6182 -1.9594 -1.0202
  878MOL0     H18511  -1.717   8.399  10.065  3.1716  1.9771  0.9444
  878MOL0     H18512  -1.683   7.885   9.424 -2.1637 -0.1470 -0.2756
  878MOL0     H18513  -1.539   7.687   9.393  0.2380 -0.4526  0.3228
  878MOL0     H18514  -1.345   7.420   9.323  0.0322 -2.1464  1.3617
  878MOL0     H18515  -1.234   7.196   9.387 -0.6167 -0.2507 -0.1565
  878MOL0     H18516   0.230   7.907   9.438  1.1019 -0.0225  2.0239
  878MOL0     H18517   0.425   8.053   9.471  1.4222  2.0510 -3.2356
  878MOL0     H18518   0.861   8.256   9.093 -1.3027  2.0605  1.3901
  878MOL0     H18519   1.044   8.385   9.126 -0.8093 -0.2955 -0.4192
  878MOL0     H18520   1.210   8.495   9.504  0.7054  0.5619 -0.4999
  878MOL0     H18521   1.257   8.335   9.551  2.8693  1.3434  2.2992
  878MOL0     H18522   1.410   8.504   9.348 -1.2524 -0.4473  0.1382
  878MOL0     H18523   1.456   8.332   9.387  0.6159  0.6010 -0.0595
  878MOL0     H18524   1.513   8.394   9.621  0.0104 -0.6078  0.5049
  878MOL0     H18525   1.473   8.562   9.573  1.5670 -0.4393  1.2369
  878MOL0     H18526   1.647   8.602   9.452 -1.5802 -0.9745 -1.3584
  878MOL0     H18527   1.686   8.447   9.400  5.1874  0.7383  1.2412
  878MOL0     H18528   1.903   8.460   9.755 -0.9853 -3.1084  1.1574
  878MOL0     H18529   1.058   8.266   9.535  1.6964  2.5209 -0.6657
  878MOL0     H18530   0.855   8.141   9.503 -2.1575  1.0608 -0.9162
  879MOL0     O18531   4.179   9.083   7.368  0.5393  0.1618 -0.1379
  879MOL0     C18532   4.226   9.069   7.478  0.2273 -0.5253 -0.2275
  879MOL0     O18533   4.257   8.952   7.534  0.0460 -0.7535  0.4416
  879MOL0     C18534   4.246   8.836   7.467 -0.1219  0.4995  0.5487
  879MOL0     C18535   4.228   8.722   7.552 -0.5384 -0.4629  1.5139
  879MOL0     C18536   4.228   8.592   7.495 -0.4639  0.0929 -0.1637
  879MOL0     C18537   4.226   8.567   7.367 -0.8613  0.5917  1.2058
  879MOL0     O18538   4.237   8.435   7.329  0.7119  0.8089 -0.1369
  879MOL0     C18539   4.241   8.388   7.194  0.7091  0.4329 -0.0008
  879MOL0     C18540   4.103   8.385   7.135  0.1554 -0.1536  0.1388
  879MOL0     C18541   4.094   8.321   6.994 -1.1191 -0.3093 -1.3999
  879MOL0     C18542   3.947   8.310   6.951  0.6615  0.4514  0.8059
  879MOL0     C18543   3.859   8.188   7.007  0.9476 -0.9173  0.6197
  879MOL0     C18544   3.903   8.061   6.939  0.9174 -0.2800 -0.2300
  879MOL0     C18545   3.826   7.942   7.004  0.2910  0.4326  0.5357
  879MOL0     C18546   3.676   7.940   6.965 -0.0160  0.3201 -0.5541
  879MOL0     N18547   3.599   7.850   7.055 -0.1581  0.3190  0.9350
  879MOL0     C18548   3.545   7.891   7.173 -0.7379 -0.5769  0.3689
  879MOL0     C18549   3.471   7.788   7.212  0.4310  1.0026  0.0856
  879MOL0     C18550   3.396   7.769   7.342  0.3190 -0.0359  0.2776
  879MOL0     C18551   3.477   7.689   7.437 -0.6463 -0.0414  0.6344
  879MOL0     C18552   3.401   7.657   7.561  0.3161  0.7697  0.8262
  879MOL0     C18553   3.469   7.559   7.660  0.7148 -0.3013  0.9225
  879MOL0     O18554   3.585   7.617   7.721  0.2495  0.0657  0.2236
  879MOL0     C18555   3.667   7.539   7.801  0.3677  0.0255  0.2703
  879MOL0     C18556   3.627   7.428   7.875  0.4483  0.4931 -0.6874
  879MOL0     C18557   3.719   7.338   7.941  0.4245  0.6858  0.4121
  879MOL0     C18558   3.667   7.215   8.011 -0.2443 -0.3912 -0.3627
  879MOL0     C18559   3.851   7.375   7.940 -0.0200  0.4893  1.6159
  879MOL0     C18560   3.947   7.300   8.013 -0.1150 -0.5660 -0.7681
  879MOL0     O18561   3.927   7.294   8.153  0.6286  0.1064 -0.1198
  879MOL0     C18562   4.021   7.242   8.236 -0.1160  0.5888 -0.2365
  879MOL0     C18563   3.986   7.144   8.334  0.3451 -0.3491 -0.1636
  879MOL0     C18564   4.092   7.100   8.417 -0.5716  0.0147 -0.0881
  879MOL0     C18565   4.225   7.136   8.398  0.5818  0.7367  0.8370
  879MOL0     O18566   4.320   7.082   8.479  0.2975 -0.9649 -0.4428
  879MOL0     C18567   4.342   6.940   8.491 -0.0990 -0.8687  0.3771
  879MOL0     C18568   4.492   6.905   8.497  0.2541  0.5210 -0.5635
  879MOL0     C18569   4.581   7.007   8.579 -1.2145  0.6778  0.1242
  879MOL0     C18570   4.726   6.944   8.583 -0.2449 -0.1706  0.8328
  879MOL0     C18571   4.836   7.041   8.636  0.4557 -0.1916  0.4025
  879MOL0     C18572   4.968   6.964   8.626 -0.8952  0.0432  0.7079
  879MOL0     C18573   5.073   7.035   8.715 -0.0124 -0.7660  0.7543
  879MOL0     C18574   5.207   6.960   8.707  0.3826  0.0591 -0.4340
  879MOL0    Cl18575   5.270   6.970   8.545 -0.5762 -0.3136 -0.1571
  879MOL0     C18576   4.254   7.221   8.292 -0.8530  0.5527 -0.3453
  879MOL0     C18577   4.155   7.275   8.216  0.6119 -0.9138  0.1278
  879MOL0     O18578   4.044   7.254   7.950 -0.5791  1.0997  0.6208
  879MOL0     C18579   3.892   7.485   7.861  0.2935 -0.0108 -0.5652
  879MOL0     C18580   3.808   7.568   7.793  1.1441 -0.2729  0.2575
  879MOL0     N18581   3.486   7.683   7.123  1.3445 -0.2038 -0.0167
  879MOL0     N18582   3.561   7.720   7.024 -0.5375 -0.0427  0.4262
  879MOL0     C18583   4.237   8.682   7.275  0.6716  1.2201 -0.4996
  879MOL0     C18584   4.262   8.815   7.322  0.9605 -0.3311  0.3741
  879MOL0     C18585   4.273   9.182   7.556  0.4652 -0.2974  0.9682
  879MOL0     C18586   4.345   9.179   7.675  0.3403  0.1450 -0.4831
  879MOL0     C18587   4.381   9.302   7.742 -0.7240 -0.0087 -0.1926
  879MOL0     C18588   4.331   9.432   7.693 -0.3597  0.5961 -0.2824
  879MOL0     O18589   4.377   9.541   7.765 -1.1370  0.4322 -1.0790
  879MOL0     C18590   4.311   9.670   7.758  0.1496  0.1232 -0.3027
  879MOL0     C18591   4.167   9.673   7.804  0.2858  0.5138  0.3547
  879MOL0     C18592   4.165   9.645   7.956  0.0637  0.6243  0.1101
  879MOL0     C18593   4.022   9.661   8.006  0.4058  0.7364 -0.0698
  879MOL0     C18594   3.998   9.806   8.047 -0.2738 -0.0966  0.2897
  879MOL0     C18595   3.971   9.920   8.082  0.2297  0.6078  0.1322
  879MOL0     C18596   4.255   9.429   7.573  0.1414 -0.8406 -0.9207
  879MOL0     C18597   4.233   9.306   7.504 -0.5601 -0.7470  0.1125
  879MOL0     H18598   4.221   8.740   7.659 -0.3988  1.1571  1.2871
  879MOL0     H18599   4.222   8.509   7.564  2.4471 -0.9376 -1.0133
  879MOL0     H18600   4.304   8.451   7.130 -0.9691  0.8067 -1.3875
  879MOL0     H18601   4.283   8.287   7.196 -0.0953  0.0874 -0.1582
  879MOL0     H18602   4.036   8.328   7.200  1.7440  0.7509  2.7421
  879MOL0     H18603   4.066   8.487   7.130 -0.6248 -0.4550 -0.5544
  879MOL0     H18604   4.154   8.395   6.940  0.3926  1.4570  2.3602
  879MOL0     H18605   4.146   8.225   6.999  0.0930  0.1650 -3.7282
  879MOL0     H18606   3.895   8.404   6.971 -1.3587  0.1665 -2.3421
  879MOL0     H18607   3.943   8.296   6.842 -0.7274  0.5646  0.8225
  879MOL0     H18608   3.863   8.197   7.116 -0.0845  0.8011  0.5544
  879MOL0     H18609   3.755   8.211   6.985  1.6623  1.9366 -0.2884
  879MOL0     H18610   3.877   8.079   6.835  3.1455 -2.4213 -1.2476
  879MOL0     H18611   4.010   8.039   6.947  0.5280 -1.6513  3.8669
  879MOL0     H18612   3.877   7.857   6.957 -0.4905 -1.1866  2.4455
  879MOL0     H18613   3.828   7.943   7.113 -2.0219  1.9726  0.6266
  879MOL0     H18614   3.666   7.918   6.858  1.0884  1.9480 -1.0350
  879MOL0     H18615   3.633   8.038   6.987 -0.3760  0.2928 -1.1245
  879MOL0     H18616   3.564   7.987   7.221 -2.0429 -0.2196  0.1868
  879MOL0     H18617   3.356   7.859   7.391  0.2243  0.8527 -1.3248
  879MOL0     H18618   3.308   7.708   7.323  2.3942 -2.7496 -1.3573
  879MOL0     H18619   3.563   7.746   7.474 -1.5050  1.2153  0.7466
  879MOL0     H18620   3.525   7.599   7.396 -0.0937  0.2335  0.6717
  879MOL0     H18621   3.309   7.600   7.543  0.3192  0.6069  1.3113
  879MOL0     H18622   3.386   7.749   7.618 -0.4392  1.1281  0.0750
  879MOL0     H18623   3.501   7.473   7.600  0.8823  0.5464 -0.2200
  879MOL0     H18624   3.393   7.522   7.729 -0.5948 -2.4392 -1.4809
  879MOL0     H18625   3.520   7.410   7.865  0.5880 -0.4094 -0.5998
  879MOL0     H18626   3.734   7.131   7.990  2.0786  1.3500 -0.2982
  879MOL0     H18627   3.659   7.240   8.117 -0.1435 -1.1340 -0.1719
  879MOL0     H18628   3.574   7.181   7.964 -0.2262  0.5478 -1.1082
  879MOL0     H18629   3.887   7.101   8.349  1.4305 -2.0720  2.9968
  879MOL0     H18630   4.058   7.042   8.502  0.8178 -0.7438 -0.0078
  879MOL0     H18631   4.295   6.907   8.584 -2.3024  0.1365 -0.3031
  879MOL0     H18632   4.286   6.897   8.408 -0.2606  1.5630 -0.8703
  879MOL0     H18633   4.502   6.813   8.556 -2.1618  0.2373 -0.4798
  879MOL0     H18634   4.536   6.887   8.399 -0.1292 -0.3574 -0.5862
  879MOL0     H18635   4.542   7.020   8.680 -3.7056  1.6507 -0.8752
  879MOL0     H18636   4.584   7.108   8.536  3.3688  1.7678  2.4260
  879MOL0     H18637   4.724   6.858   8.650 -0.0781 -1.2858 -0.5756
  879MOL0     H18638   4.769   6.923   8.485  0.7192  1.6131  0.8297
  879MOL0     H18639   4.820   7.062   8.742  0.3800  1.4405  0.0990
  879MOL0     H18640   4.823   7.141   8.592  0.1679  0.1911  1.3232
  879MOL0     H18641   4.969   6.855   8.637 -3.7245  0.0774  2.1317
  879MOL0     H18642   5.010   6.979   8.526 -2.4086  1.5352  0.2401
  879MOL0     H18643   5.037   7.043   8.818 -0.0654  1.5493  0.6105
  879MOL0     H18644   5.076   7.142   8.689  0.1261 -0.9862 -0.1959
  879MOL0     H18645   5.185   6.857   8.737 -1.4370  0.0508 -1.6070
  879MOL0     H18646   5.280   7.010   8.771  0.3585  1.6521 -1.5785
  879MOL0     H18647   4.361   7.239   8.289 -0.2450 -2.7022 -2.3929
  879MOL0     H18648   4.175   7.347   8.137 -0.3334  1.1090  1.6207
  879MOL0     H18649   3.993   7.515   7.885 -0.4437  0.9932  1.6084
  879MOL0     H18650   3.839   7.645   7.724  3.2237 -2.5624 -1.5441
  879MOL0     H18651   4.237   8.661   7.168  0.7823 -0.7469 -0.1337
  879MOL0     H18652   4.290   8.901   7.262  0.9727 -0.1393  0.6530
  879MOL0     H18653   4.371   9.084   7.720  0.9123 -0.3752 -1.8475
  879MOL0     H18654   4.427   9.305   7.840 -0.7205 -1.8666 -0.0946
  879MOL0     H18655   4.361   9.743   7.822  2.0562 -1.6929  0.4215
  879MOL0     H18656   4.313   9.706   7.655  0.3812  1.4184  0.1296
  879MOL0     H18657   4.116   9.593   7.749  3.6735 -1.7298  0.0942
  879MOL0     H18658   4.128   9.771   7.777  1.4602 -0.1128 -4.6318
  879MOL0     H18659   4.231   9.722   7.996  1.6676 -0.2355 -0.7914
  879MOL0     H18660   4.203   9.544   7.974 -2.9397 -0.3585  1.5119
  879MOL0     H18661   4.004   9.599   8.094  1.3673 -1.1631 -1.1579
  879MOL0     H18662   3.953   9.639   7.923  1.0883 -2.2833  0.0778
  879MOL0     H18663   3.940  10.020   8.104  1.3375  0.9061  0.3819
  879MOL0     H18664   4.216   9.519   7.527  0.7757 -0.2768 -0.3749
  879MOL0     H18665   4.179   9.316   7.410 -0.6787  0.6965  0.3138
  880MOL0     O18666  10.739  11.138   7.387 -0.0629 -1.0189 -0.2828
  880MOL0     C18667  10.808  11.225   7.445  0.1564 -0.3588 -0.0282
  880MOL0     O18668  10.765  11.307   7.551  0.6141 -0.8174 -0.2501
  880MOL0     C18669  10.627  11.316   7.588 -0.1823 -0.1635 -0.1908
  880MOL0     C18670  10.511  11.287   7.512 -0.2149  1.1951 -0.5704
  880MOL0     C18671  10.382  11.310   7.555  1.1261  0.4430  0.2946
  880MOL0     C18672  10.366  11.383   7.675 -0.3085  0.1612  0.0929
  880MOL0     O18673  10.242  11.416   7.715 -0.5546 -0.5573 -0.1204
  880MOL0     C18674  10.235  11.512   7.815 -0.4230  0.5695 -0.9700
  880MOL0     C18675  10.089  11.565   7.833  0.0109  0.3506 -0.3280
  880MOL0     C18676  10.077  11.665   7.957  0.7076  0.0968 -0.7638
  880MOL0     C18677   9.931  11.642   8.017 -0.4398  0.2596 -0.4126
  880MOL0     C18678   9.892  11.775   8.085  0.5857  0.3841 -0.8804
  880MOL0     C18679   9.760  11.752   8.155 -0.7823 -0.0821 -0.7747
  880MOL0     C18680   9.733  11.855   8.254 -0.3218  0.3054 -0.4530
  880MOL0     C18681   9.603  11.826   8.335 -0.5379 -0.2038 -0.1153
  880MOL0     N18682   9.499  11.849   8.243  0.7953  0.0132  0.2515
  880MOL0     C18683   9.441  11.962   8.189  0.1372 -0.2896  0.4687
  880MOL0     C18684   9.334  11.921   8.107  0.4195  0.0208  0.7087
  880MOL0     C18685   9.227  11.995   8.022 -0.1237 -0.6294  0.3057
  880MOL0     C18686   9.110  12.032   8.112  0.3172  0.3874 -0.1484
  880MOL0     C18687   9.154  12.093   8.238 -0.4152  0.2695  0.0841
  880MOL0     C18688   9.055  12.161   8.326  0.5000 -0.2976  0.8018
  880MOL0     O18689   9.111  12.175   8.452  0.0831  0.0800  0.4453
  880MOL0     C18690   9.055  12.254   8.553  0.7941 -0.1083 -0.2934
  880MOL0     C18691   9.126  12.280   8.667  0.5453  0.5181  0.3379
  880MOL0     C18692   9.075  12.348   8.774  0.4351 -0.8282 -0.4427
  880MOL0     C18693   9.163  12.374   8.892 -0.3471  0.0173  0.0972
  880MOL0     C18694   8.941  12.397   8.759 -0.2776 -0.8619 -0.0433
  880MOL0     C18695   8.874  12.497   8.846 -1.7756 -0.7500  0.2586
  880MOL0     O18696   8.823  12.604   8.774 -0.1181  0.0573 -0.0666
  880MOL0     C18697   8.758  12.709   8.837  0.3689 -0.5496 -0.4193
  880MOL0     C18698   8.627  12.698   8.892 -0.7596  0.5051  0.1774
  880MOL0     C18699   8.582  12.815   8.957 -0.4000  0.3593  0.8497
  880MOL0     C18700   8.662  12.928   8.977 -0.1884 -0.7110  0.4432
  880MOL0     O18701   8.599  13.022   9.055 -0.3029  0.0745  0.4899
  880MOL0     C18702   8.645  13.155   9.047  0.0799 -0.0886  0.2328
  880MOL0     C18703   8.546  13.260   9.099  0.0197  1.2587 -1.0584
  880MOL0     C18704   8.412  13.264   9.031 -0.3521 -0.2126 -0.5055
  880MOL0     C18705   8.441  13.325   8.896  0.4502  0.6122  0.3361
  880MOL0     C18706   8.290  13.349   8.835 -0.4603  1.0155  0.5427
  880MOL0     C18707   8.299  13.385   8.691  0.4921  1.1690 -0.5766
  880MOL0     C18708   8.160  13.422   8.647 -0.3526 -0.3253 -0.0658
  880MOL0     C18709   8.131  13.374   8.503  0.6452  0.8805  0.0290
  880MOL0    Cl18710   8.061  13.203   8.513 -0.3416 -0.1206  0.4238
  880MOL0     C18711   8.789  12.938   8.929 -1.0328 -0.5417  0.2918
  880MOL0     C18712   8.840  12.824   8.868  0.4480  0.1725 -0.2811
  880MOL0     O18713   8.855  12.473   8.965  0.1051 -0.1560 -0.2368
  880MOL0     C18714   8.873  12.379   8.644 -0.1677  1.0404  0.5108
  880MOL0     C18715   8.930  12.301   8.543 -0.0210 -0.3256  0.2947
  880MOL0     N18716   9.329  11.782   8.109 -0.0253 -0.3690  0.7501
  880MOL0     N18717   9.419  11.747   8.203 -0.5384  0.3251 -0.3930
  880MOL0     C18718  10.483  11.417   7.744  0.3741  0.2197 -0.1268
  880MOL0     C18719  10.614  11.391   7.706  0.2058  0.2220  0.8897
  880MOL0     C18720  10.950  11.240   7.411  0.4801 -0.2812 -0.3906
  880MOL0     C18721  11.027  11.321   7.490  0.4951  0.2446 -0.5393
  880MOL0     C18722  11.164  11.330   7.465  0.2948 -0.0937  0.2520
  880MOL0     C18723  11.216  11.278   7.347 -0.6271  0.0058 -0.4413
  880MOL0     O18724  11.348  11.291   7.303 -0.5788 -0.6718 -0.5296
  880MOL0     C18725  11.409  11.163   7.308  0.9117  0.4789  0.0089
  880MOL0     C18726  11.522  11.155   7.196  0.1364 -0.0019  0.1422
  880MOL0     C18727  11.602  11.018   7.193 -0.2413 -1.1986  0.5088
  880MOL0     C18728  11.687  11.005   7.067  0.2114  0.3884 -0.1542
  880MOL0     C18729  11.824  11.044   7.102  1.6107  0.4212 -0.2659
  880MOL0     C18730  11.916  11.098   7.155  0.2342  0.2117 -0.7274
  880MOL0     C18731  11.133  11.202   7.271  0.2977 -0.6115  0.6068
  880MOL0     C18732  11.003  11.181   7.297 -0.0519  0.3591 -0.2025
  880MOL0     H18733  10.521  11.244   7.413  1.1117 -1.0269  0.4502
  880MOL0     H18734  10.295  11.268   7.505  2.2678 -0.5344 -0.9621
  880MOL0     H18735  10.265  11.479   7.915  1.1173 -1.5841 -2.0719
  880MOL0     H18736  10.304  11.594   7.792  0.5051  1.3695  3.6272
  880MOL0     H18737  10.055  11.615   7.742  1.3130 -0.4466 -1.2915
  880MOL0     H18738  10.022  11.480   7.855 -0.0732  0.1359 -1.3497
  880MOL0     H18739  10.156  11.650   8.031  0.6220  1.7979 -0.2913
  880MOL0     H18740  10.092  11.768   7.924 -1.6841  1.8101  2.9286
  880MOL0     H18741   9.852  11.610   7.949 -2.3841  0.5455  1.5792
  880MOL0     H18742   9.927  11.559   8.087 -3.6932 -0.1577 -0.9358
  880MOL0     H18743   9.966  11.806   8.159 -0.5375  1.5344 -0.1999
  880MOL0     H18744   9.876  11.858   8.016 -0.8257  0.7477 -0.1536
  880MOL0     H18745   9.683  11.749   8.078  1.6576 -1.2549 -3.3892
  880MOL0     H18746   9.749  11.653   8.201  1.0081 -0.8840 -1.9465
  880MOL0     H18747   9.821  11.853   8.319  0.3781  1.1269 -1.3528
  880MOL0     H18748   9.732  11.949   8.199 -0.3991 -1.1639 -3.0977
  880MOL0     H18749   9.595  11.898   8.417  1.2290  0.3926 -0.4301
  880MOL0     H18750   9.617  11.724   8.374 -1.1917 -0.6375 -0.9755
  880MOL0     H18751   9.470  12.065   8.211 -0.4054  0.9019 -3.6577
  880MOL0     H18752   9.270  12.076   7.963  4.3795 -3.7252 -1.2521
  880MOL0     H18753   9.201  11.927   7.940 -1.7872  0.8418 -0.4389
  880MOL0     H18754   9.059  11.936   8.117 -0.2551  0.5288 -2.1207
  880MOL0     H18755   9.047  12.098   8.051  1.0387 -1.1032 -2.6583
  880MOL0     H18756   9.240  12.159   8.221  1.0770 -1.7623 -0.5389
  880MOL0     H18757   9.190  12.009   8.297 -0.0248 -0.5666 -1.2964
  880MOL0     H18758   8.959  12.108   8.334  0.0705 -0.4103 -3.1457
  880MOL0     H18759   9.027  12.257   8.282  0.3758 -0.0861  1.3374
  880MOL0     H18760   9.231  12.251   8.664  0.2682 -0.4901 -1.9228
  880MOL0     H18761   9.243  12.300   8.904 -0.5111  0.1897  3.1885
  880MOL0     H18762   9.202  12.475   8.881  0.1294 -0.1285  0.3989
  880MOL0     H18763   9.102  12.367   8.983 -1.7775 -1.4101 -0.9237
  880MOL0     H18764   8.563  12.611   8.877  1.6958 -1.3158 -0.3249
  880MOL0     H18765   8.481  12.813   8.997 -1.1524 -0.4449 -0.9296
  880MOL0     H18766   8.739  13.163   9.102  1.4329 -2.0534 -1.6607
  880MOL0     H18767   8.668  13.181   8.943 -0.0805 -1.4346 -0.1592
  880MOL0     H18768   8.525  13.238   9.204  1.3151  2.4665 -0.5058
  880MOL0     H18769   8.592  13.359   9.103 -0.7870  1.6416 -1.0541
  880MOL0     H18770   8.349  13.327   9.095 -0.8190 -2.2614  1.1434
  880MOL0     H18771   8.366  13.164   9.034 -0.9164  0.0586  0.6283
  880MOL0     H18772   8.505  13.413   8.912  1.3584 -0.1572  1.0563
  880MOL0     H18773   8.487  13.253   8.828 -4.1688 -3.4084  0.9577
  880MOL0     H18774   8.231  13.427   8.883 -1.3207  1.0274 -0.4929
  880MOL0     H18775   8.219  13.267   8.849 -0.4122  1.1925  1.9755
  880MOL0     H18776   8.368  13.469   8.680 -0.0132  1.6855  0.0959
  880MOL0     H18777   8.332  13.299   8.632  1.5336  1.3018 -0.2072
  880MOL0     H18778   8.154  13.531   8.655  1.5935 -0.1074 -0.9135
  880MOL0     H18779   8.079  13.379   8.707 -1.8296 -0.7133 -2.2176
  880MOL0     H18780   8.217  13.381   8.435 -0.8835  0.1447 -2.0798
  880MOL0     H18781   8.053  13.439   8.461 -0.2718  0.0863  0.4786
  880MOL0     H18782   8.843  13.021   8.974 -3.0126  1.2368 -0.4835
  880MOL0     H18783   8.945  12.817   8.839  0.7044 -2.1712  0.9218
  880MOL0     H18784   8.769  12.408   8.634 -0.3121  0.1714 -0.6823
  880MOL0     H18785   8.873  12.289   8.451  2.3488  4.3768 -2.1569
  880MOL0     H18786  10.470  11.471   7.838 -0.4194 -1.3144  0.6820
  880MOL0     H18787  10.705  11.417   7.759  1.6318 -2.2964 -0.1186
  880MOL0     H18788  10.988  11.377   7.574 -1.9835 -3.5710  1.1553
  880MOL0     H18789  11.225  11.392   7.530  2.6652 -1.7083 -0.3098
  880MOL0     H18790  11.452  11.135   7.405  1.5942 -1.3806 -0.7993
  880MOL0     H18791  11.338  11.085   7.279 -0.9205  2.6479 -1.6837
  880MOL0     H18792  11.583  11.244   7.210 -2.2439  2.0491 -1.4921
  880MOL0     H18793  11.466  11.157   7.101 -0.4535 -0.8858  0.4617
  880MOL0     H18794  11.524  10.941   7.184 -1.5335 -0.0346  1.3467
  880MOL0     H18795  11.663  10.995   7.280  0.0053  0.5751  0.8484
  880MOL0     H18796  11.649  11.074   6.991 -1.5351  1.0589  1.2505
  880MOL0     H18797  11.683  10.900   7.035 -1.7171 -1.0476  4.0144
  880MOL0     H18798  11.995  11.158   7.195  0.5702 -0.1759 -0.8039
  880MOL0     H18799  11.175  11.159   7.181 -0.5743 -2.1146  0.8835
  880MOL0     H18800  10.946  11.110   7.236  0.9899 -0.6193 -0.0791
  881MOL0     O18801   7.874   8.771   8.017  0.3810  0.2707  0.6503
  881MOL0     C18802   7.835   8.736   8.129 -0.7625 -0.0304  0.1251
  881MOL0     O18803   7.734   8.797   8.208 -0.3529 -0.3474 -0.3526
  881MOL0     C18804   7.676   8.914   8.170  0.0268  0.1698  0.4595
  881MOL0     C18805   7.639   9.000   8.270 -0.0526  0.6273 -0.8798
  881MOL0     C18806   7.577   9.122   8.241  0.4937 -0.5987  0.1761
  881MOL0     C18807   7.561   9.164   8.102  0.4826  0.3219  0.0653
  881MOL0     O18808   7.509   9.283   8.065  0.4396 -0.2510  0.3432
  881MOL0     C18809   7.388   9.319   8.121  0.1873 -0.8573  0.0214
  881MOL0     C18810   7.306   9.411   8.024  0.2051 -0.0312 -0.9456
  881MOL0     C18811   7.188   9.464   8.103  1.8009 -0.9900  1.0841
  881MOL0     C18812   7.110   9.547   7.995 -0.5206  0.4604 -0.0943
  881MOL0     C18813   6.980   9.612   8.048  0.2854 -0.2497 -0.4007
  881MOL0     C18814   6.871   9.509   8.049 -0.4706  0.4320 -0.8308
  881MOL0     C18815   6.731   9.570   8.081  0.5364  0.1931  0.1996
  881MOL0     C18816   6.625   9.467   8.032  0.7875  0.2161 -0.0668
  881MOL0     N18817   6.487   9.518   8.036  0.8584 -0.1630 -0.1700
  881MOL0     C18818   6.423   9.571   8.145 -0.3250  0.3609  1.2375
  881MOL0     C18819   6.287   9.566   8.121 -0.6453 -0.4122 -0.3284
  881MOL0     C18820   6.173   9.637   8.196  0.2234  0.1327 -0.1594
  881MOL0     C18821   6.127   9.776   8.136 -0.8833 -0.9299 -0.1598
  881MOL0     C18822   5.978   9.788   8.139 -0.3407 -0.6550  0.4089
  881MOL0     C18823   5.935   9.911   8.056  0.0109 -0.1576  0.9275
  881MOL0     O18824   5.990  10.024   8.120  0.2808 -0.2550 -0.4236
  881MOL0     C18825   5.985  10.137   8.035 -0.3178  0.0207  0.5696
  881MOL0     C18826   5.885  10.171   7.936 -0.4071 -0.1706 -0.0438
  881MOL0     C18827   5.871  10.301   7.871  0.1178  0.3776 -0.2881
  881MOL0     C18828   5.745  10.338   7.788 -0.0935 -0.1659 -0.5749
  881MOL0     C18829   5.962  10.400   7.915 -0.6461 -0.1610 -0.7469
  881MOL0     C18830   5.980  10.532   7.859 -0.1111  0.4936  0.6959
  881MOL0     O18831   6.021  10.628   7.952  0.3526  0.7239  0.4814
  881MOL0     C18832   6.030  10.760   7.914 -0.1195 -0.0183 -1.0134
  881MOL0     C18833   5.936  10.814   7.827 -0.7067  0.3007  0.8103
  881MOL0     C18834   5.956  10.954   7.788 -0.0777  0.2365  0.3681
  881MOL0     C18835   6.067  11.030   7.839 -1.4182 -0.9772 -0.5325
  881MOL0     O18836   6.078  11.170   7.825 -0.6225 -0.2346 -0.3613
  881MOL0     C18837   6.020  11.228   7.704  0.4995 -0.7642 -0.8386
  881MOL0     C18838   6.042  11.379   7.711 -0.6107 -0.1302 -0.2925
  881MOL0     C18839   6.185  11.419   7.704 -0.5696 -0.4121 -0.6681
  881MOL0     C18840   6.210  11.558   7.767 -0.4397 -0.9169  0.2029
  881MOL0     C18841   6.176  11.676   7.680  0.4453 -0.1253 -0.3713
  881MOL0     C18842   6.194  11.814   7.743  0.6757 -0.0953  0.1728
  881MOL0     C18843   6.101  11.858   7.856  0.2755  0.5021 -0.4956
  881MOL0     C18844   5.960  11.809   7.831 -0.8154 -0.4070 -0.5318
  881MOL0    Cl18845   5.876  11.862   7.977 -0.0056 -0.1816  0.2789
  881MOL0     C18846   6.146  10.965   7.934 -0.2280 -0.2295  0.0700
  881MOL0     C18847   6.130  10.834   7.977 -0.1411 -0.3875  0.5695
  881MOL0     O18848   5.974  10.552   7.740  0.2563 -0.1014  0.3812
  881MOL0     C18849   6.067  10.374   8.017  0.4305 -0.5904  0.8936
  881MOL0     C18850   6.078  10.239   8.064 -0.6489 -0.1737 -0.4200
  881MOL0     N18851   6.281   9.505   7.996  0.2441  0.0272  0.1456
  881MOL0     N18852   6.391   9.471   7.956  0.0080  0.1554 -0.4724
  881MOL0     C18853   7.596   9.074   8.005 -0.5544 -0.3626  0.1730
  881MOL0     C18854   7.654   8.951   8.041  1.2270  0.6148  0.6522
  881MOL0     C18855   7.912   8.623   8.190  1.0440 -0.0475  0.2038
  881MOL0     C18856   7.913   8.500   8.133 -0.6312 -0.0148  0.2818
  881MOL0     C18857   7.965   8.396   8.201 -0.3160  1.1213 -0.1611
  881MOL0     C18858   8.022   8.405   8.330  0.7354 -0.0371 -0.1544
  881MOL0     O18859   8.066   8.288   8.389  0.1621  0.0683 -0.0848
  881MOL0     C18860   8.107   8.286   8.522 -1.0493 -0.5182 -1.1351
  881MOL0     C18861   8.144   8.145   8.572 -0.5330  0.3561 -0.0832
  881MOL0     C18862   8.213   8.149   8.716  0.2724 -0.4194 -0.6492
  881MOL0     C18863   8.102   8.129   8.831 -1.1902  0.1278 -0.1788
  881MOL0     C18864   8.003   8.242   8.851 -0.5903 -0.1216  0.4097
  881MOL0     C18865   7.914   8.322   8.869  0.3356 -0.6956 -0.7348
  881MOL0     C18866   8.044   8.533   8.375 -0.4751 -0.2393 -0.1048
  881MOL0     C18867   7.979   8.647   8.312  0.3880  0.5458 -0.5130
  881MOL0     H18868   7.657   8.974   8.374 -3.3101  1.6273  0.0553
  881MOL0     H18869   7.556   9.204   8.310  2.4643  0.7074 -0.6662
  881MOL0     H18870   7.313   9.241   8.141 -3.4893  2.7528  1.9662
  881MOL0     H18871   7.402   9.373   8.215  0.3230 -2.2546  0.8363
  881MOL0     H18872   7.358   9.503   7.997 -1.5790  1.7827  1.3683
  881MOL0     H18873   7.262   9.363   7.936 -0.0715 -1.6327  0.0221
  881MOL0     H18874   7.116   9.391   8.141 -0.8091  0.2326 -1.1403
  881MOL0     H18875   7.237   9.519   8.184 -0.0765  0.7429  1.1182
  881MOL0     H18876   7.183   9.625   7.968 -1.2754  0.8733 -1.0083
  881MOL0     H18877   7.081   9.498   7.902 -0.4929  1.7485 -0.8137
  881MOL0     H18878   6.994   9.654   8.148 -0.1198  1.5526 -1.0605
  881MOL0     H18879   6.949   9.696   7.984 -0.4999  0.9331  1.4316
  881MOL0     H18880   6.875   9.452   7.955  1.0855  0.0309 -0.5612
  881MOL0     H18881   6.895   9.429   8.120 -1.3154  2.1800  1.5293
  881MOL0     H18882   6.716   9.595   8.187 -2.3042 -0.9568  0.1632
  881MOL0     H18883   6.731   9.669   8.035  0.9587 -0.0823 -0.4080
  881MOL0     H18884   6.637   9.375   8.091  2.3486  1.6206  1.9479
  881MOL0     H18885   6.640   9.444   7.926  1.1910  2.0189 -0.4310
  881MOL0     H18886   6.457   9.623   8.233 -1.9439  2.2358  0.8013
  881MOL0     H18887   6.087   9.569   8.203  0.4700 -0.0202  2.1603
  881MOL0     H18888   6.203   9.660   8.298  0.9919  0.0834 -0.3704
  881MOL0     H18889   6.164   9.791   8.034  0.5204  0.4814  0.5184
  881MOL0     H18890   6.173   9.852   8.199 -0.3209  0.3501 -2.0324
  881MOL0     H18891   5.953   9.803   8.245  0.3205 -3.1078  0.9799
  881MOL0     H18892   5.926   9.703   8.093 -0.1313  0.2465 -1.5638
  881MOL0     H18893   5.826   9.916   8.059  0.0893  1.9789  2.7377
  881MOL0     H18894   5.960   9.898   7.950  4.8566  0.3930  1.7933
  881MOL0     H18895   5.809  10.099   7.906 -0.6918 -0.0609  0.4027
  881MOL0     H18896   5.690  10.428   7.815 -0.5117 -0.5253 -0.2141
  881MOL0     H18897   5.773  10.347   7.683 -1.3606  0.8333 -0.8416
  881MOL0     H18898   5.684  10.248   7.777 -1.0767  0.6616 -2.2648
  881MOL0     H18899   5.853  10.758   7.786  0.9995 -1.6071 -0.2279
  881MOL0     H18900   5.886  10.996   7.718  0.3315 -1.0418 -0.8629
  881MOL0     H18901   6.078  11.194   7.618  0.5737 -0.3064 -0.9718
  881MOL0     H18902   5.912  11.214   7.706  0.3105  0.6568  0.3293
  881MOL0     H18903   5.991  11.428   7.627  0.4131  0.2497 -0.7118
  881MOL0     H18904   6.006  11.420   7.806  0.9277  1.3011 -0.2935
  881MOL0     H18905   6.225  11.420   7.602 -1.4100  3.9194 -1.1563
  881MOL0     H18906   6.230  11.337   7.761 -2.8637  0.8738  3.4349
  881MOL0     H18907   6.147  11.570   7.856 -1.2310  2.5301 -0.6736
  881MOL0     H18908   6.305  11.567   7.821 -1.4485  2.8396  1.7179
  881MOL0     H18909   6.072  11.661   7.648 -1.0386  0.9790  3.3523
  881MOL0     H18910   6.246  11.685   7.597  1.4049 -1.0922  0.3031
  881MOL0     H18911   6.297  11.838   7.769 -0.1765  1.1382  2.8580
  881MOL0     H18912   6.154  11.873   7.660 -0.7557 -1.0759  0.1164
  881MOL0     H18913   6.124  11.965   7.856  4.3677 -0.1749 -1.7824
  881MOL0     H18914   6.136  11.810   7.949  1.3203  0.8544 -0.6896
  881MOL0     H18915   5.957  11.700   7.824  2.8424 -0.6956  0.5926
  881MOL0     H18916   5.926  11.855   7.738  2.6834  0.8754 -1.2997
  881MOL0     H18917   6.232  11.024   7.963  1.2215 -2.4824  0.6411
  881MOL0     H18918   6.200  10.793   8.049 -2.9941 -1.6231  2.7993
  881MOL0     H18919   6.143  10.442   8.055  0.5540  0.0084 -0.3863
  881MOL0     H18920   6.161  10.223   8.132 -0.3555  1.7317 -0.2766
  881MOL0     H18921   7.585   9.101   7.900  1.9442  2.5267  0.5050
  881MOL0     H18922   7.670   8.873   7.967 -0.5045  0.7908  0.0311
  881MOL0     H18923   7.865   8.486   8.037  2.0557 -0.1099 -1.1409
  881MOL0     H18924   7.969   8.297   8.158  1.5755 -0.7997  3.9401
  881MOL0     H18925   8.192   8.356   8.526  0.8003 -2.6785  1.3543
  881MOL0     H18926   8.032   8.320   8.595  1.6289  0.5694  1.3432
  881MOL0     H18927   8.221   8.106   8.505 -1.7959  3.4070 -3.6254
  881MOL0     H18928   8.062   8.073   8.560  0.0078 -0.2332 -0.3426
  881MOL0     H18929   8.269   8.244   8.716  2.6574 -1.6844 -3.2417
  881MOL0     H18930   8.291   8.076   8.738 -0.1344 -0.3585  1.1342
  881MOL0     H18931   8.162   8.127   8.922 -0.6924  2.5888 -0.3811
  881MOL0     H18932   8.045   8.036   8.818  2.8851 -2.2984 -2.9910
  881MOL0     H18933   7.832   8.380   8.907  1.1215 -1.6793  2.8762
  881MOL0     H18934   8.088   8.557   8.471 -0.2323 -0.9024 -0.0460
  881MOL0     H18935   7.978   8.747   8.355  1.9656  0.6782 -0.7246
  882MOL0     O18936   2.538   8.772   4.465  0.1739 -0.1511 -0.8726
  882MOL0     C18937   2.538   8.645   4.447 -0.2569  0.7076  0.3273
  882MOL0     O18938   2.490   8.573   4.332 -0.2236 -0.1603 -0.1899
  882MOL0     C18939   2.461   8.637   4.222  0.6669  0.7239  0.0881
  882MOL0     C18940   2.480   8.562   4.107 -0.6822  0.6603  0.4666
  882MOL0     C18941   2.428   8.607   3.985 -0.4631  0.4359 -0.3125
  882MOL0     C18942   2.374   8.735   3.970 -0.3403 -0.3727  0.0363
  882MOL0     O18943   2.347   8.801   3.846  0.2294  0.1222 -0.1302
  882MOL0     C18944   2.309   8.713   3.738  0.8340 -0.3272 -0.3752
  882MOL0     C18945   2.220   8.791   3.651  0.4504  0.5310  1.1869
  882MOL0     C18946   2.213   8.744   3.503 -0.2452  0.1693  0.5262
  882MOL0     C18947   2.082   8.808   3.433  0.7370  1.4345 -0.1504
  882MOL0     C18948   2.048   8.760   3.296 -1.0487  0.1784 -0.2251
  882MOL0     C18949   1.906   8.806   3.262  0.5583 -0.0740  0.4037
  882MOL0     C18950   1.887   8.755   3.111  0.7732 -0.4747 -0.1911
  882MOL0     C18951   1.728   8.761   3.068 -0.2873 -0.2482  0.7545
  882MOL0     N18952   1.655   8.891   3.108  0.2453  0.4162 -0.6356
  882MOL0     C18953   1.681   9.019   3.056  0.5287  0.2136  0.1503
  882MOL0     C18954   1.620   9.104   3.146  0.2974  1.0717 -0.9275
  882MOL0     C18955   1.651   9.252   3.156 -0.2816  0.3368 -0.3254
  882MOL0     C18956   1.750   9.278   3.267 -1.1798 -0.0836  0.4190
  882MOL0     C18957   1.885   9.228   3.219 -1.0210  0.3191 -0.6174
  882MOL0     C18958   1.966   9.173   3.347 -0.9063  0.5960  0.6139
  882MOL0     O18959   2.006   9.290   3.410 -0.1750 -0.1972  0.3377
  882MOL0     C18960   2.102   9.297   3.508 -0.3557  0.3569  0.5370
  882MOL0     C18961   2.130   9.423   3.543  0.5494 -0.0395 -0.3864
  882MOL0     C18962   2.211   9.445   3.654  0.3032  0.5287 -0.1812
  882MOL0     C18963   2.241   9.593   3.688 -0.2146 -0.4592 -0.8676
  882MOL0     C18964   2.273   9.339   3.718 -0.1397  0.4685 -0.4294
  882MOL0     C18965   2.385   9.351   3.815  0.6007 -0.6327 -0.0466
  882MOL0     O18966   2.476   9.248   3.811  0.1920 -0.9330 -0.5926
  882MOL0     C18967   2.540   9.228   3.931 -0.3511  0.1448 -0.5483
  882MOL0     C18968   2.613   9.325   4.005  0.5252 -0.0465 -0.4159
  882MOL0     C18969   2.683   9.289   4.115 -1.2810 -0.6998 -0.9117
  882MOL0     C18970   2.709   9.157   4.151  0.3775 -0.3219 -0.8548
  882MOL0     O18971   2.793   9.135   4.261 -0.3271  0.1421  0.0852
  882MOL0     C18972   2.828   9.004   4.301  0.4040  0.3094  0.3791
  882MOL0     C18973   2.925   9.032   4.410  0.1146  0.2139  0.8942
  882MOL0     C18974   3.048   9.099   4.363  0.1473 -0.3329 -0.0685
  882MOL0     C18975   3.143   9.124   4.475  0.5036  0.0196  0.1898
  882MOL0     C18976   3.286   9.102   4.431  0.7266 -0.5342  0.7696
  882MOL0     C18977   3.385   9.137   4.541  0.9370  0.2144  0.0290
  882MOL0     C18978   3.401   9.288   4.562 -0.2106  0.2876  0.0713
  882MOL0     C18979   3.526   9.335   4.633  0.6643 -0.4493 -0.9361
  882MOL0    Cl18980   3.666   9.351   4.530  0.3224  0.2523 -0.0867
  882MOL0     C18981   2.626   9.063   4.086  0.2979  0.1453  0.0142
  882MOL0     C18982   2.541   9.096   3.982  0.1709 -0.9067 -0.6617
  882MOL0     O18983   2.377   9.437   3.898 -0.0482 -0.4454  0.1574
  882MOL0     C18984   2.237   9.211   3.676  1.0843 -0.0665  0.2800
  882MOL0     C18985   2.162   9.191   3.569  0.6814 -0.4741 -0.2533
  882MOL0     N18986   1.549   9.038   3.242 -0.1784  0.3599 -0.5391
  882MOL0     N18987   1.581   8.909   3.223  0.3454  0.2463 -0.0969
  882MOL0     C18988   2.353   8.811   4.084 -0.2738  0.0020  0.5316
  882MOL0     C18989   2.382   8.749   4.204 -0.7130 -0.6900 -0.3836
  882MOL0     C18990   2.581   8.553   4.552  0.1167 -0.0796 -0.4447
  882MOL0     C18991   2.635   8.611   4.668  0.7993 -0.0943  0.2280
  882MOL0     C18992   2.681   8.529   4.764 -1.0002  0.2986  0.3038
  882MOL0     C18993   2.697   8.388   4.748 -0.2889 -0.6731  0.1550
  882MOL0     O18994   2.753   8.301   4.840  0.4971  0.2393  0.8071
  882MOL0     C18995   2.872   8.228   4.793  0.1151  0.2288 -0.1583
  882MOL0     C18996   2.844   8.090   4.742  0.1818  0.3499 -0.6809
  882MOL0     C18997   2.940   7.983   4.802 -0.2522 -0.2060  1.2664
  882MOL0     C18998   2.965   7.867   4.712  0.5243  0.4846  0.4540
  882MOL0     C18999   3.044   7.761   4.780  0.3354  0.0512 -0.4201
  882MOL0     C19000   3.117   7.682   4.833 -0.2484  0.8223 -0.6640
  882MOL0     C19001   2.637   8.331   4.637  0.5788  0.3702  0.6525
  882MOL0     C19002   2.581   8.413   4.536  0.7048 -0.2641 -0.7945
  882MOL0     H19003   2.524   8.462   4.108  0.6201  1.2096  0.3533
  882MOL0     H19004   2.451   8.528   3.914 -1.3031 -0.8044  0.7476
  882MOL0     H19005   2.402   8.688   3.686  1.4919  2.2806 -0.5882
  882MOL0     H19006   2.255   8.624   3.773  0.0647 -0.1736 -1.1448
  882MOL0     H19007   2.124   8.775   3.701  1.9748  1.0748  4.5662
  882MOL0     H19008   2.236   8.899   3.638  1.6679  0.1677 -0.8100
  882MOL0     H19009   2.299   8.776   3.443 -1.2485  0.5386 -0.7704
  882MOL0     H19010   2.191   8.637   3.508 -5.2222  0.7778 -2.0827
  882MOL0     H19011   2.002   8.778   3.501 -0.9385 -0.5341 -2.7934
  882MOL0     H19012   2.088   8.917   3.430 -2.5907  1.7685  0.7470
  882MOL0     H19013   2.118   8.799   3.222  0.9167  0.0609  1.4551
  882MOL0     H19014   2.054   8.651   3.299 -1.0576  0.1890  0.6045
  882MOL0     H19015   1.835   8.764   3.333 -2.0168  3.2310  0.0417
  882MOL0     H19016   1.883   8.912   3.274 -0.2063 -0.3833  1.7314
  882MOL0     H19017   1.940   8.817   3.038  0.0338 -0.3799 -0.6592
  882MOL0     H19018   1.926   8.654   3.099  0.5231 -0.7141  0.8683
  882MOL0     H19019   1.684   8.669   3.107  2.6666 -1.8138  0.7069
  882MOL0     H19020   1.736   8.759   2.959  0.6805  3.4854  0.6089
  882MOL0     H19021   1.743   9.034   2.968 -1.6479 -0.7802 -1.6541
  882MOL0     H19022   1.678   9.288   3.057 -0.4921  1.7258  0.1086
  882MOL0     H19023   1.560   9.309   3.176 -0.4484 -0.2410  0.6468
  882MOL0     H19024   1.722   9.242   3.366 -1.2727  3.4371  1.7865
  882MOL0     H19025   1.760   9.386   3.279 -1.5565 -0.0708  0.5995
  882MOL0     H19026   1.933   9.307   3.160  4.0746 -1.2497  0.9917
  882MOL0     H19027   1.877   9.144   3.149  0.4634 -1.9819  1.7769
  882MOL0     H19028   2.061   9.130   3.314 -0.4696  2.5356 -0.8310
  882MOL0     H19029   1.909   9.103   3.408 -3.2169  0.9936 -0.9337
  882MOL0     H19030   2.088   9.503   3.483 -1.1232 -0.3866  0.2460
  882MOL0     H19031   2.348   9.616   3.691 -0.5350  1.0609  0.3255
  882MOL0     H19032   2.186   9.646   3.610  0.0296  0.4358 -0.4549
  882MOL0     H19033   2.189   9.617   3.782  1.5936 -1.4907  0.4507
  882MOL0     H19034   2.623   9.426   3.968  5.1510 -0.5085 -1.0092
  882MOL0     H19035   2.744   9.361   4.169 -2.6195  2.4094 -3.2390
  882MOL0     H19036   2.730   8.964   4.331 -1.0205  1.5324 -2.2308
  882MOL0     H19037   2.859   8.948   4.212 -0.1183  1.1717 -0.3681
  882MOL0     H19038   2.889   9.098   4.490  0.3144  1.3858  0.0532
  882MOL0     H19039   2.952   8.939   4.460  2.0402  0.1919 -0.0880
  882MOL0     H19040   3.019   9.192   4.314 -0.9785  2.0640  4.5382
  882MOL0     H19041   3.093   9.027   4.294  0.3070  0.2453 -0.5742
  882MOL0     H19042   3.120   9.229   4.496  2.5882  0.8110 -1.0767
  882MOL0     H19043   3.126   9.051   4.554  2.7792 -2.1841 -1.1879
  882MOL0     H19044   3.303   9.161   4.340  1.7957 -1.7421  0.1526
  882MOL0     H19045   3.287   8.998   4.397  0.2676 -0.0652 -0.7836
  882MOL0     H19046   3.358   9.097   4.639  1.5272 -0.1994  0.0226
  882MOL0     H19047   3.482   9.096   4.512 -0.1413 -2.0888 -0.5813
  882MOL0     H19048   3.322   9.325   4.628 -1.5081  1.9992 -2.2692
  882MOL0     H19049   3.384   9.345   4.470 -2.1365  1.0218  0.8238
  882MOL0     H19050   3.550   9.269   4.717  1.9434  2.3120  1.0238
  882MOL0     H19051   3.496   9.422   4.692 -1.0921 -1.6231 -0.0088
  882MOL0     H19052   2.628   8.958   4.116  1.6851  0.7051  2.0963
  882MOL0     H19053   2.474   9.020   3.944  2.3914 -2.0465 -2.5662
  882MOL0     H19054   2.273   9.121   3.725 -1.9337 -3.6125 -3.3155
  882MOL0     H19055   2.124   9.099   3.527 -0.1709  0.1966 -0.9999
  882MOL0     H19056   2.297   8.904   4.077  1.3000  1.0650  1.3275
  882MOL0     H19057   2.353   8.796   4.298  2.0114 -0.1590  0.2715
  882MOL0     H19058   2.633   8.719   4.682  2.5730 -0.3230  2.9637
  882MOL0     H19059   2.725   8.561   4.858 -0.3755  3.2046 -0.8593
  882MOL0     H19060   2.926   8.282   4.715  1.4714  1.9091  1.8402
  882MOL0     H19061   2.931   8.233   4.885 -1.3497  0.2000  0.8246
  882MOL0     H19062   2.838   8.097   4.633  0.0845  2.5901 -0.5763
  882MOL0     H19063   2.743   8.060   4.769 -0.8865  2.1460 -2.4159
  882MOL0     H19064   2.897   7.935   4.891  3.3673 -2.6008  1.9327
  882MOL0     H19065   3.032   8.036   4.829  0.6869 -1.1834  0.0978
  882MOL0     H19066   3.017   7.890   4.618  0.3852 -2.1062 -0.3377
  882MOL0     H19067   2.869   7.825   4.681 -0.0477  1.1378  1.3013
  882MOL0     H19068   3.178   7.604   4.874 -1.5333  0.7892  1.3263
  882MOL0     H19069   2.640   8.224   4.622  2.7043  0.8344 -4.3276
  882MOL0     H19070   2.543   8.375   4.442  1.7326 -1.8525 -0.6080
  883MOL0     O19071   4.404   0.216  10.449  0.7161 -0.6463  0.2530
  883MOL0     C19072   4.423   0.108  10.496 -0.0524  0.3629 -0.3666
  883MOL0     O19073   4.522   0.023  10.454  0.4050  0.4302 -0.3864
  883MOL0     C19074   4.633   0.055  10.375  0.2596 -0.3317 -0.6842
  883MOL0     C19075   4.686  -0.050  10.298  0.2421 -0.2571 -0.1821
  883MOL0     C19076   4.807  -0.040  10.230 -0.1085  0.5893 -0.2401
  883MOL0     C19077   4.878   0.076  10.238  0.9825 -0.3392 -0.3779
  883MOL0     O19078   5.008   0.085  10.190  1.1538 -0.4571  0.5109
  883MOL0     C19079   5.093  -0.014  10.251  0.1985  0.5806 -0.0522
  883MOL0     C19080   5.146   0.033  10.386 -0.0919 -0.3808  0.5110
  883MOL0     C19081   5.216   0.175  10.375  0.0459  0.5174 -0.5573
  883MOL0     C19082   5.178   0.262  10.500  0.2444  0.9999 -0.4348
  883MOL0     C19083   5.275   0.377  10.501 -0.1660 -0.5659 -0.2774
  883MOL0     C19084   5.222   0.472  10.613 -0.6703  0.6963  0.0968
  883MOL0     C19085   5.342   0.564  10.662 -0.5499  0.2078 -0.0905
  883MOL0     C19086   5.413   0.664  10.569  1.4780  1.0136  0.3939
  883MOL0     N19087   5.492   0.599  10.460 -0.4987  0.1927 -0.1622
  883MOL0     C19088   5.595   0.515  10.489  0.8653 -0.3330  0.1242
  883MOL0     C19089   5.662   0.497  10.372  0.4835 -0.0020 -0.3471
  883MOL0     C19090   5.774   0.400  10.352 -0.1455  0.1805  0.1085
  883MOL0     C19091   5.700   0.311  10.256  0.6162  0.2254 -0.3577
  883MOL0     C19092   5.791   0.193  10.226 -0.1883 -1.0788 -0.1640
  883MOL0     C19093   5.744   0.098  10.114  0.4547 -0.3239 -0.5302
  883MOL0     O19094   5.625   0.023  10.164 -0.5421  0.1158 -0.4298
  883MOL0     C19095   5.637  -0.080  10.253 -1.0828  0.8115  0.3137
  883MOL0     C19096   5.754  -0.134  10.305 -0.1086  0.6740 -0.1697
  883MOL0     C19097   5.747  -0.228  10.402  0.7363  0.4055 -0.2919
  883MOL0     C19098   5.879  -0.283  10.440 -0.2557  0.0577 -0.4600
  883MOL0     C19099   5.626  -0.273  10.458 -0.5173 -0.3403  0.0726
  883MOL0     C19100   5.618  -0.379  10.564 -0.6493  0.5900  0.7303
  883MOL0     O19101   5.687  -0.370  10.682  0.8954  0.1077  0.2929
  883MOL0     C19102   5.654  -0.451  10.788 -0.7847  0.1151  0.5121
  883MOL0     C19103   5.527  -0.469  10.858  0.4897  1.2177 -0.1251
  883MOL0     C19104   5.519  -0.541  10.971 -0.3899  0.3269  0.3232
  883MOL0     C19105   5.628  -0.607  11.027 -1.5597  0.1673  0.3638
  883MOL0     O19106   5.636  -0.681  11.145  0.0586 -0.5759 -0.4284
  883MOL0     C19107   5.508  -0.732  11.183 -0.0208 -0.2239  0.0016
  883MOL0     C19108   5.537  -0.811  11.313 -0.7406 -0.4574 -0.8235
  883MOL0     C19109   5.548  -0.708  11.432  0.0297  0.1067 -0.1355
  883MOL0     C19110   5.528  -0.754  11.577  0.6319  0.0927 -0.0384
  883MOL0     C19111   5.499  -0.639  11.682 -0.3222 -0.4885 -0.4193
  883MOL0     C19112   5.355  -0.615  11.704 -0.1992 -1.0864 -0.3454
  883MOL0     C19113   5.299  -0.716  11.799 -0.2525 -1.5039  0.1381
  883MOL0     C19114   5.155  -0.714  11.798  0.3198 -0.7391 -0.3869
  883MOL0    Cl19115   5.077  -0.576  11.892 -0.5277  0.4421  0.2759
  883MOL0     C19116   5.746  -0.609  10.951  0.4671  0.4749 -0.8462
  883MOL0     C19117   5.767  -0.524  10.844  0.3863 -0.0149  0.3602
  883MOL0     O19118   5.533  -0.463  10.541  0.9770  0.6487 -1.1488
  883MOL0     C19119   5.512  -0.211  10.413 -0.5725 -0.4783 -0.5485
  883MOL0     C19120   5.519  -0.136  10.297  0.9968 -0.8652  0.3517
  883MOL0     N19121   5.604   0.582  10.274  0.0726  0.3325  0.1824
  883MOL0     N19122   5.514   0.646  10.332 -0.1991  0.2848 -0.4399
  883MOL0     C19123   4.821   0.182  10.293 -0.2065 -0.0294  0.0637
  883MOL0     C19124   4.698   0.176  10.351 -0.2925 -0.5383  0.0050
  883MOL0     C19125   4.338   0.058  10.611  0.3634 -0.2251  0.7819
  883MOL0     C19126   4.229   0.129  10.660  0.7891 -0.4165  0.0364
  883MOL0     C19127   4.143   0.083  10.761 -0.2276  0.0015 -0.0906
  883MOL0     C19128   4.167  -0.040  10.823 -0.6282  0.3360  0.1273
  883MOL0     O19129   4.088  -0.074  10.927  0.8407  0.3536  0.1281
  883MOL0     C19130   3.967  -0.121  10.875 -0.1686 -0.1226 -0.4848
  883MOL0     C19131   3.872  -0.139  10.989  0.6944  0.7280  0.0034
  883MOL0     C19132   3.919  -0.249  11.077  0.2003 -1.1734  0.7141
  883MOL0     C19133   3.821  -0.277  11.193 -0.2576  0.3715  0.7174
  883MOL0     C19134   3.786  -0.160  11.273  0.1162 -0.2702 -0.1517
  883MOL0     C19135   3.764  -0.058  11.326 -0.0394 -0.1075  0.7009
  883MOL0     C19136   4.283  -0.112  10.787 -0.2382  0.0332  0.5481
  883MOL0     C19137   4.363  -0.060  10.681 -1.2469 -0.2445  0.7776
  883MOL0     H19138   4.628  -0.142  10.290  0.6358 -0.3744 -2.1681
  883MOL0     H19139   4.832  -0.124  10.166 -4.5838 -0.9380 -0.3833
  883MOL0     H19140   5.053  -0.115  10.260 -2.2641  1.4318 -0.7902
  883MOL0     H19141   5.171  -0.018  10.174 -2.5660  1.5732 -3.1840
  883MOL0     H19142   5.062   0.040  10.455 -0.1362 -2.1355  0.6833
  883MOL0     H19143   5.215  -0.041  10.428 -1.7283 -1.5251  1.2807
  883MOL0     H19144   5.324   0.161  10.366 -0.3774 -2.3555 -2.5830
  883MOL0     H19145   5.185   0.236  10.289 -1.5536  0.8723  0.2304
  883MOL0     H19146   5.078   0.305  10.487  0.0957  0.0841 -2.9427
  883MOL0     H19147   5.173   0.197  10.588  0.6094 -0.0516 -1.1665
  883MOL0     H19148   5.373   0.338  10.532  1.2714  3.3506  0.6843
  883MOL0     H19149   5.290   0.429  10.406  0.1744 -1.8784 -0.9734
  883MOL0     H19150   5.124   0.513  10.585 -0.5481  1.4546  0.7384
  883MOL0     H19151   5.210   0.399  10.694  3.3547 -0.4740 -0.1656
  883MOL0     H19152   5.304   0.625  10.744 -0.8979  0.7512 -0.6415
  883MOL0     H19153   5.414   0.489  10.696 -1.2575  0.3376  1.7853
  883MOL0     H19154   5.473   0.733  10.628  1.1016  1.3717  0.3658
  883MOL0     H19155   5.332   0.719  10.521  0.8010 -1.0580 -0.9638
  883MOL0     H19156   5.628   0.470  10.582  0.4223 -1.0586 -0.0599
  883MOL0     H19157   5.867   0.442  10.312  0.7892 -0.9452  1.0352
  883MOL0     H19158   5.811   0.354  10.444  0.0142  1.5303  0.7474
  883MOL0     H19159   5.673   0.351  10.158  1.2570  0.8038 -0.3058
  883MOL0     H19160   5.611   0.271  10.305 -0.9297  0.9380 -2.4247
  883MOL0     H19161   5.820   0.130  10.311  1.0215  0.9804  1.0349
  883MOL0     H19162   5.874   0.245  10.177 -0.4143  0.1719  0.7355
  883MOL0     H19163   5.834   0.043  10.086  2.7009  1.8396  1.9070
  883MOL0     H19164   5.720   0.154  10.023  1.6570 -1.3214 -1.4921
  883MOL0     H19165   5.849  -0.095  10.271  1.0032 -2.9769 -1.7214
  883MOL0     H19166   5.892  -0.389  10.418 -0.6592  0.2737 -1.7932
  883MOL0     H19167   5.966  -0.233  10.396 -0.7998  0.6834 -0.8501
  883MOL0     H19168   5.890  -0.264  10.547 -1.2810 -0.1420 -0.3081
  883MOL0     H19169   5.434  -0.430  10.820 -0.3973 -0.4072  0.3044
  883MOL0     H19170   5.427  -0.548  11.029  0.3606 -0.2179  1.4762
  883MOL0     H19171   5.437  -0.649  11.196  2.6455  1.8921  2.2033
  883MOL0     H19172   5.478  -0.802  11.105 -1.0596  0.2258 -0.0282
  883MOL0     H19173   5.455  -0.883  11.322 -2.6270  1.4485 -1.9746
  883MOL0     H19174   5.630  -0.868  11.302  0.5553  1.2522  0.6340
  883MOL0     H19175   5.486  -0.620  11.411  1.0433  0.1369 -3.6168
  883MOL0     H19176   5.654  -0.681  11.437  0.3405 -1.2447  1.0035
  883MOL0     H19177   5.454  -0.835  11.570  2.9163 -2.2237  0.9628
  883MOL0     H19178   5.617  -0.810  11.608  1.3840  1.0149 -0.4959
  883MOL0     H19179   5.548  -0.545  11.655  2.9675 -2.4068 -1.8170
  883MOL0     H19180   5.533  -0.662  11.784 -1.3084  0.5593  0.1693
  883MOL0     H19181   5.339  -0.511  11.733  1.8091 -0.1434 -2.3140
  883MOL0     H19182   5.303  -0.622  11.608 -1.2237  1.0444 -0.0002
  883MOL0     H19183   5.334  -0.694  11.901  0.0918 -0.0190 -0.2804
  883MOL0     H19184   5.333  -0.818  11.776  1.7348 -1.2872  1.8476
  883MOL0     H19185   5.101  -0.804  11.829  1.0376 -0.1972  2.7393
  883MOL0     H19186   5.127  -0.711  11.692  0.6240 -4.7813 -0.7204
  883MOL0     H19187   5.836  -0.663  10.980 -0.2513 -2.5044 -3.6426
  883MOL0     H19188   5.865  -0.510  10.798 -0.0220  2.7312  0.1526
  883MOL0     H19189   5.416  -0.238  10.456  0.2070  0.0304  1.6473
  883MOL0     H19190   5.421  -0.114  10.257  1.1605  0.6156  0.7092
  883MOL0     H19191   4.863   0.282  10.283 -3.4439  1.5946  1.1674
  883MOL0     H19192   4.657   0.272  10.380  1.1807  0.5610 -1.4567
  883MOL0     H19193   4.206   0.225  10.615  0.0755 -0.4474  0.3223
  883MOL0     H19194   4.058   0.145  10.787  0.1009  0.6398 -0.4983
  883MOL0     H19195   3.925  -0.055  10.799 -0.8768  0.6228  0.5167
  883MOL0     H19196   3.968  -0.216  10.821  1.1912 -0.4003 -0.0063
  883MOL0     H19197   3.770  -0.158  10.954  0.6245  0.7807  0.1748
  883MOL0     H19198   3.863  -0.049  11.051 -1.5842  0.3669  0.2740
  883MOL0     H19199   4.017  -0.226  11.119  1.6500 -2.1629 -1.8846
  883MOL0     H19200   3.923  -0.336  11.010  0.6568 -1.3339  0.9474
  883MOL0     H19201   3.865  -0.355  11.257 -3.0456 -3.6754 -1.8624
  883MOL0     H19202   3.735  -0.319  11.140 -0.3720  2.0413 -0.4664
  883MOL0     H19203   3.752   0.043  11.362  0.8710 -0.1704  1.2045
  883MOL0     H19204   4.322  -0.194  10.846  0.6328  0.2353  0.2727
  883MOL0     H19205   4.451  -0.118  10.654 -0.6510 -0.4740  3.0084
  884MOL0     O19206   1.843   7.622   5.668 -0.2354 -0.0314  0.3078
  884MOL0     C19207   1.858   7.621   5.795  0.2093  0.8226  0.4600
  884MOL0     O19208   1.786   7.690   5.884 -1.7067 -0.5066  0.0816
  884MOL0     C19209   1.697   7.784   5.843  0.6050  0.0896 -0.1180
  884MOL0     C19210   1.586   7.753   5.761  1.1469 -0.3459  0.1123
  884MOL0     C19211   1.497   7.847   5.717 -0.5936  0.6966 -0.2289
  884MOL0     C19212   1.509   7.977   5.773 -0.1360  0.2920  0.4315
  884MOL0     O19213   1.443   8.085   5.721  0.1456  0.4544 -0.0260
  884MOL0     C19214   1.306   8.087   5.685 -0.2357 -0.3500  0.6017
  884MOL0     C19215   1.221   8.108   5.812 -0.2082  0.1815  0.0018
  884MOL0     C19216   1.276   8.204   5.909 -1.5899  0.3353  0.2121
  884MOL0     C19217   1.170   8.214   6.016 -0.5173 -0.5797 -0.2241
  884MOL0     C19218   1.207   8.314   6.126 -1.4640  0.6105  0.0575
  884MOL0     C19219   1.108   8.331   6.244 -0.4043 -0.1723 -0.5274
  884MOL0     C19220   0.988   8.429   6.214  0.6066 -0.1026 -0.1633
  884MOL0     C19221   0.878   8.431   6.321 -0.4621 -0.2973 -0.3489
  884MOL0     N19222   0.922   8.475   6.452 -0.1260 -0.8081  0.2101
  884MOL0     C19223   0.877   8.410   6.570  0.6391 -0.6072  0.0983
  884MOL0     C19224   0.956   8.460   6.671 -0.1191 -0.1649 -0.7186
  884MOL0     C19225   0.957   8.404   6.812 -0.2570  0.3800  0.5381
  884MOL0     C19226   0.890   8.511   6.906 -0.7961 -0.5054 -0.0230
  884MOL0     C19227   0.915   8.463   7.054  0.1219 -0.3059 -0.8666
  884MOL0     C19228   0.860   8.565   7.154 -0.1853  0.4833  0.5053
  884MOL0     O19229   0.907   8.694   7.137 -1.1866  0.1591  0.3491
  884MOL0     C19230   0.825   8.797   7.106  0.4239 -0.6641 -0.1837
  884MOL0     C19231   0.688   8.781   7.077 -0.4085 -0.3950 -0.0885
  884MOL0     C19232   0.616   8.889   7.035 -0.5923  1.0048  0.4593
  884MOL0     C19233   0.472   8.858   7.002 -0.1234 -0.6556  0.1340
  884MOL0     C19234   0.673   9.016   7.029  0.3315 -0.3006  0.7520
  884MOL0     C19235   0.604   9.140   7.000 -0.3785 -0.1665 -0.0893
  884MOL0     O19236   0.510   9.143   6.904  0.8955  0.3400  0.5183
  884MOL0     C19237   0.463   9.271   6.865 -0.1255  0.0841  0.0212
  884MOL0     C19238   0.525   9.368   6.792 -0.2261  0.0112  0.2246
  884MOL0     C19239   0.451   9.491   6.760 -0.4834  0.7331 -0.5261
  884MOL0     C19240   0.321   9.508   6.807 -0.5664  0.4657 -0.1518
  884MOL0     O19241   0.242   9.612   6.773  0.5748  1.2215 -0.7771
  884MOL0     C19242   0.310   9.730   6.735  0.4999  0.2391  0.3341
  884MOL0     C19243   0.214   9.849   6.731  0.3433 -0.4445 -0.5765
  884MOL0     C19244   0.187   9.916   6.872  0.4680 -0.7058 -0.2108
  884MOL0     C19245   0.117  10.050   6.876  0.2026 -0.5431 -0.3552
  884MOL0     C19246   0.060  10.081   7.016  0.4606 -0.3813  0.0140
  884MOL0     C19247  -0.017  10.215   7.022 -0.2428  0.3130  0.2126
  884MOL0     C19248  -0.043  10.240   7.177  0.5733 -0.6524  0.2320
  884MOL0     C19249  -0.156  10.337   7.192  0.0768  0.6866  0.4045
  884MOL0    Cl19250  -0.315  10.260   7.150  0.0024  0.4929 -1.0002
  884MOL0     C19251   0.267   9.407   6.887  0.4062 -1.1724  0.5702
  884MOL0     C19252   0.334   9.296   6.921  0.7905 -0.4334  0.0289
  884MOL0     O19253   0.635   9.237   7.064 -0.1216 -0.0282 -0.0733
  884MOL0     C19254   0.807   9.036   7.065  0.3030 -0.1582  0.6913
  884MOL0     C19255   0.876   8.924   7.092  0.0105 -0.4748 -0.4148
  884MOL0     N19256   1.048   8.550   6.614 -0.2823 -0.5875  0.0918
  884MOL0     N19257   1.017   8.569   6.489 -0.0305  0.6275 -1.1914
  884MOL0     C19258   1.615   8.012   5.852  0.4379 -0.0613  0.6002
  884MOL0     C19259   1.713   7.917   5.890  0.2850  0.0305  0.3974
  884MOL0     C19260   1.959   7.530   5.850  0.1487 -0.8623  0.1260
  884MOL0     C19261   1.991   7.536   5.989  0.0781 -0.0912 -0.5360
  884MOL0     C19262   2.089   7.447   6.049  0.5577  0.0073  0.2308
  884MOL0     C19263   2.160   7.366   5.970  0.3560 -0.5405 -0.9243
  884MOL0     O19264   2.270   7.294   6.011  0.4968  1.3074 -1.2655
  884MOL0     C19265   2.396   7.300   5.946 -0.5377  0.5023 -0.4821
  884MOL0     C19266   2.512   7.259   6.032 -0.1702  0.2359  0.0769
  884MOL0     C19267   2.574   7.359   6.129  0.5698 -0.9010 -0.2964
  884MOL0     C19268   2.463   7.419   6.226  0.6766 -0.4147 -0.2924
  884MOL0     C19269   2.531   7.487   6.338 -0.3270  0.6479 -0.0966
  884MOL0     C19270   2.588   7.541   6.435  0.6016  0.3532  0.1123
  884MOL0     C19271   2.135   7.366   5.832 -0.7808 -0.8169  0.2497
  884MOL0     C19272   2.034   7.443   5.774 -0.0698 -0.1270 -0.4041
  884MOL0     H19273   1.588   7.648   5.731 -0.5882 -0.2738 -0.3892
  884MOL0     H19274   1.416   7.808   5.656  1.8196 -0.6414 -2.8148
  884MOL0     H19275   1.289   8.183   5.636 -0.5177  0.3439  1.9994
  884MOL0     H19276   1.270   8.006   5.620 -0.0004  1.4667 -1.9254
  884MOL0     H19277   1.128   8.150   5.772 -1.5218 -1.4926  1.1677
  884MOL0     H19278   1.202   8.008   5.850  1.5965 -0.6220 -1.0801
  884MOL0     H19279   1.370   8.165   5.949 -0.9926 -0.2920 -1.7010
  884MOL0     H19280   1.305   8.298   5.862  0.3462 -2.0083 -3.7585
  884MOL0     H19281   1.072   8.240   5.974 -0.8559 -1.9501 -0.3532
  884MOL0     H19282   1.161   8.118   6.069 -1.1368  0.2023  1.1356
  884MOL0     H19283   1.301   8.274   6.167 -1.7486 -1.3670 -1.0681
  884MOL0     H19284   1.236   8.408   6.079  0.3971  0.5688  1.0087
  884MOL0     H19285   1.071   8.236   6.283 -0.1272  0.5075  1.5210
  884MOL0     H19286   1.152   8.387   6.327  1.8130  0.3401 -1.9843
  884MOL0     H19287   1.017   8.531   6.188  3.1557 -0.6523  0.2477
  884MOL0     H19288   0.935   8.393   6.125 -0.5547 -0.3490  0.6013
  884MOL0     H19289   0.842   8.328   6.324 -1.4331  0.0068 -0.9555
  884MOL0     H19290   0.793   8.490   6.285 -1.3370 -1.4165 -0.1651
  884MOL0     H19291   0.790   8.346   6.567 -1.1422  1.6991 -1.5164
  884MOL0     H19292   0.896   8.314   6.827 -3.7903  2.4170 -0.4402
  884MOL0     H19293   1.063   8.388   6.833 -0.5788 -0.6291  1.4902
  884MOL0     H19294   0.784   8.522   6.879 -0.7753  2.4661  0.7484
  884MOL0     H19295   0.936   8.609   6.891  0.2688 -1.1247 -0.9392
  884MOL0     H19296   1.021   8.451   7.078 -0.3724 -1.9803  0.6450
  884MOL0     H19297   0.869   8.367   7.077 -1.1658  0.5127  0.1179
  884MOL0     H19298   0.886   8.536   7.256  2.9754  1.5218  0.1182
  884MOL0     H19299   0.752   8.556   7.141 -0.0613 -2.5257  0.8345
  884MOL0     H19300   0.638   8.685   7.072  0.3028 -0.7563 -0.3176
  884MOL0     H19301   0.411   8.928   7.060  0.4428 -1.1796  1.3799
  884MOL0     H19302   0.468   8.892   6.898  0.0599 -1.2702 -0.0758
  884MOL0     H19303   0.432   8.758   7.017  0.5702 -1.1397 -1.0969
  884MOL0     H19304   0.626   9.367   6.753  0.2841 -0.2070  1.5109
  884MOL0     H19305   0.506   9.569   6.709  1.1844  1.6092  2.3783
  884MOL0     H19306   0.397   9.747   6.800  1.2970 -1.2343 -0.2932
  884MOL0     H19307   0.345   9.715   6.632  0.7193  1.1358  0.2644
  884MOL0     H19308   0.255   9.932   6.673  1.4704  1.4554  2.7000
  884MOL0     H19309   0.118   9.814   6.692  0.1221 -0.4965  0.0003
  884MOL0     H19310   0.277   9.920   6.934  2.1764 -3.1461 -2.3202
  884MOL0     H19311   0.121   9.844   6.921 -0.1306 -0.5342 -0.7522
  884MOL0     H19312   0.181  10.125   6.828  0.7089 -0.5568  0.2861
  884MOL0     H19313   0.029  10.050   6.811 -0.9913 -0.2300  1.2033
  884MOL0     H19314   0.153  10.097   7.071  0.5795  0.4345 -0.4083
  884MOL0     H19315   0.006   9.994   7.056  0.0243 -0.9671 -1.7786
  884MOL0     H19316   0.045  10.297   6.985  0.9076  0.3497  2.1039
  884MOL0     H19317  -0.109  10.218   6.963 -1.5183 -1.9154  1.9174
  884MOL0     H19318   0.049  10.280   7.220  2.0757 -3.5624 -0.0119
  884MOL0     H19319  -0.074  10.146   7.223 -3.1950  0.7805  0.9915
  884MOL0     H19320  -0.150  10.419   7.119 -1.7412  1.1526  0.7424
  884MOL0     H19321  -0.167  10.380   7.292 -2.9168  2.0336 -0.4139
  884MOL0     H19322   0.164   9.413   6.920 -0.0609 -2.9868 -0.4500
  884MOL0     H19323   0.284   9.213   6.970  0.6087 -1.6866 -2.1492
  884MOL0     H19324   0.858   9.132   7.076  0.8339 -0.3746  0.2132
  884MOL0     H19325   0.984   8.927   7.088 -0.0535  2.6277 -2.4673
  884MOL0     H19326   1.622   8.114   5.889  0.3053 -0.5502  2.0265
  884MOL0     H19327   1.796   7.953   5.949  1.0849 -0.1052 -0.6179
  884MOL0     H19328   1.922   7.599   6.045  1.2421  1.7464 -1.0804
  884MOL0     H19329   2.121   7.439   6.152  1.5284 -0.8638 -0.1250
  884MOL0     H19330   2.390   7.225   5.867  3.7680 -0.7909  0.1202
  884MOL0     H19331   2.406   7.399   5.901 -1.3505 -0.4130 -2.7783
  884MOL0     H19332   2.593   7.240   5.961  1.3984  1.9643  1.2892
  884MOL0     H19333   2.485   7.173   6.095 -2.2978  1.4390  0.8697
  884MOL0     H19334   2.621   7.440   6.073 -1.0146  1.9260  2.1811
  884MOL0     H19335   2.647   7.306   6.192  0.5986  0.1649  0.5917
  884MOL0     H19336   2.406   7.340   6.276 -0.0272  0.7951  0.8818
  884MOL0     H19337   2.402   7.494   6.177 -1.7655 -1.7294  0.5570
  884MOL0     H19338   2.647   7.591   6.509  1.9837  1.4993 -1.6702
  884MOL0     H19339   2.199   7.305   5.770  0.9380  1.5389 -0.4444
  884MOL0     H19340   2.022   7.444   5.666  0.6704  0.3351 -0.4939
  885MOL0     O19341   1.852   4.574  11.106 -0.6372  0.0987  0.0807
  885MOL0     C19342   1.946   4.524  11.041  0.0168  0.5287 -0.2274
  885MOL0     O19343   1.955   4.393  10.998  0.4424 -0.0452  0.5538
  885MOL0     C19344   1.849   4.313  10.975  0.0088  0.9087  0.3106
  885MOL0     C19345   1.867   4.174  10.994 -0.2426  0.6635 -0.1332
  885MOL0     C19346   1.766   4.074  10.979  0.7453  0.5097 -0.0600
  885MOL0     C19347   1.637   4.123  10.934  0.2947 -0.9002 -0.6548
  885MOL0     O19348   1.532   4.034  10.915 -0.8331 -0.6285  0.2978
  885MOL0     C19349   1.391   4.075  10.903 -0.5786  0.0223 -0.0489
  885MOL0     C19350   1.302   3.953  10.897 -1.4656  0.1930  0.1208
  885MOL0     C19351   1.159   3.976  10.845  0.8844  0.7441 -0.5646
  885MOL0     C19352   1.066   3.859  10.853 -0.0164  0.1604 -0.8731
  885MOL0     C19353   0.935   3.882  10.787 -0.3752 -0.1329  0.1043
  885MOL0     C19354   0.849   3.764  10.785  1.3473  0.1986 -0.0862
  885MOL0     C19355   0.711   3.813  10.744 -0.2838  0.2369  0.7065
  885MOL0     C19356   0.622   3.866  10.864 -0.4970 -0.2460 -0.6103
  885MOL0     N19357   0.492   3.899  10.806 -0.0697  0.1681  0.4699
  885MOL0     C19358   0.458   4.030  10.779 -0.2381  0.0124  0.7823
  885MOL0     C19359   0.326   4.034  10.793  1.0779 -0.6405  1.2411
  885MOL0     C19360   0.254   4.167  10.772 -0.1755  0.1773  0.6750
  885MOL0     C19361   0.195   4.179  10.636 -0.6255  0.5959 -0.4927
  885MOL0     C19362   0.150   4.324  10.609  0.2203 -0.8923 -0.1313
  885MOL0     C19363   0.108   4.360  10.465 -0.4237  0.2666 -0.1867
  885MOL0     O19364   0.021   4.475  10.473 -0.0600  0.3986  0.4342
  885MOL0     C19365  -0.014   4.540  10.348  0.1293 -0.2642  0.1153
  885MOL0     C19366  -0.119   4.494  10.275 -0.1160 -0.7261  0.2278
  885MOL0     C19367  -0.182   4.578  10.170 -0.0693 -0.9966 -0.2989
  885MOL0     C19368  -0.315   4.527  10.122 -0.9376 -0.2624  0.4307
  885MOL0     C19369  -0.111   4.693  10.123  0.1239  0.4091  0.2299
  885MOL0     C19370  -0.162   4.775  10.015 -0.5912  0.1029  0.5715
  885MOL0     O19371  -0.281   4.743   9.958  0.5374 -0.0239 -0.5578
  885MOL0     C19372  -0.346   4.824   9.866  0.2998 -1.0119  0.0194
  885MOL0     C19373  -0.382   4.963   9.879 -0.3183 -0.5410 -0.2065
  885MOL0     C19374  -0.443   5.035   9.779  0.2099 -0.3205 -0.3014
  885MOL0     C19375  -0.469   4.976   9.656  0.3908  0.2005  0.3660
  885MOL0     O19376  -0.538   5.054   9.568  0.1754 -0.5338  0.4229
  885MOL0     C19377  -0.506   5.027   9.436 -0.0096 -0.7937  0.6126
  885MOL0     C19378  -0.617   5.059   9.343  0.2441  0.4045 -0.0313
  885MOL0     C19379  -0.749   4.979   9.363 -0.2547  0.3418 -0.3089
  885MOL0     C19380  -0.839   5.009   9.248 -0.8300  0.1671 -0.0428
  885MOL0     C19381  -0.985   4.962   9.251  0.3213 -0.1156 -0.1657
  885MOL0     C19382  -0.991   4.814   9.294  0.1025  0.7067 -1.0055
  885MOL0     C19383  -1.098   4.732   9.216 -0.4027  0.8704  0.0492
  885MOL0     C19384  -1.238   4.758   9.274 -0.2844  0.4798  0.1347
  885MOL0    Cl19385  -1.271   4.669   9.432  0.3284 -0.5342  0.0682
  885MOL0     C19386  -0.457   4.828   9.649  0.5153 -0.0222  1.1817
  885MOL0     C19387  -0.392   4.761   9.751 -0.5804 -0.0060 -0.1355
  885MOL0     O19388  -0.091   4.874   9.987 -0.4920 -0.2135 -0.0142
  885MOL0     C19389  -0.001   4.736  10.206 -0.2948  0.1318  0.2730
  885MOL0     C19390   0.037   4.664  10.323 -0.5151  0.8262 -0.3203
  885MOL0     N19391   0.278   3.911  10.818  0.4777 -0.8778 -0.4306
  885MOL0     N19392   0.377   3.834  10.839  0.7178  0.7408  1.0488
  885MOL0     C19393   1.612   4.259  10.914 -0.4287  1.1949 -0.4610
  885MOL0     C19394   1.718   4.348  10.941 -0.0518  0.4357 -0.5555
  885MOL0     C19395   2.068   4.605  11.006  0.7697  0.1041  1.1704
  885MOL0     C19396   2.073   4.746  11.022 -0.1407  0.4615  0.4820
  885MOL0     C19397   2.168   4.829  10.966 -0.0553  0.0552 -0.1169
  885MOL0     C19398   2.281   4.766  10.903 -0.2072 -0.2904  0.0371
  885MOL0     O19399   2.385   4.832  10.839  0.2178  0.6808 -0.5289
  885MOL0     C19400   2.403   4.969  10.876 -0.7620 -0.1714 -1.7586
  885MOL0     C19401   2.494   5.048  10.791  0.1821 -0.2143  0.3321
  885MOL0     C19402   2.426   5.086  10.656 -0.7503  1.2109 -0.4372
  885MOL0     C19403   2.522   5.183  10.582  0.1184  0.1123 -0.2799
  885MOL0     C19404   2.645   5.105  10.554  0.3858  0.0258 -1.0474
  885MOL0     C19405   2.747   5.048  10.530 -0.3450  0.2739  0.3073
  885MOL0     C19406   2.290   4.632  10.900  0.2319 -0.0456  0.5961
  885MOL0     C19407   2.184   4.548  10.953  0.1574 -0.3285 -0.0153
  885MOL0     H19408   1.964   4.139  11.028 -1.1821 -1.3097  0.6926
  885MOL0     H19409   1.764   3.973  11.018 -0.9953  0.7075  0.4095
  885MOL0     H19410   1.352   4.137  10.984  2.2898  0.9167  0.7619
  885MOL0     H19411   1.380   4.128  10.808  0.8024  0.5713  0.0808
  885MOL0     H19412   1.349   3.882  10.827 -1.0427 -1.7944  2.2815
  885MOL0     H19413   1.310   3.912  10.998  1.2175  1.0222  0.3182
  885MOL0     H19414   1.121   4.045  10.922  2.2693 -0.7604  1.6011
  885MOL0     H19415   1.152   4.017  10.744  0.9997 -1.1325 -1.3742
  885MOL0     H19416   1.117   3.773  10.808 -1.9665 -1.6688  0.1949
  885MOL0     H19417   1.057   3.827  10.957  1.2171 -1.2196 -1.1593
  885MOL0     H19418   0.888   3.970  10.831  1.1530  2.4496 -2.9807
  885MOL0     H19419   0.949   3.916  10.684 -3.0563  0.9108  0.0074
  885MOL0     H19420   0.874   3.694  10.705  2.4014  2.0055 -1.4182
  885MOL0     H19421   0.847   3.714  10.882  1.0290  1.3196  0.5017
  885MOL0     H19422   0.726   3.893  10.671  0.1438 -0.7209 -0.2784
  885MOL0     H19423   0.672   3.729  10.686 -0.1337 -0.0340  0.9971
  885MOL0     H19424   0.676   3.951  10.907  1.2775 -1.2931 -0.7015
  885MOL0     H19425   0.615   3.783  10.935 -0.9410  0.3943  0.1049
  885MOL0     H19426   0.527   4.114  10.767  0.9056 -0.4669  3.3220
  885MOL0     H19427   0.185   4.197  10.852 -0.5322  1.1959  0.0068
  885MOL0     H19428   0.331   4.243  10.781  0.6301 -0.4846 -0.3791
  885MOL0     H19429   0.111   4.109  10.636  1.6144 -2.2658 -0.8294
  885MOL0     H19430   0.268   4.161  10.556  1.7962 -0.0262  1.7320
  885MOL0     H19431   0.238   4.386  10.630 -1.2463  1.2080  0.0556
  885MOL0     H19432   0.064   4.354  10.669  0.2549  3.0504 -1.7708
  885MOL0     H19433   0.059   4.276  10.414 -0.5085  0.1204  0.1366
  885MOL0     H19434   0.196   4.406  10.420 -0.5073  1.2129  0.5777
  885MOL0     H19435  -0.173   4.407  10.310 -1.6489 -0.5422 -1.5256
  885MOL0     H19436  -0.375   4.457  10.180  0.1147 -1.8052 -0.2802
  885MOL0     H19437  -0.377   4.617  10.121  3.0915  2.8499 -2.3164
  885MOL0     H19438  -0.303   4.485  10.021 -1.3315 -0.7904  0.5972
  885MOL0     H19439  -0.370   5.000   9.981  1.0320 -1.9672  0.2003
  885MOL0     H19440  -0.475   5.135   9.803 -0.4644  0.4916 -3.9713
  885MOL0     H19441  -0.421   5.090   9.408 -1.3682 -0.0816 -2.1969
  885MOL0     H19442  -0.464   4.926   9.424  0.3136 -0.4627 -1.3166
  885MOL0     H19443  -0.646   5.164   9.355 -1.1749  0.0978 -0.5656
  885MOL0     H19444  -0.581   5.049   9.240 -0.4649  5.3228 -1.0311
  885MOL0     H19445  -0.801   5.019   9.451 -1.0659  0.4151 -0.8087
  885MOL0     H19446  -0.724   4.874   9.383  3.7278  0.7461 -2.3142
  885MOL0     H19447  -0.837   5.116   9.229 -0.0838  0.7294  2.8325
  885MOL0     H19448  -0.793   4.966   9.158 -0.7031  3.0187 -1.4561
  885MOL0     H19449  -1.032   4.975   9.153 -0.8215 -0.8033  0.2703
  885MOL0     H19450  -1.037   5.013   9.332  1.4075 -2.3135  2.0699
  885MOL0     H19451  -0.892   4.774   9.275 -0.5102 -2.7289  1.9584
  885MOL0     H19452  -0.998   4.796   9.402  1.7269 -3.6708 -1.4269
  885MOL0     H19453  -1.087   4.624   9.233 -0.4034  0.9414  0.5303
  885MOL0     H19454  -1.109   4.767   9.113 -2.1119  1.0717  0.2665
  885MOL0     H19455  -1.312   4.713   9.207 -0.5351 -0.1754  0.8330
  885MOL0     H19456  -1.267   4.860   9.298 -1.9929  0.1963 -0.5436
  885MOL0     H19457  -0.492   4.768   9.566  0.9821  4.1947 -2.4462
  885MOL0     H19458  -0.373   4.655   9.743 -0.7922 -0.2685  2.0862
  885MOL0     H19459   0.060   4.825  10.194  2.4044 -1.9139 -2.9816
  885MOL0     H19460   0.119   4.694  10.388 -1.2388 -0.1451  1.0907
  885MOL0     H19461   1.513   4.295  10.885 -1.3334 -2.0234 -1.7505
  885MOL0     H19462   1.697   4.454  10.933  1.1200  0.7783  0.5185
  885MOL0     H19463   1.983   4.788  11.066  0.3260  0.4115  1.5173
  885MOL0     H19464   2.151   4.935  10.958  2.2361  0.6899  2.0139
  885MOL0     H19465   2.310   5.026  10.870 -1.8069 -1.7533 -1.3963
  885MOL0     H19466   2.448   4.969  10.975  1.0139 -0.4472 -2.5371
  885MOL0     H19467   2.588   4.993  10.798 -0.2158 -1.3919 -2.2164
  885MOL0     H19468   2.517   5.147  10.831 -2.1080  0.8548 -0.7904
  885MOL0     H19469   2.329   5.136  10.661 -1.9818 -1.1089  1.9922
  885MOL0     H19470   2.412   4.989  10.608  0.5206  0.8192 -0.0799
  885MOL0     H19471   2.536   5.259  10.660  1.0486 -1.3762  1.0637
  885MOL0     H19472   2.482   5.215  10.485 -1.6785 -0.1071  0.3498
  885MOL0     H19473   2.840   4.997  10.518 -1.4843 -1.8805  0.1060
  885MOL0     H19474   2.378   4.588  10.854 -0.2563  1.0987 -1.5459
  885MOL0     H19475   2.209   4.443  10.943 -0.3342 -0.5469  0.8822
  886MOL0     O19476   4.656   8.899   6.353  0.5666  0.0326  0.6903
  886MOL0     C19477   4.601   8.975   6.267  0.2759  0.0091  0.5249
  886MOL0     O19478   4.664   9.058   6.181  0.0052 -0.7200  0.2517
  886MOL0     C19479   4.795   9.069   6.191  0.0516  1.4689 -0.0434
  886MOL0     C19480   4.848   9.199   6.203  0.1354  1.0974  0.0277
  886MOL0     C19481   4.985   9.215   6.187 -0.5712 -1.0065 -0.4054
  886MOL0     C19482   5.070   9.113   6.155 -1.0437 -0.3040  0.6133
  886MOL0     O19483   5.200   9.148   6.145 -0.4033 -0.3143 -0.0886
  886MOL0     C19484   5.298   9.042   6.173  0.1307  0.9668  0.0629
  886MOL0     C19485   5.434   9.105   6.180  0.1958  0.5598  0.6502
  886MOL0     C19486   5.548   9.005   6.162  0.3288 -0.2486 -0.8155
  886MOL0     C19487   5.689   9.065   6.145  0.9377  0.4038  0.3787
  886MOL0     C19488   5.746   9.082   6.280 -0.1955  0.3001 -0.3273
  886MOL0     C19489   5.885   9.147   6.288 -0.1473  0.4475 -0.5200
  886MOL0     C19490   5.924   9.191   6.425  0.3698 -0.3030 -0.7432
  886MOL0     C19491   5.932   9.078   6.532  0.4284  0.1510  0.5002
  886MOL0     N19492   5.974   9.127   6.669 -0.6652  0.1345 -0.2919
  886MOL0     C19493   5.897   9.207   6.747  0.3799  0.6741 -0.5131
  886MOL0     C19494   5.967   9.225   6.863  0.2403 -1.0632  0.2362
  886MOL0     C19495   5.942   9.306   6.986 -0.3088  0.2531 -0.5916
  886MOL0     C19496   5.896   9.222   7.104 -0.0199 -0.0177  0.0843
  886MOL0     C19497   5.986   9.100   7.143  0.0059  0.1217 -0.1340
  886MOL0     C19498   6.144   9.132   7.167 -0.1433  0.9103  0.7644
  886MOL0     O19499   6.140   9.197   7.294  0.5510  0.0000  0.0260
  886MOL0     C19500   6.248   9.181   7.377 -0.0531 -0.1909  0.2223
  886MOL0     C19501   6.221   9.171   7.517 -0.6217 -0.1603  0.3959
  886MOL0     C19502   6.318   9.150   7.614 -0.2288 -0.8722 -1.2363
  886MOL0     C19503   6.267   9.130   7.759  0.2706  0.7955 -0.2231
  886MOL0     C19504   6.453   9.137   7.571  0.4956  0.2925 -0.7769
  886MOL0     C19505   6.571   9.114   7.653 -0.5616 -0.7125 -0.0600
  886MOL0     O19506   6.699   9.106   7.606 -0.0139 -0.4655 -0.5550
  886MOL0     C19507   6.786   9.089   7.706 -0.3241 -0.2617  0.2204
  886MOL0     C19508   6.856   8.969   7.715 -0.1219  0.5327  0.5018
  886MOL0     C19509   6.939   8.934   7.820  0.8327  0.4739  0.8192
  886MOL0     C19510   6.965   9.033   7.914 -0.1632 -1.2455 -0.0984
  886MOL0     O19511   7.057   9.022   8.020 -0.2913  1.3559  0.5135
  886MOL0     C19512   7.143   8.909   8.034 -0.3530 -0.0901  0.7580
  886MOL0     C19513   7.191   8.864   8.173  0.3787 -0.1166 -0.9671
  886MOL0     C19514   7.068   8.839   8.272  0.3530  0.3771 -0.0917
  886MOL0     C19515   6.989   8.714   8.224 -0.7362  0.0940 -0.1739
  886MOL0     C19516   6.863   8.681   8.308 -0.4196  0.4729  0.4640
  886MOL0     C19517   6.805   8.543   8.275 -0.0003 -0.1711 -0.0632
  886MOL0     C19518   6.705   8.501   8.385  0.7151 -0.1404  0.0767
  886MOL0     C19519   6.629   8.377   8.345  0.4433 -0.6548  0.1372
  886MOL0    Cl19520   6.518   8.423   8.223 -0.6032  0.3352 -0.5070
  886MOL0     C19521   6.914   9.159   7.899 -0.2039 -0.9411 -0.0129
  886MOL0     C19522   6.821   9.197   7.793  0.2116  1.0648  0.1004
  886MOL0     O19523   6.540   9.096   7.776  0.8869 -0.0752  0.0941
  886MOL0     C19524   6.477   9.126   7.429  0.0079  0.1090 -0.7485
  886MOL0     C19525   6.376   9.156   7.335  0.3408  0.3504 -0.1572
  886MOL0     N19526   6.074   9.151   6.859  0.4133  1.2514  0.1636
  886MOL0     N19527   6.092   9.104   6.740  0.0916 -0.0794  0.7936
  886MOL0     C19528   5.019   8.984   6.147 -0.5924  0.3376  0.2462
  886MOL0     C19529   4.882   8.956   6.162  1.0341  0.0605 -0.7542
  886MOL0     C19530   4.455   8.960   6.242  0.0868  0.7167  0.2819
  886MOL0     C19531   4.401   9.004   6.117 -0.4903 -0.8294 -0.2858
  886MOL0     C19532   4.269   8.980   6.084  0.1819  0.4607 -0.6736
  886MOL0     C19533   4.180   8.912   6.170  0.1192 -1.3042  0.6781
  886MOL0     O19534   4.069   8.872   6.115  0.2989  0.5983  0.2648
  886MOL0     C19535   3.947   8.867   6.195  0.5580 -0.9891 -0.1714
  886MOL0     C19536   3.884   9.000   6.223 -0.4956 -0.7062  0.0217
  886MOL0     C19537   3.770   9.034   6.110 -0.3995 -0.1066 -0.5809
  886MOL0     C19538   3.689   9.151   6.147  0.3992 -0.4595 -0.7804
  886MOL0     C19539   3.597   9.188   6.039  0.4750  0.2207  0.5349
  886MOL0     C19540   3.510   9.213   5.955  0.3663  0.3921 -0.1412
  886MOL0     C19541   4.235   8.861   6.293 -0.5943 -0.4265  0.0162
  886MOL0     C19542   4.374   8.886   6.324  0.8244  0.3682  1.3392
  886MOL0     H19543   4.771   9.273   6.221 -2.0033 -0.3158 -2.5772
  886MOL0     H19544   5.034   9.312   6.197  0.6017 -1.6202  0.0418
  886MOL0     H19545   5.258   9.003   6.267 -0.6974  0.5079 -0.4669
  886MOL0     H19546   5.298   8.962   6.098 -1.6764 -0.0095  1.0430
  886MOL0     H19547   5.430   9.175   6.096 -2.8879  0.9003  0.9965
  886MOL0     H19548   5.452   9.148   6.279  0.3438 -2.3346  1.9912
  886MOL0     H19549   5.554   8.938   6.248  1.3794  2.3898  1.2967
  886MOL0     H19550   5.540   8.943   6.072 -0.6606  0.5720 -1.3100
  886MOL0     H19551   5.746   8.995   6.083 -1.6351 -1.3671 -0.1332
  886MOL0     H19552   5.679   9.162   6.095 -2.1532 -0.2428 -0.4640
  886MOL0     H19553   5.677   9.144   6.338  0.8372  0.6855  0.5364
  886MOL0     H19554   5.749   8.984   6.327 -0.0695 -1.0697 -3.0021
  886MOL0     H19555   5.960   9.078   6.249 -3.0583 -3.5030  0.2491
  886MOL0     H19556   5.883   9.236   6.224 -1.9808 -0.3853 -1.6944
  886MOL0     H19557   6.015   9.251   6.434 -0.0012  0.0881  0.5687
  886MOL0     H19558   5.843   9.262   6.443  1.2023  0.1983  1.2131
  886MOL0     H19559   6.008   9.008   6.497  2.3430  1.6399  1.4812
  886MOL0     H19560   5.830   9.041   6.547  0.8250 -0.4668  1.8893
  886MOL0     H19561   5.796   9.241   6.729 -0.6631 -1.9572 -0.1152
  886MOL0     H19562   6.035   9.358   7.011  0.1841  0.1832 -2.1892
  886MOL0     H19563   5.864   9.380   6.970  0.5041  1.4259  0.6724
  886MOL0     H19564   5.804   9.179   7.063 -1.3326  2.0869  0.6264
  886MOL0     H19565   5.881   9.300   7.179  1.7963  1.4280 -0.9525
  886MOL0     H19566   5.982   9.031   7.058 -0.1997  2.3688 -2.0895
  886MOL0     H19567   5.938   9.058   7.231  1.1616 -0.5195  0.2031
  886MOL0     H19568   6.190   9.190   7.086  0.7184 -0.7659 -0.0075
  886MOL0     H19569   6.201   9.038   7.169  1.5021  1.8490  0.1105
  886MOL0     H19570   6.116   9.174   7.544 -0.5283  3.2646  0.8048
  886MOL0     H19571   6.290   9.028   7.790  2.3259  0.2270 -3.1518
  886MOL0     H19572   6.315   9.207   7.820 -1.0656  1.8800 -0.4742
  886MOL0     H19573   6.160   9.144   7.777  0.5751 -0.6397  3.6364
  886MOL0     H19574   6.850   8.899   7.632  0.5323 -0.2909  1.1353
  886MOL0     H19575   6.979   8.833   7.823  0.8785  0.4965  0.9619
  886MOL0     H19576   7.117   8.814   7.986  0.2519  1.2032 -2.3547
  886MOL0     H19577   7.236   8.935   7.982 -0.6948  0.3113  0.3375
  886MOL0     H19578   7.260   8.780   8.164 -1.5295 -1.7198 -1.4991
  886MOL0     H19579   7.256   8.944   8.209  0.5465 -0.1130 -1.2758
  886MOL0     H19580   7.011   8.932   8.281  0.2240  0.1557  2.0114
  886MOL0     H19581   7.104   8.813   8.373 -2.6158  1.1352  1.2725
  886MOL0     H19582   6.962   8.715   8.118 -2.1811  0.0023  0.1694
  886MOL0     H19583   7.063   8.635   8.234 -1.5983 -0.4734  2.6397
  886MOL0     H19584   6.790   8.760   8.287 -1.5456 -0.7347 -0.3223
  886MOL0     H19585   6.888   8.693   8.413 -1.5035 -1.2921  0.9744
  886MOL0     H19586   6.767   8.534   8.173  1.3382 -2.0914 -0.4624
  886MOL0     H19587   6.890   8.473   8.281  1.0330  1.0391 -0.1233
  886MOL0     H19588   6.646   8.591   8.406 -0.3459 -0.7602 -0.2023
  886MOL0     H19589   6.765   8.484   8.476  2.9588 -0.9828 -1.4608
  886MOL0     H19590   6.573   8.333   8.429  0.6961  1.1584  1.2998
  886MOL0     H19591   6.688   8.298   8.298 -1.3997 -0.8729 -1.9842
  886MOL0     H19592   6.947   9.240   7.963 -1.9727 -0.9541  0.9974
  886MOL0     H19593   6.767   9.290   7.783 -1.2786  0.2285 -0.0616
  886MOL0     H19594   6.573   9.096   7.387  1.0414 -0.8083  2.0213
  886MOL0     H19595   6.390   9.152   7.228 -0.7385  1.3726 -0.3601
  886MOL0     H19596   5.075   8.893   6.128 -0.5340  0.7391 -1.8251
  886MOL0     H19597   4.841   8.858   6.137 -1.0999  0.8805 -0.6961
  886MOL0     H19598   4.460   9.068   6.052 -2.4510  1.2054 -0.1878
  886MOL0     H19599   4.226   9.026   5.996  1.3305  0.7570 -1.0964
  886MOL0     H19600   3.876   8.803   6.143 -2.1660 -0.6230  2.7722
  886MOL0     H19601   3.967   8.816   6.290 -0.4917  1.3261  1.3801
  886MOL0     H19602   3.958   9.081   6.230 -3.4390  2.0331  2.7653
  886MOL0     H19603   3.831   9.000   6.319 -0.5124 -1.2588  0.0109
  886MOL0     H19604   3.702   8.949   6.102 -0.3322 -0.2279  0.0692
  886MOL0     H19605   3.824   9.056   6.018  0.1750 -2.1284 -0.7659
  886MOL0     H19606   3.761   9.232   6.164  0.6478  0.0036 -3.6665
  886MOL0     H19607   3.633   9.129   6.239 -0.1898  1.9405 -0.4814
  886MOL0     H19608   3.441   9.235   5.875  2.9223  5.0675 -1.4605
  886MOL0     H19609   4.178   8.795   6.359 -1.4217 -1.3559 -1.5737
  886MOL0     H19610   4.418   8.844   6.413 -1.4870 -0.9066  1.9827
  887MOL0     O19611   2.328   3.406   6.512 -0.3512  0.2609  0.4497
  887MOL0     C19612   2.413   3.430   6.426 -0.3158  0.0556  0.6933
  887MOL0     O19613   2.395   3.406   6.297  0.4493  0.0244 -0.0310
  887MOL0     C19614   2.274   3.357   6.237  0.9874 -0.2383 -0.7584
  887MOL0     C19615   2.154   3.421   6.250 -0.7309 -0.0701  0.0438
  887MOL0     C19616   2.036   3.379   6.190 -0.8574  0.2381  0.0622
  887MOL0     C19617   2.032   3.257   6.121  0.7154  0.3768 -0.5409
  887MOL0     O19618   1.913   3.200   6.081 -0.6906  0.2535  0.3178
  887MOL0     C19619   1.901   3.232   5.941  0.1327  0.4944 -0.3762
  887MOL0     C19620   1.769   3.192   5.880  0.2721  0.5186 -0.1077
  887MOL0     C19621   1.650   3.269   5.941  0.1176 -0.1753 -0.1070
  887MOL0     C19622   1.513   3.201   5.930 -1.0437 -1.0619  0.1116
  887MOL0     C19623   1.481   3.125   6.059  0.1898  0.3981  0.8773
  887MOL0     C19624   1.366   3.027   6.059  0.7082 -0.3130  0.4079
  887MOL0     C19625   1.238   3.098   6.008 -0.4601  0.7519 -0.2991
  887MOL0     C19626   1.108   3.038   6.075 -0.8640  0.0796  0.2848
  887MOL0     N19627   1.092   2.902   6.030  0.8519  0.3997  0.1157
  887MOL0     C19628   1.049   2.872   5.897 -0.2996  0.2887 -0.7437
  887MOL0     C19629   1.052   2.736   5.898  0.2163  0.4704  0.3546
  887MOL0     C19630   1.033   2.654   5.768 -0.2375  0.0905  0.3407
  887MOL0     C19631   1.114   2.532   5.777 -0.7411 -0.3518  0.6608
  887MOL0     C19632   1.269   2.568   5.780 -0.1548  0.1331 -0.2363
  887MOL0     C19633   1.355   2.453   5.835  0.3067  0.2303 -0.0528
  887MOL0     O19634   1.494   2.490   5.840 -0.1084 -0.2108 -0.7606
  887MOL0     C19635   1.548   2.548   5.954 -0.0998 -0.7768 -0.4164
  887MOL0     C19636   1.476   2.575   6.078 -0.0873 -0.3001 -0.7298
  887MOL0     C19637   1.535   2.639   6.189  0.1888 -0.2599  0.3481
  887MOL0     C19638   1.437   2.694   6.290 -0.1481  0.1017 -1.3285
  887MOL0     C19639   1.679   2.657   6.190  0.5035 -0.1400  0.2002
  887MOL0     C19640   1.764   2.709   6.303  0.3007 -0.1451  0.4712
  887MOL0     O19641   1.893   2.743   6.262 -0.7543  0.3091 -0.2310
  887MOL0     C19642   1.969   2.780   6.372  1.1154 -0.2706 -0.2518
  887MOL0     C19643   2.007   2.693   6.482  1.4640 -0.9224 -0.6379
  887MOL0     C19644   2.085   2.750   6.585 -0.4299 -0.4172 -0.7767
  887MOL0     C19645   2.113   2.889   6.586 -0.4923 -0.6321 -0.9497
  887MOL0     O19646   2.177   2.947   6.695 -0.2892  0.7459  0.0167
  887MOL0     C19647   2.154   3.082   6.733 -0.5710 -0.4173  0.0063
  887MOL0     C19648   2.203   3.099   6.880 -0.1432  0.3244 -0.0199
  887MOL0     C19649   2.346   3.078   6.895 -0.5966 -0.5179  0.3634
  887MOL0     C19650   2.436   3.189   6.826 -0.2045 -0.7766  0.0915
  887MOL0     C19651   2.589   3.151   6.843  0.4882  1.1693  0.4891
  887MOL0     C19652   2.682   3.257   6.781  0.0824 -0.3989  0.5332
  887MOL0     C19653   2.823   3.212   6.820  0.4910  0.5326  0.2366
  887MOL0     C19654   2.931   3.303   6.757 -0.1658  1.0251 -0.1822
  887MOL0    Cl19655   3.083   3.223   6.790  0.2174 -0.3260 -0.1421
  887MOL0     C19656   2.077   2.976   6.476  0.0584 -0.0923  0.1527
  887MOL0     C19657   2.004   2.917   6.367  0.1268 -0.5308 -0.6140
  887MOL0     O19658   1.713   2.739   6.415  0.5855 -0.1961  0.0598
  887MOL0     C19659   1.751   2.627   6.069 -0.2679 -0.1041 -0.3851
  887MOL0     C19660   1.684   2.582   5.951 -0.0129  0.9733  0.2171
  887MOL0     N19661   1.081   2.692   6.027  1.3350 -0.0040  1.0235
  887MOL0     N19662   1.103   2.795   6.101  0.5682 -0.2940 -0.6879
  887MOL0     C19663   2.159   3.197   6.104  0.8647  1.3183 -0.1188
  887MOL0     C19664   2.274   3.242   6.161 -0.5359  0.7323 -0.1026
  887MOL0     C19665   2.547   3.480   6.467 -0.5707 -0.1139 -1.1766
  887MOL0     C19666   2.658   3.502   6.397 -0.6638  0.5639  0.6802
  887MOL0     C19667   2.775   3.569   6.449  0.1399 -0.0396 -0.3253
  887MOL0     C19668   2.788   3.603   6.589 -0.2403 -0.3399 -0.5289
  887MOL0     O19669   2.896   3.662   6.652  0.4528 -0.8367 -0.3732
  887MOL0     C19670   3.020   3.672   6.580 -0.3652  0.3706 -0.2704
  887MOL0     C19671   3.015   3.793   6.500 -0.2897 -0.4570  0.3897
  887MOL0     C19672   3.160   3.810   6.444 -0.9931 -0.3535  1.5444
  887MOL0     C19673   3.156   3.935   6.353  1.0837  0.4890 -0.3512
  887MOL0     C19674   3.145   4.066   6.428  0.0660  0.2024  0.3002
  887MOL0     C19675   3.140   4.170   6.491  0.3955  0.4934  0.3748
  887MOL0     C19676   2.675   3.570   6.670 -0.7868  0.9722  0.9667
  887MOL0     C19677   2.560   3.507   6.610 -0.6444 -0.5863 -0.0211
  887MOL0     H19678   2.145   3.512   6.308 -0.5797  1.9739 -2.9508
  887MOL0     H19679   1.940   3.428   6.202 -0.1560  2.5496 -2.7615
  887MOL0     H19680   1.930   3.336   5.928  0.6468  0.2897 -0.9131
  887MOL0     H19681   1.966   3.166   5.883 -0.7357 -0.8182  0.0752
  887MOL0     H19682   1.784   3.196   5.772 -2.1081  0.2923 -0.4824
  887MOL0     H19683   1.762   3.084   5.893  0.7817 -0.0068 -3.3085
  887MOL0     H19684   1.678   3.301   6.042  1.6564 -2.3178  0.2063
  887MOL0     H19685   1.643   3.361   5.883  4.1179 -1.6308 -3.3415
  887MOL0     H19686   1.441   3.283   5.922 -0.8691 -0.7120  1.8078
  887MOL0     H19687   1.503   3.131   5.847  0.3792 -1.2898  0.1078
  887MOL0     H19688   1.568   3.067   6.092  0.3485  1.1339  1.8235
  887MOL0     H19689   1.477   3.205   6.135  2.4562  2.5783 -1.1020
  887MOL0     H19690   1.394   2.946   5.992 -1.6278  1.0704 -2.5015
  887MOL0     H19691   1.353   2.993   6.163  0.7902  0.6383  0.7361
  887MOL0     H19692   1.244   3.204   6.032  1.2225  0.4991  0.5216
  887MOL0     H19693   1.229   3.073   5.902 -1.0902  0.9264 -0.2894
  887MOL0     H19694   1.022   3.097   6.044  0.5125 -0.2123 -4.9981
  887MOL0     H19695   1.110   3.060   6.182 -1.6773  1.4668  0.0357
  887MOL0     H19696   1.034   2.941   5.814  1.2178  0.6295 -0.7827
  887MOL0     H19697   0.930   2.617   5.769  0.1584 -1.0434  0.7693
  887MOL0     H19698   1.052   2.701   5.671 -0.0697 -2.5764 -1.0110
  887MOL0     H19699   1.100   2.477   5.684 -0.2773  0.8460 -0.1433
  887MOL0     H19700   1.080   2.470   5.860 -1.3408 -0.6873  0.1694
  887MOL0     H19701   1.285   2.663   5.833  2.5780 -1.0686  1.3247
  887MOL0     H19702   1.304   2.582   5.677 -0.0222  1.5053 -0.0202
  887MOL0     H19703   1.352   2.363   5.773 -1.5249 -1.1361  1.8569
  887MOL0     H19704   1.302   2.410   5.920  0.6557 -3.0550 -1.3635
  887MOL0     H19705   1.369   2.557   6.083 -0.0698 -0.3795 -0.6336
  887MOL0     H19706   1.333   2.672   6.266 -0.2089  0.5656 -1.5026
  887MOL0     H19707   1.457   2.650   6.388 -0.6113  0.9609 -0.8370
  887MOL0     H19708   1.447   2.801   6.310 -3.7616  0.2282  0.5917
  887MOL0     H19709   1.972   2.590   6.481 -2.3947  0.1786  0.6227
  887MOL0     H19710   2.105   2.685   6.669 -2.7331 -0.3342 -0.1116
  887MOL0     H19711   2.208   3.152   6.668 -0.9480  0.4464  0.6067
  887MOL0     H19712   2.049   3.111   6.736 -0.2920  0.5881  1.4124
  887MOL0     H19713   2.165   3.190   6.929 -0.6971 -0.7780  1.6860
  887MOL0     H19714   2.163   3.018   6.941  1.0953  0.7913  1.4602
  887MOL0     H19715   2.370   2.979   6.857 -0.1840 -1.3122  2.5277
  887MOL0     H19716   2.372   3.062   7.000  2.7511 -1.5734 -0.4888
  887MOL0     H19717   2.416   3.197   6.718 -0.5461  0.3814  0.2294
  887MOL0     H19718   2.410   3.283   6.875 -1.7354 -2.5436  2.8913
  887MOL0     H19719   2.606   3.052   6.800 -2.3231  1.3184 -1.1626
  887MOL0     H19720   2.601   3.144   6.952 -0.8147  0.2245  0.5968
  887MOL0     H19721   2.667   3.262   6.672 -2.0719 -0.3861  0.7891
  887MOL0     H19722   2.668   3.355   6.828  1.3381  2.7252 -4.7438
  887MOL0     H19723   2.849   3.118   6.770  3.2279  0.7075  1.1833
  887MOL0     H19724   2.842   3.204   6.928 -0.1005 -0.7212  0.2606
  887MOL0     H19725   2.939   3.407   6.792  1.7082  0.9953 -0.3941
  887MOL0     H19726   2.923   3.285   6.649 -0.7733  1.3743 -0.1996
  887MOL0     H19727   2.103   3.081   6.483  2.5427 -0.6244 -0.3041
  887MOL0     H19728   1.963   2.975   6.284  0.0975  1.0502  0.4543
  887MOL0     H19729   1.856   2.652   6.056 -0.0043 -0.2132  1.3500
  887MOL0     H19730   1.743   2.555   5.864 -3.6275 -2.9236 -1.3624
  887MOL0     H19731   2.160   3.102   6.050  2.9332  1.8955 -1.1676
  887MOL0     H19732   2.360   3.177   6.148  0.3642  1.8060  0.3071
  887MOL0     H19733   2.655   3.473   6.292 -0.0535 -1.1149  1.0893
  887MOL0     H19734   2.848   3.585   6.370  0.9679  0.2476  0.4782
  887MOL0     H19735   3.100   3.683   6.654  0.2847  0.4553 -0.9755
  887MOL0     H19736   3.038   3.582   6.521 -0.1526  0.3846 -0.2268
  887MOL0     H19737   2.969   3.879   6.550 -1.4433  0.4024 -1.9706
  887MOL0     H19738   2.948   3.787   6.414  1.1601 -1.1030 -0.7424
  887MOL0     H19739   3.180   3.719   6.387  2.9822  0.9325  0.6228
  887MOL0     H19740   3.240   3.813   6.518 -0.5968 -2.9546  1.3143
  887MOL0     H19741   3.071   3.928   6.284  0.7115 -0.6675  0.1927
  887MOL0     H19742   3.244   3.939   6.289  1.3652  1.1391  0.0621
  887MOL0     H19743   3.140   4.273   6.522  1.0046  0.4747  0.4498
  887MOL0     H19744   2.675   3.606   6.772 -0.3243  0.6244  1.0938
  887MOL0     H19745   2.473   3.496   6.674 -0.4154 -2.0960  0.0761
  888MOL0     O19746   3.060   5.981   3.443 -0.3417  0.2401 -0.0773
  888MOL0     C19747   2.943   5.979   3.487  0.2846  0.3000  1.0257
  888MOL0     O19748   2.899   5.902   3.584 -0.1779 -0.0090 -0.0954
  888MOL0     C19749   2.995   5.827   3.651  0.9963  0.6213 -0.5117
  888MOL0     C19750   3.006   5.853   3.791 -0.2796 -0.6257 -0.0756
  888MOL0     C19751   3.086   5.770   3.868 -0.4071  0.6694  0.0506
  888MOL0     C19752   3.150   5.661   3.810  1.0300  0.3271 -0.3017
  888MOL0     O19753   3.234   5.573   3.872 -1.0167  0.0147 -0.0501
  888MOL0     C19754   3.219   5.551   4.009 -0.8391 -0.3894 -0.2283
  888MOL0     C19755   3.307   5.636   4.097  0.4704  0.0468  0.0803
  888MOL0     C19756   3.448   5.566   4.114 -1.0042  0.1267 -0.3206
  888MOL0     C19757   3.528   5.643   4.224  0.0082  0.7712  0.5545
  888MOL0     C19758   3.681   5.610   4.216  0.7142  0.9249 -0.2446
  888MOL0     C19759   3.754   5.684   4.317 -0.1274  0.5550  0.0168
  888MOL0     C19760   3.899   5.623   4.309 -0.4855  0.6110  0.1133
  888MOL0     C19761   4.002   5.704   4.388  0.3489  0.6399 -0.4269
  888MOL0     N19762   4.041   5.836   4.345 -0.4246 -1.3557 -0.8413
  888MOL0     C19763   4.017   5.881   4.219  0.1817 -1.3273  0.3731
  888MOL0     C19764   4.068   6.012   4.219  0.3907  0.3025 -0.1279
  888MOL0     C19765   4.098   6.107   4.102 -0.0078 -0.1909  0.0647
  888MOL0     C19766   3.978   6.123   4.024  0.5672  0.3783  0.1062
  888MOL0     C19767   4.010   6.209   3.912  0.3463 -0.2756 -0.1193
  888MOL0     C19768   3.886   6.271   3.851  0.1924 -0.3711  0.1737
  888MOL0     O19769   3.810   6.169   3.780 -0.0226 -0.5144  0.0406
  888MOL0     C19770   3.696   6.205   3.720 -0.4724  0.0471  0.5668
  888MOL0     C19771   3.618   6.314   3.777  0.4952 -0.5942 -0.3194
  888MOL0     C19772   3.511   6.364   3.712 -0.1678 -0.3373 -0.9596
  888MOL0     C19773   3.420   6.464   3.783  0.5708  0.8568 -1.4120
  888MOL0     C19774   3.476   6.323   3.587 -0.1183  0.8193  0.4420
  888MOL0     C19775   3.367   6.379   3.499  0.4832 -0.2469 -0.1347
  888MOL0     O19776   3.330   6.301   3.401 -0.5708  0.0538 -0.3525
  888MOL0     C19777   3.297   6.364   3.279  0.5598 -0.2036 -0.1425
  888MOL0     C19778   3.166   6.360   3.227 -0.0764 -0.7208 -0.8960
  888MOL0     C19779   3.147   6.420   3.103 -0.1512  0.5603 -0.5710
  888MOL0     C19780   3.255   6.463   3.024  0.0146 -0.7473  0.3670
  888MOL0     O19781   3.209   6.505   2.901 -0.6533 -0.4194 -0.1546
  888MOL0     C19782   3.279   6.614   2.838  0.8281  1.1887 -0.5040
  888MOL0     C19783   3.204   6.626   2.700 -0.4088 -0.1419 -0.3742
  888MOL0     C19784   3.243   6.716   2.593 -0.2570 -0.4955  0.3602
  888MOL0     C19785   3.400   6.727   2.589  0.1195 -0.8259  0.6037
  888MOL0     C19786   3.452   6.807   2.468 -0.4229  0.7203  0.5164
  888MOL0     C19787   3.446   6.723   2.338 -0.2068  0.0468 -0.1782
  888MOL0     C19788   3.512   6.810   2.225 -0.3091  0.3938 -0.4518
  888MOL0     C19789   3.422   6.919   2.180  0.0627  0.1284  1.4918
  888MOL0    Cl19790   3.492   6.997   2.032  0.2715 -0.0126 -0.1005
  888MOL0     C19791   3.382   6.479   3.085 -0.3229  0.0213  0.3871
  888MOL0     C19792   3.404   6.420   3.208  0.0637 -0.4258 -0.3127
  888MOL0     O19793   3.334   6.497   3.513 -0.4312  0.7548 -0.2543
  888MOL0     C19794   3.547   6.209   3.539 -1.1053 -0.3043  0.3184
  888MOL0     C19795   3.666   6.160   3.599  0.2194 -0.1137  0.3755
  888MOL0     N19796   4.113   6.039   4.349  0.2452  0.2032 -0.2686
  888MOL0     N19797   4.091   5.934   4.423  0.7010  0.7046  0.3400
  888MOL0     C19798   3.131   5.636   3.673 -0.0475  0.7996 -0.2195
  888MOL0     C19799   3.054   5.718   3.592  0.1466 -0.3246  0.0211
  888MOL0     C19800   2.844   6.073   3.430  0.0449 -0.2589  0.3238
  888MOL0     C19801   2.872   6.135   3.304  0.6196  0.3077 -0.2041
  888MOL0     C19802   2.781   6.234   3.249 -0.2815 -0.2860 -0.1538
  888MOL0     C19803   2.663   6.267   3.316  0.3011 -0.3292 -0.2244
  888MOL0     O19804   2.564   6.323   3.256  0.3028 -0.5789  0.1476
  888MOL0     C19805   2.528   6.302   3.120  0.5191 -0.8969  0.1702
  888MOL0     C19806   2.414   6.407   3.077  0.1332  0.3727  0.5429
  888MOL0     C19807   2.380   6.399   2.929  0.4641 -0.0257 -0.5733
  888MOL0     C19808   2.294   6.515   2.874 -0.4811  0.8888 -0.5322
  888MOL0     C19809   2.365   6.641   2.862 -0.6647  0.5956  0.7430
  888MOL0     C19810   2.424   6.741   2.844 -0.3223 -0.4979 -0.5689
  888MOL0     C19811   2.634   6.202   3.442  0.1871  0.8317  0.0482
  888MOL0     C19812   2.720   6.101   3.493  0.3869  0.6322 -0.5262
  888MOL0     H19813   2.976   5.944   3.842  2.2012  0.9375 -1.1974
  888MOL0     H19814   3.103   5.790   3.974 -2.5553 -1.8058  0.9741
  888MOL0     H19815   3.114   5.571   4.033 -0.5202  2.6975 -1.0232
  888MOL0     H19816   3.228   5.448   4.044 -0.6938  0.4241  2.3481
  888MOL0     H19817   3.311   5.739   4.061 -1.8315  0.3081  0.4111
  888MOL0     H19818   3.258   5.636   4.195  0.9527 -1.0298  0.3342
  888MOL0     H19819   3.456   5.464   4.153  2.1158  0.4266  0.1345
  888MOL0     H19820   3.504   5.554   4.020  0.3320  1.2165  0.2989
  888MOL0     H19821   3.517   5.750   4.203 -1.4306  0.3605 -1.0136
  888MOL0     H19822   3.490   5.625   4.325  0.5049  0.6711  0.7288
  888MOL0     H19823   3.692   5.502   4.222  2.4709  1.1384  1.9064
  888MOL0     H19824   3.723   5.634   4.118  1.1111 -1.5715 -0.7327
  888MOL0     H19825   3.757   5.790   4.290 -0.5704  0.3609 -0.8101
  888MOL0     H19826   3.704   5.679   4.414 -1.2298 -2.0086 -0.6008
  888MOL0     H19827   3.886   5.525   4.357 -1.0143 -0.8957 -2.8677
  888MOL0     H19828   3.928   5.601   4.206 -0.8355 -2.0541  0.5086
  888MOL0     H19829   4.097   5.651   4.407  1.3282  1.9514 -1.4997
  888MOL0     H19830   3.958   5.715   4.488  2.5381 -1.6111  0.9243
  888MOL0     H19831   3.969   5.827   4.138 -1.3315  1.9115 -1.0978
  888MOL0     H19832   4.119   6.204   4.148 -1.9706 -1.9065  5.2498
  888MOL0     H19833   4.176   6.066   4.036 -0.4575  1.3129 -1.4618
  888MOL0     H19834   3.907   6.167   4.094  1.5345  1.6980  0.2814
  888MOL0     H19835   3.942   6.027   3.984  1.9399  0.0710 -0.4521
  888MOL0     H19836   4.055   6.149   3.831 -1.4622 -3.6020  1.1364
  888MOL0     H19837   4.087   6.284   3.928  3.5845 -3.5292  0.9495
  888MOL0     H19838   3.923   6.338   3.773  0.0281 -2.2255 -1.5918
  888MOL0     H19839   3.827   6.316   3.932  0.0640 -1.5067  0.7424
  888MOL0     H19840   3.621   6.336   3.883 -0.0229 -1.3234 -0.1372
  888MOL0     H19841   3.319   6.478   3.744 -1.0481 -1.4332  1.4948
  888MOL0     H19842   3.401   6.421   3.882 -1.8519  2.6698 -0.9992
  888MOL0     H19843   3.465   6.563   3.777 -1.2080  1.8652  0.5313
  888MOL0     H19844   3.077   6.330   3.281  1.7645 -0.4232  2.6107
  888MOL0     H19845   3.044   6.413   3.071 -1.6674 -0.4257  3.7703
  888MOL0     H19846   3.281   6.706   2.897  1.7049  1.2662 -0.6397
  888MOL0     H19847   3.384   6.590   2.821  1.4233  0.5963  3.1793
  888MOL0     H19848   3.193   6.521   2.668 -0.4227 -0.5479  0.9036
  888MOL0     H19849   3.102   6.649   2.733  0.4204  0.4280  1.9808
  888MOL0     H19850   3.186   6.808   2.608 -2.8221 -1.6832 -1.3570
  888MOL0     H19851   3.208   6.676   2.498 -0.7489  2.5393 -0.8506
  888MOL0     H19852   3.435   6.788   2.672 -1.4827  0.2246  0.5445
  888MOL0     H19853   3.437   6.624   2.587  4.3070  0.4423  2.1396
  888MOL0     H19854   3.556   6.836   2.488  0.1150 -2.3857  3.1174
  888MOL0     H19855   3.398   6.900   2.447 -0.4166  0.4874 -0.6169
  888MOL0     H19856   3.495   6.626   2.352  1.2525  0.9952  1.7556
  888MOL0     H19857   3.342   6.698   2.316 -1.1420  0.6813  3.0713
  888MOL0     H19858   3.543   6.738   2.149 -0.7658 -0.0839 -0.1924
  888MOL0     H19859   3.600   6.854   2.272  0.1341  1.1761 -1.9651
  888MOL0     H19860   3.404   6.988   2.263  1.5524  1.5838  0.6701
  888MOL0     H19861   3.327   6.869   2.157  1.6214 -1.3557 -2.4847
  888MOL0     H19862   3.473   6.520   3.041  0.0552 -0.3342  0.8316
  888MOL0     H19863   3.507   6.417   3.240  0.6218  2.5993 -1.4673
  888MOL0     H19864   3.509   6.165   3.447 -2.1840  3.7669 -1.4582
  888MOL0     H19865   3.725   6.088   3.544 -3.4271 -1.9205 -1.5436
  888MOL0     H19866   3.168   5.549   3.619  0.6304  0.5249  0.6569
  888MOL0     H19867   3.053   5.694   3.486 -0.8371  3.3545 -0.9383
  888MOL0     H19868   2.965   6.112   3.253  0.3052  0.7023 -0.9615
  888MOL0     H19869   2.806   6.272   3.150 -0.4442  0.3975  0.0611
  888MOL0     H19870   2.616   6.310   3.055 -0.0797  3.6017 -0.3622
  888MOL0     H19871   2.488   6.202   3.099 -0.9281 -0.3221  0.0800
  888MOL0     H19872   2.455   6.508   3.085 -1.0187  0.7813  1.5188
  888MOL0     H19873   2.317   6.411   3.126 -2.0868  0.4692 -3.4441
  888MOL0     H19874   2.330   6.302   2.931  0.9245 -0.3179  3.4330
  888MOL0     H19875   2.477   6.399   2.878  0.5440  0.4703 -0.4201
  888MOL0     H19876   2.217   6.543   2.947 -0.2421 -3.1632  1.5782
  888MOL0     H19877   2.249   6.485   2.780  3.1313 -0.4145 -2.0317
  888MOL0     H19878   2.471   6.837   2.841  0.2329 -0.5581  2.6581
  888MOL0     H19879   2.534   6.211   3.482 -1.0306 -0.7386 -2.3811
  888MOL0     H19880   2.690   6.045   3.581  2.9727 -0.7620 -0.4446
  889MOL0     O19881   1.339   8.812   8.514  0.4877 -0.2375 -0.1367
  889MOL0     C19882   1.446   8.771   8.463  0.3267 -0.6843 -1.4195
  889MOL0     O19883   1.559   8.853   8.464 -0.8169 -0.1245 -0.0040
  889MOL0     C19884   1.559   8.961   8.546  0.3597 -0.4809  0.1250
  889MOL0     C19885   1.577   8.938   8.684 -0.0286 -0.4644  0.7907
  889MOL0     C19886   1.588   9.050   8.773 -0.4061  0.2135  0.3847
  889MOL0     C19887   1.591   9.182   8.723  0.5337  0.8492 -0.5669
  889MOL0     O19888   1.609   9.281   8.817  1.6037  0.0233  0.9315
  889MOL0     C19889   1.559   9.416   8.794  0.1593  0.9614  0.0454
  889MOL0     C19890   1.404   9.423   8.768 -0.2317 -0.2245 -1.2066
  889MOL0     C19891   1.316   9.418   8.892 -0.6009 -0.3780 -1.1458
  889MOL0     C19892   1.277   9.556   8.952  0.4335 -0.5827  0.2418
  889MOL0     C19893   1.162   9.536   9.049 -0.3444  0.7199 -0.3665
  889MOL0     C19894   1.207   9.479   9.189  0.2821 -0.5861 -0.4702
  889MOL0     C19895   1.101   9.402   9.265 -0.1834  0.1243  0.8318
  889MOL0     C19896   1.109   9.249   9.245 -0.1616 -0.1145 -0.7613
  889MOL0     N19897   1.009   9.183   9.338 -0.3431 -0.2412  0.1670
  889MOL0     C19898   1.052   9.091   9.435  0.9200 -0.8794  0.3383
  889MOL0     C19899   0.951   9.007   9.456 -0.8409  0.9915  0.5718
  889MOL0     C19900   0.969   8.883   9.537  0.0360  0.1311 -1.5801
  889MOL0     C19901   0.854   8.785   9.549 -0.2991  0.4426 -0.3527
  889MOL0     C19902   0.847   8.690   9.425  0.0981  1.0034  0.1999
  889MOL0     C19903   0.730   8.591   9.413  0.5483 -0.2326 -0.4769
  889MOL0     O19904   0.595   8.639   9.378 -0.7746  0.5314  0.3622
  889MOL0     C19905   0.506   8.541   9.337  0.4229 -0.2213  0.3884
  889MOL0     C19906   0.389   8.593   9.299  0.3268 -0.2332 -0.0261
  889MOL0     C19907   0.283   8.530   9.240  0.2918  0.3865  0.0626
  889MOL0     C19908   0.165   8.618   9.198  1.4606 -0.4001  0.2648
  889MOL0     C19909   0.293   8.383   9.227 -0.6873 -0.1483  0.7018
  889MOL0     C19910   0.182   8.297   9.177 -0.1943  0.9066  0.5547
  889MOL0     O19911   0.184   8.167   9.209  0.3086  0.0002 -0.3567
  889MOL0     C19912   0.102   8.082   9.150  0.4228  0.2065  0.0199
  889MOL0     C19913  -0.035   8.066   9.175  0.6010 -0.0441  0.0468
  889MOL0     C19914  -0.109   7.963   9.116  0.1709 -0.4523  0.1958
  889MOL0     C19915  -0.039   7.870   9.032  0.1788  0.5223  1.0429
  889MOL0     O19916  -0.106   7.757   8.975  0.6017  0.0384  0.0510
  889MOL0     C19917  -0.211   7.783   8.875  0.3316 -0.2828 -0.8020
  889MOL0     C19918  -0.280   7.655   8.834 -0.7438  1.1660  0.1392
  889MOL0     C19919  -0.187   7.537   8.814 -0.4198 -0.7643 -0.8509
  889MOL0     C19920  -0.252   7.427   8.741  0.3125  0.8448 -0.5609
  889MOL0     C19921  -0.153   7.312   8.701 -0.8851  0.2470  0.0724
  889MOL0     C19922  -0.032   7.365   8.614 -0.0023 -0.2539 -0.1973
  889MOL0     C19923   0.042   7.253   8.544  0.1797  0.4511 -0.3358
  889MOL0     C19924   0.122   7.306   8.432 -0.4917 -0.3677 -0.4549
  889MOL0    Cl19925   0.261   7.181   8.408  0.4018  0.1550 -0.6102
  889MOL0     C19926   0.098   7.875   9.014 -0.4118 -0.2637  0.1309
  889MOL0     C19927   0.168   7.989   9.061 -0.7160 -0.7940  0.3422
  889MOL0     O19928   0.107   8.350   9.096  0.2520  0.6058 -0.0521
  889MOL0     C19929   0.406   8.322   9.281 -0.1140 -0.1873 -0.3866
  889MOL0     C19930   0.518   8.402   9.323 -0.1110  0.6426 -0.0937
  889MOL0     N19931   0.849   9.042   9.376 -0.5817  0.8077  0.1279
  889MOL0     N19932   0.888   9.140   9.298  0.5555 -0.5401 -1.0210
  889MOL0     C19933   1.559   9.201   8.590 -0.4926 -0.2927 -0.2676
  889MOL0     C19934   1.546   9.098   8.503  0.0044  0.5205 -0.7595
  889MOL0     C19935   1.449   8.635   8.397 -0.5898 -0.1715 -0.1392
  889MOL0     C19936   1.361   8.533   8.435  0.6180  0.0201 -0.2005
  889MOL0     C19937   1.356   8.409   8.368  0.0790 -0.4622  0.2752
  889MOL0     C19938   1.451   8.389   8.266  0.2878  0.1773  0.8739
  889MOL0     O19939   1.467   8.266   8.212  0.3438  0.5009  0.1792
  889MOL0     C19940   1.369   8.173   8.253  0.7141  0.3625  0.0696
  889MOL0     C19941   1.355   8.053   8.142  0.4190  0.0502 -0.5219
  889MOL0     C19942   1.488   7.994   8.097 -0.5586 -0.2914  1.0077
  889MOL0     C19943   1.577   7.935   8.210 -0.3536  0.5909  0.1850
  889MOL0     C19944   1.688   7.865   8.141 -0.2893  0.5548  0.4167
  889MOL0     C19945   1.791   7.813   8.086  0.2623 -0.3300  0.9315
  889MOL0     C19946   1.535   8.488   8.223  0.2598 -0.5195  0.8469
  889MOL0     C19947   1.529   8.608   8.289 -0.0238  0.2987 -0.0128
  889MOL0     H19948   1.592   8.841   8.731  2.0679 -1.0161 -0.8593
  889MOL0     H19949   1.614   9.037   8.877  0.9946  0.3022  0.0619
  889MOL0     H19950   1.585   9.485   8.875 -0.5622  1.3725 -0.0563
  889MOL0     H19951   1.604   9.455   8.703  0.7590  2.5915  1.0056
  889MOL0     H19952   1.384   9.519   8.719  2.7474  2.0338  1.4892
  889MOL0     H19953   1.378   9.329   8.718  2.7951 -2.1662  0.5443
  889MOL0     H19954   1.234   9.352   8.862  0.0049 -1.9803  0.5167
  889MOL0     H19955   1.361   9.359   8.972 -2.0325 -1.1903 -0.9060
  889MOL0     H19956   1.364   9.598   9.004  1.4510 -2.1204 -0.1548
  889MOL0     H19957   1.235   9.622   8.875 -1.9152 -3.2696 -0.9516
  889MOL0     H19958   1.121   9.636   9.067  0.1701  0.6349  1.4434
  889MOL0     H19959   1.086   9.473   9.001  1.9999 -1.7439 -1.0568
  889MOL0     H19960   1.295   9.417   9.170 -2.8539 -4.4460 -4.7310
  889MOL0     H19961   1.230   9.568   9.248 -0.3602  0.1408 -1.3014
  889MOL0     H19962   1.111   9.427   9.371 -0.3651 -1.9582  1.3755
  889MOL0     H19963   1.001   9.439   9.241 -0.9174 -1.0306  1.9447
  889MOL0     H19964   1.212   9.217   9.265  0.2927  1.0388 -1.1431
  889MOL0     H19965   1.083   9.222   9.142  1.1387 -2.4988 -0.5241
  889MOL0     H19966   1.142   9.091   9.496 -0.5700 -1.0402  2.6998
  889MOL0     H19967   1.057   8.835   9.494 -0.0715 -0.4912 -1.1241
  889MOL0     H19968   1.002   8.922   9.634 -0.0487  3.5814 -2.7932
  889MOL0     H19969   0.756   8.831   9.569 -0.5032 -0.3658  0.5769
  889MOL0     H19970   0.871   8.716   9.632 -1.4766 -0.2292 -0.6490
  889MOL0     H19971   0.941   8.636   9.413 -2.6188 -3.5450 -4.8532
  889MOL0     H19972   0.844   8.740   9.328  1.6849  0.2206 -0.2847
  889MOL0     H19973   0.709   8.528   9.500  0.9849  0.4274  0.1217
  889MOL0     H19974   0.766   8.527   9.331 -0.4956 -0.3495 -0.8610
  889MOL0     H19975   0.375   8.701   9.308  2.0400 -0.1637  3.8485
  889MOL0     H19976   0.167   8.703   9.268  0.7358 -1.2820  1.3923
  889MOL0     H19977   0.159   8.663   9.099 -0.6462  3.3798  1.8604
  889MOL0     H19978   0.072   8.562   9.203  0.3125  1.2911 -1.1084
  889MOL0     H19979  -0.089   8.129   9.245  0.8444  3.2874 -2.5247
  889MOL0     H19980  -0.215   7.943   9.125 -0.4225  1.6608 -1.4104
  889MOL0     H19981  -0.293   7.843   8.915 -0.1085 -0.5991 -1.2127
  889MOL0     H19982  -0.170   7.833   8.787  0.1863  0.9788 -0.1804
  889MOL0     H19983  -0.359   7.626   8.904 -0.0017  1.9957  1.3582
  889MOL0     H19984  -0.316   7.667   8.731 -1.4898 -0.1179  0.2427
  889MOL0     H19985  -0.151   7.491   8.907 -1.5431 -2.1619 -1.0740
  889MOL0     H19986  -0.103   7.574   8.755  0.3141 -1.2039 -0.1098
  889MOL0     H19987  -0.327   7.393   8.813  1.0929  0.9697  0.3241
  889MOL0     H19988  -0.300   7.463   8.649  0.2087  2.4393  0.0842
  889MOL0     H19989  -0.207   7.234   8.648 -0.0180  1.4408 -2.7636
  889MOL0     H19990  -0.116   7.262   8.791 -1.3875 -1.7956 -0.8035
  889MOL0     H19991  -0.068   7.430   8.534  1.3173  2.2041  1.0787
  889MOL0     H19992   0.041   7.424   8.671  1.2217 -0.4860 -1.4823
  889MOL0     H19993  -0.030   7.184   8.500  1.4562 -0.2340 -1.4284
  889MOL0     H19994   0.109   7.211   8.620 -1.4506  0.0003  0.8903
  889MOL0     H19995   0.166   7.401   8.463  0.8845 -0.3809 -2.2258
  889MOL0     H19996   0.057   7.324   8.346 -1.5998  2.6898  0.8574
  889MOL0     H19997   0.166   7.809   8.960 -2.5322  0.2836 -3.5213
  889MOL0     H19998   0.273   8.000   9.034 -2.1136  0.5761 -6.3987
  889MOL0     H19999   0.428   8.216   9.289  0.5395 -0.1069 -0.9711
  889MOL0     H20000   0.604   8.341   9.350 -0.9884 -0.4883  0.1956
  889MOL0     H20001   1.546   9.302   8.552  1.9871  1.2633  2.6105
  889MOL0     H20002   1.519   9.109   8.398 -0.7891 -2.7455 -1.0092
  889MOL0     H20003   1.295   8.533   8.521  2.0899 -1.8217  1.0398
  889MOL0     H20004   1.305   8.328   8.417  2.4857  0.6396  5.1780
  889MOL0     H20005   1.397   8.117   8.343  1.8633 -0.8904 -1.0305
  889MOL0     H20006   1.269   8.216   8.258  0.3917  0.0028 -2.2107
  889MOL0     H20007   1.301   8.086   8.053 -1.1006  1.7775  0.9591
  889MOL0     H20008   1.298   7.969   8.184 -0.3952 -1.4126 -4.1508
  889MOL0     H20009   1.535   8.072   8.036 -1.9450 -0.8879 -0.8935
  889MOL0     H20010   1.464   7.908   8.034  2.4966 -1.0411  0.6772
  889MOL0     H20011   1.526   7.862   8.273  1.0946  0.9824  1.9083
  889MOL0     H20012   1.604   8.008   8.286 -1.3698 -0.1660  1.3083
  889MOL0     H20013   1.886   7.780   8.051 -0.4257  1.2771 -3.0042
  889MOL0     H20014   1.603   8.469   8.140 -1.5331 -1.9842 -0.3637
  889MOL0     H20015   1.594   8.683   8.247 -1.0012  1.5784  0.6877
  890MOL0     O20016   1.698   0.477  10.468 -0.4105 -0.6436  0.0801
  890MOL0     C20017   1.670   0.547  10.566 -0.6290  0.1051 -0.2231
  890MOL0     O20018   1.762   0.601  10.653 -0.2334  0.8683 -0.1625
  890MOL0     C20019   1.891   0.556  10.637 -0.2977  0.4374 -0.1932
  890MOL0     C20020   1.914   0.417  10.671  0.1274 -0.4076  0.6203
  890MOL0     C20021   2.042   0.361  10.673 -0.8101  0.3252  0.2574
  890MOL0     C20022   2.153   0.453  10.653 -0.2829 -0.5473 -0.9332
  890MOL0     O20023   2.278   0.407  10.645 -0.0610 -0.5002  0.4109
  890MOL0     C20024   2.294   0.358  10.510  0.3745 -0.3446 -0.2656
  890MOL0     C20025   2.441   0.310  10.494 -0.3441  0.0407  0.9776
  890MOL0     C20026   2.541   0.422  10.482  0.1522  0.0588 -0.0854
  890MOL0     C20027   2.689   0.381  10.482  0.5076  0.4375 -0.0252
  890MOL0     C20028   2.780   0.505  10.473 -0.6410 -0.4470 -0.3340
  890MOL0     C20029   2.923   0.463  10.478 -0.7371  0.6458  0.2718
  890MOL0     C20030   3.015   0.581  10.519 -0.5245  0.1293 -0.5628
  890MOL0     C20031   3.018   0.694  10.414 -0.3692 -0.2265 -1.0917
  890MOL0     N20032   3.048   0.663  10.276  0.1735  0.3453  0.4219
  890MOL0     C20033   3.174   0.682  10.222 -0.2646 -0.1896  0.0325
  890MOL0     C20034   3.160   0.664  10.084  0.5439 -0.3256 -0.6036
  890MOL0     C20035   3.247   0.678   9.961 -0.2585 -0.3660  0.3151
  890MOL0     C20036   3.378   0.763   9.976  0.0883 -0.1456 -0.1845
  890MOL0     C20037   3.472   0.775   9.849 -0.6080 -0.4424 -0.2719
  890MOL0     C20038   3.579   0.898   9.869  0.5967 -0.3279  0.7041
  890MOL0     O20039   3.681   0.881   9.973  0.1459 -0.6904  0.2211
  890MOL0     C20040   3.665   0.958  10.089 -0.1987  0.2116  0.0607
  890MOL0     C20041   3.576   0.928  10.185  0.5204  0.9455 -0.1039
  890MOL0     C20042   3.549   1.010  10.300  0.2964  0.7749 -0.1618
  890MOL0     C20043   3.458   0.960  10.404 -0.2893  0.6750 -0.2435
  890MOL0     C20044   3.612   1.143  10.309  0.0452 -0.0982 -0.6691
  890MOL0     C20045   3.595   1.248  10.407 -0.2082 -0.5514 -0.6330
  890MOL0     O20046   3.659   1.368  10.380 -0.0685 -0.5334  0.7336
  890MOL0     C20047   3.678   1.468  10.477 -0.6847 -0.8785 -0.1949
  890MOL0     C20048   3.770   1.561  10.422  0.2410  0.4446 -0.1264
  890MOL0     C20049   3.801   1.671  10.503  0.5196 -0.1016  0.0909
  890MOL0     C20050   3.756   1.693  10.636  0.2205 -0.1083  1.0570
  890MOL0     O20051   3.810   1.797  10.705  0.5324  0.1416 -0.1559
  890MOL0     C20052   3.712   1.886  10.777  0.2284 -0.0214 -0.9003
  890MOL0     C20053   3.759   1.921  10.912 -0.8054 -0.3385  0.2123
  890MOL0     C20054   3.893   2.007  10.916 -0.1817  0.8777 -0.8204
  890MOL0     C20055   3.905   2.090  11.047  0.3555  0.2430  0.3536
  890MOL0     C20056   3.799   2.196  11.061 -0.5192 -0.1518  0.0367
  890MOL0     C20057   3.830   2.287  11.175 -0.0513  0.6919 -0.4475
  890MOL0     C20058   3.797   2.232  11.314 -0.1562 -0.1694  0.0328
  890MOL0     C20059   3.887   2.288  11.429  0.6903 -0.1925  0.0487
  890MOL0    Cl20060   3.823   2.238  11.594 -0.2798 -0.1097 -0.2067
  890MOL0     C20061   3.673   1.592  10.688 -0.8537 -0.9482  0.6092
  890MOL0     C20062   3.636   1.485  10.607  0.3544  0.0205  0.3042
  890MOL0     O20063   3.542   1.221  10.518  0.0580 -0.4559  0.0672
  890MOL0     C20064   3.706   1.166  10.200 -0.5682  0.3470  0.3489
  890MOL0     C20065   3.729   1.080  10.091 -0.3787  0.2148 -0.0940
  890MOL0     N20066   3.027   0.639  10.060  0.2587 -0.0181 -0.2860
  890MOL0     N20067   2.960   0.648  10.176  0.2048 -0.6375 -0.1221
  890MOL0     C20068   2.141   0.588  10.627 -0.0840 -0.9479 -0.0641
  890MOL0     C20069   2.003   0.637  10.618  0.7556 -0.6242 -0.0291
  890MOL0     C20070   1.526   0.563  10.610 -0.1684 -0.9308 -0.2362
  890MOL0     C20071   1.430   0.493  10.536 -0.2933  0.0799 -0.2092
  890MOL0     C20072   1.296   0.499  10.566 -0.5326 -0.6969 -0.0817
  890MOL0     C20073   1.264   0.584  10.669  0.8213 -0.4333  0.2909
  890MOL0     O20074   1.134   0.588  10.689  0.7973 -0.0489 -0.3229
  890MOL0     C20075   1.058   0.710  10.708 -0.1228  0.5029  0.2730
  890MOL0     C20076   0.920   0.686  10.764 -0.6842  0.3464  0.8881
  890MOL0     C20077   0.831   0.607  10.653 -0.1162 -0.8083 -0.5792
  890MOL0     C20078   0.689   0.596  10.703  0.3778 -0.2080  0.2173
  890MOL0     C20079   0.662   0.475  10.785  1.0475  0.1065 -0.1906
  890MOL0     C20080   0.682   0.373  10.847  0.5297 -0.6477  0.3458
  890MOL0     C20081   1.352   0.665  10.736  0.4450  0.2102  0.2705
  890MOL0     C20082   1.486   0.647  10.711  0.0835  0.4857  0.3029
  890MOL0     H20083   1.825   0.363  10.701 -0.1791 -0.2286  0.0408
  890MOL0     H20084   2.061   0.259  10.705 -2.6950  0.1261  0.8607
  890MOL0     H20085   2.229   0.272  10.495  0.0857 -0.3767  1.0365
  890MOL0     H20086   2.269   0.440  10.442 -1.4579  0.2601  1.0345
  890MOL0     H20087   2.473   0.271  10.591  1.0830  0.2923  0.6357
  890MOL0     H20088   2.454   0.245  10.407  0.2554  2.7379 -1.0665
  890MOL0     H20089   2.525   0.486  10.395  2.2294 -2.3402 -2.4277
  890MOL0     H20090   2.522   0.477  10.575 -0.5609  1.2074 -0.8915
  890MOL0     H20091   2.709   0.328  10.575  3.0269 -0.6458 -1.0988
  890MOL0     H20092   2.714   0.323  10.392  0.3289 -0.0158  0.2112
  890MOL0     H20093   2.753   0.552  10.378 -0.1732 -0.1053 -0.3007
  890MOL0     H20094   2.759   0.573  10.556 -0.1340  0.7171 -1.1288
  890MOL0     H20095   2.940   0.385  10.552  4.1172 -0.0653 -1.2230
  890MOL0     H20096   2.953   0.426  10.379 -0.9354 -0.1072  0.4838
  890MOL0     H20097   2.986   0.618  10.617  1.6323  0.0823  0.1435
  890MOL0     H20098   3.112   0.530  10.528 -0.0480  1.0914 -0.1412
  890MOL0     H20099   3.086   0.768  10.456 -1.0591 -1.6659  3.0301
  890MOL0     H20100   2.917   0.736  10.419 -1.0779 -1.8996 -0.5296
  890MOL0     H20101   3.268   0.716  10.264 -0.6313  3.0254 -1.4557
  890MOL0     H20102   3.256   0.579   9.916 -3.0453  1.1320 -4.1357
  890MOL0     H20103   3.195   0.739   9.886 -1.7576 -0.8091  0.9682
  890MOL0     H20104   3.429   0.710  10.057 -0.1476  0.5172  0.4131
  890MOL0     H20105   3.350   0.859  10.020 -0.5042 -1.0945  1.5952
  890MOL0     H20106   3.405   0.798   9.766 -0.2772  0.8765 -0.1982
  890MOL0     H20107   3.524   0.680   9.835  3.4214  1.2783  1.2979
  890MOL0     H20108   3.513   0.981   9.892 -1.5547 -1.9791  0.8318
  890MOL0     H20109   3.631   0.926   9.777 -0.6293 -0.8832 -0.1900
  890MOL0     H20110   3.525   0.832  10.185 -0.7873  1.6256 -0.4114
  890MOL0     H20111   3.394   0.875  10.376 -1.0483  0.8947  0.7646
  890MOL0     H20112   3.509   0.924  10.494 -2.8535 -1.3401  0.5336
  890MOL0     H20113   3.391   1.045  10.419 -2.1024  0.1455 -4.1850
  890MOL0     H20114   3.814   1.553  10.323  3.3151 -3.2052  1.2997
  890MOL0     H20115   3.862   1.754  10.470  0.6236  0.1698  0.9387
  890MOL0     H20116   3.686   1.970  10.711 -2.5427 -1.5249 -1.8771
  890MOL0     H20117   3.623   1.823  10.782  0.6700 -0.6325 -0.6623
  890MOL0     H20118   3.680   1.981  10.957 -0.1195  2.4527 -1.9804
  890MOL0     H20119   3.779   1.827  10.965  0.9277  0.0437  0.2969
  890MOL0     H20120   3.895   2.075  10.830 -0.4427  1.9827  0.0409
  890MOL0     H20121   3.969   1.928  10.908 -1.3285 -0.3196 -0.2367
  890MOL0     H20122   3.896   2.014  11.126 -2.0618  1.3178  1.2000
  890MOL0     H20123   4.003   2.135  11.063  0.6212 -0.6265  1.2321
  890MOL0     H20124   3.704   2.146  11.084  1.2166 -2.3949  3.0873
  890MOL0     H20125   3.799   2.239  10.960 -2.0374 -3.4922 -1.5449
  890MOL0     H20126   3.936   2.316  11.172  0.4882 -0.9897  0.6559
  890MOL0     H20127   3.773   2.380  11.171 -0.7338  0.3299  0.5931
  890MOL0     H20128   3.800   2.123  11.323 -1.1490 -0.1147  1.3231
  890MOL0     H20129   3.691   2.255  11.314 -1.1982 -4.1946  0.7934
  890MOL0     H20130   3.879   2.394  11.402 -2.5000 -0.8673 -2.2106
  890MOL0     H20131   3.991   2.256  11.418  0.1245 -1.5386 -1.8215
  890MOL0     H20132   3.647   1.588  10.793 -0.9072 -1.0932  0.5898
  890MOL0     H20133   3.576   1.411  10.660 -5.0099  1.8382 -2.4629
  890MOL0     H20134   3.769   1.255  10.194  0.5515 -0.4165  0.4145
  890MOL0     H20135   3.797   1.111  10.011 -1.3108 -1.3562 -1.5624
  890MOL0     H20136   2.229   0.652  10.617 -0.2558 -0.4256  1.4913
  890MOL0     H20137   1.986   0.743  10.601  0.6925 -0.8151 -1.2308
  890MOL0     H20138   1.459   0.429  10.454 -1.0651 -0.0724 -0.3749
  890MOL0     H20139   1.227   0.453  10.496 -1.1152 -0.1287  0.1109
  890MOL0     H20140   1.107   0.775  10.780  0.8285 -0.4713  0.5317
  890MOL0     H20141   1.043   0.764  10.614 -1.5665 -1.1947 -0.5349
  890MOL0     H20142   0.877   0.784  10.789  0.3404  1.3093 -0.9992
  890MOL0     H20143   0.925   0.620  10.852  1.8322  1.7625  1.8982
  890MOL0     H20144   0.882   0.514  10.627  0.4272 -0.4612 -0.7740
  890MOL0     H20145   0.833   0.667  10.561 -0.1926 -0.4339 -0.3411
  890MOL0     H20146   0.633   0.600  10.609  1.0263 -0.2087 -0.1709
  890MOL0     H20147   0.649   0.677  10.765 -0.3127  0.0100 -0.4892
  890MOL0     H20148   0.710   0.294  10.914 -0.5106 -0.0501  1.5094
  890MOL0     H20149   1.338   0.733  10.819  3.0392 -0.6040  1.4901
  890MOL0     H20150   1.566   0.696  10.765  0.7831 -0.7043  0.3996
  891MOL0     O20151   2.256   4.508   5.883  0.3334  0.7801 -0.5060
  891MOL0     C20152   2.215   4.407   5.946  0.0774 -1.1607 -0.3703
  891MOL0     O20153   2.285   4.330   6.037  0.0801  0.0844  0.1839
  891MOL0     C20154   2.406   4.366   6.086  0.5259 -0.0860 -0.3729
  891MOL0     C20155   2.454   4.497   6.106  0.5456 -0.1196 -0.4853
  891MOL0     C20156   2.569   4.520   6.176 -0.0218  0.0340 -0.4006
  891MOL0     C20157   2.646   4.413   6.225  0.3165 -0.8966 -1.3243
  891MOL0     O20158   2.757   4.442   6.298 -0.7155 -0.1207  0.1056
  891MOL0     C20159   2.770   4.369   6.415  0.4285  1.0389  0.5030
  891MOL0     C20160   2.666   4.425   6.525 -0.8144  0.5851  0.1898
  891MOL0     C20161   2.718   4.405   6.668  0.3003  0.4595  0.2860
  891MOL0     C20162   2.695   4.263   6.725  0.3869 -0.3265 -0.7166
  891MOL0     C20163   2.812   4.226   6.821  0.7145 -0.4595  1.0173
  891MOL0     C20164   2.932   4.163   6.748  0.4832 -0.5019 -0.1528
  891MOL0     C20165   3.021   4.091   6.851 -0.2625 -0.2368 -0.0742
  891MOL0     C20166   3.144   4.029   6.796 -0.5536  0.0062  0.7266
  891MOL0     N20167   3.214   3.930   6.880  0.5301  0.1641 -0.1187
  891MOL0     C20168   3.237   3.958   7.016  0.0231 -0.5811  0.7940
  891MOL0     C20169   3.301   3.853   7.067 -0.1517 -0.3441  0.6069
  891MOL0     C20170   3.343   3.830   7.208  0.6331 -0.4847  0.4685
  891MOL0     C20171   3.436   3.937   7.267  0.1890 -0.8611 -1.6239
  891MOL0     C20172   3.493   3.905   7.401  0.2810  0.0229 -0.4770
  891MOL0     C20173   3.556   3.769   7.417 -0.9232 -0.0096  0.4863
  891MOL0     O20174   3.644   3.776   7.533  0.4253 -0.2595  0.7287
  891MOL0     C20175   3.697   3.665   7.586 -1.0117  0.1259 -0.1504
  891MOL0     C20176   3.817   3.675   7.643  0.4546  0.0373 -0.5182
  891MOL0     C20177   3.879   3.569   7.709  0.1023 -0.0339  0.1860
  891MOL0     C20178   4.014   3.586   7.749  0.1066 -0.7390 -0.3878
  891MOL0     C20179   3.805   3.448   7.739  0.0743  1.2293  1.5243
  891MOL0     C20180   3.864   3.333   7.822 -0.6697  0.0526  0.7548
  891MOL0     O20181   3.964   3.361   7.909  0.6502 -0.6980  0.1775
  891MOL0     C20182   4.059   3.265   7.937 -0.9440 -0.7282  1.4042
  891MOL0     C20183   4.136   3.218   7.832 -0.3256  0.4897 -1.3644
  891MOL0     C20184   4.202   3.088   7.846  0.1867 -0.2700 -0.1160
  891MOL0     C20185   4.193   3.018   7.969  1.1292  0.0333  0.3734
  891MOL0     O20186   4.266   2.900   7.973  0.1742  0.3054  0.0503
  891MOL0     C20187   4.313   2.858   8.112 -0.1176 -1.0231 -0.2871
  891MOL0     C20188   4.427   2.755   8.106 -0.3258  0.2760  0.9122
  891MOL0     C20189   4.488   2.703   8.245  0.4592  0.5552  0.2991
  891MOL0     C20190   4.609   2.610   8.227 -0.6754 -0.2353 -0.5379
  891MOL0     C20191   4.664   2.549   8.356  0.5502 -0.4075  0.4785
  891MOL0     C20192   4.788   2.470   8.321 -0.2692 -0.0747 -0.7455
  891MOL0     C20193   4.838   2.422   8.457 -0.6468  0.2545 -0.5831
  891MOL0     C20194   4.946   2.314   8.433 -0.8977 -0.8658 -0.5299
  891MOL0    Cl20195   5.046   2.304   8.582  0.3677  0.7896 -0.5274
  891MOL0     C20196   4.117   3.075   8.078 -0.0951  0.2146 -0.8092
  891MOL0     C20197   4.053   3.196   8.061 -0.3828 -0.7863 -1.2323
  891MOL0     O20198   3.806   3.222   7.824 -0.0449 -0.1805  0.3752
  891MOL0     C20199   3.680   3.438   7.679  0.0154 -0.2290  0.5492
  891MOL0     C20200   3.630   3.534   7.597 -0.2413 -0.2835  0.0936
  891MOL0     N20201   3.304   3.758   6.963 -0.6439  1.2881  0.3748
  891MOL0     N20202   3.268   3.810   6.849 -0.1531 -0.2781  0.6619
  891MOL0     C20203   2.602   4.280   6.195  0.2259  0.3307  0.1542
  891MOL0     C20204   2.480   4.257   6.131  0.0455 -0.0891 -0.5164
  891MOL0     C20205   2.066   4.373   5.950 -0.2699  1.0063 -0.1581
  891MOL0     C20206   1.987   4.452   5.878  1.1198  0.4742  0.7509
  891MOL0     C20207   1.848   4.430   5.865  0.3974 -0.0371 -0.4437
  891MOL0     C20208   1.794   4.315   5.917 -0.3855  0.2838  1.0570
  891MOL0     O20209   1.660   4.305   5.891  0.3729 -0.4252 -0.2081
  891MOL0     C20210   1.606   4.175   5.891 -0.1148 -0.5510  0.0446
  891MOL0     C20211   1.456   4.173   5.900 -0.9314 -0.3450 -0.2936
  891MOL0     C20212   1.391   4.278   5.991 -0.2064  0.4957  0.3173
  891MOL0     C20213   1.256   4.235   6.029  0.7977  0.0966 -0.5883
  891MOL0     C20214   1.214   4.322   6.132 -0.4651  0.1004 -0.4324
  891MOL0     C20215   1.187   4.402   6.216  1.0022 -0.0546  0.5632
  891MOL0     C20216   1.884   4.232   6.001  0.2388 -0.8765 -0.5221
  891MOL0     C20217   2.020   4.253   6.014  0.5449 -0.4418  0.2830
  891MOL0     H20218   2.397   4.585   6.077  1.1004  0.6559  0.7090
  891MOL0     H20219   2.607   4.618   6.204 -0.5287 -0.7469  3.6825
  891MOL0     H20220   2.761   4.261   6.395  0.8818  1.1271 -0.2009
  891MOL0     H20221   2.869   4.384   6.459 -0.4144  1.3172  2.3733
  891MOL0     H20222   2.655   4.532   6.503  0.6041  0.5523 -0.7401
  891MOL0     H20223   2.563   4.389   6.532 -0.8015  0.8596  2.8106
  891MOL0     H20224   2.825   4.429   6.667  1.3483 -3.4958  1.4675
  891MOL0     H20225   2.674   4.472   6.742 -3.7623 -2.1895  0.5509
  891MOL0     H20226   2.612   4.255   6.795  2.0629 -1.3946  1.2547
  891MOL0     H20227   2.674   4.193   6.643  0.5465  0.0276 -1.0595
  891MOL0     H20228   2.855   4.309   6.879 -1.0122 -0.7988  2.9131
  891MOL0     H20229   2.772   4.148   6.886 -2.0948 -1.5208 -1.7356
  891MOL0     H20230   2.891   4.080   6.690 -2.0044  0.6345 -0.1473
  891MOL0     H20231   2.979   4.233   6.678 -0.3805  2.1165  1.7359
  891MOL0     H20232   3.046   4.146   6.943 -1.0256  0.8362 -0.4911
  891MOL0     H20233   2.962   4.007   6.891 -0.1559  1.1056  3.2864
  891MOL0     H20234   3.214   4.109   6.775 -0.5324 -0.0099  0.7373
  891MOL0     H20235   3.112   3.985   6.700 -2.2849  0.6785  0.9560
  891MOL0     H20236   3.201   4.048   7.065  3.0997  1.4314 -0.2818
  891MOL0     H20237   3.254   3.823   7.272 -1.4881  0.8490 -2.1069
  891MOL0     H20238   3.382   3.728   7.216 -1.3915 -1.2342  1.8083
  891MOL0     H20239   3.390   4.036   7.276  0.2553 -0.9602  0.0848
  891MOL0     H20240   3.518   3.943   7.195  0.7216  0.0472 -0.9634
  891MOL0     H20241   3.409   3.905   7.472  0.0480  0.6395 -0.7453
  891MOL0     H20242   3.568   3.977   7.436 -0.6940 -0.5215  3.1918
  891MOL0     H20243   3.625   3.743   7.336 -0.8770  0.1760  0.4667
  891MOL0     H20244   3.486   3.686   7.404 -0.6276 -0.0144 -1.2144
  891MOL0     H20245   3.862   3.773   7.633  2.0528 -0.5486  0.6012
  891MOL0     H20246   4.066   3.665   7.695  0.7026 -2.6992 -2.9098
  891MOL0     H20247   4.005   3.615   7.854 -0.3951 -0.3239 -0.5419
  891MOL0     H20248   4.075   3.497   7.731  0.2816 -0.6540 -0.2196
  891MOL0     H20249   4.148   3.276   7.741  1.1157  2.6869  0.1289
  891MOL0     H20250   4.272   3.059   7.769  1.9413  1.7359  0.6453
  891MOL0     H20251   4.355   2.943   8.167  1.1550 -0.2041 -2.4227
  891MOL0     H20252   4.238   2.811   8.177  1.1396 -0.8899  1.3317
  891MOL0     H20253   4.385   2.674   8.045  1.9806 -1.0820  1.0116
  891MOL0     H20254   4.512   2.789   8.045  1.3270 -0.7073  2.5440
  891MOL0     H20255   4.418   2.647   8.308  2.0789  0.0108  1.7009
  891MOL0     H20256   4.525   2.789   8.301  3.3200 -0.3420 -0.0381
  891MOL0     H20257   4.579   2.533   8.156 -0.2493  1.2253 -2.3838
  891MOL0     H20258   4.680   2.666   8.166 -1.0252  1.5257  0.6050
  891MOL0     H20259   4.581   2.490   8.396 -1.2944  1.4095 -0.4689
  891MOL0     H20260   4.678   2.622   8.437  1.2997 -2.3315  2.1519
  891MOL0     H20261   4.767   2.383   8.257 -1.0605 -0.2774 -0.2187
  891MOL0     H20262   4.859   2.535   8.269  0.8685  1.4913  2.4855
  891MOL0     H20263   4.752   2.373   8.503  0.9332 -2.3673 -0.1695
  891MOL0     H20264   4.876   2.506   8.515 -1.8095 -0.3447  1.1416
  891MOL0     H20265   5.004   2.345   8.346 -0.1120 -0.0851  0.2397
  891MOL0     H20266   4.896   2.218   8.418 -3.5364  0.6106 -1.8218
  891MOL0     H20267   4.124   3.020   8.171  1.8533 -0.2718 -1.2076
  891MOL0     H20268   3.984   3.219   8.141 -1.4045 -1.6358 -1.8481
  891MOL0     H20269   3.625   3.347   7.702  0.2256 -0.3970  0.4021
  891MOL0     H20270   3.535   3.508   7.552 -0.1037 -0.1588 -0.2741
  891MOL0     H20271   2.646   4.193   6.243 -0.0773  1.2090  2.1637
  891MOL0     H20272   2.431   4.160   6.138  1.3301 -0.8941 -2.0988
  891MOL0     H20273   2.025   4.547   5.842  0.5707 -0.2333 -1.9399
  891MOL0     H20274   1.786   4.502   5.812 -0.0381 -0.2927 -0.2867
  891MOL0     H20275   1.636   4.134   5.794 -1.9631 -1.6864 -0.0752
  891MOL0     H20276   1.642   4.115   5.975  1.3683  0.9879  0.5720
  891MOL0     H20277   1.429   4.069   5.922  3.3803 -1.4199  0.9573
  891MOL0     H20278   1.418   4.200   5.801  0.6764 -2.5203 -1.6045
  891MOL0     H20279   1.383   4.376   5.944  1.0098  0.9032  0.9042
  891MOL0     H20280   1.458   4.286   6.077 -1.3527 -0.1597  1.3008
  891MOL0     H20281   1.258   4.142   6.086  0.0525  1.5311  1.9734
  891MOL0     H20282   1.188   4.235   5.943 -1.1150 -0.5090  0.8559
  891MOL0     H20283   1.158   4.465   6.297 -2.6054 -2.0479  1.0300
  891MOL0     H20284   1.860   4.150   6.067 -1.0005  1.7175  2.5440
  891MOL0     H20285   2.092   4.179   6.046 -0.3209 -1.2436  0.4386
  892MOL0     O20286   8.207   9.908   3.139 -0.4843 -0.1814  0.6303
  892MOL0     C20287   8.239   9.792   3.150 -0.2893 -0.4773 -0.9932
  892MOL0     O20288   8.364   9.742   3.114 -0.4334  0.5546 -0.0234
  892MOL0     C20289   8.456   9.814   3.047  0.5533  0.2499 -0.3375
  892MOL0     C20290   8.583   9.829   3.099 -0.3242 -0.0237 -0.1067
  892MOL0     C20291   8.687   9.904   3.030  0.0957 -0.6617 -0.2506
  892MOL0     C20292   8.657   9.986   2.923 -0.0289  0.2856  0.7064
  892MOL0     O20293   8.742  10.070   2.854  0.8894 -0.5839  0.1510
  892MOL0     C20294   8.880  10.065   2.891  0.9436 -0.3822 -0.6971
  892MOL0     C20295   8.948  10.188   2.823  0.1037  0.0296 -0.7409
  892MOL0     C20296   8.889  10.255   2.697 -0.8221  0.5177  0.5224
  892MOL0     C20297   8.872  10.165   2.579 -0.9315  0.2520 -0.5322
  892MOL0     C20298   8.797  10.230   2.472  0.0374  0.6479  0.5134
  892MOL0     C20299   8.664  10.304   2.486  0.6107 -0.7523  0.2524
  892MOL0     C20300   8.541  10.205   2.510  0.0967 -0.8462  0.2061
  892MOL0     C20301   8.521  10.104   2.398 -0.0467  0.5502 -0.4565
  892MOL0     N20302   8.479   9.971   2.449 -0.1711 -0.9666 -0.3970
  892MOL0     C20303   8.357   9.942   2.512 -0.4282 -0.1112 -0.4586
  892MOL0     C20304   8.348   9.807   2.514  0.3697 -0.8656 -0.2888
  892MOL0     C20305   8.226   9.729   2.566 -0.1260 -0.3497 -0.1467
  892MOL0     C20306   8.188   9.762   2.712  0.4334  0.3579  0.8634
  892MOL0     C20307   8.049   9.708   2.758  0.3600 -0.7603  0.0092
  892MOL0     C20308   8.039   9.561   2.775  0.4660 -0.6971 -0.8955
  892MOL0     O20309   7.930   9.520   2.859 -0.1292 -0.0146  0.7693
  892MOL0     C20310   7.883   9.396   2.852 -0.2267 -0.4330  0.2136
  892MOL0     C20311   7.956   9.289   2.791 -0.2193 -0.5825 -0.3646
  892MOL0     C20312   7.899   9.162   2.785 -0.4141 -0.5936  0.0529
  892MOL0     C20313   7.970   9.060   2.709 -0.8361  0.4618 -0.1270
  892MOL0     C20314   7.780   9.131   2.855  0.9264  1.4899 -0.8457
  892MOL0     C20315   7.728   8.991   2.880 -0.3655  0.3923  0.2049
  892MOL0     O20316   7.628   8.966   2.980  0.0965 -0.0086  0.6676
  892MOL0     C20317   7.553   8.855   2.972 -0.2943 -0.1376 -0.3697
  892MOL0     C20318   7.577   8.741   3.053 -0.1317 -0.0439  0.3115
  892MOL0     C20319   7.502   8.623   3.030  0.2419  0.6935 -0.4484
  892MOL0     C20320   7.407   8.623   2.924 -0.0591 -0.2845  0.0167
  892MOL0     O20321   7.338   8.511   2.887  0.1048 -0.5571 -0.1894
  892MOL0     C20322   7.347   8.382   2.949 -0.5606 -0.8999  0.0507
  892MOL0     C20323   7.265   8.353   3.073 -0.0908 -0.7367  0.2266
  892MOL0     C20324   7.307   8.215   3.135 -0.3834 -0.2596  1.1530
  892MOL0     C20325   7.239   8.169   3.260  0.1470  0.0499  0.6481
  892MOL0     C20326   7.303   8.050   3.332  0.0673  0.4338  0.4509
  892MOL0     C20327   7.212   7.996   3.440  0.3557  0.7216 -0.1505
  892MOL0     C20328   7.214   8.075   3.564  0.0033  0.0766 -0.7425
  892MOL0     C20329   7.349   8.078   3.652 -0.2813  0.3730 -1.1303
  892MOL0    Cl20330   7.386   8.240   3.720 -0.2149 -0.1605  0.2572
  892MOL0     C20331   7.392   8.738   2.850  0.5990  0.8338 -0.3837
  892MOL0     C20332   7.451   8.854   2.873 -0.3079  0.4809 -0.1595
  892MOL0     O20333   7.766   8.899   2.814 -0.8101 -0.1311 -0.5551
  892MOL0     C20334   7.710   9.234   2.914  0.0318  0.3466  0.1188
  892MOL0     C20335   7.763   9.369   2.913 -0.1094  0.1668  0.0651
  892MOL0     N20336   8.462   9.757   2.453  1.0245  0.7544 -0.3150
  892MOL0     N20337   8.533   9.851   2.415  0.7009 -0.4493 -0.2411
  892MOL0     C20338   8.530   9.963   2.871  0.8627 -0.6332 -0.0583
  892MOL0     C20339   8.432   9.891   2.929 -0.7454  1.2425  0.4080
  892MOL0     C20340   8.140   9.685   3.195  1.0268 -1.1220  0.6759
  892MOL0     C20341   8.016   9.739   3.245 -0.3460  0.1595 -0.6376
  892MOL0     C20342   7.913   9.653   3.265 -0.9679 -1.0431  0.2949
  892MOL0     C20343   7.934   9.513   3.253 -0.1391 -1.1072  0.1241
  892MOL0     O20344   7.840   9.426   3.293 -0.6046 -0.7498 -0.1026
  892MOL0     C20345   7.701   9.461   3.318  0.2375  0.7315  0.1192
  892MOL0     C20346   7.607   9.345   3.301 -0.2990 -0.4477 -0.3953
  892MOL0     C20347   7.463   9.387   3.319 -0.2906  0.0902  0.2620
  892MOL0     C20348   7.376   9.260   3.313  0.2502 -0.0531 -0.7046
  892MOL0     C20349   7.373   9.188   3.185  0.6716 -0.9100 -0.3381
  892MOL0     C20350   7.350   9.121   3.084 -0.7618  0.2815 -0.8663
  892MOL0     C20351   8.050   9.461   3.212 -0.2422 -0.0824  0.1648
  892MOL0     C20352   8.155   9.547   3.179 -0.8199 -0.7874  1.0649
  892MOL0     H20353   8.598   9.789   3.199 -3.0419 -0.9350  0.0290
  892MOL0     H20354   8.777   9.906   3.090 -0.1627 -3.2934  0.3220
  892MOL0     H20355   8.901  10.060   2.998 -0.5269 -1.4502 -0.4210
  892MOL0     H20356   8.912   9.973   2.841 -0.1664 -0.8704 -0.5322
  892MOL0     H20357   8.937  10.256   2.908 -0.6393 -1.5762  0.5060
  892MOL0     H20358   9.055  10.168   2.813 -0.5580 -3.5337 -2.1741
  892MOL0     H20359   8.791  10.286   2.734 -0.3286 -0.0266  2.4624
  892MOL0     H20360   8.947  10.339   2.660  1.1995 -1.5421 -1.2886
  892MOL0     H20361   8.969  10.125   2.547 -0.4130  1.0589  0.0095
  892MOL0     H20362   8.816  10.074   2.601 -0.9192  0.3777  0.0283
  892MOL0     H20363   8.864  10.308   2.435  0.9744 -0.4348 -0.1518
  892MOL0     H20364   8.796  10.156   2.391 -1.5167  1.7579 -0.5342
  892MOL0     H20365   8.673  10.370   2.573 -0.0200  1.2010 -1.0878
  892MOL0     H20366   8.660  10.369   2.398  1.7627 -2.4324 -1.1107
  892MOL0     H20367   8.567  10.155   2.604  0.7967  3.4548  2.5433
  892MOL0     H20368   8.457  10.268   2.539  2.5403  1.1347  3.6154
  892MOL0     H20369   8.614  10.083   2.345 -1.1993  0.6850 -2.6676
  892MOL0     H20370   8.458  10.146   2.319 -0.7243  0.9503  0.2929
  892MOL0     H20371   8.294  10.011   2.566  2.8923  2.4131  0.5446
  892MOL0     H20372   8.138   9.759   2.508 -0.1554 -1.1340 -0.5217
  892MOL0     H20373   8.241   9.621   2.563 -6.1058 -1.5022 -1.5486
  892MOL0     H20374   8.192   9.869   2.734 -4.1669  0.4374  2.4058
  892MOL0     H20375   8.259   9.706   2.774 -2.0679 -0.0792  3.5553
  892MOL0     H20376   7.967   9.735   2.691  1.0616  0.3699 -0.4252
  892MOL0     H20377   8.030   9.754   2.855  1.0253  2.6466 -1.3425
  892MOL0     H20378   8.129   9.517   2.819  1.3787  2.5744  0.8283
  892MOL0     H20379   8.023   9.513   2.678 -0.3285 -0.5101 -0.8622
  892MOL0     H20380   8.052   9.309   2.745 -0.7525 -1.9402 -2.1800
  892MOL0     H20381   8.057   9.097   2.654  0.7852 -3.0686 -0.2135
  892MOL0     H20382   8.005   8.973   2.764  1.3126 -0.5099 -2.8124
  892MOL0     H20383   7.905   9.018   2.632  1.2211 -0.7994 -1.2725
  892MOL0     H20384   7.648   8.761   3.133 -2.4001  2.5715  1.8520
  892MOL0     H20385   7.529   8.535   3.088 -0.0172  1.4984  0.9494
  892MOL0     H20386   7.310   8.316   2.870  1.3069 -0.1044 -1.5717
  892MOL0     H20387   7.452   8.353   2.955 -0.2370  0.0290 -0.8457
  892MOL0     H20388   7.292   8.425   3.150  1.4032  0.6284 -1.5087
  892MOL0     H20389   7.157   8.363   3.059  0.3032 -0.1648 -3.2721
  892MOL0     H20390   7.414   8.229   3.157 -0.4114  4.2116 -0.6198
  892MOL0     H20391   7.299   8.138   3.058  0.8508  0.0840  0.6454
  892MOL0     H20392   7.243   8.249   3.334 -0.3155 -0.2409  0.9900
  892MOL0     H20393   7.136   8.142   3.235  0.3322 -0.1017  0.0380
  892MOL0     H20394   7.398   8.097   3.358  1.1124 -0.4073 -1.6594
  892MOL0     H20395   7.315   7.967   3.262 -2.5265 -0.1030  0.5510
  892MOL0     H20396   7.112   7.986   3.396  0.8316  0.1528 -1.1334
  892MOL0     H20397   7.259   7.900   3.463  0.4485  0.9891  0.8038
  892MOL0     H20398   7.139   8.024   3.625  2.4607 -2.2369  0.5913
  892MOL0     H20399   7.186   8.177   3.536  0.9754  0.0110 -2.0538
  892MOL0     H20400   7.433   8.054   3.586 -1.2961  0.3491 -2.4568
  892MOL0     H20401   7.346   8.006   3.734  2.7786  0.6168 -0.6556
  892MOL0     H20402   7.318   8.742   2.770 -0.0491 -2.0354 -0.0514
  892MOL0     H20403   7.422   8.942   2.817  0.5227  2.0702  1.7496
  892MOL0     H20404   7.622   9.214   2.975 -0.1857 -1.1354 -0.6179
  892MOL0     H20405   7.717   9.441   2.980  1.3705  0.0809  1.2324
  892MOL0     H20406   8.500  10.024   2.786  2.2360  0.3269  0.1091
  892MOL0     H20407   8.336   9.913   2.885  0.5949  4.1564 -1.3181
  892MOL0     H20408   8.007   9.844   3.271  4.3439  0.6668 -0.2379
  892MOL0     H20409   7.817   9.697   3.292 -0.5619 -0.1953  0.4078
  892MOL0     H20410   7.688   9.488   3.423 -1.7380 -3.7342  1.2748
  892MOL0     H20411   7.668   9.540   3.251 -3.7800  0.8434  1.9438
  892MOL0     H20412   7.620   9.272   3.381 -1.2441 -0.9174 -0.6565
  892MOL0     H20413   7.625   9.302   3.202 -0.7043 -2.4666  0.3755
  892MOL0     H20414   7.442   9.453   3.235 -0.4012 -0.0616  0.1685
  892MOL0     H20415   7.447   9.442   3.412  0.8487 -1.0308  1.1517
  892MOL0     H20416   7.277   9.289   3.351  1.0765  0.4503  1.1935
  892MOL0     H20417   7.421   9.192   3.386  0.8757  1.1532  0.0678
  892MOL0     H20418   7.313   9.052   3.011  1.2791 -0.7138 -1.0372
  892MOL0     H20419   8.065   9.355   3.193 -1.7731  0.0928 -2.5647
  892MOL0     H20420   8.248   9.515   3.134 -0.6714 -1.7811  2.0329
  893MOL0     O20421   2.765   6.799   9.169 -0.5208  0.4466  0.3192
  893MOL0     C20422   2.706   6.904   9.198  0.7223 -0.0829  0.6057
  893MOL0     O20423   2.647   6.934   9.316  0.0372  0.0231  0.0613
  893MOL0     C20424   2.664   6.841   9.414 -0.4991  0.3266 -0.1271
  893MOL0     C20425   2.555   6.780   9.466  0.0344  0.7918 -0.0839
  893MOL0     C20426   2.568   6.683   9.572  0.4938  0.5914  0.3054
  893MOL0     C20427   2.691   6.637   9.603 -0.1855 -0.2703 -0.6220
  893MOL0     O20428   2.710   6.543   9.696  0.0306  0.6114  0.4518
  893MOL0     C20429   2.630   6.556   9.816 -0.3687  0.2689  0.2495
  893MOL0     C20430   2.709   6.507   9.941  0.3480 -0.7227  0.5361
  893MOL0     C20431   2.638   6.555  10.074  0.2466  0.5656 -1.0905
  893MOL0     C20432   2.735   6.560  10.192  0.1199  0.0406 -0.7127
  893MOL0     C20433   2.809   6.429  10.225 -0.9435 -0.1680  0.3541
  893MOL0     C20434   2.719   6.312  10.260  0.5812  0.1860 -0.0702
  893MOL0     C20435   2.792   6.169  10.245 -0.4142  0.1849  0.4117
  893MOL0     C20436   2.925   6.151  10.334 -0.0938 -0.3115  0.5887
  893MOL0     N20437   2.900   6.163  10.477  0.0648 -0.6895  1.2267
  893MOL0     C20438   2.794   6.114  10.548  0.4365 -0.5499 -0.5758
  893MOL0     C20439   2.818   6.159  10.679 -0.3381  0.4837  0.3187
  893MOL0     C20440   2.741   6.121  10.810 -0.0601  0.4978 -0.3775
  893MOL0     C20441   2.806   6.127  10.946  0.4340  0.4044  0.4578
  893MOL0     C20442   2.820   6.266  11.000 -1.1800 -0.6296  0.2245
  893MOL0     C20443   2.875   6.265  11.141  0.0510  0.1832 -0.6910
  893MOL0     O20444   3.009   6.224  11.140 -0.4199 -0.9832 -0.5147
  893MOL0     C20445   3.074   6.198  11.256  0.1290 -0.6279  0.0048
  893MOL0     C20446   3.025   6.209  11.390 -0.0321  0.4167  0.3875
  893MOL0     C20447   3.097   6.149  11.497  0.3446  0.2515 -0.5779
  893MOL0     C20448   3.025   6.134  11.627 -0.0701  0.2401 -0.6176
  893MOL0     C20449   3.226   6.118  11.476 -0.4080 -0.3341 -0.2172
  893MOL0     C20450   3.307   6.067  11.593  0.1064  1.1779  0.1337
  893MOL0     O20451   3.323   6.136  11.709  0.5777  0.2327 -1.4372
  893MOL0     C20452   3.400   6.071  11.807  0.6197  0.4687  0.5730
  893MOL0     C20453   3.483   6.159  11.883 -0.3195 -0.3757  0.3149
  893MOL0     C20454   3.557   6.105  11.981  0.4852 -0.0123 -0.1508
  893MOL0     C20455   3.562   5.969  12.002  0.7692  0.1213 -0.5746
  893MOL0     O20456   3.648   5.896  12.079  0.1045  0.3825 -0.4010
  893MOL0     C20457   3.757   5.949  12.154 -0.4943  0.7850  0.2370
  893MOL0     C20458   3.724   6.009  12.290  0.0484 -0.6262  0.3937
  893MOL0     C20459   3.726   5.908  12.408 -0.3370 -0.1464  0.2934
  893MOL0     C20460   3.867   5.913  12.469 -0.4706  0.0785 -1.0291
  893MOL0     C20461   3.921   5.788  12.550  0.5285  0.5602 -0.1533
  893MOL0     C20462   3.819   5.766  12.663 -0.5658 -0.7294  0.8166
  893MOL0     C20463   3.869   5.643  12.740 -0.4508  0.5712  0.4159
  893MOL0     C20464   3.843   5.651  12.897 -0.0184  0.8493  0.1317
  893MOL0    Cl20465   3.910   5.803  12.951  0.0009 -0.2720 -0.4428
  893MOL0     C20466   3.472   5.883  11.931  0.7679  0.2530 -0.0233
  893MOL0     C20467   3.382   5.934  11.841  0.5112 -0.0480  0.3966
  893MOL0     O20468   3.368   5.959  11.567  0.1693  0.0175  0.1689
  893MOL0     C20469   3.287   6.121  11.355  0.3191 -0.1811  0.6574
  893MOL0     C20470   3.214   6.166  11.248  0.0777  0.7113  0.6773
  893MOL0     N20471   2.931   6.242  10.676  0.0832  0.8074  0.5872
  893MOL0     N20472   2.976   6.250  10.554  0.0093  0.9884 -0.6138
  893MOL0     C20473   2.802   6.692   9.544 -0.0080  0.1701 -0.7913
  893MOL0     C20474   2.784   6.788   9.448 -0.4263  0.1076 -0.0347
  893MOL0     C20475   2.725   7.013   9.100 -0.0871 -0.0786  1.3178
  893MOL0     C20476   2.831   7.014   9.005  0.1383  0.7674 -0.1255
  893MOL0     C20477   2.855   7.130   8.935  0.2126 -0.6336  0.0688
  893MOL0     C20478   2.778   7.254   8.946 -0.1858  0.2317 -0.7796
  893MOL0     O20479   2.820   7.355   8.862  0.5129 -0.1271  0.1559
  893MOL0     C20480   2.753   7.484   8.864  0.2934 -0.1745  0.6779
  893MOL0     C20481   2.779   7.549   8.724 -0.3328 -0.2678 -0.6334
  893MOL0     C20482   2.763   7.696   8.736 -1.5088 -0.4949 -0.4060
  893MOL0     C20483   2.744   7.763   8.597 -0.4683  0.7287 -0.4643
  893MOL0     C20484   2.635   7.858   8.573 -0.3374  1.0017 -0.0364
  893MOL0     C20485   2.533   7.920   8.550 -1.2366 -1.0149 -0.6377
  893MOL0     C20486   2.672   7.251   9.031  0.1821 -0.4656 -0.4251
  893MOL0     C20487   2.647   7.134   9.101 -0.0309  0.4835 -0.2452
  893MOL0     H20488   2.459   6.812   9.426 -0.5670 -1.9788 -1.0877
  893MOL0     H20489   2.472   6.645   9.604  0.4321  0.0534 -0.4711
  893MOL0     H20490   2.608   6.664   9.818 -3.8622 -0.2379 -2.0188
  893MOL0     H20491   2.535   6.503   9.806  0.5662 -2.6900  4.4503
  893MOL0     H20492   2.716   6.398   9.936  2.2423 -0.5993  0.1292
  893MOL0     H20493   2.813   6.539   9.937  1.8133 -4.8692  1.3878
  893MOL0     H20494   2.606   6.659  10.062  0.7991  1.0146  1.0015
  893MOL0     H20495   2.552   6.492  10.097  1.4393 -0.6822  0.2152
  893MOL0     H20496   2.808   6.638  10.171  4.6102 -3.1324  1.4071
  893MOL0     H20497   2.678   6.585  10.282 -0.3643 -1.2130 -0.6426
  893MOL0     H20498   2.877   6.402  10.144  0.9298 -0.5083  1.9824
  893MOL0     H20499   2.869   6.458  10.312 -2.2508  2.3691  0.5028
  893MOL0     H20500   2.697   6.317  10.367  3.2761 -0.3264  0.5534
  893MOL0     H20501   2.628   6.310  10.199 -0.5853  1.7070  1.4983
  893MOL0     H20502   2.728   6.084  10.271  1.3907 -0.7539  2.0443
  893MOL0     H20503   2.822   6.158  10.140 -0.1032  0.7993  0.4276
  893MOL0     H20504   3.002   6.227  10.315  0.7537 -1.6508 -1.7324
  893MOL0     H20505   2.967   6.055  10.303 -2.2044 -1.6249  1.5972
  893MOL0     H20506   2.710   6.061  10.505 -1.8637  0.2625  2.5499
  893MOL0     H20507   2.657   6.190  10.819 -1.9639 -1.8409  0.8090
  893MOL0     H20508   2.686   6.027  10.800  0.6793 -0.4213  2.8960
  893MOL0     H20509   2.904   6.079  10.934 -1.0088 -2.7859  0.3585
  893MOL0     H20510   2.755   6.073  11.026  3.0681 -0.2283  1.8394
  893MOL0     H20511   2.720   6.310  11.014 -1.3434 -0.5580 -1.0083
  893MOL0     H20512   2.877   6.331  10.933 -1.3497 -1.6216 -0.9145
  893MOL0     H20513   2.823   6.203  11.214  2.8900 -2.9539 -1.0957
  893MOL0     H20514   2.868   6.365  11.185 -4.6232  0.1794 -0.8867
  893MOL0     H20515   2.924   6.249  11.403 -0.7032 -0.3900 -1.8476
  893MOL0     H20516   2.921   6.111  11.604 -0.4734  1.8508 -0.4940
  893MOL0     H20517   3.074   6.055  11.686  2.9299  1.3691 -1.4350
  893MOL0     H20518   3.035   6.229  11.681 -0.8260 -0.7956  1.4708
  893MOL0     H20519   3.507   6.257  11.843  2.4360 -1.8581 -2.0297
  893MOL0     H20520   3.620   6.178  12.031 -1.0711  1.6727 -0.5016
  893MOL0     H20521   3.829   5.867  12.159  1.0517  1.9736 -1.2035
  893MOL0     H20522   3.797   6.029  12.091 -0.5413 -0.2409 -1.1285
  893MOL0     H20523   3.793   6.093  12.304 -0.5700  0.4157 -2.2132
  893MOL0     H20524   3.622   6.048  12.280  0.0892 -0.8485 -1.0798
  893MOL0     H20525   3.699   5.806  12.380 -3.0900  0.9411 -1.3902
  893MOL0     H20526   3.650   5.941  12.479  0.6213  1.6060  0.5508
  893MOL0     H20527   3.942   5.933  12.391 -1.2689  0.3789 -1.7247
  893MOL0     H20528   3.873   6.003  12.530 -0.8535 -1.1259  0.8579
  893MOL0     H20529   4.020   5.812  12.589  1.0904 -3.0076  0.9945
  893MOL0     H20530   3.927   5.695  12.492 -4.6401  0.1238 -0.4559
  893MOL0     H20531   3.818   5.857  12.724 -1.2390 -0.7829  0.8893
  893MOL0     H20532   3.715   5.763  12.630 -0.8579 -2.2526  1.7673
  893MOL0     H20533   3.976   5.621  12.727 -0.6201 -0.6827  0.9507
  893MOL0     H20534   3.816   5.560  12.693  0.0959  1.3057 -1.5798
  893MOL0     H20535   3.894   5.570  12.950  0.1332  0.6211 -0.3606
  893MOL0     H20536   3.735   5.640  12.913  0.0459  1.3946  1.0327
  893MOL0     H20537   3.469   5.777  11.954  1.3608  0.2841  0.2365
  893MOL0     H20538   3.299   5.881  11.795 -1.0772  2.5986 -0.0145
  893MOL0     H20539   3.391   6.094  11.342  0.3980 -0.5955  2.0781
  893MOL0     H20540   3.267   6.170  11.153  2.3720  2.9999  1.9334
  893MOL0     H20541   2.898   6.652   9.574 -0.0464  1.7806  1.8628
  893MOL0     H20542   2.872   6.819   9.392  0.2917  1.1103  1.5562
  893MOL0     H20543   2.897   6.928   8.995 -0.1465  0.3547  1.2541
  893MOL0     H20544   2.938   7.133   8.865 -0.7332  2.5476 -1.0929
  893MOL0     H20545   2.645   7.476   8.879  0.3716  1.0834  2.1964
  893MOL0     H20546   2.786   7.550   8.945 -0.6001  0.6751  0.3766
  893MOL0     H20547   2.715   7.508   8.645 -0.3647  0.1435 -0.8257
  893MOL0     H20548   2.883   7.526   8.697 -0.0511 -2.6461  2.0042
  893MOL0     H20549   2.853   7.743   8.776 -1.1837 -0.1274 -1.5433
  893MOL0     H20550   2.682   7.716   8.807 -0.4597  0.1826  0.6337
  893MOL0     H20551   2.737   7.686   8.518  0.2839  2.4650 -2.2988
  893MOL0     H20552   2.836   7.811   8.563 -0.3866 -0.9152 -2.8501
  893MOL0     H20553   2.450   7.987   8.554 -1.1943 -0.9793 -0.2894
  893MOL0     H20554   2.602   7.334   9.034 -1.4915 -1.8136 -0.7187
  893MOL0     H20555   2.555   7.123   9.158 -0.9355  2.5550 -1.2094
  894MOL0     O20556   7.325   3.221   9.896 -0.5027 -0.2695 -0.2171
  894MOL0     C20557   7.261   3.205  10.001  0.2155 -0.1815 -0.2608
  894MOL0     O20558   7.298   3.124  10.111 -0.3915  0.2091  0.1130
  894MOL0     C20559   7.405   3.031  10.108 -0.1314  0.0717  0.2662
  894MOL0     C20560   7.482   2.975  10.002 -0.7652 -0.1490 -0.7805
  894MOL0     C20561   7.570   2.864  10.022  0.4246 -0.8394 -0.1132
  894MOL0     C20562   7.589   2.811  10.150  1.0278  0.8578 -1.0329
  894MOL0     O20563   7.674   2.721  10.190  0.1710  0.4958 -0.1196
  894MOL0     C20564   7.711   2.621  10.097 -0.2360  0.4082 -0.5648
  894MOL0     C20565   7.858   2.620  10.049 -0.0758 -0.4138  0.1547
  894MOL0     C20566   7.916   2.747   9.986 -0.0270  0.0012 -0.2135
  894MOL0     C20567   7.969   2.861  10.077  0.3661 -0.3830 -0.4363
  894MOL0     C20568   8.105   2.911  10.054 -0.1424 -0.3847 -0.5251
  894MOL0     C20569   8.175   2.973  10.181 -0.3650  0.7614  0.5769
  894MOL0     C20570   8.297   3.053  10.127 -0.7074  0.2662 -0.1090
  894MOL0     C20571   8.418   2.963  10.114 -0.5294  0.1710  0.9491
  894MOL0     N20572   8.538   3.037  10.072  0.5087  0.3842 -0.8860
  894MOL0     C20573   8.615   3.114  10.158 -0.4923 -0.5897 -0.7040
  894MOL0     C20574   8.719   3.163  10.080  0.4091  0.6461 -0.2842
  894MOL0     C20575   8.837   3.236  10.131 -0.3705 -1.0419 -0.0456
  894MOL0     C20576   8.877   3.232  10.279  0.6056 -0.6614 -0.4631
  894MOL0     C20577   8.929   3.101  10.330 -0.7376  0.2747 -0.7549
  894MOL0     C20578   8.953   3.108  10.483 -1.3298  0.0251  0.9316
  894MOL0     O20579   9.047   3.007  10.534  0.6958  0.3007  0.6171
  894MOL0     C20580   9.178   3.027  10.494 -0.4777 -0.3621  0.2735
  894MOL0     C20581   9.250   2.914  10.450 -0.5459 -0.2894 -0.6712
  894MOL0     C20582   9.385   2.924  10.406 -0.8628  0.6877  0.4770
  894MOL0     C20583   9.436   2.792  10.350 -0.1791 -0.7961 -0.0571
  894MOL0     C20584   9.455   3.046  10.414  0.3504  0.3592  0.1981
  894MOL0     C20585   9.597   3.065  10.372 -0.0156 -0.0937 -0.1964
  894MOL0     O20586   9.650   3.195  10.373  0.6263  0.3278 -0.0174
  894MOL0     C20587   9.779   3.220  10.381 -0.1675  0.5898  1.3421
  894MOL0     C20588   9.837   3.296  10.278 -0.8648 -0.0464 -0.1718
  894MOL0     C20589   9.975   3.319  10.274 -0.8524 -0.3989 -0.0703
  894MOL0     C20590  10.050   3.287  10.388 -1.2385  0.6009 -0.0324
  894MOL0     O20591  10.181   3.294  10.379 -0.4740 -0.1166 -0.1046
  894MOL0     C20592  10.280   3.284  10.487  0.5799 -0.5987 -0.4674
  894MOL0     C20593  10.291   3.395  10.590 -0.1011  0.9972  0.3994
  894MOL0     C20594  10.421   3.387  10.691  0.4464 -0.8884  0.6415
  894MOL0     C20595  10.390   3.267  10.782 -0.2088 -0.3900 -0.1164
  894MOL0     C20596  10.478   3.262  10.908 -0.4211 -0.1930  0.2917
  894MOL0     C20597  10.461   3.381  11.007 -1.0451  0.7284  0.0778
  894MOL0     C20598  10.521   3.355  11.144  0.5955  0.8065  0.5330
  894MOL0     C20599  10.664   3.321  11.141 -0.4927 -0.4850  0.8006
  894MOL0    Cl20600  10.729   3.312  11.312 -0.1183 -0.3600 -0.5939
  894MOL0     C20601   9.991   3.223  10.496 -0.2250 -0.1262  0.1412
  894MOL0     C20602   9.856   3.191  10.494 -0.2271 -0.1341 -0.5203
  894MOL0     O20603   9.668   2.968  10.348 -0.0338  0.0316  0.5482
  894MOL0     C20604   9.382   3.151  10.466 -0.6657 -0.3340  1.1255
  894MOL0     C20605   9.248   3.150  10.509 -0.1057  0.1982  0.1980
  894MOL0     N20606   8.696   3.107   9.957  0.0540 -0.2567  0.5899
  894MOL0     N20607   8.592   3.031   9.950  0.0213 -0.5427 -0.7756
  894MOL0     C20608   7.528   2.882  10.253  0.4742 -0.2045 -0.0547
  894MOL0     C20609   7.438   2.989  10.238  0.4985 -0.1326  0.8485
  894MOL0     C20610   7.128   3.276  10.011 -0.9573 -0.5724  0.3892
  894MOL0     C20611   7.091   3.379   9.915  0.1307  0.1967  0.0305
  894MOL0     C20612   6.978   3.452   9.927 -0.2265  0.5251  0.2923
  894MOL0     C20613   6.878   3.409  10.021 -0.1586 -0.2686  0.7279
  894MOL0     O20614   6.754   3.465  10.012 -0.3766 -0.0229 -0.8388
  894MOL0     C20615   6.660   3.461  10.115 -0.0944  0.8511 -0.0068
  894MOL0     C20616   6.528   3.507  10.062  0.0415 -0.1190  0.4277
  894MOL0     C20617   6.409   3.494  10.162  0.3635  0.5452  0.9014
  894MOL0     C20618   6.270   3.531  10.087 -0.2584  0.7727  0.4284
  894MOL0     C20619   6.263   3.660  10.035  0.2530 -1.0115 -0.3354
  894MOL0     C20620   6.239   3.778  10.024  0.8832 -0.1616  0.0571
  894MOL0     C20621   6.917   3.310  10.110 -0.6792 -0.1451  0.0827
  894MOL0     C20622   7.035   3.246  10.114 -0.0868 -0.4017  0.9112
  894MOL0     H20623   7.469   3.019   9.904  1.4898 -0.5421 -1.3266
  894MOL0     H20624   7.611   2.810   9.937  2.3069 -3.0331  2.0384
  894MOL0     H20625   7.699   2.531  10.158 -0.3295  2.1607  2.2195
  894MOL0     H20626   7.649   2.606  10.009 -2.0169  0.4823  0.6246
  894MOL0     H20627   7.921   2.600  10.136 -0.0042 -2.0968 -0.2523
  894MOL0     H20628   7.876   2.537   9.979  0.4625  0.0939 -0.3224
  894MOL0     H20629   7.990   2.718   9.911 -1.8673 -1.3927 -1.6071
  894MOL0     H20630   7.843   2.801   9.924 -1.5988 -1.2948  0.4286
  894MOL0     H20631   7.895   2.941  10.073  0.4738 -0.2696 -0.1766
  894MOL0     H20632   7.974   2.807  10.172  1.2638 -1.2421 -0.9423
  894MOL0     H20633   8.162   2.827  10.013  0.5571  0.2915 -0.9543
  894MOL0     H20634   8.103   2.980   9.969 -1.7357 -0.0700 -0.2704
  894MOL0     H20635   8.107   3.043  10.231  1.1947  2.2407  0.7520
  894MOL0     H20636   8.215   2.894  10.246 -1.2074  0.3652  0.6175
  894MOL0     H20637   8.279   3.100  10.030 -3.0036 -1.1645 -0.4599
  894MOL0     H20638   8.308   3.140  10.193  0.0329  1.1990 -1.4065
  894MOL0     H20639   8.404   2.878  10.047  2.5565  1.4685 -1.5870
  894MOL0     H20640   8.446   2.916  10.210 -0.8902 -1.1385  0.4366
  894MOL0     H20641   8.591   3.131  10.262  1.7611 -0.2967 -0.1752
  894MOL0     H20642   8.926   3.199  10.080  1.6983  2.3950  0.7387
  894MOL0     H20643   8.837   3.341  10.102  1.4225 -0.9478  0.1617
  894MOL0     H20644   8.786   3.265  10.331  0.7561 -0.0112 -0.6074
  894MOL0     H20645   8.953   3.307  10.302  2.9769 -2.3508 -2.3288
  894MOL0     H20646   9.015   3.061  10.275 -1.9402 -1.2103 -1.6196
  894MOL0     H20647   8.863   3.015  10.316 -3.1018  1.5327  1.8115
  894MOL0     H20648   8.860   3.084  10.536 -1.5079 -0.1587  0.5486
  894MOL0     H20649   8.984   3.210  10.507  0.4448 -0.3871  0.5100
  894MOL0     H20650   9.194   2.821  10.445 -1.3033  0.1473 -0.5115
  894MOL0     H20651   9.367   2.710  10.372 -0.3683 -0.2498  1.5445
  894MOL0     H20652   9.441   2.782  10.241 -0.1496 -0.3804 -0.0939
  894MOL0     H20653   9.528   2.765  10.404 -0.4352 -0.3746  0.6076
  894MOL0     H20654   9.773   3.328  10.196 -0.3463  2.6370  0.3635
  894MOL0     H20655  10.021   3.374  10.192  0.8444 -2.0135 -0.2740
  894MOL0     H20656  10.272   3.190  10.542  0.7596  0.3937  1.3106
  894MOL0     H20657  10.378   3.294  10.441  0.7710  0.2249  0.0999
  894MOL0     H20658  10.313   3.491  10.541  2.3698 -0.0385 -0.6682
  894MOL0     H20659  10.194   3.416  10.636 -1.6250 -0.7770 -1.8161
  894MOL0     H20660  10.428   3.483  10.743 -1.0604  0.0625 -0.7876
  894MOL0     H20661  10.509   3.371  10.629 -0.3394 -1.3232 -0.3904
  894MOL0     H20662  10.287   3.277  10.820  0.4897  0.5117  1.6722
  894MOL0     H20663  10.417   3.175  10.729  0.9791 -0.1781  0.0907
  894MOL0     H20664  10.582   3.259  10.874 -0.7676  1.9990 -1.1206
  894MOL0     H20665  10.453   3.166  10.954 -2.9272  0.4219  0.3551
  894MOL0     H20666  10.518   3.464  10.963  2.2167 -1.9050 -1.0822
  894MOL0     H20667  10.354   3.397  11.019 -1.0807 -0.5042  1.6763
  894MOL0     H20668  10.465   3.272  11.188  1.1701 -1.6039 -2.8363
  894MOL0     H20669  10.497   3.440  11.208 -1.3425  1.5013 -0.9930
  894MOL0     H20670  10.723   3.404  11.101  0.2197 -1.3867 -0.0512
  894MOL0     H20671  10.686   3.230  11.085  0.8976  0.3480 -0.0674
  894MOL0     H20672  10.056   3.195  10.578  1.2567 -4.0572 -2.1104
  894MOL0     H20673   9.805   3.119  10.558 -3.2577 -0.2305 -2.8025
  894MOL0     H20674   9.425   3.250  10.480 -1.9764  0.1937  1.5165
  894MOL0     H20675   9.194   3.231  10.556  0.0018  0.3964 -0.0186
  894MOL0     H20676   7.542   2.842  10.353  0.0979 -0.3834 -0.0698
  894MOL0     H20677   7.391   3.050  10.314  1.6612 -0.9184  2.2377
  894MOL0     H20678   7.155   3.417   9.836  1.0782 -0.8191  0.2807
  894MOL0     H20679   6.951   3.521   9.848 -3.0302 -1.6757 -0.8395
  894MOL0     H20680   6.664   3.357  10.146  0.7349  1.0923  0.7390
  894MOL0     H20681   6.699   3.519  10.200 -2.4849  1.1889  0.9279
  894MOL0     H20682   6.503   3.454   9.969 -1.3519  2.9751 -1.1129
  894MOL0     H20683   6.533   3.614  10.040 -3.0984 -0.3192 -2.0364
  894MOL0     H20684   6.429   3.576  10.231  2.5330 -1.7159  3.1958
  894MOL0     H20685   6.402   3.398  10.213  1.3981 -0.2467 -0.3879
  894MOL0     H20686   6.181   3.509  10.146  0.5972 -1.4143  1.0184
  894MOL0     H20687   6.266   3.460  10.004  0.9303 -0.1124  1.0755
  894MOL0     H20688   6.225   3.884  10.017 -2.3593 -0.6145 -3.4690
  894MOL0     H20689   6.848   3.275  10.187 -0.4663 -1.4589 -0.2903
  894MOL0     H20690   7.040   3.164  10.185 -1.5462 -1.9530 -0.6797
  895MOL0     O20691   0.387   2.365   2.994 -0.7394 -0.0868  0.1828
  895MOL0     C20692   0.320   2.442   3.063 -0.5910 -0.6948  0.4490
  895MOL0     O20693   0.189   2.449   3.044 -0.0260  0.3164  0.2688
  895MOL0     C20694   0.130   2.386   2.938  0.8886  0.0567  0.0715
  895MOL0     C20695   0.180   2.372   2.809  0.0188  0.2684  0.1546
  895MOL0     C20696   0.103   2.306   2.713 -0.3286 -0.2778  0.5627
  895MOL0     C20697  -0.023   2.260   2.745 -0.3052 -0.4044 -0.7692
  895MOL0     O20698  -0.107   2.229   2.644 -0.0041  0.5794 -0.2050
  895MOL0     C20699  -0.179   2.107   2.644 -0.3021  0.4612 -0.1926
  895MOL0     C20700  -0.299   2.139   2.555  0.0360  0.9738 -0.5522
  895MOL0     C20701  -0.410   2.184   2.651 -0.5358 -0.3896 -0.5630
  895MOL0     C20702  -0.548   2.171   2.606  0.5510 -0.8084 -0.2588
  895MOL0     C20703  -0.645   2.156   2.726 -0.3161  0.5058  0.0253
  895MOL0     C20704  -0.784   2.195   2.676 -0.0179  0.2794  0.2675
  895MOL0     C20705  -0.896   2.165   2.769  0.2188 -0.6363  0.3147
  895MOL0     C20706  -0.924   2.009   2.758 -0.0783 -0.7689 -0.2905
  895MOL0     N20707  -1.034   1.971   2.837  0.1851 -0.1476 -0.9731
  895MOL0     C20708  -1.123   1.874   2.795  0.0051 -0.4170 -0.4409
  895MOL0     C20709  -1.172   1.827   2.919  0.0701  0.2072  1.2862
  895MOL0     C20710  -1.281   1.725   2.927 -0.1131 -1.0344 -0.0308
  895MOL0     C20711  -1.401   1.798   2.986  0.7791  0.2603 -0.3239
  895MOL0     C20712  -1.518   1.701   2.994  0.4291  0.6103 -0.6495
  895MOL0     C20713  -1.614   1.693   2.871 -0.2709  0.8171 -0.7585
  895MOL0     O20714  -1.553   1.620   2.757  0.1949  0.6446 -0.2162
  895MOL0     C20715  -1.641   1.566   2.658 -0.2611  0.6840  0.2591
  895MOL0     C20716  -1.583   1.494   2.561 -0.2616 -0.4249  0.1603
  895MOL0     C20717  -1.664   1.435   2.459 -0.3571  0.4664 -0.3397
  895MOL0     C20718  -1.598   1.366   2.346  0.3951 -0.0231 -0.2205
  895MOL0     C20719  -1.804   1.442   2.461 -0.0060  1.0291  0.3797
  895MOL0     C20720  -1.906   1.376   2.370  0.3366 -0.1805 -0.0266
  895MOL0     O20721  -1.904   1.242   2.364  0.3082 -0.0644  0.1184
  895MOL0     C20722  -2.028   1.181   2.332 -0.8409 -0.4760 -0.2350
  895MOL0     C20723  -2.139   1.178   2.414  0.6546 -0.5592  0.1214
  895MOL0     C20724  -2.258   1.109   2.370  0.5086 -0.6605  0.4365
  895MOL0     C20725  -2.269   1.037   2.250  0.0976  0.0294 -0.8618
  895MOL0     O20726  -2.375   0.964   2.213 -0.0612 -0.5084  0.2123
  895MOL0     C20727  -2.495   0.992   2.285 -0.2396  0.4338 -0.2727
  895MOL0     C20728  -2.605   0.928   2.205  0.5379 -0.1966 -0.5031
  895MOL0     C20729  -2.623   1.001   2.065  0.7524 -0.1736 -0.4697
  895MOL0     C20730  -2.717   0.933   1.971  0.0825 -0.2722  0.6195
  895MOL0     C20731  -2.723   1.015   1.831  0.7913  0.3102 -0.3201
  895MOL0     C20732  -2.843   1.001   1.746  0.1326  0.0292 -0.5127
  895MOL0     C20733  -2.961   1.037   1.825  0.2727 -0.2983  0.0032
  895MOL0     C20734  -3.036   1.142   1.742  0.6301 -0.1264 -0.6019
  895MOL0    Cl20735  -2.940   1.294   1.690 -0.1481  0.0034  0.0187
  895MOL0     C20736  -2.152   1.047   2.169 -0.4021  0.8509  0.8603
  895MOL0     C20737  -2.036   1.110   2.213  0.3269 -0.3895  0.3334
  895MOL0     O20738  -1.984   1.449   2.314  0.7587 -0.9124 -0.0718
  895MOL0     C20739  -1.861   1.519   2.559  0.2453  0.6460 -1.2541
  895MOL0     C20740  -1.780   1.584   2.653 -0.0777  0.4745 -0.1444
  895MOL0     N20741  -1.116   1.889   3.023 -0.3605 -0.0872  0.0502
  895MOL0     N20742  -1.025   1.972   2.976  0.1508  0.2891  0.1100
  895MOL0     C20743  -0.072   2.281   2.871  0.1661 -0.7839 -1.1020
  895MOL0     C20744   0.005   2.342   2.972  0.2538 -0.3714 -0.5653
  895MOL0     C20745   0.377   2.494   3.194  0.3191 -0.1105  0.2097
  895MOL0     C20746   0.297   2.556   3.294 -0.1652 -0.1841 -0.0558
  895MOL0     C20747   0.358   2.602   3.403 -0.2950  0.2590  0.2022
  895MOL0     C20748   0.502   2.587   3.433  0.6898 -0.6917  0.5100
  895MOL0     O20749   0.578   2.630   3.544  0.3966 -0.2324  0.0963
  895MOL0     C20750   0.507   2.682   3.660  0.5556 -0.5955  0.1457
  895MOL0     C20751   0.575   2.669   3.801  0.2959 -0.3229  0.4722
  895MOL0     C20752   0.576   2.523   3.840 -0.2135  1.1024 -0.4129
  895MOL0     C20753   0.669   2.507   3.966 -0.8824 -0.9864  0.7774
  895MOL0     C20754   0.609   2.426   4.063 -0.2150 -0.2545 -0.3855
  895MOL0     C20755   0.544   2.361   4.137  0.0146  0.7735  0.3470
  895MOL0     C20756   0.572   2.522   3.334  0.5559  0.2082 -0.6750
  895MOL0     C20757   0.507   2.479   3.215  0.3698 -0.2877  0.0151
  895MOL0     H20758   0.274   2.405   2.767 -0.5970 -0.7028 -2.1582
  895MOL0     H20759   0.142   2.293   2.613 -0.0974  0.4723  0.5506
  895MOL0     H20760  -0.113   2.031   2.601  0.7115  1.9657 -1.4317
  895MOL0     H20761  -0.201   2.066   2.742  0.8725 -0.0968 -0.1430
  895MOL0     H20762  -0.280   2.200   2.465 -3.8281  0.4972 -1.8809
  895MOL0     H20763  -0.315   2.039   2.515  0.5964  1.4161 -1.9853
  895MOL0     H20764  -0.394   2.117   2.736  1.5417 -1.4772 -1.7496
  895MOL0     H20765  -0.390   2.289   2.674 -1.1279 -0.0998 -1.3148
  895MOL0     H20766  -0.574   2.253   2.539  2.2795  0.5926  0.6838
  895MOL0     H20767  -0.550   2.086   2.538 -3.0973 -0.5687 -0.6480
  895MOL0     H20768  -0.643   2.052   2.759  2.0274 -0.7526 -3.4688
  895MOL0     H20769  -0.621   2.218   2.814 -1.3617  0.4910  0.3359
  895MOL0     H20770  -0.780   2.301   2.651  2.6887  0.0437 -0.5342
  895MOL0     H20771  -0.788   2.141   2.581  0.8324  0.1961  0.2710
  895MOL0     H20772  -0.877   2.194   2.872 -3.7470  1.3943  0.6713
  895MOL0     H20773  -0.988   2.212   2.734 -1.0336 -0.7956  3.1899
  895MOL0     H20774  -0.849   1.956   2.819  0.2017  1.0458  1.0274
  895MOL0     H20775  -0.926   1.983   2.652  0.1560  0.0372 -0.4975
  895MOL0     H20776  -1.149   1.849   2.692 -0.2317 -0.4667 -0.3692
  895MOL0     H20777  -1.302   1.679   2.830 -0.1834 -2.2921  0.5576
  895MOL0     H20778  -1.244   1.639   2.985  0.4822  0.5132  1.9904
  895MOL0     H20779  -1.417   1.885   2.922  4.1632  1.2186 -0.0759
  895MOL0     H20780  -1.380   1.838   3.085 -0.4135  3.2837 -1.1803
  895MOL0     H20781  -1.588   1.729   3.074 -1.6011 -2.0234 -1.3425
  895MOL0     H20782  -1.479   1.606   3.031  0.4091 -0.0868 -2.3150
  895MOL0     H20783  -1.660   1.788   2.843  2.0941  1.8805 -1.2440
  895MOL0     H20784  -1.705   1.641   2.902 -1.2824  3.2225  0.5106
  895MOL0     H20785  -1.475   1.483   2.564 -0.1918  0.4145  1.0446
  895MOL0     H20786  -1.495   1.403   2.343 -0.5483  2.9881  0.8719
  895MOL0     H20787  -1.596   1.259   2.370  0.2923  0.6842  3.4549
  895MOL0     H20788  -1.647   1.394   2.252 -1.8063  1.5777  1.3244
  895MOL0     H20789  -2.145   1.210   2.517  0.7727  1.5868 -0.4912
  895MOL0     H20790  -2.340   1.104   2.441 -1.6136  0.4021 -1.7956
  895MOL0     H20791  -2.472   0.939   2.378  2.1680  1.6855 -0.0936
  895MOL0     H20792  -2.510   1.100   2.293  1.1573  0.8458 -2.4353
  895MOL0     H20793  -2.583   0.822   2.191  1.8757 -0.0753  0.5031
  895MOL0     H20794  -2.694   0.930   2.269 -1.2894 -6.0920 -2.2240
  895MOL0     H20795  -2.523   1.021   2.025  1.7795  0.9065  2.3999
  895MOL0     H20796  -2.661   1.104   2.072  3.1082  0.6568  2.8105
  895MOL0     H20797  -2.672   0.834   1.955  3.7005  1.0119  1.9409
  895MOL0     H20798  -2.821   0.926   2.006 -0.7163  5.0633  0.0826
  895MOL0     H20799  -2.634   0.986   1.774 -0.1809  0.2314 -1.8723
  895MOL0     H20800  -2.705   1.120   1.857  4.1233  0.2350 -1.7919
  895MOL0     H20801  -2.849   1.058   1.653  0.4312 -3.1728 -2.6256
  895MOL0     H20802  -2.850   0.898   1.712 -2.4566  0.7122 -2.3642
  895MOL0     H20803  -2.945   1.080   1.925 -1.4180  0.3333  0.0511
  895MOL0     H20804  -3.014   0.942   1.841  2.0050 -0.8990  3.0224
  895MOL0     H20805  -3.122   1.177   1.800  1.0839 -1.7412  1.1507
  895MOL0     H20806  -3.082   1.084   1.662  2.1830 -0.3831 -1.3445
  895MOL0     H20807  -2.148   1.020   2.064 -2.0054  3.0818  0.1599
  895MOL0     H20808  -1.947   1.105   2.153 -0.7068 -1.1536 -1.1940
  895MOL0     H20809  -1.967   1.543   2.562  0.0467 -0.1205 -1.8347
  895MOL0     H20810  -1.828   1.635   2.736 -4.1097 -0.3815 -1.7205
  895MOL0     H20811  -0.179   2.265   2.888 -0.2266  0.7424 -1.9456
  895MOL0     H20812  -0.047   2.363   3.066  1.1843 -2.3292  0.4391
  895MOL0     H20813   0.192   2.583   3.283  1.0417  5.1011 -1.9659
  895MOL0     H20814   0.283   2.647   3.468 -0.3793 -1.3550  1.2953
  895MOL0     H20815   0.486   2.786   3.634 -0.4976 -1.1380 -1.2546
  895MOL0     H20816   0.406   2.643   3.678  0.8361 -0.6968  1.6963
  895MOL0     H20817   0.521   2.729   3.875 -1.0372 -0.7431 -0.1331
  895MOL0     H20818   0.674   2.708   3.777 -0.5786  1.7105 -0.0915
  895MOL0     H20819   0.615   2.460   3.759  3.0377 -0.1313  1.8894
  895MOL0     H20820   0.474   2.489   3.860  0.6651 -1.8935 -0.4110
  895MOL0     H20821   0.690   2.604   4.012 -0.1020 -1.0044  0.4659
  895MOL0     H20822   0.769   2.466   3.946 -0.5854  0.7090 -1.6205
  895MOL0     H20823   0.478   2.294   4.189  0.3630 -1.5544 -2.0188
  895MOL0     H20824   0.678   2.506   3.348  0.8472  3.4628  2.1577
  895MOL0     H20825   0.572   2.428   3.145  0.2645 -1.6249  0.8361
  896MOL0     O20826   9.802   2.966   1.959  0.3757  0.2343 -0.3990
  896MOL0     C20827   9.790   2.993   1.842 -0.0257 -0.3671 -0.0102
  896MOL0     O20828   9.899   3.003   1.763  0.3242  0.2345 -0.0511
  896MOL0     C20829  10.026   2.958   1.785  0.0845  0.2153 -0.0956
  896MOL0     C20830  10.079   2.904   1.901 -0.2990 -0.2225 -0.6657
  896MOL0     C20831  10.211   2.870   1.899 -0.3239  0.3876 -0.2554
  896MOL0     C20832  10.283   2.873   1.778  0.8485  0.1118  1.0860
  896MOL0     O20833  10.399   2.806   1.781 -0.4924  0.1314 -0.4107
  896MOL0     C20834  10.484   2.793   1.666 -0.4355 -0.1269 -0.7823
  896MOL0     C20835  10.541   2.920   1.622  0.4201 -0.4811  0.2728
  896MOL0     C20836  10.693   2.926   1.618  0.0922  0.1764 -0.6721
  896MOL0     C20837  10.762   2.845   1.510  0.0762  0.1478  0.2813
  896MOL0     C20838  10.908   2.882   1.501 -0.0038  0.0419 -0.4992
  896MOL0     C20839  10.965   2.818   1.383  0.3809 -0.6632  2.2482
  896MOL0     C20840  11.119   2.844   1.369  0.0005 -0.0888  0.5551
  896MOL0     C20841  11.182   2.746   1.275  0.2704  0.3431 -0.5667
  896MOL0     N20842  11.323   2.753   1.277 -0.1772 -0.2582 -0.0750
  896MOL0     C20843  11.409   2.852   1.328 -0.6140 -0.4609 -0.9637
  896MOL0     C20844  11.538   2.816   1.284 -0.1847 -0.3576  0.1378
  896MOL0     C20845  11.660   2.896   1.322 -0.0844  0.5554  0.6674
  896MOL0     C20846  11.649   3.052   1.339 -0.3829 -0.3007 -0.7760
  896MOL0     C20847  11.793   3.104   1.351  0.1532 -1.3283 -0.4051
  896MOL0     C20848  11.806   3.253   1.313 -0.4693 -0.2229  0.6627
  896MOL0     O20849  11.944   3.290   1.320  0.1360  0.4433 -0.3430
  896MOL0     C20850  11.978   3.410   1.266 -0.3447 -0.4817  0.5921
  896MOL0     C20851  11.886   3.514   1.247  0.2193 -0.2855 -0.0591
  896MOL0     C20852  11.923   3.639   1.202  0.0795  0.2293  1.1661
  896MOL0     C20853  11.804   3.741   1.181 -0.1336 -0.5517  0.2152
  896MOL0     C20854  12.060   3.664   1.174  0.0755 -0.4450  1.0293
  896MOL0     C20855  12.111   3.797   1.130  0.2166 -0.6836  0.7995
  896MOL0     O20856  12.248   3.822   1.132  0.0429  0.7918 -0.7152
  896MOL0     C20857  12.281   3.952   1.088  0.2117 -0.0005  0.8624
  896MOL0     C20858  12.261   4.060   1.167 -0.4619 -0.0973  0.9746
  896MOL0     C20859  12.277   4.190   1.123 -1.1425 -0.0478  0.1482
  896MOL0     C20860  12.306   4.219   0.987  1.2880 -0.7237 -0.2609
  896MOL0     O20861  12.304   4.344   0.931  0.2301 -1.1270  0.5909
  896MOL0     C20862  12.438   4.388   0.908 -0.6373  0.2297  0.1800
  896MOL0     C20863  12.435   4.526   0.850  0.8395  0.4903 -0.1663
  896MOL0     C20864  12.354   4.523   0.721 -1.0113  0.6940 -0.2269
  896MOL0     C20865  12.367   4.645   0.629 -0.1636 -1.4052  0.3331
  896MOL0     C20866  12.339   4.785   0.689  0.9809  1.1570 -0.1184
  896MOL0     C20867  12.372   4.898   0.590  0.7896 -0.0252  0.6525
  896MOL0     C20868  12.323   5.026   0.641 -0.1187 -0.4909 -0.7963
  896MOL0     C20869  12.396   5.149   0.584  1.3123 -0.1168 -0.3141
  896MOL0    Cl20870  12.383   5.134   0.407  0.3369 -0.0975 -0.3767
  896MOL0     C20871  12.351   4.108   0.911  0.8882 -0.0035 -0.6940
  896MOL0     C20872  12.348   3.971   0.962  0.3847  0.4456 -0.2566
  896MOL0     O20873  12.029   3.877   1.090  0.3942 -0.0290  0.2625
  896MOL0     C20874  12.153   3.568   1.206  0.6192  0.8903  0.3601
  896MOL0     C20875  12.112   3.436   1.240  0.7011 -0.4796  0.2890
  896MOL0     N20876  11.526   2.699   1.220 -0.6035 -0.6049 -0.3954
  896MOL0     N20877  11.401   2.658   1.228 -0.8174  0.0008  0.7250
  896MOL0     C20878  10.223   2.935   1.665 -0.5025  0.4098  0.0383
  896MOL0     C20879  10.098   2.976   1.668  0.3107 -0.1590  0.0544
  896MOL0     C20880   9.659   3.046   1.798  0.1452 -0.6080  0.5716
  896MOL0     C20881   9.641   3.088   1.663  0.1599 -1.3786 -0.2130
  896MOL0     C20882   9.515   3.162   1.639  0.6430 -0.5059  0.0157
  896MOL0     C20883   9.413   3.164   1.737  0.3397  0.3224 -0.0939
  896MOL0     O20884   9.291   3.221   1.714 -0.3002  0.5697 -0.0028
  896MOL0     C20885   9.209   3.162   1.612 -0.3769  0.1736 -0.1429
  896MOL0     C20886   9.069   3.209   1.615  0.0063  0.6918  1.5780
  896MOL0     C20887   9.003   3.186   1.751  0.4911 -0.5472 -1.3080
  896MOL0     C20888   8.853   3.229   1.753 -0.1513  0.2370  0.0551
  896MOL0     C20889   8.799   3.184   1.879  0.9343  0.3903 -0.1641
  896MOL0     C20890   8.754   3.135   1.978  0.3766 -0.2617  0.4501
  896MOL0     C20891   9.434   3.117   1.862 -0.2060  0.1855  0.8453
  896MOL0     C20892   9.560   3.064   1.894 -0.5618 -0.5017 -0.5309
  896MOL0     H20893  10.021   2.887   1.991 -1.5999  0.2818 -1.3810
  896MOL0     H20894  10.260   2.832   1.989 -0.2999  0.2688 -0.3169
  896MOL0     H20895  10.560   2.722   1.701 -0.7417  0.6018  1.5091
  896MOL0     H20896  10.428   2.738   1.591 -1.5823 -1.6684  1.1151
  896MOL0     H20897  10.512   2.943   1.519 -0.1147 -1.9909  0.0620
  896MOL0     H20898  10.496   2.995   1.687 -1.5611 -2.3614  1.2197
  896MOL0     H20899  10.724   3.031   1.619 -0.9483  0.4933  0.1384
  896MOL0     H20900  10.723   2.883   1.714 -2.6219  0.9319  0.6103
  896MOL0     H20901  10.744   2.737   1.520  2.0626 -0.2182  0.3487
  896MOL0     H20902  10.706   2.860   1.417  0.0018 -1.7829 -0.0456
  896MOL0     H20903  10.923   2.991   1.497  3.6799 -0.3535 -2.2684
  896MOL0     H20904  10.960   2.836   1.586  1.3995  2.5187  0.0895
  896MOL0     H20905  10.949   2.711   1.395  0.8335 -0.6289  3.2666
  896MOL0     H20906  10.918   2.846   1.288  0.1541  0.1958  2.6002
  896MOL0     H20907  11.140   2.946   1.336  1.2418 -0.0058  1.5272
  896MOL0     H20908  11.152   2.827   1.472 -0.5565  2.0818  1.1513
  896MOL0     H20909  11.130   2.764   1.181 -0.6111  1.5246  0.1068
  896MOL0     H20910  11.151   2.646   1.309 -4.0889  1.8638  0.6596
  896MOL0     H20911  11.383   2.929   1.399 -1.1887  0.0731 -1.7315
  896MOL0     H20912  11.700   2.863   1.418 -1.6960  2.2806  2.0125
  896MOL0     H20913  11.722   2.878   1.234 -1.5624  0.3751 -0.3779
  896MOL0     H20914  11.600   3.085   1.432  1.4542 -3.5971  1.5510
  896MOL0     H20915  11.595   3.089   1.251 -4.0698 -0.4787  1.1864
  896MOL0     H20916  11.850   3.057   1.270  3.0887 -0.3145  0.9263
  896MOL0     H20917  11.838   3.103   1.451  1.6697 -2.0117 -1.0605
  896MOL0     H20918  11.742   3.319   1.372  1.0542  2.0909 -0.1167
  896MOL0     H20919  11.774   3.262   1.209 -1.5231  1.9130  1.1208
  896MOL0     H20920  11.782   3.507   1.276 -1.2349 -4.3274 -4.7875
  896MOL0     H20921  11.784   3.757   1.074 -0.4240  2.8731  0.6837
  896MOL0     H20922  11.715   3.702   1.231  1.3530 -0.2717  3.3198
  896MOL0     H20923  11.830   3.836   1.227  1.4115 -0.3946 -0.8984
  896MOL0     H20924  12.234   4.032   1.269  2.4079 -4.7815  0.7129
  896MOL0     H20925  12.251   4.280   1.179  0.0683  0.2213  0.2889
  896MOL0     H20926  12.503   4.387   0.997  0.9668  1.5782 -0.9223
  896MOL0     H20927  12.495   4.320   0.844 -0.9586  1.5600 -1.5788
  896MOL0     H20928  12.404   4.602   0.924  0.0454 -1.4452  1.5859
  896MOL0     H20929  12.540   4.553   0.836  0.9424  1.8895  2.4902
  896MOL0     H20930  12.248   4.504   0.744 -1.0796 -0.5035 -1.3942
  896MOL0     H20931  12.386   4.436   0.663  1.0004 -0.3080  2.2216
  896MOL0     H20932  12.472   4.640   0.597 -0.6344 -0.2979 -1.5478
  896MOL0     H20933  12.304   4.639   0.539 -2.4814  3.4897  1.2801
  896MOL0     H20934  12.384   4.802   0.787 -0.8149 -0.8175  1.1143
  896MOL0     H20935  12.230   4.787   0.696  0.6045 -2.1163 -2.6286
  896MOL0     H20936  12.480   4.910   0.580  0.6301  0.3374 -0.7898
  896MOL0     H20937  12.327   4.881   0.492 -3.5080  3.0260  1.8088
  896MOL0     H20938  12.356   5.027   0.745  3.2344  1.0641 -1.7501
  896MOL0     H20939  12.215   5.040   0.632 -0.3492  2.2193  3.5838
  896MOL0     H20940  12.500   5.147   0.617  1.7210 -2.8499 -1.4808
  896MOL0     H20941  12.355   5.240   0.630  2.2692 -0.3577  1.0637
  896MOL0     H20942  12.390   4.128   0.811 -0.6816  3.2228 -0.7905
  896MOL0     H20943  12.380   3.886   0.902 -0.1092 -1.3393  1.8943
  896MOL0     H20944  12.260   3.588   1.212  0.5308  1.3141  6.4487
  896MOL0     H20945  12.189   3.361   1.253  1.4087 -0.0696 -1.3242
  896MOL0     H20946  10.281   2.954   1.575  0.1038  1.5550  0.6477
  896MOL0     H20947  10.053   3.016   1.578  0.2582 -2.7899 -1.1731
  896MOL0     H20948   9.731   3.092   1.602  0.2290 -0.3194 -0.0513
  896MOL0     H20949   9.499   3.205   1.541  1.1813  0.9309  0.5266
  896MOL0     H20950   9.251   3.196   1.517  0.0887 -0.0714 -0.0319
  896MOL0     H20951   9.210   3.053   1.625 -0.1558  0.2887  0.9128
  896MOL0     H20952   9.010   3.158   1.539  1.4715 -1.6765  1.9451
  896MOL0     H20953   9.073   3.317   1.594  0.6499  0.3767 -0.0910
  896MOL0     H20954   9.059   3.224   1.837  0.3844 -1.3781 -0.8572
  896MOL0     H20955   9.000   3.077   1.764  1.2289 -0.4429 -0.1514
  896MOL0     H20956   8.795   3.195   1.666 -1.6032 -0.1869  1.1506
  896MOL0     H20957   8.854   3.338   1.763 -0.7279  0.3792 -1.2239
  896MOL0     H20958   8.717   3.096   2.071 -3.3121 -1.1519 -1.1865
  896MOL0     H20959   9.351   3.128   1.931  0.7935  2.6887  1.7974
  896MOL0     H20960   9.576   3.020   1.992 -3.5878 -4.0044 -1.3756
  897MOL0     O20961   3.336   7.848   0.906  0.2425  0.6681  0.6540
  897MOL0     C20962   3.292   7.766   0.828 -0.1050 -0.0659 -0.4370
  897MOL0     O20963   3.323   7.752   0.700 -0.3153 -0.0952  0.0218
  897MOL0     C20964   3.400   7.837   0.621 -0.2575  0.4931  0.4576
  897MOL0     C20965   3.473   7.785   0.511  0.4549 -0.3435  1.0267
  897MOL0     C20966   3.539   7.874   0.428  0.3091  0.5937 -0.3483
  897MOL0     C20967   3.541   8.013   0.452  0.0786 -0.2097 -0.1130
  897MOL0     O20968   3.605   8.095   0.364  0.0599  0.2136 -0.3657
  897MOL0     C20969   3.724   8.167   0.418  0.3430  1.2760  0.0647
  897MOL0     C20970   3.735   8.302   0.369  0.1102 -0.7713 -0.1451
  897MOL0     C20971   3.828   8.309   0.248  0.5594 -0.2901  0.1870
  897MOL0     C20972   3.867   8.454   0.215  0.1861  0.0683  0.3534
  897MOL0     C20973   3.931   8.472   0.082 -0.0810 -0.4642 -0.5965
  897MOL0     C20974   3.992   8.604   0.071 -0.6900  0.0662 -0.0915
  897MOL0     C20975   4.030   8.638  -0.079 -0.0832  0.4898 -0.6815
  897MOL0     C20976   4.127   8.536  -0.124  0.2069 -0.6141  0.3461
  897MOL0     N20977   4.219   8.601  -0.223  0.4294 -1.2116 -0.8760
  897MOL0     C20978   4.243   8.548  -0.343 -0.1339 -0.1572  0.5890
  897MOL0     C20979   4.363   8.601  -0.378  0.3361  0.5609 -0.0400
  897MOL0     C20980   4.430   8.552  -0.504  0.3785 -0.4358  0.4516
  897MOL0     C20981   4.500   8.667  -0.569  1.1928  0.1742 -0.1602
  897MOL0     C20982   4.397   8.774  -0.591  0.7793 -0.4672 -0.2634
  897MOL0     C20983   4.459   8.891  -0.668 -0.5129  0.8774  0.2217
  897MOL0     O20984   4.501   8.853  -0.796  0.2605 -0.7174 -0.9657
  897MOL0     C20985   4.552   8.952  -0.878  0.1104 -0.0075  0.1762
  897MOL0     C20986   4.580   8.920  -1.013 -0.2073 -1.0350 -0.4437
  897MOL0     C20987   4.633   9.010  -1.112  0.9049  0.1693  0.7045
  897MOL0     C20988   4.639   8.970  -1.266  0.7722  0.5602 -0.4728
  897MOL0     C20989   4.670   9.140  -1.065  0.3675 -0.0310 -0.2189
  897MOL0     C20990   4.735   9.226  -1.162  0.0685 -0.8894  0.0631
  897MOL0     O20991   4.866   9.243  -1.136  0.1135  0.1153  0.1687
  897MOL0     C20992   4.938   9.334  -1.213 -0.7035 -0.3383 -0.4806
  897MOL0     C20993   5.018   9.290  -1.318 -0.1055 -0.7577 -0.5925
  897MOL0     C20994   5.085   9.390  -1.389 -0.8230 -0.4103 -0.6140
  897MOL0     C20995   5.077   9.525  -1.365 -0.2875 -0.2932  0.2111
  897MOL0     O20996   5.137   9.630  -1.436  0.2979  0.6582  0.4496
  897MOL0     C20997   5.220   9.601  -1.548  0.2206 -0.3109 -0.4255
  897MOL0     C20998   5.278   9.720  -1.611 -0.1852 -0.3339  0.2907
  897MOL0     C20999   5.394   9.685  -1.708  0.5490  0.1919  1.1990
  897MOL0     C21000   5.457   9.820  -1.762  1.2411 -0.2501 -0.1146
  897MOL0     C21001   5.569   9.785  -1.859 -0.2053 -0.8254  0.7177
  897MOL0     C21002   5.606   9.925  -1.927 -0.6484  0.2785 -0.1855
  897MOL0     C21003   5.711   9.913  -2.035 -0.3722  0.2660  1.0901
  897MOL0     C21004   5.746  10.035  -2.126  0.5798  0.8639  0.1038
  897MOL0    Cl21005   5.603  10.089  -2.213 -0.0045  0.2381  0.0864
  897MOL0     C21006   5.007   9.565  -1.251  1.0453 -0.1658  0.0968
  897MOL0     C21007   4.936   9.470  -1.182 -0.6176  0.8520 -0.2037
  897MOL0     O21008   4.663   9.301  -1.212  0.3862  0.0759  0.2571
  897MOL0     C21009   4.666   9.171  -0.928  0.6478  0.6290 -0.0037
  897MOL0     C21010   4.602   9.082  -0.839 -1.1360  0.8311 -0.0190
  897MOL0     N21011   4.412   8.667  -0.269 -0.3132 -0.8846 -0.2446
  897MOL0     N21012   4.325   8.678  -0.179  0.2200  0.4695  0.1133
  897MOL0     C21013   3.486   8.067   0.564 -0.5873  1.7162  0.0094
  897MOL0     C21014   3.404   7.979   0.640  0.7991  0.8758  0.5768
  897MOL0     C21015   3.213   7.651   0.882 -0.5879  0.2289  0.4290
  897MOL0     C21016   3.249   7.610   1.013  0.1622  0.4437 -0.6728
  897MOL0     C21017   3.209   7.478   1.066 -0.5937  0.3258 -0.2154
  897MOL0     C21018   3.127   7.395   0.987 -0.9960  0.0382 -0.6549
  897MOL0     O21019   3.074   7.274   1.032 -0.6328 -0.0007  0.3391
  897MOL0     C21020   3.089   7.219   1.169 -0.1741 -0.3402  0.1238
  897MOL0     C21021   3.010   7.091   1.171  0.5383 -0.3039  0.3270
  897MOL0     C21022   3.036   7.004   1.300  0.0567  0.4724  0.9122
  897MOL0     C21023   3.002   7.067   1.431 -0.5132  0.3570  0.0806
  897MOL0     C21024   3.104   7.168   1.477 -0.3205  0.8467  0.8079
  897MOL0     C21025   3.185   7.258   1.502  0.7789 -0.0635  0.0345
  897MOL0     C21026   3.092   7.444   0.860  0.2482  0.1842 -0.2524
  897MOL0     C21027   3.131   7.573   0.807 -0.7129  0.2607 -0.2739
  897MOL0     H21028   3.477   7.680   0.486 -1.4381 -0.6697  1.8612
  897MOL0     H21029   3.577   7.835   0.335 -5.2266  0.6520 -3.0300
  897MOL0     H21030   3.731   8.165   0.527  1.5767  0.2564 -0.0076
  897MOL0     H21031   3.810   8.109   0.382 -0.8213 -1.2890  1.1713
  897MOL0     H21032   3.632   8.338   0.355  0.5277  1.6067  2.0864
  897MOL0     H21033   3.785   8.359   0.447  0.6008  1.2657 -1.8591
  897MOL0     H21034   3.907   8.237   0.271 -0.0140 -0.4190  1.9202
  897MOL0     H21035   3.775   8.271   0.161 -1.7511 -0.8995  1.7615
  897MOL0     H21036   3.778   8.518   0.216 -0.7789 -1.2395  1.6941
  897MOL0     H21037   3.942   8.499   0.281  0.5936  0.0695 -0.1077
  897MOL0     H21038   4.012   8.400   0.068  2.0480  0.9638  3.0058
  897MOL0     H21039   3.856   8.449   0.006 -0.7800  1.7604 -0.6283
  897MOL0     H21040   3.908   8.662   0.111 -0.7145 -1.6690  2.6744
  897MOL0     H21041   4.078   8.621   0.137 -2.2627  2.5566  1.4968
  897MOL0     H21042   3.944   8.640  -0.147 -0.9765 -0.4636  0.3789
  897MOL0     H21043   4.073   8.739  -0.074 -0.2079  0.4841  1.5778
  897MOL0     H21044   4.074   8.452  -0.169  0.9119 -1.3971  0.9478
  897MOL0     H21045   4.192   8.496  -0.046  1.2375 -0.2472 -0.3037
  897MOL0     H21046   4.185   8.483  -0.407  0.6897 -0.5903  0.2667
  897MOL0     H21047   4.509   8.487  -0.465 -1.2145 -0.6420  3.6085
  897MOL0     H21048   4.377   8.505  -0.587  2.6424 -1.1199 -0.6934
  897MOL0     H21049   4.554   8.647  -0.662  0.9001  0.5685 -0.4214
  897MOL0     H21050   4.583   8.690  -0.502  2.6493  2.3624 -2.4921
  897MOL0     H21051   4.356   8.815  -0.498  0.9472 -0.4941 -0.1764
  897MOL0     H21052   4.310   8.749  -0.653  0.4591  1.7850 -0.8264
  897MOL0     H21053   4.546   8.921  -0.609 -1.2268  1.2305  1.1148
  897MOL0     H21054   4.387   8.971  -0.682 -0.3853  0.3761 -5.8237
  897MOL0     H21055   4.545   8.820  -1.036  1.9860 -2.1101  0.5887
  897MOL0     H21056   4.538   8.949  -1.302  1.8424 -1.6632 -2.5449
  897MOL0     H21057   4.680   9.038  -1.341  0.6552 -0.5766 -1.6189
  897MOL0     H21058   4.697   8.877  -1.273 -2.5788 -1.7653  0.4022
  897MOL0     H21059   5.023   9.187  -1.353  0.1809 -1.3094  0.9930
  897MOL0     H21060   5.130   9.354  -1.481 -1.6220  0.3162 -1.3139
  897MOL0     H21061   5.299   9.527  -1.529  0.2051 -0.1651  0.2455
  897MOL0     H21062   5.155   9.550  -1.620 -1.5737 -0.5548  1.2886
  897MOL0     H21063   5.204   9.770  -1.674  2.6606  2.7482 -0.8689
  897MOL0     H21064   5.313   9.788  -1.532 -1.1469  0.9035 -0.3120
  897MOL0     H21065   5.353   9.627  -1.792  0.6168 -2.0652  2.6270
  897MOL0     H21066   5.472   9.622  -1.663  1.6198  0.7753  0.2132
  897MOL0     H21067   5.373   9.863  -1.817  0.6191 -2.6012 -1.1250
  897MOL0     H21068   5.492   9.890  -1.685 -1.0944  1.3000 -0.3693
  897MOL0     H21069   5.547   9.711  -1.935  2.3725 -0.2318 -0.7237
  897MOL0     H21070   5.654   9.747  -1.802 -1.5309 -1.4253  2.3709
  897MOL0     H21071   5.524   9.973  -1.981 -0.5871  1.3830  0.6876
  897MOL0     H21072   5.636   9.996  -1.851  1.4009 -1.7267  1.0266
  897MOL0     H21073   5.686   9.832  -2.103 -1.2748  0.7038  0.8764
  897MOL0     H21074   5.804   9.889  -1.983 -0.2391 -1.2972  0.1764
  897MOL0     H21075   5.824  10.003  -2.196  1.2430  3.2844 -0.3570
  897MOL0     H21076   5.794  10.102  -2.054  3.4965 -1.9421  1.0140
  897MOL0     H21077   5.005   9.666  -1.212 -0.1148  0.6098 -1.7738
  897MOL0     H21078   4.873   9.486  -1.095  0.4037 -1.2501  0.9980
  897MOL0     H21079   4.703   9.263  -0.885  1.2043  0.8666 -0.9715
  897MOL0     H21080   4.588   9.124  -0.740  1.8005 -1.5511  1.5922
  897MOL0     H21081   3.503   8.172   0.588 -1.3336  2.1178 -1.1033
  897MOL0     H21082   3.352   8.009   0.730 -1.1082 -2.2337  0.6747
  897MOL0     H21083   3.319   7.673   1.067  2.0598  0.3417 -2.8751
  897MOL0     H21084   3.237   7.441   1.164 -1.2698 -0.7325 -0.4086
  897MOL0     H21085   3.189   7.185   1.199 -1.0112 -1.7486  1.4456
  897MOL0     H21086   3.055   7.302   1.231 -1.8726  0.4285 -1.7336
  897MOL0     H21087   3.017   7.045   1.072 -4.1979 -1.1348  0.1377
  897MOL0     H21088   2.905   7.124   1.172  0.5409 -0.1813  2.7023
  897MOL0     H21089   3.142   6.976   1.307  0.2119  0.3802 -1.0846
  897MOL0     H21090   2.972   6.915   1.302 -0.6862  0.9948  0.8192
  897MOL0     H21091   2.990   6.987   1.505  2.2501  0.2849  0.5650
  897MOL0     H21092   2.909   7.122   1.419 -0.3551 -0.0073 -3.9486
  897MOL0     H21093   3.259   7.335   1.510  0.0800  1.0945 -3.1771
  897MOL0     H21094   3.042   7.373   0.796 -2.3031  0.9239  0.7849
  897MOL0     H21095   3.113   7.612   0.708 -0.9871 -1.7071 -1.0402
  898MOL0     O21096   7.736   9.030   5.847  0.3363  0.2300 -0.2288
  898MOL0     C21097   7.853   9.004   5.840 -0.9407  0.3917  0.9384
  898MOL0     O21098   7.937   9.055   5.753  0.1266 -0.0144 -0.8063
  898MOL0     C21099   7.890   9.118   5.648 -0.0757 -0.1011  0.2933
  898MOL0     C21100   7.886   9.058   5.521  0.8353 -0.2060 -0.3274
  898MOL0     C21101   7.850   9.122   5.408 -0.3549  0.6220  0.7958
  898MOL0     C21102   7.806   9.254   5.417  0.2683  0.1763  0.2584
  898MOL0     O21103   7.755   9.340   5.322  0.2824  0.0576  0.8544
  898MOL0     C21104   7.744   9.284   5.189 -0.1267 -0.1673  0.6225
  898MOL0     C21105   7.663   9.381   5.093  0.0733  0.7119 -0.1060
  898MOL0     C21106   7.712   9.525   5.089 -0.1062 -0.2712  0.2775
  898MOL0     C21107   7.654   9.626   5.188 -0.5745  0.0351 -0.6510
  898MOL0     C21108   7.503   9.651   5.146  1.0366 -0.5327 -0.1986
  898MOL0     C21109   7.465   9.782   5.199  0.4799 -0.3031 -1.3164
  898MOL0     C21110   7.319   9.826   5.180  0.3970 -0.1364  0.8227
  898MOL0     C21111   7.217   9.718   5.234 -0.2096  0.4475 -0.2115
  898MOL0     N21112   7.222   9.749   5.378 -0.3342  0.0331  0.4585
  898MOL0     C21113   7.250   9.664   5.477 -0.1238  0.0996 -0.0222
  898MOL0     C21114   7.225   9.728   5.590  0.4625 -0.0670  0.8548
  898MOL0     C21115   7.242   9.661   5.725  0.1218 -0.9281 -0.3156
  898MOL0     C21116   7.125   9.706   5.807 -0.2214 -0.7395  0.4710
  898MOL0     C21117   7.116   9.626   5.936  0.5878  0.1163  0.1567
  898MOL0     C21118   7.028   9.510   5.942 -0.1776 -0.2939 -0.6684
  898MOL0     O21119   6.893   9.549   5.931 -0.1565  0.5131  0.5759
  898MOL0     C21120   6.800   9.455   5.927  0.2285  0.0864  0.6948
  898MOL0     C21121   6.673   9.496   5.875  0.1802 -0.3778  0.1095
  898MOL0     C21122   6.561   9.416   5.867  0.3777  0.5898 -0.8653
  898MOL0     C21123   6.445   9.458   5.791  0.4638  0.2278 -0.1189
  898MOL0     C21124   6.572   9.284   5.920 -1.0690  0.1776 -0.8076
  898MOL0     C21125   6.465   9.184   5.913  0.7414  0.1404 -0.0167
  898MOL0     O21126   6.339   9.223   5.889  0.3868 -0.1653  0.2286
  898MOL0     C21127   6.241   9.126   5.899 -0.3135 -0.3011  0.0178
  898MOL0     C21128   6.227   9.050   6.015  1.4079 -0.7995 -0.6066
  898MOL0     C21129   6.112   8.966   6.031  0.8917 -0.0610 -0.5475
  898MOL0     C21130   6.013   8.956   5.934 -0.4024  0.9420 -0.6545
  898MOL0     O21131   5.900   8.886   5.948 -0.5538 -0.3286  0.1034
  898MOL0     C21132   5.901   8.751   6.001 -0.6979 -0.3367 -0.0229
  898MOL0     C21133   5.769   8.685   5.986  1.1995  0.7888  0.1592
  898MOL0     C21134   5.712   8.696   5.841 -0.0337 -0.3606  0.1932
  898MOL0     C21135   5.576   8.635   5.826  0.5280  0.2115  0.3561
  898MOL0     C21136   5.480   8.719   5.725  0.2082  0.2239 -0.4312
  898MOL0     C21137   5.448   8.858   5.784  0.2879 -0.0905 -0.1518
  898MOL0     C21138   5.349   8.945   5.707  0.0155 -0.0519 -0.1297
  898MOL0     C21139   5.203   8.896   5.713 -0.1658 -0.0455  0.5580
  898MOL0    Cl21140   5.152   8.804   5.857 -0.2946  0.0779  0.3813
  898MOL0     C21141   6.033   9.033   5.821 -0.6557 -1.2749  0.2257
  898MOL0     C21142   6.145   9.122   5.801 -0.0029  0.3733  0.6220
  898MOL0     O21143   6.492   9.073   5.960  0.1194 -0.0340  0.2164
  898MOL0     C21144   6.700   9.246   5.969  0.1271  0.3370 -1.2214
  898MOL0     C21145   6.803   9.324   5.981  0.6623  0.7323  0.2656
  898MOL0     N21146   7.179   9.854   5.564 -0.2009 -0.0653 -0.0088
  898MOL0     N21147   7.160   9.862   5.441 -0.3044 -0.5527 -0.4383
  898MOL0     C21148   7.804   9.313   5.542 -0.7444  0.5711 -0.1075
  898MOL0     C21149   7.840   9.249   5.658 -0.5790 -0.5923  0.4561
  898MOL0     C21150   7.910   8.934   5.957 -1.1441 -0.6800 -0.4622
  898MOL0     C21151   7.837   8.898   6.069 -0.1727  0.1550 -0.3006
  898MOL0     C21152   7.899   8.832   6.172 -0.3186 -0.4616  0.1595
  898MOL0     C21153   8.033   8.784   6.174 -0.7238 -0.2261  0.1918
  898MOL0     O21154   8.096   8.722   6.276  0.0707  0.0375 -0.1368
  898MOL0     C21155   8.225   8.648   6.252  0.3819 -0.5036 -0.2067
  898MOL0     C21156   8.247   8.567   6.378  0.0407 -0.0050 -0.5735
  898MOL0     C21157   8.152   8.449   6.384 -0.6091 -0.3361 -0.2088
  898MOL0     C21158   8.171   8.340   6.490 -0.1766 -0.2291 -0.9462
  898MOL0     C21159   8.157   8.204   6.452 -0.0393  0.4016  0.8430
  898MOL0     C21160   8.164   8.088   6.409 -0.7127 -0.1125 -0.9650
  898MOL0     C21161   8.109   8.816   6.059 -0.6676 -0.5808 -0.0814
  898MOL0     C21162   8.047   8.892   5.955 -0.9902 -0.4806  0.3889
  898MOL0     H21163   7.922   8.956   5.515 -0.8671 -0.8269 -0.7740
  898MOL0     H21164   7.847   9.067   5.314  4.5587 -1.2133  1.3953
  898MOL0     H21165   7.845   9.276   5.147 -0.3741  0.4281 -0.1034
  898MOL0     H21166   7.701   9.183   5.185 -1.0324 -0.0008  3.4787
  898MOL0     H21167   7.684   9.334   4.997 -0.7284 -2.1375  1.0100
  898MOL0     H21168   7.555   9.380   5.109 -0.4573  1.3928 -3.1632
  898MOL0     H21169   7.821   9.526   5.078 -0.1669 -3.5291 -2.3653
  898MOL0     H21170   7.673   9.548   4.989 -2.5311 -4.7714 -0.1008
  898MOL0     H21171   7.662   9.589   5.290 -2.5384 -0.4242 -0.6207
  898MOL0     H21172   7.723   9.711   5.183 -1.0014  0.3948 -0.4790
  898MOL0     H21173   7.493   9.655   5.037 -0.7631 -1.7683 -0.1268
  898MOL0     H21174   7.443   9.572   5.192  1.4285  0.3289  1.9019
  898MOL0     H21175   7.479   9.797   5.306  1.4034  2.7405 -1.7631
  898MOL0     H21176   7.531   9.850   5.144  0.1311  0.6744 -0.5505
  898MOL0     H21177   7.306   9.926   5.223 -4.8824  2.1214 -4.6377
  898MOL0     H21178   7.306   9.834   5.072  2.2028  0.3188  0.6021
  898MOL0     H21179   7.255   9.617   5.216  1.2826  1.1512 -1.2443
  898MOL0     H21180   7.114   9.720   5.198 -0.3343 -0.7401  0.0317
  898MOL0     H21181   7.277   9.561   5.459  0.2175 -0.2470  2.2161
  898MOL0     H21182   7.249   9.552   5.712  1.0291 -0.6253 -2.8713
  898MOL0     H21183   7.344   9.687   5.755  0.6735 -2.5293 -0.6691
  898MOL0     H21184   7.039   9.699   5.741  1.9196 -0.4411 -2.5921
  898MOL0     H21185   7.139   9.814   5.824  1.1564 -0.8505  0.2174
  898MOL0     H21186   7.092   9.699   6.014 -3.2580 -0.2942 -0.4423
  898MOL0     H21187   7.216   9.585   5.956  1.4519  1.5766 -0.9026
  898MOL0     H21188   7.052   9.454   6.032 -0.1449 -0.9273 -1.0599
  898MOL0     H21189   7.060   9.447   5.858 -1.7125  1.4494 -2.6812
  898MOL0     H21190   6.674   9.594   5.830 -1.5862 -0.2745  0.2393
  898MOL0     H21191   6.460   9.555   5.742 -1.0280  0.3639 -0.3550
  898MOL0     H21192   6.428   9.385   5.711  1.7621 -0.6154  0.3576
  898MOL0     H21193   6.357   9.474   5.855  2.2915 -0.8555  2.8745
  898MOL0     H21194   6.295   9.065   6.098  0.5023 -0.4188  0.0848
  898MOL0     H21195   6.108   8.915   6.127 -1.1028 -1.8450 -1.4954
  898MOL0     H21196   5.984   8.686   5.972 -1.4236 -1.9590  1.3738
  898MOL0     H21197   5.923   8.762   6.107 -0.0096 -0.2946 -0.1670
  898MOL0     H21198   5.769   8.578   6.008 -0.6757  1.2408  3.0360
  898MOL0     H21199   5.697   8.732   6.054  1.4980 -1.5705  2.2504
  898MOL0     H21200   5.777   8.648   5.767  0.0808  0.1304 -0.0238
  898MOL0     H21201   5.715   8.800   5.810  1.6993 -0.0746  1.1798
  898MOL0     H21202   5.585   8.537   5.780  2.9602  0.5987 -0.1170
  898MOL0     H21203   5.523   8.629   5.921 -1.3845 -0.5033 -0.6934
  898MOL0     H21204   5.386   8.663   5.727  0.8682 -1.1602  4.1416
  898MOL0     H21205   5.510   8.709   5.621 -0.0179  5.2309 -1.2162
  898MOL0     H21206   5.418   8.853   5.889  0.4331  4.0819  0.2751
  898MOL0     H21207   5.539   8.918   5.781  0.7864 -0.8538 -0.7628
  898MOL0     H21208   5.378   8.953   5.602  4.9654  1.7157  1.1237
  898MOL0     H21209   5.354   9.042   5.756 -3.3744 -0.3233  1.0251
  898MOL0     H21210   5.194   8.838   5.621  0.8141  3.0003 -1.6574
  898MOL0     H21211   5.154   8.994   5.715  1.6206  0.8953  1.6844
  898MOL0     H21212   5.963   9.040   5.738 -0.4607  3.6373  0.2032
  898MOL0     H21213   6.150   9.160   5.699 -2.2485  0.9026  0.6418
  898MOL0     H21214   6.707   9.146   6.010 -2.1673  0.2031 -1.0435
  898MOL0     H21215   6.890   9.284   6.032 -0.5431 -1.5486  0.6627
  898MOL0     H21216   7.775   9.415   5.563 -2.0025 -0.4445  3.9796
  898MOL0     H21217   7.836   9.287   5.760  0.3333  0.6448  0.0614
  898MOL0     H21218   7.734   8.930   6.076  0.4745  2.0301  1.9870
  898MOL0     H21219   7.843   8.823   6.265  0.8330  3.2184  1.3741
  898MOL0     H21220   8.226   8.592   6.158  2.4445  0.0085 -0.5554
  898MOL0     H21221   8.315   8.711   6.250  0.8112 -1.1098 -1.5733
  898MOL0     H21222   8.249   8.624   6.471 -1.9337  1.6229 -1.4284
  898MOL0     H21223   8.351   8.534   6.382  1.9013  5.0963  1.7524
  898MOL0     H21224   8.146   8.391   6.292 -1.3391 -2.0829  0.8843
  898MOL0     H21225   8.054   8.496   6.397 -1.3282 -0.8213 -3.2492
  898MOL0     H21226   8.109   8.361   6.577  2.6138  2.0185  0.6696
  898MOL0     H21227   8.276   8.344   6.518 -0.5104 -1.8702  0.7205
  898MOL0     H21228   8.138   7.988   6.381 -3.4993 -0.6929  2.8921
  898MOL0     H21229   8.212   8.783   6.046  0.3130  1.7926  1.0309
  898MOL0     H21230   8.104   8.928   5.869 -2.2730 -2.0514 -1.1771
  899MOL0     O21231   5.348   3.483   6.445 -0.9576 -0.5062 -0.0626
  899MOL0     C21232   5.313   3.370   6.425  0.6066 -0.1605 -0.4960
  899MOL0     O21233   5.209   3.327   6.348  0.1269  0.0731  0.0158
  899MOL0     C21234   5.145   3.429   6.282  0.3263 -0.0403  0.3068
  899MOL0     C21235   5.200   3.471   6.161  0.1220  0.0802  0.3738
  899MOL0     C21236   5.155   3.584   6.086  0.3930  0.6356 -1.1065
  899MOL0     C21237   5.046   3.647   6.130 -0.0901 -0.0892 -0.4985
  899MOL0     O21238   4.985   3.743   6.061 -0.3215  0.1595  0.1370
  899MOL0     C21239   5.029   3.795   5.938  0.1869  0.4015  0.2819
  899MOL0     C21240   4.920   3.893   5.881  0.6827  0.2405 -0.5142
  899MOL0     C21241   4.936   3.957   5.744 -1.2020 -0.1849 -0.1185
  899MOL0     C21242   4.957   3.859   5.628  0.0410 -0.3788 -0.2385
  899MOL0     C21243   4.822   3.789   5.599 -0.2101 -0.1817 -0.4598
  899MOL0     C21244   4.825   3.683   5.490  0.3733 -1.0970 -0.8633
  899MOL0     C21245   4.855   3.732   5.348 -0.0387 -0.4318  0.1565
  899MOL0     C21246   4.740   3.809   5.293  0.6667 -1.0780  0.3178
  899MOL0     N21247   4.614   3.739   5.284 -0.3024  0.5598 -0.8354
  899MOL0     C21248   4.567   3.676   5.166 -0.0118 -0.3326 -0.3624
  899MOL0     C21249   4.434   3.659   5.185 -1.4881  0.5165  0.4863
  899MOL0     C21250   4.343   3.578   5.102 -0.3346  0.3306  0.8689
  899MOL0     C21251   4.273   3.664   4.994  0.3846 -0.9030 -0.2419
  899MOL0     C21252   4.123   3.626   4.994 -0.1062 -0.4556 -0.7864
  899MOL0     C21253   4.096   3.483   4.941 -0.2740  0.4309 -0.6645
  899MOL0     O21254   3.959   3.430   4.952 -0.3390 -0.7104 -0.6846
  899MOL0     C21255   3.871   3.493   5.039 -0.1586 -0.8030 -0.1652
  899MOL0     C21256   3.893   3.493   5.179  1.4166  0.4785 -0.5771
  899MOL0     C21257   3.814   3.574   5.262 -0.3810  0.5923  0.8943
  899MOL0     C21258   3.861   3.582   5.402 -0.1888  0.9182  0.0192
  899MOL0     C21259   3.699   3.637   5.207 -0.1946  0.7487  0.6391
  899MOL0     C21260   3.601   3.715   5.291  0.2580 -0.6355  0.5248
  899MOL0     O21261   3.517   3.802   5.231  0.0417 -0.6391 -0.0567
  899MOL0     C21262   3.402   3.864   5.296  0.5716  0.5332  0.3687
  899MOL0     C21263   3.314   3.800   5.383  1.1290 -0.2428 -0.2479
  899MOL0     C21264   3.205   3.866   5.448 -0.0440  0.3618 -0.4511
  899MOL0     C21265   3.184   3.999   5.410 -0.1989 -0.6925 -0.1128
  899MOL0     O21266   3.073   4.060   5.461 -0.0382 -0.6732 -0.7073
  899MOL0     C21267   3.085   4.206   5.480  0.0866  0.4191  0.3226
  899MOL0     C21268   2.984   4.262   5.581  0.0275 -0.6696  0.6773
  899MOL0     C21269   2.838   4.214   5.547  0.4320 -0.2773  0.0093
  899MOL0     C21270   2.722   4.266   5.637 -0.3724 -0.3841  0.9094
  899MOL0     C21271   2.589   4.223   5.568  1.0257 -0.4865 -0.3913
  899MOL0     C21272   2.458   4.257   5.644 -0.3167 -1.2985 -0.0325
  899MOL0     C21273   2.339   4.172   5.589 -0.3829 -0.6334 -0.3243
  899MOL0     C21274   2.211   4.180   5.675 -0.2614 -0.8264  0.0043
  899MOL0    Cl21275   2.093   4.110   5.569  0.2115  0.5847 -0.3357
  899MOL0     C21276   3.265   4.058   5.314  0.6536  0.4643  0.3603
  899MOL0     C21277   3.371   3.994   5.259  0.2148  1.0148  0.0796
  899MOL0     O21278   3.594   3.676   5.399 -0.0864 -0.4097 -0.3752
  899MOL0     C21279   3.662   3.613   5.073  0.2611  0.3274 -0.3994
  899MOL0     C21280   3.752   3.549   4.990 -0.2972  0.1108  0.6888
  899MOL0     N21281   4.404   3.713   5.304  0.4468 -0.0423  0.3329
  899MOL0     N21282   4.506   3.759   5.360  0.2825 -0.1937  0.2011
  899MOL0     C21283   4.981   3.607   6.250 -0.1437 -0.1031 -0.6972
  899MOL0     C21284   5.030   3.492   6.322  0.2401 -0.3762 -0.5227
  899MOL0     C21285   5.387   3.257   6.490  0.8577 -0.3374 -0.4793
  899MOL0     C21286   5.524   3.264   6.520  0.2687 -0.0357  0.7239
  899MOL0     C21287   5.585   3.170   6.591 -0.4265 -0.3567 -0.5197
  899MOL0     C21288   5.517   3.053   6.624 -0.3816 -0.2626 -0.4170
  899MOL0     O21289   5.584   2.955   6.675 -0.4246  0.7294  0.5513
  899MOL0     C21290   5.539   2.825   6.656  0.9951  0.6554 -0.4240
  899MOL0     C21291   5.630   2.720   6.719  0.2714  0.4280 -0.2661
  899MOL0     C21292   5.572   2.574   6.708  0.6125  0.2778 -0.4033
  899MOL0     C21293   5.476   2.545   6.827  1.1925  0.0672 -0.1942
  899MOL0     C21294   5.535   2.549   6.966 -0.1879 -0.0541 -0.2248
  899MOL0     C21295   5.568   2.534   7.084  0.8690  0.0026  0.1294
  899MOL0     C21296   5.375   3.040   6.597 -0.5165 -0.0970  0.1758
  899MOL0     C21297   5.314   3.145   6.533 -0.2502 -0.5076  0.4002
  899MOL0     H21298   5.288   3.431   6.112  0.1839  0.9579 -0.2612
  899MOL0     H21299   5.201   3.608   5.991  4.5579  0.4378  0.6669
  899MOL0     H21300   5.127   3.844   5.942  0.8415 -0.0365 -4.2667
  899MOL0     H21301   5.041   3.720   5.859 -0.9791  2.3692 -1.8879
  899MOL0     H21302   4.820   3.848   5.878  1.3545 -1.5505  1.7058
  899MOL0     H21303   4.900   3.966   5.959  1.4348 -1.0950  0.9773
  899MOL0     H21304   4.845   4.017   5.733 -1.3640 -0.5730 -0.9895
  899MOL0     H21305   5.024   4.021   5.747 -1.0562 -0.3976  0.1077
  899MOL0     H21306   4.972   3.918   5.537 -0.4249 -0.3320 -0.2866
  899MOL0     H21307   5.044   3.795   5.643  0.1163 -0.0963  0.5353
  899MOL0     H21308   4.774   3.748   5.688 -2.7244  1.7897 -0.7672
  899MOL0     H21309   4.756   3.872   5.570 -1.2827 -1.3651 -1.5582
  899MOL0     H21310   4.904   3.616   5.524  2.7462  1.6495 -0.5498
  899MOL0     H21311   4.736   3.620   5.497  0.0018 -0.6204 -1.1901
  899MOL0     H21312   4.947   3.790   5.334  0.1424 -0.4082  1.3614
  899MOL0     H21313   4.885   3.645   5.289  2.3352 -0.2083  0.9165
  899MOL0     H21314   4.770   3.838   5.192  0.4841  0.0220  0.5686
  899MOL0     H21315   4.735   3.900   5.352  0.5944 -1.6648  1.2388
  899MOL0     H21316   4.636   3.648   5.086  1.8041  1.3146  0.5191
  899MOL0     H21317   4.394   3.499   5.047 -2.5093  0.2732 -1.2046
  899MOL0     H21318   4.275   3.518   5.163  0.9789 -3.4865 -1.0968
  899MOL0     H21319   4.326   3.665   4.898  0.1534  1.4294 -0.4067
  899MOL0     H21320   4.276   3.767   5.030  2.9585 -0.2992 -1.8899
  899MOL0     H21321   4.060   3.698   4.942 -3.7601 -1.0377  2.3672
  899MOL0     H21322   4.076   3.640   5.092 -2.8464 -3.6149 -1.4784
  899MOL0     H21323   4.159   3.417   5.002  1.6806  1.5606 -1.3712
  899MOL0     H21324   4.131   3.486   4.837  4.3335  0.2653  0.6834
  899MOL0     H21325   3.980   3.435   5.210  1.0526  0.0878 -0.2709
  899MOL0     H21326   3.814   3.513   5.473  1.1660 -1.0709 -0.9185
  899MOL0     H21327   3.967   3.559   5.414 -0.4619 -2.1328 -2.1490
  899MOL0     H21328   3.836   3.679   5.446  2.7963  1.9653 -0.3506
  899MOL0     H21329   3.331   3.703   5.430 -1.5834 -0.5052  0.3391
  899MOL0     H21330   3.134   3.808   5.506  0.8612 -2.4262 -1.9515
  899MOL0     H21331   3.185   4.232   5.517  0.5653 -0.4046 -0.3534
  899MOL0     H21332   3.086   4.254   5.382  1.0131 -1.1134 -0.4522
  899MOL0     H21333   3.024   4.227   5.677 -1.9414 -2.0665  1.0552
  899MOL0     H21334   2.978   4.370   5.570  0.3237 -0.6886  0.2799
  899MOL0     H21335   2.833   4.105   5.549  1.5711 -0.3341  1.0908
  899MOL0     H21336   2.819   4.245   5.444  0.5992 -1.3158 -0.3473
  899MOL0     H21337   2.723   4.224   5.739 -0.8782  0.9431  1.4807
  899MOL0     H21338   2.732   4.374   5.650  1.6509 -0.6186  1.8282
  899MOL0     H21339   2.592   4.114   5.553  0.7671 -0.2297 -2.6283
  899MOL0     H21340   2.578   4.264   5.468 -2.0969 -1.6493 -0.6275
  899MOL0     H21341   2.465   4.242   5.752  3.2684  0.0435  0.0553
  899MOL0     H21342   2.439   4.364   5.633  1.2831 -0.5051  3.4338
  899MOL0     H21343   2.385   4.073   5.583  0.1840 -0.3561 -0.7237
  899MOL0     H21344   2.321   4.193   5.483  1.4648 -2.3520 -1.0514
  899MOL0     H21345   2.179   4.283   5.688  0.0913 -0.6644 -0.4063
  899MOL0     H21346   2.234   4.125   5.768  0.0842 -1.8613 -0.6716
  899MOL0     H21347   3.230   4.148   5.263 -0.7750 -0.3819 -0.2253
  899MOL0     H21348   3.433   4.033   5.179  0.5607 -1.1042 -0.7454
  899MOL0     H21349   3.567   3.645   5.031  1.2654 -1.2102 -4.2771
  899MOL0     H21350   3.727   3.546   4.884  0.5234  2.9443  0.3333
  899MOL0     H21351   4.892   3.659   6.282  0.4293  0.2416  0.3694
  899MOL0     H21352   4.981   3.455   6.411  0.7279  0.0817 -0.0595
  899MOL0     H21353   5.582   3.355   6.505 -2.2417  1.5512  0.0721
  899MOL0     H21354   5.685   3.179   6.634 -1.3484  2.9273  1.2157
  899MOL0     H21355   5.438   2.811   6.696  0.1159 -0.1595 -2.7689
  899MOL0     H21356   5.528   2.798   6.551 -0.7566 -3.7024  0.6771
  899MOL0     H21357   5.647   2.743   6.825  0.0838 -0.3941 -0.0457
  899MOL0     H21358   5.727   2.719   6.670  0.2778 -0.5852 -0.2496
  899MOL0     H21359   5.658   2.506   6.712  1.0333  0.8029 -0.4310
  899MOL0     H21360   5.523   2.565   6.611  0.7445 -1.9588 -0.3116
  899MOL0     H21361   5.429   2.450   6.800  2.1078 -0.2806 -0.6118
  899MOL0     H21362   5.400   2.623   6.812  0.9634  0.4251  2.3862
  899MOL0     H21363   5.604   2.536   7.185 -0.1752  3.4456  0.5502
  899MOL0     H21364   5.314   2.961   6.637  1.6315 -3.8322 -3.0962
  899MOL0     H21365   5.209   3.128   6.512 -0.1187 -1.1610  0.2478
  900MOL0     O21366   7.197   8.665   0.321  0.7503 -0.1072 -1.0625
  900MOL0     C21367   7.272   8.609   0.244 -0.1597  0.7411 -0.2112
  900MOL0     O21368   7.252   8.614   0.115 -0.4214  0.2992  0.1993
  900MOL0     C21369   7.142   8.661   0.055  0.8641 -0.3721  0.1330
  900MOL0     C21370   7.152   8.733  -0.069  0.7932  0.1460 -0.5019
  900MOL0     C21371   7.034   8.773  -0.127 -0.1148 -0.0574 -0.6933
  900MOL0     C21372   6.903   8.757  -0.069 -0.4269 -0.3843  0.3001
  900MOL0     O21373   6.796   8.792  -0.136 -0.2965 -0.4957 -0.0805
  900MOL0     C21374   6.717   8.685  -0.173 -0.4716 -0.3719 -0.1264
  900MOL0     C21375   6.623   8.737  -0.284 -0.0534 -0.4181  0.3336
  900MOL0     C21376   6.498   8.643  -0.293 -0.5580  0.2888 -0.4142
  900MOL0     C21377   6.368   8.705  -0.339  0.3252  0.2712  0.1689
  900MOL0     C21378   6.387   8.795  -0.464  1.2482 -0.1150  0.4171
  900MOL0     C21379   6.265   8.797  -0.563 -0.3632  0.8569  0.3366
  900MOL0     C21380   6.133   8.862  -0.504 -0.0926 -0.5765 -0.3524
  900MOL0     C21381   6.036   8.933  -0.601  1.1238 -0.0384  0.4732
  900MOL0     N21382   5.986   8.840  -0.704 -0.0655 -0.0125 -0.4636
  900MOL0     C21383   5.911   8.733  -0.684  0.0318  0.0468 -0.2367
  900MOL0     C21384   5.899   8.667  -0.803  0.1486  0.0299 -0.1081
  900MOL0     C21385   5.843   8.529  -0.838 -0.4301 -0.2490  0.7840
  900MOL0     C21386   5.693   8.534  -0.851 -0.1959 -0.2593 -0.6801
  900MOL0     C21387   5.642   8.630  -0.958  0.3285  0.3559 -0.5099
  900MOL0     C21388   5.487   8.656  -0.974 -1.1152  0.1467  0.6130
  900MOL0     O21389   5.410   8.537  -1.007  0.2529 -0.5301 -0.5823
  900MOL0     C21390   5.271   8.555  -1.015  0.4513 -1.3390  0.0345
  900MOL0     C21391   5.190   8.671  -1.012 -0.5537  0.1601  0.2204
  900MOL0     C21392   5.056   8.675  -1.048 -0.2222  0.0854  0.5575
  900MOL0     C21393   4.996   8.807  -1.065 -0.2363  0.4329  0.4383
  900MOL0     C21394   4.984   8.556  -1.076 -0.5250 -0.2880 -0.3322
  900MOL0     C21395   4.844   8.544  -1.115  0.5612  0.1859 -0.5830
  900MOL0     O21396   4.751   8.630  -1.077 -0.1586 -0.3791 -0.1494
  900MOL0     C21397   4.619   8.604  -1.115  0.3172  0.1122 -0.8256
  900MOL0     C21398   4.576   8.626  -1.243 -0.4954  0.7745  0.4245
  900MOL0     C21399   4.445   8.601  -1.284  0.4469  0.0552  1.0430
  900MOL0     C21400   4.338   8.566  -1.187  0.0596  1.0027  1.0281
  900MOL0     O21401   4.205   8.557  -1.229  0.4638  0.2474 -0.7860
  900MOL0     C21402   4.173   8.589  -1.361  0.8740 -0.5087 -0.0124
  900MOL0     C21403   4.032   8.538  -1.388  0.4956 -0.5873 -0.9234
  900MOL0     C21404   3.922   8.577  -1.285  0.8385  0.7614  0.1719
  900MOL0     C21405   3.918   8.723  -1.229 -0.1518  0.2867 -0.0232
  900MOL0     C21406   3.897   8.827  -1.334  0.0215  0.1486  0.1139
  900MOL0     C21407   3.773   8.795  -1.421 -0.0536 -0.0593  0.7704
  900MOL0     C21408   3.752   8.911  -1.521  0.9162  0.9613  0.1789
  900MOL0     C21409   3.833   8.892  -1.647 -0.1666  0.6950 -1.2919
  900MOL0    Cl21410   3.763   8.756  -1.743  0.2559 -0.2467  0.0241
  900MOL0     C21411   4.383   8.542  -1.055 -0.4836  0.0204 -0.0338
  900MOL0     C21412   4.521   8.560  -1.022  0.2614  0.2961 -0.2310
  900MOL0     O21413   4.815   8.436  -1.170  0.2576  0.3016  0.0852
  900MOL0     C21414   5.064   8.443  -1.075 -0.6765  0.0623  0.0736
  900MOL0     C21415   5.205   8.445  -1.046  0.4362  0.0108  0.7486
  900MOL0     N21416   5.964   8.745  -0.900  0.1280  0.0970  0.6917
  900MOL0     N21417   6.005   8.855  -0.841  0.1809  0.4002  0.5561
  900MOL0     C21418   6.904   8.688   0.052  0.6919  0.1702  0.7234
  900MOL0     C21419   7.015   8.635   0.110 -0.5491  0.0645  0.6110
  900MOL0     C21420   7.384   8.529   0.303 -0.6715  0.1982 -0.4855
  900MOL0     C21421   7.427   8.539   0.441  0.7999  0.4507  0.6457
  900MOL0     C21422   7.536   8.460   0.489 -0.4741 -0.3088  0.5522
  900MOL0     C21423   7.621   8.396   0.392  0.0469 -0.2035 -0.2333
  900MOL0     O21424   7.738   8.330   0.414 -0.0771 -0.1667 -0.7098
  900MOL0     C21425   7.773   8.281   0.542  0.6891 -0.5475 -0.1783
  900MOL0     C21426   7.689   8.177   0.600 -0.6086  0.0530 -0.0345
  900MOL0     C21427   7.771   8.088   0.704 -0.7820  0.7913  0.4898
  900MOL0     C21428   7.704   7.956   0.728  0.0807  0.3126 -0.2960
  900MOL0     C21429   7.797   7.870   0.806  0.0902  0.4456  0.0355
  900MOL0     C21430   7.864   7.793   0.870  0.1374  0.1756  0.2736
  900MOL0     C21431   7.581   8.393   0.253 -0.4781  0.9516  0.1222
  900MOL0     C21432   7.470   8.457   0.217 -0.2717 -0.1967  0.7401
  900MOL0     H21433   7.249   8.767  -0.102  0.1668  3.5655  0.7273
  900MOL0     H21434   7.051   8.815  -0.226 -3.2358 -0.6067 -1.5870
  900MOL0     H21435   6.766   8.605  -0.230 -2.0712  1.6699 -4.8603
  900MOL0     H21436   6.656   8.640  -0.094 -1.2882  0.2925 -0.3629
  900MOL0     H21437   6.581   8.835  -0.260  1.9680  0.7946 -0.7754
  900MOL0     H21438   6.667   8.745  -0.384  1.4279 -2.0842  0.8066
  900MOL0     H21439   6.531   8.563  -0.360  0.5037  2.1488 -2.2206
  900MOL0     H21440   6.486   8.590  -0.198 -0.3657 -0.9609 -1.0717
  900MOL0     H21441   6.306   8.621  -0.371  1.0259  1.2384 -4.4518
  900MOL0     H21442   6.315   8.755  -0.258  1.8316  1.4873  0.4556
  900MOL0     H21443   6.415   8.896  -0.431 -0.8899  0.7320 -0.1669
  900MOL0     H21444   6.472   8.747  -0.514 -2.1150 -3.9131 -2.2940
  900MOL0     H21445   6.298   8.862  -0.644 -0.9800 -1.0237 -1.5080
  900MOL0     H21446   6.249   8.702  -0.615  0.1352 -0.0162  1.7227
  900MOL0     H21447   6.070   8.793  -0.447 -3.1483  1.1553 -1.4040
  900MOL0     H21448   6.176   8.935  -0.435  3.6303 -3.3138  0.5799
  900MOL0     H21449   6.099   9.009  -0.648  1.0427  0.7136  1.5373
  900MOL0     H21450   5.951   8.984  -0.555  0.8480 -0.3246  0.2892
  900MOL0     H21451   5.885   8.691  -0.587  0.7058  0.1413 -0.0158
  900MOL0     H21452   5.895   8.502  -0.930 -1.5640 -0.1903  0.1126
  900MOL0     H21453   5.872   8.458  -0.760  2.1529  0.7536  0.8289
  900MOL0     H21454   5.658   8.565  -0.752  1.1143 -0.0761 -0.2512
  900MOL0     H21455   5.649   8.435  -0.866  1.2689 -1.7805  3.5041
  900MOL0     H21456   5.673   8.610  -1.061 -0.2037 -0.2022 -0.5736
  900MOL0     H21457   5.687   8.726  -0.932 -0.0460  1.4693 -3.5637
  900MOL0     H21458   5.484   8.718  -1.064  2.1799  1.1079  1.0298
  900MOL0     H21459   5.433   8.695  -0.888 -2.3929 -1.6887  0.6837
  900MOL0     H21460   5.233   8.767  -0.987 -1.0695  0.0351  1.6479
  900MOL0     H21461   5.071   8.887  -1.073 -0.6889  1.1496  2.6417
  900MOL0     H21462   4.923   8.811  -1.147 -1.9461  3.6981  1.9125
  900MOL0     H21463   4.943   8.828  -0.972  0.0368 -2.2409  1.2819
  900MOL0     H21464   4.654   8.673  -1.301  3.0677 -0.8227  3.4918
  900MOL0     H21465   4.419   8.611  -1.388  2.0889  1.0160  0.6816
  900MOL0     H21466   4.188   8.696  -1.377  2.9284 -0.1846  3.2081
  900MOL0     H21467   4.239   8.534  -1.429 -0.4125  0.5086 -2.1997
  900MOL0     H21468   4.002   8.551  -1.493 -0.0404 -1.1356 -0.8400
  900MOL0     H21469   4.042   8.431  -1.370 -2.4472 -1.0487 -1.6378
  900MOL0     H21470   3.913   8.508  -1.200  1.2940 -0.5902 -0.8375
  900MOL0     H21471   3.831   8.564  -1.343 -1.4324 -0.4252  3.6986
  900MOL0     H21472   3.843   8.725  -1.150  1.5627  1.6299  1.6542
  900MOL0     H21473   4.011   8.755  -1.180 -2.5999  4.6290  2.3731
  900MOL0     H21474   3.992   8.839  -1.386  1.6226 -0.3498  2.7523
  900MOL0     H21475   3.884   8.928  -1.295 -2.9672  0.1719 -0.6717
  900MOL0     H21476   3.811   8.714  -1.484  1.0276  0.9662  0.0686
  900MOL0     H21477   3.684   8.769  -1.363  1.0528 -5.8811  0.4485
  900MOL0     H21478   3.797   8.997  -1.471  2.6888  0.3186 -0.2525
  900MOL0     H21479   3.647   8.930  -1.546  1.1921  0.3325 -1.6228
  900MOL0     H21480   3.937   8.868  -1.627 -0.5277 -0.4850 -0.7304
  900MOL0     H21481   3.822   8.989  -1.697  0.0704  1.6302  0.4123
  900MOL0     H21482   4.312   8.508  -0.980  0.0596  0.6660  0.7783
  900MOL0     H21483   4.554   8.541  -0.920 -0.7477 -2.7915 -0.3838
  900MOL0     H21484   5.014   8.347  -1.087  0.3535 -0.6272  1.1832
  900MOL0     H21485   5.255   8.354  -1.080  0.7751  1.6875 -3.9616
  900MOL0     H21486   6.807   8.658   0.091 -0.4347  1.2132 -1.1237
  900MOL0     H21487   7.020   8.570   0.196  2.4411 -2.4570 -1.2499
  900MOL0     H21488   7.357   8.579   0.513  1.6074 -1.6634  2.7416
  900MOL0     H21489   7.559   8.464   0.595 -0.7772  0.9686  0.5816
  900MOL0     H21490   7.878   8.252   0.537  0.5476 -0.7817 -3.2063
  900MOL0     H21491   7.774   8.372   0.604 -0.4159  1.2254 -2.6155
  900MOL0     H21492   7.646   8.111   0.524 -1.0688 -0.2641  0.4895
  900MOL0     H21493   7.612   8.217   0.667 -2.5232 -1.3572 -1.2929
  900MOL0     H21494   7.787   8.135   0.802 -1.8493 -0.4119  1.2752
  900MOL0     H21495   7.870   8.063   0.666 -0.4990 -1.4211  2.4661
  900MOL0     H21496   7.671   7.907   0.636 -0.1064 -2.8817  1.3361
  900MOL0     H21497   7.618   7.969   0.794 -0.5153  0.9317 -1.1781
  900MOL0     H21498   7.931   7.738   0.934  1.6299  3.2708  1.5620
  900MOL0     H21499   7.649   8.338   0.189 -0.4531 -0.3121  1.1912
  900MOL0     H21500   7.448   8.447   0.111 -0.1375  1.6280  0.5180
  901MOL0     O21501   5.866   8.620  11.125  0.7646  0.4548  0.1465
  901MOL0     C21502   5.835   8.562  11.231  0.4689 -0.1227  0.2621
  901MOL0     O21503   5.797   8.626  11.341  0.4002 -0.5334  0.5304
  901MOL0     C21504   5.797   8.762  11.343 -0.3053 -0.2704  0.6921
  901MOL0     C21505   5.909   8.832  11.387 -0.4465 -0.3193 -0.4845
  901MOL0     C21506   5.885   8.962  11.424 -0.4882  0.6638  0.2443
  901MOL0     C21507   5.758   9.024  11.421  0.7935 -0.3150 -0.1577
  901MOL0     O21508   5.749   9.150  11.455 -0.1953 -0.5964  0.1416
  901MOL0     C21509   5.713   9.187  11.595  0.2839  0.1003  0.0394
  901MOL0     C21510   5.585   9.135  11.667  0.2993 -0.5243  0.2512
  901MOL0     C21511   5.597   8.997  11.721 -1.2114 -0.1647  0.0116
  901MOL0     C21512   5.677   8.995  11.852 -0.6588 -0.3656 -1.0348
  901MOL0     C21513   5.724   8.847  11.898 -0.0753 -0.3648  0.3225
  901MOL0     C21514   5.840   8.797  11.807  0.0594  1.1641  0.0483
  901MOL0     C21515   5.868   8.649  11.842 -0.2956 -0.1077 -0.2522
  901MOL0     C21516   5.965   8.585  11.748  0.2400 -0.7608 -0.0123
  901MOL0     N21517   5.993   8.448  11.770 -0.1739  0.2717 -0.5180
  901MOL0     C21518   6.012   8.383  11.885  0.2085 -0.2759  0.0734
  901MOL0     C21519   6.005   8.249  11.853 -0.3307  0.7625 -0.1559
  901MOL0     C21520   6.014   8.134  11.953 -0.4195  0.3492 -1.0570
  901MOL0     C21521   6.158   8.101  11.974 -0.5158 -0.0769 -0.4440
  901MOL0     C21522   6.231   8.188  12.070 -0.9005 -0.5840  0.0659
  901MOL0     C21523   6.377   8.149  12.077  1.1250 -0.1914  0.3974
  901MOL0     O21524   6.387   8.025  12.145  0.4220 -0.2376  0.1125
  901MOL0     C21525   6.511   7.982  12.166 -0.9928  0.2040  0.6367
  901MOL0     C21526   6.614   8.052  12.210 -0.0032 -0.1259 -0.0764
  901MOL0     C21527   6.744   8.005  12.217 -0.4362  0.1553  0.0691
  901MOL0     C21528   6.851   8.095  12.277 -0.0544  0.4616  0.5692
  901MOL0     C21529   6.774   7.867  12.190  0.4364 -0.6255  0.5298
  901MOL0     C21530   6.905   7.799  12.197  0.6594 -0.3776 -0.0223
  901MOL0     O21531   6.908   7.661  12.153  0.5556 -0.9774  0.2800
  901MOL0     C21532   7.029   7.604  12.169  1.3455 -0.1959 -0.1890
  901MOL0     C21533   7.116   7.602  12.055  1.3379 -0.7047  0.8865
  901MOL0     C21534   7.229   7.527  12.059 -0.9415  0.0651  0.3022
  901MOL0     C21535   7.267   7.468  12.180 -0.5699  0.3379 -0.6270
  901MOL0     O21536   7.374   7.386  12.200 -0.0527 -0.2519  0.5352
  901MOL0     C21537   7.487   7.417  12.125  0.2315  0.1265  0.0984
  901MOL0     C21538   7.608   7.368  12.207  0.7548 -0.2126 -0.3340
  901MOL0     C21539   7.742   7.427  12.173  0.5661 -0.7678 -0.1395
  901MOL0     C21540   7.834   7.433  12.303  1.3585  0.5263  0.2697
  901MOL0     C21541   7.987   7.432  12.250  0.3587  0.2590 -0.2436
  901MOL0     C21542   8.083   7.469  12.359 -1.3964  0.3194  0.0348
  901MOL0     C21543   8.224   7.457  12.290 -0.2119  0.0800  1.0733
  901MOL0     C21544   8.313   7.541  12.384  0.6843 -0.0235  0.3356
  901MOL0    Cl21545   8.473   7.532  12.321 -0.1115 -0.0962  0.5627
  901MOL0     C21546   7.179   7.467  12.286 -0.1447 -0.3282 -0.3326
  901MOL0     C21547   7.058   7.538  12.288 -0.7539  0.0700 -0.4188
  901MOL0     O21548   6.998   7.852  12.261 -0.0356 -0.0841  0.0163
  901MOL0     C21549   6.662   7.785  12.154  0.4262 -0.6071 -1.1571
  901MOL0     C21550   6.535   7.850  12.148  0.4993  0.4592  0.3727
  901MOL0     N21551   5.994   8.245  11.720 -0.4832  0.0710  0.6680
  901MOL0     N21552   6.001   8.361  11.668  0.7381 -0.3077 -0.1022
  901MOL0     C21553   5.652   8.948  11.377  0.1160  0.6839  0.6227
  901MOL0     C21554   5.669   8.820  11.327  0.4112  0.0133 -0.4306
  901MOL0     C21555   5.824   8.416  11.227  0.6136  0.2507 -1.1547
  901MOL0     C21556   5.809   8.348  11.113 -0.5175 -0.0380 -0.1668
  901MOL0     C21557   5.812   8.208  11.114  0.0207  0.0550 -0.2711
  901MOL0     C21558   5.839   8.131  11.226 -0.2569 -0.7077  0.2751
  901MOL0     O21559   5.838   7.994  11.229  0.1849 -0.4258 -0.5106
  901MOL0     C21560   5.830   7.919  11.108  0.3926  0.9145  0.2782
  901MOL0     C21561   5.881   7.771  11.138  0.1595 -0.4980 -0.4885
  901MOL0     C21562   6.017   7.763  11.199 -0.9560  0.5429 -0.4155
  901MOL0     C21563   6.130   7.768  11.093  0.9009  0.1868 -0.2634
  901MOL0     C21564   6.256   7.698  11.138 -0.1848 -1.0505 -0.4457
  901MOL0     C21565   6.348   7.626  11.168 -0.6742 -0.2232 -0.1230
  901MOL0     C21566   5.865   8.202  11.346  0.4920 -0.0139 -0.1797
  901MOL0     C21567   5.854   8.344  11.346 -0.4325  0.0513 -0.3210
  901MOL0     H21568   6.010   8.795  11.400  1.0086  3.5752  0.5526
  901MOL0     H21569   5.973   9.012  11.462  0.0724 -1.3840  1.8873
  901MOL0     H21570   5.797   9.165  11.661  1.1738  2.1866 -0.3341
  901MOL0     H21571   5.710   9.296  11.583  3.8574  0.2393 -0.6059
  901MOL0     H21572   5.559   9.202  11.750 -1.0678 -2.5227  1.5359
  901MOL0     H21573   5.500   9.116  11.601  1.8369 -5.3597 -0.7062
  901MOL0     H21574   5.500   8.947  11.732 -0.5044 -1.3490  1.3273
  901MOL0     H21575   5.653   8.940  11.647  1.2467  1.6036  0.3846
  901MOL0     H21576   5.765   9.057  11.840  0.4547 -1.5052  0.7332
  901MOL0     H21577   5.622   9.034  11.938 -2.0155 -0.4395 -1.8344
  901MOL0     H21578   5.763   8.852  11.999  2.8999 -2.5532 -0.5803
  901MOL0     H21579   5.633   8.786  11.893 -0.7201  0.4774  1.4122
  901MOL0     H21580   5.817   8.803  11.701 -0.9126 -4.5821 -0.4289
  901MOL0     H21581   5.930   8.858  11.819  0.5299  0.5824 -0.4329
  901MOL0     H21582   5.897   8.639  11.947  2.0686 -0.9245 -0.9290
  901MOL0     H21583   5.772   8.597  11.829 -0.9785 -0.0091  3.2793
  901MOL0     H21584   6.058   8.643  11.751  1.7209 -3.0311  1.7939
  901MOL0     H21585   5.917   8.599  11.651 -0.6467  2.5943  0.7686
  901MOL0     H21586   6.034   8.430  11.980 -0.3374 -2.1184  1.1596
  901MOL0     H21587   5.968   8.154  12.050 -1.1557  0.1583 -1.3556
  901MOL0     H21588   5.960   8.046  11.918 -0.0128 -0.6505  0.7031
  901MOL0     H21589   6.208   8.097  11.877 -2.1265  1.5099 -1.4106
  901MOL0     H21590   6.159   7.993  11.993 -0.3348 -0.3926 -2.0372
  901MOL0     H21591   6.185   8.175  12.168  2.4388 -1.1110  1.7227
  901MOL0     H21592   6.237   8.292  12.036  2.6356 -1.0386 -1.0986
  901MOL0     H21593   6.440   8.222  12.128 -0.9666 -0.4887  3.7178
  901MOL0     H21594   6.402   8.127  11.973 -3.1820  5.1802 -2.2873
  901MOL0     H21595   6.595   8.157  12.230 -2.1806 -0.3900 -0.4687
  901MOL0     H21596   6.943   8.095  12.219  1.1768  3.0055  2.3376
  901MOL0     H21597   6.805   8.192  12.301 -2.7077 -0.7698  0.8608
  901MOL0     H21598   6.897   8.052  12.367  3.0318  2.1120 -0.0856
  901MOL0     H21599   7.093   7.653  11.962 -0.2155  3.3247  3.2369
  901MOL0     H21600   7.291   7.523  11.970 -0.3869  1.8903  0.5569
  901MOL0     H21601   7.476   7.364  12.030  3.4968 -2.5925  1.0452
  901MOL0     H21602   7.497   7.523  12.098 -1.3132  0.2565 -0.0592
  901MOL0     H21603   7.591   7.376  12.315  1.0230 -0.8481 -0.2409
  901MOL0     H21604   7.629   7.262  12.195 -1.5519 -0.7551 -0.0427
  901MOL0     H21605   7.732   7.527  12.131 -1.2252 -1.6805 -2.0657
  901MOL0     H21606   7.783   7.372  12.087  1.6910 -1.5212  0.8412
  901MOL0     H21607   7.803   7.522  12.359  0.0544 -0.6108  1.4397
  901MOL0     H21608   7.809   7.352  12.372 -1.9500  2.6106  1.7749
  901MOL0     H21609   8.003   7.500  12.166  0.5122 -1.0513 -1.2981
  901MOL0     H21610   8.000   7.327  12.225 -1.1605  0.1382 -0.6482
  901MOL0     H21611   8.066   7.573  12.388 -2.5292  0.0028  0.5670
  901MOL0     H21612   8.091   7.399  12.444 -1.8423  0.9116  0.5720
  901MOL0     H21613   8.224   7.500  12.189 -0.3930 -1.9152  0.1940
  901MOL0     H21614   8.254   7.353  12.278 -1.5975 -0.1482 -0.9899
  901MOL0     H21615   8.305   7.513  12.489  0.9722 -0.6954  0.1818
  901MOL0     H21616   8.278   7.642  12.361 -1.3345 -0.8280 -0.3136
  901MOL0     H21617   7.217   7.397  12.360 -0.1790 -1.1809 -1.1092
  901MOL0     H21618   6.997   7.516  12.374  2.7894 -2.1585  1.7790
  901MOL0     H21619   6.671   7.679  12.133 -2.6437 -0.9259 -1.2547
  901MOL0     H21620   6.447   7.787  12.138  0.7120 -0.4774  3.5198
  901MOL0     H21621   5.554   8.994  11.373  0.2842  1.1101 -3.7029
  901MOL0     H21622   5.585   8.752  11.313  0.2411  0.2529 -0.5817
  901MOL0     H21623   5.787   8.411  11.027 -0.6358  2.5055  1.6122
  901MOL0     H21624   5.781   8.152  11.027  0.0596 -2.2059  1.0690
  901MOL0     H21625   5.729   7.907  11.067  1.0128 -0.5237 -0.9565
  901MOL0     H21626   5.891   7.963  11.029 -0.5232 -1.1539 -1.6987
  901MOL0     H21627   5.876   7.716  11.043 -3.0481  0.3343 -0.9198
  901MOL0     H21628   5.799   7.737  11.203  0.1025 -0.7181 -0.6742
  901MOL0     H21629   6.017   7.668  11.253 -1.0226 -0.5049 -2.1844
  901MOL0     H21630   6.042   7.838  11.275  0.4853 -1.5971  1.3494
  901MOL0     H21631   6.159   7.871  11.071  2.9648 -0.3667 -0.3868
  901MOL0     H21632   6.089   7.709  11.011 -1.9906 -1.7586  2.3179
  901MOL0     H21633   6.435   7.563  11.171 -0.2375  0.3926  0.4209
  901MOL0     H21634   5.906   8.164  11.440  2.8781  2.2173 -0.2136
  901MOL0     H21635   5.864   8.385  11.446  0.9043 -2.8215  0.8334
  902MOL0     O21636   5.355   5.347   9.424  0.1959 -0.0767 -0.1861
  902MOL0     C21637   5.382   5.298   9.314 -0.3100 -0.1013 -0.0461
  902MOL0     O21638   5.294   5.241   9.228  0.7679 -0.9415  0.6149
  902MOL0     C21639   5.160   5.243   9.252  1.2539 -0.2005 -0.9221
  902MOL0     C21640   5.087   5.342   9.322 -0.0146 -0.1154  0.5227
  902MOL0     C21641   4.941   5.332   9.349  0.0959  0.8563 -0.2458
  902MOL0     C21642   4.879   5.209   9.320  0.6117 -0.0839  0.2321
  902MOL0     O21643   4.755   5.179   9.372  0.0284 -0.2065 -0.2429
  902MOL0     C21644   4.667   5.266   9.437  0.5030 -0.1499  0.2631
  902MOL0     C21645   4.611   5.364   9.335  0.3310 -0.2633  0.0826
  902MOL0     C21646   4.514   5.460   9.410  0.5461  0.4885  0.0174
  902MOL0     C21647   4.371   5.411   9.448 -0.5998 -0.0031 -0.2675
  902MOL0     C21648   4.282   5.517   9.510 -0.1331  0.2563  0.3659
  902MOL0     C21649   4.143   5.468   9.519 -0.5644 -0.0957 -0.1898
  902MOL0     C21650   4.055   5.573   9.583  0.0078  0.1388 -0.2987
  902MOL0     C21651   3.923   5.513   9.626 -0.2706 -0.2951 -0.0679
  902MOL0     N21652   3.817   5.614   9.663 -0.4307  0.4608 -0.6579
  902MOL0     C21653   3.686   5.586   9.633 -0.5202 -0.2358  0.1011
  902MOL0     C21654   3.625   5.702   9.635  0.7220 -0.2368 -0.4305
  902MOL0     C21655   3.487   5.707   9.578  0.7371 -0.3488 -0.7837
  902MOL0     C21656   3.483   5.731   9.431  0.2347 -0.3373 -0.1165
  902MOL0     C21657   3.523   5.865   9.387 -0.1434 -0.7410  1.1484
  902MOL0     C21658   3.409   5.966   9.391 -0.7265  0.2820 -0.0443
  902MOL0     O21659   3.316   5.917   9.292  0.7001 -0.0784 -0.3657
  902MOL0     C21660   3.198   5.972   9.263  0.2694 -0.0944 -0.2161
  902MOL0     C21661   3.100   5.903   9.196  0.4119  0.4872  0.1284
  902MOL0     C21662   2.964   5.943   9.189  0.1832  0.4330  1.0739
  902MOL0     C21663   2.869   5.852   9.103  0.5626 -1.2254  0.0691
  902MOL0     C21664   2.922   6.075   9.233 -0.0152  0.1715 -0.3262
  902MOL0     C21665   2.782   6.125   9.243 -0.9279  0.5536  0.8901
  902MOL0     O21666   2.768   6.236   9.310  0.5317  0.0860  0.9071
  902MOL0     C21667   2.652   6.306   9.300 -0.5101  0.8565 -0.3559
  902MOL0     C21668   2.594   6.347   9.175  0.0803  1.1188 -0.1903
  902MOL0     C21669   2.477   6.423   9.173 -0.3929  0.0214  0.0553
  902MOL0     C21670   2.416   6.451   9.293  0.3332  0.6414 -0.2966
  902MOL0     O21671   2.292   6.513   9.306  0.3523  0.1333  0.4848
  902MOL0     C21672   2.217   6.541   9.185  0.3845  0.3046 -0.9945
  902MOL0     C21673   2.072   6.564   9.228 -0.1272  0.9748  0.0983
  902MOL0     C21674   2.030   6.453   9.336 -0.4110  0.0281  0.4955
  902MOL0     C21675   1.883   6.480   9.373 -0.3349  0.2818 -0.5288
  902MOL0     C21676   1.847   6.377   9.483  1.0621 -0.0122  0.3452
  902MOL0     C21677   1.699   6.392   9.521 -0.2359 -0.3067 -1.0237
  902MOL0     C21678   1.657   6.296   9.633 -0.2582 -0.0015  0.0599
  902MOL0     C21679   1.513   6.334   9.671 -0.2666  0.6030 -0.1729
  902MOL0    Cl21680   1.393   6.258   9.555  0.1610  0.2463  0.2533
  902MOL0     C21681   2.475   6.429   9.416 -0.6895  0.0886 -0.0157
  902MOL0     C21682   2.585   6.346   9.417  0.3054  0.5640  0.1048
  902MOL0     O21683   2.692   6.062   9.190 -0.6819 -0.1104  0.0705
  902MOL0     C21684   3.023   6.142   9.310  0.2625  0.1717 -0.2507
  902MOL0     C21685   3.159   6.097   9.324  0.0218  0.3910  0.8407
  902MOL0     N21686   3.713   5.794   9.673  0.0563  0.5947  0.8227
  902MOL0     N21687   3.832   5.742   9.695 -0.9658 -0.2091 -0.5513
  902MOL0     C21688   4.949   5.108   9.250  0.7447 -0.0992 -0.9537
  902MOL0     C21689   5.087   5.129   9.202 -0.5565 -0.3189  0.4562
  902MOL0     C21690   5.527   5.307   9.277  0.0960 -0.4932  0.7294
  902MOL0     C21691   5.571   5.270   9.151  0.5841  0.2219  0.3945
  902MOL0     C21692   5.707   5.266   9.116 -0.2725  0.6941 -0.5015
  902MOL0     C21693   5.810   5.294   9.213  1.2578 -0.4329  0.3442
  902MOL0     O21694   5.945   5.288   9.177  0.2456  0.0663  0.3229
  902MOL0     C21695   6.052   5.342   9.257 -0.1644 -0.7916  1.1433
  902MOL0     C21696   6.191   5.297   9.193 -0.6679  0.2714 -0.4289
  902MOL0     C21697   6.225   5.151   9.228  0.4482  0.2672 -0.5716
  902MOL0     C21698   6.335   5.097   9.149 -0.4138  0.0883  0.2627
  902MOL0     C21699   6.354   4.953   9.159  1.1171  0.3264  0.2191
  902MOL0     C21700   6.379   4.835   9.177 -1.2040 -0.8298  1.4533
  902MOL0     C21701   5.767   5.351   9.336  0.9517 -0.8926  0.6233
  902MOL0     C21702   5.629   5.360   9.366 -0.6756  0.1091  0.4778
  902MOL0     H21703   5.150   5.426   9.349  4.8225 -3.0333 -0.4915
  902MOL0     H21704   4.889   5.411   9.400 -1.2184  0.6350 -1.1953
  902MOL0     H21705   4.589   5.213   9.492  1.5882 -1.1498  0.8916
  902MOL0     H21706   4.717   5.333   9.507  2.3594 -2.2516  1.0878
  902MOL0     H21707   4.691   5.427   9.293 -0.6347  0.9839  0.0664
  902MOL0     H21708   4.566   5.311   9.250 -1.7052  0.6736  0.5305
  902MOL0     H21709   4.565   5.501   9.498 -0.3750 -0.8758  1.2362
  902MOL0     H21710   4.507   5.539   9.335 -4.3265 -1.3460 -1.8861
  902MOL0     H21711   4.312   5.362   9.370 -1.7404  0.9401 -0.0125
  902MOL0     H21712   4.375   5.337   9.528 -3.2498  1.6179  1.5132
  902MOL0     H21713   4.326   5.544   9.607  0.7035 -1.7339  0.5858
  902MOL0     H21714   4.274   5.602   9.441  0.2925 -0.6038 -0.7571
  902MOL0     H21715   4.103   5.450   9.419  0.2024  0.0662 -0.5285
  902MOL0     H21716   4.159   5.378   9.579  2.1906  0.7897  0.5322
  902MOL0     H21717   4.103   5.617   9.671 -1.8751  4.9565 -1.3590
  902MOL0     H21718   4.036   5.651   9.509 -0.3033  1.5830  1.2483
  902MOL0     H21719   3.939   5.437   9.704  2.7797 -1.7104 -1.8821
  902MOL0     H21720   3.887   5.451   9.543 -0.2328 -2.1548  1.2377
  902MOL0     H21721   3.644   5.494   9.594 -0.6775 -0.1461  0.0593
  902MOL0     H21722   3.437   5.611   9.597  1.6558 -0.8337 -0.7185
  902MOL0     H21723   3.433   5.785   9.631 -0.0361 -0.8887 -0.7590
  902MOL0     H21724   3.382   5.702   9.402 -0.2912  0.0671  1.2108
  902MOL0     H21725   3.548   5.656   9.383 -0.2981 -0.9774  0.1451
  902MOL0     H21726   3.566   5.869   9.286 -1.0989  0.1851  0.7581
  902MOL0     H21727   3.611   5.897   9.444  1.3003 -0.5478 -1.0491
  902MOL0     H21728   3.441   6.065   9.359  3.3844 -0.5346  0.9732
  902MOL0     H21729   3.368   5.965   9.492  1.4286 -3.0996  0.9906
  902MOL0     H21730   3.136   5.810   9.153 -0.1423 -0.3940  1.4913
  902MOL0     H21731   2.781   5.817   9.158  0.3088  0.0704  0.5062
  902MOL0     H21732   2.830   5.892   9.009  0.6988 -0.4953  0.3235
  902MOL0     H21733   2.921   5.758   9.082  0.6057 -1.4383  1.0907
  902MOL0     H21734   2.635   6.325   9.077 -0.3219 -1.4421  0.1477
  902MOL0     H21735   2.446   6.446   9.071 -0.0703 -1.5432 -0.4337
  902MOL0     H21736   2.255   6.632   9.139 -0.6561  0.4909 -1.5101
  902MOL0     H21737   2.220   6.458   9.113 -2.0694  0.9531 -1.9377
  902MOL0     H21738   2.057   6.661   9.277  0.7923  2.0294 -1.5973
  902MOL0     H21739   2.005   6.558   9.142 -1.5553 -2.2526  1.2748
  902MOL0     H21740   2.093   6.466   9.424 -1.8896  0.3145  1.5446
  902MOL0     H21741   2.045   6.355   9.291  1.0947  0.0153  0.9856
  902MOL0     H21742   1.883   6.580   9.416 -3.7478  0.0133  0.3327
  902MOL0     H21743   1.816   6.473   9.287 -0.3054 -0.9552 -0.4780
  902MOL0     H21744   1.902   6.382   9.577 -1.1621  1.9386  1.6722
  902MOL0     H21745   1.862   6.278   9.437  1.6262  1.2274 -2.3447
  902MOL0     H21746   1.692   6.494   9.559 -0.2510  0.0183 -1.8655
  902MOL0     H21747   1.634   6.363   9.437  1.3979 -4.1862 -1.1891
  902MOL0     H21748   1.720   6.314   9.721 -1.2242  2.1449  0.3657
  902MOL0     H21749   1.662   6.189   9.612  1.2012  0.2027 -0.8289
  902MOL0     H21750   1.515   6.443   9.680  1.4548  0.7778 -1.9036
  902MOL0     H21751   1.486   6.286   9.766  0.2726  0.8591  0.1166
  902MOL0     H21752   2.420   6.457   9.506 -1.2191 -1.8320  0.3073
  902MOL0     H21753   2.626   6.309   9.510  4.4579  1.6709 -1.0820
  902MOL0     H21754   2.997   6.236   9.357  1.7157  0.6615 -0.3765
  902MOL0     H21755   3.226   6.144   9.395  3.5164 -2.0781 -0.5521
  902MOL0     H21756   4.889   5.019   9.232  2.2379 -1.1903 -0.8260
  902MOL0     H21757   5.153   5.059   9.153  3.4241 -0.0035  4.6357
  902MOL0     H21758   5.495   5.246   9.078  0.2258  1.9765  0.1620
  902MOL0     H21759   5.731   5.252   9.011 -0.5261 -0.0668 -0.4622
  902MOL0     H21760   6.048   5.451   9.254 -1.4814 -0.7950  2.1554
  902MOL0     H21761   6.043   5.308   9.360 -0.4355 -0.7937  1.1188
  902MOL0     H21762   6.269   5.356   9.243 -1.3683 -0.4011  1.5792
  902MOL0     H21763   6.201   5.323   9.087  1.4854  1.9837  0.1062
  902MOL0     H21764   6.138   5.092   9.198  2.4441 -1.9379 -2.4934
  902MOL0     H21765   6.244   5.145   9.335 -0.6099  1.8438 -0.2657
  902MOL0     H21766   6.425   5.152   9.180  1.6268 -2.0210 -1.5524
  902MOL0     H21767   6.315   5.130   9.047  0.5905  1.5116  0.4898
  902MOL0     H21768   6.403   4.732   9.187 -0.8871 -1.1402 -1.5205
  902MOL0     H21769   5.821   5.405   9.413 -3.0454  3.2630  0.9002
  902MOL0     H21770   5.593   5.407   9.457 -0.2473  0.1776  0.6120
  903MOL0     O21771   4.190  10.480   6.998 -0.7834  0.3292  0.5545
  903MOL0     C21772   4.246  10.534   7.093 -0.3634 -1.2505  0.0582
  903MOL0     O21773   4.235  10.673   7.112 -0.0958  0.5646 -0.0007
  903MOL0     C21774   4.159  10.749   7.021  0.5523  0.3069  0.5872
  903MOL0     C21775   4.066  10.843   7.062  0.7210 -0.5067 -0.1410
  903MOL0     C21776   4.005  10.937   6.973  0.4808 -0.4813  0.5167
  903MOL0     C21777   4.032  10.952   6.839  0.2779  0.3840 -1.1944
  903MOL0     O21778   3.966  11.054   6.772 -0.5870 -0.3226  0.8609
  903MOL0     C21779   4.022  11.097   6.653  0.5074  0.1621  0.2053
  903MOL0     C21780   3.982  11.239   6.618  0.3253  0.3447  0.3775
  903MOL0     C21781   4.043  11.340   6.719  0.4196 -0.6108 -0.1003
  903MOL0     C21782   3.968  11.346   6.853  0.5654  0.2007  0.1924
  903MOL0     C21783   4.007  11.467   6.942 -0.4933  0.0489 -0.0447
  903MOL0     C21784   3.962  11.598   6.880 -0.4496 -0.5702 -0.1138
  903MOL0     C21785   3.822  11.597   6.807 -0.2845 -0.7166  1.0104
  903MOL0     C21786   3.712  11.588   6.908  0.2933 -0.3675  0.2042
  903MOL0     N21787   3.589  11.642   6.857  0.4941  0.5696 -0.1631
  903MOL0     C21788   3.555  11.780   6.834 -0.2467  0.0886  0.4249
  903MOL0     C21789   3.422  11.766   6.786  0.1758  0.9938  0.8974
  903MOL0     C21790   3.330  11.881   6.764  0.9734  0.2457  0.1940
  903MOL0     C21791   3.375  11.980   6.653 -0.2911  0.2001 -0.1197
  903MOL0     C21792   3.401  11.925   6.512  0.5797  0.5340  0.4738
  903MOL0     C21793   3.533  11.870   6.469  0.2590 -0.0031 -0.5207
  903MOL0     O21794   3.506  11.789   6.349 -0.7855 -0.3103 -0.9264
  903MOL0     C21795   3.548  11.862   6.240  0.8375 -0.4215 -0.0574
  903MOL0     C21796   3.579  11.998   6.217  0.1893 -0.8642  0.2671
  903MOL0     C21797   3.608  12.040   6.086  0.5936  0.2482 -0.0698
  903MOL0     C21798   3.622  12.189   6.062 -0.4689 -0.2499  0.0773
  903MOL0     C21799   3.610  11.953   5.975 -1.2749  0.5368 -0.8273
  903MOL0     C21800   3.611  11.987   5.834  0.2968  0.0052 -0.1464
  903MOL0     O21801   3.539  11.915   5.748 -0.6753  0.4683 -0.0446
  903MOL0     C21802   3.582  11.905   5.615  0.5807  0.7846 -0.1360
  903MOL0     C21803   3.715  11.862   5.588 -0.4019  0.6178  0.0148
  903MOL0     C21804   3.761  11.840   5.460 -0.5457 -0.2040  0.4139
  903MOL0     C21805   3.674  11.847   5.347  0.6091 -1.0861 -0.4760
  903MOL0     O21806   3.715  11.825   5.218 -0.1224  0.2524  0.5305
  903MOL0     C21807   3.842  11.767   5.187  0.6551  0.4544 -0.6135
  903MOL0     C21808   3.856  11.763   5.028  0.2235 -0.1949  0.9760
  903MOL0     C21809   3.785  11.880   4.962  0.1148 -0.3551 -0.1863
  903MOL0     C21810   3.833  11.908   4.823 -0.8216  0.3963  0.4094
  903MOL0     C21811   3.745  11.818   4.736 -0.1568  0.0452  0.2615
  903MOL0     C21812   3.803  11.829   4.590 -0.4945 -0.0867  0.5103
  903MOL0     C21813   3.711  11.747   4.491  0.0494 -0.2487 -0.7025
  903MOL0     C21814   3.789  11.719   4.367  0.7000  0.2591 -0.6402
  903MOL0    Cl21815   3.682  11.625   4.247 -0.2984  0.0571 -0.2560
  903MOL0     C21816   3.536  11.881   5.367 -0.4397  0.2104  0.2416
  903MOL0     C21817   3.495  11.914   5.502  0.8282  1.1460  0.0069
  903MOL0     O21818   3.687  12.083   5.800 -0.1955 -0.1911  0.0692
  903MOL0     C21819   3.601  11.813   6.004 -0.3883 -0.1593 -0.2151
  903MOL0     C21820   3.578  11.775   6.139  0.6928  0.1229  0.0369
  903MOL0     N21821   3.384  11.634   6.772 -0.4796 -0.1973 -0.8048
  903MOL0     N21822   3.495  11.556   6.805 -0.0151 -0.8689  0.5115
  903MOL0     C21823   4.115  10.844   6.796  0.0724  0.3943 -0.2233
  903MOL0     C21824   4.184  10.756   6.880 -0.1230 -0.0180  0.5545
  903MOL0     C21825   4.297  10.443   7.203 -0.5676 -0.6711 -0.3553
  903MOL0     C21826   4.392  10.499   7.291  0.5308 -0.7812 -1.5633
  903MOL0     C21827   4.452  10.413   7.389 -0.0584 -2.1299  0.0099
  903MOL0     C21828   4.425  10.274   7.393  0.0870 -0.1773  0.3645
  903MOL0     O21829   4.468  10.187   7.489  0.4348  0.0423 -0.2809
  903MOL0     C21830   4.594  10.214   7.549 -0.2346 -0.1705 -0.3009
  903MOL0     C21831   4.631  10.075   7.622  0.5928  0.6232  0.1881
  903MOL0     C21832   4.563  10.052   7.758 -0.0327 -0.1118  0.8881
  903MOL0     C21833   4.409  10.035   7.762 -0.5289  0.2712  1.2222
  903MOL0     C21834   4.369  10.012   7.896 -0.0329  0.9331  0.4427
  903MOL0     C21835   4.324  10.012   8.014  0.5033 -0.3190 -0.2050
  903MOL0     C21836   4.342  10.223   7.291 -0.0658 -0.0464  0.8324
  903MOL0     C21837   4.283  10.300   7.199 -0.1887 -0.0030 -0.0294
  903MOL0     H21838   4.032  10.849   7.165  1.0690  4.5166 -0.0633
  903MOL0     H21839   3.936  11.009   7.014 -1.3039 -1.4567 -0.6649
  903MOL0     H21840   4.131  11.090   6.656  0.5491 -2.4541 -2.4279
  903MOL0     H21841   4.001  11.032   6.567  1.4777  1.1351 -0.7843
  903MOL0     H21842   4.012  11.268   6.517 -1.7977 -1.4760 -0.8485
  903MOL0     H21843   3.873  11.239   6.615  0.3389 -0.3150 -0.5656
  903MOL0     H21844   4.149  11.324   6.741  0.7361  2.1839  0.8138
  903MOL0     H21845   4.040  11.444   6.684 -0.9585  0.5448  3.0843
  903MOL0     H21846   3.860  11.347   6.834  0.7869  0.3803 -1.1981
  903MOL0     H21847   3.987  11.258   6.915 -0.1598  0.4155  0.7278
  903MOL0     H21848   3.957  11.468   7.040  1.9632 -2.7539  1.3768
  903MOL0     H21849   4.114  11.469   6.965 -0.3116 -0.7170 -0.7980
  903MOL0     H21850   3.962  11.681   6.952  2.9161 -0.9003  0.4717
  903MOL0     H21851   4.034  11.621   6.801  1.4286 -2.7596  0.8227
  903MOL0     H21852   3.817  11.700   6.770 -3.0105 -0.7815  0.9808
  903MOL0     H21853   3.824  11.531   6.720 -1.1194 -0.1821  0.5605
  903MOL0     H21854   3.741  11.641   6.999  3.9551  1.7102 -1.9322
  903MOL0     H21855   3.712  11.481   6.930 -2.0671 -1.0900 -2.6638
  903MOL0     H21856   3.610  11.862   6.878 -0.7013  0.4118  0.3994
  903MOL0     H21857   3.231  11.840   6.742  0.8155  0.3883  0.6170
  903MOL0     H21858   3.321  11.935   6.859 -1.8126  0.8356 -0.3187
  903MOL0     H21859   3.463  12.030   6.695  1.0665 -1.4505 -0.8821
  903MOL0     H21860   3.298  12.058   6.651  0.7925  1.5770  3.5051
  903MOL0     H21861   3.360  12.002   6.447  1.0318 -0.3007 -0.8491
  903MOL0     H21862   3.337  11.837   6.501 -0.4689  1.2038  1.1091
  903MOL0     H21863   3.573  11.801   6.544 -0.4431  1.0038  0.8250
  903MOL0     H21864   3.599  11.957   6.467  0.0488  0.1444 -1.0520
  903MOL0     H21865   3.577  12.083   6.284  2.4739 -1.2073  0.8851
  903MOL0     H21866   3.713  12.216   6.008  1.2181 -0.5594  2.6106
  903MOL0     H21867   3.532  12.213   6.005 -2.1030  2.8786  3.5051
  903MOL0     H21868   3.602  12.248   6.152  0.4768  1.0544 -0.5308
  903MOL0     H21869   3.773  11.838   5.676 -1.0858  1.7058  0.7790
  903MOL0     H21870   3.861  11.799   5.456  0.3513  1.4566  3.1863
  903MOL0     H21871   3.923  11.834   5.219  4.9058 -3.8486 -1.1975
  903MOL0     H21872   3.852  11.670   5.236  0.3759  2.1248  3.0401
  903MOL0     H21873   3.961  11.769   4.999 -0.9111  1.6374 -3.5867
  903MOL0     H21874   3.817  11.668   4.988 -4.0298  2.9443 -3.6545
  903MOL0     H21875   3.822  11.965   5.019 -0.8915 -0.5070  0.7260
  903MOL0     H21876   3.675  11.878   4.967  0.1666  0.2977  2.1046
  903MOL0     H21877   3.825  12.010   4.786  0.5946  0.5623  0.4936
  903MOL0     H21878   3.942  11.894   4.815 -1.0203  0.0386 -3.9628
  903MOL0     H21879   3.644  11.859   4.728 -0.5538 -1.1214 -0.9632
  903MOL0     H21880   3.735  11.713   4.765 -0.4352  0.0846  0.3196
  903MOL0     H21881   3.809  11.936   4.565  2.1073  0.4495  2.9317
  903MOL0     H21882   3.901  11.783   4.576  1.0554  3.1500 -0.2562
  903MOL0     H21883   3.624  11.809   4.469 -0.9881 -0.1587  2.9317
  903MOL0     H21884   3.674  11.650   4.526  1.5688 -0.5067  0.2907
  903MOL0     H21885   3.881  11.660   4.380  0.1682 -0.7195 -1.2157
  903MOL0     H21886   3.804  11.816   4.317 -0.6193  0.8165  0.0066
  903MOL0     H21887   3.471  11.874   5.280  1.6022  2.9671 -1.7103
  903MOL0     H21888   3.390  11.932   5.522  0.8335  2.2520 -0.8524
  903MOL0     H21889   3.595  11.740   5.924 -1.2778  0.5572 -0.8244
  903MOL0     H21890   3.559  11.670   6.161  1.8911  0.2013  1.5855
  903MOL0     H21891   4.152  10.831   6.695  2.4329  1.0265  0.4917
  903MOL0     H21892   4.263  10.690   6.847  0.5084  0.8751  0.2255
  903MOL0     H21893   4.424  10.602   7.279 -0.1874 -0.5564 -1.6434
  903MOL0     H21894   4.524  10.461   7.453  0.4626 -0.6392 -1.6337
  903MOL0     H21895   4.665  10.237   7.469 -0.1960 -3.0004 -1.1862
  903MOL0     H21896   4.592  10.301   7.615 -0.1870  0.6738 -1.3908
  903MOL0     H21897   4.740  10.062   7.629  0.8043  1.6565 -0.8535
  903MOL0     H21898   4.615   9.996   7.549  0.7690 -0.7280  1.5615
  903MOL0     H21899   4.579  10.148   7.808  0.3887  0.5610 -0.4827
  903MOL0     H21900   4.612   9.964   7.801  1.7570 -1.5144 -3.4361
  903MOL0     H21901   4.382   9.953   7.695 -0.2128  1.0270  0.1609
  903MOL0     H21902   4.363  10.131   7.738 -4.1259 -1.2552  1.3589
  903MOL0     H21903   4.272  10.021   8.107  0.2691 -2.3064 -0.0964
  903MOL0     H21904   4.303  10.122   7.295 -1.4233  0.4874  2.4033
  903MOL0     H21905   4.217  10.254   7.126  1.0815  1.3144 -2.1461
  904MOL0     O21906  10.359   2.061   9.549  0.1159 -0.5175  0.2071
  904MOL0     C21907  10.361   1.975   9.633  0.1735  0.5250 -0.1465
  904MOL0     O21908  10.264   1.892   9.662 -0.0103 -0.6762  0.2173
  904MOL0     C21909  10.135   1.933   9.650 -0.0910 -0.8862 -0.3077
  904MOL0     C21910  10.046   1.834   9.657 -0.0008 -0.1605 -0.7354
  904MOL0     C21911   9.907   1.860   9.653 -0.0502  1.0881 -0.4077
  904MOL0     C21912   9.859   1.992   9.657  0.1986  1.3772  0.3767
  904MOL0     O21913   9.727   2.014   9.631  0.0334  1.3164  0.4881
  904MOL0     C21914   9.665   2.142   9.655 -0.0225  0.0913  0.2308
  904MOL0     C21915   9.513   2.112   9.616 -0.1158  0.3878  0.3377
  904MOL0     C21916   9.470   2.162   9.485 -0.2249 -0.0990 -0.1211
  904MOL0     C21917   9.320   2.126   9.461 -0.0684  0.2799 -0.7663
  904MOL0     C21918   9.298   2.075   9.323  0.0883  0.1963  0.9677
  904MOL0     C21919   9.148   2.047   9.305  0.1934  0.4157 -0.4752
  904MOL0     C21920   9.121   1.984   9.168 -0.3900  0.3162  0.3104
  904MOL0     C21921   8.982   1.924   9.153 -0.6857 -0.2585 -0.4215
  904MOL0     N21922   8.870   2.022   9.170 -0.1286 -0.7440 -1.1164
  904MOL0     C21923   8.818   2.104   9.071  0.1683 -0.2406 -0.1884
  904MOL0     C21924   8.735   2.196   9.131  1.5123 -0.5551 -0.5910
  904MOL0     C21925   8.655   2.309   9.054 -0.3136  0.4311 -0.7431
  904MOL0     C21926   8.638   2.435   9.136  0.2542  0.5007  0.9923
  904MOL0     C21927   8.583   2.546   9.032 -1.2064 -0.8326 -0.2603
  904MOL0     C21928   8.454   2.530   8.960  0.5668  0.1087  0.7616
  904MOL0     O21929   8.452   2.436   8.858 -0.4428 -0.0756 -0.7583
  904MOL0     C21930   8.322   2.422   8.809  1.2360  0.1760  0.2729
  904MOL0     C21931   8.251   2.515   8.726 -0.2524 -0.5117 -0.8864
  904MOL0     C21932   8.124   2.508   8.686 -0.3143 -0.3688 -0.6760
  904MOL0     C21933   8.060   2.625   8.616  0.2840 -0.2105 -0.1873
  904MOL0     C21934   8.049   2.395   8.734 -0.4966  0.2791  0.6877
  904MOL0     C21935   7.908   2.374   8.707  1.3598  0.1414  0.3586
  904MOL0     O21936   7.854   2.243   8.707 -0.9306 -0.0532  0.8530
  904MOL0     C21937   7.775   2.202   8.612  0.2207 -0.0909 -0.8607
  904MOL0     C21938   7.776   2.067   8.583 -0.3984 -0.0199  0.4915
  904MOL0     C21939   7.673   2.005   8.510 -0.0625  0.7474 -0.9582
  904MOL0     C21940   7.565   2.088   8.474  0.4534 -0.4210 -0.6583
  904MOL0     O21941   7.474   2.013   8.404 -0.5248  0.4068 -0.2764
  904MOL0     C21942   7.394   2.082   8.307  0.0655 -0.4782  0.0706
  904MOL0     C21943   7.252   2.113   8.358  0.4866 -0.6807  0.4346
  904MOL0     C21944   7.182   2.228   8.283 -0.6458 -0.2010 -0.7589
  904MOL0     C21945   7.052   2.270   8.340  0.3830  0.8405  0.2147
  904MOL0     C21946   6.982   2.378   8.264  0.3811 -0.0308  0.2438
  904MOL0     C21947   6.837   2.414   8.330 -0.5040  0.4749  0.1093
  904MOL0     C21948   6.738   2.438   8.222  0.4083 -0.2030  0.4390
  904MOL0     C21949   6.608   2.488   8.280 -0.0799  0.1292  1.2941
  904MOL0    Cl21950   6.515   2.580   8.138 -0.2371  0.3359  0.4492
  904MOL0     C21951   7.557   2.225   8.498 -0.5580 -0.6290 -0.5118
  904MOL0     C21952   7.656   2.276   8.573 -0.1654  0.4785 -0.5259
  904MOL0     O21953   7.838   2.469   8.690  0.1840  0.3179  0.7251
  904MOL0     C21954   8.115   2.299   8.815 -0.3949 -0.1905 -0.1461
  904MOL0     C21955   8.249   2.315   8.849 -0.0129 -0.2148 -0.8627
  904MOL0     N21956   8.740   2.165   9.272  0.0585  0.3268  0.3012
  904MOL0     N21957   8.820   2.060   9.288 -0.7580 -0.1725  0.0407
  904MOL0     C21958   9.954   2.097   9.652 -0.6957 -0.4917  1.0519
  904MOL0     C21959  10.091   2.068   9.653 -0.1059  0.0337 -0.2051
  904MOL0     C21960  10.496   1.946   9.688 -0.8161  0.3854  0.4530
  904MOL0     C21961  10.506   1.857   9.798  0.3512 -0.4097 -0.0218
  904MOL0     C21962  10.634   1.835   9.848 -0.3792  0.3982 -1.0539
  904MOL0     C21963  10.755   1.890   9.787  0.9048 -0.0213  0.4805
  904MOL0     O21964  10.884   1.864   9.824 -0.0748  0.3876  0.0478
  904MOL0     C21965  10.943   1.750   9.755  0.1959 -0.1637 -0.0019
  904MOL0     C21966  10.959   1.640   9.857  0.1732 -1.3146 -0.4306
  904MOL0     C21967  11.022   1.684   9.991 -0.3491  0.1442 -0.5859
  904MOL0     C21968  11.155   1.755   9.986  1.2670 -1.0410 -0.9127
  904MOL0     C21969  11.243   1.679   9.897  0.2627 -0.9396  1.0624
  904MOL0     C21970  11.308   1.617   9.814 -0.2408 -0.0811 -0.3161
  904MOL0     C21971  10.737   1.973   9.668 -0.2786  0.8613 -0.2678
  904MOL0     C21972  10.605   2.003   9.625  0.1262  0.4397 -0.3790
  904MOL0     H21973  10.095   1.737   9.659 -0.5273 -0.5063  2.7554
  904MOL0     H21974   9.833   1.781   9.649 -0.5387  1.6037 -2.8763
  904MOL0     H21975   9.674   2.169   9.761 -1.5429 -0.7164  0.6022
  904MOL0     H21976   9.700   2.224   9.593  2.8049 -0.4077  1.0565
  904MOL0     H21977   9.497   2.004   9.607  2.8254 -0.0632 -0.6350
  904MOL0     H21978   9.454   2.158   9.696  2.0122 -0.2154  2.3944
  904MOL0     H21979   9.488   2.270   9.484  1.3705 -0.2996  1.7273
  904MOL0     H21980   9.535   2.115   9.411 -0.5233  1.1835 -1.2530
  904MOL0     H21981   9.282   2.053   9.533  2.8038 -0.4381  0.1212
  904MOL0     H21982   9.254   2.212   9.476  1.3194  1.0413  1.4599
  904MOL0     H21983   9.337   2.146   9.250 -0.3010 -0.0104  0.5579
  904MOL0     H21984   9.357   1.984   9.317 -0.2649  0.0385 -0.1844
  904MOL0     H21985   9.115   1.975   9.380 -0.1938 -1.2547 -2.1872
  904MOL0     H21986   9.089   2.139   9.312  1.9131  1.5813 -0.4283
  904MOL0     H21987   9.137   2.059   9.089  3.1219 -0.1547  0.4081
  904MOL0     H21988   9.195   1.906   9.147  1.1156  1.8729 -0.4392
  904MOL0     H21989   8.967   1.843   9.226  2.0233 -0.9025 -0.4992
  904MOL0     H21990   8.972   1.887   9.051 -1.5533 -0.9495 -0.1014
  904MOL0     H21991   8.846   2.091   8.967  0.8815 -1.4566  0.1352
  904MOL0     H21992   8.708   2.330   8.961  1.5633 -1.5835 -0.2099
  904MOL0     H21993   8.556   2.273   9.025 -0.4629  1.3258 -1.3733
  904MOL0     H21994   8.735   2.469   9.175  0.9394  0.1159 -0.3082
  904MOL0     H21995   8.569   2.435   9.220 -1.5973  1.9894 -0.4414
  904MOL0     H21996   8.663   2.584   8.968 -1.1096  0.1442  0.4139
  904MOL0     H21997   8.565   2.634   9.095  2.8762 -0.1916  0.2916
  904MOL0     H21998   8.421   2.628   8.924 -0.4654 -0.2428  0.7249
  904MOL0     H21999   8.372   2.510   9.030 -0.1784  2.1930  0.5383
  904MOL0     H22000   8.311   2.602   8.700  0.1374 -0.7690 -0.8472
  904MOL0     H22001   8.052   2.597   8.510  1.2276 -1.3743  0.0233
  904MOL0     H22002   7.960   2.655   8.647 -0.1649 -2.4722  0.6877
  904MOL0     H22003   8.129   2.711   8.617  0.9145 -0.7067 -0.0672
  904MOL0     H22004   7.862   2.022   8.631  4.3783  5.7445 -1.3888
  904MOL0     H22005   7.665   1.898   8.492 -0.6028  0.3731  1.2385
  904MOL0     H22006   7.452   2.173   8.288  2.8676 -2.5398 -2.1731
  904MOL0     H22007   7.394   2.039   8.206 -1.4275 -0.8119  0.1900
  904MOL0     H22008   7.183   2.029   8.346  0.0943 -0.2401 -0.5073
  904MOL0     H22009   7.269   2.139   8.463 -2.5789 -1.3730  1.2219
  904MOL0     H22010   7.160   2.192   8.182  1.3780  0.0618 -1.3375
  904MOL0     H22011   7.244   2.317   8.271  0.7297 -0.7042  1.8253
  904MOL0     H22012   6.995   2.177   8.329  0.8869  0.7029 -1.7429
  904MOL0     H22013   7.064   2.313   8.439 -0.3133  1.1932  0.1548
  904MOL0     H22014   6.976   2.344   8.161  1.7443 -2.2133  0.8210
  904MOL0     H22015   7.051   2.463   8.273  3.7311 -2.4821 -0.1746
  904MOL0     H22016   6.817   2.332   8.401 -1.9224  0.9140  0.2332
  904MOL0     H22017   6.847   2.496   8.402 -0.4096 -0.1533  0.8261
  904MOL0     H22018   6.710   2.353   8.160 -0.1403  0.9391 -0.9257
  904MOL0     H22019   6.784   2.503   8.148  1.1775 -2.6054 -1.3107
  904MOL0     H22020   6.623   2.557   8.364 -2.9195  1.0550  1.1506
  904MOL0     H22021   6.542   2.410   8.319 -1.4361  0.4019 -0.3808
  904MOL0     H22022   7.469   2.285   8.479  0.4211  0.7288 -0.9817
  904MOL0     H22023   7.633   2.369   8.624 -4.4525 -0.3344 -0.6307
  904MOL0     H22024   8.067   2.207   8.847 -0.0766 -1.2296 -2.4340
  904MOL0     H22025   8.285   2.236   8.914 -0.2444 -2.1185 -2.9094
  904MOL0     H22026   9.910   2.194   9.632  0.3924 -0.4028 -1.1423
  904MOL0     H22027  10.161   2.151   9.654  0.6615 -0.5921 -0.4497
  904MOL0     H22028  10.422   1.821   9.855  0.9124 -1.8749 -0.0825
  904MOL0     H22029  10.656   1.778   9.938 -0.6068  1.4419 -0.3257
  904MOL0     H22030  10.877   1.722   9.672  0.3575  1.1261 -0.5889
  904MOL0     H22031  11.038   1.763   9.703 -0.8632  1.2160 -1.7622
  904MOL0     H22032  11.016   1.558   9.814 -0.4174  0.1235 -4.3486
  904MOL0     H22033  10.863   1.592   9.880 -0.3279 -0.0859  0.1234
  904MOL0     H22034  11.040   1.592  10.048 -0.3350 -0.2053 -1.1404
  904MOL0     H22035  10.937   1.731  10.041 -1.9318 -0.9023 -2.1259
  904MOL0     H22036  11.199   1.751  10.086 -0.1891  1.1480 -0.1050
  904MOL0     H22037  11.133   1.858   9.958  1.0081 -1.8965 -4.3014
  904MOL0     H22038  11.348   1.552   9.739  1.2498  0.3168  0.1131
  904MOL0     H22039  10.814   2.030   9.618 -1.5116  1.5012 -1.5202
  904MOL0     H22040  10.602   2.073   9.543  1.8694  1.9030  0.7309
  905MOL0     O22041   5.571   6.077   0.815 -0.0682  0.1283  0.1424
  905MOL0     C22042   5.511   6.172   0.862 -1.0203  0.0863  0.7379
  905MOL0     O22043   5.570   6.268   0.939 -0.4665  1.0793  0.8506
  905MOL0     C22044   5.709   6.272   0.951  0.3204  0.3087  0.7435
  905MOL0     C22045   5.779   6.167   1.006 -0.0383  0.0525  0.9253
  905MOL0     C22046   5.920   6.171   1.003  0.1908  0.0481 -0.0728
  905MOL0     C22047   5.990   6.283   0.954  0.5464 -0.1345  0.1752
  905MOL0     O22048   6.126   6.288   0.935  0.2415 -0.9517  0.1225
  905MOL0     C22049   6.207   6.188   0.997  0.6782  0.0412  0.6789
  905MOL0     C22050   6.352   6.195   0.958  0.8206  0.2153 -1.1500
  905MOL0     C22051   6.425   6.329   1.008 -0.2466  0.0399 -0.5097
  905MOL0     C22052   6.406   6.369   1.156 -0.6020 -0.1069  0.3215
  905MOL0     C22053   6.450   6.256   1.256  0.5013 -1.1404  0.7363
  905MOL0     C22054   6.402   6.290   1.397 -0.1145 -0.5579  1.3606
  905MOL0     C22055   6.458   6.198   1.505  0.0108 -0.7635  0.2828
  905MOL0     C22056   6.411   6.052   1.484 -0.8878  0.7732  0.0056
  905MOL0     N22057   6.262   6.053   1.469  1.1265 -0.5945  0.5544
  905MOL0     C22058   6.179   6.100   1.566 -0.4911 -0.2952 -0.4720
  905MOL0     C22059   6.053   6.077   1.519  0.0837  0.3861 -0.5910
  905MOL0     C22060   5.922   6.124   1.579 -0.2876 -0.2236  0.9338
  905MOL0     C22061   5.888   6.263   1.527 -0.1154 -0.5419 -0.4753
  905MOL0     C22062   5.878   6.266   1.376 -0.6210  0.1538  0.7146
  905MOL0     C22063   5.928   6.403   1.320 -0.2409 -0.2152 -0.7252
  905MOL0     O22064   5.860   6.510   1.384  0.2816  0.1882 -0.4051
  905MOL0     C22065   5.722   6.517   1.373 -0.1981 -1.0601 -0.1905
  905MOL0     C22066   5.652   6.548   1.496 -0.1516 -0.0973  0.1877
  905MOL0     C22067   5.510   6.563   1.506  0.4618 -0.6665  0.3181
  905MOL0     C22068   5.443   6.598   1.639 -0.0913  0.7198  0.0837
  905MOL0     C22069   5.441   6.548   1.381 -0.0863 -0.3388 -0.0550
  905MOL0     C22070   5.298   6.515   1.375 -0.2408 -0.5451 -0.0441
  905MOL0     O22071   5.240   6.529   1.254 -0.0575 -0.1340  0.3234
  905MOL0     C22072   5.113   6.466   1.233  0.2351  0.2733  1.6824
  905MOL0     C22073   5.023   6.534   1.148 -1.1949  0.3089 -0.6547
  905MOL0     C22074   4.893   6.486   1.123 -0.0266 -0.2794 -0.0479
  905MOL0     C22075   4.846   6.374   1.179  0.2767  0.3237 -0.9456
  905MOL0     O22076   4.710   6.329   1.158  0.4341 -0.0647 -0.1274
  905MOL0     C22077   4.604   6.432   1.176  0.4190  0.6990  0.3637
  905MOL0     C22078   4.630   6.496   1.314  0.3343 -0.1205  0.2331
  905MOL0     C22079   4.591   6.397   1.423 -0.4139  0.9569 -0.0716
  905MOL0     C22080   4.613   6.437   1.575 -0.9014  1.3968 -0.1884
  905MOL0     C22081   4.538   6.571   1.606 -0.2148  0.7457  0.0659
  905MOL0     C22082   4.504   6.597   1.755 -0.1807  0.6301  0.3559
  905MOL0     C22083   4.367   6.544   1.810  0.0910  0.0354 -0.8905
  905MOL0     C22084   4.351   6.572   1.963  0.5914 -0.3867  0.7610
  905MOL0    Cl22085   4.346   6.747   1.999 -0.1568 -0.2717  0.1873
  905MOL0     C22086   4.935   6.303   1.259 -0.0259  0.1691  0.7093
  905MOL0     C22087   5.067   6.341   1.288  0.3641  0.3256  0.0598
  905MOL0     O22088   5.257   6.457   1.476  0.3281  0.2464 -0.6887
  905MOL0     C22089   5.512   6.532   1.261 -0.5435 -0.7960 -0.9132
  905MOL0     C22090   5.647   6.512   1.256  0.0561  0.5978  0.6130
  905MOL0     N22091   6.064   5.990   1.416 -0.8024  0.1189  0.5554
  905MOL0     N22092   6.185   5.977   1.390 -0.3873 -0.0656 -0.0785
  905MOL0     C22093   5.917   6.388   0.894  0.3798  0.2543  0.3365
  905MOL0     C22094   5.780   6.378   0.888 -0.2019 -0.5932  0.2401
  905MOL0     C22095   5.367   6.181   0.827  0.0238 -0.6549  0.0355
  905MOL0     C22096   5.295   6.069   0.780  0.2044  0.5317  0.0976
  905MOL0     C22097   5.159   6.078   0.747 -0.1610 -0.2096 -0.2705
  905MOL0     C22098   5.083   6.196   0.749 -0.3758 -0.1356 -0.3630
  905MOL0     O22099   4.956   6.198   0.706 -0.8369 -0.1774  0.4458
  905MOL0     C22100   4.866   6.288   0.774  0.0177 -0.2018 -0.1774
  905MOL0     C22101   4.725   6.239   0.765  0.3174  0.0908  0.0492
  905MOL0     C22102   4.616   6.343   0.800  0.6151  0.7794 -0.0003
  905MOL0     C22103   4.481   6.315   0.732  0.5110  1.2331 -0.3193
  905MOL0     C22104   4.470   6.352   0.591  0.4228 -0.0319 -0.0680
  905MOL0     C22105   4.474   6.390   0.476 -0.1083 -0.3093 -0.5158
  905MOL0     C22106   5.151   6.312   0.799 -0.3389  0.2539 -0.6030
  905MOL0     C22107   5.292   6.301   0.829  0.6029 -0.1809 -1.0872
  905MOL0     H22108   5.723   6.087   1.053 -1.9778 -1.5357 -3.5919
  905MOL0     H22109   5.973   6.084   1.041  3.0660  0.9939 -1.6389
  905MOL0     H22110   6.193   6.192   1.105 -4.8339 -0.9599  0.3250
  905MOL0     H22111   6.171   6.090   0.966  0.3185  0.6238 -0.8781
  905MOL0     H22112   6.395   6.104   1.002  0.9041  0.2762 -1.1050
  905MOL0     H22113   6.356   6.180   0.849  1.6515  0.1537 -1.1171
  905MOL0     H22114   6.530   6.300   0.996  0.2051  1.3653 -0.0070
  905MOL0     H22115   6.406   6.415   0.943 -0.3542  0.6765  0.3384
  905MOL0     H22116   6.470   6.458   1.161  2.5381 -1.8347 -3.2487
  905MOL0     H22117   6.301   6.388   1.176 -0.1284  2.2545  0.8897
  905MOL0     H22118   6.405   6.160   1.227  0.2420 -0.6417 -0.5788
  905MOL0     H22119   6.559   6.255   1.250  0.4251  0.1534 -3.1730
  905MOL0     H22120   6.418   6.398   1.407  2.6884 -0.7364 -0.0032
  905MOL0     H22121   6.293   6.280   1.395 -0.2028  0.0049  2.3848
  905MOL0     H22122   6.567   6.197   1.507  0.0171 -0.2469  0.6570
  905MOL0     H22123   6.416   6.232   1.600 -3.6644  2.5078 -2.2008
  905MOL0     H22124   6.441   6.004   1.577 -4.2155  1.0023  1.3542
  905MOL0     H22125   6.469   6.008   1.402  2.8069  1.6256  1.9704
  905MOL0     H22126   6.192   6.154   1.659 -1.6363  0.4968 -0.7501
  905MOL0     H22127   5.841   6.057   1.551  1.0384 -0.5561 -2.6395
  905MOL0     H22128   5.928   6.125   1.688 -0.0748 -0.0775  0.9220
  905MOL0     H22129   5.977   6.319   1.556 -0.8559 -0.0893  1.0428
  905MOL0     H22130   5.792   6.302   1.563 -0.1307  0.9640 -1.9851
  905MOL0     H22131   5.774   6.243   1.351 -0.1619  0.8303 -2.1985
  905MOL0     H22132   5.942   6.192   1.325  0.8656  1.1504  1.0592
  905MOL0     H22133   5.923   6.384   1.213  2.3073 -2.7965 -0.4994
  905MOL0     H22134   6.034   6.421   1.340 -0.3032 -1.3798  0.8736
  905MOL0     H22135   5.712   6.552   1.586 -1.3250 -0.2156  0.9900
  905MOL0     H22136   5.424   6.499   1.681  1.1586  0.8059  0.9115
  905MOL0     H22137   5.509   6.652   1.707 -1.0486 -0.7065  2.2746
  905MOL0     H22138   5.350   6.652   1.618  1.1356  2.4218 -1.2335
  905MOL0     H22139   5.054   6.620   1.090  0.3616 -1.7792 -3.1565
  905MOL0     H22140   4.825   6.544   1.062 -0.0756 -0.6755 -0.3742
  905MOL0     H22141   4.609   6.501   1.091 -0.0982 -1.0575 -1.1600
  905MOL0     H22142   4.503   6.391   1.171  1.3137 -1.9371  2.0052
  905MOL0     H22143   4.728   6.544   1.324 -0.3965  1.6575 -0.6610
  905MOL0     H22144   4.569   6.587   1.323  1.7348  0.8146  0.5268
  905MOL0     H22145   4.657   6.311   1.406 -1.2105  0.4108 -0.4849
  905MOL0     H22146   4.488   6.363   1.405  0.4404 -0.2807 -3.1334
  905MOL0     H22147   4.570   6.359   1.638  0.3826  1.7325  1.1652
  905MOL0     H22148   4.721   6.442   1.594 -0.0268  0.7055 -4.0445
  905MOL0     H22149   4.450   6.571   1.540 -1.5515 -2.4998  1.6160
  905MOL0     H22150   4.603   6.655   1.580 -1.0624  1.3375 -0.2215
  905MOL0     H22151   4.587   6.542   1.800 -0.7593 -0.6786 -0.1210
  905MOL0     H22152   4.500   6.705   1.776 -4.2273  0.9612 -1.1109
  905MOL0     H22153   4.358   6.438   1.785 -1.6577 -0.9134  3.0209
  905MOL0     H22154   4.287   6.591   1.751 -1.6673  0.5334  1.7261
  905MOL0     H22155   4.427   6.518   2.021  1.1635 -0.4847 -0.0644
  905MOL0     H22156   4.259   6.518   1.988  0.6987 -0.2076  1.5662
  905MOL0     H22157   4.899   6.210   1.302 -1.9151  0.4664 -0.1210
  905MOL0     H22158   5.121   6.279   1.358 -3.5839  0.4152  3.5471
  905MOL0     H22159   5.454   6.498   1.176 -2.0864 -3.1180  0.9370
  905MOL0     H22160   5.697   6.491   1.162  1.0649  2.8176  0.6064
  905MOL0     H22161   5.980   6.467   0.854  0.9609  0.1945  1.1043
  905MOL0     H22162   5.718   6.457   0.844  2.0732  1.2072  0.0742
  905MOL0     H22163   5.336   5.969   0.769 -1.9551 -0.2898 -1.2570
  905MOL0     H22164   5.118   5.982   0.716  0.0763 -0.6114  0.6408
  905MOL0     H22165   4.889   6.292   0.880  1.1005 -2.2824 -0.2779
  905MOL0     H22166   4.880   6.393   0.749 -2.8552  0.7041  1.5700
  905MOL0     H22167   4.710   6.149   0.825  1.4432 -0.1787 -0.0599
  905MOL0     H22168   4.728   6.213   0.659  2.2083  2.0982 -0.4724
  905MOL0     H22169   4.645   6.445   0.773 -0.8439  0.9538 -0.9643
  905MOL0     H22170   4.598   6.337   0.908  2.3063  5.7104  0.8245
  905MOL0     H22171   4.405   6.374   0.784 -0.4645 -1.4056  1.4680
  905MOL0     H22172   4.443   6.214   0.751 -2.1391  2.6564  2.8554
  905MOL0     H22173   4.481   6.431   0.377  0.0405 -1.3639 -0.9619
  905MOL0     H22174   5.102   6.409   0.807  0.7559  0.7044  0.9730
  905MOL0     H22175   5.352   6.388   0.853  0.8184 -0.6438  0.1112
  906MOL0     O22176  11.444   8.721   9.842  0.0342  0.2634 -0.6209
  906MOL0     C22177  11.471   8.779   9.940 -0.3711  0.6327 -0.4338
  906MOL0     O22178  11.408   8.897   9.994 -0.2602  0.3357 -0.4230
  906MOL0     C22179  11.298   8.948   9.929  0.2364 -0.5849 -0.1631
  906MOL0     C22180  11.194   8.991  10.008  0.2684  0.2087  1.1144
  906MOL0     C22181  11.088   9.058   9.961  0.0016 -0.2761 -0.1888
  906MOL0     C22182  11.084   9.095   9.823 -0.0868 -0.5624 -0.8055
  906MOL0     O22183  10.983   9.173   9.774  0.8157 -0.5455  0.0516
  906MOL0     C22184  11.022   9.297   9.703 -0.0236  1.1589  0.1613
  906MOL0     C22185  10.890   9.365   9.645  0.1441 -0.3357 -0.3675
  906MOL0     C22186  10.772   9.390   9.753 -0.0853  0.0346 -0.5521
  906MOL0     C22187  10.659   9.458   9.667 -0.3500 -0.0033  0.3859
  906MOL0     C22188  10.547   9.491   9.766 -0.3808 -0.2156  0.7245
  906MOL0     C22189  10.567   9.625   9.844 -0.3927 -0.5023  0.9063
  906MOL0     C22190  10.542   9.747   9.741 -0.0538 -0.0514 -0.2900
  906MOL0     C22191  10.493   9.882   9.787 -0.0234 -0.3200 -0.7396
  906MOL0     N22192  10.545   9.925   9.923  0.3987  0.3331 -0.3756
  906MOL0     C22193  10.495   9.874  10.047 -0.4201  0.4197  0.3798
  906MOL0     C22194  10.580   9.909  10.148 -0.2360  0.4998  1.4114
  906MOL0     C22195  10.566   9.898  10.289  0.9655  0.3719 -0.4174
  906MOL0     C22196  10.462   9.995  10.344 -0.1026 -0.3055 -0.1798
  906MOL0     C22197  10.502  10.143  10.330 -0.0484 -0.3018  0.9109
  906MOL0     C22198  10.641  10.167  10.395  0.2126 -0.2829  0.1043
  906MOL0     O22199  10.636  10.131  10.530 -0.0461  0.8011  0.0187
  906MOL0     C22200  10.749  10.089  10.597 -0.6524 -0.1207 -0.0984
  906MOL0     C22201  10.731  10.035  10.724  0.5084 -0.3621  0.5254
  906MOL0     C22202  10.842   9.992  10.791  1.6760  0.6943 -0.6107
  906MOL0     C22203  10.819   9.918  10.919 -0.9165  1.2435 -0.4888
  906MOL0     C22204  10.968  10.009  10.739  0.5604 -0.3679  0.4783
  906MOL0     C22205  11.096   9.962  10.808  0.3619 -0.1519 -0.2256
  906MOL0     O22206  11.202  10.040  10.785 -0.7858 -0.5268 -0.7616
  906MOL0     C22207  11.316   9.983  10.822 -0.2807  0.0908 -0.1340
  906MOL0     C22208  11.375  10.025  10.942 -0.1085  0.0843 -0.3764
  906MOL0     C22209  11.501   9.971  10.970  0.3507  0.7068  0.4531
  906MOL0     C22210  11.562   9.869  10.899 -0.5393 -0.1997 -0.8132
  906MOL0     O22211  11.683   9.809  10.922 -0.2991  0.1047  0.4050
  906MOL0     C22212  11.789   9.874  11.004 -0.5512  0.0931 -1.0334
  906MOL0     C22213  11.886   9.966  10.933  0.3649  1.0567 -0.4896
  906MOL0     C22214  11.980   9.885  10.842 -0.3490  0.1589  0.5975
  906MOL0     C22215  12.037   9.972  10.723  0.4156  0.0184  0.2618
  906MOL0     C22216  12.133   9.890  10.638 -0.0634  0.3321 -0.8298
  906MOL0     C22217  12.226   9.977  10.555  0.2246 -0.7021 -1.4051
  906MOL0     C22218  12.306  10.082  10.632  0.0433  0.1219 -1.5475
  906MOL0     C22219  12.389  10.174  10.557  0.3492 -0.7556  1.0617
  906MOL0    Cl22220  12.515  10.094  10.449  0.3394  0.1892 -0.6896
  906MOL0     C22221  11.504   9.845  10.779  0.0522 -0.0478  0.6612
  906MOL0     C22222  11.381   9.898  10.738 -1.4098  0.3495  0.4015
  906MOL0     O22223  11.094   9.851  10.860  1.2894 -0.4965 -0.2409
  906MOL0     C22224  10.985  10.085  10.615  0.2310 -0.9267 -0.7393
  906MOL0     C22225  10.875  10.129  10.547  0.2950 -0.4817 -0.2199
  906MOL0     N22226  10.668   9.999  10.082  0.0116  0.5032  0.3798
  906MOL0     N22227  10.644  10.012   9.956 -0.1849  0.5888  0.9463
  906MOL0     C22228  11.193   9.053   9.746  0.6620  0.2023  0.1024
  906MOL0     C22229  11.301   8.974   9.792  0.1545  0.0498  0.1709
  906MOL0     C22230  11.596   8.733  10.003  0.5222  0.2207 -0.0805
  906MOL0     C22231  11.651   8.601   9.997 -0.3595 -0.1936  0.2157
  906MOL0     C22232  11.764   8.564  10.066  0.2326  0.4517 -0.0708
  906MOL0     C22233  11.837   8.652  10.135  0.1825 -0.3769 -0.1712
  906MOL0     O22234  11.939   8.608  10.212 -0.0388 -0.1962  0.2772
  906MOL0     C22235  12.065   8.693  10.201 -0.0467  0.7309  0.1091
  906MOL0     C22236  12.193   8.604  10.199  0.0171 -0.2329  0.0719
  906MOL0     C22237  12.204   8.509  10.324 -0.3105  0.4454  0.0946
  906MOL0     C22238  12.338   8.417  10.309 -0.1508  0.1916 -0.4009
  906MOL0     C22239  12.455   8.509  10.336  0.1399 -0.4411 -0.2820
  906MOL0     C22240  12.546   8.570  10.380 -0.0908  0.6980 -0.3796
  906MOL0     C22241  11.791   8.785  10.147  1.2912  0.1723 -0.0396
  906MOL0     C22242  11.671   8.825  10.075 -0.7409  0.0428 -0.1064
  906MOL0     H22243  11.203   8.973  10.115  0.9128 -1.7315  0.7857
  906MOL0     H22244  11.011   9.092  10.030  0.4839  0.3895  0.0371
  906MOL0     H22245  11.073   9.358   9.778  0.6501  1.7953 -0.7879
  906MOL0     H22246  11.096   9.289   9.622  1.9233 -1.3120  2.0433
  906MOL0     H22247  10.914   9.469   9.618 -3.7120  1.1193  1.0474
  906MOL0     H22248  10.853   9.322   9.552 -1.5441  0.5356 -0.1402
  906MOL0     H22249  10.738   9.294   9.794  1.9678 -0.6565 -0.3650
  906MOL0     H22250  10.813   9.441   9.840  0.9542 -0.9412 -0.4458
  906MOL0     H22251  10.706   9.538   9.609  1.5063 -0.5676  1.0663
  906MOL0     H22252  10.622   9.388   9.592 -0.2988 -0.4643  0.7849
  906MOL0     H22253  10.457   9.493   9.703 -0.0576  0.5714  0.2769
  906MOL0     H22254  10.533   9.407   9.834 -1.0794 -2.0751 -1.5647
  906MOL0     H22255  10.494   9.630   9.925 -2.7832  2.4044 -1.1879
  906MOL0     H22256  10.666   9.628   9.890 -0.5567 -4.0045  1.8090
  906MOL0     H22257  10.639   9.777   9.700 -0.2866  1.6703  0.3519
  906MOL0     H22258  10.482   9.711   9.657 -2.6157  0.0567  1.3969
  906MOL0     H22259  10.384   9.879   9.780  0.0777 -1.5337 -2.1537
  906MOL0     H22260  10.532   9.959   9.721  1.8628  1.1831  1.9206
  906MOL0     H22261  10.413   9.804  10.052  0.3783 -0.4528  2.1604
  906MOL0     H22262  10.539   9.794  10.309  6.2664 -1.3719 -0.9045
  906MOL0     H22263  10.653   9.900  10.355 -1.1666 -0.2892  2.6298
  906MOL0     H22264  10.444   9.962  10.446  0.0431  0.4584  0.1052
  906MOL0     H22265  10.366   9.969  10.300  0.7328 -3.4780 -0.3352
  906MOL0     H22266  10.424  10.193  10.387  0.5474  0.3696  1.1541
  906MOL0     H22267  10.512  10.171  10.225  1.0517  0.4206  1.1897
  906MOL0     H22268  10.673  10.270  10.377  0.2396 -0.1201  1.0396
  906MOL0     H22269  10.714  10.105  10.343  0.1994 -0.8199  0.7222
  906MOL0     H22270  10.627  10.021  10.750 -0.0942 -0.2550 -1.5981
  906MOL0     H22271  10.892   9.946  10.995 -0.7368  1.2756 -0.6717
  906MOL0     H22272  10.719   9.939  10.957 -1.0327 -1.9865  1.3734
  906MOL0     H22273  10.812   9.811  10.899 -1.3351  0.8615  1.5099
  906MOL0     H22274  11.326  10.101  11.001 -1.9072 -0.8751 -0.5437
  906MOL0     H22275  11.541  10.004  11.065 -0.2732  0.3874  0.8339
  906MOL0     H22276  11.749   9.932  11.087  0.8812 -2.9326  2.0318
  906MOL0     H22277  11.831   9.785  11.052 -2.5850 -0.7406 -0.6987
  906MOL0     H22278  11.826  10.039  10.878 -0.1272 -1.0638 -2.9582
  906MOL0     H22279  11.958  10.016  10.999  2.6508 -1.4935 -0.8943
  906MOL0     H22280  11.925   9.803  10.794  0.2745  1.5637 -2.7995
  906MOL0     H22281  12.064   9.853  10.904  0.1712  1.3390  0.5266
  906MOL0     H22282  11.958  10.016  10.662  0.4548  1.4338  1.1719
  906MOL0     H22283  12.086  10.056  10.773  4.3218 -1.8767 -0.0124
  906MOL0     H22284  12.085   9.817  10.572  0.9076 -0.4482 -0.6857
  906MOL0     H22285  12.188   9.831  10.712 -1.3000 -0.7223 -0.7235
  906MOL0     H22286  12.294   9.928  10.485  0.3659 -0.9048 -1.1293
  906MOL0     H22287  12.157  10.037  10.495 -1.2754 -1.3279 -0.3580
  906MOL0     H22288  12.359  10.027  10.710 -0.8177 -1.1449 -1.8308
  906MOL0     H22289  12.233  10.142  10.687 -0.5957 -1.2076 -0.9117
  906MOL0     H22290  12.441  10.243  10.623 -0.0176  2.3913 -1.6650
  906MOL0     H22291  12.324  10.231  10.490  0.5795 -2.9411 -1.1854
  906MOL0     H22292  11.552   9.786  10.702 -4.5392 -2.5869 -0.6332
  906MOL0     H22293  11.338   9.870  10.642  1.3753 -0.0312 -0.8484
  906MOL0     H22294  11.084  10.092  10.571  1.4626 -2.4533  1.5342
  906MOL0     H22295  10.899  10.191  10.460  2.0646  1.9427  1.8445
  906MOL0     H22296  11.175   9.074   9.640 -4.0172  0.1932  0.6873
  906MOL0     H22297  11.372   8.926   9.725 -0.2094 -0.2176 -0.0253
  906MOL0     H22298  11.601   8.522   9.943  2.0871  0.7525 -3.8304
  906MOL0     H22299  11.807   8.465  10.078 -1.1207  0.0961  2.3977
  906MOL0     H22300  12.067   8.751  10.109 -2.8150  2.3002  0.9067
  906MOL0     H22301  12.066   8.767  10.282 -2.7271  0.2833  0.6691
  906MOL0     H22302  12.281   8.668  10.187 -0.1092 -0.2983 -1.4702
  906MOL0     H22303  12.206   8.538  10.112 -1.6293  0.8310 -1.0344
  906MOL0     H22304  12.123   8.436  10.314 -1.9561  2.4191 -1.8600
  906MOL0     H22305  12.187   8.561  10.418  1.8487  3.1543 -0.8833
  906MOL0     H22306  12.335   8.360  10.215  0.0481 -1.1421  0.3681
  906MOL0     H22307  12.346   8.343  10.389  1.8814 -0.7110 -1.3412
  906MOL0     H22308  12.632   8.612  10.428 -0.5116 -0.4147  1.4635
  906MOL0     H22309  11.830   8.852  10.223 -1.3709  0.4144  1.2333
  906MOL0     H22310  11.638   8.924  10.106  0.2428 -0.1335  1.6692
  907MOL0     O22311   9.672  10.208   3.513  0.3457 -0.7798  0.1628
  907MOL0     C22312   9.731  10.163   3.607  0.1696 -0.2250  0.4305
  907MOL0     O22313   9.679  10.151   3.739 -0.3059  0.4135 -0.7114
  907MOL0     C22314   9.553  10.185   3.763 -0.4898  1.0441  0.5401
  907MOL0     C22315   9.467  10.092   3.704 -0.2414 -0.7694 -0.1658
  907MOL0     C22316   9.340  10.127   3.688  1.5001 -0.6293  0.3138
  907MOL0     C22317   9.288  10.249   3.746  1.0648  0.4534 -0.1015
  907MOL0     O22318   9.156  10.281   3.732  0.5117 -0.2237 -0.2770
  907MOL0     C22319   9.064  10.205   3.650 -0.3880  0.2765  0.1059
  907MOL0     C22320   8.919  10.256   3.661 -0.3236  0.7909  0.4392
  907MOL0     C22321   8.817  10.166   3.573  0.9417 -0.5636 -0.0329
  907MOL0     C22322   8.835  10.205   3.429  0.5723 -0.2872  1.1329
  907MOL0     C22323   8.728  10.133   3.341  0.4525 -0.7051  0.6585
  907MOL0     C22324   8.587  10.183   3.375  0.1541  1.1292 -1.2188
  907MOL0     C22325   8.476  10.137   3.279  0.9322 -0.2125  0.3653
  907MOL0     C22326   8.341  10.221   3.277  0.1044 -0.0290 -1.0177
  907MOL0     N22327   8.276  10.207   3.410 -0.9831 -0.4910  0.0949
  907MOL0     C22328   8.195  10.105   3.449  0.2738  0.0272 -0.2838
  907MOL0     C22329   8.144  10.131   3.573  0.2228 -0.2495 -0.3085
  907MOL0     C22330   8.078  10.046   3.675  0.9399 -0.2932 -0.1865
  907MOL0     C22331   7.924  10.014   3.639  0.4833  0.1228 -0.2712
  907MOL0     C22332   7.909   9.902   3.531  0.5247  0.4528  0.3798
  907MOL0     C22333   7.772   9.822   3.560 -0.2215  0.3645  0.2289
  907MOL0     O22334   7.782   9.712   3.649  0.7461  0.6885  0.2953
  907MOL0     C22335   7.672   9.632   3.662 -0.0312  0.0966  0.7959
  907MOL0     C22336   7.683   9.520   3.745  0.6740  0.4087  0.5070
  907MOL0     C22337   7.570   9.436   3.784 -0.2142 -0.3733  0.1153
  907MOL0     C22338   7.597   9.330   3.881  0.7112  0.4156 -0.3465
  907MOL0     C22339   7.445   9.473   3.738 -0.1496 -0.5029 -0.3898
  907MOL0     C22340   7.322   9.376   3.742  1.2111  1.1438 -0.0387
  907MOL0     O22341   7.253   9.361   3.625  0.6168 -0.0112  0.2380
  907MOL0     C22342   7.161   9.261   3.616  1.3505  0.1765  0.4275
  907MOL0     C22343   7.028   9.299   3.590 -0.0685  0.2521  0.3255
  907MOL0     C22344   6.937   9.193   3.565  0.3764 -0.1484 -0.2996
  907MOL0     C22345   6.979   9.057   3.570  0.0936 -0.8044  1.1005
  907MOL0     O22346   6.905   8.950   3.531 -0.0735 -0.0444  0.2739
  907MOL0     C22347   6.762   8.974   3.500 -0.5644 -0.5888  0.4151
  907MOL0     C22348   6.710   8.852   3.436  0.6317  0.6197 -0.5443
  907MOL0     C22349   6.691   8.735   3.537 -0.1924  0.4869  0.5279
  907MOL0     C22350   6.631   8.621   3.465  0.2490 -0.2462 -0.8797
  907MOL0     C22351   6.603   8.509   3.563 -0.0618 -0.3543  0.2034
  907MOL0     C22352   6.575   8.373   3.495  0.6218 -0.1976 -0.5976
  907MOL0     C22353   6.431   8.365   3.445  0.5533  1.1819 -1.1210
  907MOL0     C22354   6.326   8.333   3.554  0.1343 -0.5203  1.0255
  907MOL0    Cl22355   6.177   8.288   3.457  0.4267  0.1360 -0.0717
  907MOL0     C22356   7.110   9.026   3.600 -0.1878  0.2435  0.5593
  907MOL0     C22357   7.199   9.126   3.617  0.0054 -0.3587  0.4913
  907MOL0     O22358   7.308   9.302   3.840  0.5283 -0.4589  0.5717
  907MOL0     C22359   7.438   9.579   3.644 -1.0325  0.2437 -0.4731
  907MOL0     C22360   7.548   9.669   3.625  0.2318  0.3084 -0.8425
  907MOL0     N22361   8.184  10.262   3.599  0.1668  0.2874 -0.0540
  907MOL0     N22362   8.260  10.308   3.502  0.3184  0.0297 -0.8880
  907MOL0     C22363   9.373  10.334   3.819  0.4195  0.8990  0.2995
  907MOL0     C22364   9.512  10.303   3.829  0.5111 -0.4284  0.1437
  907MOL0     C22365   9.872  10.110   3.590 -0.8778 -1.0288 -0.6162
  907MOL0     C22366   9.926  10.017   3.683 -0.5372  0.4813  0.2052
  907MOL0     C22367  10.056   9.960   3.672 -0.3864  0.2941  0.2439
  907MOL0     C22368  10.136   9.991   3.556 -0.0924  0.0603  0.1035
  907MOL0     O22369  10.253   9.933   3.535 -0.3830  0.1914  0.3159
  907MOL0     C22370  10.244   9.796   3.547  0.0666  0.3820 -0.5941
  907MOL0     C22371  10.324   9.721   3.436 -0.0302 -0.3337 -1.0009
  907MOL0     C22372  10.267   9.749   3.295  0.2165  0.7376 -0.7990
  907MOL0     C22373  10.345   9.659   3.199  0.6069 -0.5726 -0.1215
  907MOL0     C22374  10.414   9.734   3.097  0.4754  0.4793 -0.1211
  907MOL0     C22375  10.471   9.788   3.009  0.3449  0.2033  0.4785
  907MOL0     C22376  10.082  10.077   3.457  0.6468 -0.0643 -0.1638
  907MOL0     C22377   9.951  10.136   3.477  0.0267 -0.2970  0.6255
  907MOL0     H22378   9.505  10.010   3.643  0.4960 -1.0493  0.6556
  907MOL0     H22379   9.267  10.073   3.630 -0.1153  0.1310  1.5429
  907MOL0     H22380   9.100  10.212   3.547 -3.4026  1.6038 -0.9683
  907MOL0     H22381   9.052  10.102   3.684 -0.2505  0.9517  2.3924
  907MOL0     H22382   8.893  10.249   3.767  1.7236 -0.4311  0.9229
  907MOL0     H22383   8.912  10.358   3.622  0.6701  1.5950  2.2454
  907MOL0     H22384   8.837  10.059   3.581  2.4893 -0.4350 -1.5858
  907MOL0     H22385   8.718  10.192   3.611  1.1051 -1.8442  1.3888
  907MOL0     H22386   8.813  10.312   3.419 -0.7537 -0.4969  1.5605
  907MOL0     H22387   8.940  10.189   3.402  1.5003  3.9198  1.5788
  907MOL0     H22388   8.748  10.151   3.234 -5.1888  0.4550 -0.5260
  907MOL0     H22389   8.726  10.025   3.358  0.9782 -0.8873 -0.3372
  907MOL0     H22390   8.558  10.167   3.479  0.0833 -0.8054 -1.5004
  907MOL0     H22391   8.587  10.293   3.367 -0.0533  1.1521 -0.9420
  907MOL0     H22392   8.501  10.137   3.173 -1.7312  1.6546 -0.3668
  907MOL0     H22393   8.457  10.030   3.287 -1.1194  0.0566 -0.2496
  907MOL0     H22394   8.278  10.170   3.204 -0.7110 -4.2785  2.2783
  907MOL0     H22395   8.350  10.328   3.253 -5.1630  0.8105 -0.4689
  907MOL0     H22396   8.185  10.009   3.399  4.2052 -0.9566  0.4277
  907MOL0     H22397   8.144   9.961   3.695  2.2842 -0.4189 -4.2602
  907MOL0     H22398   8.074  10.113   3.762 -0.2396  0.1020 -0.5196
  907MOL0     H22399   7.873  10.101   3.597  0.1947  0.5930  1.0238
  907MOL0     H22400   7.873   9.990   3.733  0.2273  0.0563 -0.4261
  907MOL0     H22401   7.996   9.837   3.529  0.1817  0.0050 -0.3652
  907MOL0     H22402   7.902   9.951   3.433  1.6829 -0.2534 -0.0810
  907MOL0     H22403   7.730   9.786   3.466 -0.8621 -0.6616  0.8793
  907MOL0     H22404   7.699   9.892   3.604  0.2729  1.3832 -0.5268
  907MOL0     H22405   7.782   9.491   3.777  0.6979  1.3398  1.3704
  907MOL0     H22406   7.705   9.329   3.899  0.4923  0.8701  1.0549
  907MOL0     H22407   7.550   9.346   3.978 -0.3855 -1.8743 -0.4315
  907MOL0     H22408   7.563   9.235   3.838  1.0697  0.1018  0.0490
  907MOL0     H22409   6.999   9.403   3.576 -0.1048  0.0584 -1.3194
  907MOL0     H22410   6.839   9.222   3.528  1.3980  1.7749 -1.6533
  907MOL0     H22411   6.702   8.999   3.588 -1.5465 -0.8092 -0.1722
  907MOL0     H22412   6.757   9.052   3.424 -1.6027 -0.8175  0.2278
  907MOL0     H22413   6.625   8.876   3.371 -0.1419 -1.4949 -0.4151
  907MOL0     H22414   6.779   8.820   3.357 -1.2723  0.7941 -2.3725
  907MOL0     H22415   6.633   8.749   3.629 -1.6305 -2.3362  0.1495
  907MOL0     H22416   6.791   8.707   3.572  1.0032  2.3840 -1.1290
  907MOL0     H22417   6.533   8.653   3.428 -1.9081 -0.8299  3.6801
  907MOL0     H22418   6.694   8.583   3.384  0.0429 -2.4231 -0.0910
  907MOL0     H22419   6.515   8.545   3.617  0.0727  2.6656 -1.3727
  907MOL0     H22420   6.684   8.493   3.636  2.2907  1.0602 -1.9339
  907MOL0     H22421   6.648   8.363   3.414  1.3701  2.0463 -0.2697
  907MOL0     H22422   6.592   8.304   3.578  3.5937  0.8791 -0.2080
  907MOL0     H22423   6.436   8.286   3.370  0.0223  0.1113 -0.0679
  907MOL0     H22424   6.405   8.455   3.389  0.8031  2.3169  0.5009
  907MOL0     H22425   6.315   8.428   3.608  0.1896  1.6639 -2.4687
  907MOL0     H22426   6.363   8.252   3.617 -0.5597 -1.4655  0.2430
  907MOL0     H22427   7.168   8.935   3.599  1.8233  1.4439  1.2335
  907MOL0     H22428   7.305   9.103   3.620  0.6999  1.7617 -2.6116
  907MOL0     H22429   7.342   9.618   3.614  0.0687  4.0076  0.3625
  907MOL0     H22430   7.522   9.757   3.568  0.4955 -1.4749 -3.9044
  907MOL0     H22431   9.336  10.427   3.861  0.1458  1.2721 -0.7311
  907MOL0     H22432   9.583  10.366   3.882  0.5574 -1.8443  1.8464
  907MOL0     H22433   9.856   9.984   3.759 -0.0529  0.0618  0.4713
  907MOL0     H22434  10.096   9.891   3.746  1.2176 -1.3354 -1.9947
  907MOL0     H22435  10.280   9.775   3.648 -3.9979  2.7012  1.5992
  907MOL0     H22436  10.142   9.757   3.549 -0.2405  1.1519  1.4594
  907MOL0     H22437  10.322   9.615   3.462  1.4442  0.2010  1.6480
  907MOL0     H22438  10.425   9.761   3.444  0.9746 -2.4297 -2.4903
  907MOL0     H22439  10.285   9.852   3.264 -1.6256  0.6490 -2.3363
  907MOL0     H22440  10.160   9.726   3.295  0.4438 -0.3762 -0.6581
  907MOL0     H22441  10.273   9.599   3.143  1.3132 -1.4098 -0.1632
  907MOL0     H22442  10.424   9.602   3.248  2.7191  1.0560 -1.4113
  907MOL0     H22443  10.511   9.855   2.935 -1.0099  2.4003  1.6186
  907MOL0     H22444  10.147  10.108   3.375  1.1869 -1.0238 -0.1075
  907MOL0     H22445   9.911  10.202   3.401  0.9756 -1.2336 -0.7402
  908MOL0     O22446   0.692   2.518   1.864  0.3153 -0.7740  0.2404
  908MOL0     C22447   0.573   2.511   1.835 -0.2741 -0.3402 -0.1983
  908MOL0     O22448   0.512   2.578   1.734 -0.0563 -0.1624 -0.4084
  908MOL0     C22449   0.574   2.671   1.659  0.6416  0.2641 -0.6948
  908MOL0     C22450   0.664   2.765   1.716  0.7180 -0.2130 -0.1913
  908MOL0     C22451   0.707   2.865   1.636  0.0194 -0.8739 -0.2929
  908MOL0     C22452   0.659   2.884   1.507 -0.3738  0.0115  0.0777
  908MOL0     O22453   0.721   2.985   1.445  0.4529 -0.1351  0.1994
  908MOL0     C22454   0.732   2.977   1.305  0.8276  0.3215 -0.2339
  908MOL0     C22455   0.854   3.063   1.264 -0.3331 -0.4334  0.9721
  908MOL0     C22456   0.993   2.996   1.317 -0.3968  0.3517  0.0548
  908MOL0     C22457   1.044   2.883   1.233 -0.2385  0.1906  1.0840
  908MOL0     C22458   1.187   2.844   1.271 -0.1233 -0.2354 -0.7374
  908MOL0     C22459   1.196   2.782   1.412 -0.5931 -0.8558  0.7144
  908MOL0     C22460   1.139   2.641   1.431 -0.1118 -1.0728  1.1434
  908MOL0     C22461   0.985   2.647   1.484 -1.5840 -0.4187 -0.0703
  908MOL0     N22462   0.903   2.550   1.421 -0.0731 -0.1719  0.0502
  908MOL0     C22463   0.892   2.420   1.455 -0.2843  0.0427  0.8269
  908MOL0     C22464   0.788   2.381   1.381  0.1275  0.1070  0.1813
  908MOL0     C22465   0.746   2.238   1.400  0.1727  0.2790 -0.8066
  908MOL0     C22466   0.642   2.207   1.509 -0.4659  0.4537 -0.3098
  908MOL0     C22467   0.503   2.215   1.459 -0.0098  0.4551 -0.3428
  908MOL0     C22468   0.402   2.152   1.555 -0.4903 -0.1064  0.1279
  908MOL0     O22469   0.459   2.028   1.615  0.2544 -0.5511 -0.7060
  908MOL0     C22470   0.374   1.953   1.690 -0.2221  0.2551 -0.3802
  908MOL0     C22471   0.429   1.826   1.726 -0.3841 -0.4560  0.0775
  908MOL0     C22472   0.365   1.746   1.825 -0.3252  0.0901  0.7247
  908MOL0     C22473   0.452   1.623   1.878 -0.2441 -0.2797 -0.1160
  908MOL0     C22474   0.243   1.771   1.883  0.3619 -0.9433 -0.6797
  908MOL0     C22475   0.182   1.688   1.995  0.5065  0.1303  0.5935
  908MOL0     O22476   0.262   1.621   2.084 -0.0621  0.3975 -0.1843
  908MOL0     C22477   0.211   1.566   2.202  0.2637 -0.1405 -0.0069
  908MOL0     C22478   0.306   1.523   2.293  0.1068  0.3475 -0.8530
  908MOL0     C22479   0.270   1.472   2.411  0.1976 -0.1949  0.0539
  908MOL0     C22480   0.137   1.465   2.451  0.1718 -0.6174  0.9015
  908MOL0     O22481   0.100   1.418   2.577  0.0039 -0.4881  0.3827
  908MOL0     C22482  -0.039   1.426   2.624  1.0963 -1.0971  0.0932
  908MOL0     C22483  -0.052   1.387   2.771  0.4405 -0.0440 -0.7794
  908MOL0     C22484  -0.196   1.408   2.819 -1.5580 -0.1790 -0.1837
  908MOL0     C22485  -0.194   1.400   2.967 -0.0151 -0.1128 -0.1745
  908MOL0     C22486  -0.328   1.423   3.037 -0.8254 -0.3033 -0.3426
  908MOL0     C22487  -0.425   1.300   3.037 -0.0400 -0.3758  0.3193
  908MOL0     C22488  -0.554   1.329   3.111  0.2726  0.1878 -0.0716
  908MOL0     C22489  -0.528   1.352   3.258 -0.0170  0.8699  0.3713
  908MOL0    Cl22490  -0.682   1.381   3.344 -0.0284  0.1236 -0.1338
  908MOL0     C22491   0.037   1.488   2.356  0.4059 -1.6700  0.5198
  908MOL0     C22492   0.079   1.542   2.232  0.6612  0.1998 -0.8348
  908MOL0     O22493   0.061   1.693   1.998  0.2365  0.4604 -0.0933
  908MOL0     C22494   0.185   1.894   1.845 -0.1578 -0.6122 -0.0088
  908MOL0     C22495   0.251   1.987   1.759 -1.1375  0.3289 -0.4517
  908MOL0     N22496   0.726   2.483   1.311 -0.2457 -0.1191  0.3887
  908MOL0     N22497   0.803   2.586   1.326 -0.5302 -0.3203  0.7269
  908MOL0     C22498   0.565   2.793   1.451 -0.2824 -0.5942 -0.6102
  908MOL0     C22499   0.522   2.686   1.528  0.3359 -0.4344  0.7325
  908MOL0     C22500   0.485   2.414   1.921  0.8871  0.5318  0.3414
  908MOL0     C22501   0.543   2.341   2.025 -0.0327 -0.0234  0.4165
  908MOL0     C22502   0.466   2.242   2.096 -0.3020 -0.3349  0.1283
  908MOL0     C22503   0.333   2.219   2.061 -0.2079 -0.4844  1.0857
  908MOL0     O22504   0.255   2.133   2.126  0.0303  1.1429 -0.4917
  908MOL0     C22505   0.311   2.006   2.164  0.3986 -0.2364  0.0613
  908MOL0     C22506   0.213   1.902   2.215  0.4400  0.3145 -0.3322
  908MOL0     C22507   0.136   1.917   2.345  1.0977 -0.0449  0.3449
  908MOL0     C22508   0.223   1.878   2.467  0.0083 -0.1052  0.2816
  908MOL0     C22509   0.178   1.924   2.595  0.6541  0.1486 -0.1753
  908MOL0     C22510   0.138   1.958   2.704  0.0492  0.8399 -0.1528
  908MOL0     C22511   0.269   2.293   1.960  0.0887  0.3506  0.2894
  908MOL0     C22512   0.346   2.391   1.891  1.3154 -0.1956  0.0468
  908MOL0     H22513   0.692   2.764   1.820  0.5015 -1.2533 -0.1315
  908MOL0     H22514   0.784   2.925   1.683 -0.2610  2.1246 -3.2788
  908MOL0     H22515   0.748   2.873   1.273 -1.2971 -0.2817  0.5211
  908MOL0     H22516   0.641   3.014   1.257  1.3696  2.1849  0.0896
  908MOL0     H22517   0.857   3.079   1.156  0.1144  1.5893  1.2390
  908MOL0     H22518   0.844   3.166   1.301 -0.5624  0.6137 -1.7310
  908MOL0     H22519   1.074   3.069   1.312  1.2327 -1.2974  1.1356
  908MOL0     H22520   0.991   2.964   1.421 -1.2474  1.6597  0.4644
  908MOL0     H22521   0.985   2.791   1.232 -1.7285  1.1163  0.5909
  908MOL0     H22522   1.043   2.925   1.133 -1.2701  2.4266  1.9696
  908MOL0     H22523   1.229   2.772   1.202 -1.1171 -0.4627 -1.1200
  908MOL0     H22524   1.250   2.932   1.253  0.1217  0.3239  2.3251
  908MOL0     H22525   1.304   2.764   1.420  0.3617  2.9819 -1.1676
  908MOL0     H22526   1.175   2.860   1.485  1.9669  1.7660 -1.1047
  908MOL0     H22527   1.145   2.581   1.340  0.0415 -1.2286  1.2553
  908MOL0     H22528   1.198   2.601   1.514 -2.0694 -0.4318  2.9614
  908MOL0     H22529   0.945   2.747   1.468  0.3356  0.1141 -2.1444
  908MOL0     H22530   0.993   2.621   1.590  3.6891 -2.2592 -0.5912
  908MOL0     H22531   0.945   2.352   1.522 -0.5775  0.2287  1.2495
  908MOL0     H22532   0.709   2.202   1.304  2.0567 -2.8409 -0.4776
  908MOL0     H22533   0.839   2.189   1.427  0.0582  0.7374  0.5281
  908MOL0     H22534   0.661   2.284   1.585  2.2077  0.3607 -0.8014
  908MOL0     H22535   0.658   2.105   1.543 -2.7772  0.3705  0.7620
  908MOL0     H22536   0.499   2.169   1.359  0.8444  3.2837 -1.7670
  908MOL0     H22537   0.482   2.322   1.451 -2.4659 -0.0179 -1.0404
  908MOL0     H22538   0.306   2.125   1.511 -0.8486 -4.2832  2.8792
  908MOL0     H22539   0.377   2.225   1.632 -1.3290  1.7251 -1.8182
  908MOL0     H22540   0.527   1.793   1.691  0.5922  1.8119  0.5026
  908MOL0     H22541   0.546   1.616   1.822 -1.2182  1.1980 -2.0472
  908MOL0     H22542   0.478   1.635   1.984  2.1920  1.1456 -0.7738
  908MOL0     H22543   0.389   1.534   1.870 -2.5155  1.1764  0.6447
  908MOL0     H22544   0.413   1.532   2.279 -0.0303  1.1637 -1.4148
  908MOL0     H22545   0.343   1.453   2.490 -0.6824  0.2991  1.0019
  908MOL0     H22546  -0.074   1.529   2.627 -0.1462 -1.5058  3.7198
  908MOL0     H22547  -0.104   1.379   2.550  1.4976  1.5625 -2.0902
  908MOL0     H22548  -0.025   1.281   2.773 -0.5969 -0.4393 -3.6280
  908MOL0     H22549   0.007   1.452   2.836 -1.1483  0.4582  0.2342
  908MOL0     H22550  -0.262   1.322   2.799  1.2418 -2.6833  0.6536
  908MOL0     H22551  -0.237   1.501   2.778 -0.1902 -0.7671 -3.1986
  908MOL0     H22552  -0.158   1.304   3.005 -0.9265 -0.7506 -0.9025
  908MOL0     H22553  -0.127   1.471   3.016 -2.2301  1.3936  0.8252
  908MOL0     H22554  -0.373   1.514   2.995  1.3438 -0.1835 -2.6688
  908MOL0     H22555  -0.304   1.456   3.139  0.6822 -0.7747 -0.5198
  908MOL0     H22556  -0.448   1.269   2.935  1.9498 -0.9567  0.0046
  908MOL0     H22557  -0.387   1.219   3.099 -2.7650 -2.8180 -0.9711
  908MOL0     H22558  -0.617   1.239   3.108 -2.1942  1.6895  2.3537
  908MOL0     H22559  -0.618   1.410   3.075 -0.1760 -0.0551  0.1628
  908MOL0     H22560  -0.456   1.433   3.272  0.0006  1.1419 -1.0964
  908MOL0     H22561  -0.482   1.261   3.295 -0.9076 -0.2665 -1.1811
  908MOL0     H22562  -0.070   1.490   2.372 -0.0210  0.3058 -1.9516
  908MOL0     H22563  -0.006   1.561   2.167 -0.2501  3.1065  1.0129
  908MOL0     H22564   0.102   1.934   1.902 -1.9914 -1.7509 -1.7556
  908MOL0     H22565   0.208   2.084   1.739  1.8618  1.7971 -0.3524
  908MOL0     H22566   0.517   2.803   1.354  0.4223 -0.7263 -0.9764
  908MOL0     H22567   0.439   2.622   1.499  1.5685 -0.9272 -1.9901
  908MOL0     H22568   0.650   2.356   2.040 -0.0079  0.2737 -0.0313
  908MOL0     H22569   0.509   2.190   2.182 -1.0364  0.3688  0.9321
  908MOL0     H22570   0.374   1.972   2.081  0.2671  1.2959 -0.6940
  908MOL0     H22571   0.383   2.019   2.245  1.0296 -0.5589 -0.4392
  908MOL0     H22572   0.275   1.812   2.226  2.1385  1.4107 -0.4184
  908MOL0     H22573   0.147   1.878   2.131  0.7712 -2.3202  0.0635
  908MOL0     H22574   0.054   1.844   2.346  3.5572 -3.0715  1.9863
  908MOL0     H22575   0.095   2.018   2.350  0.2537 -0.3361 -0.3714
  908MOL0     H22576   0.315   1.936   2.456 -0.5106  0.5930 -0.5342
  908MOL0     H22577   0.243   1.771   2.479  1.5686  0.4026  3.2601
  908MOL0     H22578   0.107   1.977   2.805 -1.4398 -0.5493 -0.3029
  908MOL0     H22579   0.166   2.273   1.932  0.6451 -1.6670 -0.4756
  908MOL0     H22580   0.299   2.453   1.815  0.3461 -0.9887 -0.0269
  909MOL0     O22581   3.136   0.259   7.372 -0.1495  0.4023 -0.0335
  909MOL0     C22582   3.151   0.212   7.264 -0.9519  0.3597  0.5684
  909MOL0     O22583   3.269   0.196   7.208 -0.0810  0.1985  0.1166
  909MOL0     C22584   3.393   0.200   7.275  0.5273 -0.3673 -0.1360
  909MOL0     C22585   3.495   0.278   7.218 -0.2271 -0.0853 -0.4372
  909MOL0     C22586   3.616   0.297   7.288  0.6834  0.4102  0.3394
  909MOL0     C22587   3.623   0.246   7.418  0.6016 -0.5029 -1.8306
  909MOL0     O22588   3.735   0.269   7.499  0.2049 -1.3058  0.6126
  909MOL0     C22589   3.743   0.403   7.557 -0.6685 -0.2551  0.8696
  909MOL0     C22590   3.750   0.388   7.707 -0.5444 -1.2042  0.2420
  909MOL0     C22591   3.616   0.372   7.773  0.4319 -0.2663  0.2576
  909MOL0     C22592   3.634   0.392   7.921  0.1006 -0.3790 -0.2105
  909MOL0     C22593   3.493   0.391   7.986 -0.4752 -0.5162  0.0782
  909MOL0     C22594   3.519   0.388   8.134 -0.1432 -0.3509  0.2266
  909MOL0     C22595   3.388   0.400   8.213 -0.2071 -0.3449  0.3205
  909MOL0     C22596   3.289   0.285   8.185  0.0783 -0.0651 -0.3839
  909MOL0     N22597   3.155   0.300   8.250 -0.0462 -0.7816  0.1989
  909MOL0     C22598   3.098   0.223   8.345  0.1683 -0.1599  0.2438
  909MOL0     C22599   2.972   0.267   8.360 -0.9726 -0.9730  0.8135
  909MOL0     C22600   2.877   0.209   8.460 -0.5849 -0.6630  0.1030
  909MOL0     C22601   2.736   0.257   8.431  0.2276 -0.9892  0.8335
  909MOL0     C22602   2.682   0.185   8.293 -0.1049  0.3359 -0.6312
  909MOL0     C22603   2.541   0.241   8.256 -1.3857  0.3617  1.3226
  909MOL0     O22604   2.449   0.180   8.352  0.3799  0.1683 -0.6503
  909MOL0     C22605   2.382   0.056   8.334 -1.3974 -0.9900  0.8889
  909MOL0     C22606   2.295   0.013   8.431  0.2363 -0.6067 -0.7890
  909MOL0     C22607   2.245  -0.119   8.438  0.0521  0.1424 -0.5944
  909MOL0     C22608   2.180  -0.177   8.559 -0.2728  0.2237 -0.4778
  909MOL0     C22609   2.263  -0.199   8.324 -0.6367  1.4744 -0.4576
  909MOL0     C22610   2.219  -0.343   8.299 -0.8197  0.2320 -1.0218
  909MOL0     O22611   2.287  -0.423   8.208 -0.0530  0.1080  0.2087
  909MOL0     C22612   2.251  -0.556   8.191  0.4111  0.0855  0.8414
  909MOL0     C22613   2.348  -0.655   8.169 -0.1219  0.4080  0.4509
  909MOL0     C22614   2.315  -0.793   8.169  0.4184  0.2990  0.6839
  909MOL0     C22615   2.186  -0.833   8.181 -0.6575  1.0361  0.1876
  909MOL0     O22616   2.149  -0.963   8.198 -0.4081 -0.2654  0.0913
  909MOL0     C22617   2.215  -1.069   8.126  0.8401 -0.0466 -0.1776
  909MOL0     C22618   2.135  -1.170   8.064  0.2271  0.8777  0.2157
  909MOL0     C22619   2.033  -1.114   7.956 -0.2348 -0.4970  0.1226
  909MOL0     C22620   1.926  -1.215   7.908  0.2111  0.3125 -0.2576
  909MOL0     C22621   1.805  -1.211   8.002 -0.8017  0.6081 -0.1285
  909MOL0     C22622   1.825  -1.275   8.142  0.2854 -0.7678  0.8012
  909MOL0     C22623   1.690  -1.306   8.212 -0.1182 -0.9932 -0.6595
  909MOL0     C22624   1.635  -1.188   8.297 -0.1273 -0.4991  0.0942
  909MOL0    Cl22625   1.566  -1.056   8.209 -0.1397  0.1965 -0.4869
  909MOL0     C22626   2.090  -0.738   8.181 -0.5817 -0.1052  0.6902
  909MOL0     C22627   2.119  -0.601   8.184  0.6615  0.7741 -0.7712
  909MOL0     O22628   2.128  -0.383   8.375  0.7815  0.0558 -0.1338
  909MOL0     C22629   2.342  -0.143   8.222 -0.7157  0.6386 -0.4033
  909MOL0     C22630   2.405  -0.018   8.226  0.0818  0.1103  0.0898
  909MOL0     N22631   2.951   0.367   8.262 -0.6547  0.0131 -0.7200
  909MOL0     N22632   3.058   0.372   8.195  0.6949 -0.6635 -0.3291
  909MOL0     C22633   3.524   0.152   7.466  0.3138 -0.5871  0.3790
  909MOL0     C22634   3.406   0.138   7.393 -0.9617  0.9759  0.2547
  909MOL0     C22635   3.041   0.168   7.182 -0.0361 -0.4429 -0.0450
  909MOL0     C22636   3.057   0.119   7.055 -0.1912 -0.5218 -0.2222
  909MOL0     C22637   2.942   0.072   6.987  0.0304  0.9052 -0.2209
  909MOL0     C22638   2.814   0.078   7.040  0.4100  0.6876  0.4319
  909MOL0     O22639   2.696   0.031   6.978  0.7460  0.4534  1.1743
  909MOL0     C22640   2.677   0.052   6.835 -0.2469  0.1511  0.3399
  909MOL0     C22641   2.546  -0.014   6.799  1.1340  0.2550 -0.0210
  909MOL0     C22642   2.511  -0.006   6.648 -0.4988 -1.2500  0.6129
  909MOL0     C22643   2.389  -0.091   6.613  0.1083 -0.4448 -0.1520
  909MOL0     C22644   2.402  -0.238   6.619  0.8419  1.0963  0.8072
  909MOL0     C22645   2.435  -0.357   6.641  0.7183 -0.5924 -0.8448
  909MOL0     C22646   2.806   0.119   7.170 -0.4976  0.3458  0.3214
  909MOL0     C22647   2.914   0.170   7.243 -0.5380  0.0327 -0.5159
  909MOL0     H22648   3.473   0.332   7.126 -3.2163 -0.5916 -0.1001
  909MOL0     H22649   3.680   0.373   7.245  1.4998 -1.4018 -1.8054
  909MOL0     H22650   3.839   0.448   7.529 -1.2687  1.0452  0.7951
  909MOL0     H22651   3.664   0.471   7.525 -1.0913  0.2486  2.8602
  909MOL0     H22652   3.813   0.302   7.734 -0.1546 -1.2626 -0.7953
  909MOL0     H22653   3.796   0.480   7.744 -0.0268 -2.6635  3.6237
  909MOL0     H22654   3.542   0.447   7.741 -2.5157 -3.2172 -0.3504
  909MOL0     H22655   3.564   0.280   7.743  1.3554 -0.7381  0.0833
  909MOL0     H22656   3.694   0.313   7.967  3.9810  1.4546 -1.6322
  909MOL0     H22657   3.692   0.484   7.938 -1.2894  0.5390 -0.2697
  909MOL0     H22658   3.443   0.487   7.972 -1.2643 -0.6887  1.5582
  909MOL0     H22659   3.437   0.306   7.946  0.3218  0.4743 -3.4889
  909MOL0     H22660   3.565   0.297   8.173 -1.0374  0.1991  2.7488
  909MOL0     H22661   3.587   0.469   8.161 -0.8474 -0.5365  2.8364
  909MOL0     H22662   3.414   0.389   8.319 -1.9608 -0.0966  0.8018
  909MOL0     H22663   3.331   0.492   8.200 -1.5397 -1.0027  1.3280
  909MOL0     H22664   3.329   0.192   8.226 -0.6257 -0.9727 -1.6837
  909MOL0     H22665   3.265   0.280   8.079  2.8099  1.6416 -1.1736
  909MOL0     H22666   3.144   0.141   8.400  0.0283 -1.0430 -0.8995
  909MOL0     H22667   2.869   0.100   8.465 -1.0859 -0.5825  1.8568
  909MOL0     H22668   2.901   0.246   8.560 -0.8144  0.6237 -0.2899
  909MOL0     H22669   2.742   0.365   8.418 -2.0065 -0.8402  0.5661
  909MOL0     H22670   2.662   0.236   8.508 -0.9430  2.6609  0.8930
  909MOL0     H22671   2.671   0.080   8.321  2.2958  0.3724  0.6781
  909MOL0     H22672   2.750   0.199   8.209 -1.3788 -5.3945 -3.0934
  909MOL0     H22673   2.516   0.204   8.156 -3.4621 -4.0656  3.1706
  909MOL0     H22674   2.542   0.350   8.263  0.7466  0.3738  1.4177
  909MOL0     H22675   2.278   0.083   8.512  3.4215 -0.8748  0.2520
  909MOL0     H22676   2.225  -0.272   8.589  1.0230  0.6078 -1.0929
  909MOL0     H22677   2.203  -0.103   8.636  0.1057 -0.2129 -0.1654
  909MOL0     H22678   2.074  -0.192   8.540 -0.7616  1.5720  0.9717
  909MOL0     H22679   2.447  -0.615   8.152  0.2090 -0.3008  0.6685
  909MOL0     H22680   2.387  -0.867   8.134  0.0287  0.1902  0.0917
  909MOL0     H22681   2.273  -1.015   8.050  2.5735 -1.7639 -0.1685
  909MOL0     H22682   2.276  -1.121   8.200  1.5382 -0.8731 -1.2972
  909MOL0     H22683   2.211  -1.233   8.016  1.4714 -0.0766  3.1925
  909MOL0     H22684   2.078  -1.228   8.137 -0.0508 -1.0333 -1.4385
  909MOL0     H22685   2.094  -1.080   7.872  0.1435 -0.5322  0.3795
  909MOL0     H22686   1.988  -1.023   7.996  0.1281 -0.0301 -0.5233
  909MOL0     H22687   1.895  -1.175   7.811  0.7644 -0.2935 -0.6965
  909MOL0     H22688   1.964  -1.317   7.896 -1.6715 -0.2255 -2.2396
  909MOL0     H22689   1.725  -1.256   7.942  0.9140  0.9345 -2.8668
  909MOL0     H22690   1.786  -1.106   8.025  2.7917  1.1153  1.1215
  909MOL0     H22691   1.892  -1.360   8.128 -1.4882 -2.2771  1.0380
  909MOL0     H22692   1.881  -1.202   8.202 -1.1652 -0.7069  2.1734
  909MOL0     H22693   1.722  -1.378   8.287  0.1815 -0.8581 -0.6549
  909MOL0     H22694   1.612  -1.352   8.150 -0.4296 -3.0924  1.1867
  909MOL0     H22695   1.714  -1.139   8.354  0.9812 -1.9242 -0.1754
  909MOL0     H22696   1.573  -1.236   8.374  0.8339 -0.2101  1.0830
  909MOL0     H22697   1.988  -0.775   8.191 -0.5180 -0.8404 -0.9781
  909MOL0     H22698   2.036  -0.533   8.195  1.9208  2.8009 -2.8603
  909MOL0     H22699   2.377  -0.210   8.143  3.1804 -0.0798  1.6662
  909MOL0     H22700   2.463   0.006   8.138 -2.2161 -0.4104 -1.6821
  909MOL0     H22701   3.537   0.101   7.561  0.1885  0.0296  0.7328
  909MOL0     H22702   3.340   0.063   7.432  1.9252 -1.9817 -0.1357
  909MOL0     H22703   3.154   0.121   7.005 -0.2593 -2.0806 -0.4468
  909MOL0     H22704   2.973   0.029   6.892  0.0713  1.2742 -0.3752
  909MOL0     H22705   2.669   0.157   6.804  0.6614  0.5051  1.2818
  909MOL0     H22706   2.756  -0.003   6.783 -1.2796 -0.8338 -0.2312
  909MOL0     H22707   2.463   0.009   6.865  0.4838 -1.5664 -0.1420
  909MOL0     H22708   2.567  -0.118   6.826  0.9523  0.5162  1.1864
  909MOL0     H22709   2.603  -0.034   6.595 -0.0772 -0.2573  0.7975
  909MOL0     H22710   2.487   0.095   6.616 -0.8421 -1.1446  1.1881
  909MOL0     H22711   2.369  -0.062   6.510 -0.9723  2.8908  0.8589
  909MOL0     H22712   2.309  -0.062   6.682  0.3296  0.2216 -0.1632
  909MOL0     H22713   2.436  -0.463   6.657  1.0773 -0.4815 -0.1070
  909MOL0     H22714   2.708   0.119   7.217 -0.8792 -0.8763 -0.4000
  909MOL0     H22715   2.904   0.221   7.339  0.8149  3.2621 -1.9465
  910MOL0     O22716   6.133   0.001   2.756  0.1204  0.5289 -0.7119
  910MOL0     C22717   6.249   0.005   2.702  0.0090  0.3500  0.0538
  910MOL0     O22718   6.348   0.094   2.744 -0.5781 -0.0140  1.2302
  910MOL0     C22719   6.328   0.205   2.823 -0.0139 -0.4472 -0.4271
  910MOL0     C22720   6.445   0.259   2.876  0.0377 -0.8042  0.3843
  910MOL0     C22721   6.431   0.377   2.948  0.0208 -0.3596  0.7471
  910MOL0     C22722   6.312   0.430   2.988 -0.5758  0.1177 -0.7510
  910MOL0     O22723   6.304   0.546   3.065 -0.1920  0.2532  0.2527
  910MOL0     C22724   6.421   0.635   3.067 -0.3328  0.2935 -0.4226
  910MOL0     C22725   6.387   0.775   3.130 -0.2123 -0.0973 -0.1545
  910MOL0     C22726   6.329   0.765   3.269  0.2876  0.1323 -0.2060
  910MOL0     C22727   6.269   0.896   3.313  0.1552  0.1264  0.1261
  910MOL0     C22728   6.128   0.928   3.243  0.5584 -0.0041  0.0715
  910MOL0     C22729   6.098   1.076   3.265  0.4027 -0.8634  0.3948
  910MOL0     C22730   5.983   1.128   3.188  0.3849  0.0535  0.0940
  910MOL0     C22731   5.944   1.267   3.232 -0.1130 -0.2814 -0.7622
  910MOL0     N22732   5.953   1.290   3.375  0.4341  0.2401  0.2139
  910MOL0     C22733   5.862   1.242   3.469 -0.7987 -0.1464 -0.4438
  910MOL0     C22734   5.904   1.301   3.584 -0.5847  0.0386 -0.6423
  910MOL0     C22735   5.857   1.261   3.721 -0.6559 -0.1651  0.0671
  910MOL0     C22736   5.865   1.104   3.748  0.3056 -0.2155 -0.1689
  910MOL0     C22737   5.996   1.031   3.720 -0.4281  0.3536 -0.6455
  910MOL0     C22738   5.994   0.880   3.717 -0.4104 -0.9307  0.9763
  910MOL0     O22739   5.931   0.830   3.832  1.1543  0.2351  0.1730
  910MOL0     C22740   5.821   0.745   3.820 -0.2372  0.6455 -0.3547
  910MOL0     C22741   5.706   0.778   3.883 -0.0206 -0.2290  0.2297
  910MOL0     C22742   5.583   0.702   3.867  0.0854  0.3095  0.0761
  910MOL0     C22743   5.458   0.752   3.938 -0.0899  0.2244  0.5104
  910MOL0     C22744   5.588   0.585   3.784  1.5113 -0.0446  0.1357
  910MOL0     C22745   5.480   0.494   3.752 -0.0604  0.0100  0.5588
  910MOL0     O22746   5.503   0.388   3.663 -0.2042 -0.0149 -0.4204
  910MOL0     C22747   5.397   0.326   3.619  0.3308  0.9489  0.1872
  910MOL0     C22748   5.403   0.306   3.477  0.2379  0.4312  0.0778
  910MOL0     C22749   5.304   0.228   3.417 -0.8088 -0.0659 -0.2481
  910MOL0     C22750   5.199   0.164   3.492 -0.6558 -0.5877 -0.0515
  910MOL0     O22751   5.108   0.089   3.418 -0.0999 -1.0137  0.2871
  910MOL0     C22752   5.048  -0.018   3.488  0.1564  0.4125  0.2701
  910MOL0     C22753   4.979  -0.107   3.381 -0.2595 -0.0219 -0.1572
  910MOL0     C22754   4.885  -0.221   3.437 -0.0910  0.8231 -0.2990
  910MOL0     C22755   4.875  -0.367   3.366  0.1045  0.3088 -0.1276
  910MOL0     C22756   4.834  -0.480   3.466 -0.3327 -0.4060 -0.4832
  910MOL0     C22757   4.708  -0.468   3.551  0.0237 -0.6055  0.0173
  910MOL0     C22758   4.584  -0.424   3.474 -0.0410 -0.7192 -0.2185
  910MOL0     C22759   4.515  -0.542   3.396 -0.4102 -0.6938 -0.8892
  910MOL0    Cl22760   4.339  -0.504   3.336 -0.0734  0.2490 -0.1356
  910MOL0     C22761   5.195   0.190   3.627 -0.6473 -0.4625 -0.2605
  910MOL0     C22762   5.292   0.260   3.688 -0.4516  0.0010 -0.2534
  910MOL0     O22763   5.369   0.531   3.789 -0.1145 -0.1777  0.2444
  910MOL0     C22764   5.711   0.543   3.741  0.8459  0.6320  0.7233
  910MOL0     C22765   5.821   0.632   3.750 -0.2124 -0.8403 -0.7034
  910MOL0     N22766   6.000   1.400   3.559 -0.2618  0.1186  0.0151
  910MOL0     N22767   6.030   1.389   3.433  0.1102 -0.0929  0.7487
  910MOL0     C22768   6.199   0.373   2.941 -0.4139 -0.2830 -0.0522
  910MOL0     C22769   6.210   0.267   2.859  0.4164  0.3876  0.0685
  910MOL0     C22770   6.270  -0.076   2.573 -0.3934 -0.6334  0.1444
  910MOL0     C22771   6.166  -0.149   2.513 -0.2617 -0.0171 -0.4572
  910MOL0     C22772   6.187  -0.242   2.401  0.3794 -0.3749  0.3909
  910MOL0     C22773   6.310  -0.251   2.340  0.1286 -0.1060 -0.1754
  910MOL0     O22774   6.328  -0.335   2.236  0.1833 -0.0020 -0.0576
  910MOL0     C22775   6.400  -0.450   2.269 -0.4114  0.3204  0.1345
  910MOL0     C22776   6.446  -0.535   2.158  0.0753 -0.9816  0.0543
  910MOL0     C22777   6.338  -0.592   2.063  0.1876  0.1109  0.2385
  910MOL0     C22778   6.394  -0.702   1.969  0.4427  1.0923 -0.4689
  910MOL0     C22779   6.315  -0.708   1.840  0.5121  1.2474 -0.9109
  910MOL0     C22780   6.274  -0.704   1.726  0.1260 -0.0336  0.4075
  910MOL0     C22781   6.412  -0.171   2.392 -0.0547 -0.0633 -0.1716
  910MOL0     C22782   6.392  -0.092   2.507 -0.5437  0.1264 -0.3369
  910MOL0     H22783   6.543   0.219   2.853  0.1762 -0.2785  0.0499
  910MOL0     H22784   6.525   0.410   2.990  2.2479 -4.0503 -0.8930
  910MOL0     H22785   6.498   0.585   3.126 -1.7088 -1.5949 -0.1353
  910MOL0     H22786   6.443   0.646   2.960  2.6776 -0.3040  0.0638
  910MOL0     H22787   6.485   0.823   3.132  0.3268 -1.0946 -1.3280
  910MOL0     H22788   6.313   0.823   3.065  0.0868  1.2247  0.4533
  910MOL0     H22789   6.249   0.693   3.285  1.0818 -0.1435  3.4356
  910MOL0     H22790   6.408   0.721   3.330 -2.1269 -1.2620  2.1297
  910MOL0     H22791   6.271   0.895   3.422  2.8946 -2.2272  0.1566
  910MOL0     H22792   6.347   0.971   3.296 -0.5683  1.5153  2.4593
  910MOL0     H22793   6.128   0.902   3.137  0.3338  4.9355 -1.3828
  910MOL0     H22794   6.047   0.870   3.288 -0.4933  1.5893  0.2993
  910MOL0     H22795   6.083   1.086   3.373 -1.7738 -1.3798  0.1800
  910MOL0     H22796   6.179   1.143   3.235 -1.3764  0.5856 -1.4270
  910MOL0     H22797   6.014   1.126   3.083  0.9183 -1.3973  0.2547
  910MOL0     H22798   5.900   1.058   3.206  1.4427 -1.4204 -0.5463
  910MOL0     H22799   5.840   1.290   3.208 -0.7870 -0.2046  1.9356
  910MOL0     H22800   6.017   1.333   3.182  0.9338 -2.7971 -2.7878
  910MOL0     H22801   5.781   1.172   3.449 -3.0889  2.7603 -2.3790
  910MOL0     H22802   5.920   1.305   3.798 -0.3140  2.2606 -1.4855
  910MOL0     H22803   5.754   1.293   3.743 -0.1163 -0.0792  2.8581
  910MOL0     H22804   5.789   1.064   3.681  0.0394 -1.1910  0.6802
  910MOL0     H22805   5.827   1.078   3.847  0.7826 -1.3959 -0.2788
  910MOL0     H22806   6.062   1.055   3.804 -0.3558 -0.2020 -0.5368
  910MOL0     H22807   6.043   1.070   3.629  1.4306 -0.3176 -0.0150
  910MOL0     H22808   6.092   0.836   3.700  0.3359 -0.3270  3.4260
  910MOL0     H22809   5.939   0.856   3.625  0.1970 -0.1006  0.3860
  910MOL0     H22810   5.711   0.873   3.935 -1.0248 -0.7527  1.3150
  910MOL0     H22811   5.481   0.840   3.999 -0.8797  0.9369 -0.1928
  910MOL0     H22812   5.376   0.773   3.869  1.5278  1.0219 -1.2562
  910MOL0     H22813   5.419   0.682   4.013 -1.4300  0.5644  0.1622
  910MOL0     H22814   5.475   0.349   3.409  1.0230 -1.0449 -0.0635
  910MOL0     H22815   5.299   0.210   3.310 -0.7601  1.4708 -0.5354
  910MOL0     H22816   5.123  -0.079   3.539  0.8328 -1.3591 -2.5853
  910MOL0     H22817   4.972   0.025   3.554 -0.2584  1.1812 -0.6695
  910MOL0     H22818   4.921  -0.044   3.313  3.2267  0.1918 -3.2162
  910MOL0     H22819   5.044  -0.154   3.307 -3.6706 -2.0689 -2.1002
  910MOL0     H22820   4.783  -0.181   3.426 -0.2700  0.5986  0.4858
  910MOL0     H22821   4.900  -0.237   3.544 -0.3732 -1.0705 -0.5087
  910MOL0     H22822   4.799  -0.361   3.288  1.8635 -0.1935 -1.9630
  910MOL0     H22823   4.972  -0.400   3.328  0.1107  1.4732 -1.1917
  910MOL0     H22824   4.923  -0.500   3.527 -0.9540  1.0342  0.9754
  910MOL0     H22825   4.821  -0.566   3.399  1.9805 -1.4509  0.3206
  910MOL0     H22826   4.695  -0.561   3.607  2.3682 -2.0065 -1.5644
  910MOL0     H22827   4.719  -0.397   3.633 -3.9394  2.2688 -1.6519
  910MOL0     H22828   4.602  -0.333   3.416 -0.1023 -1.4068 -1.3409
  910MOL0     H22829   4.512  -0.386   3.548  0.5010  0.4758 -0.2816
  910MOL0     H22830   4.513  -0.629   3.461  1.6697 -0.0758  0.0681
  910MOL0     H22831   4.570  -0.584   3.312 -0.4961 -1.2501 -0.6680
  910MOL0     H22832   5.121   0.146   3.693  0.5393 -2.5662 -0.2400
  910MOL0     H22833   5.292   0.272   3.796 -1.6488 -1.2726 -0.0874
  910MOL0     H22834   5.728   0.441   3.706 -1.7196  0.2234  0.5325
  910MOL0     H22835   5.919   0.598   3.716 -0.2155  0.6602 -2.3394
  910MOL0     H22836   6.103   0.416   2.970 -0.8324 -1.3915  0.2761
  910MOL0     H22837   6.120   0.242   2.803  0.2555  2.4743 -0.6942
  910MOL0     H22838   6.070  -0.139   2.561  0.5496  1.0739  1.0543
  910MOL0     H22839   6.109  -0.302   2.357  2.4813 -2.4630 -0.7259
  910MOL0     H22840   6.488  -0.419   2.326 -1.9758 -0.4089  3.1705
  910MOL0     H22841   6.333  -0.509   2.332 -3.2372  0.9528 -2.0802
  910MOL0     H22842   6.498  -0.624   2.197  0.9582 -0.7171 -0.5031
  910MOL0     H22843   6.506  -0.468   2.097 -0.2080  0.0289  0.8695
  910MOL0     H22844   6.294  -0.508   2.010  0.5831  0.1215 -0.0723
  910MOL0     H22845   6.254  -0.634   2.119  0.4999 -0.7117  0.1023
  910MOL0     H22846   6.374  -0.798   2.017  1.6599  1.6625  1.2666
  910MOL0     H22847   6.503  -0.696   1.965  0.4451  1.2144 -0.2623
  910MOL0     H22848   6.233  -0.707   1.627 -0.5157  0.4751  0.6487
  910MOL0     H22849   6.512  -0.173   2.350 -0.7232 -1.4746 -1.8245
  910MOL0     H22850   6.470  -0.032   2.554 -2.9697  1.5995  2.0912
  911MOL0     O22851   6.570   8.488   0.510  0.3261 -0.1058  0.5666
  911MOL0     C22852   6.617   8.593   0.463 -0.0027  0.0534  0.4730
  911MOL0     O22853   6.739   8.651   0.490  0.7999 -0.8222 -0.4706
  911MOL0     C22854   6.826   8.600   0.582  0.5170  0.3784  0.1798
  911MOL0     C22855   6.788   8.529   0.699 -0.4151  0.0338 -0.3487
  911MOL0     C22856   6.880   8.474   0.785  0.3202  0.6665 -0.4469
  911MOL0     C22857   7.018   8.507   0.761 -0.1346  0.1492 -0.5538
  911MOL0     O22858   7.110   8.485   0.862  0.4603 -0.1267  0.6029
  911MOL0     C22859   7.118   8.351   0.912 -0.0976 -0.1998  0.1027
  911MOL0     C22860   7.260   8.313   0.930 -0.2408  0.2912 -0.9489
  911MOL0     C22861   7.277   8.161   0.976  0.0618 -0.1269 -1.2167
  911MOL0     C22862   7.420   8.124   0.995 -0.4481 -0.2212 -0.1051
  911MOL0     C22863   7.425   7.980   1.047  0.1883 -0.2113  0.5853
  911MOL0     C22864   7.367   7.880   0.937 -0.5416 -0.4848 -0.5240
  911MOL0     C22865   7.397   7.733   0.974  0.5932  0.9425 -0.8513
  911MOL0     C22866   7.318   7.697   1.094  0.5983  0.1721 -0.5237
  911MOL0     N22867   7.334   7.561   1.131 -0.4667  0.3305 -0.6719
  911MOL0     C22868   7.456   7.502   1.149 -0.1794  0.3143  0.8218
  911MOL0     C22869   7.421   7.369   1.177 -0.5878  0.5663  0.5756
  911MOL0     C22870   7.525   7.256   1.194  0.7543 -0.2881 -0.7743
  911MOL0     C22871   7.482   7.112   1.220 -0.1842 -0.7907 -0.1166
  911MOL0     C22872   7.580   7.011   1.160  0.0808  0.0388 -0.2054
  911MOL0     C22873   7.696   6.963   1.242 -0.3318 -0.2942 -0.5909
  911MOL0     O22874   7.641   6.907   1.370  0.1466  0.2168  0.0558
  911MOL0     C22875   7.730   6.830   1.447  0.3955  0.1609  0.2463
  911MOL0     C22876   7.874   6.836   1.436  1.3405  0.5361 -0.2347
  911MOL0     C22877   7.951   6.750   1.524 -0.1949 -0.1362 -0.4365
  911MOL0     C22878   8.102   6.768   1.534 -0.2407  0.6311  0.7675
  911MOL0     C22879   7.880   6.656   1.604 -0.2108  0.0463  0.1836
  911MOL0     C22880   7.940   6.539   1.672 -0.7625 -0.2070  0.3454
  911MOL0     O22881   8.056   6.491   1.605 -0.2912  0.2161 -0.8339
  911MOL0     C22882   8.143   6.426   1.684  0.2838 -0.0813  1.5284
  911MOL0     C22883   8.191   6.485   1.802  0.4797 -0.7184  0.7046
  911MOL0     C22884   8.284   6.415   1.887  0.0478 -0.9786  0.2940
  911MOL0     C22885   8.323   6.277   1.858  0.8802  0.4662 -0.3096
  911MOL0     O22886   8.404   6.217   1.949  0.6386  0.7181 -0.3471
  911MOL0     C22887   8.450   6.089   1.916 -0.0607 -0.0963  0.1537
  911MOL0     C22888   8.559   6.090   1.812  0.6766  0.5936  1.2544
  911MOL0     C22889   8.671   6.183   1.841  0.7044 -0.6663 -1.0094
  911MOL0     C22890   8.782   6.161   1.737  0.8792  0.2037  0.6293
  911MOL0     C22891   8.925   6.217   1.773 -0.1678  0.2783 -0.2460
  911MOL0     C22892   9.034   6.144   1.691  0.2216  0.5888  0.1505
  911MOL0     C22893   9.176   6.189   1.703  1.1226 -0.2973  0.3116
  911MOL0     C22894   9.263   6.133   1.592  0.1692  0.1374  0.1381
  911MOL0    Cl22895   9.427   6.188   1.628 -0.1203  0.1455  0.4296
  911MOL0     C22896   8.266   6.214   1.742  0.1002  0.4500 -0.2712
  911MOL0     C22897   8.177   6.290   1.663  0.0828 -1.0732  0.3350
  911MOL0     O22898   7.897   6.503   1.786 -0.1528  0.2516 -0.1996
  911MOL0     C22899   7.738   6.672   1.627 -0.1091 -0.6907  0.0484
  911MOL0     C22900   7.666   6.751   1.542  0.0266  1.0473  0.1386
  911MOL0     N22901   7.281   7.358   1.198  0.5824 -0.4611 -0.1240
  911MOL0     N22902   7.238   7.472   1.154 -0.3808  1.1844  0.9897
  911MOL0     C22903   7.059   8.588   0.651 -0.1509 -0.1269  0.1552
  911MOL0     C22904   6.962   8.622   0.562  0.0002 -0.1854  0.6428
  911MOL0     C22905   6.532   8.665   0.359  0.2277 -0.4816  0.5583
  911MOL0     C22906   6.551   8.804   0.325 -0.0193 -0.1283 -0.5765
  911MOL0     C22907   6.464   8.870   0.233 -0.8011  0.3922 -0.7031
  911MOL0     C22908   6.361   8.800   0.171 -0.6260  0.0969 -0.0341
  911MOL0     O22909   6.261   8.869   0.103  0.6317 -0.1250 -0.1993
  911MOL0     C22910   6.276   9.007   0.065  1.0750  0.2754 -0.1691
  911MOL0     C22911   6.308   9.023  -0.078  0.4977  0.4215  1.2596
  911MOL0     C22912   6.313   9.174  -0.107  0.7993 -0.0027 -0.0208
  911MOL0     C22913   6.409   9.195  -0.230  1.1483 -0.0027 -0.3846
  911MOL0     C22914   6.311   9.218  -0.340  0.2191 -0.4803 -0.3508
  911MOL0     C22915   6.233   9.239  -0.429  0.0580 -0.1588 -0.3251
  911MOL0     C22916   6.349   8.662   0.200  0.5954  0.6535 -0.2114
  911MOL0     C22917   6.438   8.593   0.285  0.1985 -0.8665 -0.5715
  911MOL0     H22918   6.681   8.517   0.713 -0.3100  0.2839  0.7404
  911MOL0     H22919   6.860   8.422   0.877 -0.8547  0.0342 -1.0393
  911MOL0     H22920   7.065   8.319   1.002  1.4295 -2.5422  0.2759
  911MOL0     H22921   7.078   8.285   0.834  1.8237 -2.6377  1.0358
  911MOL0     H22922   7.326   8.341   0.848  2.9882 -1.1981  0.9669
  911MOL0     H22923   7.302   8.371   1.014 -0.2441 -0.3415 -0.5044
  911MOL0     H22924   7.223   8.149   1.070  1.7632 -1.6012 -0.3747
  911MOL0     H22925   7.224   8.100   0.902 -0.2312 -0.8061 -0.4568
  911MOL0     H22926   7.484   8.137   0.907 -4.2654 -1.0924 -3.3081
  911MOL0     H22927   7.455   8.184   1.079 -0.0763  0.2254 -0.5686
  911MOL0     H22928   7.532   7.961   1.058  0.3602 -0.9703 -1.7099
  911MOL0     H22929   7.378   7.970   1.145  2.2179  3.5627  2.1329
  911MOL0     H22930   7.261   7.905   0.927  0.0127  1.2925 -3.0017
  911MOL0     H22931   7.412   7.903   0.840  0.0702  0.9997  0.0891
  911MOL0     H22932   7.362   7.665   0.896 -1.9891  0.0840  0.9136
  911MOL0     H22933   7.503   7.720   0.996  0.0320  0.4728  1.9208
  911MOL0     H22934   7.213   7.720   1.077  0.2416 -0.1664  1.1103
  911MOL0     H22935   7.349   7.754   1.182 -0.3707  0.0394 -0.0871
  911MOL0     H22936   7.555   7.545   1.147  0.0902 -0.1406  2.4846
  911MOL0     H22937   7.579   7.258   1.099  1.6932  2.4393 -0.2670
  911MOL0     H22938   7.588   7.298   1.274 -0.4589 -0.5234  0.3366
  911MOL0     H22939   7.405   7.080   1.149  0.2365 -2.7000  0.2371
  911MOL0     H22940   7.462   7.102   1.327  0.4197  0.7799  0.1794
  911MOL0     H22941   7.628   7.051   1.069  1.6662  0.9213  0.9555
  911MOL0     H22942   7.522   6.920   1.148  3.1226 -2.4468  2.2716
  911MOL0     H22943   7.770   7.041   1.263 -0.8912  0.8471 -2.5914
  911MOL0     H22944   7.748   6.887   1.182 -0.0867 -0.8802  0.3380
  911MOL0     H22945   7.916   6.905   1.363 -0.4679  1.2365 -0.6907
  911MOL0     H22946   8.139   6.864   1.495  1.8785 -0.2985  0.3733
  911MOL0     H22947   8.125   6.748   1.639  2.1414 -0.4554  0.1020
  911MOL0     H22948   8.142   6.689   1.471 -2.3825 -0.6026  0.8379
  911MOL0     H22949   8.167   6.591   1.812 -1.5952 -1.1672  0.8461
  911MOL0     H22950   8.303   6.459   1.984 -0.7609  0.6165 -0.2307
  911MOL0     H22951   8.492   6.034   2.001  0.0916 -3.0015 -1.6789
  911MOL0     H22952   8.370   6.026   1.877  2.0062 -3.5218  0.9716
  911MOL0     H22953   8.592   5.986   1.809 -0.3036  0.2790  0.8028
  911MOL0     H22954   8.522   6.108   1.710 -0.4511  1.4577  1.7913
  911MOL0     H22955   8.697   6.167   1.946 -2.0937  1.4592  0.1259
  911MOL0     H22956   8.632   6.285   1.837 -1.3971 -1.3302  0.6086
  911MOL0     H22957   8.795   6.055   1.713  1.4145  0.6044 -0.9205
  911MOL0     H22958   8.741   6.191   1.641  1.2521 -1.3985 -0.0654
  911MOL0     H22959   8.958   6.213   1.877 -0.6138 -0.9087 -0.1416
  911MOL0     H22960   8.927   6.322   1.743  0.0366  0.4656  0.4077
  911MOL0     H22961   9.034   6.039   1.724 -0.7649 -0.9877 -4.2373
  911MOL0     H22962   8.996   6.144   1.589  1.1244  0.5321 -0.1961
  911MOL0     H22963   9.212   6.145   1.797 -0.2648  1.5941  1.8040
  911MOL0     H22964   9.192   6.297   1.718  0.5579 -0.1198 -0.3086
  911MOL0     H22965   9.228   6.175   1.498 -1.0188  3.9812  2.0872
  911MOL0     H22966   9.246   6.025   1.596  1.3563 -0.0268  1.5762
  911MOL0     H22967   8.283   6.115   1.702 -0.4148  1.6015 -3.6018
  911MOL0     H22968   8.138   6.252   1.569 -1.7256  0.4797  0.3948
  911MOL0     H22969   7.673   6.609   1.688 -0.8136 -0.7136 -0.7023
  911MOL0     H22970   7.564   6.767   1.574  0.2867  2.1995  0.4441
  911MOL0     H22971   7.165   8.612   0.640 -0.1539 -0.6650 -1.3198
  911MOL0     H22972   6.989   8.675   0.471  1.4513  0.2177  1.2745
  911MOL0     H22973   6.628   8.857   0.380 -0.6444  0.7808 -0.5573
  911MOL0     H22974   6.488   8.974   0.215  0.9678  0.9520  3.6946
  911MOL0     H22975   6.182   9.055   0.092  1.3707 -0.8463  3.4497
  911MOL0     H22976   6.350   9.057   0.129  1.1902 -0.3325  0.1827
  911MOL0     H22977   6.241   8.971  -0.147  2.4766 -2.9826  1.6342
  911MOL0     H22978   6.410   8.988  -0.096  1.4301  3.6821 -0.5054
  911MOL0     H22979   6.349   9.237  -0.025 -1.6363 -0.4248  1.4818
  911MOL0     H22980   6.219   9.223  -0.133  1.3134  1.5764  0.9729
  911MOL0     H22981   6.480   9.111  -0.237  0.5595 -0.5948  0.4344
  911MOL0     H22982   6.462   9.289  -0.214 -0.3557  1.2666 -2.5577
  911MOL0     H22983   6.164   9.262  -0.508 -0.6649 -1.0529  0.0373
  911MOL0     H22984   6.255   8.622   0.164  2.3046 -1.0965 -3.1243
  911MOL0     H22985   6.416   8.487   0.294  2.0069 -1.3969 -1.8575
  912MOL0     O22986   6.620   5.050   5.102 -0.0285 -0.4513  0.3004
  912MOL0     C22987   6.548   5.149   5.115 -0.3799  0.7814  0.2661
  912MOL0     O22988   6.412   5.161   5.081  0.0289  0.2637  0.6369
  912MOL0     C22989   6.347   5.061   5.011 -0.8809 -0.4548  0.1126
  912MOL0     C22990   6.387   4.930   4.978 -0.1186 -0.0916 -1.1123
  912MOL0     C22991   6.315   4.847   4.898 -0.0037 -0.1121 -0.4789
  912MOL0     C22992   6.187   4.888   4.861 -0.7462  0.8026  0.4943
  912MOL0     O22993   6.098   4.824   4.768  0.7709 -0.3516  0.1350
  912MOL0     C22994   6.146   4.735   4.667 -0.0226  0.3610  0.1040
  912MOL0     C22995   6.148   4.816   4.539  0.3926 -0.6789 -0.5406
  912MOL0     C22996   5.999   4.848   4.508 -0.7382  0.5136  0.4413
  912MOL0     C22997   5.966   4.913   4.369 -1.1455  0.4193 -0.8572
  912MOL0     C22998   5.966   4.813   4.253 -0.8281 -0.5856 -0.1817
  912MOL0     C22999   5.926   4.864   4.118  0.0703  0.9652  1.0435
  912MOL0     C23000   5.782   4.924   4.105 -0.3842 -0.7075 -0.0858
  912MOL0     C23001   5.674   4.830   4.150  0.2356  0.6242 -0.8676
  912MOL0     N23002   5.543   4.893   4.147 -0.2394  0.1705 -0.0180
  912MOL0     C23003   5.502   5.003   4.225  0.0776  1.1158 -0.7075
  912MOL0     C23004   5.367   5.010   4.200 -0.1833 -0.8622 -0.1749
  912MOL0     C23005   5.276   5.115   4.255  0.2988  0.2475 -0.0571
  912MOL0     C23006   5.298   5.246   4.172 -0.1243  0.3385 -1.1246
  912MOL0     C23007   5.191   5.349   4.221  0.4108  0.4147  0.3379
  912MOL0     C23008   5.054   5.331   4.142 -0.4761 -0.6777  1.0149
  912MOL0     O23009   4.959   5.421   4.204  0.0535  0.4446  0.1326
  912MOL0     C23010   4.825   5.396   4.181  0.0621 -0.1108  0.2698
  912MOL0     C23011   4.778   5.356   4.054  0.2222 -0.4217  0.7042
  912MOL0     C23012   4.642   5.324   4.052 -0.9124 -0.1523 -0.1662
  912MOL0     C23013   4.594   5.284   3.911 -0.6099 -0.0873  0.1319
  912MOL0     C23014   4.555   5.340   4.163  0.1838 -0.4697 -0.2382
  912MOL0     C23015   4.411   5.308   4.151 -0.1621  0.7378 -0.2139
  912MOL0     O23016   4.350   5.284   4.274 -0.2653  0.3927 -0.1512
  912MOL0     C23017   4.219   5.240   4.291 -0.0880 -0.7897  0.2458
  912MOL0     C23018   4.099   5.302   4.226 -0.4874  0.5959  0.1065
  912MOL0     C23019   3.969   5.276   4.271  0.2292 -0.2328 -1.3347
  912MOL0     C23020   3.944   5.178   4.369 -0.4475 -0.6810 -0.1470
  912MOL0     O23021   3.815   5.143   4.417 -0.4060  0.4999  0.4656
  912MOL0     C23022   3.701   5.211   4.362 -0.2101 -0.0561 -0.4742
  912MOL0     C23023   3.572   5.143   4.392  0.6305  0.1311  0.1014
  912MOL0     C23024   3.458   5.241   4.335 -0.0866 -0.0830 -0.5909
  912MOL0     C23025   3.311   5.183   4.345 -0.0405  0.4794  1.0765
  912MOL0     C23026   3.219   5.279   4.291  0.3513 -1.0626 -0.0822
  912MOL0     C23027   3.075   5.239   4.305 -0.6871  0.0780 -0.5380
  912MOL0     C23028   3.031   5.251   4.453  0.6493  0.0665 -0.0187
  912MOL0     C23029   2.875   5.265   4.464  0.6989 -0.4271  0.6474
  912MOL0    Cl23030   2.777   5.138   4.394 -0.2383  0.4850  0.0824
  912MOL0     C23031   4.052   5.103   4.403  0.2998  1.1742 -0.1211
  912MOL0     C23032   4.182   5.134   4.380 -0.5715 -0.6896 -0.3090
  912MOL0     O23033   4.355   5.311   4.040 -0.1280  0.3912 -0.2913
  912MOL0     C23034   4.611   5.378   4.287  0.1790 -0.1735  0.0396
  912MOL0     C23035   4.747   5.403   4.296 -0.0042 -0.7025  0.0138
  912MOL0     N23036   5.334   4.924   4.092  0.5280 -0.3786 -0.7554
  912MOL0     N23037   5.437   4.852   4.068  0.3845  0.3565  0.3122
  912MOL0     C23038   6.144   5.018   4.904 -0.8119 -0.4170  0.5725
  912MOL0     C23039   6.225   5.102   4.977  0.5371 -0.1557 -0.3105
  912MOL0     C23040   6.604   5.258   5.182  0.2694  0.2265 -0.3334
  912MOL0     C23041   6.534   5.378   5.196 -0.1566 -0.3746 -1.2703
  912MOL0     C23042   6.597   5.492   5.232  0.3908  0.5884 -0.6893
  912MOL0     C23043   6.728   5.497   5.259  0.0585  0.3589 -0.3166
  912MOL0     O23044   6.794   5.608   5.301 -0.5992 -0.3112 -0.1936
  912MOL0     C23045   6.734   5.681   5.411 -0.0809  1.0584 -0.1106
  912MOL0     C23046   6.835   5.781   5.460 -0.2918 -0.7395  1.2640
  912MOL0     C23047   6.964   5.712   5.509 -0.1823 -0.1740  0.0342
  912MOL0     C23048   7.074   5.810   5.559  0.0489 -0.6495 -1.0031
  912MOL0     C23049   7.047   5.871   5.690 -0.5091  0.2125 -0.4189
  912MOL0     C23050   7.006   5.937   5.785 -0.7054  0.4534  0.0435
  912MOL0     C23051   6.801   5.385   5.249  0.2869  0.1387 -0.2928
  912MOL0     C23052   6.739   5.262   5.211  0.0972  0.0508  0.6060
  912MOL0     H23053   6.485   4.895   5.008 -0.1757  0.0893 -0.7078
  912MOL0     H23054   6.358   4.748   4.888  0.5848  0.0154  0.6440
  912MOL0     H23055   6.249   4.709   4.691  0.6982  0.8918 -2.1839
  912MOL0     H23056   6.085   4.645   4.651  0.5828 -0.0232 -0.0933
  912MOL0     H23057   6.192   4.913   4.561 -0.5491 -0.7634  2.0615
  912MOL0     H23058   6.201   4.761   4.460 -0.4808 -2.0145 -0.2407
  912MOL0     H23059   5.948   4.752   4.511  1.1887 -0.5480  0.6311
  912MOL0     H23060   5.951   4.917   4.578  0.1434  1.2425  0.3488
  912MOL0     H23061   5.861   4.940   4.376 -0.9968  0.4409  2.7555
  912MOL0     H23062   6.034   4.996   4.347 -1.0707  0.6086  0.0509
  912MOL0     H23063   6.055   4.750   4.256 -0.4942 -0.2556 -2.1958
  912MOL0     H23064   5.887   4.739   4.274  0.4868 -1.9775  0.0147
  912MOL0     H23065   6.001   4.927   4.069  0.9990 -0.4440  0.6103
  912MOL0     H23066   5.929   4.774   4.056  0.1302 -0.3287  2.8650
  912MOL0     H23067   5.770   5.021   4.155  3.1081  0.3461 -0.9750
  912MOL0     H23068   5.762   4.959   4.004  1.2468 -1.4143 -0.6851
  912MOL0     H23069   5.684   4.816   4.258  0.4853  0.3204 -0.9300
  912MOL0     H23070   5.667   4.734   4.098  0.1066  0.1808 -0.0331
  912MOL0     H23071   5.560   5.064   4.294 -1.2425  1.6542 -0.0496
  912MOL0     H23072   5.174   5.082   4.237  0.5600  0.7741 -3.0214
  912MOL0     H23073   5.296   5.132   4.361  1.0130 -2.5146  0.3293
  912MOL0     H23074   5.306   5.217   4.067  4.3289 -1.2121 -0.5866
  912MOL0     H23075   5.393   5.283   4.211 -0.3263 -1.9947  2.0092
  912MOL0     H23076   5.241   5.443   4.194  0.6663 -0.6903 -3.6797
  912MOL0     H23077   5.177   5.353   4.329 -4.1227  1.8011 -0.0610
  912MOL0     H23078   5.015   5.229   4.141 -4.4055  0.6253 -0.5568
  912MOL0     H23079   5.073   5.355   4.037 -0.7887 -3.0923  0.3387
  912MOL0     H23080   4.844   5.359   3.969 -1.0757  1.7280 -0.3262
  912MOL0     H23081   4.547   5.186   3.923 -0.1713 -0.1117  1.9938
  912MOL0     H23082   4.531   5.361   3.866  2.9410  2.1368 -1.4654
  912MOL0     H23083   4.674   5.283   3.837  0.8032  1.2500  1.5414
  912MOL0     H23084   4.115   5.373   4.145  1.6316 -1.9388 -1.8990
  912MOL0     H23085   3.890   5.342   4.237 -0.1621  0.1092  0.1568
  912MOL0     H23086   3.697   5.311   4.407 -0.4576 -0.3638  0.2106
  912MOL0     H23087   3.703   5.232   4.255  1.6266 -1.9692 -0.8767
  912MOL0     H23088   3.576   5.052   4.331  2.6805 -0.2393  0.7006
  912MOL0     H23089   3.553   5.121   4.498 -0.4483 -0.2939 -0.1655
  912MOL0     H23090   3.471   5.265   4.229 -3.3099 -1.6825 -1.4677
  912MOL0     H23091   3.469   5.337   4.386 -0.8873  0.0747 -0.6965
  912MOL0     H23092   3.293   5.093   4.285  1.5911 -0.2557  1.6121
  912MOL0     H23093   3.290   5.146   4.446 -5.9187 -1.2070 -0.4116
  912MOL0     H23094   3.243   5.293   4.185 -1.4852 -1.8417 -0.6300
  912MOL0     H23095   3.223   5.377   4.341 -1.3647  0.1078 -2.0695
  912MOL0     H23096   3.021   5.313   4.245 -1.0177 -1.1077 -1.7401
  912MOL0     H23097   3.059   5.136   4.271  1.6463 -0.5163 -0.0212
  912MOL0     H23098   3.084   5.328   4.510  2.2361  0.1559 -1.5061
  912MOL0     H23099   3.051   5.154   4.498 -0.7679 -0.2279  0.0065
  912MOL0     H23100   2.837   5.357   4.417  2.5954 -1.0543 -2.4014
  912MOL0     H23101   2.853   5.280   4.570 -2.6623 -1.0619  0.1457
  912MOL0     H23102   4.040   5.022   4.474  1.7581  1.2927  0.2884
  912MOL0     H23103   4.266   5.081   4.425 -0.8336 -1.8281 -1.1430
  912MOL0     H23104   4.540   5.396   4.367  2.0164 -1.6540  2.1097
  912MOL0     H23105   4.795   5.429   4.390  1.3725 -1.1301 -0.5624
  912MOL0     H23106   6.061   5.064   4.851  0.9806  1.7325 -0.5488
  912MOL0     H23107   6.208   5.207   4.999 -0.7951 -0.8106  2.2469
  912MOL0     H23108   6.429   5.387   5.172 -1.7866 -0.2867  4.4825
  912MOL0     H23109   6.547   5.588   5.247  2.2311  1.2233  2.2343
  912MOL0     H23110   6.649   5.737   5.372 -0.4265  0.9596  0.4970
  912MOL0     H23111   6.699   5.615   5.490 -2.6297  0.3068 -1.7490
  912MOL0     H23112   6.791   5.839   5.541  0.1049  0.6511  0.5039
  912MOL0     H23113   6.866   5.846   5.378  2.7968 -1.6836  1.5668
  912MOL0     H23114   7.009   5.650   5.431  0.9558  0.8075 -0.1129
  912MOL0     H23115   6.933   5.642   5.588  0.7157  0.9607  1.4625
  912MOL0     H23116   7.117   5.883   5.490  4.0865 -1.0734  0.7546
  912MOL0     H23117   7.164   5.748   5.570 -0.2589 -1.0228 -0.5290
  912MOL0     H23118   6.969   5.979   5.877 -2.3200 -1.8637  0.5549
  912MOL0     H23119   6.903   5.363   5.278  0.2420 -5.4367 -3.0148
  912MOL0     H23120   6.794   5.169   5.204 -2.8229 -1.8781  1.4452
  913MOL0     O23121   8.006  10.358  10.530  0.3889 -0.0158  0.1550
  913MOL0     C23122   7.996  10.245  10.578 -0.0458  0.0657  0.4388
  913MOL0     O23123   8.092  10.172  10.645  0.5348 -0.5266  0.0320
  913MOL0     C23124   8.209  10.222  10.675  0.0857 -0.4815 -0.4500
  913MOL0     C23125   8.291  10.123  10.729 -0.4356 -0.7238 -0.1433
  913MOL0     C23126   8.419  10.156  10.776 -0.0937  0.2595  0.5218
  913MOL0     C23127   8.468  10.286  10.756  0.3581  0.9179 -0.5631
  913MOL0     O23128   8.592  10.296  10.795 -0.1359 -0.4639 -0.1882
  913MOL0     C23129   8.648  10.422  10.832  0.0533  0.4660  0.8792
  913MOL0     C23130   8.793  10.393  10.871 -0.3535  0.3711 -0.6581
  913MOL0     C23131   8.856  10.526  10.919 -0.7757  0.3844 -0.2142
  913MOL0     C23132   8.997  10.502  10.977 -0.7078 -0.4574 -0.6905
  913MOL0     C23133   9.073  10.636  11.004 -0.0315 -0.2713  0.1692
  913MOL0     C23134   9.148  10.688  10.881  0.5838  0.5932  0.4246
  913MOL0     C23135   9.259  10.785  10.909 -0.5747 -0.0419 -0.7066
  913MOL0     C23136   9.329  10.835  10.786  0.3496  1.3798 -0.6737
  913MOL0     N23137   9.415  10.948  10.812 -0.0512 -0.1408 -0.0956
  913MOL0     C23138   9.543  10.934  10.832 -0.5697 -0.2648  0.7202
  913MOL0     C23139   9.609  11.051  10.825  1.0002  0.1934  0.2563
  913MOL0     C23140   9.757  11.063  10.823  0.0808  0.3668 -0.1614
  913MOL0     C23141   9.824  11.027  10.690  0.0891  0.0389  0.1215
  913MOL0     C23142   9.762  11.076  10.556 -1.5937 -0.0694 -1.4600
  913MOL0     C23143   9.797  11.230  10.530 -0.6704  0.2163 -0.0539
  913MOL0     O23144   9.938  11.256  10.500 -0.6153  0.2407  0.3443
  913MOL0     C23145   9.969  11.393  10.491 -0.4644  0.8228 -0.4956
  913MOL0     C23146  10.100  11.426  10.496  0.7137  0.0870 -1.0539
  913MOL0     C23147  10.146  11.558  10.474  0.1687  0.1476  0.1486
  913MOL0     C23148  10.294  11.577  10.482 -0.0485  0.2733 -0.2725
  913MOL0     C23149  10.060  11.666  10.434 -0.6298  0.2680 -0.4890
  913MOL0     C23150  10.094  11.806  10.408 -0.0950 -0.0004  0.6607
  913MOL0     O23151   9.990  11.895  10.384  0.1338  0.1584  0.9585
  913MOL0     C23152  10.016  12.029  10.358 -0.2892 -0.3024 -1.0695
  913MOL0     C23153  10.066  12.108  10.460  0.2899 -1.0130 -0.8123
  913MOL0     C23154  10.086  12.241  10.438 -0.8876  0.4550  0.0441
  913MOL0     C23155  10.080  12.294  10.301 -0.6228 -0.1758 -0.3381
  913MOL0     O23156  10.128  12.421  10.278  0.2737 -0.1508 -0.1302
  913MOL0     C23157  10.041  12.511  10.201  0.3631 -0.6819 -1.2002
  913MOL0     C23158   9.912  12.549  10.269 -0.8996 -0.8303  0.3548
  913MOL0     C23159   9.929  12.622  10.398 -0.2471  0.2253  0.4385
  913MOL0     C23160   9.789  12.668  10.435 -0.8464  0.2258  0.5129
  913MOL0     C23161   9.791  12.744  10.572 -1.3355 -0.2701 -0.1511
  913MOL0     C23162   9.671  12.808  10.639  0.3081  0.5842  0.4983
  913MOL0     C23163   9.600  12.904  10.532  0.7032  0.0364  0.1755
  913MOL0     C23164   9.606  13.039  10.581  0.7696  0.8592 -0.1041
  913MOL0    Cl23165   9.774  13.098  10.545 -0.4722 -0.1813 -0.1410
  913MOL0     C23166  10.041  12.210  10.196 -0.0231  0.0944 -0.0578
  913MOL0     C23167  10.011  12.081  10.226  0.0904 -0.2868  0.0779
  913MOL0     O23168  10.214  11.842  10.417 -0.6234  0.4378 -0.3275
  913MOL0     C23169   9.923  11.630  10.429 -0.2509 -0.0984 -0.4867
  913MOL0     C23170   9.880  11.507  10.469 -0.3866  0.2446  0.4543
  913MOL0     N23171   9.508  11.142  10.802 -0.6774 -0.1251  0.5519
  913MOL0     N23172   9.393  11.084  10.806 -0.8596 -0.2575  0.4254
  913MOL0     C23173   8.393  10.389  10.700 -0.6622 -0.2939 -0.3312
  913MOL0     C23174   8.263  10.352  10.666 -0.5081 -0.1611 -1.1856
  913MOL0     C23175   7.861  10.175  10.549  0.3142 -0.3683 -0.7412
  913MOL0     C23176   7.765  10.236  10.466  0.3434 -0.0018 -0.1136
  913MOL0     C23177   7.627  10.182  10.465 -0.6437 -0.2293 -0.6819
  913MOL0     C23178   7.595  10.081  10.550  0.5745 -0.2438  0.2868
  913MOL0     O23179   7.465  10.048  10.570 -0.3562 -0.4456  0.0859
  913MOL0     C23180   7.407  10.065  10.698 -0.4786  0.2622  0.2666
  913MOL0     C23181   7.254  10.069  10.683 -1.0081  0.9428 -0.5841
  913MOL0     C23182   7.183  10.102  10.808  0.2361 -0.6072 -0.5542
  913MOL0     C23183   7.029  10.070  10.793  0.5665 -0.1868  0.4631
  913MOL0     C23184   6.963  10.109  10.917  0.1320  0.9982 -0.1118
  913MOL0     C23185   6.915  10.140  11.020  0.6046  0.3797  0.7805
  913MOL0     C23186   7.692  10.028  10.625  0.1117  0.1739 -0.8758
  913MOL0     C23187   7.824  10.065  10.629  0.7103 -0.6094 -0.3743
  913MOL0     H23188   8.245  10.027  10.753  2.5713 -2.7615 -1.9219
  913MOL0     H23189   8.498  10.094  10.816 -0.3442 -1.0025 -0.8594
  913MOL0     H23190   8.639  10.492  10.748  0.3052  0.8574  1.1716
  913MOL0     H23191   8.593  10.476  10.909 -3.4122  1.4885 -2.0703
  913MOL0     H23192   8.793  10.317  10.949 -1.9894 -0.7391 -1.6747
  913MOL0     H23193   8.834  10.343  10.782 -2.2719  1.1900 -2.0707
  913MOL0     H23194   8.866  10.592  10.833 -1.4251 -1.6432 -1.9233
  913MOL0     H23195   8.793  10.568  10.998  0.6665  1.3502  0.4678
  913MOL0     H23196   8.991  10.454  11.076  0.0478  1.3792  0.2871
  913MOL0     H23197   9.050  10.444  10.900  0.7470  1.2773 -1.0548
  913MOL0     H23198   9.010  10.714  11.047 -3.1562 -1.3665 -2.0691
  913MOL0     H23199   9.150  10.617  11.080  0.1232  1.5814  0.5150
  913MOL0     H23200   9.184  10.605  10.820  2.6434  3.4793 -2.6222
  913MOL0     H23201   9.084  10.739  10.808  0.2256  0.0809  0.3733
  913MOL0     H23202   9.205  10.869  10.955 -0.9980 -1.0481  0.7018
  913MOL0     H23203   9.328  10.739  10.980  0.9172 -0.1966 -2.1997
  913MOL0     H23204   9.255  10.848  10.707  1.6944 -0.0032 -2.2313
  913MOL0     H23205   9.402  10.759  10.758 -0.2274  0.1928  0.9244
  913MOL0     H23206   9.590  10.838  10.847  0.5369 -0.0586 -1.1811
  913MOL0     H23207   9.790  11.163  10.851 -1.3022  0.1076  2.8197
  913MOL0     H23208   9.799  10.984  10.886 -0.8305 -1.4565 -1.7240
  913MOL0     H23209   9.829  10.918  10.680  2.3951 -0.3665  3.8252
  913MOL0     H23210   9.931  11.048  10.696  0.0282  0.3590  0.1041
  913MOL0     H23211   9.652  11.069  10.561 -1.7335  1.5546 -1.6554
  913MOL0     H23212   9.795  11.010  10.476 -0.0224  1.6906 -2.3471
  913MOL0     H23213   9.778  11.274  10.629  0.5628 -3.6442  2.0989
  913MOL0     H23214   9.738  11.277  10.450  2.2009  0.6346 -2.0665
  913MOL0     H23215  10.160  11.338  10.519  0.7307 -0.6234 -3.4693
  913MOL0     H23216  10.327  11.669  10.531 -1.5388  0.4645  0.4406
  913MOL0     H23217  10.326  11.504  10.557 -2.9660  1.2606  2.1183
  913MOL0     H23218  10.338  11.559  10.383  0.3625 -0.5213  0.0485
  913MOL0     H23219  10.089  12.069  10.558 -0.7776  1.6886  0.6201
  913MOL0     H23220  10.133  12.309  10.509  3.1407 -0.7998 -1.1450
  913MOL0     H23221  10.098  12.603  10.184  0.7134 -0.4185  1.1057
  913MOL0     H23222  10.019  12.474  10.100 -0.2787  0.5597 -1.5340
  913MOL0     H23223   9.863  12.612  10.194 -2.3707 -0.9935  1.1348
  913MOL0     H23224   9.848  12.461  10.275  0.6181 -2.0349 -0.3364
  913MOL0     H23225  10.002  12.702  10.383 -1.3645  0.8355 -2.4564
  913MOL0     H23226   9.971  12.561  10.478  0.3183  0.4240  0.2938
  913MOL0     H23227   9.761  12.737  10.355 -0.2062  0.7397  0.7243
  913MOL0     H23228   9.718  12.585  10.444  1.1670 -1.7635 -0.8264
  913MOL0     H23229   9.860  12.826  10.550  0.0073 -1.4710 -0.5085
  913MOL0     H23230   9.839  12.676  10.643  0.2683 -3.5034 -3.9352
  913MOL0     H23231   9.600  12.737  10.682 -1.9995  2.0627 -0.6620
  913MOL0     H23232   9.705  12.861  10.728 -1.3372  2.6282 -0.0179
  913MOL0     H23233   9.496  12.875  10.510  0.3227  0.5786  1.1888
  913MOL0     H23234   9.644  12.900  10.432  0.8927  2.0942  0.1417
  913MOL0     H23235   9.584  13.044  10.688 -2.4707  1.9869 -0.7074
  913MOL0     H23236   9.525  13.091  10.530  0.7342 -0.6293 -1.6765
  913MOL0     H23237  10.036  12.251  10.096 -2.7024 -0.7507 -0.3550
  913MOL0     H23238   9.977  12.016  10.146  0.1320  0.2741 -0.4042
  913MOL0     H23239   9.837  11.691  10.404 -1.4323 -1.2403  0.6045
  913MOL0     H23240   9.773  11.489  10.466 -0.5069  0.9332  0.4352
  913MOL0     H23241   8.428  10.490  10.683  1.6829 -1.3179 -2.1885
  913MOL0     H23242   8.214  10.440  10.626 -1.8205 -1.1064 -1.7285
  913MOL0     H23243   7.803  10.324  10.415  3.2564 -0.5097  0.9543
  913MOL0     H23244   7.550  10.236  10.410 -1.0843 -0.3437 -0.1843
  913MOL0     H23245   7.450   9.997  10.772  3.0803  0.7537 -1.1499
  913MOL0     H23246   7.439  10.164  10.731 -0.1301  0.2833 -0.1373
  913MOL0     H23247   7.229   9.970  10.643  1.4844  0.5480 -1.3162
  913MOL0     H23248   7.234  10.145  10.608 -0.6972  0.9774 -0.6346
  913MOL0     H23249   7.203  10.208  10.827  2.0433 -0.8855 -0.7713
  913MOL0     H23250   7.227  10.051  10.893 -2.1335  2.1419  2.6167
  913MOL0     H23251   7.018   9.965  10.765  0.9213 -0.0337 -0.2651
  913MOL0     H23252   6.995  10.127  10.706  3.5827  0.9384 -0.0691
  913MOL0     H23253   6.861  10.159  11.111  1.5781  3.1399  0.8773
  913MOL0     H23254   7.652   9.947  10.685 -0.0708  2.1041  1.7564
  913MOL0     H23255   7.898  10.014  10.689 -1.5483 -2.2785  1.1087
  914MOL0     O23256  10.839  11.347   6.334  0.0811 -0.2278 -0.4228
  914MOL0     C23257  10.852  11.392   6.448  0.4899  0.1817 -0.1082
  914MOL0     O23258  10.969  11.419   6.512  0.5182  0.3229  0.6072
  914MOL0     C23259  11.086  11.374   6.467  0.1870  1.1656 -0.5657
  914MOL0     C23260  11.102  11.247   6.409 -0.3080 -0.1777 -0.6098
  914MOL0     C23261  11.222  11.202   6.355 -0.1703 -0.6407 -0.4808
  914MOL0     C23262  11.336  11.289   6.355  0.7797 -0.2881  0.3526
  914MOL0     O23263  11.452  11.245   6.302 -0.7272 -0.4497  0.5026
  914MOL0     C23264  11.454  11.133   6.206 -0.6839 -0.1940  0.2368
  914MOL0     C23265  11.607  11.097   6.180 -0.5946 -0.5417 -0.3957
  914MOL0     C23266  11.630  11.016   6.057 -1.1496 -0.8235 -0.1104
  914MOL0     C23267  11.774  10.983   6.051  0.2139 -0.2144 -0.0306
  914MOL0     C23268  11.818  10.887   5.945 -0.0534 -0.8252  0.0397
  914MOL0     C23269  11.807  10.955   5.808 -0.7547 -0.0159  0.4117
  914MOL0     C23270  11.847  10.852   5.702  0.4576 -0.0345  0.9468
  914MOL0     C23271  11.991  10.806   5.729 -0.2449  0.3116 -0.2081
  914MOL0     N23272  12.055  10.759   5.603  0.5214  0.0774 -0.1278
  914MOL0     C23273  12.121  10.841   5.519 -0.8565  0.1279  0.7977
  914MOL0     C23274  12.183  10.759   5.425 -0.2264 -0.1728 -0.3920
  914MOL0     C23275  12.281  10.795   5.309 -0.6600  0.0602 -0.5767
  914MOL0     C23276  12.426  10.785   5.337 -0.7672 -0.3033  0.5345
  914MOL0     C23277  12.467  10.885   5.448  0.3549  0.1486  0.5314
  914MOL0     C23278  12.586  10.971   5.402 -0.2386  0.1598 -0.1341
  914MOL0     O23279  12.601  11.078   5.494 -0.0614 -0.4386  0.6249
  914MOL0     C23280  12.537  11.198   5.488  0.7093  0.0835  0.2349
  914MOL0     C23281  12.587  11.297   5.573  0.3512 -0.8951 -0.1714
  914MOL0     C23282  12.517  11.419   5.587  0.5762 -0.3765 -0.4910
  914MOL0     C23283  12.568  11.527   5.678 -0.3933 -0.0132 -0.2540
  914MOL0     C23284  12.391  11.433   5.519 -1.2625 -0.6625  0.3135
  914MOL0     C23285  12.303  11.561   5.523 -0.9846  0.5015 -0.1751
  914MOL0     O23286  12.249  11.598   5.407  0.0329 -0.2522 -0.5537
  914MOL0     C23287  12.173  11.709   5.393 -0.1296 -0.8493 -0.2298
  914MOL0     C23288  12.040  11.734   5.438 -0.8029 -0.3505 -1.1384
  914MOL0     C23289  11.976  11.854   5.419  0.2745  0.5359  1.1598
  914MOL0     C23290  12.049  11.965   5.375  1.1408 -1.0156  0.5141
  914MOL0     O23291  12.000  12.088   5.335 -0.3780 -0.0009  0.2625
  914MOL0     C23292  11.880  12.137   5.402  0.8720  0.2894 -0.0518
  914MOL0     C23293  11.808  12.246   5.326  0.7586 -0.6727  0.7021
  914MOL0     C23294  11.885  12.379   5.337  0.2677 -0.0569 -0.1847
  914MOL0     C23295  11.839  12.472   5.226 -0.4422  0.9185 -0.5414
  914MOL0     C23296  11.908  12.442   5.088 -0.1647 -0.0148  0.1837
  914MOL0     C23297  11.907  12.575   5.010 -0.0318 -0.1096  1.1093
  914MOL0     C23298  11.980  12.547   4.882 -0.2052  0.3504  0.0874
  914MOL0     C23299  12.057  12.679   4.833  1.3401  0.4320  1.2117
  914MOL0    Cl23300  11.955  12.830   4.846  0.7779 -0.1569 -0.1613
  914MOL0     C23301  12.187  11.948   5.347  0.8807  0.2930  0.1184
  914MOL0     C23302  12.240  11.816   5.348 -0.1650 -1.3252  0.4224
  914MOL0     O23303  12.292  11.615   5.632 -0.5173  0.3391 -0.1753
  914MOL0     C23304  12.356  11.344   5.419 -0.0211  0.6817 -0.1823
  914MOL0     C23305  12.423  11.217   5.412  0.1272 -0.7365  0.5698
  914MOL0     N23306  12.136  10.635   5.448 -0.8994  0.0259 -1.3383
  914MOL0     N23307  12.062  10.632   5.553 -0.7005 -1.0795 -0.4138
  914MOL0     C23308  11.325  11.413   6.413  0.1557  0.4079  0.2581
  914MOL0     C23309  11.206  11.459   6.470 -0.5485  0.2348  0.9069
  914MOL0     C23310  10.733  11.416   6.534  0.4664  0.0254  0.0543
  914MOL0     C23311  10.611  11.355   6.519  0.1832  0.5847 -0.7734
  914MOL0     C23312  10.508  11.365   6.614  0.0021 -0.1227 -1.3256
  914MOL0     C23313  10.519  11.458   6.716 -0.1989 -0.5735  0.4528
  914MOL0     O23314  10.424  11.495   6.805  0.5633 -0.3699  0.5659
  914MOL0     C23315  10.304  11.425   6.822 -0.4189  0.2136  0.7970
  914MOL0     C23316  10.211  11.506   6.913  0.0564 -0.0762 -0.3638
  914MOL0     C23317  10.081  11.421   6.912 -0.6526 -0.5805 -0.1785
  914MOL0     C23318   9.952  11.518   6.928 -0.3820  0.2208  0.5025
  914MOL0     C23319   9.830  11.438   6.919  0.1110  0.5978  0.6187
  914MOL0     C23320   9.737  11.363   6.926 -0.1755 -0.5801 -0.4566
  914MOL0     C23321  10.644  11.525   6.729  0.3729 -0.8888 -0.1039
  914MOL0     C23322  10.747  11.498   6.648  0.6105  0.1536  1.1977
  914MOL0     H23323  11.032  11.166   6.427  3.4117 -3.0747  2.4841
  914MOL0     H23324  11.216  11.102   6.313 -2.2667  0.1465 -2.2110
  914MOL0     H23325  11.411  11.043   6.250  0.3990 -0.5718  0.5274
  914MOL0     H23326  11.403  11.169   6.116  1.6285 -2.5909 -2.2179
  914MOL0     H23327  11.667  11.188   6.195 -3.2966  1.6076 -1.5643
  914MOL0     H23328  11.644  11.036   6.263  1.1927 -0.9454 -1.4295
  914MOL0     H23329  11.573  10.923   6.048  0.2596 -1.6570 -0.7110
  914MOL0     H23330  11.606  11.072   5.967  3.6260 -1.5805 -2.1245
  914MOL0     H23331  11.826  11.078   6.031  0.0498  0.1244  1.0725
  914MOL0     H23332  11.822  10.947   6.143 -0.3633 -0.1991  0.2803
  914MOL0     H23333  11.924  10.871   5.966  0.5125  1.9482 -0.3147
  914MOL0     H23334  11.759  10.795   5.954 -0.4093 -0.7008 -0.8892
  914MOL0     H23335  11.706  10.989   5.784 -0.1778  1.0603 -0.6069
  914MOL0     H23336  11.873  11.042   5.805 -0.0260 -0.5486 -2.8690
  914MOL0     H23337  11.781  10.766   5.692  1.8809 -1.0423 -0.3751
  914MOL0     H23338  11.846  10.894   5.601  0.5802 -2.3409 -0.0870
  914MOL0     H23339  11.998  10.718   5.793  2.3789  0.5236 -0.1060
  914MOL0     H23340  12.046  10.877   5.791 -0.3252  1.1460 -1.0609
  914MOL0     H23341  12.136  10.946   5.544 -1.9298  0.0151  1.9741
  914MOL0     H23342  12.256  10.750   5.212 -0.9173 -0.7976 -0.1309
  914MOL0     H23343  12.265  10.902   5.293 -1.7940 -0.1476 -0.9268
  914MOL0     H23344  12.491  10.804   5.252 -0.8423  2.4760  1.0059
  914MOL0     H23345  12.448  10.686   5.380 -2.3657 -1.0211 -0.1972
  914MOL0     H23346  12.493  10.833   5.541 -0.2439  0.6721  0.9993
  914MOL0     H23347  12.379  10.947   5.468  0.2342  0.7549 -1.6070
  914MOL0     H23348  12.573  11.016   5.303 -3.3672  1.1490  0.5906
  914MOL0     H23349  12.670  10.901   5.393 -1.6028 -1.6560  0.6297
  914MOL0     H23350  12.682  11.290   5.625  0.6789  3.3622  0.1164
  914MOL0     H23351  12.676  11.528   5.698 -0.3569  0.1754 -0.4578
  914MOL0     H23352  12.566  11.622   5.623  0.6966  0.6043  0.7204
  914MOL0     H23353  12.516  11.531   5.774  0.2684 -1.0177  0.1666
  914MOL0     H23354  11.971  11.666   5.487 -2.6623  0.2951 -2.7272
  914MOL0     H23355  11.868  11.859   5.423  0.1589 -1.2556  0.9398
  914MOL0     H23356  11.812  12.052   5.401  0.4772  0.4583  2.8492
  914MOL0     H23357  11.903  12.162   5.506  1.7683 -1.2001  0.1281
  914MOL0     H23358  11.802  12.224   5.219  3.1540  1.1342  0.0952
  914MOL0     H23359  11.712  12.254   5.376 -0.9456  0.1346 -2.4190
  914MOL0     H23360  11.990  12.353   5.319  0.1908 -0.2397 -0.3771
  914MOL0     H23361  11.873  12.437   5.429 -0.7094  0.1470 -0.4233
  914MOL0     H23362  11.733  12.447   5.217  0.0152 -2.2535  1.1439
  914MOL0     H23363  11.865  12.577   5.236  1.5623  0.5614 -1.3473
  914MOL0     H23364  11.859  12.365   5.028  2.2141 -2.3765  1.0827
  914MOL0     H23365  12.007  12.396   5.099  0.9360  2.2098  0.1913
  914MOL0     H23366  11.807  12.617   5.000  1.0672  2.5729  0.7641
  914MOL0     H23367  11.972  12.645   5.062 -0.2339  0.9909 -0.0861
  914MOL0     H23368  11.902  12.528   4.807 -2.6797  3.0856  1.7902
  914MOL0     H23369  12.043  12.458   4.895  1.8989  2.0581  2.5322
  914MOL0     H23370  12.091  12.676   4.729  1.4941  1.4097  1.2242
  914MOL0     H23371  12.140  12.714   4.896  0.9232  2.6793  0.5945
  914MOL0     H23372  12.255  12.031   5.332  1.9674 -0.3413  1.3990
  914MOL0     H23373  12.342  11.794   5.321  1.5155  2.3166  2.9511
  914MOL0     H23374  12.266  11.358   5.360 -1.0692 -3.8042  0.0474
  914MOL0     H23375  12.381  11.138   5.350 -3.9392  0.6389  1.3140
  914MOL0     H23376  11.415  11.471   6.425  0.3724  1.2207 -3.7081
  914MOL0     H23377  11.190  11.553   6.522 -1.4076  1.3035 -1.1949
  914MOL0     H23378  10.599  11.281   6.440 -1.2234  1.1181 -1.0936
  914MOL0     H23379  10.419  11.303   6.602 -0.3333 -0.6713  2.6217
  914MOL0     H23380  10.253  11.425   6.725 -2.7890  6.6676  1.5245
  914MOL0     H23381  10.330  11.328   6.865  1.2330  0.1405 -0.3072
  914MOL0     H23382  10.191  11.605   6.871 -1.7514 -1.1700 -2.3087
  914MOL0     H23383  10.250  11.522   7.013 -0.8153 -0.5428  0.0666
  914MOL0     H23384  10.103  11.354   6.996  1.0364  0.3545  0.1802
  914MOL0     H23385  10.068  11.351   6.830  0.2253  0.6504 -1.4113
  914MOL0     H23386   9.953  11.602   6.857 -1.6650  0.2187  0.4549
  914MOL0     H23387   9.953  11.557   7.030  1.1755  0.0021  0.5997
  914MOL0     H23388   9.647  11.306   6.938 -0.5007 -0.2213 -1.1063
  914MOL0     H23389  10.666  11.612   6.790 -0.2848  0.0816 -1.1928
  914MOL0     H23390  10.845  11.536   6.676  1.4437 -2.8098  2.7607
  915MOL0     O23391   7.780   1.144   6.000 -0.2598  0.8743  0.4687
  915MOL0     C23392   7.883   1.100   5.954  0.0872  0.0590  0.0467
  915MOL0     O23393   7.942   1.150   5.839 -0.7496  0.0130  0.8878
  915MOL0     C23394   7.875   1.245   5.770 -0.7320  0.4756  0.5076
  915MOL0     C23395   7.947   1.362   5.738 -1.3826 -0.2136 -0.3570
  915MOL0     C23396   7.892   1.471   5.681  0.1623 -0.6259  0.7065
  915MOL0     C23397   7.749   1.472   5.675 -1.0308  0.1428  0.1970
  915MOL0     O23398   7.675   1.587   5.625  0.1813  0.1078 -0.8716
  915MOL0     C23399   7.741   1.707   5.663  0.4031  0.2120  0.3363
  915MOL0     C23400   7.657   1.828   5.630 -0.2146  0.2867  0.4785
  915MOL0     C23401   7.524   1.824   5.708 -0.6988 -0.3007 -0.3541
  915MOL0     C23402   7.467   1.964   5.735  0.1006 -0.5741 -0.1500
  915MOL0     C23403   7.452   2.031   5.602  0.4459 -1.0638 -0.3245
  915MOL0     C23404   7.353   1.954   5.508 -0.1175  0.7009  0.9902
  915MOL0     C23405   7.306   2.059   5.417 -0.6342  0.2135  0.2343
  915MOL0     C23406   7.206   2.022   5.319  0.0007  0.0828  0.8431
  915MOL0     N23407   7.178   2.144   5.241  0.3324  0.0695 -0.3785
  915MOL0     C23408   7.081   2.235   5.279 -0.9057 -0.3724 -0.2595
  915MOL0     C23409   7.108   2.344   5.204 -0.5532  0.1452  0.4308
  915MOL0     C23410   7.032   2.467   5.200  0.2374 -0.1199  0.1403
  915MOL0     C23411   6.894   2.431   5.149  0.2969  0.8737  0.9611
  915MOL0     C23412   6.805   2.560   5.157  0.3306  0.5590  0.5650
  915MOL0     C23413   6.656   2.531   5.110 -0.1256 -0.0070 -0.4903
  915MOL0     O23414   6.592   2.423   5.178  0.7820 -0.1679 -0.1724
  915MOL0     C23415   6.515   2.333   5.114  0.0589 -0.5160  0.3513
  915MOL0     C23416   6.374   2.338   5.119 -0.4751  0.1978 -0.5047
  915MOL0     C23417   6.294   2.239   5.048  1.0358  0.2583  0.4192
  915MOL0     C23418   6.145   2.258   5.064  0.3822 -0.2695  0.3081
  915MOL0     C23419   6.351   2.145   4.965  0.8675  0.1504 -0.0151
  915MOL0     C23420   6.270   2.034   4.898 -0.4924  0.3284 -0.0157
  915MOL0     O23421   6.138   2.009   4.922 -0.2409  0.0360 -0.0993
  915MOL0     C23422   6.078   1.904   4.862 -0.4345 -0.5063  0.1223
  915MOL0     C23423   5.966   1.922   4.785  0.0467 -0.1312  0.7724
  915MOL0     C23424   5.898   1.815   4.733 -0.5439  0.1541 -0.1482
  915MOL0     C23425   5.937   1.686   4.746  0.3195  0.0933  0.1249
  915MOL0     O23426   5.861   1.576   4.696 -0.3720 -0.1962  0.4967
  915MOL0     C23427   5.739   1.603   4.625  0.4789 -0.0369  0.1258
  915MOL0     C23428   5.659   1.472   4.584 -0.1581  0.7539 -0.2128
  915MOL0     C23429   5.509   1.489   4.560 -0.5084  0.2503 -0.1382
  915MOL0     C23430   5.486   1.554   4.425  0.0256 -0.0248 -0.3057
  915MOL0     C23431   5.350   1.532   4.380  0.6059  0.3565  0.1507
  915MOL0     C23432   5.329   1.591   4.240 -0.0831  0.3522  0.0572
  915MOL0     C23433   5.303   1.742   4.226  0.2397 -0.2619 -0.6530
  915MOL0     C23434   5.336   1.805   4.090  0.5983 -0.7724  0.7724
  915MOL0    Cl23435   5.194   1.773   3.980 -0.2944 -0.0801  0.0547
  915MOL0     C23436   6.055   1.668   4.811 -0.2026 -0.9612 -0.4407
  915MOL0     C23437   6.129   1.774   4.878 -0.1155 -0.8721  0.2336
  915MOL0     O23438   6.342   1.969   4.813 -0.2848 -0.4847 -0.4556
  915MOL0     C23439   6.490   2.163   4.946 -1.0225 -0.2346  0.5783
  915MOL0     C23440   6.573   2.251   5.017 -0.0641  0.6453 -0.5778
  915MOL0     N23441   7.218   2.316   5.118 -0.0456 -0.7760 -0.0323
  915MOL0     N23442   7.259   2.198   5.141  0.4382 -0.0101 -0.0183
  915MOL0     C23443   7.675   1.354   5.705 -0.2147 -1.1014  0.4306
  915MOL0     C23444   7.737   1.235   5.735  0.0192 -0.1007 -0.6020
  915MOL0     C23445   7.961   1.006   6.036  0.2288  0.9420  1.0896
  915MOL0     C23446   8.089   0.955   5.995 -0.1046  0.3079 -0.7692
  915MOL0     C23447   8.163   0.882   6.091 -0.0428  1.3604 -0.1399
  915MOL0     C23448   8.100   0.836   6.206  0.5452  0.6270  0.0777
  915MOL0     O23449   8.152   0.757   6.302 -0.0581  0.0592 -0.3667
  915MOL0     C23450   8.277   0.697   6.257  0.0571  0.1681  0.0923
  915MOL0     C23451   8.334   0.607   6.367 -0.0684 -0.2142  0.2546
  915MOL0     C23452   8.466   0.541   6.327 -0.0188  0.4764  0.2988
  915MOL0     C23453   8.507   0.460   6.451  0.0955  0.1123  0.5604
  915MOL0     C23454   8.557   0.544   6.559 -0.6885 -0.6041  0.0530
  915MOL0     C23455   8.603   0.610   6.655  0.0085  1.1764 -0.2244
  915MOL0     C23456   7.972   0.878   6.242  0.0948  0.1185  0.0165
  915MOL0     C23457   7.908   0.969   6.159  0.2851  0.3092 -0.0642
  915MOL0     H23458   8.054   1.375   5.754 -1.4052  2.0067 -1.5376
  915MOL0     H23459   7.959   1.546   5.642 -0.2864 -0.7704 -0.3763
  915MOL0     H23460   7.767   1.700   5.769  0.1153  1.3620  0.5002
  915MOL0     H23461   7.827   1.720   5.596 -0.9371  2.6034 -1.0579
  915MOL0     H23462   7.712   1.916   5.664 -0.3208 -0.1784  1.9465
  915MOL0     H23463   7.639   1.841   5.523 -0.7122 -3.2453 -0.0029
  915MOL0     H23464   7.457   1.766   5.643  0.2011 -0.8763 -0.7895
  915MOL0     H23465   7.534   1.774   5.804  3.2717 -0.3868 -0.6612
  915MOL0     H23466   7.369   1.937   5.776 -0.4750 -3.7200 -3.1888
  915MOL0     H23467   7.526   2.022   5.806 -0.2911  0.1597 -0.4103
  915MOL0     H23468   7.411   2.130   5.619 -2.0818 -2.0233 -0.4877
  915MOL0     H23469   7.543   2.065   5.552 -0.8754  1.9066 -0.8779
  915MOL0     H23470   7.406   1.873   5.456  0.5367  1.7740 -0.0631
  915MOL0     H23471   7.267   1.914   5.562 -2.5702  1.5295 -2.0143
  915MOL0     H23472   7.252   2.135   5.474 -1.5733 -0.4257  0.2170
  915MOL0     H23473   7.394   2.110   5.376  0.6786 -0.6747  1.7812
  915MOL0     H23474   7.112   1.993   5.368 -2.1131  2.2950 -1.6096
  915MOL0     H23475   7.236   1.941   5.252  3.1155  1.5413  0.2874
  915MOL0     H23476   7.002   2.219   5.353  0.5997 -4.0450  0.7638
  915MOL0     H23477   7.031   2.504   5.303 -1.4468  1.7534 -0.4972
  915MOL0     H23478   7.075   2.547   5.140  1.0585 -1.0272 -0.5182
  915MOL0     H23479   6.844   2.363   5.219 -2.6826  0.0941 -1.7127
  915MOL0     H23480   6.910   2.384   5.051 -1.3662 -0.1528  1.1260
  915MOL0     H23481   6.838   2.634   5.083 -0.9577  0.1889 -0.4183
  915MOL0     H23482   6.808   2.597   5.259  1.8324 -0.2953  0.8644
  915MOL0     H23483   6.673   2.499   5.006  2.8554 -2.0714  0.5033
  915MOL0     H23484   6.601   2.624   5.122  3.4048  2.1936  0.0563
  915MOL0     H23485   6.326   2.422   5.168 -3.4268 -0.6299 -1.7715
  915MOL0     H23486   6.101   2.181   5.127 -2.1943  2.2556  1.8201
  915MOL0     H23487   6.119   2.357   5.103 -0.1088 -0.6876  1.0730
  915MOL0     H23488   6.098   2.246   4.966  2.4369  0.1781 -0.7933
  915MOL0     H23489   5.947   2.025   4.759  3.1941 -0.0888 -2.0012
  915MOL0     H23490   5.814   1.832   4.667  1.1739  0.3094 -2.4317
  915MOL0     H23491   5.676   1.664   4.691 -0.3942 -2.7164  1.9470
  915MOL0     H23492   5.763   1.651   4.530 -1.0192 -2.3005 -1.5253
  915MOL0     H23493   5.700   1.434   4.491 -0.6730  2.5625 -1.2150
  915MOL0     H23494   5.670   1.402   4.668  1.8068  0.4569 -0.6765
  915MOL0     H23495   5.471   1.543   4.647  2.0070  1.8386  0.0651
  915MOL0     H23496   5.462   1.390   4.561 -2.1555  0.9980 -0.9094
  915MOL0     H23497   5.506   1.660   4.439  1.8734 -0.3776  0.0191
  915MOL0     H23498   5.566   1.532   4.352 -2.0729 -2.3755 -2.0587
  915MOL0     H23499   5.271   1.574   4.443  0.0536  0.9383 -0.9128
  915MOL0     H23500   5.339   1.423   4.383  3.5512 -0.0154  3.3758
  915MOL0     H23501   5.411   1.572   4.170  0.4661  1.1954  0.4613
  915MOL0     H23502   5.244   1.538   4.196  0.8200  0.7749 -2.3721
  915MOL0     H23503   5.368   1.793   4.298 -0.5614 -1.6708  1.1666
  915MOL0     H23504   5.200   1.768   4.254 -0.1113 -1.0093 -1.1942
  915MOL0     H23505   5.431   1.769   4.049  0.7376  0.2686  0.1394
  915MOL0     H23506   5.342   1.914   4.085 -2.1634 -0.4711  2.2030
  915MOL0     H23507   6.104   1.575   4.837  0.1130 -0.4255  0.9677
  915MOL0     H23508   6.218   1.751   4.936 -0.7946 -1.3710  1.0975
  915MOL0     H23509   6.544   2.105   4.871  2.8703 -2.7856  4.8172
  915MOL0     H23510   6.679   2.254   4.993  0.6038  2.5532  2.1596
  915MOL0     H23511   7.569   1.355   5.683 -0.4082  2.8445  0.8176
  915MOL0     H23512   7.679   1.143   5.737  1.4968 -1.0825 -1.0124
  915MOL0     H23513   8.144   0.976   5.904 -0.6153 -4.0871 -2.3003
  915MOL0     H23514   8.267   0.870   6.063 -0.5046  1.9099 -2.2481
  915MOL0     H23515   8.257   0.643   6.164 -2.5003  1.5949 -0.2534
  915MOL0     H23516   8.357   0.770   6.237 -0.9584  2.0458  2.4084
  915MOL0     H23517   8.261   0.527   6.383  2.4598 -2.8305 -0.4096
  915MOL0     H23518   8.345   0.673   6.454 -0.9597  1.2025 -0.6597
  915MOL0     H23519   8.540   0.620   6.314  0.0354  0.6371  1.5335
  915MOL0     H23520   8.463   0.476   6.239 -1.1028 -1.4800  1.7080
  915MOL0     H23521   8.584   0.390   6.420 -1.4655 -1.2399 -0.4388
  915MOL0     H23522   8.423   0.396   6.482  0.5804 -0.8749 -0.1373
  915MOL0     H23523   8.657   0.656   6.735  1.0529  0.2055 -0.3376
  915MOL0     H23524   7.937   0.849   6.341 -0.1344 -1.8792 -0.6114
  915MOL0     H23525   7.804   0.985   6.188  0.4376  0.6024  0.3322
  916MOL0     O23526   5.901   1.328   5.996 -0.3396  0.1736  0.3873
  916MOL0     C23527   5.974   1.395   5.921  0.0589  0.8808 -0.5819
  916MOL0     O23528   5.930   1.502   5.838  0.2347 -0.0195  0.3983
  916MOL0     C23529   5.799   1.525   5.815  0.7344 -0.5031 -0.7188
  916MOL0     C23530   5.701   1.561   5.906 -0.6718 -0.3256 -0.3027
  916MOL0     C23531   5.572   1.577   5.866  0.6923 -0.2781 -0.4213
  916MOL0     C23532   5.537   1.550   5.730  0.2737  0.9397  0.3311
  916MOL0     O23533   5.411   1.570   5.691 -0.0348  0.3149  0.6166
  916MOL0     C23534   5.393   1.671   5.588 -0.5292 -0.6352 -0.1085
  916MOL0     C23535   5.246   1.679   5.565 -0.5884 -0.2193 -0.4601
  916MOL0     C23536   5.196   1.543   5.501  0.1632  0.4627  0.3414
  916MOL0     C23537   5.041   1.532   5.525  0.0088  0.3354 -0.4005
  916MOL0     C23538   4.985   1.395   5.501 -0.0000 -0.3269  0.7795
  916MOL0     C23539   4.835   1.405   5.511  0.0753 -0.3634 -0.5088
  916MOL0     C23540   4.769   1.419   5.655  0.6354  0.2078  0.2456
  916MOL0     C23541   4.802   1.327   5.774 -0.1909 -0.1924  0.7874
  916MOL0     N23542   4.833   1.397   5.901 -0.0734  0.4607  0.4845
  916MOL0     C23543   4.939   1.481   5.925  0.3245 -0.3984 -0.0389
  916MOL0     C23544   4.933   1.514   6.061  0.5270  0.7303  0.5226
  916MOL0     C23545   5.035   1.574   6.144  0.1228 -0.6048 -0.2819
  916MOL0     C23546   5.118   1.480   6.227 -0.7675 -0.2834  0.0493
  916MOL0     C23547   5.242   1.548   6.291 -0.1741  0.3058  0.3189
  916MOL0     C23548   5.363   1.579   6.200  0.2350  0.7223  0.7150
  916MOL0     O23549   5.455   1.472   6.195  0.1974  0.1779  0.4782
  916MOL0     C23550   5.558   1.470   6.286 -0.7940 -0.4363  0.5561
  916MOL0     C23551   5.577   1.554   6.396  0.8805  0.1122 -0.1186
  916MOL0     C23552   5.703   1.567   6.459  0.8912  0.5017  0.0211
  916MOL0     C23553   5.705   1.660   6.578 -0.4020  0.6656 -0.1494
  916MOL0     C23554   5.818   1.498   6.405 -0.8633  0.2346 -0.0686
  916MOL0     C23555   5.952   1.520   6.462  0.3465  0.1381  0.3182
  916MOL0     O23556   6.058   1.498   6.380 -0.0852  0.1510  0.1767
  916MOL0     C23557   6.185   1.551   6.410  0.2101 -0.1087  0.0877
  916MOL0     C23558   6.210   1.665   6.484 -0.2035 -0.3525 -0.4601
  916MOL0     C23559   6.342   1.718   6.493  0.2082 -0.5952 -0.1486
  916MOL0     C23560   6.450   1.656   6.427 -0.0187  0.9995 -0.2828
  916MOL0     O23561   6.579   1.694   6.423 -0.2874 -0.0542 -0.8549
  916MOL0     C23562   6.627   1.800   6.512  1.1985  0.8089  0.8737
  916MOL0     C23563   6.769   1.776   6.534 -0.3469 -1.0205 -0.7490
  916MOL0     C23564   6.849   1.767   6.394 -0.0424  0.1759  0.1695
  916MOL0     C23565   6.992   1.730   6.430  0.0812  0.1067 -0.1078
  916MOL0     C23566   7.091   1.782   6.325 -0.5373  0.6078  1.0631
  916MOL0     C23567   7.078   1.732   6.180  0.1039  0.8263 -0.2252
  916MOL0     C23568   7.067   1.582   6.173  0.3400 -0.0372  0.8690
  916MOL0     C23569   7.075   1.538   6.028  0.2325  0.5200  0.7788
  916MOL0    Cl23570   6.946   1.601   5.920 -0.5759 -0.2501 -0.4173
  916MOL0     C23571   6.420   1.539   6.356  0.5253 -0.2439  0.3546
  916MOL0     C23572   6.287   1.490   6.341 -0.0681 -0.8140  0.0066
  916MOL0     O23573   5.962   1.543   6.579  0.0032  0.3097 -0.7587
  916MOL0     C23574   5.790   1.421   6.292 -0.5954  0.1770 -0.0432
  916MOL0     C23575   5.666   1.407   6.231  0.6693 -0.2614 -0.6520
  916MOL0     N23576   4.800   1.472   6.086 -1.1185  0.4221 -0.6776
  916MOL0     N23577   4.758   1.389   6.009 -0.0496 -0.1090 -0.2521
  916MOL0     C23578   5.637   1.504   5.642 -0.6973 -0.0504  0.1049
  916MOL0     C23579   5.765   1.493   5.687  0.6156 -0.6273 -0.0184
  916MOL0     C23580   6.119   1.360   5.920  0.2183  0.0830 -0.7657
  916MOL0     C23581   6.212   1.439   5.850 -1.1375  0.0664  0.2790
  916MOL0     C23582   6.350   1.415   5.846 -0.4185  0.0894 -0.3372
  916MOL0     C23583   6.407   1.295   5.916  0.5899 -0.3218 -0.2255
  916MOL0     O23584   6.540   1.260   5.908 -0.1811  0.1913  0.6378
  916MOL0     C23585   6.619   1.306   5.803 -0.1542 -0.0945  1.0648
  916MOL0     C23586   6.734   1.212   5.758  0.2496 -0.1762 -0.1481
  916MOL0     C23587   6.668   1.087   5.703 -0.6332 -0.5147 -0.7093
  916MOL0     C23588   6.773   0.982   5.666  0.1704 -0.0765  0.5697
  916MOL0     C23589   6.875   1.022   5.571  0.2374  0.8313 -0.5670
  916MOL0     C23590   6.960   1.053   5.490  0.0335  0.2326 -0.9211
  916MOL0     C23591   6.312   1.216   5.975 -0.8384  0.1284 -0.0809
  916MOL0     C23592   6.176   1.254   5.990  0.5656  0.2790  0.2761
  916MOL0     H23593   5.731   1.584   6.008 -4.9955  3.0629  0.5014
  916MOL0     H23594   5.496   1.603   5.939  0.3196 -4.5104  1.0287
  916MOL0     H23595   5.422   1.770   5.625 -3.3671 -0.8360  3.1546
  916MOL0     H23596   5.443   1.647   5.494 -1.2964 -1.3232 -0.3597
  916MOL0     H23597   5.200   1.695   5.663  1.1909  2.0574  0.0931
  916MOL0     H23598   5.226   1.758   5.492 -0.4954  0.1734 -0.0647
  916MOL0     H23599   5.205   1.555   5.393  3.5870 -1.0506  0.3189
  916MOL0     H23600   5.257   1.463   5.545  0.8870  1.5387  1.3614
  916MOL0     H23601   5.025   1.554   5.631  0.8037  0.2527 -0.2605
  916MOL0     H23602   4.986   1.610   5.472 -0.7575 -1.5595 -2.5568
  916MOL0     H23603   5.012   1.364   5.400  0.7813 -0.6787  1.0885
  916MOL0     H23604   5.022   1.322   5.574 -0.0654 -0.4344  0.7055
  916MOL0     H23605   4.790   1.477   5.443 -1.6724  0.6941  1.6540
  916MOL0     H23606   4.804   1.303   5.483  1.5711 -0.4080 -2.1873
  916MOL0     H23607   4.799   1.517   5.693 -0.1299 -0.8761  4.1402
  916MOL0     H23608   4.660   1.424   5.645  0.7326 -0.8972 -1.7146
  916MOL0     H23609   4.882   1.258   5.743 -1.9395 -1.2104 -1.7744
  916MOL0     H23610   4.711   1.268   5.789 -2.1366  2.4207  0.0427
  916MOL0     H23611   5.023   1.501   5.859  1.0671 -0.9769  0.7060
  916MOL0     H23612   5.088   1.643   6.079 -2.0249  1.0065 -0.4629
  916MOL0     H23613   4.986   1.637   6.220  1.7613 -0.0683  0.3724
  916MOL0     H23614   5.158   1.408   6.156  0.3568  0.9416 -0.6132
  916MOL0     H23615   5.058   1.420   6.296 -2.0477 -0.5125 -1.2378
  916MOL0     H23616   5.270   1.488   6.378 -1.3958  0.6158  0.9603
  916MOL0     H23617   5.198   1.639   6.332  2.5317  0.9577  2.0245
  916MOL0     H23618   5.400   1.679   6.224 -0.9888  1.9032 -1.9345
  916MOL0     H23619   5.322   1.594   6.100  0.5981  0.5787  0.5394
  916MOL0     H23620   5.505   1.620   6.445  2.3271  0.2409  1.9653
  916MOL0     H23621   5.736   1.602   6.666 -0.3022  1.0961  0.1069
  916MOL0     H23622   5.769   1.748   6.565 -1.1284  1.3806  0.8943
  916MOL0     H23623   5.606   1.695   6.607 -2.1114 -2.6471 -1.4366
  916MOL0     H23624   6.130   1.724   6.528 -0.7550 -1.4509  0.0456
  916MOL0     H23625   6.351   1.813   6.544 -5.3232  0.3831 -0.3691
  916MOL0     H23626   6.604   1.890   6.454 -0.6434 -0.5187 -0.5940
  916MOL0     H23627   6.574   1.800   6.608 -3.1197 -1.8702 -1.1750
  916MOL0     H23628   6.809   1.849   6.605 -1.6051 -1.1735  0.1688
  916MOL0     H23629   6.788   1.681   6.585 -0.1836 -1.5609 -1.8057
  916MOL0     H23630   6.853   1.866   6.348  2.3862 -0.6103 -1.5197
  916MOL0     H23631   6.811   1.696   6.320 -2.0146  0.0542  1.2273
  916MOL0     H23632   7.027   1.775   6.523 -0.5547 -2.3094  1.3622
  916MOL0     H23633   7.010   1.624   6.446  0.7134  0.6440  3.4810
  916MOL0     H23634   7.188   1.750   6.362  0.3928  3.2758  1.1173
  916MOL0     H23635   7.089   1.891   6.330 -0.2843  0.6910 -0.2144
  916MOL0     H23636   6.979   1.765   6.148 -1.1694 -3.9235 -1.9510
  916MOL0     H23637   7.155   1.767   6.111 -1.5626  2.3910 -1.4030
  916MOL0     H23638   6.974   1.547   6.218 -0.2918 -0.1316 -0.4896
  916MOL0     H23639   7.149   1.534   6.228  1.9182  0.2980 -1.0737
  916MOL0     H23640   7.071   1.429   6.035  0.5629  0.5412  1.3435
  916MOL0     H23641   7.177   1.556   5.991 -0.2791 -0.7432 -1.4302
  916MOL0     H23642   6.498   1.490   6.299  2.0251  0.9199  1.3192
  916MOL0     H23643   6.269   1.403   6.278 -0.7633  0.1076 -1.0981
  916MOL0     H23644   5.867   1.364   6.241  0.4828  2.3324 -0.9526
  916MOL0     H23645   5.662   1.352   6.137 -1.3671 -0.5494 -0.4380
  916MOL0     H23646   5.614   1.466   5.543 -1.7457  0.7543  0.0176
  916MOL0     H23647   5.837   1.453   5.616  1.0179 -1.1824  0.6859
  916MOL0     H23648   6.178   1.520   5.786 -0.8255  1.7198  2.1276
  916MOL0     H23649   6.414   1.475   5.781  1.2986 -0.3121  0.9155
  916MOL0     H23650   6.566   1.348   5.718 -2.4727 -1.0021  1.9916
  916MOL0     H23651   6.662   1.398   5.845 -1.0665 -0.0338  1.8995
  916MOL0     H23652   6.793   1.192   5.848 -2.3171 -1.4464  1.3379
  916MOL0     H23653   6.810   1.256   5.693 -1.1178 -0.3045 -1.9109
  916MOL0     H23654   6.614   1.114   5.611 -0.7112 -1.7865 -1.0545
  916MOL0     H23655   6.600   1.042   5.776  1.2551  0.3983  1.7446
  916MOL0     H23656   6.728   0.891   5.626 -2.0181  0.6579  1.1886
  916MOL0     H23657   6.834   0.962   5.755 -1.5011 -0.4228  1.6850
  916MOL0     H23658   7.047   1.084   5.436  0.4863  3.5999  1.4320
  916MOL0     H23659   6.353   1.135   6.034  1.2437  0.1475 -1.3999
  916MOL0     H23660   6.106   1.204   6.056  0.0620 -0.5006 -0.8066
  917MOL0     O23661   2.359   2.553   1.836  0.3683 -0.2451  0.1762
  917MOL0     C23662   2.267   2.572   1.757 -1.1029 -0.5709  0.9380
  917MOL0     O23663   2.141   2.528   1.765  0.0512 -0.7251  0.3335
  917MOL0     C23664   2.095   2.476   1.881  0.4637  0.3581 -0.2297
  917MOL0     C23665   2.066   2.551   2.000  0.1905 -0.1196  0.6999
  917MOL0     C23666   2.008   2.492   2.105 -0.0532  0.1032  0.2572
  917MOL0     C23667   1.990   2.353   2.112 -0.3148 -0.1449  0.1280
  917MOL0     O23668   1.944   2.293   2.235  0.2361 -0.7707 -0.3557
  917MOL0     C23669   1.893   2.388   2.335  0.1707  0.5719 -0.5701
  917MOL0     C23670   1.821   2.339   2.466 -0.4409 -0.0302 -0.6484
  917MOL0     C23671   1.817   2.453   2.574  0.0961  0.5555 -0.0394
  917MOL0     C23672   1.742   2.402   2.698  0.1208  0.8658 -0.5072
  917MOL0     C23673   1.732   2.513   2.814  0.4279  0.6735  0.5599
  917MOL0     C23674   1.618   2.610   2.775 -0.1510  0.0550 -0.8082
  917MOL0     C23675   1.568   2.700   2.888  0.2421  0.8816 -0.4602
  917MOL0     C23676   1.490   2.812   2.824  0.5755  0.1391 -0.3361
  917MOL0     N23677   1.362   2.785   2.752  0.5696  0.1974 -0.4329
  917MOL0     C23678   1.242   2.757   2.813 -0.8242 -0.8623 -0.1390
  917MOL0     C23679   1.154   2.767   2.712 -0.3862  0.4452 -0.8207
  917MOL0     C23680   1.002   2.762   2.734  0.2137 -0.2599 -0.5173
  917MOL0     C23681   0.959   2.891   2.819 -0.7641  1.9340 -0.8206
  917MOL0     C23682   0.952   3.018   2.737 -0.1838  0.5935  0.1809
  917MOL0     C23683   0.994   3.146   2.813  0.6006  0.5358  0.4575
  917MOL0     O23684   0.889   3.167   2.905  0.0877  0.5095  0.8017
  917MOL0     C23685   0.772   3.196   2.841  0.1389 -0.9190  0.6593
  917MOL0     C23686   0.753   3.295   2.731  0.0841  0.0839 -0.8511
  917MOL0     C23687   0.636   3.326   2.666 -0.2897 -0.0173  0.8487
  917MOL0     C23688   0.651   3.437   2.560  0.0880 -0.1237 -0.0604
  917MOL0     C23689   0.523   3.257   2.696  0.0565  1.2445 -0.2732
  917MOL0     C23690   0.390   3.279   2.640  0.4498  1.0230 -0.4508
  917MOL0     O23691   0.280   3.267   2.718  0.2032  0.3805 -0.8233
  917MOL0     C23692   0.147   3.264   2.664 -0.3120  0.5721 -0.3887
  917MOL0     C23693   0.058   3.173   2.721 -0.6249  0.0941  0.4149
  917MOL0     C23694  -0.076   3.175   2.698 -0.1356  0.8066  0.0450
  917MOL0     C23695  -0.127   3.267   2.609 -0.4723 -0.3003  0.3375
  917MOL0     O23696  -0.252   3.282   2.558  0.5032  0.0161 -0.5837
  917MOL0     C23697  -0.364   3.242   2.634 -0.7256 -0.0404 -0.0391
  917MOL0     C23698  -0.485   3.181   2.549  0.5987 -0.4775  0.5903
  917MOL0     C23699  -0.576   3.294   2.486 -0.1668 -0.0875  0.8942
  917MOL0     C23700  -0.520   3.325   2.344  0.1291 -0.0298 -0.8137
  917MOL0     C23701  -0.586   3.452   2.294  1.2259 -0.1865  0.5029
  917MOL0     C23702  -0.527   3.477   2.158  0.9123  0.0423 -0.3492
  917MOL0     C23703  -0.611   3.579   2.088 -0.4653  0.8986  0.6603
  917MOL0     C23704  -0.751   3.546   2.044  0.4548  0.4749 -1.2214
  917MOL0    Cl23705  -0.799   3.658   1.906 -0.1626  0.6604 -0.2587
  917MOL0     C23706  -0.036   3.349   2.543  0.2539  0.6679 -0.2813
  917MOL0     C23707   0.097   3.343   2.564 -0.1718 -1.4260  0.9538
  917MOL0     O23708   0.383   3.311   2.523  0.6981  0.2496  0.4764
  917MOL0     C23709   0.536   3.170   2.812  0.3923 -0.8976 -0.1063
  917MOL0     C23710   0.654   3.140   2.873 -0.9324 -0.2364 -0.5336
  917MOL0     N23711   1.212   2.788   2.594 -0.2056  0.2413 -1.0845
  917MOL0     N23712   1.341   2.798   2.621  0.5467  0.5534  0.0294
  917MOL0     C23713   2.008   2.273   1.994  0.9236 -0.9168 -1.3716
  917MOL0     C23714   2.055   2.343   1.880 -0.6161  0.2989  0.1071
  917MOL0     C23715   2.308   2.643   1.632  0.0157 -0.4279  0.9655
  917MOL0     C23716   2.206   2.670   1.536 -0.0143 -0.3830  0.6206
  917MOL0     C23717   2.232   2.762   1.434  0.3677 -0.1656 -0.1492
  917MOL0     C23718   2.353   2.826   1.425 -0.5413 -0.2055  0.2213
  917MOL0     O23719   2.365   2.917   1.322 -0.3259 -0.3245 -0.0120
  917MOL0     C23720   2.348   3.055   1.348 -0.7438  0.6588 -0.2935
  917MOL0     C23721   2.200   3.086   1.327  0.2805 -0.7728 -0.2279
  917MOL0     C23722   2.172   3.232   1.290 -0.1014  0.7241  0.4063
  917MOL0     C23723   2.234   3.334   1.385  0.8531 -0.1358  0.0243
  917MOL0     C23724   2.224   3.466   1.339 -0.3354 -0.0090 -0.1092
  917MOL0     C23725   2.210   3.586   1.317  0.4133  0.4853 -0.7922
  917MOL0     C23726   2.462   2.789   1.511 -0.2234  0.3544  0.2116
  917MOL0     C23727   2.433   2.697   1.615 -0.6361 -0.6075 -0.3387
  917MOL0     H23728   2.078   2.658   1.988 -1.4281 -0.1616 -2.3159
  917MOL0     H23729   1.993   2.563   2.186  3.1598 -1.2852  2.2236
  917MOL0     H23730   1.977   2.445   2.376 -1.0855  0.3346  2.5991
  917MOL0     H23731   1.812   2.448   2.293 -1.1660  0.6561  1.9638
  917MOL0     H23732   1.718   2.307   2.446 -0.9063  1.3216 -0.5219
  917MOL0     H23733   1.871   2.251   2.508 -1.3375  0.0433  0.6119
  917MOL0     H23734   1.917   2.491   2.600  1.5839 -2.5200 -0.7989
  917MOL0     H23735   1.759   2.536   2.533 -3.1533 -2.2569 -1.6498
  917MOL0     H23736   1.653   2.349   2.663  2.1167 -1.8710 -1.7792
  917MOL0     H23737   1.798   2.324   2.749  0.4585  2.8447  2.4045
  917MOL0     H23738   1.701   2.465   2.907  0.4994 -1.7635 -0.5751
  917MOL0     H23739   1.823   2.574   2.820  2.1593 -1.5910 -0.7900
  917MOL0     H23740   1.649   2.676   2.693 -0.3127  0.2999 -0.6718
  917MOL0     H23741   1.534   2.543   2.751  1.1697 -2.7002  1.6077
  917MOL0     H23742   1.495   2.651   2.954  0.4123  2.1195  0.6770
  917MOL0     H23743   1.647   2.742   2.951  1.2838  0.2271 -1.3029
  917MOL0     H23744   1.544   2.885   2.763 -1.8016  1.7512 -0.6694
  917MOL0     H23745   1.467   2.876   2.910 -1.4084  2.6767 -2.5652
  917MOL0     H23746   1.225   2.739   2.919  3.0983 -0.4607  0.7032
  917MOL0     H23747   0.964   2.748   2.633 -0.3552 -2.5707 -0.0437
  917MOL0     H23748   0.982   2.664   2.779 -0.3805 -0.8077 -1.9040
  917MOL0     H23749   1.045   2.901   2.885  0.1909  0.4705 -1.7904
  917MOL0     H23750   0.868   2.882   2.879 -0.3960  1.2241 -0.3581
  917MOL0     H23751   0.850   3.025   2.698  0.6101 -0.0005 -2.1732
  917MOL0     H23752   1.008   3.006   2.644 -1.5612 -1.6544 -0.4232
  917MOL0     H23753   1.003   3.233   2.747  0.4476  0.6953  0.6460
  917MOL0     H23754   1.088   3.129   2.866 -0.2551 -0.2277  1.7794
  917MOL0     H23755   0.834   3.360   2.701  1.9929 -2.1509 -0.8207
  917MOL0     H23756   0.559   3.462   2.506 -0.3608 -0.3115  0.6076
  917MOL0     H23757   0.666   3.519   2.630  0.1964 -1.7964  1.9526
  917MOL0     H23758   0.743   3.434   2.501 -0.1988 -0.7910 -0.4907
  917MOL0     H23759   0.094   3.098   2.790  3.0334 -0.5956 -1.9558
  917MOL0     H23760  -0.146   3.106   2.746 -0.8771  0.2737 -1.7397
  917MOL0     H23761  -0.343   3.162   2.705 -1.4162 -3.1303 -3.0837
  917MOL0     H23762  -0.402   3.330   2.688 -0.4246 -1.1335  2.0378
  917MOL0     H23763  -0.447   3.111   2.473  0.2170  0.7374 -0.7780
  917MOL0     H23764  -0.548   3.137   2.626  1.8124 -0.5200  1.5903
  917MOL0     H23765  -0.566   3.390   2.539 -1.0707 -0.0482  1.0136
  917MOL0     H23766  -0.679   3.259   2.474 -1.4807  3.9192 -1.8901
  917MOL0     H23767  -0.412   3.341   2.355 -0.1708  0.4424  2.2764
  917MOL0     H23768  -0.538   3.237   2.280  2.1172 -0.3811 -0.9629
  917MOL0     H23769  -0.565   3.537   2.360 -0.1060  1.0788 -0.6402
  917MOL0     H23770  -0.694   3.436   2.287  1.2620  0.1320 -2.3558
  917MOL0     H23771  -0.428   3.523   2.167  0.8212  0.0496  0.8720
  917MOL0     H23772  -0.534   3.384   2.100  3.1422  0.8400 -2.0345
  917MOL0     H23773  -0.551   3.605   2.000 -0.1244 -2.9838 -0.4153
  917MOL0     H23774  -0.622   3.671   2.147 -2.9668  1.5138 -0.6167
  917MOL0     H23775  -0.817   3.554   2.131 -0.1604 -4.3420 -0.9816
  917MOL0     H23776  -0.764   3.442   2.014  0.0459  1.5777 -5.5983
  917MOL0     H23777  -0.077   3.427   2.480  1.6539  0.9183 -0.9122
  917MOL0     H23778   0.164   3.404   2.504  0.4784 -0.5599  2.4898
  917MOL0     H23779   0.440   3.132   2.847 -1.1288  2.2414 -0.5325
  917MOL0     H23780   0.658   3.066   2.952 -0.0597  0.9904  0.6318
  917MOL0     H23781   1.993   2.166   1.986  1.3908 -0.8950 -2.7126
  917MOL0     H23782   2.054   2.279   1.792 -2.1972  0.4461 -0.0168
  917MOL0     H23783   2.106   2.629   1.541 -0.4110  0.6848  2.1087
  917MOL0     H23784   2.150   2.761   1.363 -1.5655  1.5442  1.8983
  917MOL0     H23785   2.376   3.079   1.451  0.8253 -0.6446 -0.3800
  917MOL0     H23786   2.409   3.114   1.280  3.4716  1.3485  3.5946
  917MOL0     H23787   2.145   3.059   1.418  1.4429  3.1859  1.8899
  917MOL0     H23788   2.173   3.017   1.247  0.6375 -0.8492 -0.2808
  917MOL0     H23789   2.064   3.250   1.279 -0.1421 -0.4312 -1.5223
  917MOL0     H23790   2.211   3.259   1.192 -0.4775  1.7168  0.5134
  917MOL0     H23791   2.340   3.309   1.395  0.4792 -2.0825 -0.5399
  917MOL0     H23792   2.187   3.333   1.483  1.6638  0.8394  0.4427
  917MOL0     H23793   2.209   3.691   1.297 -1.8813  1.5640  3.6765
  917MOL0     H23794   2.555   2.844   1.519 -1.7610  3.2466 -0.2921
  917MOL0     H23795   2.512   2.679   1.687 -1.3544  1.0554  0.9137
  918MOL0     O23796  11.024   9.314  10.694 -0.0684 -0.2369  0.2193
  918MOL0     C23797  11.062   9.412  10.753  0.0272 -0.5316 -0.3672
  918MOL0     O23798  10.987   9.518  10.781 -0.2518  0.3035  0.5800
  918MOL0     C23799  10.851   9.527  10.741 -1.0451 -1.5461  0.3803
  918MOL0     C23800  10.803   9.645  10.671 -1.0998  0.1617 -0.2835
  918MOL0     C23801  10.672   9.667  10.639  0.3160 -1.3918 -0.3262
  918MOL0     C23802  10.571   9.581  10.673 -0.0293 -0.7276  1.6250
  918MOL0     O23803  10.445   9.597  10.610 -0.4268  0.0764  0.2780
  918MOL0     C23804  10.334   9.534  10.674  0.1121 -0.1144  0.1672
  918MOL0     C23805  10.197   9.586  10.621 -0.3090  1.1938 -0.1381
  918MOL0     C23806  10.202   9.730  10.584 -0.5958  1.0040 -0.3823
  918MOL0     C23807  10.063   9.773  10.535 -0.3079 -0.1577 -0.2938
  918MOL0     C23808  10.046   9.923  10.500 -0.6087 -0.1260 -0.3442
  918MOL0     C23809  10.082  10.013  10.606 -0.1592 -0.8668 -0.2054
  918MOL0     C23810  10.071  10.161  10.564 -0.9931 -0.7577  0.8821
  918MOL0     C23811   9.937  10.201  10.515  0.0062  0.9447  0.2380
  918MOL0     N23812   9.823  10.183  10.612 -0.4437  0.5659 -0.4127
  918MOL0     C23813   9.699  10.145  10.562 -1.1256  1.0808  0.9751
  918MOL0     C23814   9.618  10.149  10.669  0.3462 -0.6691  0.2761
  918MOL0     C23815   9.467  10.105  10.689 -0.5325 -0.3816 -0.8618
  918MOL0     C23816   9.381  10.206  10.772 -0.4692 -0.4449  0.3432
  918MOL0     C23817   9.424  10.233  10.923  0.5837 -0.7798  0.6320
  918MOL0     C23818   9.353  10.355  10.975 -0.8955 -0.5287  0.3912
  918MOL0     O23819   9.391  10.484  10.916  0.2639 -0.1881  0.5558
  918MOL0     C23820   9.507  10.541  10.957 -0.2537  0.9592 -0.5418
  918MOL0     C23821   9.615  10.545  10.860  0.3106 -0.0919 -0.1952
  918MOL0     C23822   9.749  10.595  10.896  0.6249 -0.8043 -0.7805
  918MOL0     C23823   9.868  10.573  10.810 -0.4129 -0.1828  0.3150
  918MOL0     C23824   9.756  10.652  11.024  0.6329 -0.4223  1.3435
  918MOL0     C23825   9.877  10.726  11.079  1.1154  1.2208  0.9895
  918MOL0     O23826  10.004  10.676  11.069 -0.1883  0.4981  0.5098
  918MOL0     C23827  10.111  10.737  11.135  0.9684 -0.3755  0.0956
  918MOL0     C23828  10.101  10.775  11.267 -0.6994 -1.0755 -0.2769
  918MOL0     C23829  10.211  10.833  11.339 -0.2836  0.4645  0.5307
  918MOL0     C23830  10.325  10.843  11.264 -0.3107  0.3656  0.4728
  918MOL0     O23831  10.427  10.920  11.317 -0.3475  0.5194 -0.2210
  918MOL0     C23832  10.413  11.055  11.316 -0.3966 -0.2515 -0.4379
  918MOL0     C23833  10.546  11.137  11.303 -0.7368 -0.0893 -0.6535
  918MOL0     C23834  10.607  11.197  11.429  0.0546 -0.3434 -0.6219
  918MOL0     C23835  10.715  11.301  11.398 -0.4651  0.6331 -0.0995
  918MOL0     C23836  10.770  11.366  11.523  0.6321  0.5878  0.5606
  918MOL0     C23837  10.841  11.271  11.626 -1.1051 -0.0167 -0.3897
  918MOL0     C23838  10.952  11.339  11.711 -0.5649  0.1618  0.3389
  918MOL0     C23839  11.011  11.256  11.829  0.8460 -1.2385 -1.0752
  918MOL0    Cl23840  10.875  11.229  11.935  0.2520 -0.1844 -0.4701
  918MOL0     C23841  10.343  10.782  11.139  0.1934  0.4894  0.3485
  918MOL0     C23842  10.232  10.729  11.070 -0.5146  0.2250 -1.0677
  918MOL0     O23843   9.849  10.832  11.137  0.0120 -0.9942 -0.5698
  918MOL0     C23844   9.649  10.648  11.115 -0.4868 -0.1023 -0.1488
  918MOL0     C23845   9.529  10.584  11.085  1.8680 -0.3665 -0.4884
  918MOL0     N23846   9.693  10.184  10.783  0.2010  1.2483  0.2618
  918MOL0     N23847   9.810  10.216  10.742  1.1178 -0.1833 -0.0570
  918MOL0     C23848  10.613   9.466  10.737  0.3746 -1.0076 -0.1507
  918MOL0     C23849  10.750   9.444  10.775 -0.5527 -0.2367  0.4899
  918MOL0     C23850  11.203   9.410  10.800 -0.1954 -0.4830  0.4653
  918MOL0     C23851  11.270   9.530  10.841 -0.0190 -0.3625 -0.8566
  918MOL0     C23852  11.396   9.517  10.899 -0.7980 -0.2775 -0.1859
  918MOL0     C23853  11.465   9.399  10.895  0.4938  0.9439  0.0304
  918MOL0     O23854  11.589   9.405  10.944  0.0159  0.0567  0.0849
  918MOL0     C23855  11.683   9.499  10.890  0.4747  0.5741 -0.8111
  918MOL0     C23856  11.795   9.406  10.864 -0.1852  0.2764 -0.7499
  918MOL0     C23857  11.926   9.483  10.824 -0.5441 -1.1524  0.2036
  918MOL0     C23858  12.004   9.385  10.732  1.1223 -0.3507  0.6628
  918MOL0     C23859  12.059   9.277  10.800  0.9865 -0.1127  0.2434
  918MOL0     C23860  12.118   9.182  10.851  0.2692 -0.1032  0.1017
  918MOL0     C23861  11.407   9.282  10.847 -0.6916 -0.3963  0.2955
  918MOL0     C23862  11.268   9.286  10.809 -0.9901  0.9786 -0.3478
  918MOL0     H23863  10.880   9.708  10.628  1.0485 -0.8692  1.8143
  918MOL0     H23864  10.648   9.753  10.578  1.7928 -1.1631 -0.6263
  918MOL0     H23865  10.348   9.426  10.659 -0.1733 -0.0863 -0.3363
  918MOL0     H23866  10.349   9.557  10.779 -0.0366 -2.0590  0.6533
  918MOL0     H23867  10.191   9.524  10.531 -0.8386 -0.7039  1.1383
  918MOL0     H23868  10.116   9.561  10.690 -1.9823 -0.6078 -2.5926
  918MOL0     H23869  10.224   9.776  10.681  1.1317  0.0450 -0.2758
  918MOL0     H23870  10.281   9.760  10.515 -0.5634 -0.6721 -1.1099
  918MOL0     H23871  10.025   9.708  10.455  0.3739 -2.8087  1.4240
  918MOL0     H23872   9.999   9.770  10.624 -0.6653 -0.5439 -0.5586
  918MOL0     H23873  10.106   9.929  10.410  0.2420 -2.7999 -0.0226
  918MOL0     H23874   9.940   9.941  10.480 -0.9142  1.1364  1.9872
  918MOL0     H23875  10.024   9.996  10.697 -0.4097  1.5304  0.1464
  918MOL0     H23876  10.187   9.991  10.627 -0.2313 -1.5089 -0.4837
  918MOL0     H23877  10.096  10.224  10.649  2.2222 -2.5111  1.3939
  918MOL0     H23878  10.141  10.183  10.483 -0.4431 -1.5530  1.1335
  918MOL0     H23879   9.908  10.152  10.422 -0.3122 -0.6987  1.1613
  918MOL0     H23880   9.948  10.308  10.494 -0.5757  1.0243  0.3334
  918MOL0     H23881   9.681  10.106  10.463  1.7508 -0.2787  0.8776
  918MOL0     H23882   9.425  10.112  10.588 -0.9979  3.7909 -0.5723
  918MOL0     H23883   9.461   9.998  10.712 -2.0733  0.5324  4.1436
  918MOL0     H23884   9.275  10.183  10.779 -0.7874 -1.4008 -4.5296
  918MOL0     H23885   9.394  10.290  10.702  0.8193 -1.4904 -0.7251
  918MOL0     H23886   9.531  10.252  10.936  0.1203  2.3847  0.3831
  918MOL0     H23887   9.396  10.142  10.978 -2.5062 -2.0419 -2.6133
  918MOL0     H23888   9.390  10.364  11.077  2.7636  1.9548 -0.9362
  918MOL0     H23889   9.249  10.322  10.982 -0.7344 -1.5530 -1.4052
  918MOL0     H23890   9.584  10.504  10.764 -4.8190  0.6999  0.8290
  918MOL0     H23891   9.959  10.629  10.836 -1.4161  3.1561 -2.6512
  918MOL0     H23892   9.897  10.468  10.811  0.2401 -0.0581 -1.8207
  918MOL0     H23893   9.838  10.612  10.713  1.8285  3.0985  0.7788
  918MOL0     H23894  10.007  10.764  11.320 -0.5888 -1.2176 -0.1098
  918MOL0     H23895  10.202  10.866  11.442 -1.3501 -1.7017  1.2162
  918MOL0     H23896  10.358  11.086  11.227 -0.1932  5.0123  0.8813
  918MOL0     H23897  10.367  11.096  11.407  0.6985  1.6910 -0.7035
  918MOL0     H23898  10.609  11.063  11.252  2.6892 -0.2393  3.3263
  918MOL0     H23899  10.533  11.230  11.246 -1.1286 -1.8915 -3.7209
  918MOL0     H23900  10.648  11.112  11.485  1.2327 -1.4389 -2.9565
  918MOL0     H23901  10.531  11.242  11.492 -1.2851 -2.1380 -0.8718
  918MOL0     H23902  10.794  11.247  11.346 -0.5285  1.6682 -1.2986
  918MOL0     H23903  10.688  11.379  11.327  0.9772  1.2842  0.0229
  918MOL0     H23904  10.690  11.422  11.573  0.3556  0.6152  0.0945
  918MOL0     H23905  10.837  11.442  11.481  1.6466 -0.8250 -0.4857
  918MOL0     H23906  10.775  11.210  11.688 -1.7683  0.7023 -0.3729
  918MOL0     H23907  10.894  11.199  11.563  1.2234  2.1838 -1.1024
  918MOL0     H23908  10.909  11.431  11.753 -2.0686  0.1084 -0.9748
  918MOL0     H23909  11.032  11.372  11.644  0.6248  1.1022  2.1301
  918MOL0     H23910  11.090  11.310  11.884 -2.9275  0.6238  3.1745
  918MOL0     H23911  11.055  11.162  11.794 -1.0513 -2.4609 -0.3151
  918MOL0     H23912  10.441  10.759  11.097 -0.8601 -3.1362 -0.4731
  918MOL0     H23913  10.239  10.678  10.975  0.2037  0.2906 -1.0527
  918MOL0     H23914   9.668  10.680  11.217  0.5027  1.7749 -0.8680
  918MOL0     H23915   9.450  10.570  11.158 -1.5904  1.4266 -3.5026
  918MOL0     H23916  10.546   9.383  10.758  0.1287 -0.5441  0.9453
  918MOL0     H23917  10.778   9.349  10.821  2.1418 -0.2188 -0.8990
  918MOL0     H23918  11.222   9.627  10.833 -1.9089 -1.2588 -0.9237
  918MOL0     H23919  11.444   9.600  10.950 -0.5217 -1.2360  1.1412
  918MOL0     H23920  11.665   9.541  10.790  5.9565  1.9410 -1.5735
  918MOL0     H23921  11.709   9.578  10.961 -2.1528 -0.3948  1.3737
  918MOL0     H23922  11.766   9.337  10.785  3.1403 -0.7666 -1.2461
  918MOL0     H23923  11.819   9.359  10.960  0.4833  2.4317  0.2058
  918MOL0     H23924  11.971   9.515  10.918 -0.9216  2.1058 -0.5894
  918MOL0     H23925  11.905   9.575  10.770 -2.5977 -2.1860 -0.8637
  918MOL0     H23926  12.078   9.449  10.683 -2.1279  3.5877  0.2639
  918MOL0     H23927  11.928   9.347  10.663  0.3251 -2.2144  2.4559
  918MOL0     H23928  12.167   9.101  10.901  0.7934  0.4128  0.4384
  918MOL0     H23929  11.459   9.187  10.857  1.0779  0.5731  0.6199
  918MOL0     H23930  11.220   9.192  10.783 -0.2580 -0.8845  4.1846
  919MOL0     O23931   8.782   7.795  11.218 -0.3554 -0.0646  0.7205
  919MOL0     C23932   8.779   7.744  11.329  0.7100  0.0520 -0.4269
  919MOL0     O23933   8.698   7.780  11.436 -0.1920 -0.0744 -0.0799
  919MOL0     C23934   8.591   7.863  11.409  0.7601 -0.2955 -0.4634
  919MOL0     C23935   8.597   8.002  11.380  1.3819 -0.6359  0.7584
  919MOL0     C23936   8.475   8.073  11.348  0.2230  0.4600  0.2432
  919MOL0     C23937   8.351   8.010  11.356 -0.2916  0.5838 -0.6720
  919MOL0     O23938   8.226   8.073  11.335 -0.8148  0.9958 -0.4172
  919MOL0     C23939   8.223   8.210  11.336  0.7514 -0.0531 -0.0083
  919MOL0     C23940   8.085   8.263  11.273 -0.4217  0.6315 -0.6431
  919MOL0     C23941   8.070   8.229  11.123 -0.2496 -0.2981 -1.0804
  919MOL0     C23942   7.988   8.344  11.066 -0.8069  0.3824 -0.2316
  919MOL0     C23943   7.940   8.305  10.934  0.6387 -0.0444 -0.0588
  919MOL0     C23944   7.890   8.417  10.851  1.1378  0.3677  0.3150
  919MOL0     C23945   7.991   8.516  10.798  1.0794 -0.4111  0.5818
  919MOL0     C23946   7.918   8.605  10.697  0.1635  0.4146  0.1229
  919MOL0     N23947   8.017   8.677  10.630 -0.2374  0.9378  0.5425
  919MOL0     C23948   8.074   8.638  10.516 -0.0807  0.7655 -0.8075
  919MOL0     C23949   8.158   8.727  10.478  0.5241 -0.2668 -0.3606
  919MOL0     C23950   8.225   8.718  10.343 -0.4365 -0.6919 -1.0583
  919MOL0     C23951   8.378   8.742  10.358  0.0553 -1.3151  0.5223
  919MOL0     C23952   8.445   8.738  10.224  0.3788 -0.4052  0.7130
  919MOL0     C23953   8.592   8.777  10.227  0.9089 -0.9108 -0.3331
  919MOL0     O23954   8.635   8.784  10.096  0.3794  0.1014  0.3957
  919MOL0     C23955   8.723   8.702  10.041 -0.6306 -0.1272  0.2503
  919MOL0     C23956   8.846   8.670  10.105 -0.2282 -0.0821  0.4726
  919MOL0     C23957   8.938   8.598  10.019  0.3812 -0.0502  0.4427
  919MOL0     C23958   9.061   8.562  10.094 -0.1826 -1.5244 -0.4690
  919MOL0     C23959   8.905   8.548   9.892 -0.0168 -0.4675  0.4866
  919MOL0     C23960   8.985   8.457   9.811 -0.7123  0.6410 -0.6696
  919MOL0     O23961   9.116   8.433   9.846 -0.1294  0.3762 -0.0948
  919MOL0     C23962   9.178   8.344   9.759 -0.0323 -0.5964 -0.4891
  919MOL0     C23963   9.247   8.394   9.653 -0.3651 -0.0973 -0.1578
  919MOL0     C23964   9.286   8.310   9.546  0.9950 -0.1615 -0.0180
  919MOL0     C23965   9.282   8.173   9.560  0.0950 -0.3903 -0.9048
  919MOL0     O23966   9.329   8.108   9.455 -0.2117  0.3470  0.5178
  919MOL0     C23967   9.301   7.966   9.464  0.6552  0.2780  1.0354
  919MOL0     C23968   9.353   7.880   9.342 -0.3135 -0.1720  0.9808
  919MOL0     C23969   9.271   7.933   9.229  0.1123 -0.1888  1.0675
  919MOL0     C23970   9.122   7.894   9.242 -0.3496  0.0543  0.0197
  919MOL0     C23971   9.097   7.740   9.268  0.0476  0.7269  0.2878
  919MOL0     C23972   9.153   7.637   9.170 -0.1519  0.8603  0.0561
  919MOL0     C23973   9.128   7.668   9.018 -0.6248 -0.1235  0.0328
  919MOL0     C23974   9.159   7.549   8.928 -0.1109 -0.3399 -0.8302
  919MOL0    Cl23975   9.116   7.594   8.768  0.5303  0.0784 -0.2439
  919MOL0     C23976   9.232   8.121   9.676 -0.3609 -0.3153  0.0751
  919MOL0     C23977   9.184   8.208   9.776 -0.0812  0.6915  0.7694
  919MOL0     O23978   8.930   8.397   9.722 -0.5462  0.7682  1.0391
  919MOL0     C23979   8.776   8.568   9.846 -0.1096 -0.2960  0.1779
  919MOL0     C23980   8.687   8.650   9.913 -1.1100 -0.6889 -0.3183
  919MOL0     N23981   8.157   8.826  10.577 -0.9903 -0.0307 -0.0258
  919MOL0     N23982   8.070   8.802  10.670 -0.0515  0.9654 -0.4243
  919MOL0     C23983   8.349   7.874  11.406  1.3203  0.6048 -0.2884
  919MOL0     C23984   8.468   7.798  11.435 -0.6183  0.2048  1.2509
  919MOL0     C23985   8.853   7.624  11.341  0.3125  0.5863  0.5975
  919MOL0     C23986   8.834   7.538  11.439 -0.2636 -0.0410 -0.5333
  919MOL0     C23987   8.904   7.409  11.442 -0.1499 -0.6527  0.1367
  919MOL0     C23988   8.988   7.366  11.333  0.1899 -0.1591  0.5695
  919MOL0     O23989   9.044   7.250  11.315 -0.0364  0.1012 -0.2105
  919MOL0     C23990   9.051   7.148  11.420 -0.0952 -0.1814 -0.3322
  919MOL0     C23991   9.131   7.037  11.346  0.3558 -0.1133  0.1818
  919MOL0     C23992   9.042   6.962  11.245 -0.2035 -0.5848 -0.3786
  919MOL0     C23993   9.108   6.865  11.147  0.6998 -0.7163  0.4061
  919MOL0     C23994   9.158   6.748  11.214  0.2266  0.4772 -0.4250
  919MOL0     C23995   9.186   6.655  11.282  0.0165 -0.5032 -0.1324
  919MOL0     C23996   9.001   7.463  11.234  0.6156  0.1346  0.5946
  919MOL0     C23997   8.946   7.587  11.239  0.8029 -0.0243  0.6068
  919MOL0     H23998   8.688   8.059  11.367  0.1934  1.2501  0.3611
  919MOL0     H23999   8.485   8.174  11.309 -0.2788 -0.2145 -1.7480
  919MOL0     H24000   8.219   8.253  11.436  1.7780  1.3598 -0.5448
  919MOL0     H24001   8.314   8.255  11.295  3.0589 -2.8445  1.6168
  919MOL0     H24002   7.998   8.216  11.320 -0.4611  0.2721 -1.0675
  919MOL0     H24003   8.087   8.371  11.291 -0.1297  0.4669  0.4232
  919MOL0     H24004   8.165   8.209  11.073  0.0301 -1.0614 -0.2770
  919MOL0     H24005   8.025   8.130  11.107  0.6693 -0.1291 -7.7432
  919MOL0     H24006   7.904   8.380  11.127 -1.5926  1.0188 -1.6338
  919MOL0     H24007   8.052   8.432  11.053 -0.6173 -0.0558 -2.9617
  919MOL0     H24008   8.016   8.256  10.873 -0.8547  1.1539 -3.1087
  919MOL0     H24009   7.855   8.241  10.959  2.4133 -2.0741  1.0482
  919MOL0     H24010   7.825   8.371  10.776 -0.9637  0.9772  1.6901
  919MOL0     H24011   7.830   8.482  10.915 -0.4285 -1.4461  0.7641
  919MOL0     H24012   8.034   8.577  10.878  1.5658 -0.6411  0.4977
  919MOL0     H24013   8.072   8.466  10.745  1.5081 -0.1895  1.0216
  919MOL0     H24014   7.845   8.664  10.752 -1.8358 -0.6818 -1.2198
  919MOL0     H24015   7.853   8.550  10.629 -2.5247  1.4285  1.7220
  919MOL0     H24016   8.051   8.556  10.450 -0.8225  1.9944 -2.1371
  919MOL0     H24017   8.207   8.619  10.299 -0.1405 -1.1426 -0.1943
  919MOL0     H24018   8.189   8.796  10.276  0.9797 -0.2186 -1.2982
  919MOL0     H24019   8.433   8.662  10.408  1.5271 -0.7667 -0.1736
  919MOL0     H24020   8.391   8.829  10.423  0.1066 -2.5108  2.1806
  919MOL0     H24021   8.397   8.805  10.152  0.0907 -2.4213 -1.0426
  919MOL0     H24022   8.460   8.637  10.187  1.7046  1.1741 -3.7268
  919MOL0     H24023   8.652   8.700  10.277 -1.2140 -2.5717 -0.2036
  919MOL0     H24024   8.604   8.865  10.291 -0.2729 -1.8500  1.2493
  919MOL0     H24025   8.875   8.713  10.200 -0.3589  3.9486 -1.1187
  919MOL0     H24026   9.055   8.459  10.128  0.2089 -2.2648 -2.5116
  919MOL0     H24027   9.149   8.581  10.031  1.3968  1.7264  2.3751
  919MOL0     H24028   9.083   8.629  10.178 -0.5166  1.6102 -2.6660
  919MOL0     H24029   9.260   8.499   9.628 -0.6818  0.1023  0.4887
  919MOL0     H24030   9.345   8.351   9.465  1.1582 -1.0710 -0.3687
  919MOL0     H24031   9.351   7.930   9.555  0.7230  3.0475  2.2054
  919MOL0     H24032   9.193   7.958   9.472  0.4546 -0.7512 -1.7280
  919MOL0     H24033   9.455   7.917   9.324 -1.2996  2.3695  0.1973
  919MOL0     H24034   9.335   7.772   9.348 -0.6475 -0.2061 -0.3962
  919MOL0     H24035   9.312   7.904   9.132 -0.2374  0.5387  0.6898
  919MOL0     H24036   9.283   8.042   9.231 -0.4083 -0.1217  0.8064
  919MOL0     H24037   9.062   7.944   9.318 -1.3381 -0.8641 -0.1359
  919MOL0     H24038   9.086   7.914   9.141 -1.4799  0.3243  0.4686
  919MOL0     H24039   8.988   7.735   9.259  0.1335  0.4245 -0.6370
  919MOL0     H24040   9.138   7.704   9.363  4.4280 -1.3157 -2.1028
  919MOL0     H24041   9.258   7.618   9.193  0.4682 -0.0329 -2.9887
  919MOL0     H24042   9.106   7.541   9.193 -0.2492  0.9812  0.3586
  919MOL0     H24043   9.192   7.754   8.994 -1.0711  0.2557  0.1847
  919MOL0     H24044   9.023   7.697   9.006  0.3594  3.6125 -1.0761
  919MOL0     H24045   9.106   7.461   8.965  0.1001 -0.0378  0.2328
  919MOL0     H24046   9.262   7.514   8.933  0.6191  1.6704 -1.0588
  919MOL0     H24047   9.245   8.016   9.701  3.1378  0.0887  0.4454
  919MOL0     H24048   9.151   8.158   9.866  1.2528 -0.1005  0.8487
  919MOL0     H24049   8.724   8.523   9.762 -0.8311  0.3077  0.2888
  919MOL0     H24050   8.597   8.684   9.864  0.0635  0.8968 -1.4906
  919MOL0     H24051   8.254   7.828  11.434  0.8119  1.1679 -1.0283
  919MOL0     H24052   8.457   7.700  11.481 -0.2993 -0.8971 -0.9185
  919MOL0     H24053   8.756   7.564  11.510 -0.6671  0.4880 -1.1671
  919MOL0     H24054   8.877   7.345  11.526 -2.2821  2.2314  1.8644
  919MOL0     H24055   9.120   7.183  11.498  2.9272 -2.3878 -1.7731
  919MOL0     H24056   8.958   7.112  11.464 -0.4291  1.3725  0.3301
  919MOL0     H24057   9.171   6.972  11.424  0.6546  0.8727  0.8666
  919MOL0     H24058   9.217   7.073  11.289  0.6743  0.0976  0.7997
  919MOL0     H24059   9.001   7.040  11.181 -2.3537 -0.8543  0.5930
  919MOL0     H24060   8.953   6.916  11.288 -1.8406  0.4997 -2.4440
  919MOL0     H24061   9.174   6.937  11.097 -0.2990  2.0163  2.7606
  919MOL0     H24062   9.050   6.820  11.066  1.4285  0.8480 -1.0415
  919MOL0     H24063   9.220   6.563  11.326 -1.1320 -0.3868  1.0673
  919MOL0     H24064   9.062   7.451  11.145 -0.0785  0.6806  0.0301
  919MOL0     H24065   8.956   7.659  11.159  1.4695  1.6388  2.1252
  920MOL0     O24066   2.820   8.016   8.264  0.3290 -0.1250  0.2791
  920MOL0     C24067   2.875   7.909   8.244  0.3581  0.3333 -0.1067
  920MOL0     O24068   3.004   7.888   8.266 -0.1867 -0.2460 -0.7192
  920MOL0     C24069   3.093   7.996   8.237  0.5346  0.3235  0.8265
  920MOL0     C24070   3.218   7.979   8.302  0.4740  0.3359  0.1267
  920MOL0     C24071   3.323   8.073   8.284 -0.1015 -1.0830  0.6114
  920MOL0     C24072   3.306   8.181   8.200  0.2333 -0.0160 -0.5484
  920MOL0     O24073   3.417   8.255   8.188  0.1542 -0.0215  0.2396
  920MOL0     C24074   3.424   8.377   8.255 -0.1047 -0.4170 -0.0717
  920MOL0     C24075   3.571   8.431   8.246 -0.6843 -0.4337  0.3759
  920MOL0     C24076   3.676   8.312   8.265 -0.3411  0.2809  0.3557
  920MOL0     C24077   3.812   8.377   8.289 -0.6037  0.6101 -0.9537
  920MOL0     C24078   3.913   8.273   8.342 -0.6720  0.1022 -0.4417
  920MOL0     C24079   3.984   8.313   8.477  0.6199 -0.2049 -0.6984
  920MOL0     C24080   4.115   8.222   8.496 -0.3811 -0.7283  0.6173
  920MOL0     C24081   4.105   8.077   8.550 -1.2682 -0.1767 -0.0774
  920MOL0     N24082   4.031   8.075   8.675  0.1229  0.6846 -0.0591
  920MOL0     C24083   4.078   8.117   8.800 -0.0161 -0.2717 -0.0205
  920MOL0     C24084   3.982   8.095   8.889  0.0784  0.0880 -0.1475
  920MOL0     C24085   3.993   8.124   9.041  0.0427 -0.2993  0.3194
  920MOL0     C24086   3.859   8.145   9.118  0.1763 -0.9815 -0.1729
  920MOL0     C24087   3.872   8.132   9.269 -0.4309  0.3052  0.3899
  920MOL0     C24088   3.901   7.985   9.320  1.0116  0.1969  0.6344
  920MOL0     O24089   3.876   7.985   9.459 -0.9090  0.2753  0.6871
  920MOL0     C24090   3.870   7.865   9.526 -1.3062 -0.5159 -0.5419
  920MOL0     C24091   3.919   7.735   9.480  0.0917  0.2186  0.7310
  920MOL0     C24092   3.913   7.621   9.567 -0.2621  0.1544 -0.1551
  920MOL0     C24093   3.973   7.490   9.516 -0.2787  0.3012 -0.3342
  920MOL0     C24094   3.865   7.628   9.699  0.5665 -0.2376 -0.8360
  920MOL0     C24095   3.851   7.521   9.798  0.1307  0.0189  0.1942
  920MOL0     O24096   3.831   7.393   9.749  0.2727  0.2907 -0.0304
  920MOL0     C24097   3.849   7.277   9.823  0.0943  0.0234 -0.0229
  920MOL0     C24098   3.933   7.268   9.938 -0.1134 -0.3454  0.1856
  920MOL0     C24099   3.950   7.143  10.000  0.1631 -0.2061 -0.0832
  920MOL0     C24100   3.889   7.031   9.944 -1.1764 -0.0782  0.5942
  920MOL0     O24101   3.922   6.911   9.998  0.8913  0.1116 -0.0449
  920MOL0     C24102   3.827   6.804  10.018 -0.3472 -0.4768 -0.0711
  920MOL0     C24103   3.884   6.682   9.939  0.5553  0.3360 -0.4070
  920MOL0     C24104   4.025   6.634   9.978 -0.0735 -0.5885 -0.9809
  920MOL0     C24105   4.064   6.573  10.115 -0.7344 -0.3259  0.1818
  920MOL0     C24106   4.188   6.484  10.109 -0.6765 -0.4253  0.5970
  920MOL0     C24107   4.212   6.409  10.242  0.3720 -0.0164  0.2967
  920MOL0     C24108   4.207   6.495  10.370  0.9594  0.2327  0.1769
  920MOL0     C24109   4.320   6.599  10.372 -0.5806 -0.5316 -0.1272
  920MOL0    Cl24110   4.475   6.505  10.405 -0.5760  0.1406 -0.4832
  920MOL0     C24111   3.823   7.037   9.823 -0.2613 -0.3029 -0.2292
  920MOL0     C24112   3.791   7.162   9.765 -0.2188  0.2309 -0.3017
  920MOL0     O24113   3.837   7.557   9.911 -0.0313  0.9712 -0.4981
  920MOL0     C24114   3.815   7.757   9.736 -0.2539  0.1439 -0.0103
  920MOL0     C24115   3.822   7.871   9.654 -0.4125  0.2028  0.0436
  920MOL0     N24116   3.874   8.033   8.822 -0.8437  0.4475 -0.5914
  920MOL0     N24117   3.901   8.032   8.702  0.6794 -0.7077  0.9604
  920MOL0     C24118   3.186   8.197   8.137 -0.0764  0.3321 -0.4604
  920MOL0     C24119   3.078   8.100   8.146 -0.5476 -0.8722 -0.0777
  920MOL0     C24120   2.799   7.792   8.205 -0.9333  0.4087 -0.5473
  920MOL0     C24121   2.831   7.660   8.253  1.1471  0.2559 -0.6441
  920MOL0     C24122   2.752   7.547   8.230 -0.4694  0.2365 -0.1190
  920MOL0     C24123   2.655   7.553   8.128  0.0909 -0.1338  0.1244
  920MOL0     O24124   2.568   7.450   8.088  0.6172 -0.2954 -0.3260
  920MOL0     C24125   2.597   7.327   8.162  0.4958 -0.7929 -0.7984
  920MOL0     C24126   2.524   7.222   8.091  0.0318 -0.4631  0.4106
  920MOL0     C24127   2.577   7.079   8.130  0.1209 -0.1232 -1.0028
  920MOL0     C24128   2.474   6.966   8.124 -0.0392  0.0405 -0.0353
  920MOL0     C24129   2.505   6.854   8.219  0.7418 -0.5524  0.5261
  920MOL0     C24130   2.541   6.767   8.292  0.8451  0.3346 -0.3741
  920MOL0     C24131   2.629   7.679   8.077  0.0763  0.1697  0.9761
  920MOL0     C24132   2.688   7.806   8.117  0.1018 -0.2322  0.8584
  920MOL0     H24133   3.226   7.897   8.371  2.5181  0.8872  0.5833
  920MOL0     H24134   3.421   8.060   8.329 -0.0244 -0.8185  0.5198
  920MOL0     H24135   3.352   8.451   8.220  2.2216  1.1100 -1.9456
  920MOL0     H24136   3.397   8.375   8.361  0.1700 -1.3033 -0.0066
  920MOL0     H24137   3.596   8.494   8.161  3.4688  1.7206  2.8418
  920MOL0     H24138   3.597   8.502   8.325  0.3389 -2.2167  1.7213
  920MOL0     H24139   3.646   8.258   8.355 -0.5979 -0.0750  0.0594
  920MOL0     H24140   3.684   8.248   8.177  0.8654 -0.5022  1.0120
  920MOL0     H24141   3.842   8.426   8.196  1.2442  2.3828  0.4928
  920MOL0     H24142   3.800   8.463   8.356  0.8094  1.4009 -1.6733
  920MOL0     H24143   3.875   8.171   8.353  1.7341 -1.1552 -2.5951
  920MOL0     H24144   3.988   8.266   8.263 -0.0823  1.0365  0.0185
  920MOL0     H24145   4.005   8.420   8.475 -0.3605  0.0174  0.0478
  920MOL0     H24146   3.915   8.290   8.559  0.6415 -4.3498 -1.6179
  920MOL0     H24147   4.174   8.226   8.404  3.1612 -2.7557  2.5694
  920MOL0     H24148   4.164   8.274   8.578 -0.4836 -3.5818  2.6599
  920MOL0     H24149   4.201   8.029   8.569 -1.8214 -1.7107 -0.9602
  920MOL0     H24150   4.043   8.023   8.478 -2.7610  2.1816 -0.6802
  920MOL0     H24151   4.177   8.154   8.826  0.0717 -2.1742  2.8733
  920MOL0     H24152   4.058   8.048   9.086 -0.2567  0.2881  1.7912
  920MOL0     H24153   4.053   8.214   9.046  0.1302 -0.3010 -0.5564
  920MOL0     H24154   3.775   8.080   9.090 -0.6568 -0.5769  1.2769
  920MOL0     H24155   3.827   8.247   9.092 -0.7877 -0.5635  2.3970
  920MOL0     H24156   3.780   8.165   9.320  0.3133  2.4196  0.4467
  920MOL0     H24157   3.946   8.202   9.308 -2.1251  1.6871  1.2947
  920MOL0     H24158   4.003   7.951   9.297  0.0990 -0.4459 -3.0770
  920MOL0     H24159   3.840   7.912   9.267  2.2482 -0.7971  0.5413
  920MOL0     H24160   3.969   7.735   9.383 -2.5167 -0.4667 -0.6952
  920MOL0     H24161   3.993   7.498   9.409 -0.9379 -0.3906 -0.5164
  920MOL0     H24162   4.065   7.450   9.558  1.3114  1.8595 -2.1583
  920MOL0     H24163   3.900   7.408   9.516  1.0461 -0.9697  2.0383
  920MOL0     H24164   3.976   7.359   9.978 -0.2199 -0.0813 -0.2932
  920MOL0     H24165   4.011   7.141  10.090 -1.8623 -0.9174  1.3510
  920MOL0     H24166   3.831   6.776  10.124 -0.0206 -0.1671  0.0002
  920MOL0     H24167   3.725   6.832   9.991 -0.0166 -0.8012 -1.8016
  920MOL0     H24168   3.805   6.608   9.924  0.6862  0.5280 -2.3054
  920MOL0     H24169   3.895   6.714   9.835  0.9899  0.0175 -0.4610
  920MOL0     H24170   4.090   6.722   9.972  0.5021 -0.9193  0.1196
  920MOL0     H24171   4.046   6.554   9.907 -0.6466 -3.3232  1.7080
  920MOL0     H24172   4.085   6.656  10.183 -0.1388 -1.0520  0.9009
  920MOL0     H24173   3.979   6.522  10.160  0.2575 -0.7135  1.6602
  920MOL0     H24174   4.276   6.541  10.078  0.7945 -1.0539  3.2956
  920MOL0     H24175   4.168   6.411  10.030  0.5084  1.7181 -1.8198
  920MOL0     H24176   4.135   6.332  10.251 -2.9656  3.3000  5.0018
  920MOL0     H24177   4.312   6.365  10.242  0.6456  0.5560  1.6259
  920MOL0     H24178   4.212   6.420  10.450  1.3537 -0.4107 -0.4319
  920MOL0     H24179   4.114   6.551  10.384  1.5704  0.5453  4.2637
  920MOL0     H24180   4.302   6.683  10.439  0.2030 -0.0794 -0.4643
  920MOL0     H24181   4.331   6.646  10.274 -1.8147 -0.2518 -0.1411
  920MOL0     H24182   3.794   6.940   9.783 -1.4111 -0.4098  0.8222
  920MOL0     H24183   3.724   7.162   9.680 -2.9507 -3.1592  1.6341
  920MOL0     H24184   3.765   7.781   9.830 -0.3586  2.6253 -0.6260
  920MOL0     H24185   3.794   7.964   9.702  0.4635  0.7732 -0.5212
  920MOL0     H24186   3.155   8.292   8.095 -1.1549  0.0691 -0.2990
  920MOL0     H24187   2.978   8.101   8.104 -0.2302 -1.0288 -0.8589
  920MOL0     H24188   2.926   7.634   8.299  1.5017  1.9474 -0.3517
  920MOL0     H24189   2.782   7.458   8.284 -0.5271  0.5331  0.4170
  920MOL0     H24190   2.706   7.318   8.163  0.4779 -0.9988 -0.1940
  920MOL0     H24191   2.566   7.337   8.266 -0.2950 -0.7380 -1.0331
  920MOL0     H24192   2.535   7.244   7.984 -2.6280 -0.0982  0.1326
  920MOL0     H24193   2.418   7.230   8.118  0.4415 -1.4107  2.4212
  920MOL0     H24194   2.603   7.084   8.236 -3.4071  2.0931 -0.0424
  920MOL0     H24195   2.672   7.056   8.081  0.5372 -0.2961 -0.1351
  920MOL0     H24196   2.476   6.931   8.020 -4.2894 -0.7795 -0.0191
  920MOL0     H24197   2.376   7.010   8.143  1.3599  2.7178  1.4805
  920MOL0     H24198   2.556   6.699   8.374  1.2987  0.9451  0.0549
  920MOL0     H24199   2.545   7.684   8.009  0.6470  1.9148  0.3425
  920MOL0     H24200   2.660   7.899   8.067 -3.2116 -1.6101 -0.1483
  921MOL0     O24201   2.893   6.813   1.983  0.1022  0.6310  0.3677
  921MOL0     C24202   2.964   6.776   2.072  0.7178 -0.1635  0.0407
  921MOL0     O24203   3.076   6.843   2.101  0.0373  0.3347  0.0046
  921MOL0     C24204   3.091   6.962   2.038 -0.8905 -0.6115  0.6660
  921MOL0     C24205   3.190   6.958   1.936 -0.1509  0.2217  0.2728
  921MOL0     C24206   3.205   7.070   1.852  0.6260  0.1076 -0.6054
  921MOL0     C24207   3.144   7.193   1.893  0.0778  0.9761  1.1095
  921MOL0     O24208   3.176   7.298   1.810  1.3381  0.4874 -0.5258
  921MOL0     C24209   3.116   7.434   1.835  0.1781 -0.8308  0.5166
  921MOL0     C24210   3.196   7.510   1.950 -0.1968  0.2096  1.0221
  921MOL0     C24211   3.132   7.639   1.981  0.1109  0.4072 -0.0475
  921MOL0     C24212   3.227   7.716   2.066  0.4178  0.1130  0.7210
  921MOL0     C24213   3.192   7.866   2.099  0.4156 -0.2005  0.0946
  921MOL0     C24214   3.311   7.926   2.182  0.8594  0.0764  0.4998
  921MOL0     C24215   3.269   8.074   2.216  0.0956  0.7736  1.1604
  921MOL0     C24216   3.310   8.104   2.357 -0.0583 -0.2007  0.0711
  921MOL0     N24217   3.261   8.242   2.397  0.4516 -0.4259 -0.4100
  921MOL0     C24218   3.134   8.264   2.446  0.3629 -0.1291 -1.0246
  921MOL0     C24219   3.111   8.392   2.448 -0.2619 -0.0219 -0.3888
  921MOL0     C24220   2.986   8.460   2.501  0.2269  0.1746 -0.7588
  921MOL0     C24221   2.859   8.368   2.493  0.0375 -0.1160  0.9878
  921MOL0     C24222   2.738   8.459   2.486 -0.9660  0.4183 -0.2027
  921MOL0     C24223   2.607   8.393   2.462 -0.7301  0.0390  0.2147
  921MOL0     O24224   2.597   8.365   2.321  0.1280 -0.3925 -0.3859
  921MOL0     C24225   2.484   8.299   2.276  0.6917 -0.2502  0.0488
  921MOL0     C24226   2.463   8.324   2.141 -0.0602 -0.7452 -0.6128
  921MOL0     C24227   2.341   8.283   2.073  0.2009 -1.0488 -0.1837
  921MOL0     C24228   2.320   8.333   1.933 -0.2756  0.1351  0.3501
  921MOL0     C24229   2.252   8.202   2.147  0.0963  0.0655  0.7591
  921MOL0     C24230   2.140   8.134   2.087  0.3562  0.7068 -0.0876
  921MOL0     O24231   2.027   8.147   2.168  0.3989  0.6515  0.8652
  921MOL0     C24232   1.903   8.081   2.149  0.6688  0.0181  0.1479
  921MOL0     C24233   1.862   8.004   2.036  0.2530 -1.1478  0.1848
  921MOL0     C24234   1.740   7.951   2.027 -0.1267  0.3821  0.4234
  921MOL0     C24235   1.650   7.959   2.138 -0.4393 -0.5968 -0.1645
  921MOL0     O24236   1.524   7.915   2.148 -0.1254 -0.0356  0.4199
  921MOL0     C24237   1.488   7.813   2.064  0.7034 -0.6964  0.4255
  921MOL0     C24238   1.335   7.780   2.101 -1.5810 -0.8974 -0.1163
  921MOL0     C24239   1.222   7.875   2.038 -0.3978  0.0186  0.9547
  921MOL0     C24240   1.226   8.022   2.087 -0.4524  0.1365  0.4118
  921MOL0     C24241   1.215   8.023   2.240  0.2740 -0.1630 -0.1854
  921MOL0     C24242   1.182   8.170   2.279 -0.1881  0.7348  0.0133
  921MOL0     C24243   1.164   8.165   2.427  0.2069 -0.7962  0.3557
  921MOL0     C24244   1.014   8.167   2.466  0.8697  1.0400  0.5588
  921MOL0    Cl24245   1.025   8.196   2.638 -0.2360  0.5926  0.3071
  921MOL0     C24246   1.695   8.026   2.254  0.2048 -0.7305  0.5404
  921MOL0     C24247   1.815   8.095   2.250 -0.3219  1.3963  0.6595
  921MOL0     O24248   2.151   8.060   1.986  0.0766 -0.1315  0.2319
  921MOL0     C24249   2.273   8.173   2.285 -1.1631 -0.7239 -0.2083
  921MOL0     C24250   2.396   8.219   2.346 -0.2037 -1.0629  0.3891
  921MOL0     N24251   3.226   8.451   2.402 -1.0110  0.7685  0.0879
  921MOL0     N24252   3.315   8.364   2.367  0.1062 -0.8317 -0.1184
  921MOL0     C24253   3.062   7.192   2.003 -0.0049 -0.1843 -0.4852
  921MOL0     C24254   3.019   7.075   2.069 -0.7488 -0.1437  0.1635
  921MOL0     C24255   2.922   6.674   2.171  0.1182 -0.3860  1.1660
  921MOL0     C24256   2.798   6.612   2.161 -0.0733  0.2421  0.1343
  921MOL0     C24257   2.745   6.539   2.266  0.2216  0.5290  0.3070
  921MOL0     C24258   2.818   6.510   2.378 -0.5030  0.1481 -0.5766
  921MOL0     O24259   2.767   6.438   2.490  0.3447  0.1364  0.6647
  921MOL0     C24260   2.846   6.371   2.587 -0.5448 -0.2402  0.4501
  921MOL0     C24261   2.800   6.417   2.725 -0.3058  0.3477 -0.8303
  921MOL0     C24262   2.796   6.571   2.745  0.4889  0.0823  0.2662
  921MOL0     C24263   2.810   6.601   2.905  0.8405  0.0292  0.0696
  921MOL0     C24264   2.809   6.739   2.945  0.4522 -0.6502 -0.2006
  921MOL0     C24265   2.824   6.853   2.966  0.3565 -0.1138  0.2464
  921MOL0     C24266   2.951   6.569   2.391  1.0557  0.6471  0.3672
  921MOL0     C24267   2.998   6.651   2.291 -0.8309  0.4207  1.2948
  921MOL0     H24268   3.249   6.868   1.924  1.2149  1.3991 -2.8037
  921MOL0     H24269   3.262   7.074   1.759  1.9221  2.2391  0.2223
  921MOL0     H24270   3.133   7.495   1.747 -2.7940  0.3247  0.6145
  921MOL0     H24271   3.007   7.442   1.840  0.1855  0.4185 -0.6690
  921MOL0     H24272   3.196   7.456   2.045 -0.2902  2.2976  2.2548
  921MOL0     H24273   3.297   7.528   1.912 -1.2838 -0.2209 -2.4719
  921MOL0     H24274   3.130   7.695   1.887 -0.0281  0.3719 -0.0655
  921MOL0     H24275   3.028   7.629   2.011 -0.1675 -0.4436 -1.2358
  921MOL0     H24276   3.236   7.664   2.162 -2.0436 -1.4218  0.1846
  921MOL0     H24277   3.329   7.721   2.025 -0.4492  2.0061 -1.4264
  921MOL0     H24278   3.182   7.933   2.013  3.1294  3.8429  2.6119
  921MOL0     H24279   3.097   7.868   2.153  0.3794  0.7864  0.0172
  921MOL0     H24280   3.314   7.866   2.274  1.3421 -2.2651 -0.9590
  921MOL0     H24281   3.403   7.901   2.129 -0.4820 -3.2556 -0.5982
  921MOL0     H24282   3.316   8.140   2.142 -2.4719  1.1456 -0.2820
  921MOL0     H24283   3.161   8.092   2.206  0.5564  2.6640 -1.6436
  921MOL0     H24284   3.420   8.111   2.357  0.0809 -1.9038  0.2391
  921MOL0     H24285   3.278   8.023   2.423  1.6913 -0.1866  0.9999
  921MOL0     H24286   3.062   8.193   2.483 -2.6988  3.6340  0.9875
  921MOL0     H24287   3.005   8.494   2.603  1.4785  0.4231 -1.0562
  921MOL0     H24288   2.964   8.557   2.456  0.7203  0.7726  0.2490
  921MOL0     H24289   2.865   8.288   2.568  2.8638 -2.2768 -1.2846
  921MOL0     H24290   2.864   8.322   2.394  0.6941  1.0581  0.4612
  921MOL0     H24291   2.761   8.520   2.399  0.0697 -0.3097 -0.4554
  921MOL0     H24292   2.733   8.534   2.566  0.0869  0.0720  0.2045
  921MOL0     H24293   2.515   8.447   2.485  1.3613  3.3745  1.3621
  921MOL0     H24294   2.603   8.294   2.509  1.4902  0.0584  0.5346
  921MOL0     H24295   2.531   8.388   2.085  0.7389  0.2985  1.4363
  921MOL0     H24296   2.387   8.268   1.875 -0.5511  1.1847 -1.2257
  921MOL0     H24297   2.220   8.321   1.892 -1.1258 -0.1051  2.3973
  921MOL0     H24298   2.339   8.440   1.914  0.0475  0.1416  0.6900
  921MOL0     H24299   1.937   7.994   1.958  1.3383  1.2039  0.8368
  921MOL0     H24300   1.729   7.902   1.930  0.9023  0.7903  0.0818
  921MOL0     H24301   1.491   7.841   1.958 -1.2832 -0.2496  0.4358
  921MOL0     H24302   1.546   7.720   2.069 -0.6216 -1.6145 -0.4997
  921MOL0     H24303   1.310   7.679   2.067 -1.8079 -0.7702 -0.3336
  921MOL0     H24304   1.325   7.781   2.210  0.7073  2.6794  0.2126
  921MOL0     H24305   1.122   7.833   2.053  0.7569 -3.2214  0.4700
  921MOL0     H24306   1.235   7.878   1.930 -3.5713 -2.0067  0.3772
  921MOL0     H24307   1.316   8.074   2.052 -0.3284 -0.8077 -0.7491
  921MOL0     H24308   1.149   8.090   2.050  0.3494  1.5450  1.2383
  921MOL0     H24309   1.309   7.993   2.287  0.2036  0.9835  0.7250
  921MOL0     H24310   1.144   7.947   2.272 -0.1282  0.3019  0.0378
  921MOL0     H24311   1.266   8.235   2.251  2.0956 -0.9284  2.5512
  921MOL0     H24312   1.085   8.196   2.236 -0.5832  1.0175  1.0686
  921MOL0     H24313   1.225   8.248   2.463  2.1887 -0.9212 -2.3683
  921MOL0     H24314   1.210   8.075   2.467  1.0200 -0.4554  0.2087
  921MOL0     H24315   0.961   8.079   2.428  1.9285  0.4613  0.3615
  921MOL0     H24316   0.956   8.245   2.416 -1.5470 -0.1764  1.3517
  921MOL0     H24317   1.631   8.041   2.341  1.5019  0.3194  1.3373
  921MOL0     H24318   1.844   8.159   2.333 -1.4576 -1.1940  3.2357
  921MOL0     H24319   2.208   8.109   2.344 -0.5296 -2.7228 -1.5550
  921MOL0     H24320   2.418   8.199   2.450  2.1142 -1.7210 -0.1836
  921MOL0     H24321   3.013   7.276   2.050 -2.1503 -1.7556  0.2513
  921MOL0     H24322   2.945   7.056   2.146  1.0986 -1.3948  1.7228
  921MOL0     H24323   2.735   6.626   2.074 -1.8923  0.9198  1.4911
  921MOL0     H24324   2.643   6.504   2.263  0.9121 -1.5610 -0.9036
  921MOL0     H24325   2.831   6.264   2.567 -0.1777  0.0687 -1.6722
  921MOL0     H24326   2.955   6.378   2.573 -0.8221  1.5104 -1.1566
  921MOL0     H24327   2.870   6.376   2.800  2.2139  1.2526 -2.5472
  921MOL0     H24328   2.698   6.380   2.723 -0.9257  1.8737  0.3767
  921MOL0     H24329   2.715   6.625   2.696  0.8383 -0.4409 -0.9103
  921MOL0     H24330   2.881   6.612   2.689 -1.9374  1.7568 -2.4363
  921MOL0     H24331   2.906   6.567   2.944  0.0082 -2.7480 -0.0793
  921MOL0     H24332   2.723   6.552   2.951 -1.5834 -0.0995 -4.1381
  921MOL0     H24333   2.838   6.958   2.984 -0.8342 -0.1903  1.9097
  921MOL0     H24334   3.016   6.544   2.474 -0.8348 -2.1014  1.1406
  921MOL0     H24335   3.093   6.702   2.301  1.1876 -2.2253 -2.1727
  922MOL0     O24336   6.099   0.328   9.198 -0.2404 -0.2639 -0.2122
  922MOL0     C24337   5.983   0.329   9.158 -0.8201  0.2779 -1.9186
  922MOL0     O24338   5.936   0.418   9.072  0.4438  0.0645 -0.3961
  922MOL0     C24339   5.996   0.536   9.040  0.0215 -0.9372  0.7201
  922MOL0     C24340   6.104   0.605   9.095  0.4933  0.0117  0.1777
  922MOL0     C24341   6.159   0.719   9.031 -0.5437 -0.6121  0.6133
  922MOL0     C24342   6.130   0.760   8.903  0.3597  0.4663  0.2972
  922MOL0     O24343   6.205   0.857   8.842  0.0664  1.0087 -0.0052
  922MOL0     C24344   6.344   0.827   8.839 -1.5620 -0.1103  0.4311
  922MOL0     C24345   6.424   0.916   8.745  0.4501  0.2760 -0.1248
  922MOL0     C24346   6.448   1.052   8.814  0.1093 -0.2211 -0.2340
  922MOL0     C24347   6.545   1.133   8.732 -0.4209  0.5282 -0.1779
  922MOL0     C24348   6.668   1.180   8.815  0.0923 -0.6322  0.2661
  922MOL0     C24349   6.762   1.068   8.868  0.4622 -0.0673  0.7967
  922MOL0     C24350   6.734   1.010   9.010 -0.1791  0.1292  0.1598
  922MOL0     C24351   6.863   0.964   9.073 -0.2679  0.5769 -0.0344
  922MOL0     N24352   6.959   1.061   9.106  0.2225 -0.9648 -0.4518
  922MOL0     C24353   6.927   1.179   9.171 -0.9435  1.7257  0.7003
  922MOL0     C24354   7.043   1.243   9.196  0.1180 -0.0759 -0.3690
  922MOL0     C24355   7.036   1.361   9.282  1.2018 -0.8379  0.7486
  922MOL0     C24356   7.138   1.344   9.389  0.5578 -0.1440  0.2177
  922MOL0     C24357   7.121   1.216   9.472 -0.3425  0.0785  0.0265
  922MOL0     C24358   7.001   1.213   9.558 -0.0040  0.6923  0.1045
  922MOL0     O24359   6.886   1.178   9.483 -0.0186  0.7500  0.2808
  922MOL0     C24360   6.766   1.171   9.561 -0.8299 -0.6374 -0.7752
  922MOL0     C24361   6.647   1.214   9.505 -0.1851 -0.0310  0.9896
  922MOL0     C24362   6.535   1.199   9.574  0.6653 -0.3099 -0.2544
  922MOL0     C24363   6.411   1.266   9.519  0.0494  0.1439 -0.5264
  922MOL0     C24364   6.536   1.115   9.692  0.8068  0.1275  0.5037
  922MOL0     C24365   6.415   1.081   9.768 -0.0578 -0.3033  1.0004
  922MOL0     O24366   6.411   0.949   9.814  0.3193 -0.0691 -0.6065
  922MOL0     C24367   6.335   0.907   9.921  0.0820 -0.8211 -0.0006
  922MOL0     C24368   6.278   0.780   9.907  0.2646  0.0686  0.0679
  922MOL0     C24369   6.204   0.726  10.015 -0.0014 -0.5444  1.1157
  922MOL0     C24370   6.179   0.802  10.131  0.7338  0.5779 -0.2108
  922MOL0     O24371   6.118   0.738  10.233  0.4169  0.1120 -0.1260
  922MOL0     C24372   6.042   0.810  10.335 -1.0432  0.1379 -0.1131
  922MOL0     C24373   5.912   0.861  10.268 -0.4036 -0.4952 -0.3654
  922MOL0     C24374   5.838   0.959  10.362  0.1523 -0.5155 -0.4805
  922MOL0     C24375   5.798   0.903  10.502 -0.4346  0.2294  0.5612
  922MOL0     C24376   5.733   1.008  10.583  0.4261 -0.2031  0.7216
  922MOL0     C24377   5.648   0.952  10.689 -0.4815 -0.7952  0.6670
  922MOL0     C24378   5.626   1.053  10.805 -0.5198 -0.7059 -0.2080
  922MOL0     C24379   5.556   0.979  10.926 -0.2278 -0.0675  0.0086
  922MOL0    Cl24380   5.377   0.979  10.875 -0.2265  0.1145 -0.2352
  922MOL0     C24381   6.217   0.936  10.131 -0.4781  0.3577 -0.2432
  922MOL0     C24382   6.302   0.989  10.028 -0.0406  0.0824  0.5826
  922MOL0     O24383   6.331   1.162   9.789  0.5434 -0.6086  0.4173
  922MOL0     C24384   6.654   1.065   9.747  0.4475 -0.0724 -0.1121
  922MOL0     C24385   6.774   1.092   9.683  0.3625 -0.4483  0.3286
  922MOL0     N24386   7.144   1.182   9.126 -0.0797 -0.1536 -0.1006
  922MOL0     N24387   7.095   1.069   9.082  0.0291  0.7156 -0.1252
  922MOL0     C24388   6.028   0.693   8.841 -0.2874  0.6350 -0.4249
  922MOL0     C24389   5.956   0.587   8.911  0.5255 -0.2956  0.2728
  922MOL0     C24390   5.888   0.227   9.208  0.1196 -0.3557  0.6630
  922MOL0     C24391   5.751   0.237   9.152 -0.4882  0.6045 -0.4191
  922MOL0     C24392   5.659   0.143   9.188 -0.0286  1.1016 -0.3625
  922MOL0     C24393   5.682   0.051   9.288  0.8094 -0.1547 -0.1819
  922MOL0     O24394   5.583  -0.022   9.342  0.2466  1.0092  0.5898
  922MOL0     C24395   5.463   0.051   9.357  0.4201  1.3160  0.4689
  922MOL0     C24396   5.353  -0.047   9.310 -0.6431 -0.1351 -0.1646
  922MOL0     C24397   5.322  -0.169   9.406  0.5647  0.3587 -0.4996
  922MOL0     C24398   5.186  -0.219   9.373  1.1535 -0.6767 -0.0437
  922MOL0     C24399   5.086  -0.120   9.429 -0.1355  0.2862 -0.0413
  922MOL0     C24400   5.011  -0.029   9.472  0.5781  0.4894 -0.5571
  922MOL0     C24401   5.805   0.056   9.353 -0.2213  1.1314  0.4413
  922MOL0     C24402   5.906   0.139   9.306  0.4347 -0.0781 -0.0434
  922MOL0     H24403   6.147   0.584   9.193  3.2621 -2.9453 -1.4665
  922MOL0     H24404   6.235   0.767   9.091 -1.1728 -0.4779  1.3272
  922MOL0     H24405   6.390   0.835   8.938  0.3942  1.0852 -0.5230
  922MOL0     H24406   6.358   0.725   8.801  0.3389 -0.0942  0.9722
  922MOL0     H24407   6.510   0.869   8.698 -0.3798  0.4712 -1.9224
  922MOL0     H24408   6.371   0.930   8.650 -0.5833  1.1983  0.5482
  922MOL0     H24409   6.352   1.105   8.814 -0.2957 -0.9396 -0.4773
  922MOL0     H24410   6.472   1.041   8.920  3.3478  0.7515 -0.7743
  922MOL0     H24411   6.571   1.082   8.639 -0.6130  3.7220 -2.1341
  922MOL0     H24412   6.500   1.224   8.690  0.1734 -0.1466 -2.3866
  922MOL0     H24413   6.726   1.235   8.740 -1.3015  1.4427  0.6395
  922MOL0     H24414   6.640   1.245   8.898 -0.1532  1.5912 -1.4431
  922MOL0     H24415   6.759   0.986   8.795 -2.5737 -0.3281  1.0979
  922MOL0     H24416   6.861   1.115   8.870  2.8451 -4.4149 -0.3652
  922MOL0     H24417   6.680   1.088   9.065  2.0825  0.7579  1.5846
  922MOL0     H24418   6.667   0.925   8.998  1.7054 -1.6221  1.4480
  922MOL0     H24419   6.909   0.896   9.000 -1.0904  0.1998 -0.2159
  922MOL0     H24420   6.841   0.902   9.161 -0.5415 -1.7070 -1.6317
  922MOL0     H24421   6.836   1.188   9.229 -0.8797 -1.8833  1.6310
  922MOL0     H24422   7.058   1.446   9.217 -1.2181 -2.2982 -2.2078
  922MOL0     H24423   6.941   1.386   9.329 -0.1691 -2.7069 -0.9173
  922MOL0     H24424   7.129   1.432   9.453 -0.7237 -0.0742 -0.0154
  922MOL0     H24425   7.233   1.341   9.335 -1.2066 -0.5965 -3.1239
  922MOL0     H24426   7.210   1.211   9.537  0.0160 -0.3823 -0.4931
  922MOL0     H24427   7.131   1.124   9.414  2.7569 -0.8103  1.7016
  922MOL0     H24428   6.990   1.310   9.609  2.2532  2.2883 -2.2232
  922MOL0     H24429   7.026   1.142   9.637  0.0723  0.9128  0.2800
  922MOL0     H24430   6.638   1.262   9.409 -0.2057  0.3224  1.1661
  922MOL0     H24431   6.368   1.326   9.599  0.8037 -0.0113 -0.0032
  922MOL0     H24432   6.433   1.321   9.427  0.9110  1.0517  0.2021
  922MOL0     H24433   6.332   1.193   9.500 -0.4813  1.0469 -1.9537
  922MOL0     H24434   6.296   0.718   9.820 -2.4057  0.0110 -0.5244
  922MOL0     H24435   6.180   0.620  10.011 -0.4541 -0.5219  2.6874
  922MOL0     H24436   6.016   0.743  10.418  0.1551 -0.1858  0.0191
  922MOL0     H24437   6.100   0.894  10.373  0.3323 -0.9416  0.2970
  922MOL0     H24438   5.927   0.908  10.170 -1.5640 -2.5212 -1.5710
  922MOL0     H24439   5.846   0.775  10.253 -1.0381 -0.0546 -0.1379
  922MOL0     H24440   5.742   0.985  10.318 -1.2434 -1.3328  1.9073
  922MOL0     H24441   5.899   1.049  10.372  0.1283 -0.6095  0.5484
  922MOL0     H24442   5.724   0.825  10.483  2.1169 -1.5726 -3.2236
  922MOL0     H24443   5.880   0.856  10.556 -0.7259 -1.2470 -0.2435
  922MOL0     H24444   5.661   1.066  10.525  0.8120 -1.0275 -0.6273
  922MOL0     H24445   5.817   1.068  10.619  1.8023 -1.5265 -0.1532
  922MOL0     H24446   5.549   0.938  10.644 -0.7787 -3.0530  1.9021
  922MOL0     H24447   5.681   0.857  10.733 -1.3936 -0.9768  0.9828
  922MOL0     H24448   5.563   1.137  10.775 -0.2207  0.2443  1.6901
  922MOL0     H24449   5.725   1.086  10.839 -0.9532  0.6377 -0.2217
  922MOL0     H24450   5.570   1.047  11.011  0.8830 -1.3083  0.8454
  922MOL0     H24451   5.592   0.879  10.950 -3.2190 -1.2516 -0.0366
  922MOL0     H24452   6.188   1.010  10.205  1.8820  3.9606 -2.5659
  922MOL0     H24453   6.338   1.091  10.037 -0.0623 -0.0900  3.2222
  922MOL0     H24454   6.654   0.998   9.832  0.8152  0.0483 -0.0149
  922MOL0     H24455   6.869   1.053   9.718  0.8560 -0.5828 -1.0829
  922MOL0     H24456   6.006   0.729   8.741 -3.8806 -0.7800 -0.3008
  922MOL0     H24457   5.870   0.539   8.866  0.9587 -0.5669 -0.2792
  922MOL0     H24458   5.717   0.300   9.070 -4.7144  0.1722  0.7542
  922MOL0     H24459   5.562   0.140   9.140 -0.3012 -0.8912  0.1996
  922MOL0     H24460   5.431   0.075   9.459 -3.7026  2.7089 -0.9532
  922MOL0     H24461   5.449   0.146   9.306 -1.8339  0.6709 -0.2762
  922MOL0     H24462   5.382  -0.090   9.214 -0.5644  0.7747 -0.5646
  922MOL0     H24463   5.269   0.021   9.290  0.3214  1.3993  0.8065
  922MOL0     H24464   5.313  -0.150   9.514 -2.0705 -1.7620 -0.2248
  922MOL0     H24465   5.395  -0.250   9.396  0.3400 -0.0347  0.7840
  922MOL0     H24466   5.169  -0.320   9.413 -0.2071  0.3862  2.2502
  922MOL0     H24467   5.167  -0.218   9.265  0.7771  4.8068 -0.1883
  922MOL0     H24468   4.939   0.040   9.510 -1.4074 -0.8863 -1.6363
  922MOL0     H24469   5.820  -0.026   9.423  0.1315 -0.0586 -0.9852
  922MOL0     H24470   6.001   0.122   9.354 -1.0799 -0.9970  2.8628
  923MOL0     O24471   1.898   4.589   5.087 -0.6599 -0.1865 -0.4693
  923MOL0     C24472   1.847   4.696   5.046  0.2069  0.6758 -0.0107
  923MOL0     O24473   1.909   4.781   4.966  0.1253 -0.3601  0.3352
  923MOL0     C24474   2.043   4.780   4.979 -0.5158  0.8455  0.3946
  923MOL0     C24475   2.128   4.798   4.867 -0.8551  0.0092  0.6435
  923MOL0     C24476   2.259   4.822   4.880 -0.3783 -0.3007 -0.7605
  923MOL0     C24477   2.307   4.844   5.020  0.1452 -0.7399  0.4919
  923MOL0     O24478   2.433   4.891   5.021 -0.1341 -0.4075 -0.3381
  923MOL0     C24479   2.503   4.917   5.151  0.3767  0.2100 -0.2364
  923MOL0     C24480   2.631   4.995   5.134 -0.6005 -0.0067 -0.4748
  923MOL0     C24481   2.607   5.133   5.072 -0.4041 -0.5550 -1.0054
  923MOL0     C24482   2.686   5.259   5.115  0.1203  0.7001 -0.3707
  923MOL0     C24483   2.638   5.305   5.253  0.4569  0.0497  0.3307
  923MOL0     C24484   2.692   5.453   5.278 -0.0281 -0.0839 -0.3755
  923MOL0     C24485   2.594   5.519   5.379  0.1935 -0.4599 -0.3044
  923MOL0     C24486   2.616   5.678   5.402 -0.5844 -0.5516 -0.5529
  923MOL0     N24487   2.600   5.752   5.266  1.1733 -0.5270 -0.0434
  923MOL0     C24488   2.499   5.734   5.172  0.0716  0.2772  0.8608
  923MOL0     C24489   2.523   5.813   5.065  0.9583  0.4068  0.1374
  923MOL0     C24490   2.433   5.831   4.950  0.3901 -0.6215  1.1148
  923MOL0     C24491   2.304   5.906   4.979  0.1626  1.0244  0.4411
  923MOL0     C24492   2.318   6.062   4.994  0.4127  0.7250 -1.1086
  923MOL0     C24493   2.344   6.132   4.857  0.0656  0.0548 -0.3164
  923MOL0     O24494   2.248   6.082   4.765  0.4633  0.3089 -0.6190
  923MOL0     C24495   2.282   6.105   4.634 -0.8724 -0.5556  0.6420
  923MOL0     C24496   2.360   6.014   4.559  0.1766 -0.4783 -0.1738
  923MOL0     C24497   2.387   6.038   4.422 -0.4093 -0.5368 -0.2691
  923MOL0     C24498   2.483   5.936   4.364  0.1215 -0.3245 -0.2596
  923MOL0     C24499   2.340   6.153   4.352  1.2304 -1.0056 -0.4622
  923MOL0     C24500   2.354   6.187   4.199 -0.2912 -0.0506 -0.3032
  923MOL0     O24501   2.261   6.287   4.155 -0.4439  0.9379  0.3088
  923MOL0     C24502   2.255   6.318   4.018  0.2673 -0.2653 -0.5531
  923MOL0     C24503   2.374   6.366   3.952  0.4685  0.3238 -0.4703
  923MOL0     C24504   2.372   6.414   3.822 -0.5000 -0.2572 -0.9892
  923MOL0     C24505   2.251   6.415   3.748 -0.9993 -0.2029 -0.1249
  923MOL0     O24506   2.247   6.458   3.616  0.1899 -0.7326  0.6847
  923MOL0     C24507   2.360   6.528   3.548  0.8165 -0.2835 -0.2523
  923MOL0     C24508   2.323   6.582   3.401  0.0655  0.6947 -0.8720
  923MOL0     C24509   2.209   6.690   3.405 -0.3346  0.8241 -0.1127
  923MOL0     C24510   2.193   6.771   3.275 -0.6477  0.9049 -0.4122
  923MOL0     C24511   2.078   6.872   3.282 -0.4419 -0.8040 -0.0344
  923MOL0     C24512   2.100   6.994   3.377 -0.0091 -0.2894 -0.6456
  923MOL0     C24513   1.970   7.085   3.366  0.1901  0.0247  0.9041
  923MOL0     C24514   1.932   7.144   3.229  0.2152 -0.0930  0.1055
  923MOL0    Cl24515   2.090   7.230   3.189 -0.0638 -0.7277  0.7690
  923MOL0     C24516   2.130   6.370   3.811 -0.0480  0.4234 -0.4336
  923MOL0     C24517   2.130   6.322   3.949  1.1968  0.5495 -0.3924
  923MOL0     O24518   2.427   6.121   4.124  0.8448 -0.1574  0.2188
  923MOL0     C24519   2.248   6.239   4.428 -0.0573  0.0794  0.0820
  923MOL0     C24520   2.226   6.216   4.568 -0.3540 -0.2853  0.3301
  923MOL0     N24521   2.641   5.878   5.091 -0.3831  0.2574  0.2522
  923MOL0     N24522   2.692   5.841   5.210 -0.2397  0.7814  0.1604
  923MOL0     C24523   2.231   4.830   5.129 -0.0515 -1.0330 -0.2578
  923MOL0     C24524   2.104   4.796   5.106  0.8748  0.8896  0.1950
  923MOL0     C24525   1.712   4.711   5.085 -0.4145 -0.6374 -0.3179
  923MOL0     C24526   1.663   4.652   5.204  1.4618  0.0016  0.4193
  923MOL0     C24527   1.534   4.660   5.236  0.8166 -0.2070  0.5957
  923MOL0     C24528   1.434   4.727   5.160 -0.4819  0.4814 -0.5371
  923MOL0     O24529   1.305   4.726   5.202  0.0924  0.3718  0.2952
  923MOL0     C24530   1.200   4.762   5.116  0.1370  0.4084 -0.2464
  923MOL0     C24531   1.070   4.685   5.144 -0.5873  0.4759  0.2551
  923MOL0     C24532   1.090   4.531   5.117 -0.4808  0.3358 -0.5377
  923MOL0     C24533   0.967   4.453   5.166  0.9909 -0.1611  0.5605
  923MOL0     C24534   0.988   4.313   5.139 -0.0142  0.4979  0.4813
  923MOL0     C24535   1.011   4.186   5.137 -0.0271 -0.8605  0.5507
  923MOL0     C24536   1.480   4.800   5.052 -0.4980  1.2125 -0.3224
  923MOL0     C24537   1.617   4.789   5.011 -0.2906 -0.2865  0.7233
  923MOL0     H24538   2.091   4.815   4.766  1.0012  1.3593  0.1421
  923MOL0     H24539   2.334   4.833   4.804 -0.3770 -0.3122 -0.7608
  923MOL0     H24540   2.444   4.989   5.209  1.1024  0.9854 -0.4279
  923MOL0     H24541   2.514   4.829   5.215 -3.3462  0.5723  1.1441
  923MOL0     H24542   2.688   5.009   5.227 -1.2488 -0.0521 -0.0648
  923MOL0     H24543   2.700   4.940   5.070 -1.2463 -0.2425 -0.9771
  923MOL0     H24544   2.621   5.133   4.963 -1.2374  2.1712 -1.1833
  923MOL0     H24545   2.501   5.160   5.078 -1.0247 -1.8863 -3.9849
  923MOL0     H24546   2.791   5.230   5.111 -0.4245 -1.3487 -3.8447
  923MOL0     H24547   2.669   5.344   5.048 -1.5016  2.3451  1.9453
  923MOL0     H24548   2.529   5.305   5.246  0.4801  1.1248 -0.1935
  923MOL0     H24549   2.676   5.237   5.330 -1.5939 -0.8203  0.6497
  923MOL0     H24550   2.795   5.466   5.312 -0.6941  2.8320  0.8141
  923MOL0     H24551   2.699   5.514   5.187  2.3461 -0.4110 -0.4819
  923MOL0     H24552   2.492   5.516   5.341  0.1972 -2.9526 -0.2726
  923MOL0     H24553   2.595   5.458   5.469 -3.1583  0.4330  0.4801
  923MOL0     H24554   2.707   5.702   5.458 -2.5446  1.4664  2.0407
  923MOL0     H24555   2.539   5.715   5.470  2.1258  1.9495  1.4329
  923MOL0     H24556   2.407   5.678   5.186 -0.4999  0.0855 -2.6013
  923MOL0     H24557   2.479   5.883   4.866 -1.1097  1.2436  1.3820
  923MOL0     H24558   2.419   5.727   4.918  3.3407 -1.3950  2.0026
  923MOL0     H24559   2.256   5.854   5.062 -2.6937 -0.1534 -1.7604
  923MOL0     H24560   2.239   5.891   4.892 -0.3311  2.3578  0.5530
  923MOL0     H24561   2.396   6.072   5.070 -0.6319  2.1023 -0.1543
  923MOL0     H24562   2.232   6.107   5.044  1.1257  0.1602  0.7253
  923MOL0     H24563   2.448   6.114   4.829  0.5269  2.9017 -0.6874
  923MOL0     H24564   2.336   6.240   4.869  0.8942  0.0842  0.0347
  923MOL0     H24565   2.393   5.925   4.612  1.2743 -0.8137 -1.3801
  923MOL0     H24566   2.434   5.905   4.271 -0.9881 -1.0596  0.5401
  923MOL0     H24567   2.580   5.986   4.357 -1.2203  3.2025  2.8368
  923MOL0     H24568   2.498   5.840   4.415  2.5743 -2.0157 -3.7632
  923MOL0     H24569   2.470   6.364   4.003  2.4124  0.2943 -3.8112
  923MOL0     H24570   2.464   6.452   3.779 -0.2335  0.9616  0.5627
  923MOL0     H24571   2.393   6.607   3.615 -1.3026 -0.2401  0.8447
  923MOL0     H24572   2.434   6.449   3.532  2.3477  0.6327  1.8178
  923MOL0     H24573   2.412   6.638   3.371  0.8027  0.4538  0.7313
  923MOL0     H24574   2.298   6.499   3.334  0.6361  0.9331 -1.3849
  923MOL0     H24575   2.247   6.762   3.477  0.4387  0.5981 -0.2840
  923MOL0     H24576   2.114   6.641   3.430 -0.7304  1.9226  0.5501
  923MOL0     H24577   2.284   6.823   3.244  0.0531 -0.2837 -0.4414
  923MOL0     H24578   2.179   6.695   3.198  0.7402  1.2710 -1.0716
  923MOL0     H24579   1.977   6.839   3.307 -1.7256  4.2276  2.8713
  923MOL0     H24580   2.064   6.915   3.182  0.3964 -0.2505  0.0680
  923MOL0     H24581   2.104   6.956   3.479  0.2806  0.3491 -0.4133
  923MOL0     H24582   2.188   7.055   3.359  0.5214 -1.0841 -0.7819
  923MOL0     H24583   1.970   7.159   3.447  0.2975 -1.0743  1.9252
  923MOL0     H24584   1.889   7.019   3.396  0.8672 -2.2384 -1.8467
  923MOL0     H24585   1.850   7.216   3.234  3.3980  3.9362 -0.2201
  923MOL0     H24586   1.908   7.073   3.149 -1.7579 -1.5735  1.8976
  923MOL0     H24587   2.044   6.364   3.744  2.0309 -1.5665 -3.1683
  923MOL0     H24588   2.039   6.278   3.989 -0.6162  2.8411 -1.7629
  923MOL0     H24589   2.201   6.329   4.389 -0.3188  0.1343  0.5231
  923MOL0     H24590   2.170   6.292   4.622  0.8807 -0.5408  2.0243
  923MOL0     H24591   2.268   4.844   5.230  0.5826 -0.0734 -0.6040
  923MOL0     H24592   2.044   4.799   5.197  0.6973  1.6674  0.0561
  923MOL0     H24593   1.734   4.605   5.273  1.6986 -1.9973 -1.0909
  923MOL0     H24594   1.516   4.605   5.328  1.1562 -1.4913 -0.0748
  923MOL0     H24595   1.188   4.870   5.107 -0.2707  0.2601 -1.9561
  923MOL0     H24596   1.236   4.726   5.019  1.3069  0.2590  0.2275
  923MOL0     H24597   0.999   4.729   5.073  0.9886  2.6213 -0.0941
  923MOL0     H24598   1.024   4.706   5.241  1.5923  3.3856  0.8125
  923MOL0     H24599   1.179   4.487   5.164 -1.4658 -0.7140  0.4105
  923MOL0     H24600   1.112   4.522   5.010  4.4808  1.4948  0.1320
  923MOL0     H24601   0.877   4.479   5.109  2.0363  2.6062  0.0443
  923MOL0     H24602   0.947   4.481   5.269  2.8960  0.7111  0.7317
  923MOL0     H24603   1.031   4.081   5.131 -0.7194 -0.9639 -0.0302
  923MOL0     H24604   1.413   4.860   4.990  0.4279  0.3796 -2.2167
  923MOL0     H24605   1.663   4.829   4.921  0.2564 -0.1786  1.0437
  924MOL0     O24606   3.403   9.288   5.067  0.3506  0.0788 -0.1801
  924MOL0     C24607   3.300   9.348   5.055  0.0404 -0.8276 -0.1348
  924MOL0     O24608   3.278   9.473   5.108 -0.0927 -0.3404 -0.2336
  924MOL0     C24609   3.378   9.519   5.181  0.2691  0.4855 -0.8461
  924MOL0     C24610   3.423   9.467   5.303 -0.0234  0.2993 -0.0607
  924MOL0     C24611   3.526   9.520   5.376 -0.9102  0.0402 -0.6644
  924MOL0     C24612   3.593   9.639   5.321  0.4877 -0.1438 -0.5314
  924MOL0     O24613   3.695   9.707   5.377 -0.1639  0.1425  0.0289
  924MOL0     C24614   3.759   9.633   5.483 -0.7649 -0.3117  0.2206
  924MOL0     C24615   3.905   9.680   5.498  0.9045 -0.0773  0.3246
  924MOL0     C24616   3.908   9.826   5.499 -1.3203 -0.2802 -0.7781
  924MOL0     C24617   4.054   9.856   5.504  0.1078 -0.1856  0.2713
  924MOL0     C24618   4.092  10.001   5.494  0.4156 -0.0694  0.4033
  924MOL0     C24619   4.243  10.014   5.473  0.4598  0.1626 -0.2477
  924MOL0     C24620   4.283  10.162   5.471  0.2251 -0.1502  0.9846
  924MOL0     C24621   4.435  10.187   5.496  0.6105  0.0062 -0.9431
  924MOL0     N24622   4.482  10.330   5.496 -0.2653  0.1885  0.0713
  924MOL0     C24623   4.413  10.447   5.517  0.2047  1.0687 -0.0481
  924MOL0     C24624   4.497  10.549   5.507  0.1932  0.3388  1.0296
  924MOL0     C24625   4.466  10.697   5.550 -0.5272  0.1724  1.0556
  924MOL0     C24626   4.579  10.799   5.557 -0.2258  0.7002 -0.1373
  924MOL0     C24627   4.695  10.805   5.456 -0.2786 -0.2868  0.4558
  924MOL0     C24628   4.782  10.925   5.464 -0.1151 -0.5647 -0.5648
  924MOL0     O24629   4.815  10.947   5.600 -0.1942 -0.0797 -0.0684
  924MOL0     C24630   4.950  10.937   5.622 -0.0015 -0.8701  0.0073
  924MOL0     C24631   5.014  10.832   5.677  0.9740  0.0522  0.4067
  924MOL0     C24632   5.147  10.834   5.716  1.0135  0.1639  0.1446
  924MOL0     C24633   5.195  10.714   5.798  0.1765  0.3611 -0.0550
  924MOL0     C24634   5.227  10.940   5.672  0.5677  0.4353  0.2026
  924MOL0     C24635   5.375  10.946   5.700 -0.2789 -0.3596 -0.5001
  924MOL0     O24636   5.433  11.064   5.658  0.1426 -0.1765 -0.3613
  924MOL0     C24637   5.572  11.082   5.635  0.9185  0.4028 -1.2656
  924MOL0     C24638   5.612  11.212   5.611  0.1959  0.7961  1.1049
  924MOL0     C24639   5.744  11.249   5.590 -0.0449  0.4163 -0.4446
  924MOL0     C24640   5.850  11.160   5.603  0.1044 -0.1337  0.0646
  924MOL0     O24641   5.978  11.210   5.573 -0.0957  0.0227  0.4692
  924MOL0     C24642   6.061  11.122   5.503 -0.3191 -0.5949 -0.3653
  924MOL0     C24643   6.156  11.046   5.584 -0.2291  0.4541 -0.5204
  924MOL0     C24644   6.237  11.112   5.697  0.5980  0.1485  0.3682
  924MOL0     C24645   6.296  11.253   5.665 -0.8961 -0.7779  0.7083
  924MOL0     C24646   6.432  11.281   5.718  0.3008 -0.2462 -1.6345
  924MOL0     C24647   6.437  11.274   5.874 -0.1154  0.3964 -0.6767
  924MOL0     C24648   6.568  11.293   5.951 -0.5666 -0.6801  0.1603
  924MOL0     C24649   6.645  11.417   5.899 -0.0389 -0.3880  1.3981
  924MOL0    Cl24650   6.740  11.373   5.747  0.4696 -0.4497 -0.3619
  924MOL0     C24651   5.821  11.031   5.612 -0.2441  0.5274  0.5359
  924MOL0     C24652   5.678  10.986   5.629 -0.3841  0.2036  0.7077
  924MOL0     O24653   5.439  10.855   5.746  0.5489  0.6653 -0.3795
  924MOL0     C24654   5.165  11.051   5.621  0.4049 -0.6995  0.7453
  924MOL0     C24655   5.026  11.054   5.590  0.4577 -0.4340 -0.2442
  924MOL0     N24656   4.623  10.495   5.464  0.6747  0.6023  0.1157
  924MOL0     N24657   4.611  10.362   5.444  0.6305  0.1376 -0.4111
  924MOL0     C24658   3.551   9.688   5.200 -0.6211  0.4102  0.1117
  924MOL0     C24659   3.450   9.628   5.132 -0.5816 -1.1994  0.9992
  924MOL0     C24660   3.181   9.288   4.986 -0.0320 -0.4312 -1.1126
  924MOL0     C24661   3.192   9.164   4.922 -0.6821  0.2717  0.6947
  924MOL0     C24662   3.082   9.096   4.874  0.7824 -0.4562 -0.3326
  924MOL0     C24663   2.953   9.145   4.886  0.6257 -0.2642  0.7785
  924MOL0     O24664   2.849   9.067   4.834  0.3775 -0.2274 -0.0630
  924MOL0     C24665   2.714   9.110   4.858 -0.4009  0.3564 -0.3466
  924MOL0     C24666   2.608   9.017   4.778 -0.4758 -0.3900 -0.2073
  924MOL0     C24667   2.474   9.100   4.744  0.2037 -1.0252 -0.0342
  924MOL0     C24668   2.384   9.016   4.664 -0.7102 -0.2085 -0.0678
  924MOL0     C24669   2.361   8.893   4.737  0.5200  0.6510  0.0157
  924MOL0     C24670   2.337   8.778   4.781 -0.2379 -0.0390 -0.9094
  924MOL0     C24671   2.938   9.268   4.949 -0.3675  0.1192 -0.0783
  924MOL0     C24672   3.049   9.338   5.005 -0.5321 -0.3433  0.0465
  924MOL0     H24673   3.368   9.382   5.342 -0.0785  0.0254 -0.7300
  924MOL0     H24674   3.546   9.478   5.474 -0.7978 -2.7781 -1.7956
  924MOL0     H24675   3.706   9.655   5.576  1.5978  1.3902  1.2749
  924MOL0     H24676   3.767   9.524   5.478  1.5658 -0.1977  0.2562
  924MOL0     H24677   3.944   9.661   5.599 -0.3813  2.8999  1.5096
  924MOL0     H24678   3.972   9.635   5.425  0.3207 -0.9330  0.3124
  924MOL0     H24679   3.852   9.880   5.422 -2.2297 -0.8104 -0.4926
  924MOL0     H24680   3.863   9.868   5.589  1.6079 -2.9945  2.1854
  924MOL0     H24681   4.095   9.807   5.593  0.8708  1.3090  0.7882
  924MOL0     H24682   4.091   9.807   5.414 -1.3351 -0.1774 -0.3525
  924MOL0     H24683   4.033  10.051   5.417  0.6801  0.9009  0.8103
  924MOL0     H24684   4.062  10.040   5.592 -0.5885 -0.6418  0.3343
  924MOL0     H24685   4.285   9.964   5.560 -2.9486 -0.6992  1.0905
  924MOL0     H24686   4.284   9.973   5.380  3.5295 -0.2153  1.1591
  924MOL0     H24687   4.248  10.192   5.372  0.4741  1.9716  1.4968
  924MOL0     H24688   4.220  10.213   5.545  0.9281 -0.9616  2.1871
  924MOL0     H24689   4.472  10.132   5.409 -0.8893 -1.2102 -0.8592
  924MOL0     H24690   4.468  10.137   5.588 -0.9127  2.1671  0.8895
  924MOL0     H24691   4.312  10.448   5.556 -0.5012  1.5479 -1.8034
  924MOL0     H24692   4.387  10.743   5.490  0.3105 -1.2284 -1.2675
  924MOL0     H24693   4.417  10.682   5.646 -2.0946 -1.0399  0.1352
  924MOL0     H24694   4.629  10.777   5.652 -0.4068 -1.4166 -0.4953
  924MOL0     H24695   4.541  10.902   5.564  0.1322  0.7349  4.5008
  924MOL0     H24696   4.655  10.807   5.354  0.6721 -2.7874 -0.0530
  924MOL0     H24697   4.753  10.714   5.477  0.9747  0.8189  1.9557
  924MOL0     H24698   4.716  11.006   5.432  0.3503  0.0274 -0.0628
  924MOL0     H24699   4.864  10.929   5.391  0.2622 -0.9372 -0.1617
  924MOL0     H24700   4.956  10.749   5.715 -0.1978  1.0912  0.9628
  924MOL0     H24701   5.232  10.750   5.894  3.1164  0.7670 -1.2575
  924MOL0     H24702   5.108  10.649   5.815 -1.1484  2.2354  0.7952
  924MOL0     H24703   5.263  10.653   5.739 -0.0779 -1.6232  1.5478
  924MOL0     H24704   5.529  11.282   5.608 -0.0550  0.6881 -4.2841
  924MOL0     H24705   5.768  11.355   5.582 -0.4732  0.4997 -0.6718
  924MOL0     H24706   6.022  11.076   5.412 -0.2707  2.1814 -1.9121
  924MOL0     H24707   6.123  11.191   5.445 -2.8448  2.9443  0.8275
  924MOL0     H24708   6.097  10.970   5.636 -3.4732  3.5210  0.7599
  924MOL0     H24709   6.225  10.993   5.519 -1.3941 -0.6772 -0.8876
  924MOL0     H24710   6.308  11.031   5.718 -0.5709 -1.1063 -0.3163
  924MOL0     H24711   6.161  11.120   5.775  0.8750  1.4526  0.5217
  924MOL0     H24712   6.304  11.253   5.556  0.3592 -0.5753  0.7884
  924MOL0     H24713   6.228  11.336   5.687 -0.9042 -0.8101  0.8059
  924MOL0     H24714   6.463  11.379   5.681  1.0314  0.1293 -0.1106
  924MOL0     H24715   6.497  11.197   5.691  2.7911  1.9417 -2.8603
  924MOL0     H24716   6.362  11.343   5.912 -2.9369 -2.6542 -0.2323
  924MOL0     H24717   6.393  11.179   5.905 -2.1920  0.9969 -1.6236
  924MOL0     H24718   6.634  11.206   5.950 -0.7390 -0.8171 -1.1847
  924MOL0     H24719   6.541  11.309   6.056  0.8017 -4.5571  1.2851
  924MOL0     H24720   6.708  11.467   5.973 -2.2381  2.5621  1.4579
  924MOL0     H24721   6.571  11.493   5.872 -0.5588 -0.2857  3.0097
  924MOL0     H24722   5.891  10.948   5.610 -1.8672 -0.8902  0.4108
  924MOL0     H24723   5.658  10.888   5.671  0.8430  0.4952  2.0509
  924MOL0     H24724   5.219  11.140   5.588 -0.8320 -0.7101 -1.5328
  924MOL0     H24725   4.980  11.150   5.564 -0.6659 -0.1857  2.3540
  924MOL0     H24726   3.608   9.768   5.154  1.7691 -0.2940  1.6568
  924MOL0     H24727   3.425   9.671   5.035 -0.0403  1.3588  1.9066
  924MOL0     H24728   3.288   9.115   4.916 -0.4396  0.6913  1.1184
  924MOL0     H24729   3.091   9.001   4.822 -2.8042  0.9545 -4.0269
  924MOL0     H24730   2.698   9.105   4.966  3.1433  0.6833  0.3067
  924MOL0     H24731   2.700   9.216   4.836  0.5126  0.2807 -1.3577
  924MOL0     H24732   2.588   8.925   4.833 -3.2321 -1.0551 -2.1236
  924MOL0     H24733   2.662   8.988   4.687 -1.0787  0.1034 -0.7381
  924MOL0     H24734   2.487   9.188   4.681 -2.2530  1.2320  2.3344
  924MOL0     H24735   2.422   9.129   4.836  0.2829 -3.4782  0.8545
  924MOL0     H24736   2.423   8.995   4.564 -1.8817  1.3966 -0.8905
  924MOL0     H24737   2.294   9.076   4.650  1.4608  3.5843  0.8857
  924MOL0     H24738   2.327   8.687   4.838 -1.1245  0.4311 -0.2874
  924MOL0     H24739   2.840   9.310   4.968 -0.1626  0.3535  0.4761
  924MOL0     H24740   3.038   9.431   5.061  1.2954  0.3857 -0.7572
  925MOL0     O24741   3.420   8.111   5.547  0.2927  0.0452 -0.6094
  925MOL0     C24742   3.337   8.076   5.639 -0.8724 -0.1671  0.7318
  925MOL0     O24743   3.316   7.953   5.681 -0.0500  0.3183 -0.5323
  925MOL0     C24744   3.380   7.850   5.617  0.2154  0.6553 -0.3959
  925MOL0     C24745   3.312   7.773   5.531 -1.0136  0.0670 -0.6551
  925MOL0     C24746   3.376   7.672   5.455  0.5620  0.2131  0.1893
  925MOL0     C24747   3.511   7.647   5.475  0.5050  0.3244  0.3961
  925MOL0     O24748   3.565   7.550   5.401 -1.0831  0.7438 -0.3216
  925MOL0     C24749   3.684   7.482   5.458 -0.7374  0.8213  0.9328
  925MOL0     C24750   3.685   7.341   5.392 -0.2895 -0.3563 -0.0209
  925MOL0     C24751   3.580   7.253   5.468  1.1993  0.0523  0.5442
  925MOL0     C24752   3.571   7.116   5.390  0.6558 -0.3772 -0.1774
  925MOL0     C24753   3.474   7.014   5.453  0.7660 -0.5127 -0.0265
  925MOL0     C24754   3.316   7.042   5.432 -0.4991  0.5257  0.4714
  925MOL0     C24755   3.245   6.934   5.515  0.5001 -1.6222 -0.6270
  925MOL0     C24756   3.094   6.960   5.533 -0.7398  0.0668  0.1573
  925MOL0     N24757   3.035   6.961   5.401  1.1279  0.3330  0.2089
  925MOL0     C24758   3.028   6.859   5.310  0.1704  1.2823  0.3714
  925MOL0     C24759   2.970   6.914   5.203 -0.3330  0.3117 -0.3653
  925MOL0     C24760   2.928   6.825   5.084 -0.7879 -0.2120 -0.7425
  925MOL0     C24761   2.783   6.802   5.076  0.7363  0.5449  1.1462
  925MOL0     C24762   2.684   6.929   5.084  0.0495 -0.0721 -0.0816
  925MOL0     C24763   2.534   6.894   5.048  0.7512  0.9038  0.4365
  925MOL0     O24764   2.543   6.887   4.905  0.1144  0.9053  0.0649
  925MOL0     C24765   2.447   6.962   4.845 -0.0719 -0.1780  1.0158
  925MOL0     C24766   2.314   6.931   4.841  0.0272 -0.3558  0.7427
  925MOL0     C24767   2.225   7.016   4.764 -0.2663  0.6344 -1.0989
  925MOL0     C24768   2.080   6.969   4.741 -0.0008 -0.0342  1.0505
  925MOL0     C24769   2.279   7.129   4.702 -0.1052  0.6467 -0.5591
  925MOL0     C24770   2.201   7.216   4.613 -0.0795 -0.0326  0.5300
  925MOL0     O24771   2.234   7.236   4.482  0.0823 -0.0028 -1.1620
  925MOL0     C24772   2.151   7.314   4.411  0.1513  0.1135  1.0900
  925MOL0     C24773   2.181   7.444   4.385  1.1049  0.8821 -0.5058
  925MOL0     C24774   2.090   7.520   4.313  0.0037 -0.0702  0.1538
  925MOL0     C24775   1.974   7.472   4.250  0.4469  0.1203  0.9297
  925MOL0     O24776   1.900   7.558   4.177  0.1684 -0.9781 -0.5069
  925MOL0     C24777   1.867   7.527   4.048  0.1372 -0.2111  0.5547
  925MOL0     C24778   1.712   7.498   4.054 -0.6789 -0.9607  0.3415
  925MOL0     C24779   1.661   7.426   3.927 -0.0749 -0.5204  0.0936
  925MOL0     C24780   1.618   7.524   3.801  0.0502  0.5529 -0.2752
  925MOL0     C24781   1.628   7.458   3.671 -0.3315 -0.2417  0.8982
  925MOL0     C24782   1.770   7.419   3.613  1.2793 -0.3291 -0.4054
  925MOL0     C24783   1.877   7.519   3.648 -0.1562 -0.1285 -0.7293
  925MOL0     C24784   2.006   7.496   3.570 -0.5944 -0.4922  0.1500
  925MOL0    Cl24785   1.963   7.522   3.393  0.3966 -0.0389 -0.0570
  925MOL0     C24786   1.946   7.339   4.274 -0.4703 -0.7425  0.5587
  925MOL0     C24787   2.034   7.262   4.349  0.6310  0.3563  1.0646
  925MOL0     O24788   2.119   7.274   4.678 -0.1459 -0.5064 -0.3783
  925MOL0     C24789   2.417   7.157   4.712  0.6695 -0.8302  0.1416
  925MOL0     C24790   2.501   7.079   4.790 -1.3015  0.2012  1.1140
  925MOL0     N24791   2.966   7.057   5.219 -0.2797 -0.2851 -0.0068
  925MOL0     N24792   3.009   7.085   5.344 -0.0916 -0.4268  0.1364
  925MOL0     C24793   3.589   7.729   5.551  0.3101  0.0334  0.2593
  925MOL0     C24794   3.516   7.828   5.627  0.0738  0.1508 -0.0229
  925MOL0     C24795   3.240   8.184   5.670 -0.0652 -0.3472  0.5522
  925MOL0     C24796   3.278   8.318   5.683 -0.5418  0.2317  0.8342
  925MOL0     C24797   3.181   8.415   5.721  0.3875  0.0153  0.3555
  925MOL0     C24798   3.049   8.371   5.749 -0.4409 -0.5162 -0.1528
  925MOL0     O24799   2.947   8.457   5.802  0.3318 -0.2837 -0.0873
  925MOL0     C24800   2.960   8.599   5.812 -1.1064 -0.0946 -0.3832
  925MOL0     C24801   2.825   8.640   5.860 -0.9812 -0.4900 -0.1956
  925MOL0     C24802   2.822   8.796   5.891 -0.5289  0.3372 -0.3099
  925MOL0     C24803   2.688   8.815   5.953  0.0831  0.4187  0.0659
  925MOL0     C24804   2.669   8.953   5.984  0.6444 -1.0817  0.4937
  925MOL0     C24805   2.659   9.075   6.001 -0.7721  0.9550  0.6990
  925MOL0     C24806   3.019   8.231   5.742  0.2757 -0.6449  1.1688
  925MOL0     C24807   3.115   8.143   5.709  0.7229  0.2366  0.0944
  925MOL0     H24808   3.206   7.790   5.514 -0.8479  3.1270  0.7152
  925MOL0     H24809   3.325   7.615   5.378  0.0690  1.4683 -0.4288
  925MOL0     H24810   3.774   7.538   5.431 -1.6840  0.9373 -2.3588
  925MOL0     H24811   3.687   7.462   5.565  0.6802 -0.1401  0.7421
  925MOL0     H24812   3.663   7.358   5.286 -3.8927 -0.4223  0.5616
  925MOL0     H24813   3.787   7.305   5.405 -0.5790 -0.2785  3.1368
  925MOL0     H24814   3.613   7.223   5.568  0.3097 -3.4847 -0.0874
  925MOL0     H24815   3.483   7.301   5.480  2.0943  1.9589  0.5621
  925MOL0     H24816   3.546   7.130   5.284 -0.1271 -1.5505 -0.1705
  925MOL0     H24817   3.657   7.051   5.405 -1.7851 -3.1298  4.0668
  925MOL0     H24818   3.483   6.909   5.425  0.5528 -1.5484  3.3100
  925MOL0     H24819   3.491   7.019   5.561  0.1449 -5.5099  0.5021
  925MOL0     H24820   3.285   7.137   5.476  2.8786  0.0864  4.5165
  925MOL0     H24821   3.296   7.036   5.325 -3.4704 -1.2675  1.0019
  925MOL0     H24822   3.268   6.833   5.479 -0.3107 -2.0298 -0.0427
  925MOL0     H24823   3.294   6.940   5.613  0.9840  3.1101 -0.9422
  925MOL0     H24824   3.064   7.056   5.574 -1.9592  0.5854 -1.7989
  925MOL0     H24825   3.064   6.874   5.593  2.4042 -1.2258  0.1029
  925MOL0     H24826   3.065   6.759   5.325  1.0170  1.5332 -0.0010
  925MOL0     H24827   2.953   6.865   4.986  0.3581 -3.1003 -1.7325
  925MOL0     H24828   2.993   6.738   5.090  2.2292  1.9752  0.8294
  925MOL0     H24829   2.767   6.733   5.160  2.3865  1.0302  1.9053
  925MOL0     H24830   2.751   6.755   4.983 -1.6564  1.5479  1.3762
  925MOL0     H24831   2.715   7.018   5.028  1.0394 -1.7220 -2.2725
  925MOL0     H24832   2.689   6.960   5.189 -1.5043 -1.7098  0.5300
  925MOL0     H24833   2.461   6.968   5.084  0.3675  0.7041  0.0741
  925MOL0     H24834   2.508   6.794   5.085  3.5929 -0.8560 -1.8859
  925MOL0     H24835   2.289   6.830   4.872  1.5770 -1.3075 -0.9441
  925MOL0     H24836   2.016   7.057   4.743  0.9865  0.7063  0.7424
  925MOL0     H24837   2.071   6.924   4.642 -0.6605 -3.1971  2.4244
  925MOL0     H24838   2.044   6.905   4.822 -0.0573  0.4508  1.4123
  925MOL0     H24839   2.263   7.484   4.444  0.1087  1.8907  0.2636
  925MOL0     H24840   2.111   7.625   4.299  1.6043 -0.4273 -0.2946
  925MOL0     H24841   1.899   7.604   3.978 -0.8308 -3.5788 -4.0541
  925MOL0     H24842   1.919   7.438   4.012  1.8037  1.3773 -1.1449
  925MOL0     H24843   1.700   7.423   4.133 -1.5102 -0.5039  0.6530
  925MOL0     H24844   1.653   7.584   4.084 -2.2377 -1.2605 -1.6812
  925MOL0     H24845   1.563   7.394   3.964 -0.4234  1.6267  1.1943
  925MOL0     H24846   1.727   7.341   3.906  0.5827 -0.4108  1.5640
  925MOL0     H24847   1.515   7.558   3.817 -0.3915 -0.3335 -1.1069
  925MOL0     H24848   1.675   7.617   3.805  2.5641 -0.9331  1.3122
  925MOL0     H24849   1.571   7.503   3.589  1.4101 -2.6836 -1.8172
  925MOL0     H24850   1.586   7.358   3.678 -0.5581 -0.0849  1.9035
  925MOL0     H24851   1.807   7.319   3.637  4.9412  0.1248 -3.3342
  925MOL0     H24852   1.765   7.422   3.504 -1.5034  2.1548 -0.3325
  925MOL0     H24853   1.887   7.495   3.755 -2.8020 -0.9614 -0.6000
  925MOL0     H24854   1.853   7.625   3.634  2.8170  1.5375  4.2168
  925MOL0     H24855   2.046   7.396   3.589  3.8685  1.0650  0.3663
  925MOL0     H24856   2.088   7.566   3.592 -0.9842  0.4576 -1.3100
  925MOL0     H24857   1.849   7.302   4.241 -1.2858  0.6750  1.2742
  925MOL0     H24858   2.011   7.158   4.369  3.3691 -0.2195  1.6719
  925MOL0     H24859   2.454   7.250   4.668 -1.5866  0.7361  1.3362
  925MOL0     H24860   2.607   7.105   4.796 -1.3645  1.3671 -1.6253
  925MOL0     H24861   3.697   7.724   5.545  0.3074  1.0706 -1.0409
  925MOL0     H24862   3.581   7.895   5.683 -0.5441 -0.5918  1.6452
  925MOL0     H24863   3.380   8.353   5.664 -0.2991  1.2522  3.5482
  925MOL0     H24864   3.211   8.518   5.736 -1.9448  0.7831  0.2114
  925MOL0     H24865   3.032   8.630   5.888 -1.8610 -1.6249  1.0326
  925MOL0     H24866   2.991   8.636   5.714  0.8423 -2.3166 -0.6861
  925MOL0     H24867   2.805   8.581   5.949  1.3526 -2.2897 -0.7663
  925MOL0     H24868   2.747   8.611   5.788  0.9249 -1.7130 -1.8762
  925MOL0     H24869   2.837   8.862   5.805  0.3820  3.6935  2.2172
  925MOL0     H24870   2.900   8.811   5.966  0.7860  0.3686 -1.6309
  925MOL0     H24871   2.666   8.746   6.035  2.9828 -2.4493 -1.3632
  925MOL0     H24872   2.607   8.787   5.885  0.0720 -0.0282  0.2579
  925MOL0     H24873   2.677   9.177   6.026  1.7533  0.4490  1.1523
  925MOL0     H24874   2.922   8.189   5.764 -0.6891 -0.5405 -2.3134
  925MOL0     H24875   3.083   8.041   5.688 -0.6793  0.5719  0.4703
  926MOL0     O24876   3.282   9.364   8.005  0.4204 -0.2503  0.8457
  926MOL0     C24877   3.184   9.311   8.040  0.4383 -0.0944 -0.7450
  926MOL0     O24878   3.143   9.305   8.167  0.3255  0.0265 -0.0005
  926MOL0     C24879   3.180   9.415   8.244 -0.3456 -0.0225  0.4427
  926MOL0     C24880   3.312   9.419   8.292 -0.4563 -0.2743  0.1712
  926MOL0     C24881   3.342   9.508   8.397  0.4417 -0.1020 -1.1981
  926MOL0     C24882   3.247   9.581   8.452  0.4866  0.1612 -0.0497
  926MOL0     O24883   3.255   9.656   8.571  0.4719 -0.2557  0.3305
  926MOL0     C24884   3.381   9.707   8.606  0.3175  0.1546 -0.3164
  926MOL0     C24885   3.366   9.783   8.732 -0.7690  0.6209 -0.8982
  926MOL0     C24886   3.295   9.704   8.840 -0.4613  1.1390 -0.5883
  926MOL0     C24887   3.290   9.786   8.967  0.7728 -0.0408  0.4263
  926MOL0     C24888   3.228   9.716   9.088  0.3491  0.0816  0.2330
  926MOL0     C24889   3.226   9.802   9.215  0.4924  0.5452 -0.3662
  926MOL0     C24890   3.120   9.754   9.319 -0.2670  0.1915 -0.1955
  926MOL0     C24891   3.103   9.838   9.441 -1.0052 -0.2373 -0.0348
  926MOL0     N24892   3.050   9.974   9.424 -0.1707 -0.0088  0.6480
  926MOL0     C24893   2.941  10.009   9.350  0.4361  0.0501 -0.2420
  926MOL0     C24894   2.919  10.136   9.391  0.6547 -0.1558  0.0287
  926MOL0     C24895   2.799  10.225   9.358 -0.3110  0.2633 -0.3173
  926MOL0     C24896   2.835  10.372   9.359  0.7844  0.9699  0.4459
  926MOL0     C24897   2.857  10.412   9.206  0.4799 -0.3580  0.1610
  926MOL0     C24898   2.873  10.568   9.209  0.5344  0.1909 -0.3334
  926MOL0     O24899   2.874  10.627   9.070 -0.1429  0.0805 -0.6332
  926MOL0     C24900   2.907  10.758   9.061 -0.4736 -0.0822  0.1585
  926MOL0     C24901   2.892  10.858   9.160 -0.4110 -0.5900  0.4538
  926MOL0     C24902   2.926  10.991   9.142  0.4274  1.7847  1.3025
  926MOL0     C24903   2.906  11.089   9.251 -0.2593  0.0072  0.2398
  926MOL0     C24904   2.984  11.034   9.017  0.2097 -0.4180  0.1015
  926MOL0     C24905   3.029  11.176   8.980 -0.3925  0.2845 -0.3966
  926MOL0     O24906   2.988  11.286   9.055  0.4652 -1.1350 -1.1500
  926MOL0     C24907   2.974  11.404   8.989 -0.5356  0.1965  0.2081
  926MOL0     C24908   2.918  11.412   8.863  0.1460  0.2924  0.0170
  926MOL0     C24909   2.896  11.533   8.801 -0.4824  0.5806 -0.1833
  926MOL0     C24910   2.919  11.657   8.870  0.0443 -0.2604 -0.1323
  926MOL0     O24911   2.896  11.775   8.799 -0.5968 -0.1637  0.0082
  926MOL0     C24912   2.972  11.892   8.814 -0.7108  0.8886 -1.0053
  926MOL0     C24913   2.876  12.004   8.851  0.6241 -0.1349 -0.0054
  926MOL0     C24914   2.815  12.072   8.723 -0.8497 -0.8569 -0.4309
  926MOL0     C24915   2.918  12.155   8.645 -0.0276 -0.1149 -0.4539
  926MOL0     C24916   2.865  12.298   8.625 -0.5256 -0.3559 -0.4453
  926MOL0     C24917   2.744  12.296   8.532 -0.8045 -0.0618 -0.1796
  926MOL0     C24918   2.670  12.434   8.534 -0.3706 -1.0933  1.2715
  926MOL0     C24919   2.717  12.527   8.423  0.2392  0.1107  0.1550
  926MOL0    Cl24920   2.888  12.569   8.437  0.2042 -0.2969  0.2452
  926MOL0     C24921   2.973  11.646   9.003  0.3256 -0.1008  0.8805
  926MOL0     C24922   2.997  11.530   9.060  0.0685  0.1393  0.2555
  926MOL0     O24923   3.092  11.183   8.870 -0.6975  0.3143 -0.1432
  926MOL0     C24924   3.006  10.938   8.917  0.2999  0.9765 -0.1590
  926MOL0     C24925   2.961  10.806   8.946  0.1118  0.5791  0.9649
  926MOL0     N24926   3.011  10.183   9.482  0.0687  0.5145  0.0639
  926MOL0     N24927   3.081  10.074   9.505 -0.7230 -0.6101  0.0352
  926MOL0     C24928   3.115   9.580   8.398  0.5553  0.8667  0.2972
  926MOL0     C24929   3.079   9.498   8.294 -0.1548 -0.5763  0.5762
  926MOL0     C24930   3.111   9.228   7.951  0.1854 -0.0107  0.8256
  926MOL0     C24931   3.167   9.114   7.892 -0.4717 -0.9482  0.7774
  926MOL0     C24932   3.097   9.050   7.793  0.3654 -0.1741 -0.0516
  926MOL0     C24933   2.962   9.090   7.755 -0.2810 -0.8208  0.3553
  926MOL0     O24934   2.901   9.041   7.638  0.0555  0.3940  0.3177
  926MOL0     C24935   2.866   8.900   7.633  0.4376  0.8867 -0.0082
  926MOL0     C24936   2.826   8.836   7.502  1.4332 -0.1728 -0.2016
  926MOL0     C24937   2.916   8.887   7.388 -0.2872  0.3157 -0.3939
  926MOL0     C24938   3.061   8.833   7.395  0.0240 -1.4071  1.1247
  926MOL0     C24939   3.071   8.688   7.380 -0.5752  1.2459 -0.2996
  926MOL0     C24940   3.061   8.567   7.353 -0.3199 -0.5954  0.1317
  926MOL0     C24941   2.903   9.190   7.833  0.6057 -0.7785  0.5475
  926MOL0     C24942   2.975   9.258   7.932 -0.0704 -0.1049 -0.0420
  926MOL0     H24943   3.386   9.355   8.244 -1.2748 -2.5318  1.7489
  926MOL0     H24944   3.442   9.505   8.440 -0.6011 -2.3825  1.4691
  926MOL0     H24945   3.444   9.622   8.634  0.1498 -0.2608 -1.1862
  926MOL0     H24946   3.418   9.771   8.525 -0.4747  0.7117 -0.2473
  926MOL0     H24947   3.466   9.820   8.759 -0.5769 -0.5498  0.1060
  926MOL0     H24948   3.308   9.874   8.724 -0.9321  0.8257  1.6747
  926MOL0     H24949   3.194   9.666   8.820 -0.1274 -1.9286  2.5924
  926MOL0     H24950   3.360   9.617   8.852  0.1104  1.3938 -1.7420
  926MOL0     H24951   3.394   9.805   8.995  1.1757  1.0477 -1.6504
  926MOL0     H24952   3.243   9.884   8.956  1.5321  0.6128  2.5690
  926MOL0     H24953   3.129   9.689   9.052  0.6869 -3.6592  1.6904
  926MOL0     H24954   3.280   9.622   9.109  1.0887  0.1977 -0.9277
  926MOL0     H24955   3.321   9.794   9.268 -0.2662 -2.2453  0.7441
  926MOL0     H24956   3.213   9.908   9.189 -3.0521  0.2220 -0.3756
  926MOL0     H24957   3.031   9.739   9.258  0.7793 -2.6036 -1.2183
  926MOL0     H24958   3.160   9.658   9.354 -2.5260  0.2476  2.9514
  926MOL0     H24959   3.207   9.844   9.475 -0.2868 -0.4253 -2.0921
  926MOL0     H24960   3.037   9.796   9.518 -1.1237 -0.2285 -0.1316
  926MOL0     H24961   2.874   9.940   9.300 -1.9101  0.8457  1.6163
  926MOL0     H24962   2.759  10.189   9.263  0.5583 -0.2611 -0.4882
  926MOL0     H24963   2.715  10.211   9.428  0.7264 -3.1886  0.4053
  926MOL0     H24964   2.905  10.408   9.435 -0.8237  2.4144  1.3066
  926MOL0     H24965   2.743  10.420   9.395  1.0484  2.0125 -0.2180
  926MOL0     H24966   2.773  10.375   9.147 -0.3915 -0.4962  1.4513
  926MOL0     H24967   2.956  10.385   9.168  1.3270  2.6366 -0.0403
  926MOL0     H24968   2.966  10.594   9.260 -0.0453 -0.8600  1.3099
  926MOL0     H24969   2.801  10.620   9.273  0.3215  1.4945 -1.5748
  926MOL0     H24970   2.841  10.829   9.252  1.3337 -0.1521  1.6004
  926MOL0     H24971   2.837  11.167   9.219  0.3858  0.0375 -1.1239
  926MOL0     H24972   2.860  11.048   9.342  0.9006 -1.7110  0.1058
  926MOL0     H24973   3.004  11.129   9.280  1.0075 -2.0298 -0.9963
  926MOL0     H24974   2.889  11.323   8.809  0.3827  0.6835 -0.7691
  926MOL0     H24975   2.845  11.544   8.706 -2.6058 -0.8726  0.7144
  926MOL0     H24976   3.056  11.887   8.884  0.2950 -2.1215 -2.2807
  926MOL0     H24977   3.018  11.916   8.718  0.1471  2.4739 -0.2278
  926MOL0     H24978   2.802  11.972   8.925  1.5748  1.1767  1.5906
  926MOL0     H24979   2.936  12.076   8.907 -1.7526  0.3302  2.1805
  926MOL0     H24980   2.733  12.135   8.757 -0.5856 -0.1205 -1.1111
  926MOL0     H24981   2.770  11.993   8.662 -0.3665  0.5966 -2.8489
  926MOL0     H24982   3.010  12.173   8.701  0.1774  0.2649 -0.9022
  926MOL0     H24983   2.940  12.107   8.549 -0.1581  1.4196 -1.3022
  926MOL0     H24984   2.941  12.368   8.588 -0.2998  0.1451  0.9093
  926MOL0     H24985   2.844  12.347   8.720 -0.3634 -2.1523  0.5571
  926MOL0     H24986   2.769  12.257   8.432 -1.5064 -1.2333  0.0726
  926MOL0     H24987   2.673  12.229   8.582  1.6927  0.5617  4.8141
  926MOL0     H24988   2.686  12.486   8.629 -1.9281  0.7596  0.5886
  926MOL0     H24989   2.561  12.421   8.530 -0.3894 -1.1332  1.7979
  926MOL0     H24990   2.665  12.623   8.413  3.7366  2.1028 -0.4822
  926MOL0     H24991   2.701  12.465   8.334 -2.1497 -0.5964  0.9942
  926MOL0     H24992   2.977  11.738   9.060  0.5690  1.1498 -1.0830
  926MOL0     H24993   3.044  11.525   9.157  0.6136  1.2959  0.0637
  926MOL0     H24994   3.062  10.952   8.825  1.2433 -0.5591  0.1325
  926MOL0     H24995   2.963  10.746   8.856 -2.7559  2.7157 -0.6987
  926MOL0     H24996   3.041   9.648   8.440  1.4551  0.2753  3.0142
  926MOL0     H24997   2.977   9.504   8.257  0.3952 -0.0105 -0.9328
  926MOL0     H24998   3.267   9.075   7.909  0.1408  0.1489 -0.1574
  926MOL0     H24999   3.137   8.967   7.737 -0.4066 -0.6344  0.0628
  926MOL0     H25000   2.942   8.834   7.675 -1.8342 -2.8847 -1.3307
  926MOL0     H25001   2.785   8.876   7.702  1.9327 -2.1247  0.8880
  926MOL0     H25002   2.721   8.857   7.480  1.0199  0.4174  2.0855
  926MOL0     H25003   2.831   8.727   7.498 -1.6425 -0.3629 -2.7125
  926MOL0     H25004   2.912   8.995   7.375 -1.2996 -0.0192 -3.9270
  926MOL0     H25005   2.880   8.845   7.294 -1.9907 -1.1197  0.8412
  926MOL0     H25006   3.109   8.871   7.485  1.6047  4.0763 -1.5766
  926MOL0     H25007   3.123   8.881   7.318 -1.5199  0.7727  1.1407
  926MOL0     H25008   3.050   8.467   7.315  1.3476 -1.1948  1.0941
  926MOL0     H25009   2.803   9.225   7.809  1.3957  1.7981  0.7085
  926MOL0     H25010   2.921   9.339   7.979 -0.8095  0.0479 -1.1056
  927MOL0     O25011   5.939   3.989   3.919  0.2245  0.7109  0.2152
  927MOL0     C25012   5.983   3.956   4.032  0.7932 -0.8575  0.0789
  927MOL0     O25013   5.910   3.899   4.134 -0.0934 -0.2963 -0.2265
  927MOL0     C25014   5.782   3.861   4.093  0.6076  0.4152 -0.4474
  927MOL0     C25015   5.675   3.955   4.083 -0.0415  0.0629 -0.0798
  927MOL0     C25016   5.549   3.912   4.034 -0.4293  0.1818 -0.3188
  927MOL0     C25017   5.531   3.773   4.014  0.0545  1.0337  0.0474
  927MOL0     O25018   5.412   3.724   3.949  0.1772  0.1408 -0.2051
  927MOL0     C25019   5.286   3.804   3.960 -1.0221  0.7277 -0.7391
  927MOL0     C25020   5.159   3.742   3.908 -0.4665  0.4082 -0.8933
  927MOL0     C25021   5.157   3.600   3.965  0.0417 -0.4985  0.8585
  927MOL0     C25022   5.021   3.546   3.941  1.2259 -0.0155  0.0436
  927MOL0     C25023   5.005   3.398   3.954  0.4642 -0.5014 -0.7902
  927MOL0     C25024   4.867   3.371   3.913  0.9467  0.1672 -0.4570
  927MOL0     C25025   4.846   3.220   3.908  0.6951 -0.1783  0.7913
  927MOL0     C25026   4.700   3.179   3.856 -0.1327 -0.1586 -0.6079
  927MOL0     N25027   4.599   3.196   3.962 -0.3804 -0.5580 -0.1706
  927MOL0     C25028   4.573   3.101   4.050 -0.5677  0.1251  0.6310
  927MOL0     C25029   4.487   3.161   4.142 -1.1346  0.2755 -0.0121
  927MOL0     C25030   4.428   3.096   4.261  0.4669 -0.3032  0.6604
  927MOL0     C25031   4.281   3.043   4.249  0.1192 -0.1595  0.6205
  927MOL0     C25032   4.252   2.948   4.359 -0.2181  0.6097  0.2683
  927MOL0     C25033   4.103   2.907   4.367 -0.3243 -0.9605  0.1951
  927MOL0     O25034   4.091   2.791   4.455 -0.4288 -0.2118 -0.1625
  927MOL0     C25035   3.965   2.790   4.503  0.1249 -0.2354  0.5324
  927MOL0     C25036   3.867   2.736   4.424  0.3345  0.0060 -0.3789
  927MOL0     C25037   3.735   2.713   4.468  1.3083 -0.0450 -0.6887
  927MOL0     C25038   3.627   2.662   4.373  0.3512 -0.6007  1.2428
  927MOL0     C25039   3.705   2.756   4.606  0.5015  0.0640  0.1290
  927MOL0     C25040   3.567   2.771   4.663 -0.2134  0.7773 -1.0120
  927MOL0     O25041   3.458   2.753   4.590 -0.0391 -0.3840  0.4996
  927MOL0     C25042   3.330   2.757   4.649 -0.1697  0.4804 -0.9050
  927MOL0     C25043   3.240   2.661   4.600 -0.0324  0.1956  0.1264
  927MOL0     C25044   3.106   2.661   4.632 -0.7254  0.1981 -0.5554
  927MOL0     C25045   3.062   2.758   4.724  0.3675 -0.5556 -0.8166
  927MOL0     O25046   2.930   2.765   4.757  0.4433  0.6101  0.0179
  927MOL0     C25047   2.872   2.640   4.805 -0.0265 -0.3809 -0.2311
  927MOL0     C25048   2.798   2.665   4.932  0.3748 -0.2206 -0.5506
  927MOL0     C25049   2.773   2.537   5.013  0.5841  0.2996  0.1900
  927MOL0     C25050   2.655   2.455   4.959  0.3092  0.0794 -1.5027
  927MOL0     C25051   2.579   2.366   5.047 -0.0092  0.2292  0.2635
  927MOL0     C25052   2.460   2.304   4.974  1.0683 -1.7811  0.9338
  927MOL0     C25053   2.373   2.220   5.078  0.4345 -0.5638 -0.3107
  927MOL0     C25054   2.271   2.310   5.155  0.3294 -0.4254  0.2193
  927MOL0    Cl25055   2.131   2.214   5.213  0.3096  0.6082 -0.6460
  927MOL0     C25056   3.154   2.844   4.791  0.0933 -1.0726  0.1918
  927MOL0     C25057   3.285   2.844   4.750 -0.4610  0.1381  1.5808
  927MOL0     O25058   3.562   2.798   4.788  0.0442 -0.1091 -0.3610
  927MOL0     C25059   3.813   2.798   4.687 -0.6342 -0.5428 -0.1538
  927MOL0     C25060   3.943   2.820   4.635  0.4952 -0.7745 -0.3857
  927MOL0     N25061   4.453   3.286   4.098  0.2534 -0.5354  0.4274
  927MOL0     N25062   4.514   3.303   3.984 -0.0062  0.1490  0.4287
  927MOL0     C25063   5.639   3.688   4.047  0.0026  0.4090  0.2141
  927MOL0     C25064   5.763   3.726   4.085 -1.0470 -0.6357 -0.0314
  927MOL0     C25065   6.126   3.997   4.067  0.1301  0.5913 -0.4509
  927MOL0     C25066   6.217   4.034   3.962  0.6253  0.6918 -0.0573
  927MOL0     C25067   6.336   4.096   3.993 -0.2747  0.5619  0.6951
  927MOL0     C25068   6.379   4.108   4.125 -0.5803 -0.4190  0.8294
  927MOL0     O25069   6.501   4.163   4.164 -0.2977 -0.0904  0.0916
  927MOL0     C25070   6.614   4.147   4.079 -0.1345  0.0234 -0.9247
  927MOL0     C25071   6.744   4.133   4.164 -0.4152  0.6274 -0.3742
  927MOL0     C25072   6.754   4.256   4.264  0.0137 -0.2185  0.8214
  927MOL0     C25073   6.891   4.287   4.319  0.3900 -0.0283 -0.6670
  927MOL0     C25074   6.964   4.163   4.351  0.3112  0.0300 -0.5176
  927MOL0     C25075   7.021   4.061   4.371  0.0770  0.3963 -0.3147
  927MOL0     C25076   6.302   4.058   4.230  0.1291  0.4186  0.5630
  927MOL0     C25077   6.174   4.001   4.195  0.7350 -0.4108  0.4187
  927MOL0     H25078   5.684   4.061   4.099  0.6413 -0.0837  0.5525
  927MOL0     H25079   5.476   3.989   4.015 -0.1281  0.4609 -0.3540
  927MOL0     H25080   5.279   3.819   4.069  0.8394  0.3773 -0.5314
  927MOL0     H25081   5.301   3.901   3.913 -0.5561  0.6641 -0.7362
  927MOL0     H25082   5.081   3.804   3.954 -0.6115 -1.0601  0.9869
  927MOL0     H25083   5.162   3.749   3.799  0.3246  0.9635 -0.8419
  927MOL0     H25084   5.234   3.535   3.924  2.3008  0.2204  3.6926
  927MOL0     H25085   5.196   3.618   4.065  1.8637  4.4057 -0.4210
  927MOL0     H25086   4.969   3.596   4.023 -1.6819 -2.7736  0.0803
  927MOL0     H25087   4.975   3.579   3.848  0.1144  1.2089  0.9757
  927MOL0     H25088   5.062   3.343   3.878  0.0553 -0.7683 -0.9032
  927MOL0     H25089   5.037   3.367   4.054  2.3004  1.4243 -0.6998
  927MOL0     H25090   4.794   3.424   3.976 -0.5943 -1.7823 -0.5036
  927MOL0     H25091   4.861   3.404   3.809 -0.0415  2.8072  0.3272
  927MOL0     H25092   4.919   3.170   3.844  0.5545 -0.0199  0.5019
  927MOL0     H25093   4.849   3.178   4.009  2.3050  0.8330  1.1911
  927MOL0     H25094   4.695   3.072   3.833  0.4013 -0.5750  1.0846
  927MOL0     H25095   4.666   3.235   3.768 -4.4358 -0.2042  0.7955
  927MOL0     H25096   4.602   2.996   4.047  2.5030  0.8244  1.8120
  927MOL0     H25097   4.488   3.013   4.299  0.8586 -0.1199  0.4533
  927MOL0     H25098   4.421   3.164   4.346  0.6153  1.5800 -0.7559
  927MOL0     H25099   4.289   2.988   4.155 -2.8761 -1.7821  1.1970
  927MOL0     H25100   4.211   3.127   4.237  0.6910  0.0365 -1.7517
  927MOL0     H25101   4.296   2.989   4.450  2.1068 -0.1554 -0.4159
  927MOL0     H25102   4.301   2.851   4.343 -0.6506  0.6930 -1.7709
  927MOL0     H25103   4.084   2.889   4.260 -0.3551  4.0293 -0.8773
  927MOL0     H25104   4.036   2.991   4.389 -1.2010 -1.4993 -0.3385
  927MOL0     H25105   3.890   2.705   4.322 -2.1522  0.0560 -1.0091
  927MOL0     H25106   3.575   2.754   4.344  0.4859 -0.8811  0.0716
  927MOL0     H25107   3.668   2.614   4.284 -1.4470 -0.9984  0.5842
  927MOL0     H25108   3.557   2.593   4.421  0.5802 -2.3737 -0.8201
  927MOL0     H25109   3.275   2.586   4.531  0.4208  2.4898 -2.2979
  927MOL0     H25110   3.036   2.601   4.575  0.1894 -0.1941 -1.2983
  927MOL0     H25111   2.804   2.613   4.725 -0.4730 -0.2619  0.1046
  927MOL0     H25112   2.953   2.568   4.816  1.6809  1.4927  0.2436
  927MOL0     H25113   2.861   2.730   4.993 -1.8204 -0.1131  1.7520
  927MOL0     H25114   2.700   2.714   4.927 -0.6228 -1.6157  2.5349
  927MOL0     H25115   2.758   2.560   5.119  1.6701  0.3229  0.3495
  927MOL0     H25116   2.859   2.468   5.013 -0.9802 -1.8349  2.5629
  927MOL0     H25117   2.582   2.520   4.909 -1.1268  0.6908  1.1554
  927MOL0     H25118   2.702   2.389   4.885  3.0153 -0.7420  0.7825
  927MOL0     H25119   2.535   2.417   5.133 -0.9230  1.2148 -0.7538
  927MOL0     H25120   2.645   2.283   5.075  0.4336 -0.4324 -2.4221
  927MOL0     H25121   2.400   2.385   4.932  1.2045 -2.1751 -0.0419
  927MOL0     H25122   2.492   2.237   4.894 -1.5817 -3.0048  0.7975
  927MOL0     H25123   2.435   2.171   5.153 -2.0659  1.2000  3.2476
  927MOL0     H25124   2.312   2.144   5.029 -0.9673 -1.5233  2.7225
  927MOL0     H25125   2.232   2.390   5.091 -2.8249 -1.2530  0.8985
  927MOL0     H25126   2.328   2.371   5.225  1.6033  1.1472 -2.0570
  927MOL0     H25127   3.113   2.921   4.856 -2.2357  0.1066 -2.4786
  927MOL0     H25128   3.342   2.933   4.776 -3.2830  2.8805 -0.7430
  927MOL0     H25129   3.801   2.812   4.794  0.1877  2.3866 -0.3772
  927MOL0     H25130   4.029   2.844   4.697  0.8641 -3.3345  0.1960
  927MOL0     H25131   5.636   3.583   4.019 -1.3677  0.7720 -1.1161
  927MOL0     H25132   5.851   3.664   4.103  1.1460  1.1360 -3.4875
  927MOL0     H25133   6.195   4.032   3.856  0.5226 -1.2936 -0.0440
  927MOL0     H25134   6.391   4.134   3.907  3.9774 -0.3207  2.7453
  927MOL0     H25135   6.600   4.056   4.019 -0.9859 -1.4688  1.3994
  927MOL0     H25136   6.623   4.220   3.998 -1.2091  0.1035 -0.9783
  927MOL0     H25137   6.829   4.130   4.096 -1.7025  0.5500 -2.0386
  927MOL0     H25138   6.741   4.034   4.210  0.3607  0.7798  0.0165
  927MOL0     H25139   6.689   4.246   4.352  1.8605  3.6508  2.9137
  927MOL0     H25140   6.717   4.341   4.205  0.9336  0.6947  1.5247
  927MOL0     H25141   6.885   4.352   4.406 -0.1293 -2.0497  0.8954
  927MOL0     H25142   6.944   4.345   4.244  3.7416 -1.2263  0.5810
  927MOL0     H25143   7.077   3.982   4.417 -0.6485  0.1959  0.2384
  927MOL0     H25144   6.328   4.080   4.334  0.4751 -0.6436  0.7113
  927MOL0     H25145   6.108   3.958   4.269  0.6096  1.5430  1.5163
  928MOL0     O25146   0.734   1.905   2.443  0.2654 -0.1120  0.4497
  928MOL0     C25147   0.711   1.815   2.361  0.1527 -0.7007 -0.1990
  928MOL0     O25148   0.689   1.821   2.218 -0.2047 -0.5224 -1.1839
  928MOL0     C25149   0.741   1.916   2.143  0.2218 -1.2126  0.2264
  928MOL0     C25150   0.851   1.998   2.175 -0.2200 -0.0906  0.5076
  928MOL0     C25151   0.885   2.097   2.085 -0.3915 -0.5156 -0.1129
  928MOL0     C25152   0.816   2.122   1.968  0.5721 -0.2888  0.0788
  928MOL0     O25153   0.862   2.198   1.868 -0.1950  0.4668  0.1935
  928MOL0     C25154   0.946   2.309   1.902 -0.3888 -0.1854 -0.2603
  928MOL0     C25155   0.977   2.398   1.790 -0.0925 -0.3136  0.0467
  928MOL0     C25156   1.118   2.360   1.734  0.5172  0.2605  0.5555
  928MOL0     C25157   1.137   2.227   1.679  0.2548 -0.0998  0.7574
  928MOL0     C25158   1.288   2.206   1.641 -0.1107  0.4007 -0.2714
  928MOL0     C25159   1.339   2.310   1.538  0.3708 -0.0225 -0.3075
  928MOL0     C25160   1.490   2.282   1.522  0.6095 -0.6609 -0.0255
  928MOL0     C25161   1.557   2.334   1.395  0.1161  0.4726 -0.3200
  928MOL0     N25162   1.598   2.475   1.414  0.5655  0.5381 -0.3280
  928MOL0     C25163   1.721   2.509   1.459  0.8508 -0.3965  0.0747
  928MOL0     C25164   1.712   2.641   1.485  0.2793  0.3368  0.5430
  928MOL0     C25165   1.814   2.733   1.535  0.7607  0.2922  0.2949
  928MOL0     C25166   1.847   2.708   1.688  0.3902 -0.2287 -0.0096
  928MOL0     C25167   1.732   2.778   1.768 -0.2840  0.6910  0.2656
  928MOL0     C25168   1.723   2.720   1.912  0.4681  0.1670 -0.6139
  928MOL0     O25169   1.692   2.578   1.911 -0.0605 -0.5027 -0.4854
  928MOL0     C25170   1.615   2.522   2.007 -0.2780 -0.6190 -0.2276
  928MOL0     C25171   1.591   2.572   2.131 -0.0613  0.0470 -0.7094
  928MOL0     C25172   1.516   2.516   2.236 -0.4187 -0.0590  0.3229
  928MOL0     C25173   1.478   2.608   2.358  0.0348 -0.4756  0.3188
  928MOL0     C25174   1.459   2.394   2.210 -0.0385 -0.9163  1.3796
  928MOL0     C25175   1.374   2.317   2.311  0.2888 -0.4382  0.6315
  928MOL0     O25176   1.423   2.301   2.434 -0.1686  0.6326 -0.1547
  928MOL0     C25177   1.343   2.262   2.532  0.3484  0.0205  0.2293
  928MOL0     C25178   1.334   2.120   2.565  0.4339  0.2939 -0.9292
  928MOL0     C25179   1.264   2.078   2.681  1.1230 -0.1160  0.3775
  928MOL0     C25180   1.204   2.179   2.758  0.4039  0.1957  0.2853
  928MOL0     O25181   1.155   2.168   2.890 -0.3189  0.7861  0.3180
  928MOL0     C25182   1.162   2.039   2.954  0.3339 -0.4577  0.6820
  928MOL0     C25183   1.306   1.998   2.991 -0.2811 -0.2838  0.2534
  928MOL0     C25184   1.385   2.117   3.036  0.0888  1.2344 -0.7741
  928MOL0     C25185   1.535   2.070   3.070  0.7128  0.1706 -0.3164
  928MOL0     C25186   1.632   2.179   3.079 -1.0612 -0.4013  1.3428
  928MOL0     C25187   1.622   2.265   3.210  0.5683  0.3198  0.3830
  928MOL0     C25188   1.761   2.330   3.250 -0.5204  0.8454  0.0378
  928MOL0     C25189   1.746   2.461   3.326 -0.1443  0.3254 -0.2437
  928MOL0    Cl25190   1.698   2.601   3.214 -0.3027  0.6244 -0.1573
  928MOL0     C25191   1.207   2.318   2.713  0.4615 -0.5669  0.6235
  928MOL0     C25192   1.269   2.358   2.602 -0.2314 -0.0905  0.4711
  928MOL0     O25193   1.272   2.266   2.265  0.3448 -0.6289 -0.1274
  928MOL0     C25194   1.464   2.339   2.076  0.4282  0.3839 -0.1118
  928MOL0     C25195   1.550   2.400   1.982  0.3074  0.2202 -0.0271
  928MOL0     N25196   1.578   2.683   1.455  0.4093 -0.2675 -0.2120
  928MOL0     N25197   1.515   2.580   1.405  0.1540  0.4156  0.2288
  928MOL0     C25198   0.693   2.052   1.944 -0.9740  0.3353 -0.5162
  928MOL0     C25199   0.663   1.945   2.034  0.8930 -0.6128  0.3103
  928MOL0     C25200   0.700   1.685   2.416  0.5586 -0.3396  0.4878
  928MOL0     C25201   0.730   1.659   2.547  0.6514  1.3941 -0.7331
  928MOL0     C25202   0.704   1.535   2.607  0.6166  0.6225 -0.2577
  928MOL0     C25203   0.658   1.427   2.536  0.0127  0.7456 -0.4939
  928MOL0     O25204   0.637   1.301   2.597  0.5413  0.6953  0.3807
  928MOL0     C25205   0.581   1.198   2.526 -0.6773  0.0989  1.0431
  928MOL0     C25206   0.560   1.075   2.616 -0.2377  0.0822  0.0139
  928MOL0     C25207   0.493   1.093   2.749 -0.1297 -0.2179  0.2864
  928MOL0     C25208   0.473   0.958   2.827 -0.0829 -0.2442  0.7111
  928MOL0     C25209   0.595   0.916   2.901  0.0574  0.1302  0.2161
  928MOL0     C25210   0.677   0.860   2.964 -0.0623 -0.9416 -0.6693
  928MOL0     C25211   0.641   1.443   2.394 -0.0504 -0.0361  0.1829
  928MOL0     C25212   0.661   1.575   2.334 -0.6739 -0.3803 -0.2882
  928MOL0     H25213   0.902   1.979   2.269  1.8787  3.9230  0.4158
  928MOL0     H25214   0.967   2.164   2.108 -0.2955  0.6808 -3.4019
  928MOL0     H25215   0.904   2.377   1.977  1.3325  1.6343 -0.8634
  928MOL0     H25216   1.042   2.277   1.944  0.7726  1.0486 -1.8586
  928MOL0     H25217   0.889   2.387   1.725 -0.8136  2.3377  0.4349
  928MOL0     H25218   0.978   2.506   1.808 -0.6891 -0.3104  0.0718
  928MOL0     H25219   1.141   2.429   1.652  0.2073  1.7367  1.6640
  928MOL0     H25220   1.185   2.383   1.817  0.3384  1.5879  0.3642
  928MOL0     H25221   1.100   2.156   1.753 -1.1118  2.0003  2.2119
  928MOL0     H25222   1.078   2.205   1.590  1.0972  1.0583 -0.1145
  928MOL0     H25223   1.347   2.205   1.734  0.3325  0.7197 -0.5409
  928MOL0     H25224   1.291   2.107   1.596 -1.7364 -0.3688  1.2058
  928MOL0     H25225   1.288   2.321   1.442 -1.0589  1.0942  0.5277
  928MOL0     H25226   1.337   2.409   1.585 -1.0413  1.1711 -2.6895
  928MOL0     H25227   1.545   2.307   1.614 -1.7725 -5.1460  2.9804
  928MOL0     H25228   1.495   2.173   1.529 -4.0408 -1.2427 -2.2258
  928MOL0     H25229   1.504   2.317   1.301 -0.5485  2.4391 -0.3431
  928MOL0     H25230   1.650   2.277   1.399  0.7087  1.2602 -1.9744
  928MOL0     H25231   1.809   2.446   1.458  0.0255 -1.5825 -0.3757
  928MOL0     H25232   1.909   2.714   1.485  1.6309  2.4464  1.0121
  928MOL0     H25233   1.789   2.838   1.517  0.5057  0.4611  1.5648
  928MOL0     H25234   1.945   2.747   1.718 -0.1624  1.1009  0.1606
  928MOL0     H25235   1.844   2.601   1.710  0.1739 -0.0808  0.6840
  928MOL0     H25236   1.633   2.768   1.722 -0.2337 -1.8095  0.5538
  928MOL0     H25237   1.759   2.883   1.779 -1.9529  1.2274 -0.3331
  928MOL0     H25238   1.660   2.780   1.977  1.5743 -2.0660  2.7937
  928MOL0     H25239   1.821   2.727   1.962 -0.2817 -0.2251  0.9661
  928MOL0     H25240   1.640   2.668   2.150 -0.0856 -0.0059 -0.3667
  928MOL0     H25241   1.523   2.576   2.453  0.6148 -2.1105 -0.4704
  928MOL0     H25242   1.511   2.711   2.347 -3.1742  1.0489  3.1268
  928MOL0     H25243   1.370   2.614   2.377  0.2602 -2.0205  2.5478
  928MOL0     H25244   1.392   2.055   2.499  0.3232  0.1485 -0.8854
  928MOL0     H25245   1.272   1.973   2.710 -0.6958 -0.8632 -1.5583
  928MOL0     H25246   1.098   2.043   3.042  0.5526 -0.2236  0.8315
  928MOL0     H25247   1.120   1.957   2.895  2.3705 -0.7751 -0.4298
  928MOL0     H25248   1.292   1.927   3.073 -2.6452 -1.3191 -0.9708
  928MOL0     H25249   1.361   1.954   2.908  2.3373  2.0540  0.5634
  928MOL0     H25250   1.351   2.161   3.131  3.1546  0.8929  0.6005
  928MOL0     H25251   1.400   2.206   2.974 -2.3494  1.9474 -0.4476
  928MOL0     H25252   1.539   2.016   3.165  2.1407  1.1914  0.2442
  928MOL0     H25253   1.579   1.999   3.000  1.2126 -1.9805  2.0016
  928MOL0     H25254   1.617   2.248   2.996  0.7361 -0.2107  1.1459
  928MOL0     H25255   1.728   2.127   3.073  0.4463  2.3429 -0.2326
  928MOL0     H25256   1.551   2.346   3.194  2.1285  1.3896 -1.6662
  928MOL0     H25257   1.596   2.211   3.301  0.6232  1.3653  1.0273
  928MOL0     H25258   1.816   2.353   3.159  2.2226  1.4821  1.7242
  928MOL0     H25259   1.819   2.257   3.307 -2.5016 -1.2595 -0.4879
  928MOL0     H25260   1.841   2.481   3.378  0.8096  0.3061 -1.9157
  928MOL0     H25261   1.663   2.441   3.394 -0.7011 -0.9359 -1.2516
  928MOL0     H25262   1.165   2.398   2.773  0.6304  0.6030 -0.7864
  928MOL0     H25263   1.273   2.460   2.566  0.6910 -1.0110 -2.3131
  928MOL0     H25264   1.417   2.246   2.047  0.6729  1.0937 -3.0123
  928MOL0     H25265   1.575   2.358   1.885  1.4047  1.3910 -0.2777
  928MOL0     H25266   0.634   2.077   1.856 -2.9769  0.0521  0.6938
  928MOL0     H25267   0.573   1.888   2.015  1.2640 -1.4712  1.0696
  928MOL0     H25268   0.764   1.734   2.617 -0.8239  0.7857  0.7144
  928MOL0     H25269   0.723   1.509   2.711  1.2124 -1.4563 -0.8430
  928MOL0     H25270   0.486   1.229   2.481  0.0234  1.6356  0.5691
  928MOL0     H25271   0.652   1.166   2.449 -2.6811 -0.2489 -0.7875
  928MOL0     H25272   0.663   1.045   2.637 -0.8455 -2.1451  0.1078
  928MOL0     H25273   0.510   0.989   2.569  2.1027 -2.1118  1.3065
  928MOL0     H25274   0.392   1.119   2.717 -0.4167 -2.5358 -0.8951
  928MOL0     H25275   0.538   1.177   2.805  0.0665 -0.9787  1.3075
  928MOL0     H25276   0.450   0.878   2.755 -0.6790  2.4458 -2.3031
  928MOL0     H25277   0.393   0.975   2.900  0.9310  0.7396  1.6353
  928MOL0     H25278   0.762   0.822   3.016  0.5544  1.5734  0.3025
  928MOL0     H25279   0.582   1.369   2.342 -1.4322  1.7835 -0.9713
  928MOL0     H25280   0.645   1.580   2.226 -0.0120  1.5564 -0.3281
  929MOL0     O25281   4.479   6.678   3.071 -0.0510 -0.0277  0.7892
  929MOL0     C25282   4.431   6.744   2.978 -0.6054 -1.3665 -0.5881
  929MOL0     O25283   4.367   6.862   2.999  0.6141 -0.1670  0.2191
  929MOL0     C25284   4.363   6.932   3.115 -0.2519  0.4330 -0.8261
  929MOL0     C25285   4.475   6.971   3.183  0.4225  0.0688 -1.1990
  929MOL0     C25286   4.465   7.031   3.311  0.3568  0.4131  0.4775
  929MOL0     C25287   4.344   7.031   3.373  0.7637  0.0616  0.3701
  929MOL0     O25288   4.321   7.087   3.494 -0.1925  0.4416  0.5463
  929MOL0     C25289   4.419   7.075   3.593  0.0528  0.1343 -1.4076
  929MOL0     C25290   4.382   7.101   3.733  0.6684  0.1405  0.8693
  929MOL0     C25291   4.254   7.036   3.778  0.0152  0.8075 -0.2801
  929MOL0     C25292   4.184   7.094   3.909 -0.5602 -0.2780 -0.9203
  929MOL0     C25293   4.027   7.120   3.888 -0.6387  0.6520  0.1827
  929MOL0     C25294   3.966   7.166   4.017 -0.1410  0.0012 -1.0174
  929MOL0     C25295   3.819   7.200   3.999  0.1649  0.2816  0.9318
  929MOL0     C25296   3.739   7.169   4.131 -0.3798  0.4750  0.2632
  929MOL0     N25297   3.804   7.214   4.255 -0.6513 -0.4486  0.1009
  929MOL0     C25298   3.826   7.347   4.288  0.6262 -0.7815  0.2809
  929MOL0     C25299   3.837   7.339   4.427 -0.3056  0.1023 -0.0750
  929MOL0     C25300   3.858   7.467   4.500  0.8117 -0.1181 -0.3628
  929MOL0     C25301   3.756   7.509   4.607 -0.1281 -0.7811 -0.6399
  929MOL0     C25302   3.814   7.617   4.700 -0.1052 -0.2014 -0.7973
  929MOL0     C25303   3.837   7.749   4.629  0.0213  1.1215 -0.0043
  929MOL0     O25304   3.721   7.805   4.566 -0.1417 -0.5339  0.4939
  929MOL0     C25305   3.747   7.922   4.498  0.0109 -0.2112 -1.0209
  929MOL0     C25306   3.698   7.924   4.373  0.4497 -0.6679  0.5821
  929MOL0     C25307   3.708   8.038   4.288  0.0766  0.0940 -0.4539
  929MOL0     C25308   3.641   8.038   4.154 -0.0093 -1.0143  0.6227
  929MOL0     C25309   3.782   8.152   4.336 -0.0673 -0.1201  0.2081
  929MOL0     C25310   3.795   8.280   4.264 -0.9829  0.1811 -0.6967
  929MOL0     O25311   3.782   8.392   4.341  0.2831  0.0652  0.0860
  929MOL0     C25312   3.786   8.514   4.275  0.3933 -0.3905  0.1217
  929MOL0     C25313   3.736   8.540   4.139 -0.3652  1.3254  0.4055
  929MOL0     C25314   3.744   8.660   4.082  0.9125  1.2391 -0.2930
  929MOL0     C25315   3.782   8.772   4.149 -1.1085 -1.1031  0.4629
  929MOL0     O25316   3.812   8.895   4.091  0.1972 -0.4680  0.0257
  929MOL0     C25317   3.748   8.928   3.964  0.2143  0.0859  0.5186
  929MOL0     C25318   3.599   8.973   3.981 -1.2186 -0.1825 -0.4008
  929MOL0     C25319   3.585   9.105   4.063  1.1604  0.0818 -0.5486
  929MOL0     C25320   3.646   9.235   4.017 -0.6083  0.0138 -0.2778
  929MOL0     C25321   3.605   9.267   3.872 -0.4131  0.2488 -0.3107
  929MOL0     C25322   3.660   9.401   3.833  0.2517 -0.5916  0.6872
  929MOL0     C25323   3.642   9.422   3.676 -0.0914 -0.8491  0.6977
  929MOL0     C25324   3.500   9.409   3.639  0.6056 -1.2628 -0.7969
  929MOL0    Cl25325   3.483   9.481   3.475  0.0027  0.0511  0.0061
  929MOL0     C25326   3.821   8.754   4.285  0.3875 -0.1708 -0.4691
  929MOL0     C25327   3.821   8.624   4.343 -0.4096 -0.0552 -0.8202
  929MOL0     O25328   3.848   8.281   4.155  0.3937  0.5691 -0.7047
  929MOL0     C25329   3.849   8.139   4.460 -1.1007 -0.7531 -0.1529
  929MOL0     C25330   3.843   8.025   4.536  0.5243  0.4845 -0.1227
  929MOL0     N25331   3.809   7.218   4.469 -0.5318  0.2985  0.2461
  929MOL0     N25332   3.796   7.137   4.367 -0.7635 -0.3723 -0.0204
  929MOL0     C25333   4.230   6.996   3.304 -0.2991 -0.6741  0.2188
  929MOL0     C25334   4.237   6.947   3.172  1.2999  0.3072  0.5195
  929MOL0     C25335   4.456   6.705   2.845  0.4825  1.0957  0.5536
  929MOL0     C25336   4.386   6.748   2.727  0.2696  0.2863  0.3882
  929MOL0     C25337   4.450   6.729   2.600  1.2561 -0.5173  0.7392
  929MOL0     C25338   4.576   6.658   2.590  0.5531 -0.2961  0.0553
  929MOL0     O25339   4.651   6.640   2.480  0.0980 -0.0164  0.3337
  929MOL0     C25340   4.619   6.700   2.351 -0.0736 -0.2487  0.1352
  929MOL0     C25341   4.734   6.693   2.259  0.0380  0.3883  1.1361
  929MOL0     C25342   4.684   6.714   2.119  1.0495 -0.4193  0.3107
  929MOL0     C25343   4.794   6.702   2.003  0.0852 -0.0467 -0.1375
  929MOL0     C25344   4.818   6.549   1.988  0.1953 -0.4937 -0.8326
  929MOL0     C25345   4.848   6.435   1.979  0.2705 -0.7245  0.6520
  929MOL0     C25346   4.635   6.612   2.705 -0.0880 -0.1511  0.1954
  929MOL0     C25347   4.570   6.624   2.826  0.3419 -0.1242  0.5306
  929MOL0     H25348   4.572   6.954   3.136  2.2889  1.4322  1.7798
  929MOL0     H25349   4.556   7.060   3.363  0.1822  1.5503  0.1702
  929MOL0     H25350   4.463   6.975   3.606  0.5398  0.4247 -0.7476
  929MOL0     H25351   4.500   7.148   3.585  2.8256 -1.2869  5.7687
  929MOL0     H25352   4.466   7.066   3.793 -0.3639 -1.3712  1.5116
  929MOL0     H25353   4.356   7.207   3.741  0.3826  0.1361  0.0496
  929MOL0     H25354   4.176   7.046   3.703 -0.9678 -1.2798  0.3847
  929MOL0     H25355   4.264   6.927   3.791 -0.9339  0.6747 -0.6310
  929MOL0     H25356   4.179   7.025   3.994 -1.1383 -0.2394 -0.9162
  929MOL0     H25357   4.218   7.193   3.940 -1.0450  0.2056 -1.8863
  929MOL0     H25358   4.017   7.196   3.811  0.2434 -0.0732 -0.6755
  929MOL0     H25359   3.982   7.027   3.851  0.2297  0.5030 -0.5345
  929MOL0     H25360   3.976   7.082   4.086  1.0939  1.6726  0.9446
  929MOL0     H25361   4.018   7.257   4.047  2.1659 -0.9324 -1.9789
  929MOL0     H25362   3.813   7.307   3.975  0.9432 -0.0901 -1.1018
  929MOL0     H25363   3.783   7.151   3.909 -0.8767  1.4306  0.6890
  929MOL0     H25364   3.736   7.060   4.140  2.5725  0.2099 -0.7801
  929MOL0     H25365   3.643   7.219   4.143 -0.5130 -0.1378  2.0518
  929MOL0     H25366   3.807   7.424   4.215  3.3621 -1.0980 -0.9149
  929MOL0     H25367   3.954   7.462   4.553  0.4906  2.8578  0.7368
  929MOL0     H25368   3.877   7.548   4.429  3.6374 -1.0865 -0.8346
  929MOL0     H25369   3.734   7.425   4.674  3.2340 -1.7754 -0.5545
  929MOL0     H25370   3.667   7.532   4.549 -0.1174 -1.9351 -1.1462
  929MOL0     H25371   3.909   7.578   4.737  0.0349  1.5802  0.8938
  929MOL0     H25372   3.744   7.621   4.783 -1.6049 -3.5895 -1.7251
  929MOL0     H25373   3.929   7.739   4.570 -1.2799  0.5542 -2.0190
  929MOL0     H25374   3.870   7.817   4.709  1.5121  0.0089  0.3880
  929MOL0     H25375   3.638   7.843   4.332  0.0780  0.5275 -1.3796
  929MOL0     H25376   3.724   8.020   4.085  0.8464  1.1498  0.9950
  929MOL0     H25377   3.570   7.956   4.145 -1.4017  0.4100 -5.0356
  929MOL0     H25378   3.593   8.130   4.120  2.1470  0.5030  1.4081
  929MOL0     H25379   3.683   8.468   4.078 -1.0289  0.2341  2.1949
  929MOL0     H25380   3.721   8.670   3.977 -2.9184 -0.8070  0.1488
  929MOL0     H25381   3.800   9.019   3.933  1.0364 -0.0088  1.5645
  929MOL0     H25382   3.760   8.848   3.891  0.2506  0.5802 -0.0225
  929MOL0     H25383   3.566   8.981   3.877 -0.3110 -1.5342 -0.8070
  929MOL0     H25384   3.547   8.894   4.035  1.6489 -2.7997 -1.1617
  929MOL0     H25385   3.615   9.086   4.167 -0.0775  0.1543 -0.1566
  929MOL0     H25386   3.478   9.127   4.067  1.3459  0.9813 -0.2671
  929MOL0     H25387   3.605   9.312   4.084 -0.6434 -0.3541  0.1314
  929MOL0     H25388   3.755   9.229   4.025 -0.3220  1.5556 -2.1807
  929MOL0     H25389   3.496   9.258   3.867 -0.6419 -2.0991  3.7758
  929MOL0     H25390   3.648   9.194   3.803  1.8064  1.0483  0.1357
  929MOL0     H25391   3.607   9.482   3.882 -0.6624 -0.5048 -0.4116
  929MOL0     H25392   3.767   9.419   3.852  0.6999 -0.4541 -1.6992
  929MOL0     H25393   3.697   9.353   3.612  0.5184 -0.7984  1.1476
  929MOL0     H25394   3.684   9.519   3.645 -0.3670 -0.6660  0.8903
  929MOL0     H25395   3.435   9.463   3.708  2.5745 -0.2468  0.3660
  929MOL0     H25396   3.476   9.302   3.643 -1.8362 -0.7476  2.5031
  929MOL0     H25397   3.848   8.842   4.342 -0.5559  0.6312 -1.2201
  929MOL0     H25398   3.865   8.608   4.441  0.2184  1.5119 -0.8293
  929MOL0     H25399   3.917   8.213   4.502 -1.1074 -1.9648  2.1539
  929MOL0     H25400   3.890   8.029   4.634  2.5529  0.0605 -1.0223
  929MOL0     H25401   4.136   7.006   3.357 -0.9229 -0.5884 -0.8664
  929MOL0     H25402   4.149   6.919   3.115  1.0555 -1.0876  1.5267
  929MOL0     H25403   4.290   6.798   2.728  0.5554  0.8670 -0.5010
  929MOL0     H25404   4.404   6.768   2.510 -1.2799 -2.6871  0.9512
  929MOL0     H25405   4.534   6.640   2.316 -0.0057  0.3085 -1.0411
  929MOL0     H25406   4.581   6.802   2.357  0.6169 -0.0723  2.0574
  929MOL0     H25407   4.784   6.596   2.266 -0.3864 -0.6070 -4.5369
  929MOL0     H25408   4.810   6.768   2.280 -1.7984  1.6933  3.6282
  929MOL0     H25409   4.651   6.818   2.112  1.0562 -0.0847  3.6222
  929MOL0     H25410   4.603   6.641   2.106  0.4182  0.3825 -0.3798
  929MOL0     H25411   4.886   6.752   2.034 -0.9736  2.2117 -0.3726
  929MOL0     H25412   4.763   6.756   1.913  2.0401 -0.2561 -0.9766
  929MOL0     H25413   4.870   6.331   1.963  1.0000 -0.4310 -0.3400
  929MOL0     H25414   4.739   6.581   2.699 -0.7678 -3.0119  1.1608
  929MOL0     H25415   4.638   6.586   2.901  1.1117 -0.5953 -0.3855
  930MOL0     O25416   6.652  11.123   6.917 -0.0147 -0.4682 -0.1712
  930MOL0     C25417   6.644  11.066   7.023 -0.5925  0.2904  0.4311
  930MOL0     O25418   6.532  11.016   7.078 -0.2470  0.2548  0.1986
  930MOL0     C25419   6.419  11.075   7.033 -0.3135  0.3695  1.2708
  930MOL0     C25420   6.361  11.185   7.099 -0.6913 -0.3229  0.3202
  930MOL0     C25421   6.247  11.249   7.047 -1.5061 -0.0622 -0.3873
  930MOL0     C25422   6.183  11.190   6.945  0.5981 -0.5027  1.1134
  930MOL0     O25423   6.058  11.255   6.910 -0.9097 -0.6315  0.8843
  930MOL0     C25424   5.964  11.166   6.876  0.2920 -0.3843 -1.0797
  930MOL0     C25425   5.832  11.244   6.894 -0.3313  0.9822 -0.2895
  930MOL0     C25426   5.833  11.367   6.794 -0.5639 -0.3378 -0.1062
  930MOL0     C25427   5.700  11.445   6.808 -1.0282  0.4477  0.6354
  930MOL0     C25428   5.706  11.555   6.707  0.1548  0.2096 -0.0594
  930MOL0     C25429   5.585  11.646   6.698  0.0158  0.1459  0.1122
  930MOL0     C25430   5.459  11.590   6.634 -0.2528  0.3321 -0.0942
  930MOL0     C25431   5.345  11.687   6.618 -0.0188 -0.0083 -0.2598
  930MOL0     N25432   5.242  11.650   6.717  0.3873 -0.1084 -0.7687
  930MOL0     C25433   5.219  11.727   6.830  0.5806 -0.1410  0.7968
  930MOL0     C25434   5.106  11.681   6.885 -0.7384 -0.3008 -0.3957
  930MOL0     C25435   5.059  11.725   7.017  0.0583  0.1801  0.1621
  930MOL0     C25436   5.136  11.677   7.136 -0.1709 -0.3213 -0.5703
  930MOL0     C25437   5.146  11.534   7.150  0.0760  0.4444 -0.3729
  930MOL0     C25438   5.016  11.451   7.140  1.2140 -1.6544 -0.9996
  930MOL0     O25439   5.059  11.314   7.127 -0.1335 -0.6773 -0.6839
  930MOL0     C25440   5.083  11.248   7.250 -0.7253 -0.6050 -0.2537
  930MOL0     C25441   5.105  11.111   7.237  0.8175 -1.1196  0.5473
  930MOL0     C25442   5.147  11.025   7.338  0.5742 -0.5188 -0.9618
  930MOL0     C25443   5.197  10.891   7.303 -0.5674  0.2070 -0.2933
  930MOL0     C25444   5.138  11.075   7.474 -0.4448 -0.4875  0.7871
  930MOL0     C25445   5.169  10.989   7.588 -0.0767 -0.0870  0.8826
  930MOL0     O25446   5.150  10.857   7.572 -0.3564 -0.2676  0.7104
  930MOL0     C25447   5.160  10.770   7.668  0.5784  0.0073  1.1616
  930MOL0     C25448   5.169  10.639   7.626 -0.2330  0.8493  0.1021
  930MOL0     C25449   5.157  10.530   7.720  0.8073 -0.0169  0.3222
  930MOL0     C25450   5.131  10.557   7.852 -0.3183 -0.0834 -0.4176
  930MOL0     O25451   5.127  10.470   7.956 -0.1560  0.0464 -0.2259
  930MOL0     C25452   5.178  10.343   7.934  0.4565  0.2491 -1.0179
  930MOL0     C25453   5.235  10.289   8.067  0.4811 -0.1558  0.1484
  930MOL0     C25454   5.144  10.272   8.190  0.1594 -0.3475  0.3443
  930MOL0     C25455   5.214  10.328   8.312  1.0652 -0.0061 -0.3120
  930MOL0     C25456   5.116  10.360   8.425 -0.7747 -0.6538 -0.2024
  930MOL0     C25457   5.050  10.231   8.483 -0.4202 -0.9754 -0.2605
  930MOL0     C25458   5.144  10.121   8.528  0.6696 -1.2958  0.3154
  930MOL0     C25459   5.069  10.009   8.606  0.5589  0.4476 -0.5035
  930MOL0    Cl25460   5.190   9.891   8.672 -0.6914 -0.1531  0.6666
  930MOL0     C25461   5.127  10.694   7.889 -0.2378 -0.2442  0.0538
  930MOL0     C25462   5.150  10.799   7.802 -1.2427 -0.5406  0.3588
  930MOL0     O25463   5.226  11.046   7.684  0.2767  0.8491  0.3208
  930MOL0     C25464   5.110  11.219   7.488  0.3843  0.7437 -0.4119
  930MOL0     C25465   5.090  11.303   7.378  0.0781 -0.6201 -0.4015
  930MOL0     N25466   5.070  11.571   6.806 -0.1735  0.3928  0.6186
  930MOL0     N25467   5.138  11.562   6.703 -0.2513 -0.1012  0.8464
  930MOL0     C25468   6.234  11.072   6.879 -0.1160 -0.5456  0.1047
  930MOL0     C25469   6.355  11.012   6.925  0.3465 -0.7487 -0.1626
  930MOL0     C25470   6.766  11.037   7.101 -0.1432  0.2933 -0.6890
  930MOL0     C25471   6.771  10.923   7.178  0.3071 -0.7114 -0.7021
  930MOL0     C25472   6.890  10.865   7.231 -0.7821  0.1808  0.0492
  930MOL0     C25473   7.010  10.949   7.231  0.8679  1.5875  1.1512
  930MOL0     O25474   7.134  10.918   7.280 -0.1910  0.7060  0.3303
  930MOL0     C25475   7.136  10.801   7.365  0.2238  0.1431  0.2705
  930MOL0     C25476   7.282  10.774   7.410  0.8536 -0.0253 -0.6330
  930MOL0     C25477   7.352  10.700   7.296 -0.0564 -0.4443  0.9766
  930MOL0     C25478   7.494  10.684   7.323  0.2411  0.3710  0.1363
  930MOL0     C25479   7.559  10.607   7.223 -1.1988  0.9526  0.4229
  930MOL0     C25480   7.596  10.525   7.134  0.1309  0.0070 -0.5175
  930MOL0     C25481   6.996  11.068   7.151 -0.8946 -0.4634 -0.1993
  930MOL0     C25482   6.887  11.112   7.076  0.7874 -0.3512 -0.1140
  930MOL0     H25483   6.408  11.231   7.185 -3.0093  2.3372  0.2923
  930MOL0     H25484   6.213  11.340   7.096 -2.7234  0.0604 -1.4038
  930MOL0     H25485   5.953  11.129   6.774 -2.3067  2.1369 -1.8559
  930MOL0     H25486   5.961  11.090   6.954 -1.5181  1.4255  0.7596
  930MOL0     H25487   5.753  11.172   6.874  2.1911 -2.4023  0.8683
  930MOL0     H25488   5.833  11.282   6.996  0.0905  0.8844 -0.2518
  930MOL0     H25489   5.916  11.435   6.813 -0.4494 -0.7833  1.1199
  930MOL0     H25490   5.842  11.320   6.696 -0.6015  0.4333 -0.4807
  930MOL0     H25491   5.615  11.379   6.789 -0.6680  0.2159 -0.1876
  930MOL0     H25492   5.691  11.480   6.912 -0.5070  0.3053  0.7342
  930MOL0     H25493   5.794  11.618   6.728 -0.7400  1.7831 -0.8875
  930MOL0     H25494   5.729  11.512   6.609 -3.2477 -0.2581 -0.7516
  930MOL0     H25495   5.561  11.669   6.802 -0.2563 -0.9075  0.2947
  930MOL0     H25496   5.618  11.727   6.632  2.5413 -2.4025 -1.9890
  930MOL0     H25497   5.500  11.540   6.546  2.6670 -0.1867  1.4054
  930MOL0     H25498   5.430  11.504   6.695 -0.0703 -2.3520 -3.4623
  930MOL0     H25499   5.303  11.671   6.518 -3.3523 -2.3114  1.3212
  930MOL0     H25500   5.378  11.791   6.610 -0.3227  0.0539 -0.7380
  930MOL0     H25501   5.282  11.812   6.854 -1.1625  1.4052  0.1413
  930MOL0     H25502   5.063  11.835   7.013 -0.5133  0.1729 -2.9792
  930MOL0     H25503   4.955  11.693   7.026 -0.0606 -0.5099 -2.6611
  930MOL0     H25504   5.096  11.729   7.224 -0.8345  0.7792 -1.4894
  930MOL0     H25505   5.240  11.712   7.135 -0.8206  2.0517  2.1582
  930MOL0     H25506   5.186  11.507   7.249 -0.3836  0.2820 -0.2288
  930MOL0     H25507   5.208  11.505   7.065  1.2947  1.8595 -0.0141
  930MOL0     H25508   4.967  11.488   7.049 -0.0553 -1.1450 -0.1265
  930MOL0     H25509   4.943  11.460   7.220  2.4793 -0.7107  0.0856
  930MOL0     H25510   5.119  11.070   7.138  0.5096  0.1737 -0.0447
  930MOL0     H25511   5.110  10.827   7.321  0.7203 -1.2188  1.2821
  930MOL0     H25512   5.226  10.886   7.198 -0.2867  1.1688 -0.2670
  930MOL0     H25513   5.289  10.863   7.356 -0.6694 -1.3332 -0.8860
  930MOL0     H25514   5.183  10.615   7.521  0.0448  2.5544 -0.2708
  930MOL0     H25515   5.163  10.435   7.666 -0.9517  1.2683 -2.3498
  930MOL0     H25516   5.086  10.297   7.896 -1.9406  1.7605  2.4389
  930MOL0     H25517   5.259  10.336   7.860 -0.0434  1.6988 -1.7581
  930MOL0     H25518   5.272  10.190   8.038 -0.1742  0.1291 -1.8522
  930MOL0     H25519   5.327  10.344   8.089  0.9001 -0.9256  0.3451
  930MOL0     H25520   5.106  10.170   8.195  0.2557 -0.7345 -3.6057
  930MOL0     H25521   5.063  10.346   8.182 -0.8605 -1.4428  0.3950
  930MOL0     H25522   5.289  10.255   8.344 -1.2981 -2.1524  0.6676
  930MOL0     H25523   5.269  10.421   8.292  2.5902 -0.2920  2.2156
  930MOL0     H25524   5.049  10.441   8.394  0.0099  0.2882  0.5229
  930MOL0     H25525   5.173  10.397   8.510  3.4412 -3.5081 -1.4640
  930MOL0     H25526   5.001  10.264   8.575  2.7419  1.5881  0.7020
  930MOL0     H25527   4.978  10.193   8.410  2.7454 -1.1707 -3.5662
  930MOL0     H25528   5.216  10.173   8.592  0.1084  0.5093 -0.4610
  930MOL0     H25529   5.189  10.067   8.445 -1.8922 -3.5815  0.2675
  930MOL0     H25530   4.995   9.953   8.546 -1.0986 -0.8488  2.5228
  930MOL0     H25531   5.020  10.046   8.696  0.3122 -0.6487 -0.1774
  930MOL0     H25532   5.095  10.708   7.992 -2.6043 -1.7985 -0.4082
  930MOL0     H25533   5.151  10.900   7.842 -1.5232 -0.7309  0.8486
  930MOL0     H25534   5.092  11.256   7.589  0.0160  2.8746 -1.2113
  930MOL0     H25535   5.076  11.409   7.398  1.0738 -0.7378  1.0635
  930MOL0     H25536   6.189  11.039   6.786 -0.1211  2.3491 -1.0401
  930MOL0     H25537   6.401  10.935   6.865  2.6266  1.1910 -1.0418
  930MOL0     H25538   6.686  10.857   7.191 -3.3154  3.8187  1.4218
  930MOL0     H25539   6.886  10.768   7.279  0.6864  1.1233  2.2446
  930MOL0     H25540   7.080  10.834   7.454  1.1766  2.3807  0.1140
  930MOL0     H25541   7.093  10.715   7.315  0.6417 -0.0611  0.2605
  930MOL0     H25542   7.276  10.704   7.494 -0.9761  0.5210 -0.2853
  930MOL0     H25543   7.340  10.861   7.441  1.2304 -0.4552 -0.1039
  930MOL0     H25544   7.342  10.767   7.210  0.8995  1.9980  2.6632
  930MOL0     H25545   7.305  10.604   7.274  0.3528 -0.1711 -1.2723
  930MOL0     H25546   7.497  10.627   7.416  0.1324  0.4746  0.2028
  930MOL0     H25547   7.534  10.786   7.325  0.7868  0.1777 -0.5560
  930MOL0     H25548   7.632  10.449   7.068  0.7766 -0.7231  0.6364
  930MOL0     H25549   7.090  11.121   7.137 -0.1558 -1.0786  2.0740
  930MOL0     H25550   6.892  11.201   7.014 -0.2993 -0.2471 -0.0731
  931MOL0     O25551   6.031   5.212   4.158 -0.1953 -0.4801 -0.1949
  931MOL0     C25552   6.099   5.275   4.075  0.8781  0.4421 -0.0078
  931MOL0     O25553   6.236   5.274   4.073 -0.9988 -0.4740 -0.3476
  931MOL0     C25554   6.305   5.221   4.182 -0.0431  0.0862 -0.4887
  931MOL0     C25555   6.283   5.095   4.236  1.1312  0.1897 -0.2008
  931MOL0     C25556   6.367   5.041   4.335  0.1421  0.0615  0.1920
  931MOL0     C25557   6.473   5.111   4.386 -1.0757 -1.1366 -0.9888
  931MOL0     O25558   6.551   5.065   4.492 -0.3573 -0.1151 -0.1132
  931MOL0     C25559   6.537   4.936   4.541  0.9951  0.0854 -0.6469
  931MOL0     C25560   6.620   4.918   4.665 -1.1160  0.5430 -0.9018
  931MOL0     C25561   6.639   4.769   4.716 -0.1796 -0.5938  0.3531
  931MOL0     C25562   6.740   4.773   4.834 -0.5162  0.4795 -0.7175
  931MOL0     C25563   6.759   4.650   4.924 -0.4863  0.9389  0.2622
  931MOL0     C25564   6.863   4.655   5.038 -0.4362  0.4057  0.3224
  931MOL0     C25565   6.852   4.790   5.121 -1.5670 -0.7991 -0.0802
  931MOL0     C25566   6.936   4.777   5.250 -0.6790 -0.3249  0.0255
  931MOL0     N25567   6.950   4.891   5.337  0.3556  1.3467 -0.2598
  931MOL0     C25568   7.027   5.000   5.326  1.0957 -1.4426  0.2389
  931MOL0     C25569   7.018   5.070   5.442 -1.2218 -0.0659  1.0591
  931MOL0     C25570   7.087   5.200   5.452  0.0017  0.4965 -0.3451
  931MOL0     C25571   7.183   5.194   5.576 -0.0272  0.2451 -0.8696
  931MOL0     C25572   7.276   5.322   5.560 -0.3578  0.9504  0.9525
  931MOL0     C25573   7.212   5.446   5.608 -0.0139 -0.6383  0.1488
  931MOL0     O25574   7.186   5.454   5.748  0.2784  0.2014  0.6317
  931MOL0     C25575   7.283   5.495   5.829 -0.1969 -0.5630  0.7783
  931MOL0     C25576   7.369   5.407   5.888 -0.0739 -0.4395 -0.3634
  931MOL0     C25577   7.464   5.453   5.974 -0.1998 -0.0493  0.5540
  931MOL0     C25578   7.538   5.355   6.059  0.0169 -0.1312  0.6839
  931MOL0     C25579   7.492   5.594   5.985 -0.0705 -0.5534 -0.5050
  931MOL0     C25580   7.597   5.651   6.067 -0.0187 -0.3770  1.1858
  931MOL0     O25581   7.582   5.786   6.102  0.1210  0.3698 -0.6042
  931MOL0     C25582   7.673   5.854   6.185 -0.3379 -0.2796  0.6478
  931MOL0     C25583   7.773   5.925   6.125 -0.8865 -0.3110 -0.1326
  931MOL0     C25584   7.861   6.001   6.212 -0.8951 -0.7832  0.2066
  931MOL0     C25585   7.851   6.009   6.347  0.0098 -0.7545 -0.1448
  931MOL0     O25586   7.940   6.104   6.405 -0.3272  0.5021 -0.3529
  931MOL0     C25587   8.050   6.042   6.475  0.3307  0.0867  0.4416
  931MOL0     C25588   8.128   6.155   6.541  0.4992 -0.1234 -0.1170
  931MOL0     C25589   8.218   6.113   6.645 -0.3067 -0.2286  0.4527
  931MOL0     C25590   8.275   6.234   6.725  0.3596  0.0439  0.6633
  931MOL0     C25591   8.425   6.225   6.761  0.3910 -0.3685  0.7278
  931MOL0     C25592   8.516   6.243   6.630 -0.0506  0.7228 -0.7892
  931MOL0     C25593   8.673   6.256   6.670  0.0086  1.1057  0.0850
  931MOL0     C25594   8.767   6.223   6.548  0.2337 -0.3881  0.0630
  931MOL0    Cl25595   8.779   6.342   6.417 -0.2251 -0.1552 -0.2931
  931MOL0     C25596   7.746   5.938   6.405  0.8985  1.2631 -0.3855
  931MOL0     C25597   7.653   5.871   6.322  0.7946  0.6451 -0.0372
  931MOL0     O25598   7.694   5.580   6.097 -0.2368 -1.2388 -0.5390
  931MOL0     C25599   7.398   5.677   5.923 -0.2367  0.7959  0.0737
  931MOL0     C25600   7.284   5.633   5.859  0.3883 -0.7416 -0.3004
  931MOL0     N25601   6.938   5.003   5.525  0.0972 -0.4716  0.2731
  931MOL0     N25602   6.907   4.889   5.470 -0.5146  0.1300 -0.3783
  931MOL0     C25603   6.498   5.240   4.332 -0.5604  0.2242 -0.3669
  931MOL0     C25604   6.413   5.302   4.232 -0.1176 -0.1000  0.3328
  931MOL0     C25605   6.027   5.377   3.991 -0.2364  0.1059  1.1613
  931MOL0     C25606   5.888   5.402   3.988  0.2017  1.0585  0.4056
  931MOL0     C25607   5.834   5.511   3.927 -0.2000 -0.5093  0.4735
  931MOL0     C25608   5.921   5.602   3.859 -0.3077 -0.4061 -0.1660
  931MOL0     O25609   5.873   5.711   3.789 -0.1784  0.5604 -0.0347
  931MOL0     C25610   5.754   5.777   3.840 -0.3277  0.1524 -0.2615
  931MOL0     C25611   5.782   5.857   3.975 -0.8952 -0.9586 -0.3862
  931MOL0     C25612   5.886   5.961   3.952 -0.0710  0.5759 -0.2702
  931MOL0     C25613   5.949   6.018   4.079 -0.6038 -0.0817  0.4469
  931MOL0     C25614   6.092   6.063   4.056 -0.2075 -0.5620  0.6725
  931MOL0     C25615   6.200   6.103   4.030 -0.0915 -0.0307  1.2888
  931MOL0     C25616   6.057   5.590   3.865  0.4058  0.6273  0.5836
  931MOL0     C25617   6.111   5.474   3.928  0.0901 -0.5040  0.6177
  931MOL0     H25618   6.202   5.039   4.191  0.1876  0.8464  0.6212
  931MOL0     H25619   6.350   4.936   4.358 -1.1554  0.2400  0.1058
  931MOL0     H25620   6.441   4.921   4.593  2.2899  1.9576  2.6268
  931MOL0     H25621   6.547   4.855   4.469 -2.3962 -1.9756  0.9608
  931MOL0     H25622   6.719   4.954   4.634 -0.9567  0.8545 -0.0562
  931MOL0     H25623   6.584   4.978   4.749  4.3134 -0.5695  2.6950
  931MOL0     H25624   6.547   4.731   4.761  0.7716 -2.2140  1.0079
  931MOL0     H25625   6.671   4.708   4.632  0.0667  0.1393 -0.0903
  931MOL0     H25626   6.836   4.806   4.795  0.3702 -0.8683  0.2313
  931MOL0     H25627   6.705   4.845   4.908 -1.4403 -1.3088  0.6604
  931MOL0     H25628   6.663   4.617   4.965  0.3132 -1.3631  0.4158
  931MOL0     H25629   6.785   4.566   4.860  0.6728 -0.2937  2.2385
  931MOL0     H25630   6.856   4.565   5.099  0.2022 -0.1271 -0.3667
  931MOL0     H25631   6.966   4.660   5.003  0.8038 -1.8125  3.3602
  931MOL0     H25632   6.871   4.876   5.056 -2.9525 -0.4004  0.0072
  931MOL0     H25633   6.745   4.806   5.139 -1.0165  0.1845  2.8279
  931MOL0     H25634   7.037   4.741   5.225 -0.8921 -2.6121  2.0844
  931MOL0     H25635   6.882   4.702   5.308 -2.4814  1.0466  0.1807
  931MOL0     H25636   7.073   5.027   5.232  3.4601 -0.3743  1.6147
  931MOL0     H25637   7.143   5.209   5.359 -0.5741 -0.8700 -0.8427
  931MOL0     H25638   7.017   5.284   5.458  0.5593  0.8617  2.2017
  931MOL0     H25639   7.244   5.103   5.570 -1.3792 -1.0514  2.6621
  931MOL0     H25640   7.132   5.183   5.672 -1.8994 -1.2599 -1.9522
  931MOL0     H25641   7.318   5.317   5.459 -2.7530 -2.1997 -0.0642
  931MOL0     H25642   7.360   5.300   5.627 -0.4210  3.2131  1.8392
  931MOL0     H25643   7.121   5.468   5.553 -1.7561  2.2222  3.7037
  931MOL0     H25644   7.284   5.527   5.591  0.2548 -0.8367  0.3274
  931MOL0     H25645   7.371   5.302   5.859  4.1494  0.0770 -2.7943
  931MOL0     H25646   7.519   5.369   6.166 -1.5190  0.6913  0.3391
  931MOL0     H25647   7.493   5.257   6.039 -1.1291  0.2987  1.0483
  931MOL0     H25648   7.645   5.354   6.036  0.6397 -0.9223  3.2528
  931MOL0     H25649   7.777   5.921   6.017 -0.2791 -1.6389 -0.0804
  931MOL0     H25650   7.932   6.073   6.172 -0.0992 -1.3838  0.5055
  931MOL0     H25651   8.014   5.980   6.558  0.0168 -2.7404 -1.6702
  931MOL0     H25652   8.120   5.992   6.408  2.4184  2.0801  1.0093
  931MOL0     H25653   8.185   6.213   6.469 -0.2347  0.5922 -0.1304
  931MOL0     H25654   8.058   6.228   6.582 -0.0331  0.1855 -1.5136
  931MOL0     H25655   8.300   6.056   6.600 -0.5259  0.4268 -0.8246
  931MOL0     H25656   8.171   6.045   6.716 -2.2757  1.0620  0.4588
  931MOL0     H25657   8.251   6.326   6.671  0.5932  0.0883  0.6353
  931MOL0     H25658   8.215   6.239   6.816 -0.6792 -2.0093  0.1552
  931MOL0     H25659   8.440   6.129   6.811  2.0201 -2.4466 -3.3172
  931MOL0     H25660   8.457   6.295   6.839  1.0857 -2.5506  2.5314
  931MOL0     H25661   8.496   6.153   6.570 -2.2927  0.0942  0.7572
  931MOL0     H25662   8.465   6.322   6.575 -3.5963 -0.6264  0.2489
  931MOL0     H25663   8.704   6.181   6.743  1.2587  1.8436  0.3557
  931MOL0     H25664   8.698   6.354   6.713  0.7746 -0.2411  2.9780
  931MOL0     H25665   8.748   6.123   6.507 -1.4476 -0.1015  0.0974
  931MOL0     H25666   8.867   6.215   6.593 -0.0225 -0.2729  0.6502
  931MOL0     H25667   7.732   5.946   6.512  2.9476  1.8542 -0.1294
  931MOL0     H25668   7.567   5.823   6.368 -0.5625 -0.1620 -3.1685
  931MOL0     H25669   7.404   5.783   5.949 -3.0038  0.5365  2.2614
  931MOL0     H25670   7.207   5.704   5.831  0.3178 -0.4311  0.6529
  931MOL0     H25671   6.588   5.289   4.367 -0.3529  0.7928 -1.6311
  931MOL0     H25672   6.431   5.403   4.197  2.0841  1.1331  4.4047
  931MOL0     H25673   5.827   5.327   4.039  0.6861 -0.4560 -1.1260
  931MOL0     H25674   5.727   5.529   3.932  0.3277  3.7923 -0.1324
  931MOL0     H25675   5.725   5.854   3.768 -2.5688 -0.9437 -0.6162
  931MOL0     H25676   5.666   5.713   3.851  0.5752 -1.3130 -1.1845
  931MOL0     H25677   5.814   5.785   4.051  0.4556 -1.2888 -1.2216
  931MOL0     H25678   5.688   5.904   4.003 -1.0519  0.8603 -3.4745
  931MOL0     H25679   5.835   6.041   3.896 -0.2865 -1.4119 -3.1581
  931MOL0     H25680   5.964   5.930   3.881 -0.8447 -1.3916 -0.3257
  931MOL0     H25681   5.948   5.944   4.160  3.2660 -0.1461  0.6259
  931MOL0     H25682   5.893   6.105   4.115  0.2763  0.0284  1.5904
  931MOL0     H25683   6.302   6.132   4.015 -0.0884  1.0326  3.0303
  931MOL0     H25684   6.118   5.662   3.810  1.7548 -1.0290 -0.1864
  931MOL0     H25685   6.220   5.469   3.924  0.3291  2.5989  0.2957
  932MOL0     O25686   9.239  10.837   4.940  0.0759 -0.1806  0.6883
  932MOL0     C25687   9.306  10.732   4.942  0.6891 -0.7848 -0.5681
  932MOL0     O25688   9.296  10.638   4.852  0.0295  0.2044 -0.3736
  932MOL0     C25689   9.197  10.655   4.760  0.0118 -0.3928  0.9113
  932MOL0     C25690   9.084  10.582   4.780  0.0509  1.2995  0.6140
  932MOL0     C25691   8.981  10.592   4.687  0.6896  0.0694 -0.4531
  932MOL0     C25692   8.986  10.674   4.578  0.9460 -0.5975  0.2746
  932MOL0     O25693   8.890  10.701   4.486 -0.0987  0.6127  0.4939
  932MOL0     C25694   8.783  10.604   4.482 -0.1925  0.0380  0.2078
  932MOL0     C25695   8.671  10.646   4.398  0.0027  1.0745 -0.2001
  932MOL0     C25696   8.610  10.537   4.303  0.4015 -0.9840 -0.2322
  932MOL0     C25697   8.482  10.585   4.225 -0.4243  0.1630  0.5789
  932MOL0     C25698   8.424  10.455   4.165 -1.2933 -0.0002  0.7356
  932MOL0     C25699   8.295  10.483   4.094 -0.1074  0.4761 -0.9837
  932MOL0     C25700   8.238  10.355   4.025 -1.0133 -0.1853  0.1782
  932MOL0     C25701   8.165  10.262   4.122  0.1323  0.1577  0.1433
  932MOL0     N25702   8.109  10.142   4.071 -0.3697 -0.2145 -0.3700
  932MOL0     C25703   8.185  10.034   4.034 -0.1306 -0.4625 -0.1146
  932MOL0     C25704   8.090   9.938   4.005 -1.0937 -0.4819  0.9422
  932MOL0     C25705   8.121   9.808   3.936 -0.9498 -0.5904  0.5552
  932MOL0     C25706   8.194   9.713   4.028  0.3510  0.2332 -0.0005
  932MOL0     C25707   8.267   9.603   3.949  0.7046 -0.7561 -0.2728
  932MOL0     C25708   8.356   9.508   4.033 -0.0476  0.1573  0.4640
  932MOL0     O25709   8.449   9.436   3.948  0.5105 -0.1258  0.0095
  932MOL0     C25710   8.525   9.334   3.997 -0.2820  0.5223  0.1698
  932MOL0     C25711   8.539   9.310   4.131 -0.1006 -0.3509 -1.1701
  932MOL0     C25712   8.633   9.217   4.184 -0.1276  0.1988  0.5653
  932MOL0     C25713   8.646   9.227   4.335  0.2442  0.2120 -0.4215
  932MOL0     C25714   8.707   9.135   4.090  0.6084  0.1963  0.1015
  932MOL0     C25715   8.835   9.065   4.127 -0.2860  0.7335 -0.2264
  932MOL0     O25716   8.919   9.012   4.025  0.1334 -0.0269  0.0595
  932MOL0     C25717   9.038   8.958   4.065 -0.5178  0.5319 -1.2159
  932MOL0     C25718   9.065   8.830   4.024 -0.3483 -0.2388 -0.8207
  932MOL0     C25719   9.187   8.765   4.066 -0.2085  0.0922  0.3664
  932MOL0     C25720   9.284   8.828   4.136 -0.2459 -0.2477  0.5453
  932MOL0     O25721   9.412   8.778   4.153 -0.0452  0.6223  0.1491
  932MOL0     C25722   9.436   8.726   4.284  0.3424 -0.2958  1.1072
  932MOL0     C25723   9.587   8.690   4.290 -0.2544 -1.0037 -0.2391
  932MOL0     C25724   9.676   8.814   4.332  0.9929  0.6251  0.1963
  932MOL0     C25725   9.822   8.768   4.316  0.6038  0.2940  0.7613
  932MOL0     C25726   9.865   8.663   4.426  0.2619 -0.3673  0.2998
  932MOL0     C25727   9.856   8.519   4.374  0.8741 -0.6418 -0.2706
  932MOL0     C25728   9.897   8.417   4.481 -0.7217  0.3871  0.9717
  932MOL0     C25729   9.900   8.274   4.418  0.2975  0.0313 -0.0694
  932MOL0    Cl25730   9.760   8.201   4.342  0.5832 -0.0478 -0.2117
  932MOL0     C25731   9.258   8.961   4.159 -0.2006  0.6732 -0.7276
  932MOL0     C25732   9.136   9.025   4.126  0.0444  0.0124  0.2055
  932MOL0     O25733   8.853   9.051   4.247  0.3093 -0.5153 -0.1135
  932MOL0     C25734   8.671   9.146   3.952  0.3109  0.9954 -0.0834
  932MOL0     C25735   8.592   9.253   3.904 -1.1352 -0.1032  0.8056
  932MOL0     N25736   7.973   9.987   4.036  0.1705  0.2211  0.8494
  932MOL0     N25737   7.980  10.105   4.085 -0.8383 -0.9114  0.1670
  932MOL0     C25738   9.101  10.755   4.571 -0.0903 -0.1498  0.2850
  932MOL0     C25739   9.206  10.741   4.660  0.4850 -0.6670  0.3061
  932MOL0     C25740   9.412  10.720   5.050  0.2204 -0.4202  0.1189
  932MOL0     C25741   9.527  10.639   5.035 -0.1791 -0.1927 -0.4337
  932MOL0     C25742   9.629  10.636   5.130 -0.2877  0.0698 -0.1818
  932MOL0     C25743   9.617  10.717   5.242 -0.0907  0.1844 -1.0157
  932MOL0     O25744   9.708  10.712   5.351  0.3862 -0.2893  0.6187
  932MOL0     C25745   9.811  10.613   5.364 -0.7191  0.6227  0.1928
  932MOL0     C25746   9.866  10.638   5.508 -0.2437  0.6438  1.3880
  932MOL0     C25747   9.971  10.751   5.538 -0.2191 -0.9936 -0.0009
  932MOL0     C25748   9.995  10.756   5.690  0.0931 -0.5482  0.3084
  932MOL0     C25749  10.111  10.843   5.733  0.2771 -1.0606  0.1524
  932MOL0     C25750  10.207  10.905   5.778 -0.1123 -0.6393  0.4828
  932MOL0     C25751   9.498  10.791   5.265 -0.7678 -0.0251  0.3936
  932MOL0     C25752   9.401  10.797   5.166 -0.6463 -0.9188 -0.2495
  932MOL0     H25753   9.075  10.519   4.868  0.9947 -1.2281 -0.9973
  932MOL0     H25754   8.901  10.521   4.708  0.0783  0.3447 -1.7603
  932MOL0     H25755   8.829  10.512   4.443  2.2524  1.0308  0.5827
  932MOL0     H25756   8.742  10.586   4.582  0.3836  0.2160  0.4807
  932MOL0     H25757   8.587  10.689   4.454 -0.2163  1.2796 -0.6692
  932MOL0     H25758   8.699  10.738   4.346 -1.2736  1.9606  0.6014
  932MOL0     H25759   8.679  10.507   4.223  1.9833  2.5931 -0.3993
  932MOL0     H25760   8.579  10.456   4.370  0.0436 -1.8313 -1.3925
  932MOL0     H25761   8.406  10.634   4.286  0.8548 -0.3589  2.7008
  932MOL0     H25762   8.505  10.647   4.138 -1.0700 -1.9532 -1.1898
  932MOL0     H25763   8.484  10.403   4.089 -3.2358  0.2068 -1.0277
  932MOL0     H25764   8.413  10.374   4.238 -3.1968  0.3021  0.8290
  932MOL0     H25765   8.228  10.539   4.161  0.2591  0.4194 -0.5623
  932MOL0     H25766   8.312  10.558   4.017  1.0953  0.2126 -0.9885
  932MOL0     H25767   8.167  10.388   3.949 -0.8269  0.0874  0.1236
  932MOL0     H25768   8.314  10.291   3.980  0.5416  0.0446  2.3128
  932MOL0     H25769   8.081  10.306   4.177 -0.6568 -1.1796  0.0641
  932MOL0     H25770   8.242  10.249   4.199  0.1482  0.8323  0.2473
  932MOL0     H25771   8.291  10.025   4.018  0.2088 -2.7346  2.6074
  932MOL0     H25772   8.034   9.760   3.891 -0.6297 -0.6332 -0.0357
  932MOL0     H25773   8.196   9.837   3.861 -1.0904  1.9168  1.3064
  932MOL0     H25774   8.132   9.674   4.109  1.9920  1.7118  2.0874
  932MOL0     H25775   8.274   9.770   4.078  2.4047 -0.9995 -1.6883
  932MOL0     H25776   8.330   9.653   3.875 -1.2238 -0.3702 -1.7326
  932MOL0     H25777   8.199   9.533   3.899  1.0044 -1.3022  0.0749
  932MOL0     H25778   8.288   9.436   4.079 -1.2176  1.2506  0.5000
  932MOL0     H25779   8.414   9.565   4.106  1.3509  1.9799 -1.9254
  932MOL0     H25780   8.480   9.368   4.201  0.3604  3.4378 -3.6173
  932MOL0     H25781   8.666   9.135   4.390  3.5913  1.0745  0.0726
  932MOL0     H25782   8.737   9.285   4.356 -0.0216  1.5640 -2.6785
  932MOL0     H25783   8.563   9.280   4.383  0.6289 -1.6433  2.5532
  932MOL0     H25784   8.995   8.779   3.959  0.5396 -0.6965 -1.4423
  932MOL0     H25785   9.217   8.669   4.026 -2.9450 -0.9559  0.5776
  932MOL0     H25786   9.411   8.793   4.366  3.1209  0.0836  1.7695
  932MOL0     H25787   9.381   8.632   4.296  0.3072 -0.1411  2.1951
  932MOL0     H25788   9.599   8.624   4.377  1.7202  0.8495  0.9930
  932MOL0     H25789   9.625   8.660   4.193  0.0537  0.4713 -0.5971
  932MOL0     H25790   9.654   8.845   4.434  1.0046  4.5118 -0.8494
  932MOL0     H25791   9.656   8.909   4.283  1.7634  0.0562 -1.2820
  932MOL0     H25792   9.848   8.731   4.216 -1.2565  0.8896  0.0285
  932MOL0     H25793   9.875   8.861   4.337 -3.1940  2.8098  0.1741
  932MOL0     H25794   9.803   8.659   4.516 -1.3982 -2.2784 -0.8484
  932MOL0     H25795   9.974   8.676   4.435  0.4582 -1.1549 -0.8512
  932MOL0     H25796   9.750   8.501   4.359  0.4315  2.4773 -1.8627
  932MOL0     H25797   9.915   8.506   4.282 -1.9570  1.7780 -2.6363
  932MOL0     H25798   9.841   8.428   4.575  0.2209  0.7978  1.5012
  932MOL0     H25799  10.001   8.441   4.505 -0.4408  0.6912 -0.4621
  932MOL0     H25800   9.942   8.212   4.498  0.2548  0.7525  0.5270
  932MOL0     H25801   9.967   8.270   4.331  0.9596 -0.5227  0.4537
  932MOL0     H25802   9.329   9.030   4.204 -0.2595  1.6121 -2.0256
  932MOL0     H25803   9.114   9.131   4.140  1.8505  0.5245 -0.5142
  932MOL0     H25804   8.718   9.089   3.873 -1.3960  0.9120 -1.0865
  932MOL0     H25805   8.569   9.278   3.801  0.5677 -1.5377  0.0204
  932MOL0     H25806   9.099  10.828   4.491 -1.7691  0.5981  0.9692
  932MOL0     H25807   9.291  10.809   4.656  0.0700 -0.1591 -0.0094
  932MOL0     H25808   9.536  10.578   4.945 -1.2024  0.1757 -0.7960
  932MOL0     H25809   9.718  10.577   5.108  0.6893  2.4220 -3.1811
  932MOL0     H25810   9.768  10.515   5.342 -0.4597  0.7736 -1.0955
  932MOL0     H25811   9.900  10.632   5.302 -1.0118  0.1881 -0.3724
  932MOL0     H25812   9.895  10.540   5.547  1.5622 -0.3489 -2.0312
  932MOL0     H25813   9.781  10.662   5.573  0.0132  1.5166  1.4210
  932MOL0     H25814   9.935  10.842   5.489  1.7722 -1.8647 -3.4015
  932MOL0     H25815  10.064  10.732   5.483 -0.2969 -2.4649  0.3398
  932MOL0     H25816  10.009  10.657   5.736  1.4409  0.7812  2.9704
  932MOL0     H25817   9.906  10.797   5.737  0.4422 -2.5100  2.9110
  932MOL0     H25818  10.292  10.946   5.829  1.4986 -2.0546 -0.9093
  932MOL0     H25819   9.493  10.857   5.351  1.1000  1.0099 -0.2024
  932MOL0     H25820   9.310  10.852   5.188  0.8334  1.5271  0.2644
  933MOL0     O25821   3.302   4.591   2.731  0.5494 -0.2589  0.1785
  933MOL0     C25822   3.280   4.508   2.649 -0.5869 -0.6910  0.1733
  933MOL0     O25823   3.200   4.402   2.662  0.3879 -0.3307 -0.5815
  933MOL0     C25824   3.118   4.379   2.769  0.0418 -0.2038  0.7193
  933MOL0     C25825   3.081   4.240   2.791  0.2522 -0.8024  1.4427
  933MOL0     C25826   3.007   4.196   2.898  0.9185 -0.2753 -0.3145
  933MOL0     C25827   2.960   4.287   2.994  1.1218  0.7696 -0.1719
  933MOL0     O25828   2.895   4.241   3.111  1.0890  0.4497  0.6358
  933MOL0     C25829   2.976   4.166   3.206 -0.6758 -0.1357  0.6500
  933MOL0     C25830   2.891   4.106   3.317 -0.4590 -1.1051  0.5819
  933MOL0     C25831   2.982   4.024   3.414  0.2121 -0.4457  0.3542
  933MOL0     C25832   2.894   3.950   3.520 -0.2874 -0.3321  0.1294
  933MOL0     C25833   2.956   3.931   3.660  0.4436  1.3596  0.5476
  933MOL0     C25834   3.075   3.840   3.667 -0.5910  0.1116  0.0190
  933MOL0     C25835   3.027   3.690   3.655  0.1447 -0.8197  0.1289
  933MOL0     C25836   3.145   3.592   3.676  0.2139  0.4046 -0.0514
  933MOL0     N25837   3.104   3.458   3.639 -0.7584 -0.5226 -1.2430
  933MOL0     C25838   3.007   3.385   3.706 -0.5102  0.0456 -0.0824
  933MOL0     C25839   2.979   3.284   3.614  0.1582 -0.9673  0.5426
  933MOL0     C25840   2.862   3.183   3.623 -0.3113 -0.3678  0.8660
  933MOL0     C25841   2.894   3.043   3.564  0.3263  0.3939  0.1372
  933MOL0     C25842   3.008   2.966   3.633  0.0371  0.3788  0.2850
  933MOL0     C25843   3.072   2.852   3.552 -0.1764  0.6826 -0.5371
  933MOL0     O25844   3.091   2.744   3.638 -0.6738  1.2931 -0.0184
  933MOL0     C25845   2.986   2.655   3.669 -0.2864 -0.2367 -0.8954
  933MOL0     C25846   2.853   2.675   3.625 -0.3566 -0.1239 -0.2357
  933MOL0     C25847   2.740   2.596   3.666  0.4640 -0.0164  0.2898
  933MOL0     C25848   2.599   2.645   3.614 -0.5625  0.3585 -1.3874
  933MOL0     C25849   2.760   2.496   3.768  0.4951 -0.1041 -0.7920
  933MOL0     C25850   2.657   2.406   3.824  0.0753 -1.0203 -0.0873
  933MOL0     O25851   2.667   2.363   3.956  0.2747  0.0117  0.1125
  933MOL0     C25852   2.614   2.237   4.004  0.0615 -0.5493 -0.8090
  933MOL0     C25853   2.645   2.210   4.143 -0.5095  0.3741  0.5241
  933MOL0     C25854   2.579   2.105   4.200  0.9179  0.7217  0.0848
  933MOL0     C25855   2.498   2.022   4.127  1.3924  0.4890 -0.4401
  933MOL0     O25856   2.420   1.929   4.175  0.0741  0.2630  0.4387
  933MOL0     C25857   2.388   1.920   4.317  0.0966  0.6250 -0.4746
  933MOL0     C25858   2.303   1.795   4.341 -0.7099  0.0331  0.8618
  933MOL0     C25859   2.244   1.785   4.480  0.5107 -0.2922  0.5475
  933MOL0     C25860   2.089   1.772   4.463 -0.3428 -0.0613 -0.8557
  933MOL0     C25861   2.006   1.765   4.604 -0.7787 -0.3983  0.5583
  933MOL0     C25862   1.953   1.628   4.644  0.1278 -0.2307  0.4090
  933MOL0     C25863   1.954   1.632   4.797  0.0599  0.0164 -1.2051
  933MOL0     C25864   1.926   1.497   4.862 -0.5155  0.3933 -0.9847
  933MOL0    Cl25865   2.075   1.407   4.861 -0.4412  0.2221  0.1950
  933MOL0     C25866   2.487   2.030   3.993 -0.4367  1.0551 -1.4814
  933MOL0     C25867   2.549   2.140   3.930  0.8603  0.1818  0.1257
  933MOL0     O25868   2.555   2.381   3.749 -0.1052 -0.2519  0.3564
  933MOL0     C25869   2.892   2.481   3.816  0.3074  0.7326 -0.2035
  933MOL0     C25870   3.005   2.555   3.765  0.0427  0.0168  0.1930
  933MOL0     N25871   3.071   3.300   3.503 -0.1943 -0.0666 -0.0145
  933MOL0     N25872   3.142   3.400   3.521  0.1367  0.5167 -0.7353
  933MOL0     C25873   2.974   4.423   2.970  0.3765 -0.1644  0.3669
  933MOL0     C25874   3.054   4.464   2.857  0.9191 -0.9183 -1.4335
  933MOL0     C25875   3.345   4.531   2.519  1.2672 -0.6192  0.0338
  933MOL0     C25876   3.472   4.594   2.505  1.5146 -0.6960  1.0523
  933MOL0     C25877   3.527   4.623   2.381 -0.3563 -0.4406  0.5891
  933MOL0     C25878   3.460   4.590   2.263  1.1277  0.0330  0.5920
  933MOL0     O25879   3.488   4.637   2.133 -0.1748 -0.4204  0.2825
  933MOL0     C25880   3.626   4.675   2.095  0.4265  0.7908 -0.2294
  933MOL0     C25881   3.646   4.603   1.961  0.3441 -0.2649  0.6580
  933MOL0     C25882   3.785   4.626   1.904  0.8261 -1.0884  0.4675
  933MOL0     C25883   3.791   4.586   1.756  0.1906 -0.1297 -0.2481
  933MOL0     C25884   3.726   4.686   1.676  0.4301 -0.9893 -0.5822
  933MOL0     C25885   3.667   4.775   1.617 -0.0417  0.5924  0.7409
  933MOL0     C25886   3.333   4.522   2.276  0.1644  0.0357  0.0151
  933MOL0     C25887   3.277   4.497   2.402  0.2317 -0.1453 -0.3434
  933MOL0     H25888   3.109   4.167   2.716  0.4474 -0.3421  1.0611
  933MOL0     H25889   2.989   4.090   2.910 -2.1233  0.0748 -0.8304
  933MOL0     H25890   3.027   4.084   3.157 -4.0264 -2.6422  0.9804
  933MOL0     H25891   3.044   4.244   3.242  1.3100 -1.4531 -0.0764
  933MOL0     H25892   2.838   4.180   3.377  1.5614  1.1199 -0.2084
  933MOL0     H25893   2.812   4.049   3.267 -0.0716  0.0731 -1.5058
  933MOL0     H25894   3.046   3.950   3.366 -0.8639 -0.9644 -0.3163
  933MOL0     H25895   3.038   4.095   3.475 -0.9001  1.4995 -0.7824
  933MOL0     H25896   2.794   3.995   3.530 -0.1981 -0.4493  1.9364
  933MOL0     H25897   2.876   3.853   3.472 -1.5817 -0.1948  0.2855
  933MOL0     H25898   2.998   4.024   3.697 -0.8818  1.4892  1.8315
  933MOL0     H25899   2.876   3.894   3.725 -1.5379 -0.2898 -2.5496
  933MOL0     H25900   3.147   3.854   3.585  0.3035  0.2780  0.8160
  933MOL0     H25901   3.128   3.853   3.761  0.8399 -2.4325 -0.3440
  933MOL0     H25902   2.948   3.655   3.723  0.8905 -0.4590  1.2066
  933MOL0     H25903   2.997   3.668   3.552  0.7654  0.3285 -0.3106
  933MOL0     H25904   3.178   3.579   3.779  1.8920  2.2782 -0.2757
  933MOL0     H25905   3.232   3.634   3.625 -1.8314  2.6963 -1.8718
  933MOL0     H25906   2.949   3.392   3.797 -0.2698 -3.8981  0.5655
  933MOL0     H25907   2.821   3.174   3.724 -1.6431  2.4485  0.6934
  933MOL0     H25908   2.783   3.228   3.561 -0.3997 -0.9293  0.5700
  933MOL0     H25909   2.930   3.041   3.460  1.7288 -2.0318  0.5761
  933MOL0     H25910   2.798   2.994   3.578  0.1629  0.8081  0.4575
  933MOL0     H25911   2.974   2.939   3.733 -1.0407  0.0836 -0.1442
  933MOL0     H25912   3.083   3.042   3.658  1.3828 -1.0241  0.6608
  933MOL0     H25913   3.173   2.881   3.522  0.1589 -0.3876 -0.4765
  933MOL0     H25914   3.025   2.826   3.457  1.9356  1.6324 -1.9026
  933MOL0     H25915   2.834   2.759   3.559  0.8704 -0.8314 -1.5475
  933MOL0     H25916   2.615   2.724   3.539  0.5153 -0.2153 -1.7892
  933MOL0     H25917   2.543   2.559   3.577  2.2288 -1.6872 -1.2208
  933MOL0     H25918   2.539   2.681   3.698  0.5364  1.1156 -0.9036
  933MOL0     H25919   2.706   2.276   4.204 -0.1916  1.8878 -1.3458
  933MOL0     H25920   2.594   2.087   4.306 -0.3625  1.5238  0.4355
  933MOL0     H25921   2.484   1.926   4.369  0.8707  0.0263 -1.7656
  933MOL0     H25922   2.321   2.004   4.336 -0.6924 -0.5531  2.3929
  933MOL0     H25923   2.237   1.783   4.255  1.2638  1.7943 -0.9965
  933MOL0     H25924   2.374   1.712   4.333 -0.0320  0.5494  1.3580
  933MOL0     H25925   2.281   1.874   4.532 -0.2221  2.4647 -3.2211
  933MOL0     H25926   2.289   1.695   4.522 -0.2528 -1.9662 -1.9770
  933MOL0     H25927   2.059   1.866   4.416 -0.0225  0.7738  0.5428
  933MOL0     H25928   2.082   1.687   4.395  2.6666  0.2472 -1.7221
  933MOL0     H25929   1.909   1.816   4.594  0.1420  1.2627 -0.5618
  933MOL0     H25930   2.072   1.809   4.679  0.1856  2.3252 -1.6876
  933MOL0     H25931   1.848   1.620   4.615 -0.5648  2.4953  1.8684
  933MOL0     H25932   2.011   1.547   4.599 -0.2586 -1.3836  1.9217
  933MOL0     H25933   1.877   1.705   4.822 -0.1665 -0.2628 -1.0859
  933MOL0     H25934   2.052   1.658   4.838 -2.4078  0.8326  5.2124
  933MOL0     H25935   1.851   1.441   4.805 -0.5353 -2.2933  1.4807
  933MOL0     H25936   1.901   1.510   4.968  2.1181 -0.4785 -0.1793
  933MOL0     H25937   2.408   1.979   3.940 -0.9660 -1.4699  1.4820
  933MOL0     H25938   2.530   2.156   3.824 -0.3791  0.5993  0.3981
  933MOL0     H25939   2.902   2.411   3.898 -2.6637  1.5322  0.9897
  933MOL0     H25940   3.102   2.535   3.810  0.5157 -1.4309 -1.3490
  933MOL0     H25941   2.939   4.484   3.052 -0.9613 -0.7724  0.2743
  933MOL0     H25942   3.072   4.568   2.835 -1.6622 -0.3282 -1.0382
  933MOL0     H25943   3.513   4.626   2.600  2.9978  3.5948 -0.8013
  933MOL0     H25944   3.616   4.684   2.368 -0.0160 -1.1675 -0.6498
  933MOL0     H25945   3.633   4.784   2.088  2.3236  0.6288 -1.5259
  933MOL0     H25946   3.694   4.629   2.168  1.0089 -0.7278 -1.6723
  933MOL0     H25947   3.578   4.655   1.893  0.9522 -1.3579 -0.8438
  933MOL0     H25948   3.626   4.495   1.958  0.4396 -0.3059 -2.5693
  933MOL0     H25949   3.851   4.562   1.964  2.3869  0.5794  0.6054
  933MOL0     H25950   3.814   4.731   1.918  2.1533 -0.9451 -2.6570
  933MOL0     H25951   3.749   4.485   1.746  1.5630 -0.5985 -1.6019
  933MOL0     H25952   3.895   4.574   1.724 -0.6222 -2.1582 -2.4379
  933MOL0     H25953   3.622   4.860   1.569 -1.5179  0.2840  1.5204
  933MOL0     H25954   3.266   4.523   2.191 -2.8823  0.5443  2.2735
  933MOL0     H25955   3.178   4.452   2.404 -0.2455  0.6331 -3.1139
  934MOL0     O25956   4.444   6.127   8.555 -0.2731  0.3599  0.5014
  934MOL0     C25957   4.542   6.056   8.569  0.9331 -0.6006 -0.0592
  934MOL0     O25958   4.543   5.944   8.645 -0.5944 -0.2908 -0.2905
  934MOL0     C25959   4.445   5.905   8.735  0.0294  0.1740  0.3441
  934MOL0     C25960   4.337   5.983   8.778 -0.3265  0.3922 -0.1781
  934MOL0     C25961   4.235   5.932   8.864  1.3629  0.1957 -0.6178
  934MOL0     C25962   4.254   5.806   8.924 -0.1931  0.2166 -0.0250
  934MOL0     O25963   4.186   5.757   9.032  0.2679  0.4860 -0.0606
  934MOL0     C25964   4.045   5.801   9.042 -0.6350 -0.3960 -0.0059
  934MOL0     C25965   3.940   5.747   9.141 -0.9761 -0.1092 -0.2820
  934MOL0     C25966   3.940   5.826   9.272 -0.3803  0.8107 -0.3551
  934MOL0     C25967   3.913   5.969   9.276 -0.5770 -0.2618  0.2456
  934MOL0     C25968   3.933   6.013   9.421 -0.9490  0.1964 -0.2577
  934MOL0     C25969   3.913   6.162   9.456 -0.1077 -0.4604  0.0818
  934MOL0     C25970   3.770   6.180   9.488  0.0586  0.0016  0.2491
  934MOL0     C25971   3.738   6.335   9.454  0.1570  0.1878 -1.2662
  934MOL0     N25972   3.590   6.366   9.458 -0.3786  0.3565 -0.3256
  934MOL0     C25973   3.514   6.374   9.571  1.1970 -0.2947  0.2329
  934MOL0     C25974   3.384   6.379   9.524 -0.4537 -0.0233 -0.0011
  934MOL0     C25975   3.255   6.408   9.597 -1.2155 -0.0099  0.5054
  934MOL0     C25976   3.253   6.340   9.726 -0.4107  0.2634 -0.5639
  934MOL0     C25977   3.132   6.376   9.817  0.3418 -0.3106 -0.0017
  934MOL0     C25978   2.999   6.352   9.742  0.0797  0.0220 -0.1388
  934MOL0     O25979   2.972   6.217   9.700 -0.4944 -0.3188  0.7733
  934MOL0     C25980   2.925   6.126   9.792 -0.5387 -0.0546  0.1323
  934MOL0     C25981   2.796   6.137   9.825 -0.4700 -0.3296  0.4850
  934MOL0     C25982   2.721   6.046   9.905 -0.0810 -0.2163 -0.5655
  934MOL0     C25983   2.581   6.071   9.918 -0.0919  0.5390 -0.6479
  934MOL0     C25984   2.798   5.944   9.970  0.1522  0.4048  0.5256
  934MOL0     C25985   2.743   5.835  10.051 -0.2688 -0.6201  0.5078
  934MOL0     O25986   2.825   5.779  10.138  0.1082 -0.2498 -0.5733
  934MOL0     C25987   2.773   5.708  10.238 -0.5497  0.7261 -0.8271
  934MOL0     C25988   2.839   5.732  10.360  0.0925 -0.8230  1.2722
  934MOL0     C25989   2.799   5.656  10.471  0.5801  0.6834 -0.2103
  934MOL0     C25990   2.690   5.564  10.477 -0.2214  0.2204 -0.4186
  934MOL0     O25991   2.635   5.488  10.581  0.1787 -0.7733  0.9049
  934MOL0     C25992   2.672   5.519  10.721 -0.6381  1.2929  0.6142
  934MOL0     C25993   2.815   5.462  10.748  0.4502  0.0668  1.3081
  934MOL0     C25994   2.795   5.334  10.837 -0.4614  0.2698 -0.5730
  934MOL0     C25995   2.936   5.276  10.866  0.1868  1.3915  0.5620
  934MOL0     C25996   2.924   5.125  10.913 -0.9203  0.0607  0.6479
  934MOL0     C25997   2.845   5.107  11.044 -0.9407  0.3657 -0.4779
  934MOL0     C25998   2.822   4.963  11.078 -0.1199 -0.0032  0.1696
  934MOL0     C25999   2.943   4.872  11.083 -0.4738  0.1897  0.2889
  934MOL0    Cl26000   3.093   4.936  11.158  0.6064  0.1464 -0.2201
  934MOL0     C26001   2.645   5.524  10.348 -0.0972  0.5134 -0.8872
  934MOL0     C26002   2.680   5.596  10.235 -0.5561  0.2247  0.0506
  934MOL0     O26003   2.622   5.813  10.038 -0.3455 -0.5595  0.6049
  934MOL0     C26004   2.938   5.950   9.947 -0.9420 -0.3784  0.0533
  934MOL0     C26005   3.005   6.039   9.864 -0.5305  0.1198 -0.6154
  934MOL0     N26006   3.388   6.377   9.391  0.2567 -0.0859  0.6615
  934MOL0     N26007   3.508   6.357   9.352  0.0965  0.0425 -0.4468
  934MOL0     C26008   4.351   5.727   8.868 -0.1183  0.7635  0.0866
  934MOL0     C26009   4.455   5.773   8.785  0.1386  0.4057 -0.6094
  934MOL0     C26010   4.660   6.076   8.481  0.0885  0.4774  1.0700
  934MOL0     C26011   4.734   5.960   8.443 -0.6062 -0.0029  0.3157
  934MOL0     C26012   4.847   5.976   8.352  0.7391  0.1646  0.4438
  934MOL0     C26013   4.877   6.097   8.294  1.1260  0.3864  1.3703
  934MOL0     O26014   4.984   6.101   8.209 -0.7008 -0.5409 -0.6790
  934MOL0     C26015   5.054   6.227   8.228  0.0555 -0.2463 -0.0424
  934MOL0     C26016   5.199   6.209   8.206 -0.0735 -0.2460  1.3598
  934MOL0     C26017   5.276   6.131   8.312 -0.4676  0.3288  0.2520
  934MOL0     C26018   5.285   5.978   8.283  1.1460 -0.3975 -0.3354
  934MOL0     C26019   5.375   5.919   8.385 -0.3001  0.6648  0.4828
  934MOL0     C26020   5.455   5.866   8.463  0.2569 -0.1994 -0.0645
  934MOL0     C26021   4.790   6.206   8.322  0.4518  0.0137 -0.5529
  934MOL0     C26022   4.683   6.193   8.411 -0.0617 -0.0254  0.1839
  934MOL0     H26023   4.313   6.076   8.728 -1.9247  1.0685  1.7426
  934MOL0     H26024   4.148   5.995   8.880  1.8037  0.4917  0.7060
  934MOL0     H26025   4.045   5.910   9.044 -0.1610 -0.3549 -1.1662
  934MOL0     H26026   3.993   5.772   8.950  0.4470 -0.8654 -0.4981
  934MOL0     H26027   3.840   5.762   9.097 -0.4414  0.6001 -1.2997
  934MOL0     H26028   3.967   5.645   9.170 -0.7852 -0.1074 -0.4585
  934MOL0     H26029   3.861   5.780   9.332 -0.2015 -0.1522 -0.8429
  934MOL0     H26030   4.034   5.798   9.322 -0.0198  2.1701 -0.2301
  934MOL0     H26031   3.987   6.010   9.207  3.1708 -0.5653  3.7180
  934MOL0     H26032   3.809   5.996   9.253 -0.4104  2.3339  2.1133
  934MOL0     H26033   3.862   5.966   9.489 -0.9034  1.4846  0.7144
  934MOL0     H26034   4.033   5.988   9.457 -0.7771  0.9266 -0.2118
  934MOL0     H26035   3.980   6.182   9.539  0.4008 -3.2911  0.4506
  934MOL0     H26036   3.940   6.228   9.373  0.0095 -2.5788 -1.6362
  934MOL0     H26037   3.708   6.119   9.422 -0.2553  2.2271 -1.6724
  934MOL0     H26038   3.746   6.152   9.591 -3.4319 -1.6365 -0.8641
  934MOL0     H26039   3.778   6.368   9.358 -1.0510 -0.6711 -2.0892
  934MOL0     H26040   3.775   6.398   9.535 -0.7806  0.0244 -0.6943
  934MOL0     H26041   3.544   6.382   9.675 -1.0247 -1.1173  0.9752
  934MOL0     H26042   3.247   6.517   9.604 -0.9402  0.1794 -1.5285
  934MOL0     H26043   3.173   6.381   9.529 -1.3868  0.7250  0.4099
  934MOL0     H26044   3.345   6.348   9.784  0.8939 -5.9785 -0.9843
  934MOL0     H26045   3.262   6.231   9.719 -0.1312  0.0533  2.0265
  934MOL0     H26046   3.142   6.476   9.860  1.7130 -0.3298 -0.2289
  934MOL0     H26047   3.135   6.312   9.906 -0.1197  2.4908  2.1547
  934MOL0     H26048   2.994   6.418   9.655 -2.0958 -1.5273 -1.2785
  934MOL0     H26049   2.915   6.394   9.798  0.0244 -0.3848  0.0911
  934MOL0     H26050   2.752   6.227   9.785 -1.0044 -0.7849  0.0386
  934MOL0     H26051   2.543   5.984   9.864  3.3018 -1.1624 -0.5391
  934MOL0     H26052   2.556   6.074  10.025  2.2869  2.8388 -0.0612
  934MOL0     H26053   2.527   6.160   9.883 -4.2640 -1.5389 -0.1550
  934MOL0     H26054   2.919   5.805  10.371 -0.9624  0.6733 -0.3997
  934MOL0     H26055   2.853   5.682  10.562  0.7885  0.4331 -0.2598
  934MOL0     H26056   2.663   5.624  10.747 -1.4342  0.6628  3.1212
  934MOL0     H26057   2.597   5.464  10.778 -0.3028 -1.4885 -1.4133
  934MOL0     H26058   2.862   5.438  10.652 -1.0816  3.5335 -0.4865
  934MOL0     H26059   2.880   5.535  10.799  0.7549  1.7578 -1.3218
  934MOL0     H26060   2.734   5.258  10.787 -1.1689  0.0034  0.6482
  934MOL0     H26061   2.745   5.352  10.932 -0.0790  0.9442 -0.4955
  934MOL0     H26062   2.998   5.269  10.776 -2.5109 -3.9049 -1.3766
  934MOL0     H26063   2.987   5.332  10.944  1.0229  2.5151 -0.7540
  934MOL0     H26064   3.026   5.088  10.926 -1.0108 -0.8308 -0.9596
  934MOL0     H26065   2.876   5.067  10.834  0.9094 -1.4879  0.6061
  934MOL0     H26066   2.903   5.152  11.125 -0.5203 -2.7871  1.1218
  934MOL0     H26067   2.743   5.144  11.030 -1.5091 -1.3831 -1.3307
  934MOL0     H26068   2.744   4.922  11.014 -2.7647  1.8627  1.9662
  934MOL0     H26069   2.786   4.961  11.182 -3.5791 -2.4836 -0.9044
  934MOL0     H26070   2.970   4.850  10.979 -1.8317  0.0339 -0.0501
  934MOL0     H26071   2.918   4.778  11.131  1.4494 -1.6725 -2.0912
  934MOL0     H26072   2.567   5.450  10.334  0.1939  0.6756 -4.3636
  934MOL0     H26073   2.626   5.576  10.143 -1.8748  4.5796 -0.3689
  934MOL0     H26074   2.991   5.868   9.994 -2.0153 -0.7507  0.6365
  934MOL0     H26075   3.111   6.038   9.838  0.1210  0.2086  1.8131
  934MOL0     H26076   4.372   5.627   8.906  0.7887  0.9995  0.2281
  934MOL0     H26077   4.530   5.697   8.766 -0.9125 -0.2158 -2.5326
  934MOL0     H26078   4.720   5.860   8.483  0.5965 -0.8842 -1.3491
  934MOL0     H26079   4.902   5.890   8.314  0.9032  0.1463  0.7223
  934MOL0     H26080   5.021   6.303   8.156 -3.2220 -0.6699  0.8392
  934MOL0     H26081   5.039   6.276   8.325  2.3320  0.4261  0.0280
  934MOL0     H26082   5.221   6.316   8.202 -4.7030  0.9115  0.6915
  934MOL0     H26083   5.223   6.161   8.111 -0.4757 -2.6225  2.4032
  934MOL0     H26084   5.238   6.145   8.413 -0.5109  0.8693  0.1645
  934MOL0     H26085   5.377   6.172   8.306 -0.0017 -0.5743  1.5292
  934MOL0     H26086   5.323   5.980   8.180  0.8657  2.0619 -0.4562
  934MOL0     H26087   5.187   5.931   8.289  1.0251 -0.0036  1.8076
  934MOL0     H26088   5.521   5.819   8.533 -1.3500  0.1382  1.7604
  934MOL0     H26089   4.810   6.306   8.285 -0.6658  0.5030  0.1359
  934MOL0     H26090   4.613   6.275   8.429 -0.4264 -0.2047 -0.3749
  935MOL0     O26091  10.282   3.207   7.972  0.1759 -0.3438  0.5575
  935MOL0     C26092  10.227   3.099   7.974 -0.0230 -0.2781 -0.7964
  935MOL0     O26093  10.282   2.978   7.965 -0.7256  0.3577  0.0656
  935MOL0     C26094  10.423   2.961   7.984  0.1641 -0.1616 -0.9735
  935MOL0     C26095  10.514   3.036   8.060  0.5473  0.2600 -0.1573
  935MOL0     C26096  10.649   3.010   8.067 -0.6471 -0.3708 -0.0794
  935MOL0     C26097  10.702   2.903   8.003  0.4961  0.5372 -0.2629
  935MOL0     O26098  10.834   2.870   8.008 -0.2607  0.2520 -0.7371
  935MOL0     C26099  10.892   2.777   7.919 -1.0189 -0.5868  0.4058
  935MOL0     C26100  11.040   2.802   7.865 -0.0036 -0.3183  0.0174
  935MOL0     C26101  11.149   2.764   7.969 -0.5564  0.0242 -0.6162
  935MOL0     C26102  11.134   2.837   8.091 -0.0615  1.0960 -0.4521
  935MOL0     C26103  11.121   2.986   8.084 -0.6589  0.1138  0.7940
  935MOL0     C26104  11.146   3.049   8.217  0.6908  0.2423  0.6075
  935MOL0     C26105  11.143   3.196   8.205  0.1562 -0.5543  0.2387
  935MOL0     C26106  11.147   3.274   8.336 -0.1550 -0.7077  0.0160
  935MOL0     N26107  11.074   3.407   8.334 -0.5825  0.9356  0.0280
  935MOL0     C26108  10.936   3.408   8.299 -0.9829  0.7100 -0.0354
  935MOL0     C26109  10.921   3.545   8.311 -0.7621  0.0910  0.2928
  935MOL0     C26110  10.786   3.612   8.296 -0.1439 -0.3091  1.5622
  935MOL0     C26111  10.734   3.657   8.434 -0.4273  0.4626  0.3464
  935MOL0     C26112  10.632   3.774   8.430  0.5869  0.0604  0.1704
  935MOL0     C26113  10.592   3.825   8.572  0.3188 -0.0129 -0.0691
  935MOL0     O26114  10.539   3.720   8.654 -0.0811 -0.5701 -0.2345
  935MOL0     C26115  10.429   3.643   8.629  0.2230  0.1491 -0.6058
  935MOL0     C26116  10.418   3.533   8.705  1.0549 -0.5437 -0.5164
  935MOL0     C26117  10.303   3.451   8.694 -0.1175 -0.7405 -0.5057
  935MOL0     C26118  10.296   3.332   8.784  0.4059 -0.4724 -0.0465
  935MOL0     C26119  10.195   3.482   8.606  0.2161  0.4952  0.1836
  935MOL0     C26120  10.067   3.409   8.596  0.4176  1.0520 -0.2506
  935MOL0     O26121  10.071   3.271   8.583  1.0457 -0.2294 -0.4446
  935MOL0     C26122   9.955   3.208   8.558 -0.3919 -0.0483  0.1030
  935MOL0     C26123   9.889   3.135   8.667 -0.8859  0.7356  0.2697
  935MOL0     C26124   9.771   3.078   8.646  0.1814  0.3045 -0.2151
  935MOL0     C26125   9.702   3.090   8.519 -0.0854  0.5400  0.8616
  935MOL0     O26126   9.579   3.038   8.489 -0.1391  0.2405  1.0386
  935MOL0     C26127   9.469   3.134   8.493  0.7193  0.3924  0.4208
  935MOL0     C26128   9.368   3.080   8.390  0.1738  0.7681 -0.4631
  935MOL0     C26129   9.376   3.160   8.260  0.2048 -0.1008  0.3800
  935MOL0     C26130   9.344   3.308   8.280  0.3965 -0.5671  0.4650
  935MOL0     C26131   9.198   3.340   8.322 -0.9575  0.7684 -0.2364
  935MOL0     C26132   9.190   3.483   8.377 -1.4987 -0.2606 -0.0556
  935MOL0     C26133   9.086   3.513   8.488 -0.1423 -0.1979 -0.5466
  935MOL0     C26134   9.131   3.623   8.585 -0.4029 -0.1218 -0.3668
  935MOL0    Cl26135   8.999   3.667   8.695 -0.3994 -0.0083  0.0416
  935MOL0     C26136   9.763   3.164   8.414 -0.2447 -0.0212  0.0056
  935MOL0     C26137   9.892   3.223   8.434  0.7073  0.2785 -0.7441
  935MOL0     O26138   9.960   3.479   8.590 -0.2720  0.0647 -0.2054
  935MOL0     C26139  10.212   3.594   8.529  0.2642  0.9265  0.3126
  935MOL0     C26140  10.329   3.668   8.527 -0.7665  0.2854 -0.0495
  935MOL0     N26141  11.040   3.615   8.338 -0.5748 -1.0000 -0.2276
  935MOL0     N26142  11.128   3.532   8.357 -1.5037  1.2128 -0.2582
  935MOL0     C26143  10.612   2.810   7.959 -0.0975  0.4500  0.6536
  935MOL0     C26144  10.478   2.837   7.937  0.2035  0.0565  0.7268
  935MOL0     C26145  10.072   3.095   7.990 -0.8274  0.0095  0.4630
  935MOL0     C26146  10.016   2.973   8.037  0.1955 -1.0904  0.2569
  935MOL0     C26147   9.882   2.971   8.050 -0.6792 -0.3970  0.4863
  935MOL0     C26148   9.802   3.074   8.008 -0.4026  0.1187 -0.9953
  935MOL0     O26149   9.667   3.067   7.993 -0.3349  0.8835 -0.4593
  935MOL0     C26150   9.599   2.949   7.939  0.0855 -0.3990  1.5599
  935MOL0     C26151   9.594   2.954   7.775 -0.4131 -0.0746 -0.6895
  935MOL0     C26152   9.521   3.077   7.718 -0.4836  0.1408  0.5224
  935MOL0     C26153   9.504   3.061   7.573 -0.2020 -0.1447  0.4596
  935MOL0     C26154   9.387   3.142   7.530  0.2650 -0.4502 -0.3981
  935MOL0     C26155   9.304   3.216   7.489  0.6340 -0.6465  0.6290
  935MOL0     C26156   9.857   3.194   7.974  0.2145 -0.0413  0.2253
  935MOL0     C26157   9.996   3.204   7.960 -0.2155  0.5557  0.0514
  935MOL0     H26158  10.473   3.130   8.097  0.2367  1.0858 -2.4554
  935MOL0     H26159  10.722   3.087   8.088 -1.1456 -0.1390  0.8264
  935MOL0     H26160  10.900   2.677   7.963 -0.9858 -0.1239  1.4563
  935MOL0     H26161  10.834   2.786   7.826  1.3120  1.3353 -0.9814
  935MOL0     H26162  11.041   2.742   7.774 -2.0551 -0.1108 -0.2021
  935MOL0     H26163  11.039   2.905   7.829  0.6672 -0.4998 -0.5442
  935MOL0     H26164  11.152   2.658   7.993  0.7036 -0.1721 -1.5114
  935MOL0     H26165  11.240   2.811   7.929  1.1726 -2.7439 -0.1551
  935MOL0     H26166  11.049   2.791   8.141  2.9233 -4.5563  0.1979
  935MOL0     H26167  11.216   2.810   8.158 -0.6449 -2.2761 -0.9280
  935MOL0     H26168  11.206   3.013   8.021 -0.6108 -1.7207  0.0109
  935MOL0     H26169  11.035   3.029   8.032 -1.9052 -0.3022  2.4211
  935MOL0     H26170  11.063   3.023   8.283 -2.5003 -0.4321 -3.3009
  935MOL0     H26171  11.239   3.014   8.263  0.2500  2.1857  3.1966
  935MOL0     H26172  11.206   3.237   8.125  0.3157  1.3162  1.2552
  935MOL0     H26173  11.041   3.210   8.169  0.7134  4.2650 -0.1374
  935MOL0     H26174  11.249   3.293   8.371  0.6007 -0.1419 -2.3054
  935MOL0     H26175  11.108   3.209   8.415  1.3352  0.4348  1.7890
  935MOL0     H26176  10.873   3.328   8.264 -0.6381  1.0161 -1.4190
  935MOL0     H26177  10.779   3.703   8.236 -2.1502  0.8208  3.3340
  935MOL0     H26178  10.716   3.537   8.258  1.0347 -0.0439 -1.3593
  935MOL0     H26179  10.815   3.699   8.493 -1.5037  2.7358  0.3213
  935MOL0     H26180  10.688   3.571   8.482  1.6937 -1.9102 -1.6240
  935MOL0     H26181  10.539   3.742   8.382  1.1322 -0.9011 -0.2753
  935MOL0     H26182  10.678   3.857   8.375  0.6619  0.1243  0.3259
  935MOL0     H26183  10.517   3.903   8.561  0.7912  0.9148  2.5431
  935MOL0     H26184  10.675   3.877   8.621 -2.4236  3.7162  0.9987
  935MOL0     H26185  10.497   3.527   8.779 -0.6409  2.2915  1.7246
  935MOL0     H26186  10.203   3.344   8.842 -0.2469  2.2011 -1.5198
  935MOL0     H26187  10.292   3.243   8.721 -1.4968  2.4797 -4.5474
  935MOL0     H26188  10.381   3.332   8.854 -0.8165 -0.8702  1.5156
  935MOL0     H26189   9.944   3.130   8.761  3.8218 -1.4031 -2.2596
  935MOL0     H26190   9.720   3.026   8.727 -0.3843 -0.1515 -0.8515
  935MOL0     H26191   9.433   3.145   8.596  0.1690  0.8847  0.1835
  935MOL0     H26192   9.507   3.235   8.474  2.3460  0.4509  3.4488
  935MOL0     H26193   9.375   2.972   8.378 -2.1945  0.3429  1.2159
  935MOL0     H26194   9.268   3.100   8.429  0.0756 -1.0182  0.3010
  935MOL0     H26195   9.301   3.118   8.193 -1.2069  0.3428  1.6178
  935MOL0     H26196   9.479   3.153   8.223  0.5086  1.6273  0.8142
  935MOL0     H26197   9.415   3.364   8.342 -0.6115 -1.7185  2.7476
  935MOL0     H26198   9.357   3.347   8.178 -1.7188 -0.0731  0.3386
  935MOL0     H26199   9.171   3.290   8.415  0.6074  1.1595  0.4572
  935MOL0     H26200   9.124   3.327   8.242 -0.7597 -0.0711 -0.2873
  935MOL0     H26201   9.290   3.502   8.417 -0.2534  2.3125 -3.8551
  935MOL0     H26202   9.169   3.547   8.291 -2.1054  2.4247  1.9606
  935MOL0     H26203   9.069   3.424   8.550  4.2554  1.1297  3.1218
  935MOL0     H26204   8.994   3.548   8.442 -0.1468 -0.2672 -0.5918
  935MOL0     H26205   9.145   3.704   8.513  1.4331 -1.4421 -1.5748
  935MOL0     H26206   9.224   3.603   8.640 -0.0118 -0.6724 -1.2126
  935MOL0     H26207   9.714   3.165   8.317  2.7422 -1.0869 -1.6388
  935MOL0     H26208   9.944   3.274   8.354  1.9335 -0.1716 -0.2537
  935MOL0     H26209  10.132   3.630   8.466  1.3301  2.2579 -0.3386
  935MOL0     H26210  10.353   3.752   8.463  0.8968 -1.4405 -1.8781
  935MOL0     H26211  10.643   2.716   7.914 -0.9948  0.5840 -0.2982
  935MOL0     H26212  10.413   2.769   7.883 -1.3999  3.9159 -2.7779
  935MOL0     H26213  10.079   2.892   8.072  2.2150  0.8052  1.2279
  935MOL0     H26214   9.833   2.877   8.075 -0.3708  0.0482  3.0158
  935MOL0     H26215   9.637   2.851   7.971  0.4154  0.4626  4.0103
  935MOL0     H26216   9.493   2.948   7.966 -0.2571 -0.0673  0.2545
  935MOL0     H26217   9.557   2.860   7.734  0.2658 -0.0018 -1.4928
  935MOL0     H26218   9.698   2.955   7.742 -0.8577  0.1613 -2.1366
  935MOL0     H26219   9.585   3.166   7.726  1.4500 -0.8432 -2.4119
  935MOL0     H26220   9.426   3.083   7.771 -1.6431  3.7567 -1.5795
  935MOL0     H26221   9.490   2.955   7.549  2.9896 -0.8008  0.9997
  935MOL0     H26222   9.580   3.114   7.516  1.4023 -0.8627  1.8373
  935MOL0     H26223   9.224   3.286   7.474  1.9384  0.6787 -0.3582
  935MOL0     H26224   9.805   3.279   7.930 -1.0930 -1.3541 -0.8761
  935MOL0     H26225  10.050   3.292   7.927 -2.7487  1.2026 -2.8431
  936MOL0     O26226  11.059   5.798   3.805 -0.5365 -0.8132 -0.0241
  936MOL0     C26227  10.940   5.804   3.763  0.5077  0.8026  0.8734
  936MOL0     O26228  10.908   5.835   3.633 -0.1040 -0.0458  0.4721
  936MOL0     C26229  10.998   5.880   3.537  0.4387 -0.0101 -0.8571
  936MOL0     C26230  10.951   5.901   3.409 -0.7375 -0.3450  0.1691
  936MOL0     C26231  11.026   5.950   3.304 -0.7545  0.5081  0.0376
  936MOL0     C26232  11.162   5.974   3.328 -0.3324  0.8789  0.4145
  936MOL0     O26233  11.231   6.043   3.227  0.5489  0.4602  0.2374
  936MOL0     C26234  11.290   6.165   3.269  0.0428  0.0939  0.2240
  936MOL0     C26235  11.346   6.241   3.149  0.1205  0.2622  0.7656
  936MOL0     C26236  11.479   6.176   3.087  0.2915 -0.0474 -0.1167
  936MOL0     C26237  11.534   6.265   2.971 -0.4517 -0.3758 -0.6719
  936MOL0     C26238  11.679   6.238   2.926  0.7684  0.4471  0.2014
  936MOL0     C26239  11.723   6.320   2.805  1.0589 -0.0586 -0.3761
  936MOL0     C26240  11.862   6.292   2.751  0.0292 -0.2928  0.1092
  936MOL0     C26241  11.959   6.409   2.785  0.1663  0.0922 -0.3465
  936MOL0     N26242  12.096   6.376   2.745 -0.0392 -0.3257  0.4321
  936MOL0     C26243  12.170   6.292   2.814 -0.8550 -0.0798  0.0210
  936MOL0     C26244  12.291   6.282   2.746  0.0240 -0.0615  0.0350
  936MOL0     C26245  12.395   6.172   2.783  0.9817 -0.6728 -0.6247
  936MOL0     C26246  12.372   6.033   2.717 -0.9174  0.1462 -0.5623
  936MOL0     C26247  12.488   5.944   2.730 -0.3389  0.6259 -0.6810
  936MOL0     C26248  12.506   5.875   2.868 -0.4024 -0.7378  0.3803
  936MOL0     O26249  12.478   5.954   2.984  0.2700  0.4398  0.0760
  936MOL0     C26250  12.399   5.899   3.082  0.1742 -0.1155 -0.4859
  936MOL0     C26251  12.383   5.980   3.196 -0.7907 -0.8536  0.2993
  936MOL0     C26252  12.316   5.946   3.316 -0.5994 -0.6654 -0.4954
  936MOL0     C26253  12.305   6.064   3.418  0.9143 -0.8587 -0.4827
  936MOL0     C26254  12.245   5.824   3.320 -0.2261  0.6146 -0.2514
  936MOL0     C26255  12.160   5.778   3.440 -0.6560 -0.4590 -0.5793
  936MOL0     O26256  12.139   5.645   3.451 -0.0035  0.5336 -0.0522
  936MOL0     C26257  12.075   5.589   3.553  0.5153 -0.3732 -0.0828
  936MOL0     C26258  11.939   5.611   3.573 -0.4965  1.2842  0.2858
  936MOL0     C26259  11.884   5.573   3.687 -0.1333 -0.1081 -0.1221
  936MOL0     C26260  11.949   5.494   3.785 -0.1151  0.5717 -0.0482
  936MOL0     O26261  11.890   5.449   3.902  0.7843  0.5493 -0.0287
  936MOL0     C26262  11.814   5.536   3.988  0.3324  0.6896 -0.0657
  936MOL0     C26263  11.755   5.485   4.120  0.1955  0.7853 -0.1609
  936MOL0     C26264  11.689   5.344   4.110 -1.1432  0.8664 -0.2239
  936MOL0     C26265  11.688   5.265   4.248  0.0400  0.3109  0.0311
  936MOL0     C26266  11.612   5.128   4.245 -0.1286  0.0289  0.1217
  936MOL0     C26267  11.466   5.157   4.225  0.3946  0.0105  0.1506
  936MOL0     C26268  11.386   5.024   4.215 -0.7896 -0.7501 -1.4876
  936MOL0     C26269  11.272   5.043   4.116 -0.3590 -0.8851 -0.2341
  936MOL0    Cl26270  11.148   5.140   4.196  0.2052 -0.3530  0.1203
  936MOL0     C26271  12.080   5.468   3.762  0.1553 -0.7276 -0.1902
  936MOL0     C26272  12.147   5.512   3.646  0.1140 -0.5122  0.0956
  936MOL0     O26273  12.105   5.868   3.509  0.3062  0.1700  0.7946
  936MOL0     C26274  12.266   5.738   3.211 -0.5704 -0.6334 -0.6981
  936MOL0     C26275  12.344   5.776   3.099  0.2512 -0.4844 -0.1922
  936MOL0     N26276  12.278   6.368   2.633  0.4558  0.7268 -0.1354
  936MOL0     N26277  12.164   6.425   2.633  0.2304 -0.4606 -0.5624
  936MOL0     C26278  11.211   5.955   3.453 -0.6221 -0.0494 -0.2760
  936MOL0     C26279  11.133   5.907   3.552  0.6121  0.2216 -0.6422
  936MOL0     C26280  10.835   5.764   3.857  0.0945 -0.4012  0.3277
  936MOL0     C26281  10.848   5.788   3.989  0.2909  0.6619 -0.8195
  936MOL0     C26282  10.749   5.766   4.082  0.6097 -0.7243 -0.1266
  936MOL0     C26283  10.632   5.697   4.037  0.1052 -0.4380  0.0758
  936MOL0     O26284  10.545   5.643   4.124 -0.0721  1.0584  0.4677
  936MOL0     C26285  10.503   5.716   4.241  0.1911 -0.1147  0.2603
  936MOL0     C26286  10.356   5.685   4.244  1.0288 -0.7920  0.9348
  936MOL0     C26287  10.277   5.781   4.336 -0.1461  0.2396  0.9227
  936MOL0     C26288  10.128   5.811   4.294  0.4420 -0.2248  0.3539
  936MOL0     C26289  10.029   5.717   4.346 -0.5567  0.7615 -0.1330
  936MOL0     C26290   9.966   5.626   4.391  0.0872 -0.1690 -1.1925
  936MOL0     C26291  10.616   5.675   3.909  0.2758 -0.5922 -0.3347
  936MOL0     C26292  10.711   5.711   3.816  0.5794 -0.8815 -0.4774
  936MOL0     H26293  10.845   5.884   3.393 -1.0710  0.8741  0.9558
  936MOL0     H26294  10.988   5.970   3.205  0.9859 -5.4411 -2.2737
  936MOL0     H26295  11.221   6.225   3.328 -1.0343 -2.5253  1.7978
  936MOL0     H26296  11.380   6.141   3.326  1.2786  1.4214 -1.0683
  936MOL0     H26297  11.277   6.252   3.065  2.0640  0.0224 -0.9168
  936MOL0     H26298  11.376   6.333   3.200 -0.4109  0.9808 -0.1928
  936MOL0     H26299  11.564   6.175   3.156  1.5801 -2.9809 -1.5504
  936MOL0     H26300  11.453   6.080   3.042  3.1548 -0.1158 -1.9394
  936MOL0     H26301  11.468   6.260   2.883 -0.9680  0.3499 -0.3389
  936MOL0     H26302  11.530   6.369   3.005 -0.0793 -0.6104  0.0918
  936MOL0     H26303  11.736   6.258   3.017 -2.1861 -1.4878  2.6609
  936MOL0     H26304  11.673   6.133   2.897 -2.1410  1.0988 -1.9971
  936MOL0     H26305  11.650   6.297   2.727  0.1813  1.5659 -0.0787
  936MOL0     H26306  11.709   6.425   2.835  0.5193  0.1443 -1.3020
  936MOL0     H26307  11.908   6.196   2.777 -1.5717 -0.3996  2.8512
  936MOL0     H26308  11.861   6.300   2.642  1.3780  0.6419  0.1310
  936MOL0     H26309  11.949   6.414   2.894  1.7311 -3.9070  0.1516
  936MOL0     H26310  11.935   6.499   2.728 -0.0016 -0.5748 -1.3669
  936MOL0     H26311  12.124   6.235   2.894 -1.2721  0.9186  0.4985
  936MOL0     H26312  12.492   6.216   2.759  0.5852  1.7477  1.6742
  936MOL0     H26313  12.381   6.163   2.891 -5.1554 -1.5296 -1.1347
  936MOL0     H26314  12.354   6.058   2.612 -1.0617  4.0173  0.2431
  936MOL0     H26315  12.282   5.990   2.761 -1.0045 -0.6966 -1.5252
  936MOL0     H26316  12.572   6.013   2.713 -1.2658  1.7786 -0.7355
  936MOL0     H26317  12.491   5.864   2.655 -0.0529 -0.8887  0.8885
  936MOL0     H26318  12.604   5.828   2.880  0.2644  0.6271  0.5211
  936MOL0     H26319  12.436   5.792   2.861  0.6961 -1.6534 -0.1572
  936MOL0     H26320  12.439   6.073   3.187 -0.8449 -0.9066 -0.8350
  936MOL0     H26321  12.196   6.074   3.424  1.0038 -0.8705  2.6085
  936MOL0     H26322  12.342   6.035   3.517  0.6224 -1.8663 -0.6591
  936MOL0     H26323  12.352   6.161   3.396 -1.1293  0.7750  1.7838
  936MOL0     H26324  11.877   5.661   3.499  1.7520  0.0551 -2.6506
  936MOL0     H26325  11.781   5.604   3.701  0.4744  2.4674 -0.8957
  936MOL0     H26326  11.883   5.615   4.019  1.5526 -0.9396  1.5978
  936MOL0     H26327  11.735   5.589   3.933 -0.4265  0.0196  0.3498
  936MOL0     H26328  11.832   5.472   4.197 -0.0577 -3.0513 -0.3670
  936MOL0     H26329  11.679   5.547   4.169  0.9949 -0.5623  3.0197
  936MOL0     H26330  11.751   5.286   4.041  1.9208  2.7398  0.7277
  936MOL0     H26331  11.587   5.363   4.074 -1.4046  2.6499  1.2700
  936MOL0     H26332  11.789   5.232   4.275 -0.2518  2.0668  4.0112
  936MOL0     H26333  11.646   5.327   4.327 -0.9812 -1.8612  1.2894
  936MOL0     H26334  11.615   5.077   4.341 -2.9460  2.2395  1.5361
  936MOL0     H26335  11.656   5.073   4.161  0.8361  1.0665 -0.0673
  936MOL0     H26336  11.447   5.214   4.317  1.2830  0.1203  0.2755
  936MOL0     H26337  11.452   5.228   4.143 -1.0900  2.1248  2.0976
  936MOL0     H26338  11.361   4.995   4.317 -0.1420 -1.7992 -1.6163
  936MOL0     H26339  11.455   4.953   4.169 -0.4408 -1.4656  0.0849
  936MOL0     H26340  11.227   4.946   4.090  0.0760 -0.5633 -2.4023
  936MOL0     H26341  11.287   5.109   4.029 -0.4734  4.1396  3.1545
  936MOL0     H26342  12.141   5.403   3.824 -0.6909  0.1225  1.5882
  936MOL0     H26343  12.253   5.499   3.626  0.3112  2.8583 -1.8410
  936MOL0     H26344  12.221   5.639   3.217 -0.4666 -0.6470 -0.0150
  936MOL0     H26345  12.363   5.700   3.024 -2.6852 -2.8558  1.2200
  936MOL0     H26346  11.316   5.975   3.473 -0.1653  0.5389 -2.8518
  936MOL0     H26347  11.179   5.893   3.649  0.6317  0.9330 -0.5496
  936MOL0     H26348  10.943   5.832   4.019 -0.9191  2.1715  1.1249
  936MOL0     H26349  10.757   5.788   4.188  1.2384  0.8945 -0.4721
  936MOL0     H26350  10.560   5.686   4.329 -4.1413 -0.7127  3.1602
  936MOL0     H26351  10.521   5.824   4.234 -0.9390  0.4383  3.8081
  936MOL0     H26352  10.332   5.581   4.267  1.0997 -2.4027 -4.7789
  936MOL0     H26353  10.319   5.705   4.143  0.2693  2.1244  1.6761
  936MOL0     H26354  10.334   5.875   4.334 -0.3556  0.4189 -2.2742
  936MOL0     H26355  10.273   5.737   4.436  1.0246  0.1363  0.9436
  936MOL0     H26356  10.117   5.822   4.186  3.4378 -0.7098 -0.0975
  936MOL0     H26357  10.101   5.911   4.330  1.4275 -0.0631  0.6944
  936MOL0     H26358   9.887   5.562   4.426 -0.9957  0.2226 -2.8229
  936MOL0     H26359  10.529   5.619   3.878 -0.7437 -0.8528  2.6496
  936MOL0     H26360  10.692   5.677   3.715 -0.0089  0.6636 -0.9167
  937MOL0     O26361   2.310   6.552  10.005 -0.7267  0.3287 -0.2666
  937MOL0     C26362   2.212   6.538   9.924  0.0184  0.0134 -0.3688
  937MOL0     O26363   2.113   6.455   9.947 -0.1588  0.3142  0.2120
  937MOL0     C26364   2.114   6.369  10.054  0.2010  0.5585 -0.6556
  937MOL0     C26365   2.005   6.361  10.145 -0.5382 -0.0896  0.7885
  937MOL0     C26366   1.989   6.269  10.252 -1.0752  0.3973  0.0779
  937MOL0     C26367   2.097   6.175  10.266  0.4640 -0.7856 -1.1211
  937MOL0     O26368   2.097   6.082  10.366 -0.3732  0.1712 -0.5720
  937MOL0     C26369   1.970   6.037  10.411  0.3770 -0.0324 -0.7476
  937MOL0     C26370   1.994   5.909  10.495  0.0036  0.4654 -0.1134
  937MOL0     C26371   1.870   5.842  10.549  0.4366 -0.3715 -0.5929
  937MOL0     C26372   1.786   5.930  10.645 -0.6027  0.3171 -0.5240
  937MOL0     C26373   1.673   5.872  10.740 -0.3944  0.2327 -0.5128
  937MOL0     C26374   1.712   5.755  10.826 -0.0528  0.3611  0.0598
  937MOL0     C26375   1.595   5.691  10.897  0.4427  0.6964  0.4639
  937MOL0     C26376   1.637   5.577  10.999  0.2465 -0.3529  0.2926
  937MOL0     N26377   1.735   5.480  10.952 -0.2391 -0.0420  0.3541
  937MOL0     C26378   1.712   5.398  10.849  0.5930  0.3733  0.1497
  937MOL0     C26379   1.804   5.308  10.852 -0.2898 -0.4277 -0.3064
  937MOL0     C26380   1.849   5.204  10.750  0.4578  0.0170  0.2665
  937MOL0     C26381   1.776   5.070  10.762 -0.7707  0.7915 -0.1105
  937MOL0     C26382   1.812   5.003  10.896  0.9726  1.3848 -0.7131
  937MOL0     C26383   1.709   4.887  10.923 -1.0278 -0.0149 -0.3202
  937MOL0     O26384   1.574   4.930  10.933 -0.0819  0.1838 -0.7617
  937MOL0     C26385   1.492   4.822  10.960 -0.5508 -0.0313 -0.3762
  937MOL0     C26386   1.518   4.725  11.059 -1.3775  0.0028  0.6561
  937MOL0     C26387   1.430   4.618  11.078 -0.2981  0.2967 -0.1439
  937MOL0     C26388   1.482   4.512  11.170  0.7978 -0.4133 -0.5037
  937MOL0     C26389   1.312   4.607  11.006 -0.0769  0.0556  0.3787
  937MOL0     C26390   1.228   4.489  10.995 -0.4092  0.2330  0.3380
  937MOL0     O26391   1.091   4.514  10.976 -0.1182  0.1191  0.2060
  937MOL0     C26392   0.992   4.415  10.988 -1.4066  0.5156  0.1994
  937MOL0     C26393   0.880   4.423  10.906  0.3762 -0.5367 -0.2254
  937MOL0     C26394   0.777   4.329  10.921  0.3204 -0.0148  0.2200
  937MOL0     C26395   0.768   4.243  11.027 -0.9031 -0.2862 -1.0365
  937MOL0     O26396   0.653   4.165  11.052 -0.7063 -0.0220  1.0021
  937MOL0     C26397   0.531   4.239  11.063 -0.2507  0.6290  0.7512
  937MOL0     C26398   0.480   4.259  11.210 -0.7333 -0.3745 -0.0754
  937MOL0     C26399   0.492   4.127  11.286  1.2555  0.5768 -0.6614
  937MOL0     C26400   0.401   4.019  11.217  0.6292 -0.1630 -0.2836
  937MOL0     C26401   0.397   3.883  11.272 -0.0953 -0.0827 -0.5708
  937MOL0     C26402   0.533   3.823  11.305  0.0769 -0.3039  0.1555
  937MOL0     C26403   0.520   3.672  11.329 -0.9890  0.3945 -0.8954
  937MOL0     C26404   0.660   3.620  11.352 -0.6504  0.4041  0.7035
  937MOL0    Cl26405   0.745   3.611  11.198  0.1400 -0.4687  0.6043
  937MOL0     C26406   0.879   4.233  11.112 -0.1715  0.3183 -0.3173
  937MOL0     C26407   0.992   4.321  11.096  0.0441  0.0596  0.3005
  937MOL0     O26408   1.278   4.375  11.023 -0.3037 -0.4052  0.6130
  937MOL0     C26409   1.289   4.706  10.908  0.7813  0.0534 -1.1209
  937MOL0     C26410   1.379   4.815  10.882  0.5339  0.5228  0.1433
  937MOL0     N26411   1.900   5.334  10.956  0.4022  0.6083 -0.4503
  937MOL0     N26412   1.848   5.441  11.018  1.0549  0.2555  0.7625
  937MOL0     C26413   2.206   6.175  10.184  0.2183 -0.3589 -0.9468
  937MOL0     C26414   2.216   6.272  10.078 -0.5209 -0.1869 -0.9283
  937MOL0     C26415   2.213   6.631   9.809 -0.1466 -0.2278  0.6876
  937MOL0     C26416   2.117   6.616   9.703 -0.3842  0.2060 -0.2036
  937MOL0     C26417   2.123   6.716   9.602 -0.1196  1.0036 -0.2237
  937MOL0     C26418   2.185   6.838   9.621 -0.1579 -0.3800  0.3324
  937MOL0     O26419   2.173   6.945   9.541 -0.2295  0.7460 -0.1011
  937MOL0     C26420   2.104   6.932   9.411 -0.6517 -0.1743 -0.0818
  937MOL0     C26421   2.140   7.035   9.304  0.0553  0.6614  0.8827
  937MOL0     C26422   2.111   7.177   9.359  0.7060 -0.6917 -0.0651
  937MOL0     C26423   2.157   7.288   9.263 -0.5944  0.5507 -1.6516
  937MOL0     C26424   2.163   7.424   9.326  0.0527  0.2730 -0.2780
  937MOL0     C26425   2.178   7.536   9.374  0.7971 -0.3851  0.5324
  937MOL0     C26426   2.286   6.843   9.718 -0.8437 -0.0959  0.2283
  937MOL0     C26427   2.295   6.747   9.815 -0.2637  0.2517  0.0989
  937MOL0     H26428   1.914   6.421  10.135 -1.5011 -1.2818  2.0560
  937MOL0     H26429   1.912   6.284  10.328  2.3347  0.3230  3.9090
  937MOL0     H26430   1.923   6.112  10.474 -0.0755  1.4342 -2.7250
  937MOL0     H26431   1.898   6.023  10.329 -0.3878  3.7181 -0.8694
  937MOL0     H26432   2.045   5.832  10.435  1.2223  1.8024 -0.8649
  937MOL0     H26433   2.058   5.938  10.578  2.5186  2.1017 -2.4257
  937MOL0     H26434   1.802   5.822  10.465 -1.8502  1.8454  0.5980
  937MOL0     H26435   1.903   5.748  10.595  0.7942  0.2097  0.3644
  937MOL0     H26436   1.855   5.989  10.706 -0.1601 -0.6008 -0.1151
  937MOL0     H26437   1.731   6.000  10.582  0.6484  0.9895 -0.9075
  937MOL0     H26438   1.643   5.956  10.803  1.9795 -0.4333  1.6476
  937MOL0     H26439   1.583   5.839  10.687 -1.6617  0.0585  1.6546
  937MOL0     H26440   1.758   5.679  10.761 -2.0191 -1.7450  0.9839
  937MOL0     H26441   1.787   5.776  10.903 -1.9017 -2.0069  2.7336
  937MOL0     H26442   1.534   5.769  10.944  2.2341  1.8698  0.9286
  937MOL0     H26443   1.522   5.655  10.824  0.4581  1.3005  0.1480
  937MOL0     H26444   1.539   5.531  11.016  0.3726 -0.1630  1.6580
  937MOL0     H26445   1.670   5.622  11.093 -1.2343 -0.3412  0.8329
  937MOL0     H26446   1.626   5.403  10.783 -0.3169 -0.6858  1.2133
  937MOL0     H26447   1.842   5.240  10.647 -1.8090 -0.2128  0.2937
  937MOL0     H26448   1.953   5.178  10.774 -0.0893 -3.1169 -0.3659
  937MOL0     H26449   1.806   5.013  10.674 -1.2690 -1.1773  0.9386
  937MOL0     H26450   1.670   5.097  10.754 -0.5558  1.2357 -1.8717
  937MOL0     H26451   1.805   5.072  10.980 -0.6949  0.2225  0.1425
  937MOL0     H26452   1.917   4.971  10.894  0.5384 -0.1052 -0.3751
  937MOL0     H26453   1.760   4.841  11.008 -0.3998 -2.6278 -1.9960
  937MOL0     H26454   1.717   4.807  10.848 -2.1686  0.3848 -0.8904
  937MOL0     H26455   1.612   4.736  11.114  0.2629 -3.2012 -1.2271
  937MOL0     H26456   1.570   4.554  11.221 -0.2838  3.2080 -1.3523
  937MOL0     H26457   1.406   4.491  11.246  0.4688  1.2062 -0.3451
  937MOL0     H26458   1.517   4.420  11.123  0.0079 -1.6139  1.1317
  937MOL0     H26459   0.864   4.494  10.825 -4.2170  0.0778  0.9408
  937MOL0     H26460   0.701   4.325  10.843 -1.5798 -0.6355  2.0234
  937MOL0     H26461   0.547   4.344  11.036  1.0607  0.7176  1.7576
  937MOL0     H26462   0.454   4.207  10.992  1.9927 -1.0832 -1.0540
  937MOL0     H26463   0.543   4.336  11.255  1.8955 -2.0735 -0.6176
  937MOL0     H26464   0.377   4.296  11.215 -0.0858  1.6365 -0.7815
  937MOL0     H26465   0.456   4.136  11.388  2.2643  0.9443 -0.3212
  937MOL0     H26466   0.597   4.096  11.287  1.2374  0.5166 -0.6483
  937MOL0     H26467   0.303   4.068  11.207  0.2152 -1.1674 -1.3722
  937MOL0     H26468   0.430   4.013  11.112  0.8934  0.3812 -0.2495
  937MOL0     H26469   0.335   3.820  11.207 -0.9685 -1.0454  1.1039
  937MOL0     H26470   0.342   3.886  11.367 -0.5908  0.6755 -0.8673
  937MOL0     H26471   0.598   3.840  11.219 -2.6345 -0.9149 -2.1565
  937MOL0     H26472   0.577   3.870  11.394  1.1909 -1.7925  0.4261
  937MOL0     H26473   0.481   3.616  11.243 -0.1809 -1.4084 -0.1475
  937MOL0     H26474   0.450   3.647  11.409  1.6914 -3.7475  0.5217
  937MOL0     H26475   0.670   3.520  11.396 -1.7346 -0.4286 -0.8409
  937MOL0     H26476   0.708   3.689  11.421  0.1897 -2.2438  2.9334
  937MOL0     H26477   0.878   4.170  11.201 -0.9065  0.8425  0.0487
  937MOL0     H26478   1.069   4.310  11.171  0.4064 -3.2242 -0.3978
  937MOL0     H26479   1.198   4.701  10.849  0.4595  2.9645 -1.0288
  937MOL0     H26480   1.363   4.891  10.806 -3.3204 -0.6987 -0.4727
  937MOL0     H26481   2.283   6.103  10.208 -0.7443 -0.2202  3.3804
  937MOL0     H26482   2.309   6.271  10.023  0.0654 -0.4609  0.0342
  937MOL0     H26483   2.055   6.528   9.690  0.9505 -0.8348  0.1689
  937MOL0     H26484   2.050   6.704   9.523 -1.6722 -0.3525  1.3269
  937MOL0     H26485   2.128   6.836   9.364 -0.2844  0.6563 -1.6293
  937MOL0     H26486   1.995   6.936   9.423 -0.6636 -0.1490 -0.1935
  937MOL0     H26487   2.096   7.007   9.208  0.6034  0.8804  0.5680
  937MOL0     H26488   2.248   7.024   9.294 -0.2292 -2.8187  0.7103
  937MOL0     H26489   2.157   7.192   9.457 -1.0422 -0.6657  0.7930
  937MOL0     H26490   2.005   7.190   9.385  0.7374 -1.6141  0.5784
  937MOL0     H26491   2.090   7.291   9.177 -0.0069 -1.0576 -2.2067
  937MOL0     H26492   2.253   7.265   9.217  0.1108 -1.1471  0.4740
  937MOL0     H26493   2.193   7.634   9.414  0.1248  0.9793 -2.2833
  937MOL0     H26494   2.346   6.934   9.726 -0.3288 -0.4757  0.8523
  937MOL0     H26495   2.372   6.749   9.892  0.0456 -0.0404 -0.1955
  938MOL0     O26496   7.632   6.815   4.935  0.0005 -1.2622 -0.3435
  938MOL0     C26497   7.635   6.932   4.967 -0.3662 -0.9914  0.0093
  938MOL0     O26498   7.638   7.040   4.877 -0.4114  0.4516  0.0465
  938MOL0     C26499   7.674   7.003   4.751  0.4957 -0.4426 -1.0321
  938MOL0     C26500   7.597   7.039   4.640  0.3560 -0.1437  0.3683
  938MOL0     C26501   7.640   7.012   4.511 -0.3515 -0.6678 -0.8775
  938MOL0     C26502   7.774   6.972   4.479  0.8759 -0.1716 -0.6419
  938MOL0     O26503   7.807   6.958   4.346 -0.9946 -0.9407  0.2692
  938MOL0     C26504   7.935   7.014   4.309 -0.0183 -0.4693 -0.2108
  938MOL0     C26505   7.987   6.971   4.175  0.9815  0.0019 -0.6160
  938MOL0     C26506   8.022   6.823   4.203 -0.0410  0.3493  0.6514
  938MOL0     C26507   8.083   6.768   4.071 -0.8956 -0.2894 -0.3808
  938MOL0     C26508   8.206   6.847   4.026  0.6595  0.0303  0.3895
  938MOL0     C26509   8.275   6.782   3.907  1.4052  0.1159  0.4869
  938MOL0     C26510   8.377   6.872   3.825 -0.7011  0.2366 -0.3517
  938MOL0     C26511   8.306   6.959   3.729 -0.2309  0.1809 -1.3572
  938MOL0     N26512   8.280   6.902   3.601  0.2917  0.5596 -0.3985
  938MOL0     C26513   8.243   6.775   3.559  0.3342  0.3886 -0.2958
  938MOL0     C26514   8.234   6.788   3.425  0.1471  0.3556  0.4106
  938MOL0     C26515   8.197   6.682   3.326  0.2547 -0.3852  0.5174
  938MOL0     C26516   8.051   6.670   3.296  0.3702 -0.1568  0.0608
  938MOL0     C26517   8.000   6.779   3.203 -1.1688 -0.9386  0.2800
  938MOL0     C26518   7.852   6.784   3.218 -0.1941 -1.2866 -0.3858
  938MOL0     O26519   7.792   6.687   3.145 -0.0183 -0.1328  0.7190
  938MOL0     C26520   7.657   6.669   3.161 -0.0554 -0.4436 -0.1728
  938MOL0     C26521   7.612   6.544   3.130 -0.0666  0.2456  0.4546
  938MOL0     C26522   7.475   6.499   3.142  0.4217 -0.8556  0.0013
  938MOL0     C26523   7.445   6.367   3.082  0.0533  0.1390 -0.2185
  938MOL0     C26524   7.378   6.597   3.192 -0.9465  0.3238  0.0354
  938MOL0     C26525   7.241   6.571   3.227  0.3743 -0.1563  0.6095
  938MOL0     O26526   7.148   6.671   3.221 -0.6758 -0.2641 -0.0218
  938MOL0     C26527   7.025   6.653   3.260  0.1661  0.1432  0.2481
  938MOL0     C26528   6.980   6.704   3.382  0.2341  0.5254  0.1072
  938MOL0     C26529   6.846   6.691   3.423  0.1817  0.9096 -0.7153
  938MOL0     C26530   6.755   6.619   3.343 -0.5753  0.2858 -0.3423
  938MOL0     O26531   6.627   6.573   3.365  0.5034 -0.3634 -0.4524
  938MOL0     C26532   6.547   6.600   3.488 -0.4511 -0.0263 -0.2229
  938MOL0     C26533   6.584   6.504   3.605  0.2154 -0.5019 -0.0373
  938MOL0     C26534   6.557   6.353   3.573  0.2981  0.2379 -0.3128
  938MOL0     C26535   6.585   6.269   3.699 -0.0280 -0.0435  0.0384
  938MOL0     C26536   6.583   6.118   3.694  0.2450 -1.3083  0.7237
  938MOL0     C26537   6.638   6.062   3.559 -0.3278  0.5210 -0.9366
  938MOL0     C26538   6.666   5.907   3.572 -0.0265 -0.5434  0.0931
  938MOL0     C26539   6.740   5.856   3.454  0.4228 -0.1988  0.4857
  938MOL0    Cl26540   6.921   5.899   3.481 -0.1736 -0.4000 -0.2661
  938MOL0     C26541   6.802   6.572   3.215 -0.7543 -0.8318  0.2254
  938MOL0     C26542   6.934   6.582   3.174  0.4383  0.5790 -0.0025
  938MOL0     O26543   7.208   6.455   3.258 -0.6840  0.5379 -0.2890
  938MOL0     C26544   7.426   6.723   3.222 -0.6111  0.0212 -0.4480
  938MOL0     C26545   7.563   6.756   3.213 -0.1721  0.6460  0.8959
  938MOL0     N26546   8.249   6.925   3.390 -0.0229  0.2825 -0.7757
  938MOL0     N26547   8.266   6.990   3.500  0.4246  0.4574  0.9876
  938MOL0     C26548   7.864   6.962   4.589  0.1802  0.3563  0.4131
  938MOL0     C26549   7.811   6.975   4.719  0.6306 -0.2384 -0.7401
  938MOL0     C26550   7.646   6.971   5.112  0.3334  0.2868 -0.2108
  938MOL0     C26551   7.616   6.877   5.222 -0.2752 -0.8511  1.0297
  938MOL0     C26552   7.616   6.921   5.356  1.0510  1.1353 -0.0194
  938MOL0     C26553   7.650   7.050   5.383  0.8735  0.5569 -1.2677
  938MOL0     O26554   7.647   7.090   5.514  0.7949  0.0056 -0.0162
  938MOL0     C26555   7.700   7.218   5.561 -0.5476 -0.6963 -0.2328
  938MOL0     C26556   7.705   7.219   5.717 -0.0796  0.2160 -0.3023
  938MOL0     C26557   7.802   7.331   5.764  0.2634  0.2402  0.6232
  938MOL0     C26558   7.813   7.341   5.913 -0.2063 -0.1240  0.0162
  938MOL0     C26559   7.903   7.449   5.956  0.1619  0.5318 -0.2686
  938MOL0     C26560   7.967   7.545   5.981 -1.3067 -0.8120 -0.4253
  938MOL0     C26561   7.704   7.133   5.282  0.3272 -0.3208  0.1026
  938MOL0     C26562   7.705   7.089   5.153  1.1129 -0.4648  0.8908
  938MOL0     H26563   7.499   7.078   4.663  0.9439  1.4854  0.2589
  938MOL0     H26564   7.566   7.035   4.435 -2.0790 -0.6607  0.6980
  938MOL0     H26565   7.922   7.122   4.315 -1.5093 -0.6798  1.9289
  938MOL0     H26566   8.014   6.999   4.384  1.0270  1.3180 -0.9111
  938MOL0     H26567   7.906   6.979   4.103 -1.9716  1.2450  2.5871
  938MOL0     H26568   8.057   7.042   4.131 -0.8910  2.1070 -0.3351
  938MOL0     H26569   8.089   6.805   4.287  1.0087 -1.1522 -0.4522
  938MOL0     H26570   7.931   6.768   4.228 -0.0524  0.1620  0.2067
  938MOL0     H26571   8.119   6.665   4.077 -0.8328 -0.2220  0.6163
  938MOL0     H26572   8.020   6.785   3.984 -2.0272  0.0172  0.4791
  938MOL0     H26573   8.183   6.949   3.992 -0.7545 -0.9070 -1.6680
  938MOL0     H26574   8.282   6.855   4.104  0.1033  3.3383  0.7576
  938MOL0     H26575   8.327   6.692   3.942 -1.9854 -2.3018 -0.1709
  938MOL0     H26576   8.193   6.754   3.840  0.0450  2.0997  1.2407
  938MOL0     H26577   8.431   6.935   3.897 -0.0648 -0.6263 -0.0511
  938MOL0     H26578   8.449   6.806   3.775 -0.0299  0.9718 -0.3741
  938MOL0     H26579   8.373   7.045   3.714  1.3907 -1.1319 -2.0414
  938MOL0     H26580   8.213   6.999   3.769 -1.0622 -3.3087  0.5690
  938MOL0     H26581   8.215   6.687   3.617 -0.0943 -0.5085 -1.8077
  938MOL0     H26582   8.258   6.693   3.236  1.9988  1.2003  1.8177
  938MOL0     H26583   8.230   6.590   3.374 -0.1899 -1.1992 -0.6840
  938MOL0     H26584   7.996   6.666   3.390  0.4775  1.7553  0.2531
  938MOL0     H26585   8.039   6.573   3.247  1.4372 -0.5816  0.6135
  938MOL0     H26586   8.037   6.760   3.102  1.3840 -0.0073  0.9404
  938MOL0     H26587   8.030   6.880   3.233 -2.7963 -0.5298  0.6216
  938MOL0     H26588   7.832   6.883   3.174 -0.4583 -1.4889 -0.7268
  938MOL0     H26589   7.821   6.796   3.322  1.6728  2.5931 -0.0844
  938MOL0     H26590   7.687   6.474   3.094 -1.9529 -0.5851 -2.1623
  938MOL0     H26591   7.435   6.299   3.167 -1.5656 -2.8437 -2.5948
  938MOL0     H26592   7.359   6.373   3.016  0.7072  0.4325 -1.0712
  938MOL0     H26593   7.536   6.334   3.030  0.8929  1.5381  0.2993
  938MOL0     H26594   7.062   6.750   3.435  0.5184 -1.4505  1.5198
  938MOL0     H26595   6.815   6.727   3.520 -1.2372  1.8152 -1.4827
  938MOL0     H26596   6.566   6.703   3.521  1.0798  0.0502 -1.2525
  938MOL0     H26597   6.440   6.610   3.467 -0.0724  2.7355 -1.1979
  938MOL0     H26598   6.688   6.517   3.634  0.3269 -1.5603  0.0427
  938MOL0     H26599   6.527   6.536   3.693  0.4471 -0.7493  0.2011
  938MOL0     H26600   6.618   6.321   3.488  1.2292  1.3948 -0.0995
  938MOL0     H26601   6.453   6.333   3.545  0.1375 -3.8084  2.3472
  938MOL0     H26602   6.689   6.297   3.722 -0.3741  2.0190 -0.6724
  938MOL0     H26603   6.514   6.302   3.774  0.1475 -0.5889  0.4478
  938MOL0     H26604   6.477   6.096   3.711 -0.5360  0.8587 -1.0074
  938MOL0     H26605   6.645   6.083   3.778 -0.2866 -2.6249  0.5940
  938MOL0     H26606   6.560   6.068   3.482 -0.2194 -2.8239 -1.4313
  938MOL0     H26607   6.726   6.124   3.540  0.8004  0.0614  2.2199
  938MOL0     H26608   6.571   5.853   3.568  0.7866 -2.0429  0.4995
  938MOL0     H26609   6.724   5.875   3.659  1.4632 -3.1451 -1.7352
  938MOL0     H26610   6.703   5.899   3.360 -4.1498 -0.7491  1.7913
  938MOL0     H26611   6.735   5.748   3.437  1.3690 -0.3177  0.9027
  938MOL0     H26612   6.737   6.511   3.153  2.2732 -1.7797 -2.2590
  938MOL0     H26613   6.966   6.549   3.076  2.4451  1.8604  0.1483
  938MOL0     H26614   7.339   6.781   3.251 -3.9338 -3.7551 -1.9939
  938MOL0     H26615   7.591   6.856   3.244 -2.7212  1.0478  2.1922
  938MOL0     H26616   7.961   6.915   4.576 -0.6438 -1.5226  0.7304
  938MOL0     H26617   7.886   6.962   4.797 -0.4939 -1.0552  0.2353
  938MOL0     H26618   7.572   6.786   5.184  1.0032 -1.6786  1.4858
  938MOL0     H26619   7.580   6.861   5.440 -0.0769  2.4365  0.4543
  938MOL0     H26620   7.803   7.233   5.526 -1.2927  0.3938 -2.0927
  938MOL0     H26621   7.637   7.299   5.522 -0.1483  0.1514  0.8159
  938MOL0     H26622   7.743   7.123   5.755 -0.2541  0.9784  1.9545
  938MOL0     H26623   7.605   7.227   5.760  0.5748 -1.7296  1.7862
  938MOL0     H26624   7.769   7.428   5.727  0.9394  0.7032  1.1993
  938MOL0     H26625   7.904   7.314   5.728  1.0696  3.6676  0.9375
  938MOL0     H26626   7.843   7.243   5.951 -0.2243 -0.3896 -0.6440
  938MOL0     H26627   7.717   7.359   5.963 -0.3894 -2.3502  0.5665
  938MOL0     H26628   8.038   7.619   6.013 -1.6026 -0.6440 -0.1532
  938MOL0     H26629   7.757   7.224   5.309 -2.2230  0.7265  2.0831
  938MOL0     H26630   7.759   7.155   5.086  2.4218 -2.1235  0.2376
  939MOL0     O26631   9.873   3.098   1.359 -0.1435  0.2854 -0.2499
  939MOL0     C26632   9.929   3.046   1.264  0.0088 -0.3956  0.3489
  939MOL0     O26633   9.862   2.978   1.163  0.3806 -0.3110 -0.4299
  939MOL0     C26634   9.725   2.960   1.181 -0.9083  0.4598  0.3042
  939MOL0     C26635   9.668   2.833   1.194 -1.7599  0.2435  0.1000
  939MOL0     C26636   9.532   2.826   1.207 -0.2828  0.0215 -0.0593
  939MOL0     C26637   9.448   2.940   1.204  0.1791  0.0456  0.5361
  939MOL0     O26638   9.311   2.928   1.209 -0.1391 -0.0826  0.7998
  939MOL0     C26639   9.230   3.044   1.196 -0.3265  0.2981  0.0406
  939MOL0     C26640   9.088   3.002   1.148  0.3224  0.5798  0.3991
  939MOL0     C26641   8.990   3.124   1.127 -0.0791 -0.2265  1.2307
  939MOL0     C26642   8.855   3.107   1.190  0.8281 -0.3390 -0.4349
  939MOL0     C26643   8.750   3.214   1.136 -0.7483 -0.4336 -0.4805
  939MOL0     C26644   8.614   3.195   1.194  0.5403  0.6780 -0.0598
  939MOL0     C26645   8.522   3.290   1.127 -0.3621 -1.0107  0.8380
  939MOL0     C26646   8.396   3.303   1.207  0.2099  0.4952 -0.6826
  939MOL0     N26647   8.315   3.411   1.154 -0.1452 -0.3288  0.3557
  939MOL0     C26648   8.346   3.545   1.127  0.2200  0.0921 -0.0701
  939MOL0     C26649   8.228   3.599   1.095  0.1459 -0.1594  0.5130
  939MOL0     C26650   8.188   3.738   1.051  0.2343 -0.9482  0.3814
  939MOL0     C26651   8.061   3.795   1.132 -0.2193 -0.1088  0.0865
  939MOL0     C26652   8.034   3.929   1.068 -0.6003  0.2864 -0.2845
  939MOL0     C26653   7.893   3.987   1.101 -0.5504 -0.3131  0.7871
  939MOL0     O26654   7.885   3.995   1.248 -0.1306  0.7169  1.0658
  939MOL0     C26655   7.768   3.967   1.312 -0.1219 -0.0332  0.3356
  939MOL0     C26656   7.784   3.923   1.436 -0.2209  0.1362  0.2687
  939MOL0     C26657   7.681   3.879   1.521 -0.0668  0.0657  0.1252
  939MOL0     C26658   7.726   3.851   1.657 -0.1106 -0.7375  0.4461
  939MOL0     C26659   7.554   3.875   1.462  0.3851 -0.1835  0.1393
  939MOL0     C26660   7.432   3.830   1.536 -0.4689  0.4606 -0.1088
  939MOL0     O26661   7.448   3.841   1.666  0.4025  0.7405  0.2216
  939MOL0     C26662   7.345   3.866   1.752 -0.5076  0.5372 -1.0367
  939MOL0     C26663   7.247   3.771   1.785 -0.6102  0.4077 -0.7710
  939MOL0     C26664   7.159   3.785   1.888 -0.3267  0.0803  0.3601
  939MOL0     C26665   7.161   3.901   1.972  0.2241 -0.1447 -0.2963
  939MOL0     O26666   7.070   3.918   2.066  0.5818 -0.3960 -0.4242
  939MOL0     C26667   6.990   4.040   2.072  0.8392 -0.0129  0.1430
  939MOL0     C26668   6.879   4.071   1.964 -0.9455 -1.1418  0.8964
  939MOL0     C26669   6.811   4.208   1.999 -1.0151 -0.3937  0.0645
  939MOL0     C26670   6.709   4.252   1.895  0.3277  0.1505  0.1902
  939MOL0     C26671   6.651   4.399   1.908 -0.2632 -0.0930 -0.1724
  939MOL0     C26672   6.556   4.444   1.802 -0.2138  0.2830  0.8794
  939MOL0     C26673   6.625   4.475   1.667 -0.2203 -0.3824  0.4100
  939MOL0     C26674   6.553   4.580   1.576  0.1186 -0.0368  0.1043
  939MOL0    Cl26675   6.595   4.742   1.625  0.5608 -0.1501 -0.0678
  939MOL0     C26676   7.241   4.004   1.922  0.3679 -0.4006 -0.1285
  939MOL0     C26677   7.339   3.987   1.818 -0.8260  0.5832  0.0139
  939MOL0     O26678   7.323   3.816   1.476 -0.1687 -0.6822  0.4285
  939MOL0     C26679   7.535   3.917   1.326 -0.2383 -0.1719 -0.8066
  939MOL0     C26680   7.641   3.963   1.257  0.5340 -0.0701  0.2018
  939MOL0     N26681   8.129   3.510   1.109  0.1524 -0.2766  0.5703
  939MOL0     N26682   8.177   3.396   1.142 -0.0327 -0.2765 -1.0513
  939MOL0     C26683   9.507   3.065   1.196 -0.1408  0.2105 -0.5677
  939MOL0     C26684   9.645   3.076   1.181 -0.2438 -0.0194  0.7967
  939MOL0     C26685  10.073   3.080   1.238  1.3980 -0.1388  0.1511
  939MOL0     C26686  10.147   3.030   1.121 -1.2648  0.4958 -0.1871
  939MOL0     C26687  10.284   3.058   1.109 -0.4266  0.1299 -0.0047
  939MOL0     C26688  10.353   3.135   1.193 -0.0756  0.0428  0.3694
  939MOL0     O26689  10.482   3.179   1.166 -0.3900  0.8734 -0.6758
  939MOL0     C26690  10.572   3.080   1.217 -0.3396  0.4013 -0.5131
  939MOL0     C26691  10.717   3.116   1.205 -0.5573 -0.3723  0.6442
  939MOL0     C26692  10.770   3.236   1.271 -0.2293 -0.1391  0.1053
  939MOL0     C26693  10.907   3.262   1.205  0.0563  0.0718  0.8027
  939MOL0     C26694  10.883   3.329   1.069 -0.3004  0.5730 -0.0759
  939MOL0     C26695  10.865   3.367   0.958 -1.4590 -0.1920 -1.4067
  939MOL0     C26696  10.277   3.199   1.298  0.3472 -0.4612 -0.4997
  939MOL0     C26697  10.146   3.165   1.323 -0.1849 -0.4934  0.2659
  939MOL0     H26698   9.740   2.751   1.194  2.2294  3.3882  1.7961
  939MOL0     H26699   9.486   2.729   1.226 -3.8124  1.2698 -1.4358
  939MOL0     H26700   9.220   3.092   1.294 -1.0268  0.3171 -0.0357
  939MOL0     H26701   9.280   3.110   1.125 -2.0045  1.4580 -0.1101
  939MOL0     H26702   9.106   2.942   1.059  0.0030 -1.0422  1.3820
  939MOL0     H26703   9.040   2.938   1.223  1.5731  0.9092  1.5263
  939MOL0     H26704   9.054   3.206   1.160 -0.1281  0.3756 -0.0952
  939MOL0     H26705   8.978   3.137   1.018  0.5344 -0.6996  1.1046
  939MOL0     H26706   8.817   3.010   1.155 -0.9428  1.0363 -2.5853
  939MOL0     H26707   8.864   3.101   1.299  1.5821  0.5995 -0.4303
  939MOL0     H26708   8.791   3.307   1.177  1.5734 -1.3592 -0.5083
  939MOL0     H26709   8.750   3.221   1.027 -2.3421 -0.4608 -0.5001
  939MOL0     H26710   8.575   3.093   1.202  2.5740 -0.1742 -0.3575
  939MOL0     H26711   8.624   3.216   1.301  2.5196 -0.7610  0.0878
  939MOL0     H26712   8.572   3.388   1.125  0.2011 -1.3009  0.0564
  939MOL0     H26713   8.509   3.245   1.028  1.9876 -0.2891  0.1247
  939MOL0     H26714   8.421   3.324   1.311  0.3174 -0.6754 -0.4509
  939MOL0     H26715   8.348   3.204   1.212  2.4700 -0.6436  3.7540
  939MOL0     H26716   8.441   3.590   1.155  0.3248 -0.9762  1.3944
  939MOL0     H26717   8.268   3.811   1.070  0.4263 -1.0971  0.1610
  939MOL0     H26718   8.179   3.737   0.942  2.7386  1.8129  0.0185
  939MOL0     H26719   8.085   3.798   1.239  2.6635 -0.8273 -0.4560
  939MOL0     H26720   7.981   3.721   1.119 -1.5196  1.4303 -1.0134
  939MOL0     H26721   8.041   3.918   0.960  2.7555 -2.0340  0.0319
  939MOL0     H26722   8.115   4.000   1.084  1.4143 -1.1420 -3.2380
  939MOL0     H26723   7.824   3.908   1.069 -0.3577 -0.3043  0.3493
  939MOL0     H26724   7.882   4.084   1.052 -1.9355 -1.5659 -1.5521
  939MOL0     H26725   7.885   3.919   1.476 -0.2193 -0.5086  0.2179
  939MOL0     H26726   7.714   3.939   1.722 -0.1882 -0.3174 -0.1285
  939MOL0     H26727   7.670   3.765   1.694  0.0643 -0.3071  1.7656
  939MOL0     H26728   7.830   3.818   1.658 -0.3830 -1.6673 -0.3387
  939MOL0     H26729   7.239   3.687   1.716  2.1297 -1.2090  0.7208
  939MOL0     H26730   7.079   3.713   1.898 -0.6338  0.0969 -1.5157
  939MOL0     H26731   6.929   4.028   2.161  4.2430  0.7522  2.7776
  939MOL0     H26732   7.061   4.121   2.094 -0.6532  0.6380  3.0453
  939MOL0     H26733   6.914   4.066   1.860 -4.2123 -0.6363 -0.3535
  939MOL0     H26734   6.806   3.990   1.971 -0.6712 -1.4458  0.2956
  939MOL0     H26735   6.889   4.284   1.993 -0.7782 -0.7190 -4.3379
  939MOL0     H26736   6.777   4.210   2.103 -1.7149  1.2155 -0.1642
  939MOL0     H26737   6.763   4.236   1.802  0.3708  0.7775  0.1032
  939MOL0     H26738   6.626   4.181   1.897  0.7970 -0.5017 -1.9604
  939MOL0     H26739   6.728   4.476   1.899  1.0148 -1.1354  1.2384
  939MOL0     H26740   6.604   4.410   2.007 -0.7646  1.2184 -0.5346
  939MOL0     H26741   6.478   4.370   1.783 -0.6858  1.1806 -0.8238
  939MOL0     H26742   6.508   4.535   1.837  0.1312  1.3989 -1.3440
  939MOL0     H26743   6.627   4.382   1.611  0.8237 -0.2344  0.1844
  939MOL0     H26744   6.731   4.499   1.682 -0.5738 -0.1363  2.9568
  939MOL0     H26745   6.445   4.564   1.584 -0.1933 -0.6579 -3.5997
  939MOL0     H26746   6.578   4.570   1.470 -0.9926 -1.7696 -0.0217
  939MOL0     H26747   7.242   4.094   1.983 -0.6861  0.3978 -1.2309
  939MOL0     H26748   7.399   4.069   1.779  0.6903 -0.3391  0.3253
  939MOL0     H26749   7.435   3.906   1.283 -0.8663  1.6244  0.1136
  939MOL0     H26750   7.629   3.993   1.154  1.9580 -0.1565 -0.0112
  939MOL0     H26751   9.448   3.154   1.216  0.2171  0.8283 -2.0965
  939MOL0     H26752   9.680   3.178   1.179 -0.8696  0.2354 -2.1986
  939MOL0     H26753  10.086   2.974   1.051  0.1183  1.6994 -2.4945
  939MOL0     H26754  10.331   3.017   1.020 -1.9300  0.7007 -1.0991
  939MOL0     H26755  10.554   3.060   1.323 -0.3946 -1.5802 -0.8614
  939MOL0     H26756  10.564   2.994   1.150 -1.5794  0.3788 -0.3638
  939MOL0     H26757  10.738   3.122   1.098  2.4601  1.1833  1.1989
  939MOL0     H26758  10.774   3.034   1.250  2.0011 -0.0593 -1.7745
  939MOL0     H26759  10.778   3.220   1.379  1.8594  2.3445  0.4144
  939MOL0     H26760  10.701   3.320   1.260  1.0891  0.7598 -2.0521
  939MOL0     H26761  10.962   3.170   1.184  4.6350  2.7719 -0.2395
  939MOL0     H26762  10.955   3.330   1.275 -1.2485  0.6076  1.2188
  939MOL0     H26763  10.856   3.401   0.857 -2.7907 -1.1204 -1.6289
  939MOL0     H26764  10.330   3.267   1.364  2.5667 -1.4817 -1.1366
  939MOL0     H26765  10.085   3.192   1.408 -2.0713 -3.4466  0.0104
  940MOL0     O26766   0.901   4.057   0.109  0.2873 -0.1063  0.6146
  940MOL0     C26767   0.924   3.948   0.137  0.0696 -0.3853  0.9829
  940MOL0     O26768   1.048   3.882   0.117  0.2693 -0.4135  0.6391
  940MOL0     C26769   1.146   3.959   0.057 -1.5664  0.7972 -0.1567
  940MOL0     C26770   1.245   3.991   0.152 -0.4747 -0.0159  0.7982
  940MOL0     C26771   1.346   4.076   0.107  0.2473  0.0263  0.8686
  940MOL0     C26772   1.351   4.132  -0.018  0.0039 -0.0349  0.2696
  940MOL0     O26773   1.458   4.218  -0.048 -0.0263  0.2204  0.1301
  940MOL0     C26774   1.554   4.155  -0.144  0.2250  0.7915  0.5463
  940MOL0     C26775   1.688   4.156  -0.077 -0.0920 -0.6527 -0.5564
  940MOL0     C26776   1.751   4.296  -0.065  0.4057 -0.0300 -0.4298
  940MOL0     C26777   1.902   4.298  -0.066  0.2265  0.4974 -0.5049
  940MOL0     C26778   1.964   4.419  -0.004 -0.0173  0.2407 -0.3246
  940MOL0     C26779   2.118   4.406   0.020  1.5911 -0.2340  0.1308
  940MOL0     C26780   2.181   4.538   0.056 -0.4113 -0.9818  0.5553
  940MOL0     C26781   2.177   4.634  -0.071 -0.1473  0.1003  0.3314
  940MOL0     N26782   2.280   4.733  -0.075 -0.2451  0.1388 -0.0688
  940MOL0     C26783   2.292   4.858  -0.015  0.1296  0.4455 -0.3069
  940MOL0     C26784   2.415   4.904  -0.054 -0.7329  0.7334 -0.1443
  940MOL0     C26785   2.500   5.027  -0.015  0.1820 -0.1417  0.4329
  940MOL0     C26786   2.547   5.113  -0.135 -0.4450  0.0098  0.1856
  940MOL0     C26787   2.592   5.259  -0.093 -0.0568 -0.2377  0.2119
  940MOL0     C26788   2.737   5.262  -0.032 -0.4262 -0.6064  0.4807
  940MOL0     O26789   2.789   5.393   0.006  0.1224 -0.3668 -0.0516
  940MOL0     C26790   2.820   5.460  -0.105  0.0048  1.0177  0.9744
  940MOL0     C26791   2.733   5.557  -0.160  1.0541  0.0478  0.1352
  940MOL0     C26792   2.754   5.636  -0.275  0.4820  0.6201  0.4512
  940MOL0     C26793   2.647   5.736  -0.329  0.1284 -0.2722 -0.3323
  940MOL0     C26794   2.878   5.620  -0.343 -0.1462  0.2036  0.6631
  940MOL0     C26795   2.928   5.697  -0.459 -0.8853  0.2166 -0.7118
  940MOL0     O26796   3.058   5.676  -0.495  1.1327 -0.2051  0.2755
  940MOL0     C26797   3.093   5.719  -0.626 -0.0719 -0.0672  0.0881
  940MOL0     C26798   3.147   5.626  -0.716  0.7551 -0.4140 -0.7299
  940MOL0     C26799   3.179   5.666  -0.841  0.2501  0.0502 -0.8990
  940MOL0     C26800   3.148   5.799  -0.886  0.4852  0.5923 -0.1055
  940MOL0     O26801   3.165   5.852  -1.015 -0.0754  0.4558 -0.1860
  940MOL0     C26802   3.260   5.779  -1.103  0.8987  0.1856 -0.3638
  940MOL0     C26803   3.247   5.810  -1.248 -0.1535  0.4014 -0.6614
  940MOL0     C26804   3.293   5.954  -1.291  0.1430  0.3907 -0.0052
  940MOL0     C26805   3.384   5.947  -1.411  0.4471 -1.0526 -0.8083
  940MOL0     C26806   3.420   6.093  -1.456  0.3182  0.2516  0.6685
  940MOL0     C26807   3.542   6.097  -1.552  0.0111 -0.1436 -0.1337
  940MOL0     C26808   3.678   6.070  -1.479  0.2077 -1.0812 -0.5151
  940MOL0     C26809   3.797   6.082  -1.569  0.9396 -0.7124 -0.2573
  940MOL0    Cl26810   3.839   6.259  -1.570  0.1067 -0.0851 -0.3551
  940MOL0     C26811   3.102   5.887  -0.793 -0.4066  0.5811 -0.3236
  940MOL0     C26812   3.088   5.859  -0.656  0.3000 -0.3855  1.2322
  940MOL0     O26813   2.844   5.759  -0.523 -0.4149  0.1635 -0.2273
  940MOL0     C26814   2.970   5.525  -0.280  0.3189 -1.0356 -0.1499
  940MOL0     C26815   2.935   5.453  -0.169 -1.1904 -0.2132  0.3452
  940MOL0     N26816   2.477   4.814  -0.139  0.3859 -0.2456  0.7568
  940MOL0     N26817   2.397   4.715  -0.153  0.9004 -0.4408  0.3863
  940MOL0     C26818   1.257   4.087  -0.113  0.6889  0.3485  1.3044
  940MOL0     C26819   1.149   4.003  -0.076 -0.4919  0.6786 -0.4475
  940MOL0     C26820   0.812   3.854   0.188 -0.1155  0.0381  0.6536
  940MOL0     C26821   0.847   3.724   0.232  0.4749 -0.3679  0.1899
  940MOL0     C26822   0.754   3.623   0.252  0.2015  0.0808 -0.7429
  940MOL0     C26823   0.614   3.656   0.254  0.4001 -0.7583  0.2954
  940MOL0     O26824   0.508   3.569   0.256 -1.3300 -0.8333  0.2166
  940MOL0     C26825   0.533   3.423   0.251 -0.5924  0.1089  0.0861
  940MOL0     C26826   0.528   3.367   0.396  0.1152  0.3725 -0.1177
  940MOL0     C26827   0.597   3.231   0.394 -0.3181  0.3859  0.7829
  940MOL0     C26828   0.517   3.109   0.343 -0.4682  0.6214  0.1693
  940MOL0     C26829   0.394   3.093   0.408  0.7280 -0.5453  0.2484
  940MOL0     C26830   0.289   3.065   0.459  0.2340  0.0410  0.0493
  940MOL0     C26831   0.581   3.792   0.235  0.0343  0.2629 -0.1583
  940MOL0     C26832   0.674   3.892   0.193  0.5593 -0.4410  0.0728
  940MOL0     H26833   1.227   3.960   0.254 -1.2226  0.0053  0.6781
  940MOL0     H26834   1.427   4.097   0.177  4.7920 -0.7625 -3.5749
  940MOL0     H26835   1.532   4.052  -0.174 -1.1108  1.1461  0.2267
  940MOL0     H26836   1.547   4.208  -0.239 -1.2689 -1.6716 -0.8029
  940MOL0     H26837   1.686   4.117   0.025  0.5849  0.4953 -0.0800
  940MOL0     H26838   1.752   4.087  -0.132  0.4062 -0.4032 -0.2966
  940MOL0     H26839   1.725   4.349  -0.157 -1.6388 -0.8427 -0.3686
  940MOL0     H26840   1.712   4.338   0.028  0.3583 -1.8682  0.4322
  940MOL0     H26841   1.931   4.205  -0.017  0.4863 -0.0087 -1.5899
  940MOL0     H26842   1.930   4.295  -0.171 -0.4743  3.7083 -0.9002
  940MOL0     H26843   1.947   4.511  -0.061 -0.3421  2.1365  2.6225
  940MOL0     H26844   1.930   4.434   0.099  1.9080  0.1657  0.3733
  940MOL0     H26845   2.133   4.330   0.098 -0.6805 -2.3004 -1.3036
  940MOL0     H26846   2.163   4.364  -0.070 -1.2470  0.7377 -1.8787
  940MOL0     H26847   2.145   4.582   0.150  2.2133 -0.9673  1.6207
  940MOL0     H26848   2.284   4.505   0.071 -0.0185 -1.0610 -1.8851
  940MOL0     H26849   2.077   4.677  -0.076  0.8864  2.8938  1.6604
  940MOL0     H26850   2.188   4.565  -0.156  1.1803 -0.0292  0.5895
  940MOL0     H26851   2.229   4.907   0.058  2.6134  0.9182  1.6833
  940MOL0     H26852   2.446   5.090   0.056 -0.5530  1.1197 -1.1923
  940MOL0     H26853   2.591   4.999   0.040 -0.6714 -0.7423  1.5824
  940MOL0     H26854   2.457   5.120  -0.197 -1.3586  0.0276  1.4739
  940MOL0     H26855   2.629   5.056  -0.179  1.3853  0.1014  3.1965
  940MOL0     H26856   2.528   5.289  -0.009 -0.2080  1.8342 -0.5865
  940MOL0     H26857   2.584   5.331  -0.175  0.6624 -1.4569 -0.9584
  940MOL0     H26858   2.802   5.209  -0.103  1.0272 -1.3901  2.2971
  940MOL0     H26859   2.737   5.199   0.058  1.0695  2.2615  2.6529
  940MOL0     H26860   2.652   5.586  -0.093  0.5654  3.0379 -1.5897
  940MOL0     H26861   2.547   5.743  -0.284  0.6412  0.8516  0.6754
  940MOL0     H26862   2.691   5.836  -0.327 -0.2720 -0.0941 -0.2663
  940MOL0     H26863   2.621   5.714  -0.434  0.8732 -0.0234 -0.5777
  940MOL0     H26864   3.161   5.525  -0.679 -2.0174 -0.5336  0.2135
  940MOL0     H26865   3.222   5.592  -0.908  2.6449 -0.3899  0.9872
  940MOL0     H26866   3.362   5.785  -1.063 -0.1667 -0.9852  2.8641
  940MOL0     H26867   3.221   5.677  -1.104  2.0189 -0.2798  0.6029
  940MOL0     H26868   3.301   5.743  -1.315 -1.9663  0.1430 -1.9438
  940MOL0     H26869   3.140   5.803  -1.270  0.2617  0.2575 -2.7636
  940MOL0     H26870   3.345   6.007  -1.211  0.1949  2.3680 -1.2787
  940MOL0     H26871   3.200   6.001  -1.326  0.4345 -0.5364 -2.2273
  940MOL0     H26872   3.474   5.900  -1.370  1.0940  1.9564  1.5751
  940MOL0     H26873   3.328   5.892  -1.487 -1.9692 -0.5091  0.4925
  940MOL0     H26874   3.426   6.169  -1.378 -1.4539  0.7550  0.3639
  940MOL0     H26875   3.342   6.131  -1.523  1.8185  0.6978 -0.8727
  940MOL0     H26876   3.529   6.027  -1.634  0.9251 -1.7256  1.0153
  940MOL0     H26877   3.555   6.200  -1.587  0.9635  0.1655  1.0343
  940MOL0     H26878   3.675   5.970  -1.436  0.9033 -0.4437  1.0960
  940MOL0     H26879   3.690   6.136  -1.392 -1.0301 -1.6529  0.1225
  940MOL0     H26880   3.784   6.044  -1.671  3.0157 -0.5839 -0.6304
  940MOL0     H26881   3.883   6.028  -1.527 -0.5106 -3.3295 -0.4757
  940MOL0     H26882   3.103   5.988  -0.832  2.3558  1.5058  1.7707
  940MOL0     H26883   3.054   5.933  -0.584 -3.8191  0.1127 -0.8916
  940MOL0     H26884   3.071   5.504  -0.314  0.3193 -1.5135  0.1444
  940MOL0     H26885   3.013   5.387  -0.132 -1.7091 -2.3934 -2.1460
  940MOL0     H26886   1.260   4.130  -0.213  2.4060 -0.4540  0.9703
  940MOL0     H26887   1.069   3.978  -0.145  1.5344 -1.5306 -2.1398
  940MOL0     H26888   0.952   3.700   0.243  1.0013  2.1815  1.4634
  940MOL0     H26889   0.785   3.520   0.258 -1.4436 -0.3642  3.4232
  940MOL0     H26890   0.459   3.370   0.190 -0.5796  2.3136 -1.9876
  940MOL0     H26891   0.630   3.394   0.210 -2.3175 -3.0915 -2.1599
  940MOL0     H26892   0.427   3.347   0.432 -0.9284  2.7074 -1.5302
  940MOL0     H26893   0.575   3.436   0.467 -2.7610  1.4853  0.8347
  940MOL0     H26894   0.629   3.218   0.498  0.6738  0.3176  0.4855
  940MOL0     H26895   0.690   3.224   0.337 -0.5721  0.0384  0.4094
  940MOL0     H26896   0.574   3.016   0.354  2.4180  2.4277  1.6435
  940MOL0     H26897   0.501   3.121   0.235 -0.3470 -1.2951 -0.0969
  940MOL0     H26898   0.214   3.017   0.518  1.9424 -0.7358  1.6938
  940MOL0     H26899   0.477   3.817   0.223  0.1232  0.4922 -0.4457
  940MOL0     H26900   0.645   3.988   0.152 -0.5192 -1.3333 -1.3433
  941MOL0     O26901   4.548   5.590   4.731 -1.1430 -0.1744  0.1868
  941MOL0     C26902   4.495   5.623   4.628  0.2318 -0.6428 -0.0618
  941MOL0     O26903   4.391   5.552   4.566 -0.3631 -0.7858 -0.6993
  941MOL0     C26904   4.359   5.433   4.625 -0.2240 -0.1346  1.2750
  941MOL0     C26905   4.455   5.331   4.658 -0.1204 -0.5941  0.4943
  941MOL0     C26906   4.415   5.208   4.705 -0.0787 -0.5843 -0.2915
  941MOL0     C26907   4.279   5.184   4.736 -0.3859  0.9028  0.1568
  941MOL0     O26908   4.216   5.073   4.794 -0.9191  0.1115 -0.2764
  941MOL0     C26909   4.300   4.973   4.856 -0.0679 -0.2495  0.0949
  941MOL0     C26910   4.208   4.916   4.964 -0.4210  0.5775 -0.1161
  941MOL0     C26911   4.266   4.808   5.044 -0.4983  0.0768 -0.2510
  941MOL0     C26912   4.149   4.739   5.109  0.6524 -0.5026 -0.0393
  941MOL0     C26913   4.194   4.634   5.216  0.0516  0.1146 -0.1030
  941MOL0     C26914   4.087   4.550   5.274 -0.3150 -0.2815  0.0927
  941MOL0     C26915   4.064   4.435   5.183 -0.4657 -0.5215  0.3050
  941MOL0     C26916   3.956   4.337   5.224 -0.1046  0.0327 -0.1732
  941MOL0     N26917   3.824   4.388   5.195  0.2296  0.3643 -0.3724
  941MOL0     C26918   3.747   4.452   5.291  0.5129  0.1795 -0.2847
  941MOL0     C26919   3.634   4.496   5.216  0.6636  0.5573 -0.0019
  941MOL0     C26920   3.528   4.584   5.259 -1.2146  0.3271 -0.1756
  941MOL0     C26921   3.419   4.525   5.355  0.7277 -0.0976  0.5405
  941MOL0     C26922   3.346   4.407   5.297 -0.2441 -0.6712 -0.3176
  941MOL0     C26923   3.275   4.453   5.174  0.2330 -0.3538 -0.3518
  941MOL0     O26924   3.169   4.356   5.134 -0.1620 -1.3501 -0.4963
  941MOL0     C26925   3.040   4.392   5.156 -0.1367  0.9685 -0.2368
  941MOL0     C26926   2.988   4.477   5.241  0.5939 -0.1044  0.4804
  941MOL0     C26927   2.847   4.483   5.267  0.5351 -0.2091  0.5006
  941MOL0     C26928   2.805   4.576   5.383 -0.1543 -0.6401 -0.7948
  941MOL0     C26929   2.747   4.405   5.196 -0.7556 -0.5640 -0.1734
  941MOL0     C26930   2.598   4.414   5.206 -0.0148 -0.0169  0.2885
  941MOL0     O26931   2.536   4.292   5.183  0.8396 -0.1673  0.1606
  941MOL0     C26932   2.394   4.276   5.185 -0.7355  0.7435  0.4728
  941MOL0     C26933   2.308   4.366   5.139 -0.4998 -0.4382  0.6779
  941MOL0     C26934   2.173   4.334   5.124  1.2052  0.1406  0.0346
  941MOL0     C26935   2.121   4.207   5.133  0.6797 -0.0361 -0.5225
  941MOL0     O26936   1.991   4.168   5.139 -0.2356  0.6915  0.3251
  941MOL0     C26937   1.895   4.275   5.113 -0.6714  0.3981 -0.1964
  941MOL0     C26938   1.765   4.206   5.114 -0.3432 -1.4762 -0.1347
  941MOL0     C26939   1.645   4.305   5.106  0.7453 -0.6768  0.5199
  941MOL0     C26940   1.523   4.248   5.048  0.3937  0.6040  1.6445
  941MOL0     C26941   1.412   4.356   5.019  0.4068  0.7943  0.6934
  941MOL0     C26942   1.440   4.456   4.906  0.1016  0.4996 -1.0322
  941MOL0     C26943   1.458   4.380   4.773 -0.2547  1.2409  0.7941
  941MOL0     C26944   1.492   4.473   4.655 -0.6861 -0.4319 -0.1496
  941MOL0    Cl26945   1.346   4.594   4.620  0.0984 -0.2252 -0.0424
  941MOL0     C26946   2.214   4.108   5.169 -0.0703 -0.8675  0.3729
  941MOL0     C26947   2.345   4.149   5.197 -0.5645 -0.6134  0.3352
  941MOL0     O26948   2.546   4.518   5.242 -0.3058  0.2471 -0.4781
  941MOL0     C26949   2.807   4.308   5.114 -0.8330  0.2151 -0.3500
  941MOL0     C26950   2.943   4.317   5.082 -0.1856  0.5203 -0.2661
  941MOL0     N26951   3.643   4.438   5.082  0.0412 -0.5230 -0.5762
  941MOL0     N26952   3.761   4.377   5.078  1.0404  1.5101 -0.4172
  941MOL0     C26953   4.186   5.282   4.714  0.5924 -0.8553  0.1858
  941MOL0     C26954   4.225   5.404   4.652  0.2776  0.2274 -0.9699
  941MOL0     C26955   4.515   5.763   4.580 -0.6391 -0.2601  0.9554
  941MOL0     C26956   4.436   5.821   4.478 -1.1368 -0.0148  0.0304
  941MOL0     C26957   4.434   5.958   4.451 -0.1158 -0.0695 -0.2453
  941MOL0     C26958   4.534   6.037   4.501 -0.4686 -0.4485 -0.4653
  941MOL0     O26959   4.543   6.170   4.497  1.3100  0.1301  0.6797
  941MOL0     C26960   4.442   6.246   4.431  0.4582 -0.8978  0.3013
  941MOL0     C26961   4.341   6.301   4.527 -0.7228 -0.5732 -0.3276
  941MOL0     C26962   4.232   6.369   4.447  1.0247  0.2438  0.5545
  941MOL0     C26963   4.127   6.442   4.540  0.5706  0.0918 -0.6455
  941MOL0     C26964   4.182   6.567   4.601 -0.0270  0.0229 -0.1644
  941MOL0     C26965   4.213   6.668   4.661 -0.0190  0.0504 -0.3800
  941MOL0     C26966   4.628   5.977   4.586 -0.6761  0.2352 -0.2351
  941MOL0     C26967   4.613   5.842   4.627 -0.2566  0.7290 -0.5805
  941MOL0     H26968   4.561   5.342   4.637 -1.0187  3.0766 -3.7749
  941MOL0     H26969   4.487   5.129   4.726 -1.8410 -2.3147 -0.4985
  941MOL0     H26970   4.345   4.896   4.793  1.2945 -2.0247  3.0250
  941MOL0     H26971   4.392   5.014   4.899  0.3423 -0.2736 -0.7546
  941MOL0     H26972   4.186   5.005   5.023  0.7634  2.1106 -1.8777
  941MOL0     H26973   4.116   4.878   4.918  0.3235 -1.4308 -0.0633
  941MOL0     H26974   4.333   4.748   4.981  0.4105  1.4156 -0.6051
  941MOL0     H26975   4.332   4.840   5.126 -2.6313 -0.4854  1.7796
  941MOL0     H26976   4.078   4.810   5.152  0.4763 -0.8103  0.1901
  941MOL0     H26977   4.098   4.691   5.025 -0.7140 -0.0370  0.4795
  941MOL0     H26978   4.273   4.566   5.180 -1.5519 -2.8315  1.5656
  941MOL0     H26979   4.238   4.683   5.303  2.1471  1.1843 -1.6597
  941MOL0     H26980   4.127   4.502   5.363 -1.9478 -2.0813 -0.0725
  941MOL0     H26981   3.999   4.612   5.296  0.2634  0.2140  1.0744
  941MOL0     H26982   4.055   4.471   5.080 -1.6675  1.4679  1.0549
  941MOL0     H26983   4.156   4.375   5.178  2.6911  3.8118 -0.3382
  941MOL0     H26984   3.971   4.315   5.330  1.0026  2.1549  0.1770
  941MOL0     H26985   3.966   4.245   5.166  3.0074 -2.1483  3.4106
  941MOL0     H26986   3.769   4.479   5.394  2.4292 -0.7929 -0.3812
  941MOL0     H26987   3.576   4.666   5.313  1.1399 -0.5277 -0.8878
  941MOL0     H26988   3.484   4.629   5.169 -0.0601  1.8776 -0.0021
  941MOL0     H26989   3.341   4.597   5.380 -3.1686 -3.9816  0.6601
  941MOL0     H26990   3.464   4.492   5.449  0.0993 -1.5168  0.3707
  941MOL0     H26991   3.282   4.364   5.375 -1.6882 -0.4034 -1.3011
  941MOL0     H26992   3.404   4.320   5.266  0.8462  0.1311 -0.6084
  941MOL0     H26993   3.351   4.468   5.097  1.2686  0.7689  0.8332
  941MOL0     H26994   3.231   4.551   5.194 -0.2120 -1.0526  2.4659
  941MOL0     H26995   3.056   4.532   5.305  0.9515 -0.9707  0.8724
  941MOL0     H26996   2.840   4.677   5.361  1.3348 -1.2794 -1.4879
  941MOL0     H26997   2.699   4.591   5.407  0.5747  2.6304  0.9634
  941MOL0     H26998   2.843   4.542   5.480 -0.3201  2.4281  0.4452
  941MOL0     H26999   2.335   4.471   5.129  0.4948 -0.5021  2.3751
  941MOL0     H27000   2.110   4.421   5.107  2.4934  0.9750 -0.6239
  941MOL0     H27001   1.891   4.348   5.195  2.2832  0.4513  0.0064
  941MOL0     H27002   1.917   4.337   5.026 -1.2063  2.7137  1.2091
  941MOL0     H27003   1.771   4.154   5.017  6.3772 -1.4688 -0.2404
  941MOL0     H27004   1.764   4.141   5.202  1.6094  0.3095  1.2961
  941MOL0     H27005   1.663   4.395   5.046 -1.1720 -0.9022 -0.4676
  941MOL0     H27006   1.618   4.344   5.205 -4.4499  0.6226 -1.0881
  941MOL0     H27007   1.548   4.192   4.958 -2.3775 -1.6406  2.1269
  941MOL0     H27008   1.474   4.182   5.121 -0.9671 -0.3197 -0.0454
  941MOL0     H27009   1.387   4.405   5.114 -3.3072 -0.9687  0.8045
  941MOL0     H27010   1.324   4.297   4.992  0.2701  1.7730 -1.2119
  941MOL0     H27011   1.361   4.531   4.903 -0.2511  0.2425  0.7141
  941MOL0     H27012   1.525   4.522   4.924 -0.6081  0.9642  0.8446
  941MOL0     H27013   1.365   4.328   4.752  1.2482 -0.8327 -1.2890
  941MOL0     H27014   1.540   4.307   4.774 -1.1508  0.1998 -0.0534
  941MOL0     H27015   1.519   4.414   4.567  0.4746 -0.2345  0.0610
  941MOL0     H27016   1.585   4.528   4.670  0.6379 -0.9668 -4.6877
  941MOL0     H27017   2.182   4.005   5.183  2.9364 -2.4648 -2.8053
  941MOL0     H27018   2.410   4.069   5.228  1.4240  1.1547  0.9777
  941MOL0     H27019   2.752   4.234   5.057 -0.8771  0.1439 -0.2132
  941MOL0     H27020   2.974   4.232   5.022 -2.2031 -3.3623  3.6275
  941MOL0     H27021   4.086   5.264   4.751  0.9771 -1.2555  1.0672
  941MOL0     H27022   4.159   5.484   4.620  2.0367  1.4844 -1.6167
  941MOL0     H27023   4.367   5.756   4.425 -3.4060  0.7611  1.8457
  941MOL0     H27024   4.362   5.991   4.377  1.1751  1.8559 -0.7086
  941MOL0     H27025   4.489   6.327   4.374 -0.7476  0.7482  1.5904
  941MOL0     H27026   4.388   6.189   4.354 -0.5521  0.6057 -0.1502
  941MOL0     H27027   4.396   6.353   4.606  1.2137 -1.6823 -0.9122
  941MOL0     H27028   4.297   6.217   4.581  1.6005  0.3560  3.3527
  941MOL0     H27029   4.170   6.297   4.392  1.3194  2.2169 -2.5723
  941MOL0     H27030   4.268   6.437   4.369 -2.9986  1.5215 -0.3912
  941MOL0     H27031   4.084   6.377   4.616 -1.6289  1.8469 -0.2664
  941MOL0     H27032   4.037   6.476   4.486  0.3383  1.8153  0.7251
  941MOL0     H27033   4.239   6.749   4.726 -2.0414  0.9447 -0.6024
  941MOL0     H27034   4.720   6.029   4.612  1.5265 -2.9164 -1.0865
  941MOL0     H27035   4.682   5.803   4.701 -2.8288 -2.0540  0.5269
  942MOL0     O27036   9.393   7.616   5.822  0.3333 -0.3685  0.3346
  942MOL0     C27037   9.355   7.576   5.709  0.1390 -0.2539 -0.2880
  942MOL0     O27038   9.437   7.536   5.609 -0.0648  0.3194 -0.1614
  942MOL0     C27039   9.575   7.532   5.628  0.1658 -0.0838 -0.1786
  942MOL0     C27040   9.627   7.475   5.744 -1.0814 -0.4466 -1.0703
  942MOL0     C27041   9.765   7.468   5.766 -0.3662 -0.3421  0.5539
  942MOL0     C27042   9.854   7.518   5.668  0.2230 -0.7575 -0.7377
  942MOL0     O27043   9.984   7.543   5.701  0.6341  1.2175 -0.0648
  942MOL0     C27044  10.000   7.676   5.754  1.0736 -0.0559 -0.3809
  942MOL0     C27045   9.908   7.714   5.867  0.1446  0.2988 -0.0531
  942MOL0     C27046   9.951   7.857   5.909  0.1547  1.6156 -0.2209
  942MOL0     C27047   9.856   7.925   5.993  0.1089 -0.3619  0.4561
  942MOL0     C27048   9.899   8.074   6.028  0.2185  0.1062  0.6190
  942MOL0     C27049   9.766   8.141   6.088 -0.0585  0.5575 -0.2710
  942MOL0     C27050   9.796   8.275   6.167 -0.1432 -0.0160  0.1083
  942MOL0     C27051   9.891   8.275   6.288  0.1647 -0.2441 -0.4843
  942MOL0     N27052   9.864   8.158   6.367  0.7418  0.9891  0.8403
  942MOL0     C27053   9.738   8.129   6.423  0.1856  0.2541  0.6402
  942MOL0     C27054   9.758   8.011   6.487  0.5355  0.0363 -0.6220
  942MOL0     C27055   9.653   7.944   6.587  0.3430 -0.0444  0.1069
  942MOL0     C27056   9.531   8.028   6.616  0.1539 -0.5456 -0.1388
  942MOL0     C27057   9.426   7.943   6.692  0.3094 -0.4238 -0.2695
  942MOL0     C27058   9.291   8.008   6.729 -0.2295 -1.2158  0.1391
  942MOL0     O27059   9.191   7.923   6.793  0.0044  0.3728 -0.4926
  942MOL0     C27060   9.068   7.973   6.813  1.1242  0.2796 -0.5263
  942MOL0     C27061   9.010   7.995   6.938 -0.7954 -0.3266 -0.8230
  942MOL0     C27062   8.877   8.030   6.948  0.9403 -0.5601  0.2317
  942MOL0     C27063   8.817   8.067   7.089 -0.3616 -0.1379 -0.1607
  942MOL0     C27064   8.795   8.062   6.829 -1.0913  0.0591 -0.4024
  942MOL0     C27065   8.661   8.128   6.836 -0.5742  0.2177 -0.2913
  942MOL0     O27066   8.567   8.085   6.932 -0.4122 -0.2036 -0.0631
  942MOL0     C27067   8.443   8.128   6.930  0.1224  0.5353 -0.3165
  942MOL0     C27068   8.365   8.083   6.827 -0.1515 -0.4378 -0.3882
  942MOL0     C27069   8.233   8.115   6.819 -0.4202  0.4265  0.3545
  942MOL0     C27070   8.173   8.194   6.919 -0.7367 -0.5451  0.4053
  942MOL0     O27071   8.046   8.235   6.921  0.4318 -0.2392  0.7265
  942MOL0     C27072   7.968   8.200   6.808  1.6450 -0.2706 -0.7505
  942MOL0     C27073   7.829   8.226   6.858 -0.2156 -0.0724  0.6168
  942MOL0     C27074   7.720   8.183   6.757 -0.4353 -0.2627  0.6834
  942MOL0     C27075   7.577   8.164   6.811 -0.3163 -0.2959  0.3303
  942MOL0     C27076   7.564   8.025   6.858 -0.8271  0.4912  0.0066
  942MOL0     C27077   7.420   8.005   6.916 -0.3714  0.2683  0.6569
  942MOL0     C27078   7.421   7.891   7.020  0.7449  0.2616 -0.7169
  942MOL0     C27079   7.284   7.869   7.062  0.3874 -0.6213 -0.4645
  942MOL0    Cl27080   7.287   7.722   7.165 -0.0877 -0.5417  0.3872
  942MOL0     C27081   8.253   8.240   7.026 -1.2525 -0.5440 -0.3583
  942MOL0     C27082   8.386   8.193   7.044  0.4853 -0.6827  0.9810
  942MOL0     O27083   8.647   8.223   6.762  0.2776 -0.2060  0.4270
  942MOL0     C27084   8.861   8.051   6.702 -0.1457  0.7386  0.3064
  942MOL0     C27085   8.991   8.004   6.701  0.3309  0.2692 -0.0825
  942MOL0     N27086   9.886   7.977   6.478  0.6265 -1.1319  0.0326
  942MOL0     N27087   9.951   8.060   6.402 -0.0839  0.0486  0.2331
  942MOL0     C27088   9.794   7.550   5.544 -0.7883  0.9908  0.5401
  942MOL0     C27089   9.659   7.563   5.525  0.4987 -0.0204  0.0712
  942MOL0     C27090   9.214   7.564   5.693 -0.7322 -0.7458  0.6901
  942MOL0     C27091   9.120   7.614   5.783 -0.2042  0.6239 -0.1725
  942MOL0     C27092   8.982   7.586   5.763  0.2794  0.3937  0.8714
  942MOL0     C27093   8.932   7.516   5.652 -0.0311 -0.8475  0.0585
  942MOL0     O27094   8.804   7.486   5.632  0.9635 -0.0131  0.4616
  942MOL0     C27095   8.710   7.575   5.576 -0.1161 -0.4890 -0.2741
  942MOL0     C27096   8.604   7.600   5.685 -0.0340  0.4053  0.0366
  942MOL0     C27097   8.502   7.698   5.626 -0.5338 -0.0106  0.3805
  942MOL0     C27098   8.389   7.726   5.734  0.1748  0.6212  0.5260
  942MOL0     C27099   8.337   7.864   5.704 -0.0113 -0.4435  1.2670
  942MOL0     C27100   8.279   7.974   5.697 -0.3138  0.0529 -0.1988
  942MOL0     C27101   9.027   7.471   5.557  0.1835 -1.2791  1.6740
  942MOL0     C27102   9.171   7.492   5.580  0.3963  0.4175  0.6706
  942MOL0     H27103   9.571   7.450   5.833 -0.9650  1.7849 -0.2997
  942MOL0     H27104   9.805   7.450   5.865  0.9194  0.5925  0.2317
  942MOL0     H27105  10.105   7.682   5.785  1.5831  2.2204 -2.1871
  942MOL0     H27106   9.991   7.750   5.673  1.6589  0.1865 -0.2359
  942MOL0     H27107   9.804   7.712   5.835  0.0595  1.7995  0.0682
  942MOL0     H27108   9.922   7.635   5.942 -0.3791 -3.2567 -3.3388
  942MOL0     H27109  10.047   7.849   5.961  0.2224 -0.1593 -0.5630
  942MOL0     H27110   9.964   7.906   5.812  0.6509 -0.7951 -1.4742
  942MOL0     H27111   9.756   7.917   5.949 -0.7461  0.2792  2.1873
  942MOL0     H27112   9.856   7.865   6.084  1.5662 -1.4557 -0.2196
  942MOL0     H27113   9.995   8.072   6.080  0.0186 -0.7058  0.9677
  942MOL0     H27114   9.919   8.122   5.931 -0.8780 -1.8952 -0.6709
  942MOL0     H27115   9.696   8.155   6.005 -0.0126  1.3170 -0.1928
  942MOL0     H27116   9.718   8.064   6.150  0.3058 -0.0251 -0.7078
  942MOL0     H27117   9.845   8.341   6.095  1.7382  1.7246  2.7816
  942MOL0     H27118   9.701   8.319   6.200 -0.2910 -1.1793  1.3257
  942MOL0     H27119   9.860   8.354   6.357 -0.8921 -0.0158 -1.2046
  942MOL0     H27120   9.998   8.280   6.265  0.4779  0.2686  0.9408
  942MOL0     H27121   9.645   8.185   6.417 -1.7677 -2.8241 -0.7739
  942MOL0     H27122   9.614   7.852   6.543  2.1181  0.5862 -3.0394
  942MOL0     H27123   9.707   7.912   6.677  0.9782  0.2219 -0.1722
  942MOL0     H27124   9.492   8.070   6.523 -0.4963 -0.2925  0.2451
  942MOL0     H27125   9.560   8.110   6.682 -2.2115  3.2713 -3.3923
  942MOL0     H27126   9.467   7.904   6.786 -0.7177  0.3381  0.5248
  942MOL0     H27127   9.408   7.860   6.623  0.2090  0.4240 -1.2648
  942MOL0     H27128   9.249   8.036   6.632 -0.2881 -2.2794 -0.1502
  942MOL0     H27129   9.308   8.104   6.779 -1.6941  0.1932 -1.9165
  942MOL0     H27130   9.065   7.950   7.020 -2.0643 -1.5047 -0.5802
  942MOL0     H27131   8.723   8.014   7.106  0.3080 -1.1082  0.6084
  942MOL0     H27132   8.889   8.043   7.167  1.5493 -1.2264 -2.1407
  942MOL0     H27133   8.798   8.175   7.089  1.5460  0.2404  0.0853
  942MOL0     H27134   8.408   8.031   6.742  0.1080  0.3443 -0.7447
  942MOL0     H27135   8.184   8.093   6.725  0.1411  0.1469  0.1255
  942MOL0     H27136   7.992   8.263   6.723  1.3671  1.1127  0.1680
  942MOL0     H27137   7.971   8.093   6.785 -2.7420 -1.2290  2.0369
  942MOL0     H27138   7.821   8.172   6.953  2.8578 -0.1220  0.9473
  942MOL0     H27139   7.830   8.330   6.892  1.0086  0.4700 -0.9925
  942MOL0     H27140   7.741   8.088   6.706 -0.1352  1.7845 -3.3978
  942MOL0     H27141   7.715   8.258   6.678  1.2346 -1.3258 -0.4905
  942MOL0     H27142   7.559   8.232   6.895 -1.4551 -0.5982  0.3545
  942MOL0     H27143   7.500   8.178   6.734 -0.5953 -3.5644 -0.1240
  942MOL0     H27144   7.639   8.001   6.933 -0.1405 -2.9080 -1.5446
  942MOL0     H27145   7.573   7.943   6.785  0.4827 -0.3741  1.0846
  942MOL0     H27146   7.381   8.093   6.968 -1.5407  0.9523 -1.2820
  942MOL0     H27147   7.358   7.979   6.830  0.3831 -0.7427  0.4012
  942MOL0     H27148   7.487   7.915   7.104  2.5567 -1.1001 -1.6735
  942MOL0     H27149   7.465   7.799   6.979  3.4390  0.2733  1.7761
  942MOL0     H27150   7.217   7.847   6.979 -1.4820  1.4188  0.3803
  942MOL0     H27151   7.243   7.957   7.112  3.1269 -0.2433  1.2916
  942MOL0     H27152   8.212   8.289   7.114 -0.8644  1.0243 -1.0136
  942MOL0     H27153   8.444   8.218   7.132 -1.7649  4.4225  1.3578
  942MOL0     H27154   8.804   8.071   6.612 -0.2725  4.4890  1.0675
  942MOL0     H27155   9.045   7.999   6.607  2.1023  1.5848  0.8211
  942MOL0     H27156   9.862   7.587   5.468  1.5703 -3.2843  0.2094
  942MOL0     H27157   9.629   7.590   5.424  1.5460  0.7612 -0.0404
  942MOL0     H27158   9.157   7.683   5.858 -0.5164  0.6209 -0.0154
  942MOL0     H27159   8.912   7.613   5.842 -0.5097 -0.1576  0.3773
  942MOL0     H27160   8.763   7.668   5.556  0.8005 -1.2480 -1.5208
  942MOL0     H27161   8.675   7.543   5.477  0.7133 -0.1922 -0.6717
  942MOL0     H27162   8.652   7.659   5.764 -0.5741  1.8224 -0.6604
  942MOL0     H27163   8.558   7.508   5.722  1.1071  0.3566  1.4143
  942MOL0     H27164   8.464   7.666   5.529  0.6617  1.0808 -0.4814
  942MOL0     H27165   8.550   7.793   5.600 -2.4293  0.4512 -1.6736
  942MOL0     H27166   8.431   7.722   5.834  2.8976 -0.7639 -0.5804
  942MOL0     H27167   8.307   7.659   5.706 -1.2931  2.4090  0.3014
  942MOL0     H27168   8.220   8.063   5.686  0.2376  0.3441 -0.9474
  942MOL0     H27169   8.971   7.424   5.477 -0.8798 -2.6451  3.1551
  942MOL0     H27170   9.234   7.436   5.512 -2.5757 -0.3704 -1.6612
  943MOL0     O27171   4.269   7.052   2.528 -0.0861 -0.8354 -0.5292
  943MOL0     C27172   4.273   7.173   2.499  0.2643  0.6979 -0.3866
  943MOL0     O27173   4.232   7.273   2.581 -0.4235 -0.0043  0.4409
  943MOL0     C27174   4.201   7.262   2.720  0.6829 -0.5862 -0.2323
  943MOL0     C27175   4.089   7.199   2.754  0.2302 -0.1008  0.2509
  943MOL0     C27176   4.051   7.180   2.879 -0.2558 -0.2995 -0.6283
  943MOL0     C27177   4.129   7.221   2.986  0.3930 -0.2749 -0.2371
  943MOL0     O27178   4.072   7.206   3.112 -0.4125  0.1274 -0.1861
  943MOL0     C27179   4.113   7.292   3.221 -0.2198  0.8251 -0.6559
  943MOL0     C27180   4.047   7.425   3.193  0.6743  0.6785 -0.6753
  943MOL0     C27181   3.903   7.409   3.202  0.0579 -0.3224 -0.6671
  943MOL0     C27182   3.831   7.530   3.151 -0.5593  0.4244 -0.3427
  943MOL0     C27183   3.679   7.513   3.186 -0.0819  0.6029 -0.1063
  943MOL0     C27184   3.616   7.378   3.140  0.5427 -0.3153 -0.3205
  943MOL0     C27185   3.460   7.381   3.152  0.2978  0.3683 -0.1026
  943MOL0     C27186   3.407   7.375   3.302 -0.0986  0.4712 -0.3237
  943MOL0     N27187   3.258   7.361   3.307  0.3833 -0.4836 -0.0315
  943MOL0     C27188   3.187   7.246   3.289  0.7741 -0.5935 -0.2550
  943MOL0     C27189   3.059   7.281   3.283 -1.2749 -0.7100  0.3269
  943MOL0     C27190   2.947   7.185   3.280 -0.0377 -0.1113 -0.0035
  943MOL0     C27191   2.921   7.126   3.421 -0.7312  0.9096 -0.0358
  943MOL0     C27192   2.882   7.231   3.521  0.2329  0.4966 -0.3284
  943MOL0     C27193   2.854   7.168   3.654 -0.0311 -0.5499 -0.4701
  943MOL0     O27194   2.740   7.079   3.659  0.1275  0.2917  0.1821
  943MOL0     C27195   2.724   6.993   3.772  0.0964  0.2670  0.0540
  943MOL0     C27196   2.797   7.005   3.891 -0.3200  0.4175 -0.2153
  943MOL0     C27197   2.784   6.905   3.991  0.3998 -0.0945  0.2957
  943MOL0     C27198   2.884   6.910   4.107 -0.2479 -0.6761 -0.1896
  943MOL0     C27199   2.687   6.804   3.986 -0.6617 -0.7013 -0.3283
  943MOL0     C27200   2.655   6.695   4.084  0.0409  0.3386  0.0116
  943MOL0     O27201   2.756   6.659   4.166 -0.8127  0.4298 -0.6472
  943MOL0     C27202   2.721   6.575   4.266 -0.4518  0.6786  0.6073
  943MOL0     C27203   2.821   6.575   4.369  0.8627  0.5061 -0.5119
  943MOL0     C27204   2.823   6.491   4.479 -0.0623  0.6678 -0.1367
  943MOL0     C27205   2.723   6.385   4.492 -0.4477 -0.8095  1.3105
  943MOL0     O27206   2.715   6.295   4.593 -0.7116  0.2944  0.1444
  943MOL0     C27207   2.814   6.275   4.691 -0.5614 -1.2502 -0.4272
  943MOL0     C27208   2.801   6.144   4.766  0.5006 -0.5936 -0.4768
  943MOL0     C27209   2.831   6.021   4.686  0.0269  0.0142  0.0534
  943MOL0     C27210   2.836   5.893   4.766 -0.5098 -0.5157 -0.3521
  943MOL0     C27211   2.867   5.775   4.684 -0.8723 -0.2887 -0.5095
  943MOL0     C27212   2.852   5.637   4.756 -0.0868  0.1182  0.2834
  943MOL0     C27213   2.928   5.616   4.894 -0.0092 -0.9565  0.7642
  943MOL0     C27214   2.965   5.480   4.950 -1.7002  0.2961  0.5743
  943MOL0    Cl27215   3.039   5.365   4.827 -0.5059  0.2993  0.0039
  943MOL0     C27216   2.626   6.391   4.382  0.4344 -0.2096  0.1381
  943MOL0     C27217   2.627   6.474   4.270  0.0342  0.8263  0.0486
  943MOL0     O27218   2.533   6.685   4.106 -0.5438 -0.0791  0.3366
  943MOL0     C27219   2.601   6.805   3.875  0.3111 -0.5359  0.3152
  943MOL0     C27220   2.618   6.896   3.769 -0.4663  0.6245  0.4054
  943MOL0     N27221   3.047   7.422   3.282 -0.5127 -0.5367  0.0508
  943MOL0     N27222   3.173   7.465   3.301 -0.1198 -0.0339 -0.1984
  943MOL0     C27223   4.243   7.305   2.959 -0.0401  0.8533 -1.0495
  943MOL0     C27224   4.281   7.322   2.825  0.3937  0.0632 -0.6125
  943MOL0     C27225   4.306   7.199   2.361 -0.1725  0.0060  0.6700
  943MOL0     C27226   4.362   7.316   2.317 -1.0615 -0.1446  0.3342
  943MOL0     C27227   4.379   7.337   2.177  0.4739  0.4892  0.1931
  943MOL0     C27228   4.342   7.241   2.081  0.2579  0.0901 -0.3477
  943MOL0     O27229   4.352   7.255   1.949  0.5241  0.0685 -0.0129
  943MOL0     C27230   4.329   7.387   1.895 -0.3152  0.8602 -0.1051
  943MOL0     C27231   4.182   7.400   1.882  0.7899 -0.2356  0.2042
  943MOL0     C27232   4.130   7.330   1.749  0.2081 -0.4834 -0.8967
  943MOL0     C27233   3.993   7.358   1.722  0.5963 -1.0558 -0.4967
  943MOL0     C27234   3.953   7.254   1.619  0.6900  0.1448 -0.5817
  943MOL0     C27235   3.904   7.175   1.547 -0.3734  0.2203  0.2717
  943MOL0     C27236   4.303   7.113   2.126  0.6490  0.0654  0.4200
  943MOL0     C27237   4.277   7.099   2.264  0.4152 -0.5228  0.9475
  943MOL0     H27238   4.024   7.158   2.677  1.4664  0.5389 -1.2151
  943MOL0     H27239   3.958   7.131   2.905 -0.2444 -0.1448 -0.2870
  943MOL0     H27240   4.073   7.257   3.317 -2.5772 -4.1573 -3.1160
  943MOL0     H27241   4.223   7.298   3.226 -0.1432  0.2935 -1.6223
  943MOL0     H27242   4.084   7.507   3.255  0.7057  0.0587  0.1495
  943MOL0     H27243   4.068   7.445   3.088 -0.2388 -0.1203 -1.0187
  943MOL0     H27244   3.880   7.321   3.141  1.0491 -1.9906  1.2606
  943MOL0     H27245   3.877   7.389   3.306 -1.7278 -3.5164 -1.5702
  943MOL0     H27246   3.872   7.609   3.215 -1.1511 -1.7324  3.0135
  943MOL0     H27247   3.846   7.544   3.044  0.7773  3.1112  0.1063
  943MOL0     H27248   3.671   7.532   3.294  1.6571 -0.7881  0.3172
  943MOL0     H27249   3.616   7.592   3.144 -0.2394 -1.0336 -3.1600
  943MOL0     H27250   3.653   7.367   3.038  1.1069 -0.2005 -0.1371
  943MOL0     H27251   3.659   7.295   3.198  1.2438  1.3982  1.7505
  943MOL0     H27252   3.424   7.467   3.095 -2.6075 -0.7207 -0.0747
  943MOL0     H27253   3.421   7.291   3.103 -2.4714  1.9594 -1.0771
  943MOL0     H27254   3.433   7.459   3.367  1.7441  0.3225 -0.8151
  943MOL0     H27255   3.441   7.282   3.348 -0.0732  0.8383  0.4190
  943MOL0     H27256   3.235   7.151   3.271  2.1955  0.5010 -2.8028
  943MOL0     H27257   2.854   7.239   3.259  1.1046  2.6682  1.4594
  943MOL0     H27258   2.966   7.102   3.212  0.0965 -1.8373  2.0036
  943MOL0     H27259   3.010   7.074   3.459 -1.6167 -0.2521  0.5044
  943MOL0     H27260   2.844   7.050   3.414 -1.0032  0.4434  4.6937
  943MOL0     H27261   2.800   7.292   3.482  0.3537  0.9263  0.0789
  943MOL0     H27262   2.968   7.297   3.539  1.9464 -1.0999 -2.2546
  943MOL0     H27263   2.838   7.249   3.725 -0.6702  0.0547 -1.2765
  943MOL0     H27264   2.946   7.127   3.697 -0.8151  2.7066  5.1344
  943MOL0     H27265   2.859   7.092   3.913  2.0859 -1.6065  1.5265
  943MOL0     H27266   2.841   6.940   4.203  3.0433  2.9944  0.3869
  943MOL0     H27267   2.923   6.809   4.122  1.3387  0.1112  1.3070
  943MOL0     H27268   2.968   6.978   4.089  2.4733 -3.3802  1.4340
  943MOL0     H27269   2.902   6.647   4.370 -0.3329  1.8883  0.9478
  943MOL0     H27270   2.911   6.506   4.541  0.7800 -0.3124 -1.0339
  943MOL0     H27271   2.912   6.288   4.645  0.9492  2.4818  3.2229
  943MOL0     H27272   2.791   6.349   4.769  1.6232 -2.0923  1.1024
  943MOL0     H27273   2.877   6.148   4.845  0.1512  5.5760  0.0388
  943MOL0     H27274   2.699   6.133   4.804  0.8089  0.8047  0.8407
  943MOL0     H27275   2.932   6.032   4.645 -0.4460  1.9852 -0.6960
  943MOL0     H27276   2.755   6.020   4.606 -1.2390 -0.0987  1.2239
  943MOL0     H27277   2.899   5.909   4.854 -1.9613  1.9002  0.3443
  943MOL0     H27278   2.738   5.877   4.811  0.1030 -0.4202  1.0984
  943MOL0     H27279   2.969   5.789   4.647  0.1192 -1.9840  1.4085
  943MOL0     H27280   2.800   5.771   4.597 -1.3246  2.4475 -0.3584
  943MOL0     H27281   2.743   5.624   4.758 -0.2943  1.6033  2.0509
  943MOL0     H27282   2.888   5.559   4.688  1.0774 -1.4059  2.5216
  943MOL0     H27283   2.868   5.664   4.971  2.5347  1.9578  1.1504
  943MOL0     H27284   3.021   5.674   4.890 -1.2245  1.0840 -2.7493
  943MOL0     H27285   2.877   5.427   4.988 -2.2032 -1.1822 -2.3971
  943MOL0     H27286   3.037   5.488   5.032 -2.7717 -1.1599  1.6946
  943MOL0     H27287   2.549   6.314   4.384 -0.7280  0.8402 -1.3635
  943MOL0     H27288   2.549   6.476   4.194  0.7528  3.1752 -0.7301
  943MOL0     H27289   2.520   6.734   3.858  0.8568 -0.9841 -0.5300
  943MOL0     H27290   2.542   6.909   3.692  2.3129  0.1453 -2.5909
  943MOL0     H27291   4.307   7.338   3.040 -2.7804  0.1824  1.5555
  943MOL0     H27292   4.376   7.363   2.793  0.5933  0.4774  0.4787
  943MOL0     H27293   4.391   7.392   2.388  0.3986  0.6043 -0.9922
  943MOL0     H27294   4.403   7.440   2.152 -0.7748  2.0515  4.5928
  943MOL0     H27295   4.378   7.463   1.956  2.7083  0.1180 -1.4406
  943MOL0     H27296   4.375   7.392   1.795 -0.3537  0.4077 -0.1476
  943MOL0     H27297   4.143   7.499   1.904 -1.1174 -1.4765  2.8421
  943MOL0     H27298   4.138   7.349   1.968 -2.4371  0.6529 -0.7767
  943MOL0     H27299   4.146   7.223   1.761  0.0421 -0.3718  0.5198
  943MOL0     H27300   4.182   7.363   1.658 -0.6836 -0.0684 -1.2694
  943MOL0     H27301   3.972   7.457   1.681 -1.7917 -2.0435 -1.8815
  943MOL0     H27302   3.924   7.350   1.808  2.4513  3.7429  1.7811
  943MOL0     H27303   3.853   7.102   1.488  3.4391 -1.0528 -1.7961
  943MOL0     H27304   4.259   7.043   2.055 -0.2443 -0.9569  1.9118
  943MOL0     H27305   4.218   7.016   2.300 -1.6012 -0.6788 -2.3083
  944MOL0     O27306  10.874   9.715   7.988 -0.1722  0.4784 -0.0546
  944MOL0     C27307  10.833   9.607   8.041 -0.1138  1.0418  0.5862
  944MOL0     O27308  10.707   9.584   8.081  0.0707  0.5671 -0.2529
  944MOL0     C27309  10.599   9.669   8.069 -0.1428 -0.1496 -0.4856
  944MOL0     C27310  10.480   9.628   8.132  0.6477 -0.2805 -0.0070
  944MOL0     C27311  10.356   9.698   8.126  0.1233  0.7230 -1.0712
  944MOL0     C27312  10.354   9.823   8.076 -0.0794 -0.2224  0.5722
  944MOL0     O27313  10.243   9.900   8.062 -0.2101 -0.4096  0.6456
  944MOL0     C27314  10.112   9.842   8.045 -0.3518  0.7149 -0.4994
  944MOL0     C27315  10.007   9.948   8.050 -0.2671  0.1229  0.0231
  944MOL0     C27316   9.990  10.003   8.193  0.0448  0.0167  0.1695
  944MOL0     C27317   9.858  10.056   8.231 -0.0567  0.2506 -0.1493
  944MOL0     C27318   9.854  10.163   8.346 -0.3944  1.1005  1.2696
  944MOL0     C27319   9.888  10.299   8.297  0.6368 -0.0668 -0.9369
  944MOL0     C27320   9.903  10.389   8.422 -0.4436 -0.1245  0.5419
  944MOL0     C27321   9.948  10.535   8.384  0.8353  0.8841 -0.1439
  944MOL0     N27322   9.968  10.607   8.509  0.1595 -0.8795 -0.8758
  944MOL0     C27323  10.091  10.645   8.555  0.6845 -0.1764  0.4757
  944MOL0     C27324  10.070  10.715   8.668  0.4751 -0.2361 -0.5550
  944MOL0     C27325  10.171  10.756   8.772 -0.2319  0.0944 -0.3724
  944MOL0     C27326  10.167  10.909   8.805  0.4509 -0.2665  0.0670
  944MOL0     C27327  10.239  10.959   8.934 -0.1822  0.3320  1.0937
  944MOL0     C27328  10.385  10.903   8.946 -0.5790 -0.3173  0.8133
  944MOL0     O27329  10.449  10.964   8.836 -0.1530 -0.6626  0.0498
  944MOL0     C27330  10.579  10.927   8.810  0.7315 -0.9074  0.4489
  944MOL0     C27331  10.676  10.919   8.910  0.7331  0.0177 -0.2468
  944MOL0     C27332  10.810  10.896   8.890  0.1328  0.0345 -0.7176
  944MOL0     C27333  10.902  10.883   9.010  0.1736 -0.4125 -0.4276
  944MOL0     C27334  10.859  10.862   8.759 -0.7031 -0.8027 -0.0272
  944MOL0     C27335  10.997  10.823   8.717  0.6531 -0.3263 -0.4358
  944MOL0     O27336  11.001  10.774   8.589 -0.4746  0.0351  0.8475
  944MOL0     C27337  11.122  10.780   8.520  0.0473 -0.0181 -0.7712
  944MOL0     C27338  11.156  10.890   8.445  0.0035 -0.1297  0.4176
  944MOL0     C27339  11.284  10.885   8.393  0.7566 -0.2045  0.5139
  944MOL0     C27340  11.368  10.767   8.383 -0.6786  0.6710 -0.4244
  944MOL0     O27341  11.484  10.761   8.303 -0.6876 -0.3532 -0.6025
  944MOL0     C27342  11.531  10.881   8.256  0.7795 -0.4829  0.0123
  944MOL0     C27343  11.663  10.865   8.194 -0.2263  0.4802  0.5968
  944MOL0     C27344  11.689  10.988   8.099 -0.4241 -0.0318  0.5715
  944MOL0     C27345  11.687  11.121   8.181 -0.3304 -0.2921  0.0200
  944MOL0     C27346  11.777  11.130   8.304 -0.9942  0.7635  0.0755
  944MOL0     C27347  11.796  11.269   8.347  0.1467  0.1177 -0.2173
  944MOL0     C27348  11.949  11.288   8.390  0.2783 -0.2455  0.2874
  944MOL0     C27349  11.968  11.423   8.456  0.1459  0.2047 -0.4587
  944MOL0    Cl27350  11.857  11.456   8.589  0.5801 -0.2741 -0.1261
  944MOL0     C27351  11.320  10.654   8.452 -0.7066  0.8657  0.1515
  944MOL0     C27352  11.207  10.661   8.524  1.9241  0.4450 -0.2757
  944MOL0     O27353  11.096  10.857   8.782  0.2681  0.4831  0.1288
  944MOL0     C27354  10.757  10.865   8.657  0.4106 -0.5417  1.0255
  944MOL0     C27355  10.625  10.891   8.681  0.1930 -0.6164 -0.3433
  944MOL0     N27356   9.932  10.726   8.688  0.4636 -0.0266 -0.1451
  944MOL0     N27357   9.873  10.654   8.594 -0.5438 -0.1882  0.2649
  944MOL0     C27358  10.474   9.875   8.023  0.1674  0.5803 -0.2647
  944MOL0     C27359  10.591   9.802   8.011 -0.9600  0.0856 -0.2260
  944MOL0     C27360  10.915   9.490   8.037  0.1691  0.2195  0.0675
  944MOL0     C27361  10.864   9.359   8.048  0.3053 -1.0316  0.8720
  944MOL0     C27362  10.943   9.251   8.043 -0.0819  0.3502 -0.0699
  944MOL0     C27363  11.077   9.272   8.029 -0.0429  0.9749 -0.2888
  944MOL0     O27364  11.170   9.169   8.023 -0.1126  0.6744 -0.2370
  944MOL0     C27365  11.132   9.049   7.961 -0.5339  0.2011  0.6104
  944MOL0     C27366  11.243   8.961   7.906  0.3970 -0.5341  0.3758
  944MOL0     C27367  11.325   9.021   7.794  0.5469  0.0117 -0.4723
  944MOL0     C27368  11.253   9.045   7.662  0.5925  0.1652  0.1132
  944MOL0     C27369  11.184   8.929   7.602 -0.3245  0.1610  1.0730
  944MOL0     C27370  11.151   8.833   7.538  0.1670  0.2526  0.3253
  944MOL0     C27371  11.134   9.395   8.023  0.4075  1.0828 -0.6327
  944MOL0     C27372  11.053   9.507   8.022  0.0282  0.4197  0.3591
  944MOL0     H27373  10.478   9.529   8.178  0.3609 -0.2230  0.1059
  944MOL0     H27374  10.266   9.664   8.177  0.6737 -1.2454 -1.3287
  944MOL0     H27375  10.111   9.802   7.943  0.5408  0.8598 -0.5682
  944MOL0     H27376  10.090   9.766   8.120  1.0897 -0.8585 -1.6210
  944MOL0     H27377  10.041  10.032   7.990  2.2976  1.0381  2.5832
  944MOL0     H27378   9.922   9.901   7.998 -0.2425 -0.6750  0.6864
  944MOL0     H27379  10.021   9.923   8.262  0.8056 -0.3295 -0.5481
  944MOL0     H27380  10.061  10.080   8.223 -1.1591  0.7170  1.2977
  944MOL0     H27381   9.820  10.109   8.143  3.3188  0.8603 -1.4158
  944MOL0     H27382   9.800   9.965   8.249  2.0266 -0.4470  4.5739
  944MOL0     H27383   9.762  10.169   8.404 -0.0946  1.1467  1.7497
  944MOL0     H27384   9.933  10.137   8.418  0.9264  0.9981 -0.1712
  944MOL0     H27385   9.981  10.294   8.239  1.4926 -1.2141  0.4520
  944MOL0     H27386   9.798  10.330   8.244  0.6379  0.9879 -0.3519
  944MOL0     H27387   9.805  10.399   8.469 -0.5656 -1.0003  0.4958
  944MOL0     H27388   9.973  10.350   8.496 -1.5243 -1.0922  1.0878
  944MOL0     H27389   9.871  10.589   8.328  0.5073  1.2908  0.6939
  944MOL0     H27390  10.040  10.533   8.325  0.1148 -0.1928 -1.2862
  944MOL0     H27391  10.193  10.619   8.528  0.2205 -1.7195  0.0446
  944MOL0     H27392  10.177  10.705   8.869  2.7900 -0.7491 -0.9074
  944MOL0     H27393  10.273  10.744   8.735 -1.7397 -2.4730 -4.2167
  944MOL0     H27394  10.064  10.943   8.810  0.7245  0.6362 -0.2010
  944MOL0     H27395  10.212  10.953   8.715  0.3786  0.3161  0.3084
  944MOL0     H27396  10.200  10.903   9.020 -0.0661 -1.1465  0.2205
  944MOL0     H27397  10.236  11.067   8.949  1.1690  0.4584  0.5067
  944MOL0     H27398  10.389  10.795   8.928  0.4066 -0.1576 -0.0628
  944MOL0     H27399  10.432  10.943   9.036  1.2353 -1.5442  0.4705
  944MOL0     H27400  10.649  10.941   9.013  1.8901  1.3822 -0.1946
  944MOL0     H27401  10.845  10.865   9.101  2.8045  2.0397  1.9083
  944MOL0     H27402  10.971  10.802   8.985 -0.9424 -1.3729 -0.4561
  944MOL0     H27403  10.948  10.982   9.012  1.7012 -1.0730 -0.7369
  944MOL0     H27404  11.097  10.980   8.455  1.5031  0.7022  2.6824
  944MOL0     H27405  11.313  10.975   8.340  2.3928 -0.6891  0.5334
  944MOL0     H27406  11.460  10.923   8.184 -1.0115  1.7723  2.8425
  944MOL0     H27407  11.542  10.946   8.344  4.6060  1.2882 -1.5370
  944MOL0     H27408  11.745  10.861   8.266  1.0001 -0.5338 -0.8108
  944MOL0     H27409  11.668  10.770   8.141 -0.5780 -1.4110  3.7209
  944MOL0     H27410  11.627  10.989   8.009  2.0578  1.3899 -1.2414
  944MOL0     H27411  11.789  10.987   8.055 -0.3959 -2.3366  0.5842
  944MOL0     H27412  11.709  11.202   8.111  1.3586 -0.4326  0.3484
  944MOL0     H27413  11.584  11.140   8.212 -0.1837  0.3716  0.1284
  944MOL0     H27414  11.873  11.083   8.278 -1.1291 -1.4086  3.0011
  944MOL0     H27415  11.739  11.062   8.381  1.9593 -1.0349  0.1184
  944MOL0     H27416  11.772  11.342   8.270  0.5777  1.5004  0.9106
  944MOL0     H27417  11.731  11.289   8.432  0.8296 -0.5776  0.4915
  944MOL0     H27418  12.018  11.272   8.306  0.7519  0.9853  0.4211
  944MOL0     H27419  11.962  11.198   8.451  0.7105  0.1739  0.8142
  944MOL0     H27420  11.979  11.502   8.381 -1.1628  1.0200  0.1715
  944MOL0     H27421  12.067  11.413   8.500  0.1048 -0.9671 -0.6000
  944MOL0     H27422  11.386  10.568   8.444 -1.0254  0.5340  0.9906
  944MOL0     H27423  11.171  10.564   8.559 -2.2097  1.2156 -1.8484
  944MOL0     H27424  10.775  10.845   8.552  1.2731  1.9597  0.6299
  944MOL0     H27425  10.546  10.895   8.607  2.7938  5.8750 -3.5425
  944MOL0     H27426  10.469   9.973   7.977  0.8396  0.0613 -1.5101
  944MOL0     H27427  10.676   9.838   7.954  0.7388  0.2635  2.2704
  944MOL0     H27428  10.757   9.343   8.056 -0.6129  2.1186 -2.2462
  944MOL0     H27429  10.902   9.154   8.069 -1.9772  1.2865  0.5920
  944MOL0     H27430  11.063   8.994   8.026 -1.8103  2.4972  1.2944
  944MOL0     H27431  11.072   9.073   7.873 -1.4088 -1.8300  0.5896
  944MOL0     H27432  11.197   8.873   7.860  0.7368 -0.5573  0.0786
  944MOL0     H27433  11.301   8.916   7.987  0.6757 -0.5826  0.1529
  944MOL0     H27434  11.401   8.948   7.767 -1.4440 -1.5090 -2.3039
  944MOL0     H27435  11.373   9.113   7.828  3.9613 -1.9773  0.5334
  944MOL0     H27436  11.318   9.093   7.588 -1.7452  0.4696 -1.8753
  944MOL0     H27437  11.169   9.111   7.686  0.9767  1.4418 -1.8511
  944MOL0     H27438  11.143   8.736   7.493 -2.0588 -0.9363  2.9817
  944MOL0     H27439  11.242   9.395   8.018  0.6515 -1.8865  1.8105
  944MOL0     H27440  11.098   9.602   7.998 -0.6742  0.7983  0.4926
  945MOL0     O27441   4.074   9.702   7.185  0.1737 -0.3872  0.2892
  945MOL0     C27442   3.968   9.670   7.138 -0.3496  0.2243  0.2868
  945MOL0     O27443   3.853   9.737   7.128  0.0045  0.0479  0.1562
  945MOL0     C27444   3.857   9.874   7.153  0.1270  0.2628  0.6979
  945MOL0     C27445   3.926   9.973   7.075  0.4255 -0.0281 -0.5962
  945MOL0     C27446   3.923  10.108   7.119  0.0848  0.4748  0.0704
  945MOL0     C27447   3.870  10.139   7.242 -0.2415  0.7863 -0.4459
  945MOL0     O27448   3.877  10.260   7.309 -0.2240  0.3776  0.7837
  945MOL0     C27449   3.900  10.376   7.224 -0.5719 -0.3413 -0.7277
  945MOL0     C27450   3.872  10.508   7.300 -0.3544  0.5526  1.2410
  945MOL0     C27451   3.744  10.506   7.375 -0.7814 -0.0042  0.2730
  945MOL0     C27452   3.626  10.454   7.296  0.1093  0.2996 -0.0503
  945MOL0     C27453   3.489  10.480   7.361  0.1123  0.5524  0.5938
  945MOL0     C27454   3.385  10.407   7.282 -0.1549  0.4991  0.6186
  945MOL0     C27455   3.247  10.454   7.322 -0.0455  0.6789  0.4661
  945MOL0     C27456   3.149  10.392   7.217  0.5997 -0.0688  0.6437
  945MOL0     N27457   3.164  10.248   7.208  0.0463  0.8692  0.1326
  945MOL0     C27458   3.119  10.175   7.308  1.3507 -0.5565  0.5509
  945MOL0     C27459   3.156  10.047   7.276 -1.4380 -0.7433 -0.0795
  945MOL0     C27460   3.139   9.926   7.357 -0.3127  0.4055  0.1907
  945MOL0     C27461   3.272   9.878   7.418  0.0650 -0.2339  0.7768
  945MOL0     C27462   3.371   9.995   7.463  0.2772  0.9427  0.3955
  945MOL0     C27463   3.495   9.923   7.509  0.5147 -0.3551  0.1721
  945MOL0     O27464   3.593  10.003   7.577  0.1043  0.0282 -0.5681
  945MOL0     C27465   3.556  10.089   7.682 -0.1871  0.2397 -0.4295
  945MOL0     C27466   3.625  10.208   7.690 -1.1079  0.5831 -0.2402
  945MOL0     C27467   3.598  10.298   7.790  0.4827  0.1072  0.1267
  945MOL0     C27468   3.681  10.421   7.799  0.7400  0.4235  0.3766
  945MOL0     C27469   3.492  10.267   7.890  0.5959  0.3503  1.0366
  945MOL0     C27470   3.449  10.365   7.993 -0.4094 -0.1312 -0.3685
  945MOL0     O27471   3.325  10.334   8.044  0.6093  0.1772  0.7559
  945MOL0     C27472   3.261  10.411   8.146 -0.3454  0.4593  0.4773
  945MOL0     C27473   3.124  10.428   8.148  1.3885  0.3261 -0.2880
  945MOL0     C27474   3.057  10.482   8.264  0.7993  0.7024 -0.2102
  945MOL0     C27475   3.129  10.520   8.375 -0.6927  0.9920  0.1618
  945MOL0     O27476   3.085  10.591   8.484  0.2948 -0.6219 -0.2323
  945MOL0     C27477   2.998  10.698   8.462  0.9778 -0.1659 -0.1209
  945MOL0     C27478   3.016  10.810   8.565  0.1665 -0.9915  0.2820
  945MOL0     C27479   3.130  10.912   8.539 -0.4466 -0.0254  0.1015
  945MOL0     C27480   3.278  10.861   8.552 -1.1680 -0.3304 -0.2352
  945MOL0     C27481   3.308  10.835   8.703  0.5520 -1.7439  0.5806
  945MOL0     C27482   3.460  10.837   8.737  0.1841 -0.4191  0.0968
  945MOL0     C27483   3.537  10.738   8.651 -0.7566 -0.2607  0.3322
  945MOL0     C27484   3.695  10.749   8.673 -0.2492 -0.0715  0.2120
  945MOL0    Cl27485   3.777  10.709   8.523  0.3038 -0.4305 -0.3767
  945MOL0     C27486   3.267  10.495   8.369 -0.1859 -0.2878 -0.3266
  945MOL0     C27487   3.338  10.442   8.261  0.5796 -0.3130  1.2568
  945MOL0     O27488   3.516  10.468   8.023 -0.0451 -0.3433  0.1105
  945MOL0     C27489   3.430  10.142   7.880  0.5361 -0.4309 -0.7417
  945MOL0     C27490   3.456  10.062   7.776 -1.0440  0.5910  1.5128
  945MOL0     N27491   3.223  10.044   7.154  0.8666 -0.5056  0.3681
  945MOL0     N27492   3.221  10.161   7.103  0.6588 -0.1518 -0.4369
  945MOL0     C27493   3.803  10.042   7.322 -0.0392  0.4329  0.2825
  945MOL0     C27494   3.799   9.907   7.274  0.2971 -0.2737 -0.8946
  945MOL0     C27495   3.952   9.534   7.087 -0.4794  0.0416 -0.1277
  945MOL0     C27496   4.040   9.438   7.119 -0.5075 -0.3862 -1.1721
  945MOL0     C27497   4.030   9.305   7.074  0.2688  0.0380 -0.0376
  945MOL0     C27498   3.912   9.269   6.999  0.1835  0.8404 -0.2044
  945MOL0     O27499   3.890   9.149   6.939 -0.3001 -0.4188  0.0250
  945MOL0     C27500   3.906   9.032   7.015 -0.2516  0.7791 -0.1638
  945MOL0     C27501   4.025   8.950   6.961 -0.5904 -0.3065  0.6643
  945MOL0     C27502   3.975   8.889   6.829 -0.7663 -0.1964 -0.4930
  945MOL0     C27503   4.096   8.848   6.735  0.3146 -0.6508 -0.2853
  945MOL0     C27504   4.177   8.737   6.789  0.3039 -0.2627 -0.2316
  945MOL0     C27505   4.242   8.651   6.836 -0.8494  0.3605  0.3861
  945MOL0     C27506   3.822   9.370   6.967 -0.1394  0.6478  0.5777
  945MOL0     C27507   3.852   9.503   7.000  0.8138  0.5083 -0.4023
  945MOL0     H27508   3.975   9.926   6.990  2.3486 -1.5049  1.2336
  945MOL0     H27509   3.967  10.183   7.054 -2.0755 -0.0713 -2.1742
  945MOL0     H27510   4.005  10.368   7.195  0.2554  1.6011  1.4271
  945MOL0     H27511   3.832  10.391   7.140  0.0696 -1.2858 -1.4249
  945MOL0     H27512   3.954  10.543   7.363 -0.8660  5.2785 -0.2647
  945MOL0     H27513   3.863  10.583   7.221  0.7316  0.9319  1.4665
  945MOL0     H27514   3.762  10.443   7.463 -0.5060  0.0997  0.2905
  945MOL0     H27515   3.715  10.602   7.418  1.8260 -0.0436  2.3889
  945MOL0     H27516   3.619  10.507   7.200 -0.3696 -0.2162 -0.3121
  945MOL0     H27517   3.637  10.347   7.275 -2.0452  0.5309 -3.1034
  945MOL0     H27518   3.488  10.443   7.464  2.8932 -0.2829  0.3956
  945MOL0     H27519   3.463  10.586   7.369  3.1523  1.3677  0.7724
  945MOL0     H27520   3.392  10.428   7.175 -2.9638  0.1074  0.2864
  945MOL0     H27521   3.406  10.300   7.295  4.7635  1.2830  1.0443
  945MOL0     H27522   3.233  10.428   7.427  1.2817  0.5476  0.6230
  945MOL0     H27523   3.247  10.564   7.328 -1.1050  0.6848  0.5477
  945MOL0     H27524   3.174  10.436   7.120  2.1226 -0.4203  0.8522
  945MOL0     H27525   3.049  10.432   7.235  0.8907  0.9003  0.1942
  945MOL0     H27526   3.069  10.215   7.396  0.4518  1.6550 -0.8857
  945MOL0     H27527   3.066   9.945   7.437 -1.5440 -0.6435 -0.6566
  945MOL0     H27528   3.106   9.841   7.298  0.1813 -0.1263  0.6683
  945MOL0     H27529   3.317   9.811   7.344 -0.5622 -1.3459  1.3585
  945MOL0     H27530   3.240   9.816   7.503 -0.1359 -0.2503  0.6913
  945MOL0     H27531   3.330  10.059   7.542 -1.7679 -3.3511  3.2069
  945MOL0     H27532   3.403  10.057   7.379  1.3043  1.3925  1.1014
  945MOL0     H27533   3.544   9.865   7.430  1.0845 -3.3124  2.5223
  945MOL0     H27534   3.449   9.860   7.585 -2.5460  1.0746 -0.3360
  945MOL0     H27535   3.709  10.218   7.623  2.0527 -2.7294  2.7684
  945MOL0     H27536   3.622  10.504   7.758  0.6424  0.2154  0.0843
  945MOL0     H27537   3.719  10.439   7.900  1.9175  2.5697 -0.3896
  945MOL0     H27538   3.771  10.414   7.737 -2.3848  0.9944 -4.8560
  945MOL0     H27539   3.058  10.395   8.068  0.1502 -1.6488  1.4263
  945MOL0     H27540   2.949  10.481   8.268  0.7370 -2.0407 -0.9653
  945MOL0     H27541   3.025  10.757   8.374 -0.3015  2.0484  0.9048
  945MOL0     H27542   2.898  10.655   8.448  0.6478  1.3618 -3.4149
  945MOL0     H27543   2.930  10.874   8.588  2.6319  2.0348  1.9044
  945MOL0     H27544   3.049  10.764   8.659  5.3131  0.8064 -0.3059
  945MOL0     H27545   3.115  11.003   8.597  4.4063  0.5694  0.8755
  945MOL0     H27546   3.113  10.938   8.434 -0.3482 -0.7187 -0.0963
  945MOL0     H27547   3.307  10.775   8.491  2.1082  1.9521 -2.2123
  945MOL0     H27548   3.337  10.944   8.513 -0.3494 -0.3525  0.9129
  945MOL0     H27549   3.252  10.748   8.737 -4.5104  0.5013 -1.0899
  945MOL0     H27550   3.271  10.923   8.756  1.9289 -0.2152 -0.8522
  945MOL0     H27551   3.481  10.936   8.696 -5.3439  0.2946 -1.8467
  945MOL0     H27552   3.473  10.826   8.845  0.3669 -4.4078 -0.2068
  945MOL0     H27553   3.497  10.754   8.551 -1.9203  0.2398  0.8568
  945MOL0     H27554   3.508  10.633   8.665  5.0267 -2.2835 -0.1433
  945MOL0     H27555   3.732  10.689   8.756  1.0565  0.2406 -0.1329
  945MOL0     H27556   3.729  10.847   8.707  2.6099  0.5408 -3.7133
  945MOL0     H27557   3.336  10.529   8.446  0.7038  1.0452 -1.6534
  945MOL0     H27558   3.444  10.419   8.267  0.7974  0.5520  0.9135
  945MOL0     H27559   3.349  10.113   7.947 -2.3705  0.7832 -3.4470
  945MOL0     H27560   3.403   9.970   7.754 -4.1465  2.9711 -2.2551
  945MOL0     H27561   3.755  10.060   7.418  1.2843 -3.1213  1.7909
  945MOL0     H27562   3.751   9.823   7.322  2.2547 -1.9169 -1.6417
  945MOL0     H27563   4.123   9.465   7.183 -1.6008 -0.8022  0.5004
  945MOL0     H27564   4.120   9.246   7.083 -0.2372 -0.6851  0.3337
  945MOL0     H27565   3.918   9.052   7.121 -0.1801 -0.3152  0.0433
  945MOL0     H27566   3.817   8.968   7.007  1.5002 -1.7411 -0.5942
  945MOL0     H27567   4.060   8.880   7.038 -0.6386 -0.2700  0.7205
  945MOL0     H27568   4.120   8.999   6.938 -0.9540 -1.1495 -3.2882
  945MOL0     H27569   3.894   8.943   6.778 -0.0195 -0.3600 -1.8958
  945MOL0     H27570   3.929   8.792   6.848 -1.1252  0.4849  2.6188
  945MOL0     H27571   4.161   8.934   6.716  0.3928 -0.9186 -1.2901
  945MOL0     H27572   4.070   8.819   6.633  0.6502  2.4475 -1.3475
  945MOL0     H27573   4.309   8.569   6.852 -2.7408 -1.4810 -0.5535
  945MOL0     H27574   3.738   9.346   6.903 -1.0875  2.7822  0.9218
  945MOL0     H27575   3.779   9.580   6.977 -0.5401  0.1372  2.2113
  946MOL0     O27576   7.347   6.091  11.405 -0.1458 -0.2885  0.0156
  946MOL0     C27577   7.272   5.993  11.412 -0.0871  0.3433 -0.7223
  946MOL0     O27578   7.297   5.865  11.356  0.1138 -0.7837  0.3575
  946MOL0     C27579   7.402   5.836  11.269  1.0978  0.2358 -0.3158
  946MOL0     C27580   7.381   5.783  11.144 -0.3605  0.3466 -0.0346
  946MOL0     C27581   7.490   5.743  11.059  0.2446  0.9555 -0.3122
  946MOL0     C27582   7.619   5.771  11.102 -0.3545  0.4121 -1.0755
  946MOL0     O27583   7.734   5.726  11.038 -0.5785 -0.4467  0.2477
  946MOL0     C27584   7.724   5.756  10.897 -0.5418  0.0773 -0.0530
  946MOL0     C27585   7.856   5.720  10.823 -0.2162  0.4984  0.2272
  946MOL0     C27586   7.839   5.756  10.676 -0.3891 -0.3820 -0.1502
  946MOL0     C27587   7.794   5.645  10.592 -0.3235  0.5282  0.4659
  946MOL0     C27588   7.743   5.701  10.464  0.4079 -0.6943 -0.2138
  946MOL0     C27589   7.695   5.590  10.378 -0.3801 -0.5271 -0.0723
  946MOL0     C27590   7.643   5.631  10.240 -0.9079  0.4693  0.7039
  946MOL0     C27591   7.584   5.512  10.171 -0.8219 -0.3110  0.2549
  946MOL0     N27592   7.690   5.425  10.120 -0.1974 -0.5602 -0.3538
  946MOL0     C27593   7.704   5.287  10.139 -0.0327 -1.4681  0.5423
  946MOL0     C27594   7.827   5.263  10.081  0.0508 -0.0622 -0.7053
  946MOL0     C27595   7.905   5.134  10.084  0.0950  0.2356 -0.6310
  946MOL0     C27596   7.830   5.032  10.003  0.0291  0.3194 -0.0058
  946MOL0     C27597   7.851   4.893  10.061  0.0396  0.6194 -0.8249
  946MOL0     C27598   8.003   4.856  10.074 -0.5297  0.3990  0.1580
  946MOL0     O27599   8.007   4.741  10.168  0.3884  0.0624 -0.3693
  946MOL0     C27600   8.119   4.667  10.175  0.2882  0.8773  0.3055
  946MOL0     C27601   8.106   4.546  10.244 -0.9114 -0.6741 -0.5266
  946MOL0     C27602   8.218   4.474  10.265  0.2786  0.1060  0.7414
  946MOL0     C27603   8.196   4.350  10.348 -0.5251  0.3446  0.4727
  946MOL0     C27604   8.340   4.507  10.209 -0.4754 -0.7174  1.2148
  946MOL0     C27605   8.457   4.426  10.226  0.6954 -0.7514 -0.2470
  946MOL0     O27606   8.484   4.393  10.357 -0.2306 -0.6265 -1.0004
  946MOL0     C27607   8.586   4.296  10.375  0.2057  0.0085  1.0187
  946MOL0     C27608   8.574   4.161  10.343  0.3109 -0.0425  0.3622
  946MOL0     C27609   8.673   4.070  10.373 -0.5819  0.1421 -0.1579
  946MOL0     C27610   8.788   4.111  10.429 -0.0577  1.2636  1.2789
  946MOL0     O27611   8.891   4.020  10.432 -0.8907 -0.3802 -0.4989
  946MOL0     C27612   8.963   3.985  10.311  0.6752  0.5752 -0.5029
  946MOL0     C27613   9.006   3.837  10.311  0.2089 -0.1746  0.3517
  946MOL0     C27614   9.117   3.810  10.198  0.3033  0.2480  0.9268
  946MOL0     C27615   9.209   3.699  10.227 -0.8621 -0.8500  0.1514
  946MOL0     C27616   9.146   3.566  10.200 -0.2852  1.2916 -0.0235
  946MOL0     C27617   9.098   3.515  10.063 -0.9138  0.3379 -0.9498
  946MOL0     C27618   9.203   3.555   9.954  1.1811  0.1855  0.5947
  946MOL0     C27619   9.168   3.471   9.824 -0.4049  0.2196  0.7664
  946MOL0    Cl27620   9.017   3.540   9.758  0.4238  0.0890 -0.0559
  946MOL0     C27621   8.804   4.244  10.458  0.1161  0.0791  0.2478
  946MOL0     C27622   8.706   4.330  10.420 -0.2987 -0.0761 -0.1137
  946MOL0     O27623   8.531   4.401  10.134 -0.4534 -0.0985  0.2527
  946MOL0     C27624   8.354   4.618  10.124  0.1284  0.0526  0.4691
  946MOL0     C27625   8.236   4.696  10.108 -0.6475 -0.1261 -0.1021
  946MOL0     N27626   7.881   5.376  10.027  0.1796 -0.0520 -0.9453
  946MOL0     N27627   7.796   5.469  10.049 -0.8311 -0.9134 -0.0703
  946MOL0     C27628   7.639   5.820  11.229 -0.1523 -0.0798 -0.6097
  946MOL0     C27629   7.534   5.861  11.308 -1.1383  0.0985  0.6423
  946MOL0     C27630   7.149   6.011  11.481  1.0141 -0.3255  0.7631
  946MOL0     C27631   7.044   5.916  11.449 -0.0151  0.0436 -0.3916
  946MOL0     C27632   6.922   5.930  11.515 -0.1428  0.0020  0.6416
  946MOL0     C27633   6.891   6.029  11.613  0.1758 -0.2586 -0.2334
  946MOL0     O27634   6.778   6.015  11.680  0.3267 -0.2774 -0.5751
  946MOL0     C27635   6.755   6.083  11.800 -0.3026 -0.4733 -0.1132
  946MOL0     C27636   6.841   6.020  11.908 -0.1778 -0.2490  0.1922
  946MOL0     C27637   6.804   6.077  12.049  0.5243  0.4404  0.1802
  946MOL0     C27638   6.810   6.230  12.065  0.1763  0.4231 -0.7817
  946MOL0     C27639   6.789   6.257  12.207 -0.0792  0.0554 -0.1048
  946MOL0     C27640   6.770   6.263  12.327  0.6024 -0.2689 -0.0694
  946MOL0     C27641   6.995   6.122  11.645  0.3337 -0.0800 -0.1733
  946MOL0     C27642   7.118   6.111  11.571  0.7460  0.6406  0.0193
  946MOL0     H27643   7.276   5.771  11.119 -0.3665  0.7529 -0.2183
  946MOL0     H27644   7.464   5.699  10.964  1.6295 -0.3462 -0.1172
  946MOL0     H27645   7.638   5.708  10.849 -3.4986  3.2452  1.6063
  946MOL0     H27646   7.714   5.864  10.882  1.2387  0.1404 -1.0794
  946MOL0     H27647   7.929   5.788  10.868 -1.5971  0.7315  2.2999
  946MOL0     H27648   7.889   5.617  10.838 -0.0922  0.6496  1.0725
  946MOL0     H27649   7.774   5.844  10.669 -1.8080 -1.0610  2.9307
  946MOL0     H27650   7.939   5.790  10.646  1.1394 -2.5389  2.0888
  946MOL0     H27651   7.870   5.570  10.569  1.3805  2.4291 -0.4231
  946MOL0     H27652   7.709   5.598  10.642 -0.9507  0.7089 -0.4038
  946MOL0     H27653   7.671   5.780  10.484  0.2739 -0.6270 -0.9318
  946MOL0     H27654   7.825   5.749  10.410 -0.8778  0.6961 -1.0070
  946MOL0     H27655   7.776   5.518  10.364  2.0500  2.1766 -1.1055
  946MOL0     H27656   7.622   5.544  10.444 -0.1435  2.2017  2.2789
  946MOL0     H27657   7.564   5.703  10.263 -0.8515  1.5834 -2.1756
  946MOL0     H27658   7.715   5.689  10.181 -1.9674  0.9559 -0.1526
  946MOL0     H27659   7.522   5.552  10.090 -0.0710 -0.8759 -0.6135
  946MOL0     H27660   7.528   5.456  10.245  1.0433  2.2156  3.9193
  946MOL0     H27661   7.640   5.218  10.195 -3.7122 -0.2964 -1.8661
  946MOL0     H27662   8.007   5.143  10.046  0.8167  2.1329  1.4906
  946MOL0     H27663   7.928   5.102  10.186  0.7028  0.4196 -0.7062
  946MOL0     H27664   7.861   5.028   9.898  1.8819 -2.2922  0.5449
  946MOL0     H27665   7.723   5.053  10.013  0.5428  2.8841  1.0897
  946MOL0     H27666   7.805   4.815   9.999  0.6507 -0.8774  0.5102
  946MOL0     H27667   7.784   4.888  10.148 -0.7700  1.2602 -1.3978
  946MOL0     H27668   8.072   4.932  10.110 -0.5564 -0.6352  2.5533
  946MOL0     H27669   8.047   4.829   9.978 -0.0219 -2.0207  1.0032
  946MOL0     H27670   8.014   4.531  10.299  0.2316  0.7013  1.9241
  946MOL0     H27671   8.271   4.275  10.322  0.9540  0.8473  2.9801
  946MOL0     H27672   8.208   4.360  10.456  0.4441 -1.3350  0.5542
  946MOL0     H27673   8.097   4.311  10.320  0.9454 -3.6847  0.1723
  946MOL0     H27674   8.482   4.121  10.303  0.1236  0.9022 -0.1874
  946MOL0     H27675   8.664   3.969  10.335  3.0836  1.0678 -4.3002
  946MOL0     H27676   8.905   4.016  10.224  1.6186  2.6965 -0.4467
  946MOL0     H27677   9.055   4.044  10.304  0.5656  1.1792  2.0120
  946MOL0     H27678   9.038   3.820  10.415  0.8458  0.9691  0.3650
  946MOL0     H27679   8.926   3.764  10.299 -0.8300  0.8540  0.8289
  946MOL0     H27680   9.191   3.890  10.189  1.2270 -0.4667  1.9675
  946MOL0     H27681   9.076   3.791  10.098 -0.4925  0.7881  1.1377
  946MOL0     H27682   9.299   3.702  10.164 -2.2588 -3.3833 -2.1648
  946MOL0     H27683   9.239   3.708  10.332 -3.0723  2.4444  0.6503
  946MOL0     H27684   9.063   3.549  10.269  0.7391  1.8374  1.4136
  946MOL0     H27685   9.218   3.486  10.219 -0.6705  1.1601  0.9456
  946MOL0     H27686   9.083   3.406  10.062  1.3914 -0.0440 -2.9431
  946MOL0     H27687   9.006   3.567  10.035 -0.3134  1.3757 -1.0479
  946MOL0     H27688   9.306   3.537   9.984  2.0254 -1.9014 -2.9710
  946MOL0     H27689   9.191   3.660   9.927  2.7327  0.6257  1.5320
  946MOL0     H27690   9.153   3.368   9.859 -2.5116 -0.2275 -1.1877
  946MOL0     H27691   9.238   3.469   9.741 -1.2989  2.3895 -0.1107
  946MOL0     H27692   8.882   4.286  10.521  2.5300 -2.9161 -0.4614
  946MOL0     H27693   8.729   4.433  10.446  2.1997  0.0999 -2.5420
  946MOL0     H27694   8.442   4.632  10.062  0.7512 -0.4858  1.2137
  946MOL0     H27695   8.242   4.784  10.044 -0.2463  0.8994  1.3116
  946MOL0     H27696   7.738   5.848  11.264 -0.3548  1.7911 -1.3862
  946MOL0     H27697   7.561   5.916  11.397  3.5207 -0.4359 -0.2278
  946MOL0     H27698   7.066   5.847  11.368  2.7769 -0.2778  0.5395
  946MOL0     H27699   6.831   5.875  11.491 -2.2158  3.2040  0.5489
  946MOL0     H27700   6.769   6.190  11.781 -1.9263 -0.1081  0.5540
  946MOL0     H27701   6.650   6.068  11.828 -0.2697 -2.4582 -0.8949
  946MOL0     H27702   6.948   6.037  11.890 -0.5417  1.0615 -0.7999
  946MOL0     H27703   6.812   5.914  11.911  2.3294 -1.0412 -0.7126
  946MOL0     H27704   6.876   6.041  12.123  1.5623  0.7799 -0.6469
  946MOL0     H27705   6.708   6.036  12.080  0.7937  0.3249  0.8778
  946MOL0     H27706   6.727   6.279  12.012 -2.1028 -1.0324  1.2056
  946MOL0     H27707   6.911   6.258  12.034  1.6238 -3.5464 -0.1426
  946MOL0     H27708   6.753   6.278  12.431 -1.1060  0.0247 -0.3731
  946MOL0     H27709   6.984   6.202  11.717  0.7574 -0.8103  0.7340
  946MOL0     H27710   7.182   6.196  11.587 -1.8193  2.7139 -0.1068
  947MOL0     O27711   8.426  10.718   1.634 -0.0628 -0.7464 -0.0851
  947MOL0     C27712   8.550  10.695   1.634  0.1618  0.2629 -0.1357
  947MOL0     O27713   8.604  10.564   1.630  0.1297  0.3868 -0.0769
  947MOL0     C27714   8.526  10.449   1.618 -0.6030 -0.0593 -0.4463
  947MOL0     C27715   8.603  10.335   1.576 -0.3173 -0.1631  0.0744
  947MOL0     C27716   8.540  10.216   1.540 -0.0143  0.0793  0.3056
  947MOL0     C27717   8.398  10.202   1.547  1.2965  0.4965  0.6900
  947MOL0     O27718   8.335  10.090   1.512 -0.6183 -0.7744  0.0894
  947MOL0     C27719   8.283   9.999   1.609  0.7954  0.2563  0.2673
  947MOL0     C27720   8.244   9.873   1.526  0.7470  0.2203 -0.0622
  947MOL0     C27721   8.135   9.919   1.422  0.1853 -0.0902  0.0573
  947MOL0     C27722   8.055   9.798   1.367  1.1755 -0.5038  0.1083
  947MOL0     C27723   7.957   9.835   1.264  0.8530  0.2201  0.4322
  947MOL0     C27724   8.015   9.845   1.120  0.0163 -0.2817 -0.9829
  947MOL0     C27725   7.908   9.896   1.029 -1.0853  0.0504 -0.1181
  947MOL0     C27726   7.965   9.919   0.895 -0.1358 -0.0799 -0.3313
  947MOL0     N27727   8.039   9.801   0.838  0.0596 -0.7178 -0.4609
  947MOL0     C27728   7.979   9.686   0.804  0.2374 -0.1601  0.0971
  947MOL0     C27729   8.079   9.613   0.757  1.8644  0.0134  0.4814
  947MOL0     C27730   8.066   9.473   0.717  0.2439  0.1171 -0.2789
  947MOL0     C27731   8.134   9.393   0.820  0.2919 -0.5148  0.3075
  947MOL0     C27732   8.085   9.418   0.968  0.7137 -0.5908  0.6935
  947MOL0     C27733   7.932   9.422   0.983  0.9858 -0.4977 -0.2412
  947MOL0     O27734   7.903   9.475   1.116  0.1871 -0.1202  0.1158
  947MOL0     C27735   7.780   9.457   1.176  0.0484  0.2881  0.3748
  947MOL0     C27736   7.765   9.382   1.295  0.0389 -0.3262  0.0741
  947MOL0     C27737   7.640   9.358   1.357  0.8262 -0.1506 -0.0876
  947MOL0     C27738   7.640   9.273   1.479  1.1083 -0.1466  0.4933
  947MOL0     C27739   7.520   9.410   1.295 -0.8388  0.1807 -0.3411
  947MOL0     C27740   7.387   9.385   1.357  0.4942  0.7816 -0.0623
  947MOL0     O27741   7.368   9.415   1.482 -0.3894 -0.6199 -0.3741
  947MOL0     C27742   7.253   9.373   1.539 -0.0187  0.3494  0.2584
  947MOL0     C27743   7.273   9.262   1.624 -0.3698  0.4489 -0.3218
  947MOL0     C27744   7.174   9.208   1.700 -0.1208 -0.2135  0.2264
  947MOL0     C27745   7.041   9.259   1.681  0.4190  0.2117 -0.6698
  947MOL0     O27746   6.925   9.201   1.744  0.0401 -0.2973 -0.1135
  947MOL0     C27747   6.952   9.117   1.854  0.3327  0.1710 -0.2726
  947MOL0     C27748   6.843   9.065   1.936 -0.3231 -0.4062  0.8563
  947MOL0     C27749   6.730   8.997   1.847 -0.6774  0.0269  0.2522
  947MOL0     C27750   6.776   8.893   1.746 -0.7796 -0.5441  0.4003
  947MOL0     C27751   6.666   8.851   1.665 -0.0021  0.4854 -0.6557
  947MOL0     C27752   6.557   8.769   1.735 -0.0162 -0.1433  0.7604
  947MOL0     C27753   6.446   8.741   1.632  0.5869 -0.3662  0.1118
  947MOL0     C27754   6.327   8.692   1.705  0.7647  0.1152  0.6225
  947MOL0    Cl27755   6.195   8.626   1.596 -0.0620 -0.7529 -0.2865
  947MOL0     C27756   7.026   9.370   1.603  0.4380  0.5255  1.2584
  947MOL0     C27757   7.126   9.431   1.539 -0.2237  0.1225  0.4806
  947MOL0     O27758   7.300   9.361   1.273 -0.2881 -0.5506  0.0087
  947MOL0     C27759   7.535   9.491   1.185 -0.3863  0.6784  0.0699
  947MOL0     C27760   7.664   9.510   1.121  0.4421 -0.0417  0.7698
  947MOL0     N27761   8.198   9.682   0.770 -0.6297  0.6453 -0.8613
  947MOL0     N27762   8.176   9.801   0.815 -0.0522 -0.6578  0.4225
  947MOL0     C27763   8.328  10.310   1.607  0.4083 -0.8408  0.3187
  947MOL0     C27764   8.393  10.432   1.637 -0.4718 -0.2903  0.0552
  947MOL0     C27765   8.649  10.799   1.612  0.6165  0.5349  0.0005
  947MOL0     C27766   8.780  10.759   1.578 -0.0333 -0.0789  0.8455
  947MOL0     C27767   8.868  10.864   1.539 -0.8060 -0.0089  0.0600
  947MOL0     C27768   8.841  11.003   1.535  0.5328  0.2583 -0.2441
  947MOL0     O27769   8.939  11.095   1.507 -0.9759 -0.6565  0.4737
  947MOL0     C27770   8.918  11.233   1.518  0.8660  0.1986 -0.2643
  947MOL0     C27771   9.044  11.307   1.505 -0.5958 -0.4329 -0.4151
  947MOL0     C27772   9.126  11.292   1.381  1.0016  0.8910  0.6428
  947MOL0     C27773   9.255  11.377   1.382 -0.4962  0.6562  0.1733
  947MOL0     C27774   9.339  11.363   1.263  1.0770 -0.1312 -0.8572
  947MOL0     C27775   9.430  11.365   1.186  0.4125 -0.4905  0.7936
  947MOL0     C27776   8.705  11.036   1.552 -0.7884  0.6180 -0.3241
  947MOL0     C27777   8.615  10.935   1.594  0.3569  0.2445 -0.4388
  947MOL0     H27778   8.709  10.347   1.556 -0.5304 -1.1410 -1.9345
  947MOL0     H27779   8.596  10.131   1.503 -3.8374 -3.2217  1.4854
  947MOL0     H27780   8.355   9.982   1.689  0.9326 -0.4912 -0.0116
  947MOL0     H27781   8.194  10.043   1.656  0.2289 -0.4955 -0.0814
  947MOL0     H27782   8.327   9.822   1.476 -0.1875 -1.1778 -0.2185
  947MOL0     H27783   8.193   9.808   1.597  1.9920  0.3031  0.9598
  947MOL0     H27784   8.063   9.995   1.452  0.5960  0.3933 -0.1629
  947MOL0     H27785   8.190   9.957   1.336 -1.3206 -0.2743 -1.0340
  947MOL0     H27786   8.115   9.724   1.314  1.2935  1.2075 -2.3099
  947MOL0     H27787   8.009   9.739   1.448 -0.9769  0.4634 -0.3389
  947MOL0     H27788   7.875   9.762   1.270 -0.8149  1.8475 -1.2651
  947MOL0     H27789   7.906   9.930   1.284 -2.0003 -0.8853 -0.9231
  947MOL0     H27790   8.101   9.912   1.125 -1.2373  1.3092  1.5426
  947MOL0     H27791   8.057   9.748   1.094  1.6013  0.9837 -3.4646
  947MOL0     H27792   7.831   9.820   1.012 -0.2760 -0.2175 -3.2119
  947MOL0     H27793   7.864   9.990   1.066 -3.1724  0.0852 -2.4052
  947MOL0     H27794   8.038  10.001   0.895  0.5891 -0.6611  1.3512
  947MOL0     H27795   7.882   9.934   0.826 -0.8384 -0.9235  0.2937
  947MOL0     H27796   7.873   9.666   0.810  0.5886 -1.7330  3.2161
  947MOL0     H27797   7.959   9.456   0.702 -0.2187 -0.1349  2.7345
  947MOL0     H27798   8.116   9.445   0.624  1.6556 -3.2222  1.3358
  947MOL0     H27799   8.242   9.406   0.822  0.0907  1.3123  1.8054
  947MOL0     H27800   8.115   9.290   0.787  2.4330 -1.7535  2.6082
  947MOL0     H27801   8.134   9.513   0.992  0.8315 -0.7733  1.2075
  947MOL0     H27802   8.124   9.344   1.038  2.8184 -1.5524 -1.3733
  947MOL0     H27803   7.891   9.321   0.984 -0.1299 -0.1238 -2.5931
  947MOL0     H27804   7.889   9.486   0.906 -1.4851 -0.4911  1.0204
  947MOL0     H27805   7.853   9.341   1.343  0.6209 -0.7820 -1.3389
  947MOL0     H27806   7.745   9.257   1.505  1.0579 -0.6903  0.3730
  947MOL0     H27807   7.590   9.317   1.566  0.9763 -0.9114  0.8082
  947MOL0     H27808   7.584   9.180   1.470 -1.4555  1.0964  2.4365
  947MOL0     H27809   7.371   9.229   1.655  0.8135  1.8134 -2.3886
  947MOL0     H27810   7.193   9.132   1.776 -0.8032  2.0280  2.8147
  947MOL0     H27811   7.013   9.032   1.823  1.6007  1.2611 -0.8872
  947MOL0     H27812   7.008   9.178   1.926 -1.9203 -1.0069  2.6953
  947MOL0     H27813   6.880   9.005   2.019  0.4111  1.7611  2.1875
  947MOL0     H27814   6.791   9.150   1.982 -1.4670 -1.4322  1.5000
  947MOL0     H27815   6.674   9.075   1.793 -0.5906  1.3859  2.0321
  947MOL0     H27816   6.668   8.945   1.921  0.1146  2.5149  2.8691
  947MOL0     H27817   6.854   8.940   1.686 -1.2102  0.4072  0.5620
  947MOL0     H27818   6.822   8.808   1.799 -0.8355 -2.6567 -2.6916
  947MOL0     H27819   6.714   8.793   1.585 -1.2207 -3.8938  1.4605
  947MOL0     H27820   6.624   8.942   1.621  3.9352  2.2390 -1.1676
  947MOL0     H27821   6.606   8.682   1.779 -0.6788 -0.0218  1.7823
  947MOL0     H27822   6.513   8.826   1.817  1.6326  0.3237  1.3651
  947MOL0     H27823   6.492   8.661   1.572 -1.7737 -1.4908 -0.2917
  947MOL0     H27824   6.423   8.830   1.573  2.9684  0.1209 -0.1963
  947MOL0     H27825   6.293   8.780   1.760 -0.0547  0.3009 -0.1511
  947MOL0     H27826   6.361   8.605   1.761 -0.3512 -1.5343 -1.1115
  947MOL0     H27827   6.928   9.415   1.595  0.6938  1.7279  3.8845
  947MOL0     H27828   7.095   9.511   1.473  0.1102  0.1506  0.3555
  947MOL0     H27829   7.446   9.519   1.130 -1.1310  1.8939  1.8222
  947MOL0     H27830   7.683   9.573   1.035 -1.3998  1.1886  1.2056
  947MOL0     H27831   8.221  10.301   1.623 -0.4165  0.8405 -3.3169
  947MOL0     H27832   8.335  10.514   1.679 -0.3669  0.0714 -0.4970
  947MOL0     H27833   8.805  10.654   1.570 -0.0026  0.0614 -1.4002
  947MOL0     H27834   8.971  10.838   1.517 -0.0206  2.5917  0.2759
  947MOL0     H27835   8.857  11.269   1.434  0.4337 -1.1429 -0.5414
  947MOL0     H27836   8.867  11.252   1.613  2.2175  1.4234  0.2518
  947MOL0     H27837   9.110  11.275   1.586 -0.0677  2.4554  0.4310
  947MOL0     H27838   9.021  11.414   1.515  3.5658  0.5416  1.1432
  947MOL0     H27839   9.086  11.329   1.286 -2.8615  0.7087  2.0126
  947MOL0     H27840   9.144  11.185   1.372  3.9623  1.4348 -1.0495
  947MOL0     H27841   9.318  11.345   1.467  2.4343  2.0057 -1.3361
  947MOL0     H27842   9.230  11.483   1.384 -1.6119  0.4052 -0.1134
  947MOL0     H27843   9.527  11.361   1.140  0.4926 -0.9850  1.0023
  947MOL0     H27844   8.666  11.136   1.534  0.7309  0.8236 -2.8428
  947MOL0     H27845   8.509  10.955   1.603  0.0286 -1.4076 -0.3233
  948MOL0     O27846   8.950   0.869   4.275  0.2347  0.1127 -0.4331
  948MOL0     C27847   8.921   0.792   4.367 -0.8043 -0.0372 -0.3523
  948MOL0     O27848   8.792   0.740   4.398  0.6645  0.4767 -0.1521
  948MOL0     C27849   8.683   0.792   4.344  0.6790  0.5213  0.2701
  948MOL0     C27850   8.663   0.926   4.310 -0.6532  0.2926 -0.4432
  948MOL0     C27851   8.542   0.983   4.267  0.9542  0.1804 -0.1578
  948MOL0     C27852   8.423   0.901   4.249  0.3145  0.1424  1.3027
  948MOL0     O27853   8.301   0.943   4.207 -0.5660  0.4454  0.1633
  948MOL0     C27854   8.286   1.050   4.111  0.0704  0.4926 -0.2345
  948MOL0     C27855   8.384   1.047   3.988 -0.2553 -0.4444  0.3075
  948MOL0     C27856   8.372   1.171   3.892  0.3916  0.2093 -0.6440
  948MOL0     C27857   8.246   1.138   3.798 -0.5314  0.4267 -0.2680
  948MOL0     C27858   8.246   1.230   3.676  0.1433 -0.4724 -0.3224
  948MOL0     C27859   8.195   1.366   3.717 -0.8545 -0.1178 -0.4295
  948MOL0     C27860   8.189   1.469   3.603 -0.0025  0.3560  0.2937
  948MOL0     C27861   8.125   1.599   3.657 -0.1163  0.8931 -0.5606
  948MOL0     N27862   8.112   1.708   3.555  0.5400  0.0266 -0.1105
  948MOL0     C27863   8.216   1.767   3.488 -0.7113  0.2447 -1.0281
  948MOL0     C27864   8.170   1.878   3.435 -1.6920 -0.9415 -0.1558
  948MOL0     C27865   8.256   1.981   3.363  0.6908 -0.1740 -0.2659
  948MOL0     C27866   8.236   1.970   3.214 -0.4744  0.6619 -0.7486
  948MOL0     C27867   8.306   2.075   3.124 -0.0889 -0.7158  0.4535
  948MOL0     C27868   8.458   2.070   3.127  0.0999 -0.5348  0.9730
  948MOL0     O27869   8.519   2.196   3.075  0.0613 -0.5018 -0.1509
  948MOL0     C27870   8.657   2.199   3.067  0.7049  0.4489  0.1446
  948MOL0     C27871   8.754   2.097   3.082  0.6875 -0.3086  0.2320
  948MOL0     C27872   8.889   2.112   3.077 -0.5658 -0.6829 -0.0939
  948MOL0     C27873   8.990   2.010   3.109  0.4269  0.3836  0.1412
  948MOL0     C27874   8.944   2.241   3.046  0.6681  0.1473 -0.6782
  948MOL0     C27875   9.088   2.286   3.025  0.3776  0.4624  0.0164
  948MOL0     O27876   9.114   2.414   2.993  0.6354  0.0586 -0.3332
  948MOL0     C27877   9.244   2.453   2.997  0.4782  0.3653  0.3756
  948MOL0     C27878   9.330   2.422   3.093 -0.8388  0.0633  0.4899
  948MOL0     C27879   9.458   2.474   3.086  0.3913  0.4802  0.4015
  948MOL0     C27880   9.513   2.533   2.978  0.1601 -1.0657  0.0272
  948MOL0     O27881   9.638   2.595   2.968  0.0993 -0.3916 -0.2068
  948MOL0     C27882   9.735   2.568   3.071  0.0828 -0.1027 -0.1962
  948MOL0     C27883   9.874   2.564   2.998 -0.3891  0.0522  0.3939
  948MOL0     C27884   9.900   2.690   2.915  1.3010  0.6729 -1.1196
  948MOL0     C27885  10.050   2.701   2.885  0.0546  0.3607 -1.2041
  948MOL0     C27886  10.081   2.843   2.836  0.1373 -0.8989 -0.6463
  948MOL0     C27887  10.226   2.858   2.814 -0.8071 -0.9105 -0.4129
  948MOL0     C27888  10.263   3.005   2.801 -0.8018  0.3570 -0.0592
  948MOL0     C27889  10.228   3.069   2.666  0.3390 -0.0581  1.0940
  948MOL0    Cl27890  10.256   3.238   2.695 -0.3058 -0.2188  0.2982
  948MOL0     C27891   9.421   2.573   2.880 -0.0839 -0.3029  0.1881
  948MOL0     C27892   9.292   2.526   2.882  0.6677 -0.8527 -0.0089
  948MOL0     O27893   9.177   2.199   3.011  0.0317  0.6811  0.6544
  948MOL0     C27894   8.846   2.346   3.029 -0.7326  0.6097  1.0893
  948MOL0     C27895   8.710   2.321   3.032  0.1996  0.1194 -0.5287
  948MOL0     N27896   8.039   1.886   3.475 -0.2448 -0.1204  0.4123
  948MOL0     N27897   7.999   1.782   3.530  0.4219  0.2430 -0.1677
  948MOL0     C27898   8.439   0.765   4.284 -0.3783  0.9737 -1.6101
  948MOL0     C27899   8.563   0.719   4.337  0.1279 -0.1840 -0.2737
  948MOL0     C27900   9.036   0.734   4.449  0.4380  1.0468 -0.1617
  948MOL0     C27901   9.005   0.673   4.572 -0.4300  0.0031  0.2976
  948MOL0     C27902   9.108   0.612   4.652  0.6313 -0.1171  0.3197
  948MOL0     C27903   9.239   0.639   4.624  0.4946  0.8044  0.2217
  948MOL0     O27904   9.321   0.578   4.720  0.1925 -0.5612 -0.0093
  948MOL0     C27905   9.459   0.627   4.710 -0.5160 -0.4396 -0.2962
  948MOL0     C27906   9.520   0.596   4.848 -0.0800  0.2551 -0.0059
  948MOL0     C27907   9.672   0.622   4.864  0.4795  0.3833  0.3044
  948MOL0     C27908   9.759   0.530   4.777 -0.1744 -0.2051 -0.0597
  948MOL0     C27909   9.903   0.535   4.819  0.2642 -0.1729 -0.4073
  948MOL0     C27910  10.021   0.555   4.855  0.3817 -0.0043  0.7952
  948MOL0     C27911   9.272   0.704   4.507 -0.8076  0.6521 -0.5130
  948MOL0     C27912   9.174   0.749   4.420 -0.0256  0.4623  0.1260
  948MOL0     H27913   8.753   0.987   4.315 -1.0809  1.0096 -1.2994
  948MOL0     H27914   8.537   1.089   4.248  1.2973  0.1377 -0.4846
  948MOL0     H27915   8.185   1.046   4.070 -0.6842  2.0271  1.3533
  948MOL0     H27916   8.306   1.146   4.160  2.5857  0.5895 -1.2948
  948MOL0     H27917   8.486   1.059   4.027 -0.5345  1.5475  0.4904
  948MOL0     H27918   8.376   0.949   3.938 -0.6561 -0.8005  1.0522
  948MOL0     H27919   8.353   1.258   3.956 -0.5292 -0.4700  0.0302
  948MOL0     H27920   8.464   1.193   3.837  0.1067  0.6363 -0.9553
  948MOL0     H27921   8.250   1.035   3.763 -0.7395  0.3285 -0.0104
  948MOL0     H27922   8.156   1.143   3.860 -0.2402 -2.6672  0.5899
  948MOL0     H27923   8.344   1.232   3.627 -0.8306 -0.8340 -2.4131
  948MOL0     H27924   8.192   1.189   3.589  0.9217 -1.6461 -0.2716
  948MOL0     H27925   8.090   1.349   3.744 -1.0238  1.1096 -0.2424
  948MOL0     H27926   8.246   1.405   3.806 -0.1679  0.0283 -0.8883
  948MOL0     H27927   8.294   1.480   3.575 -0.0720 -1.2572 -0.7578
  948MOL0     H27928   8.134   1.441   3.513  0.4623 -3.2077  0.9834
  948MOL0     H27929   8.194   1.628   3.736 -0.0736 -0.5767 -0.0156
  948MOL0     H27930   8.023   1.582   3.693  0.0125  0.3906 -0.4161
  948MOL0     H27931   8.318   1.729   3.477 -0.4192  0.1649  1.3524
  948MOL0     H27932   8.214   2.071   3.409 -0.8778 -0.9630 -0.0837
  948MOL0     H27933   8.364   1.973   3.380  1.3782 -0.7380 -3.9946
  948MOL0     H27934   8.128   1.969   3.197 -0.3563  0.0673 -1.5017
  948MOL0     H27935   8.281   1.875   3.184  0.4708  1.2416 -1.2134
  948MOL0     H27936   8.272   2.170   3.167 -3.0761 -1.7526  0.6659
  948MOL0     H27937   8.268   2.059   3.023 -0.0973 -2.7722  0.7371
  948MOL0     H27938   8.475   1.986   3.059 -0.8092  0.3388 -0.3901
  948MOL0     H27939   8.497   2.050   3.227  0.7110 -5.0036  0.0793
  948MOL0     H27940   8.713   2.004   3.119  0.3278  0.3301  1.4903
  948MOL0     H27941   9.057   2.045   3.188 -0.7797  0.4812  1.1511
  948MOL0     H27942   8.937   1.924   3.151 -0.6159  0.7767 -0.3543
  948MOL0     H27943   9.047   1.968   3.025 -0.7348  0.5098 -0.7303
  948MOL0     H27944   9.292   2.376   3.183  0.0009  2.2706  2.0559
  948MOL0     H27945   9.523   2.445   3.168  1.0236  1.8654  0.4276
  948MOL0     H27946   9.739   2.655   3.137 -0.5776 -0.2175  0.0067
  948MOL0     H27947   9.731   2.478   3.133  0.6529 -0.3179 -0.4677
  948MOL0     H27948   9.944   2.555   3.082  1.5739 -0.3952 -1.2111
  948MOL0     H27949   9.889   2.484   2.925 -1.7659 -0.5555  0.7414
  948MOL0     H27950   9.864   2.772   2.978  1.4928  1.3462 -1.8742
  948MOL0     H27951   9.849   2.698   2.819 -0.4332 -0.5575 -0.3464
  948MOL0     H27952  10.104   2.673   2.976  2.7766  0.7165 -2.6321
  948MOL0     H27953  10.070   2.623   2.811 -0.6737 -0.6198 -0.3957
  948MOL0     H27954  10.041   2.904   2.917  0.0783 -1.0078 -0.5931
  948MOL0     H27955  10.025   2.877   2.749  3.7801 -0.0475 -2.8780
  948MOL0     H27956  10.272   2.812   2.903  0.4880  0.7348 -0.1872
  948MOL0     H27957  10.262   2.808   2.724  0.1151 -0.3788 -0.3594
  948MOL0     H27958  10.366   3.018   2.834 -1.6139  1.5565  2.1871
  948MOL0     H27959  10.204   3.060   2.875  1.1805  2.2848  0.1669
  948MOL0     H27960  10.126   3.043   2.637  0.1485  0.8431  0.9440
  948MOL0     H27961  10.297   3.031   2.590 -1.3798  0.2708 -0.7089
  948MOL0     H27962   9.452   2.644   2.804 -1.2845 -1.5091 -1.5001
  948MOL0     H27963   9.219   2.551   2.806 -0.7126  0.1638  1.5745
  948MOL0     H27964   8.885   2.443   3.000 -2.5176  0.3014 -3.0662
  948MOL0     H27965   8.648   2.410   3.031  1.7458  1.3123  1.2963
  948MOL0     H27966   8.365   0.687   4.274  0.0877 -0.5875  3.9530
  948MOL0     H27967   8.573   0.614   4.362 -2.9095 -0.4459  0.2849
  948MOL0     H27968   8.901   0.668   4.603 -0.8444  2.9479 -0.3962
  948MOL0     H27969   9.076   0.562   4.742 -3.1847  1.5865  0.0900
  948MOL0     H27970   9.526   0.573   4.642  1.1769  2.5064 -1.1593
  948MOL0     H27971   9.474   0.733   4.685 -0.6915  0.9191  4.4865
  948MOL0     H27972   9.506   0.494   4.885  1.3463  1.2918  3.9272
  948MOL0     H27973   9.471   0.655   4.927  0.7125 -1.3039  1.7260
  948MOL0     H27974   9.685   0.610   4.972  0.3339 -1.2871  0.1638
  948MOL0     H27975   9.702   0.722   4.830 -1.7609  0.5513 -1.4930
  948MOL0     H27976   9.751   0.565   4.673  0.6122 -1.8719 -0.7148
  948MOL0     H27977   9.734   0.424   4.783  4.7249 -1.5408  0.5206
  948MOL0     H27978  10.128   0.562   4.855  0.2975  2.3061 -0.2436
  948MOL0     H27979   9.376   0.727   4.486  0.1512  1.0422  3.7653
  948MOL0     H27980   9.205   0.805   4.332  1.5883 -1.3956 -0.5380
  949MOL0     O27981   1.564   3.833   0.270  0.0142  0.2953 -0.2071
  949MOL0     C27982   1.504   3.876   0.368 -1.1098  0.2052 -1.5389
  949MOL0     O27983   1.509   4.010   0.410  1.3475 -0.5320  0.6928
  949MOL0     C27984   1.619   4.096   0.394  0.6250 -0.0272  0.3937
  949MOL0     C27985   1.607   4.214   0.466  0.8072  0.0862  0.8405
  949MOL0     C27986   1.715   4.302   0.476  0.2284  0.8008  0.9412
  949MOL0     C27987   1.837   4.269   0.407 -0.0847  0.4137 -0.0448
  949MOL0     O27988   1.946   4.348   0.439  0.2123 -1.3391 -0.0706
  949MOL0     C27989   2.046   4.288   0.519  0.3638 -0.8348  0.4712
  949MOL0     C27990   2.151   4.393   0.564  0.9634  0.1871  0.0171
  949MOL0     C27991   2.246   4.334   0.677  0.9598 -0.3577 -0.2347
  949MOL0     C27992   2.366   4.422   0.718  0.2909 -0.0135  0.1337
  949MOL0     C27993   2.337   4.571   0.716 -0.0569  0.2776  0.8639
  949MOL0     C27994   2.458   4.658   0.731 -0.6401  0.1827 -0.0353
  949MOL0     C27995   2.428   4.808   0.710  0.3187 -0.4654 -0.0313
  949MOL0     C27996   2.548   4.899   0.763  0.3914  0.3288  0.0485
  949MOL0     N27997   2.505   5.040   0.762  0.4141  0.4404  0.2532
  949MOL0     C27998   2.506   5.127   0.861 -0.0707 -0.5773  0.0218
  949MOL0     C27999   2.439   5.237   0.817 -0.5111 -0.8555 -0.2404
  949MOL0     C28000   2.411   5.364   0.892 -0.0505 -0.8040 -0.3776
  949MOL0     C28001   2.535   5.420   0.958 -0.2018 -0.0092  0.5311
  949MOL0     C28002   2.513   5.527   1.068  0.1044  0.6166 -0.3655
  949MOL0     C28003   2.399   5.630   1.041 -0.2946  0.9069  0.8215
  949MOL0     O28004   2.411   5.723   1.139  0.6746 -0.3456 -0.4616
  949MOL0     C28005   2.465   5.846   1.111 -0.3436 -0.6030  0.1566
  949MOL0     C28006   2.464   5.948   1.201  0.1753  0.0601 -0.5809
  949MOL0     C28007   2.516   6.079   1.180 -0.2891  0.0435  0.5765
  949MOL0     C28008   2.502   6.174   1.291  0.0977  0.8379 -0.3727
  949MOL0     C28009   2.582   6.103   1.059  0.3908 -0.4434 -0.0782
  949MOL0     C28010   2.631   6.233   1.032 -0.7980 -0.5731  0.1538
  949MOL0     O28011   2.562   6.343   1.066  0.3347 -1.2363 -0.5150
  949MOL0     C28012   2.622   6.465   1.036  0.0784 -0.5724  0.3239
  949MOL0     C28013   2.643   6.560   1.134 -0.0622 -0.4800  0.3572
  949MOL0     C28014   2.688   6.685   1.092  0.1992 -0.1337 -0.3733
  949MOL0     C28015   2.703   6.724   0.953  0.4827 -0.4112  0.2428
  949MOL0     O28016   2.743   6.851   0.915 -0.2212 -0.4905 -0.4745
  949MOL0     C28017   2.817   6.875   0.794 -0.1105 -0.0881 -0.0166
  949MOL0     C28018   2.857   7.020   0.768 -0.7091 -0.3775 -0.5593
  949MOL0     C28019   2.741   7.108   0.775  0.1562 -0.4032  0.2245
  949MOL0     C28020   2.703   7.155   0.913 -0.4142 -0.4500 -0.5786
  949MOL0     C28021   2.607   7.274   0.912  0.1122 -0.5814 -0.5948
  949MOL0     C28022   2.575   7.317   1.053  0.3331 -0.9763 -0.7543
  949MOL0     C28023   2.652   7.440   1.102 -1.2780  0.6474  0.3727
  949MOL0     C28024   2.613   7.469   1.247  0.4707 -0.5391  0.0388
  949MOL0    Cl28025   2.439   7.538   1.236 -0.0428  0.1122 -0.1141
  949MOL0     C28026   2.684   6.622   0.855  0.1379 -1.3039  0.2804
  949MOL0     C28027   2.644   6.496   0.896  0.1770  0.3881  0.3398
  949MOL0     O28028   2.746   6.226   0.984 -0.3063  0.0755  0.0470
  949MOL0     C28029   2.597   5.999   0.968  0.9146  0.0911  0.5573
  949MOL0     C28030   2.537   5.878   0.991  0.2402 -0.2426  0.0256
  949MOL0     N28031   2.406   5.213   0.679 -0.5231  0.8001  0.8784
  949MOL0     N28032   2.449   5.090   0.650  1.2642 -0.4517 -0.0689
  949MOL0     C28033   1.844   4.152   0.320 -0.1592  0.1025 -0.0851
  949MOL0     C28034   1.732   4.068   0.315  0.6069  0.6335 -0.0177
  949MOL0     C28035   1.398   3.802   0.426 -1.1576 -0.4152 -0.3904
  949MOL0     C28036   1.341   3.830   0.547  0.4005 -0.6298 -0.4072
  949MOL0     C28037   1.247   3.749   0.611 -0.0481 -0.2276  0.3511
  949MOL0     C28038   1.206   3.635   0.546 -0.1762 -0.6883  0.3256
  949MOL0     O28039   1.117   3.558   0.609 -0.9426  0.6764 -0.1643
  949MOL0     C28040   1.001   3.509   0.536  0.5225  0.6355  0.2303
  949MOL0     C28041   0.869   3.481   0.607 -0.4669 -0.2252  0.2438
  949MOL0     C28042   0.800   3.617   0.621  0.9945  0.6202  0.2081
  949MOL0     C28043   0.728   3.627   0.757 -0.0860  0.1823 -0.0162
  949MOL0     C28044   0.823   3.628   0.874 -0.1676 -0.6838 -0.7627
  949MOL0     C28045   0.917   3.621   0.951  0.7269  0.9022 -0.5256
  949MOL0     C28046   1.242   3.606   0.414 -0.4259  0.7480  0.5796
  949MOL0     C28047   1.349   3.684   0.368  0.0632  0.3831  0.1938
  949MOL0     H28048   1.518   4.236   0.523 -1.3692  1.5686 -2.8195
  949MOL0     H28049   1.705   4.394   0.533  2.7384  2.2046 -0.6947
  949MOL0     H28050   1.998   4.266   0.615  3.3179  1.1437  2.5977
  949MOL0     H28051   2.096   4.196   0.484  1.2707 -1.2212  2.6092
  949MOL0     H28052   2.211   4.417   0.476  0.7128 -0.5767 -0.3687
  949MOL0     H28053   2.102   4.489   0.585  0.2976  0.5873 -2.9661
  949MOL0     H28054   2.187   4.326   0.768 -0.9686  0.3783 -1.3727
  949MOL0     H28055   2.281   4.235   0.645  2.3341  0.0941 -0.1878
  949MOL0     H28056   2.382   4.401   0.824  0.1397 -0.6212  0.0382
  949MOL0     H28057   2.453   4.392   0.659 -0.7041  2.0665 -2.6169
  949MOL0     H28058   2.296   4.592   0.616 -0.6400  1.8760  1.4103
  949MOL0     H28059   2.273   4.610   0.795 -0.7637 -2.2847  1.6378
  949MOL0     H28060   2.501   4.648   0.830 -0.5359 -0.7798 -0.1650
  949MOL0     H28061   2.536   4.617   0.665 -0.4682  1.8146 -0.8864
  949MOL0     H28062   2.406   4.833   0.605  0.4300 -0.8332 -0.1446
  949MOL0     H28063   2.342   4.832   0.773 -1.6975 -1.3230 -2.3078
  949MOL0     H28064   2.627   4.904   0.687  0.6541  0.7152  0.3425
  949MOL0     H28065   2.580   4.862   0.861 -1.8507 -2.3439 -0.1126
  949MOL0     H28066   2.555   5.118   0.957  2.7605 -0.2152 -1.3047
  949MOL0     H28067   2.363   5.438   0.827  0.7535  0.7718  0.7677
  949MOL0     H28068   2.328   5.341   0.960 -1.0518 -2.4958 -2.0630
  949MOL0     H28069   2.603   5.454   0.880 -2.8717 -1.6999 -2.8085
  949MOL0     H28070   2.589   5.340   1.009  0.3670 -0.0348 -0.1110
  949MOL0     H28071   2.605   5.581   1.092  1.5330 -1.6388 -0.5145
  949MOL0     H28072   2.492   5.477   1.163  0.3180  1.9694  0.4200
  949MOL0     H28073   2.305   5.577   1.062  0.8493 -2.2163 -1.2635
  949MOL0     H28074   2.405   5.668   0.939  1.7710 -1.7615 -0.1740
  949MOL0     H28075   2.399   5.935   1.287 -0.1864  4.3334  0.0222
  949MOL0     H28076   2.400   6.178   1.328  0.0884 -1.5150 -0.0255
  949MOL0     H28077   2.566   6.147   1.375 -3.2352  2.6538  3.0647
  949MOL0     H28078   2.539   6.276   1.273  2.5122 -0.1684 -1.6416
  949MOL0     H28079   2.614   6.526   1.233 -0.6514  0.2783  0.4607
  949MOL0     H28080   2.717   6.757   1.168  1.8105 -2.1703  1.0511
  949MOL0     H28081   2.908   6.815   0.796  1.2679  1.9071  0.1112
  949MOL0     H28082   2.760   6.847   0.704 -0.1167 -1.6926  0.4655
  949MOL0     H28083   2.941   7.043   0.834  1.8443 -2.9813 -2.6688
  949MOL0     H28084   2.902   7.019   0.669  1.8057 -0.8817  0.5198
  949MOL0     H28085   2.647   7.069   0.735 -0.6105  1.2498  0.3182
  949MOL0     H28086   2.761   7.192   0.708  6.4335 -2.6480 -1.4127
  949MOL0     H28087   2.660   7.076   0.975  0.8690  0.2030  1.2156
  949MOL0     H28088   2.797   7.189   0.957 -0.3574  1.1477 -1.8481
  949MOL0     H28089   2.519   7.245   0.854  0.4027  1.8153 -2.3753
  949MOL0     H28090   2.642   7.363   0.859  2.6543  2.2871  5.0167
  949MOL0     H28091   2.469   7.326   1.078  0.7540 -1.3880  1.3382
  949MOL0     H28092   2.602   7.240   1.126 -0.0838  0.3650  0.8754
  949MOL0     H28093   2.632   7.526   1.037 -0.0087 -2.1681 -4.1406
  949MOL0     H28094   2.755   7.406   1.090 -1.9438 -0.7398 -2.1521
  949MOL0     H28095   2.691   7.531   1.293  1.5246 -1.1657 -0.8546
  949MOL0     H28096   2.615   7.373   1.299 -2.1689 -0.0813  1.1619
  949MOL0     H28097   2.688   6.649   0.750  0.4191 -2.3559  0.0061
  949MOL0     H28098   2.615   6.424   0.819  0.7957 -0.0839  0.5358
  949MOL0     H28099   2.643   6.015   0.871 -0.1271 -1.1320 -0.1732
  949MOL0     H28100   2.557   5.793   0.926  0.2707 -0.9132  0.8910
  949MOL0     H28101   1.933   4.141   0.259  1.8986  1.4120  2.4768
  949MOL0     H28102   1.739   3.985   0.245 -0.7785 -1.0349  1.6892
  949MOL0     H28103   1.375   3.922   0.593  2.0068 -2.3238  2.0407
  949MOL0     H28104   1.197   3.763   0.706  1.6857 -0.0542  1.2715
  949MOL0     H28105   0.988   3.574   0.448  3.9405  3.3825  1.5341
  949MOL0     H28106   1.029   3.412   0.494  2.0811  1.1224  0.0738
  949MOL0     H28107   0.898   3.443   0.705  0.8061 -0.7670 -0.3187
  949MOL0     H28108   0.815   3.411   0.544 -1.6396  2.7526 -2.3552
  949MOL0     H28109   0.724   3.621   0.543  0.4335 -2.4098  0.4775
  949MOL0     H28110   0.875   3.696   0.611  2.8489 -0.9501  1.0266
  949MOL0     H28111   0.664   3.539   0.767 -0.2075  0.0015 -2.0325
  949MOL0     H28112   0.672   3.720   0.745 -0.9157 -0.3878 -0.6686
  949MOL0     H28113   0.992   3.622   1.028  0.1356 -1.6404  0.1711
  949MOL0     H28114   1.213   3.518   0.358  0.6054 -1.0454  2.7282
  949MOL0     H28115   1.395   3.651   0.275 -2.3288 -1.7617 -0.3463
  950MOL0     O28116   3.844   0.944   3.925  0.3825  0.0481  0.1941
  950MOL0     C28117   3.809   0.834   3.964 -0.1832 -0.3080  0.7926
  950MOL0     O28118   3.723   0.749   3.899 -0.0117 -0.2123  0.1797
  950MOL0     C28119   3.690   0.754   3.764  0.4993  0.7877 -0.9622
  950MOL0     C28120   3.576   0.675   3.732  0.0178 -0.5716 -0.0573
  950MOL0     C28121   3.521   0.687   3.601  0.5319  0.2463 -0.0155
  950MOL0     C28122   3.596   0.743   3.497 -0.0945 -0.9108 -0.6910
  950MOL0     O28123   3.552   0.735   3.365 -0.1088 -0.2559 -0.6486
  950MOL0     C28124   3.547   0.597   3.323  0.2919  0.5925 -0.1339
  950MOL0     C28125   3.546   0.586   3.164 -0.1242  0.3445  0.1255
  950MOL0     C28126   3.546   0.431   3.126 -0.4193 -0.0021 -0.4214
  950MOL0     C28127   3.411   0.368   3.106  0.6645  0.1777  0.6880
  950MOL0     C28128   3.422   0.216   3.071 -0.4736 -1.3137 -0.0392
  950MOL0     C28129   3.503   0.195   2.936  1.0722 -0.7926 -0.3728
  950MOL0     C28130   3.503   0.042   2.905 -0.7688  0.1868  0.0468
  950MOL0     C28131   3.619  -0.010   2.824  0.9950 -0.5613  0.0171
  950MOL0     N28132   3.649   0.095   2.719 -0.6643  0.2296 -0.9413
  950MOL0     C28133   3.561   0.144   2.628  1.3610  0.3386  0.3588
  950MOL0     C28134   3.628   0.226   2.546 -1.3215  0.3753 -0.3227
  950MOL0     C28135   3.575   0.293   2.423 -0.3991  1.0326 -0.2642
  950MOL0     C28136   3.580   0.439   2.439  0.2364  0.2099  0.3037
  950MOL0     C28137   3.500   0.507   2.330 -0.6610  0.2533  0.1747
  950MOL0     C28138   3.503   0.660   2.349  1.1780  0.0148  0.1973
  950MOL0     O28139   3.472   0.731   2.229 -0.5391 -0.0821  0.2275
  950MOL0     C28140   3.342   0.769   2.229  0.4075 -0.2254 -0.1483
  950MOL0     C28141   3.297   0.904   2.270  0.3561  0.4668  0.3708
  950MOL0     C28142   3.164   0.938   2.249  0.5218  0.8934  0.6612
  950MOL0     C28143   3.128   1.067   2.294  0.6068 -0.6659  0.1070
  950MOL0     C28144   3.072   0.844   2.185 -0.9463  0.4715  1.0645
  950MOL0     C28145   2.931   0.874   2.135  0.2029 -0.1626 -0.1544
  950MOL0     O28146   2.860   0.782   2.062 -0.3370  0.2131 -0.2812
  950MOL0     C28147   2.770   0.829   1.977  0.9709  0.8264  0.1124
  950MOL0     C28148   2.643   0.847   2.039 -0.1108 -0.3030 -0.6324
  950MOL0     C28149   2.545   0.914   1.963 -0.5918  0.4478  0.3017
  950MOL0     C28150   2.575   0.948   1.824 -0.3996  0.3091  0.0229
  950MOL0     O28151   2.482   1.016   1.751  0.1686  0.6600  0.3458
  950MOL0     C28152   2.363   1.053   1.808  0.3073 -0.2749  0.0521
  950MOL0     C28153   2.282   1.148   1.716  0.0364  0.2828  1.3012
  950MOL0     C28154   2.164   1.207   1.796  0.5715  0.1555  0.2297
  950MOL0     C28155   2.053   1.104   1.817  0.4008  0.0670  0.1275
  950MOL0     C28156   1.930   1.145   1.881 -0.9265  0.2774  0.1274
  950MOL0     C28157   1.934   1.146   2.036 -0.3773 -0.1476 -0.1853
  950MOL0     C28158   1.799   1.191   2.097 -0.5832  0.4502 -0.1419
  950MOL0     C28159   1.673   1.129   2.035 -0.2498 -0.4698 -0.8880
  950MOL0    Cl28160   1.656   0.953   2.074 -0.3601  0.5239 -0.5797
  950MOL0     C28161   2.688   0.898   1.763  0.1297 -0.5718  0.0284
  950MOL0     C28162   2.793   0.848   1.834  1.1146  0.7728 -0.8222
  950MOL0     O28163   2.883   0.983   2.171 -0.4352 -0.5190 -0.2027
  950MOL0     C28164   3.119   0.709   2.155  0.2426  0.5723 -1.1359
  950MOL0     C28165   3.255   0.683   2.178 -0.8220 -0.5509 -0.0794
  950MOL0     N28166   3.760   0.240   2.598 -0.8514  0.0069  0.9800
  950MOL0     N28167   3.765   0.161   2.696 -0.1960  0.3467 -1.0741
  950MOL0     C28168   3.711   0.814   3.531  0.4863  0.5518 -0.5100
  950MOL0     C28169   3.755   0.822   3.664 -0.6415  0.9360  0.2786
  950MOL0     C28170   3.872   0.789   4.081 -0.0629  1.0712 -0.6828
  950MOL0     C28171   3.938   0.877   4.178 -0.1409  0.2671 -0.0867
  950MOL0     C28172   4.007   0.821   4.282  0.4870 -0.0128  0.4091
  950MOL0     C28173   4.022   0.679   4.299  0.4799  0.1587  0.4156
  950MOL0     O28174   4.100   0.612   4.393  0.3678  0.5125 -0.4642
  950MOL0     C28175   4.116   0.673   4.514  0.4926  0.3240 -0.9652
  950MOL0     C28176   4.179   0.574   4.612 -0.2074  0.2080  0.1859
  950MOL0     C28177   4.220   0.631   4.755  0.5587  1.1306  0.6543
  950MOL0     C28178   4.305   0.758   4.748 -0.5067 -0.5884 -0.6832
  950MOL0     C28179   4.345   0.795   4.887 -0.3175  0.1756  0.9020
  950MOL0     C28180   4.364   0.831   4.998 -0.3941  0.3115  0.0988
  950MOL0     C28181   3.965   0.593   4.199 -1.0268 -0.1502  0.1784
  950MOL0     C28182   3.898   0.648   4.089  1.2796  0.5275  0.3576
  950MOL0     H28183   3.528   0.611   3.805  1.0236  0.4458  1.5290
  950MOL0     H28184   3.428   0.634   3.583 -0.0606 -1.2000  5.6272
  950MOL0     H28185   3.639   0.552   3.361 -0.2274 -0.6341 -0.2871
  950MOL0     H28186   3.462   0.544   3.367  0.0521  1.6195  0.6738
  950MOL0     H28187   3.454   0.627   3.121 -2.1512 -3.0298  0.8013
  950MOL0     H28188   3.638   0.631   3.127  0.0237 -1.0361 -1.2591
  950MOL0     H28189   3.603   0.418   3.034  1.5439 -2.5056  0.9947
  950MOL0     H28190   3.592   0.373   3.207 -1.8546  2.0357  2.0211
  950MOL0     H28191   3.353   0.377   3.198  1.0440 -1.5536  1.1160
  950MOL0     H28192   3.362   0.413   3.020 -0.4717 -1.7529  0.2822
  950MOL0     H28193   3.480   0.165   3.148  0.2505  1.7377  1.6184
  950MOL0     H28194   3.322   0.173   3.076 -1.0643 -0.1770 -1.5001
  950MOL0     H28195   3.457   0.247   2.852  0.4159  0.7111  0.8693
  950MOL0     H28196   3.605   0.231   2.951  0.7644 -0.5818  1.4092
  950MOL0     H28197   3.513   0.002   3.007 -2.0073  2.8154  1.3106
  950MOL0     H28198   3.411   0.004   2.860 -0.2576 -0.6978 -0.2713
  950MOL0     H28199   3.595  -0.108   2.782  1.7608 -0.6605 -0.2156
  950MOL0     H28200   3.712  -0.020   2.880  1.1163 -0.9801 -0.2537
  950MOL0     H28201   3.460   0.106   2.619  0.9891  1.5680 -0.9690
  950MOL0     H28202   3.654   0.273   2.351  2.4553  3.2450  1.9943
  950MOL0     H28203   3.480   0.242   2.404  0.4342 -0.6599 -0.0902
  950MOL0     H28204   3.682   0.476   2.427 -0.6208  3.2776  1.6317
  950MOL0     H28205   3.547   0.472   2.538 -1.8332 -1.3441  0.2137
  950MOL0     H28206   3.399   0.466   2.337 -0.9218  0.8111 -0.2444
  950MOL0     H28207   3.536   0.477   2.231  0.2072  0.0597  0.5416
  950MOL0     H28208   3.606   0.686   2.376  1.5158 -0.9649 -0.1034
  950MOL0     H28209   3.444   0.702   2.430 -0.7633  3.2762 -2.6644
  950MOL0     H28210   3.368   0.978   2.304  1.2567 -0.7183  1.1241
  950MOL0     H28211   3.131   1.130   2.205 -3.3762  1.5920  1.3294
  950MOL0     H28212   3.029   1.060   2.339 -0.3331  0.6291 -1.6574
  950MOL0     H28213   3.201   1.106   2.367 -0.5221  1.2404  0.2920
  950MOL0     H28214   2.643   0.833   2.146  1.3466  1.7731 -0.3038
  950MOL0     H28215   2.445   0.930   2.000 -1.2406 -0.4541 -0.9585
  950MOL0     H28216   2.313   0.958   1.829  0.9819 -0.9351 -1.2456
  950MOL0     H28217   2.369   1.095   1.909  0.6443 -1.2420  0.4489
  950MOL0     H28218   2.339   1.234   1.682  3.7450 -2.1826  0.7616
  950MOL0     H28219   2.256   1.103   1.620 -0.9079  1.8085  0.8020
  950MOL0     H28220   2.126   1.292   1.739 -0.7750 -0.0503  0.7878
  950MOL0     H28221   2.197   1.232   1.897 -1.3166  0.1917  0.8866
  950MOL0     H28222   2.023   1.087   1.713  1.7216 -2.1139  0.0500
  950MOL0     H28223   2.093   1.008   1.850  0.3749  0.7171  2.1504
  950MOL0     H28224   1.859   1.067   1.853  1.6835 -1.7007 -1.4692
  950MOL0     H28225   1.896   1.246   1.857 -2.6889 -0.2724  0.1905
  950MOL0     H28226   1.955   1.042   2.063  0.8665 -0.6597 -2.7911
  950MOL0     H28227   2.019   1.199   2.079 -2.2038  1.0588  2.1471
  950MOL0     H28228   1.796   1.299   2.081  0.2308  0.7057  1.2674
  950MOL0     H28229   1.803   1.177   2.205 -0.2213  1.7987  0.0410
  950MOL0     H28230   1.666   1.141   1.926  0.6737  1.8478 -0.7547
  950MOL0     H28231   1.584   1.171   2.083  1.5179 -1.7100  4.0903
  950MOL0     H28232   2.690   0.925   1.658  1.5602 -1.2118 -0.1427
  950MOL0     H28233   2.889   0.825   1.789  0.7240 -1.5946 -0.5862
  950MOL0     H28234   3.050   0.642   2.105 -0.3046 -0.2184  0.6237
  950MOL0     H28235   3.281   0.582   2.147  0.3976  0.1468 -1.4234
  950MOL0     H28236   3.767   0.867   3.455  1.5929  2.6222  1.6121
  950MOL0     H28237   3.843   0.882   3.686 -1.5467  1.9139  1.3594
  950MOL0     H28238   3.934   0.985   4.162 -1.1945  0.2623  0.0825
  950MOL0     H28239   4.049   0.883   4.360  2.2947  0.6670 -1.0062
  950MOL0     H28240   4.183   0.756   4.489  1.8577 -1.1367 -2.3887
  950MOL0     H28241   4.022   0.704   4.561 -0.7202 -1.4539 -2.0748
  950MOL0     H28242   4.263   0.527   4.562  1.4919  1.4612  1.7208
  950MOL0     H28243   4.114   0.488   4.632  0.4335 -0.4152 -0.3547
  950MOL0     H28244   4.285   0.561   4.808 -1.0411 -2.7635 -2.0596
  950MOL0     H28245   4.126   0.647   4.808 -0.0785  3.3296 -0.9673
  950MOL0     H28246   4.251   0.843   4.705  0.7636  0.6346  0.0599
  950MOL0     H28247   4.401   0.737   4.700 -0.6709 -0.6275 -0.9993
  950MOL0     H28248   4.388   0.872   5.094  1.2958  0.1043 -0.1925
  950MOL0     H28249   3.975   0.486   4.213  3.0205 -0.2968 -2.1878
  950MOL0     H28250   3.862   0.566   4.028  2.5390 -0.1476  0.4851
  951MOL0     O28251   5.097   6.775   2.807 -0.4401 -0.0032 -0.4891
  951MOL0     C28252   5.109   6.860   2.717  0.0041 -0.5929  0.1531
  951MOL0     O28253   5.133   6.837   2.584 -0.7454  0.1214 -0.1276
  951MOL0     C28254   5.107   6.707   2.528 -0.2656 -0.0780 -0.4203
  951MOL0     C28255   5.198   6.644   2.440  0.4701  0.1039  0.5804
  951MOL0     C28256   5.163   6.517   2.389 -0.4042  0.4267 -0.4474
  951MOL0     C28257   5.030   6.467   2.413 -1.1108 -0.1704  0.5768
  951MOL0     O28258   4.991   6.345   2.357 -0.0144  0.6128  0.5178
  951MOL0     C28259   5.048   6.299   2.229 -0.1892  0.4496 -0.4158
  951MOL0     C28260   5.103   6.159   2.243 -0.6810 -0.0376 -0.8122
  951MOL0     C28261   5.222   6.150   2.329  0.2707 -0.0299 -0.2485
  951MOL0     C28262   5.283   6.005   2.331  0.0244 -0.0105  0.4638
  951MOL0     C28263   5.334   5.966   2.188 -0.3694 -1.3377  0.2837
  951MOL0     C28264   5.414   5.828   2.193  0.0868  0.1016 -0.2160
  951MOL0     C28265   5.492   5.796   2.062 -0.3850 -0.1303  0.3712
  951MOL0     C28266   5.518   5.641   2.058  0.3387  0.8819 -0.1399
  951MOL0     N28267   5.565   5.592   1.925  0.7365  0.1497 -0.0955
  951MOL0     C28268   5.620   5.658   1.815 -0.1209 -0.0761 -0.0693
  951MOL0     C28269   5.615   5.576   1.709 -0.3367  0.8114  0.8050
  951MOL0     C28270   5.659   5.603   1.566 -0.1895  0.1054  0.0407
  951MOL0     C28271   5.657   5.744   1.509 -0.2165 -0.4665 -0.4086
  951MOL0     C28272   5.702   5.730   1.363 -0.3109 -0.4564  0.1568
  951MOL0     C28273   5.697   5.862   1.292 -0.0228 -0.5821  0.3361
  951MOL0     O28274   5.675   5.835   1.151  0.0392  0.8314 -0.0953
  951MOL0     C28275   5.793   5.813   1.076  0.3547  0.1750 -0.5827
  951MOL0     C28276   5.927   5.794   1.134  0.1611  0.4252  0.0038
  951MOL0     C28277   6.038   5.781   1.043 -0.8648  0.3130 -0.3926
  951MOL0     C28278   6.175   5.770   1.104  0.6076 -0.1433  0.1000
  951MOL0     C28279   6.025   5.762   0.906 -0.5082 -0.3101  0.6468
  951MOL0     C28280   6.144   5.750   0.809  0.4139  0.6096  0.2209
  951MOL0     O28281   6.265   5.789   0.845 -0.2304 -0.3598  0.3341
  951MOL0     C28282   6.361   5.754   0.752 -0.9044 -0.6870  0.0012
  951MOL0     C28283   6.421   5.861   0.685 -0.0713 -0.5825 -0.4491
  951MOL0     C28284   6.526   5.834   0.610 -0.5526  0.3916  0.0903
  951MOL0     C28285   6.571   5.700   0.581 -0.1162  0.3600 -0.3012
  951MOL0     O28286   6.675   5.682   0.487  0.3167 -0.2809 -0.0299
  951MOL0     C28287   6.695   5.565   0.410  1.1657 -0.1648 -0.2849
  951MOL0     C28288   6.843   5.533   0.403 -0.1617 -0.3061 -0.3174
  951MOL0     C28289   6.881   5.446   0.288  0.1641 -0.9175  0.8133
  951MOL0     C28290   6.861   5.525   0.160  0.1995 -0.3426  0.3371
  951MOL0     C28291   6.935   5.459   0.039 -0.6431 -1.0855  0.0116
  951MOL0     C28292   6.900   5.313   0.003  0.3278  0.2581 -0.6992
  951MOL0     C28293   7.008   5.267  -0.093  1.5300  0.6323 -0.2509
  951MOL0     C28294   6.955   5.134  -0.152 -0.6877  0.4263 -0.1697
  951MOL0    Cl28295   6.973   5.022  -0.008 -0.0047  0.1191  0.1592
  951MOL0     C28296   6.505   5.593   0.643  0.8440 -0.7485  0.8381
  951MOL0     C28297   6.398   5.617   0.732 -0.1612 -0.3544  0.0903
  951MOL0     O28298   6.100   5.715   0.696 -0.0989  0.1096 -0.9877
  951MOL0     C28299   5.899   5.775   0.851 -0.2843 -0.7458 -0.0283
  951MOL0     C28300   5.787   5.803   0.934 -0.6125  0.4040  0.0037
  951MOL0     N28301   5.563   5.451   1.752  0.4576  0.4162 -0.2766
  951MOL0     N28302   5.528   5.472   1.876 -0.1537 -0.2064  0.6126
  951MOL0     C28303   4.942   6.537   2.490 -1.1293 -0.4616 -0.4197
  951MOL0     C28304   4.979   6.654   2.555 -0.3965  1.1087 -0.0272
  951MOL0     C28305   5.077   7.002   2.762 -0.2200  0.2946  0.1254
  951MOL0     C28306   5.069   7.044   2.896 -0.8158  0.0484 -0.5056
  951MOL0     C28307   5.051   7.180   2.924  0.1054  0.3161  0.2395
  951MOL0     C28308   5.025   7.271   2.829 -0.2247  0.3592  0.4670
  951MOL0     O28309   4.976   7.392   2.858  0.0479  0.3525  0.1168
  951MOL0     C28310   5.083   7.491   2.820  0.1297  0.0068 -0.9684
  951MOL0     C28311   5.209   7.470   2.910  0.4002 -0.0515  0.0740
  951MOL0     C28312   5.309   7.589   2.921  0.1540  0.9673  0.2080
  951MOL0     C28313   5.447   7.553   2.979  0.0662 -0.2512 -0.0784
  951MOL0     C28314   5.540   7.665   2.988  0.4036 -0.1852  0.2020
  951MOL0     C28315   5.621   7.762   2.985  0.3773 -0.7335  0.4404
  951MOL0     C28316   5.035   7.231   2.691 -0.1448  0.0520 -0.4630
  951MOL0     C28317   5.059   7.095   2.661  0.7425 -0.6633  0.5578
  951MOL0     H28318   5.287   6.701   2.418  1.2635 -1.2311  0.2088
  951MOL0     H28319   5.241   6.459   2.340 -0.3405  1.7081 -1.9519
  951MOL0     H28320   4.960   6.301   2.164  0.7535 -1.9218 -1.9304
  951MOL0     H28321   5.121   6.369   2.187  1.1710  0.6611  2.1505
  951MOL0     H28322   5.034   6.079   2.271  0.1778 -0.2847  0.7519
  951MOL0     H28323   5.130   6.133   2.141 -4.1749 -1.9046 -1.3989
  951MOL0     H28324   5.293   6.225   2.293  0.0286  0.4869  0.3442
  951MOL0     H28325   5.196   6.181   2.431 -0.8426  3.3463 -1.4274
  951MOL0     H28326   5.360   5.991   2.407 -0.4449  0.8358  1.1172
  951MOL0     H28327   5.203   5.936   2.359 -1.8253  2.2719  1.1131
  951MOL0     H28328   5.243   5.956   2.128 -0.6403 -4.5891  1.0439
  951MOL0     H28329   5.402   6.033   2.134 -1.8844 -0.2142 -0.2899
  951MOL0     H28330   5.480   5.823   2.279  2.2412  2.2147 -1.6184
  951MOL0     H28331   5.332   5.756   2.205 -0.8826  1.2375  0.1562
  951MOL0     H28332   5.423   5.819   1.980  0.7173 -1.6737 -1.0527
  951MOL0     H28333   5.587   5.850   2.061 -0.2787 -0.3206 -0.2487
  951MOL0     H28334   5.427   5.588   2.087  2.7949 -1.1460  5.1351
  951MOL0     H28335   5.585   5.612   2.139 -0.2069  2.5856  0.9880
  951MOL0     H28336   5.655   5.761   1.822 -1.6887  0.6213 -1.7403
  951MOL0     H28337   5.754   5.553   1.544 -0.5646 -2.4422  3.4015
  951MOL0     H28338   5.581   5.549   1.512  0.3987 -0.9060  0.1775
  951MOL0     H28339   5.720   5.814   1.566  0.4359 -0.2519 -1.3715
  951MOL0     H28340   5.553   5.780   1.513  0.4302  1.5776 -0.4903
  951MOL0     H28341   5.633   5.662   1.313 -2.0775  0.4280  1.3044
  951MOL0     H28342   5.802   5.685   1.357 -0.6537 -1.3049  0.7268
  951MOL0     H28343   5.784   5.923   1.317 -1.8590  1.6969  1.5610
  951MOL0     H28344   5.610   5.917   1.328  1.0555  1.4483 -0.0029
  951MOL0     H28345   5.940   5.789   1.242 -2.5314 -3.5813  0.3424
  951MOL0     H28346   6.239   5.697   1.053 -0.1973 -0.6145 -0.2445
  951MOL0     H28347   6.222   5.869   1.099  0.6604 -0.2217 -1.4829
  951MOL0     H28348   6.156   5.746   1.209 -0.7302 -1.2810 -0.3871
  951MOL0     H28349   6.387   5.964   0.688 -0.0830 -0.6162  0.9761
  951MOL0     H28350   6.583   5.908   0.555  2.5866 -0.6623  1.7198
  951MOL0     H28351   6.645   5.478   0.454  0.6598  0.0610 -0.3997
  951MOL0     H28352   6.660   5.592   0.310 -1.7123  1.9550  1.1451
  951MOL0     H28353   6.887   5.633   0.396 -3.5659  1.4193  0.8563
  951MOL0     H28354   6.875   5.485   0.496 -0.5196 -2.0990 -1.0918
  951MOL0     H28355   6.826   5.352   0.276  1.6637 -1.6810 -0.5227
  951MOL0     H28356   6.983   5.409   0.302  1.0954  2.3322  3.9163
  951MOL0     H28357   6.761   5.512   0.117  1.7352 -1.3907 -3.3962
  951MOL0     H28358   6.901   5.627   0.160  3.6195 -1.5498  1.8472
  951MOL0     H28359   7.040   5.469   0.069 -0.9245  3.1343  0.0707
  951MOL0     H28360   6.930   5.516  -0.054 -0.6673  1.1449  1.3241
  951MOL0     H28361   6.887   5.258   0.097  0.3489 -1.3596 -1.6007
  951MOL0     H28362   6.799   5.306  -0.041 -0.1659 -1.9708  0.6112
  951MOL0     H28363   7.098   5.248  -0.034  0.1022 -1.5219  1.4129
  951MOL0     H28364   7.024   5.335  -0.177 -0.4182  1.3910 -0.0607
  951MOL0     H28365   7.018   5.102  -0.236 -2.2767 -0.5548 -1.0352
  951MOL0     H28366   6.852   5.141  -0.187 -1.8109 -2.1838  2.2142
  951MOL0     H28367   6.530   5.491   0.617  3.9565  0.1959 -0.3604
  951MOL0     H28368   6.352   5.534   0.785  0.5423 -0.6370  0.2748
  951MOL0     H28369   5.887   5.763   0.744 -2.3469  1.9189 -0.2278
  951MOL0     H28370   5.692   5.790   0.883 -1.0610  3.6432 -0.2330
  951MOL0     H28371   4.848   6.486   2.506  0.3219 -2.4757  2.7178
  951MOL0     H28372   4.905   6.694   2.623  0.6248  0.2397  1.6789
  951MOL0     H28373   5.068   6.982   2.985 -3.4260 -0.8994 -1.1047
  951MOL0     H28374   5.024   7.211   3.025 -1.3859  0.5683 -0.2154
  951MOL0     H28375   5.107   7.498   2.714  4.6272  0.1481 -0.1341
  951MOL0     H28376   5.037   7.583   2.858 -0.1397 -1.1213  1.6994
  951MOL0     H28377   5.260   7.384   2.865  0.8928 -0.5080  1.4488
  951MOL0     H28378   5.182   7.446   3.013  1.3063  1.5729  0.7359
  951MOL0     H28379   5.256   7.657   2.988 -1.7257  0.0303 -0.2407
  951MOL0     H28380   5.325   7.633   2.822 -2.9892 -1.3190 -1.4986
  951MOL0     H28381   5.482   7.470   2.916 -1.7338  0.1007 -1.6377
  951MOL0     H28382   5.445   7.511   3.080  2.5521 -1.2671 -0.3760
  951MOL0     H28383   5.668   7.858   2.981 -2.9436  1.0331 -1.2724
  951MOL0     H28384   5.014   7.300   2.610  1.5893 -1.8372 -2.6388
  951MOL0     H28385   5.064   7.058   2.559  2.7520 -2.0876  1.1139
  952MOL0     O28386   6.407   4.793   2.908 -0.7606 -0.5118  0.2884
  952MOL0     C28387   6.479   4.693   2.891 -1.2569  0.0131 -0.8081
  952MOL0     O28388   6.432   4.564   2.868 -0.8692  0.1139 -0.6432
  952MOL0     C28389   6.304   4.551   2.814 -0.8522  0.0192  0.9370
  952MOL0     C28390   6.263   4.622   2.706  0.5615  0.2385  0.0123
  952MOL0     C28391   6.148   4.587   2.637  0.3722  0.2516  0.2132
  952MOL0     C28392   6.055   4.489   2.677  0.2759 -0.6209 -0.9996
  952MOL0     O28393   5.937   4.463   2.606 -0.1594  0.5418 -0.0648
  952MOL0     C28394   5.937   4.481   2.464  0.2289  1.0133 -0.0725
  952MOL0     C28395   5.836   4.372   2.427  0.1646  0.8166  0.7766
  952MOL0     C28396   5.807   4.358   2.277  0.1914  0.4882 -0.2053
  952MOL0     C28397   5.706   4.255   2.252 -0.5427  1.0989  0.9248
  952MOL0     C28398   5.610   4.280   2.132  0.3064  0.7634  0.6600
  952MOL0     C28399   5.540   4.155   2.079 -0.7126  0.7942 -0.9798
  952MOL0     C28400   5.479   4.164   1.944 -0.5100  0.4538  0.7722
  952MOL0     C28401   5.469   4.029   1.890 -0.7323 -0.6313 -0.4162
  952MOL0     N28402   5.424   4.035   1.751  0.1473 -0.6441 -0.2424
  952MOL0     C28403   5.506   4.065   1.647  0.0938  0.2419  0.9118
  952MOL0     C28404   5.432   4.019   1.540 -0.7808 -0.0603 -1.2856
  952MOL0     C28405   5.468   4.007   1.397  0.0080  0.8123  0.6636
  952MOL0     C28406   5.349   4.050   1.318  0.2045 -0.7087  0.9810
  952MOL0     C28407   5.386   4.074   1.174  0.2620  0.6007  0.4130
  952MOL0     C28408   5.261   4.131   1.104  0.2511 -0.4883  0.7563
  952MOL0     O28409   5.144   4.053   1.080  0.0199 -0.6248  0.1736
  952MOL0     C28410   5.163   3.924   1.022  0.4103  0.2767  0.3541
  952MOL0     C28411   5.260   3.880   0.927 -0.2158  0.0243  0.2137
  952MOL0     C28412   5.256   3.751   0.878 -0.7118 -0.1657  0.7360
  952MOL0     C28413   5.363   3.716   0.779  0.4663  0.3844  0.0313
  952MOL0     C28414   5.163   3.649   0.917  0.5151 -0.0546  0.4600
  952MOL0     C28415   5.163   3.499   0.872 -0.6103 -0.5181 -0.9510
  952MOL0     O28416   5.284   3.439   0.829 -0.3281 -0.4026  0.0650
  952MOL0     C28417   5.306   3.306   0.817 -0.2750 -0.4145 -0.9388
  952MOL0     C28418   5.236   3.193   0.876  0.0932  1.2324  0.1115
  952MOL0     C28419   5.290   3.068   0.868  0.4360 -0.3527 -0.9805
  952MOL0     C28420   5.412   3.047   0.805  0.4185  0.1658 -0.0976
  952MOL0     O28421   5.462   2.922   0.802 -0.2067 -0.3605 -0.3217
  952MOL0     C28422   5.481   2.855   0.923  0.3805  0.4547  0.1266
  952MOL0     C28423   5.551   2.719   0.901 -0.2020 -0.4691  0.2706
  952MOL0     C28424   5.691   2.738   0.840 -0.3577  0.7591  0.1440
  952MOL0     C28425   5.737   2.605   0.790 -0.0915 -0.0812  0.5521
  952MOL0     C28426   5.891   2.595   0.760 -0.0532  0.0816  0.2290
  952MOL0     C28427   5.977   2.629   0.875  0.1678 -0.4031  0.4984
  952MOL0     C28428   6.123   2.593   0.839 -0.8900  0.4267  0.1394
  952MOL0     C28429   6.209   2.622   0.959 -0.0242 -0.1390 -0.3193
  952MOL0    Cl28430   6.180   2.500   1.088 -0.2194 -0.1795 -1.0941
  952MOL0     C28431   5.475   3.151   0.738  0.6383  0.4162 -0.0517
  952MOL0     C28432   5.416   3.280   0.729  0.1490  0.3246  0.1234
  952MOL0     O28433   5.056   3.429   0.900  0.6680  0.4802  1.1105
  952MOL0     C28434   5.069   3.700   1.011  0.8470 -0.2150  0.3034
  952MOL0     C28435   5.074   3.828   1.061 -0.3687 -0.2833 -0.5177
  952MOL0     N28436   5.312   3.960   1.585 -0.7074 -0.6825 -0.1344
  952MOL0     N28437   5.308   3.968   1.716  0.1438  0.3773  0.3875
  952MOL0     C28438   6.094   4.423   2.795 -1.0066 -0.4854 -0.2306
  952MOL0     C28439   6.215   4.451   2.860  0.0191 -0.4018 -0.5256
  952MOL0     C28440   6.616   4.704   2.930 -0.3660 -0.5063  0.4317
  952MOL0     C28441   6.673   4.814   2.999  0.4811 -0.0240 -1.0176
  952MOL0     C28442   6.812   4.825   3.017  0.2544  0.6126  1.0841
  952MOL0     C28443   6.902   4.720   2.979 -0.3264 -0.9891 -0.7136
  952MOL0     O28444   7.038   4.738   2.984  0.6664 -0.2140 -0.3454
  952MOL0     C28445   7.119   4.633   2.937 -0.2565  0.1741  0.5766
  952MOL0     C28446   7.264   4.653   2.994  0.9785  0.9327  0.3065
  952MOL0     C28447   7.376   4.587   2.904  0.1691  0.3554 -1.2920
  952MOL0     C28448   7.361   4.624   2.757 -0.9440  0.0642  0.2115
  952MOL0     C28449   7.411   4.760   2.746  1.1177 -0.0021  0.2026
  952MOL0     C28450   7.450   4.873   2.750 -0.1089  0.7632 -0.3328
  952MOL0     C28451   6.844   4.615   2.912  0.0134  0.5476 -0.1102
  952MOL0     C28452   6.707   4.599   2.897 -0.2822  0.2961  0.5360
  952MOL0     H28453   6.335   4.696   2.674 -1.2153  1.0204 -2.4797
  952MOL0     H28454   6.134   4.627   2.537  1.2736 -0.9953 -0.4296
  952MOL0     H28455   5.910   4.585   2.444  0.8027  1.1199 -0.3159
  952MOL0     H28456   6.036   4.465   2.421  1.1793  1.4883  1.8531
  952MOL0     H28457   5.882   4.284   2.474  0.4148  1.7604  2.3933
  952MOL0     H28458   5.743   4.374   2.484  0.3819 -0.7190  1.2214
  952MOL0     H28459   5.769   4.447   2.225  1.3538  0.3894 -1.2649
  952MOL0     H28460   5.896   4.326   2.223  0.2162  2.8253 -1.6937
  952MOL0     H28461   5.760   4.160   2.246 -2.6565 -0.0855 -1.0390
  952MOL0     H28462   5.636   4.246   2.335 -0.0610 -0.4816  1.1918
  952MOL0     H28463   5.527   4.345   2.160  0.6507  1.4907  0.0334
  952MOL0     H28464   5.669   4.313   2.046 -0.5712 -0.7803 -0.5871
  952MOL0     H28465   5.615   4.075   2.081  0.9687  2.2990  1.3840
  952MOL0     H28466   5.466   4.126   2.155 -0.6657  0.9220 -0.8855
  952MOL0     H28467   5.383   4.217   1.945 -1.1073 -0.5978  0.9968
  952MOL0     H28468   5.542   4.225   1.880  1.2142  2.6179  4.2549
  952MOL0     H28469   5.406   3.973   1.960 -0.4099 -0.0861  0.3360
  952MOL0     H28470   5.566   3.978   1.896 -0.7609 -0.6398  0.0506
  952MOL0     H28471   5.606   4.106   1.632  0.2198 -0.8735 -2.1181
  952MOL0     H28472   5.558   4.066   1.376  1.4450 -1.1974  0.7685
  952MOL0     H28473   5.498   3.904   1.372  0.1254  0.9759  0.1207
  952MOL0     H28474   5.295   4.133   1.364  2.3519  1.7262 -0.6042
  952MOL0     H28475   5.276   3.970   1.335  0.5267 -1.5301 -1.0983
  952MOL0     H28476   5.410   3.986   1.113 -1.0216  0.1694  0.5092
  952MOL0     H28477   5.465   4.150   1.170  0.6263  0.1806 -0.6955
  952MOL0     H28478   5.294   4.172   1.009  2.8222 -1.0146  1.3455
  952MOL0     H28479   5.225   4.219   1.159  1.8856  0.1831  0.7964
  952MOL0     H28480   5.343   3.946   0.906 -0.3222 -0.1583 -0.7908
  952MOL0     H28481   5.424   3.644   0.835 -0.9775 -0.6370  0.3495
  952MOL0     H28482   5.320   3.678   0.686  1.4913 -1.6310  0.3285
  952MOL0     H28483   5.416   3.806   0.745 -1.7139  1.7286  0.0224
  952MOL0     H28484   5.150   3.204   0.941 -0.1959  0.5132 -0.1473
  952MOL0     H28485   5.238   2.985   0.915  2.9088 -0.9090  1.0277
  952MOL0     H28486   5.553   2.900   0.992  0.9638 -1.5390  0.8884
  952MOL0     H28487   5.380   2.838   0.963 -0.2476 -0.8928 -1.8811
  952MOL0     H28488   5.559   2.665   0.996 -0.4615  1.0957  1.2116
  952MOL0     H28489   5.486   2.660   0.834 -1.1308  0.0320  0.7059
  952MOL0     H28490   5.760   2.769   0.920 -0.7387 -0.0604  0.8079
  952MOL0     H28491   5.697   2.816   0.764  0.0277  1.1554  0.5686
  952MOL0     H28492   5.706   2.519   0.851  0.5317 -1.9907 -1.6820
  952MOL0     H28493   5.684   2.593   0.696 -1.4040  0.9351  1.1368
  952MOL0     H28494   5.909   2.663   0.676 -2.4192 -0.7677 -1.0453
  952MOL0     H28495   5.909   2.492   0.728  1.1807  0.2726  0.2578
  952MOL0     H28496   5.987   2.734   0.903  2.2790 -0.9432  2.0418
  952MOL0     H28497   5.946   2.571   0.963 -0.6486 -1.4786 -0.4621
  952MOL0     H28498   6.155   2.653   0.754 -0.0384  0.7660  0.6835
  952MOL0     H28499   6.125   2.489   0.803 -2.4991  1.3334 -2.8927
  952MOL0     H28500   6.197   2.727   0.988  0.7180 -0.0666 -0.2610
  952MOL0     H28501   6.317   2.624   0.940  0.0853  2.9127  0.1806
  952MOL0     H28502   5.564   3.126   0.681  1.5204 -1.6103  2.0361
  952MOL0     H28503   5.469   3.358   0.675  0.0385 -0.3923 -1.0362
  952MOL0     H28504   4.990   3.634   1.046 -0.2644  1.1542  0.4705
  952MOL0     H28505   5.002   3.836   1.142 -3.9421 -4.2464 -2.8439
  952MOL0     H28506   6.027   4.343   2.827 -1.2413 -0.9116 -1.7307
  952MOL0     H28507   6.248   4.385   2.940  2.2418  0.8161 -0.3696
  952MOL0     H28508   6.605   4.896   3.020 -0.9218 -0.8910 -1.9729
  952MOL0     H28509   6.856   4.908   3.071  2.1464 -1.3780  2.7939
  952MOL0     H28510   7.074   4.539   2.970 -2.9006  0.7988 -0.9940
  952MOL0     H28511   7.119   4.646   2.829  2.6669  3.0858  0.7504
  952MOL0     H28512   7.269   4.607   3.093 -1.2866 -1.0345 -0.4031
  952MOL0     H28513   7.284   4.760   2.987  2.7314  0.5560 -2.4643
  952MOL0     H28514   7.373   4.478   2.908  2.5560  0.2114 -2.3936
  952MOL0     H28515   7.469   4.630   2.942 -2.1258  5.5082 -0.6340
  952MOL0     H28516   7.268   4.615   2.701  0.0430 -1.1524 -1.3330
  952MOL0     H28517   7.424   4.555   2.701  1.1737  0.9325  1.4010
  952MOL0     H28518   7.483   4.970   2.781  1.7997 -0.2070  0.7872
  952MOL0     H28519   6.893   4.526   2.874 -1.1029  1.3269 -3.8185
  952MOL0     H28520   6.668   4.506   2.857 -1.9147 -0.4778  3.6294
  953MOL0     O28521   9.268   5.473  10.011  1.2364  0.4772 -0.4601
  953MOL0     C28522   9.150   5.514   9.987  0.8581  0.7066  0.8998
  953MOL0     O28523   9.057   5.558  10.069 -0.0405  0.1138 -0.4372
  953MOL0     C28524   9.063   5.565  10.203 -1.0658  1.3453  0.5355
  953MOL0     C28525   8.952   5.642  10.250  0.7764  0.1421 -1.2590
  953MOL0     C28526   8.942   5.682  10.380 -0.6467 -0.4929  0.2317
  953MOL0     C28527   9.051   5.653  10.466  0.6353  0.5060  0.3885
  953MOL0     O28528   9.039   5.693  10.604 -1.3309  0.2352  0.9347
  953MOL0     C28529   9.132   5.794  10.637  0.3526 -0.9674 -0.0570
  953MOL0     C28530   9.166   5.902  10.530 -1.0961  0.1030 -0.2514
  953MOL0     C28531   9.042   5.981  10.484  0.3553  0.0541  1.2753
  953MOL0     C28532   9.073   6.037  10.348  0.0523  0.5509  0.2028
  953MOL0     C28533   8.962   6.133  10.287 -0.0224  0.0949  0.5329
  953MOL0     C28534   8.995   6.185  10.142 -0.2557  0.5420  0.3645
  953MOL0     C28535   9.128   6.234  10.099 -0.4999  0.3190  1.7682
  953MOL0     C28536   9.136   6.239   9.948 -0.1827  0.6420 -0.2258
  953MOL0     N28537   9.067   6.358   9.894  0.6280  0.4395  0.2222
  953MOL0     C28538   9.123   6.483   9.878  0.4595 -0.3660  0.0080
  953MOL0     C28539   9.018   6.564   9.862  0.2238 -0.2214  0.5638
  953MOL0     C28540   9.025   6.707   9.816 -0.8958 -0.3083 -0.5240
  953MOL0     C28541   8.914   6.768   9.737  0.1816  0.5481  0.6820
  953MOL0     C28542   8.949   6.890   9.654  0.6170  0.2406  1.2623
  953MOL0     C28543   8.948   7.008   9.746 -0.1715 -0.1745 -0.6160
  953MOL0     O28544   8.970   7.132   9.681 -0.7251  0.0267 -0.0572
  953MOL0     C28545   9.100   7.173   9.674 -0.4315  0.1449 -0.3615
  953MOL0     C28546   9.127   7.284   9.581  0.7297 -0.1552  0.6472
  953MOL0     C28547   9.255   7.341   9.566 -0.3518 -0.4205  0.4454
  953MOL0     C28548   9.262   7.466   9.471 -0.9591  0.0929 -0.4737
  953MOL0     C28549   9.359   7.292   9.645 -0.1615 -0.3971  0.8044
  953MOL0     C28550   9.499   7.362   9.642 -0.2818  1.3078 -0.0892
  953MOL0     O28551   9.590   7.320   9.748 -0.8181 -0.0513  0.4938
  953MOL0     C28552   9.705   7.386   9.775  0.2689 -1.0386 -0.0246
  953MOL0     C28553   9.730   7.524   9.746  0.6642  0.0832  0.0389
  953MOL0     C28554   9.863   7.580   9.752  0.3339 -0.3653 -0.2982
  953MOL0     C28555   9.973   7.506   9.806 -0.0344  0.2551 -0.1482
  953MOL0     O28556  10.097   7.554   9.821  0.7253 -0.0577  0.6685
  953MOL0     C28557  10.158   7.590   9.692 -0.7557 -0.6627  0.1557
  953MOL0     C28558  10.298   7.606   9.711 -0.4252 -0.7183  0.2785
  953MOL0     C28559  10.363   7.471   9.746 -0.1809  0.3857 -0.1658
  953MOL0     C28560  10.511   7.484   9.800 -0.3740 -0.8205  0.2665
  953MOL0     C28561  10.620   7.473   9.696 -0.5766  0.2927 -0.0571
  953MOL0     C28562  10.759   7.468   9.754 -0.1631 -0.5851  0.0816
  953MOL0     C28563  10.805   7.613   9.779  0.3263 -0.9499 -0.4698
  953MOL0     C28564  10.928   7.635   9.861 -0.4245  0.8331  0.3633
  953MOL0    Cl28565  11.062   7.566   9.761 -0.0662  0.6188 -0.1592
  953MOL0     C28566   9.945   7.371   9.842  0.6859 -0.1928  0.0300
  953MOL0     C28567   9.815   7.316   9.823 -0.4095 -0.7615 -0.2888
  953MOL0     O28568   9.533   7.446   9.555 -0.0145 -0.0568 -0.3631
  953MOL0     C28569   9.343   7.179   9.728  0.1895  0.0150  0.7312
  953MOL0     C28570   9.210   7.126   9.747 -0.1970 -0.7183  0.7153
  953MOL0     N28571   8.901   6.488   9.858  0.1455 -0.4968  0.2932
  953MOL0     N28572   8.937   6.366   9.883 -0.0286  0.4294 -0.0534
  953MOL0     C28573   9.155   5.583  10.421  0.1402  0.5594 -0.6278
  953MOL0     C28574   9.170   5.530  10.290  0.2462 -0.4079  1.0094
  953MOL0     C28575   9.114   5.514   9.852  0.2169 -0.7358  0.2582
  953MOL0     C28576   8.982   5.555   9.810  0.4126  0.2087 -0.0140
  953MOL0     C28577   8.948   5.574   9.677 -0.0860 -0.4543 -0.2133
  953MOL0     C28578   9.038   5.537   9.575  0.0379 -0.1634  0.3055
  953MOL0     O28579   8.985   5.552   9.448 -0.4833  0.9189  0.8896
  953MOL0     C28580   9.042   5.473   9.338 -0.1394 -0.2476  0.6026
  953MOL0     C28581   9.168   5.527   9.280  0.6751  0.7036 -0.7118
  953MOL0     C28582   9.261   5.418   9.223 -0.5987 -0.7266  0.2697
  953MOL0     C28583   9.388   5.473   9.144  0.7607 -0.3800 -0.4079
  953MOL0     C28584   9.468   5.546   9.244  0.6713  0.6798 -0.0511
  953MOL0     C28585   9.535   5.605   9.323 -0.3496 -0.4253 -0.1455
  953MOL0     C28586   9.171   5.504   9.615  0.3362  1.0441 -0.1289
  953MOL0     C28587   9.202   5.487   9.749 -0.6729  0.0123  0.0217
  953MOL0     H28588   8.877   5.651  10.172  1.1603 -0.0956 -1.6581
  953MOL0     H28589   8.854   5.731  10.420  1.3063  3.6102  0.0359
  953MOL0     H28590   9.087   5.857  10.715 -0.8524  0.3902 -1.7673
  953MOL0     H28591   9.230   5.760  10.672  0.4983 -0.6595 -0.1643
  953MOL0     H28592   9.241   5.971  10.571 -0.9025 -0.0458 -0.3487
  953MOL0     H28593   9.219   5.865  10.441  0.4174  2.2712 -0.3370
  953MOL0     H28594   8.957   5.913  10.471  1.8534 -1.4773 -1.3248
  953MOL0     H28595   9.009   6.052  10.561 -3.0531  1.2949 -1.0876
  953MOL0     H28596   9.173   6.081  10.344  1.0322 -1.4585  1.5260
  953MOL0     H28597   9.072   5.951  10.280 -2.9166 -0.0196  0.8310
  953MOL0     H28598   8.867   6.081  10.272 -1.8865  3.6330 -1.1778
  953MOL0     H28599   8.944   6.217  10.354 -1.1930  0.9303 -0.7640
  953MOL0     H28600   8.969   6.096  10.083 -1.5678  1.8246 -1.1020
  953MOL0     H28601   8.919   6.261  10.124 -2.0506 -0.8564  1.7079
  953MOL0     H28602   9.147   6.332  10.145  1.9984  1.9412 -2.2144
  953MOL0     H28603   9.203   6.162  10.134 -2.3165 -0.9516  3.2948
  953MOL0     H28604   9.081   6.154   9.906 -1.4467  1.2106  0.2225
  953MOL0     H28605   9.240   6.243   9.915  0.6871  1.3252  2.3261
  953MOL0     H28606   9.227   6.511   9.869  0.5842 -1.2179 -1.7125
  953MOL0     H28607   9.032   6.772   9.904  0.5267 -1.4650  0.2608
  953MOL0     H28608   9.111   6.714   9.749 -0.1087  0.9531  0.5451
  953MOL0     H28609   8.834   6.794   9.806  1.9384  4.2938  1.5697
  953MOL0     H28610   8.881   6.690   9.668 -1.2322 -0.4789  2.4262
  953MOL0     H28611   8.877   6.919   9.576  1.0309 -0.6887  0.5237
  953MOL0     H28612   9.043   6.887   9.599  0.6602  1.5929  1.2258
  953MOL0     H28613   9.012   6.983   9.832 -1.2583  2.9355  1.2216
  953MOL0     H28614   8.855   7.028   9.798  0.4421  0.9282  0.0954
  953MOL0     H28615   9.042   7.324   9.526  0.5846  0.1022  1.0509
  953MOL0     H28616   9.168   7.487   9.419 -1.4599 -1.8530 -0.4231
  953MOL0     H28617   9.269   7.560   9.526 -0.0215  0.9518 -1.9882
  953MOL0     H28618   9.352   7.451   9.410 -0.6171  1.4547 -0.3517
  953MOL0     H28619   9.648   7.589   9.716 -0.1909 -0.3898  1.2605
  953MOL0     H28620   9.867   7.679   9.707  2.3086 -0.0883  0.3755
  953MOL0     H28621  10.142   7.510   9.620 -2.4107  1.4125 -1.9534
  953MOL0     H28622  10.110   7.681   9.654 -2.5105 -0.7207  2.0283
  953MOL0     H28623  10.343   7.641   9.618  2.3678 -2.8334  0.6959
  953MOL0     H28624  10.325   7.683   9.784  0.4363 -1.2787  0.5769
  953MOL0     H28625  10.363   7.408   9.657 -0.9628  1.1277 -0.7014
  953MOL0     H28626  10.298   7.410   9.809  2.0548 -3.2093 -1.0291
  953MOL0     H28627  10.504   7.579   9.852 -2.9188 -1.5968  1.4855
  953MOL0     H28628  10.522   7.399   9.868  0.1968 -0.4195  0.6855
  953MOL0     H28629  10.603   7.552   9.623  0.4060 -0.5682 -1.2563
  953MOL0     H28630  10.614   7.387   9.628  0.6156  0.6489 -0.6251
  953MOL0     H28631  10.762   7.414   9.850 -3.2361  0.4745  0.8993
  953MOL0     H28632  10.824   7.412   9.686 -3.3044  0.4980 -4.2546
  953MOL0     H28633  10.740   7.667   9.848  2.7871  1.6884 -0.0379
  953MOL0     H28634  10.807   7.664   9.682 -0.2276  0.4032  0.2109
  953MOL0     H28635  10.910   7.599   9.963 -0.9443  4.2105  1.5792
  953MOL0     H28636  10.948   7.742   9.871 -2.1477  1.1773  0.3739
  953MOL0     H28637  10.023   7.310   9.885  0.5843 -0.5731 -0.3255
  953MOL0     H28638   9.797   7.216   9.861 -0.0243 -0.4943  0.6311
  953MOL0     H28639   9.424   7.134   9.786  0.8089 -0.5920 -0.5706
  953MOL0     H28640   9.212   7.039   9.811 -0.5141 -2.4428 -1.5228
  953MOL0     H28641   9.221   5.555  10.502 -0.6263 -0.9937 -0.4878
  953MOL0     H28642   9.264   5.486  10.260  1.4940  1.9172  1.3290
  953MOL0     H28643   8.905   5.566   9.886  1.8620  0.3211  1.4905
  953MOL0     H28644   8.846   5.592   9.642 -1.0477 -1.7164  1.7345
  953MOL0     H28645   9.058   5.371   9.375 -0.0340 -0.5088 -0.1544
  953MOL0     H28646   8.960   5.462   9.266 -2.7664 -0.1042  3.3301
  953MOL0     H28647   9.206   5.603   9.349 -1.3846  1.4464 -0.3091
  953MOL0     H28648   9.135   5.585   9.193 -1.7614  1.0314  0.3295
  953MOL0     H28649   9.202   5.363   9.149  0.8440  0.6098 -1.9966
  953MOL0     H28650   9.294   5.353   9.304 -1.5642 -2.5588 -0.7536
  953MOL0     H28651   9.356   5.552   9.076  1.5682  0.8813  0.6276
  953MOL0     H28652   9.437   5.396   9.084 -2.6556 -1.5905 -1.8665
  953MOL0     H28653   9.605   5.657   9.385  0.0638  0.8701 -1.6419
  953MOL0     H28654   9.241   5.484   9.534 -0.3240  2.4404 -1.0944
  953MOL0     H28655   9.305   5.457   9.769  0.7230  0.8995 -4.7470
  954MOL0     O28656   3.963   6.218   9.057 -0.2389 -0.7029  0.1615
  954MOL0     C28657   3.978   6.304   8.969 -0.1562  0.5603  0.8269
  954MOL0     O28658   3.880   6.355   8.893 -0.2189 -0.3752 -0.0848
  954MOL0     C28659   3.745   6.323   8.910 -1.2711  0.1214 -0.3285
  954MOL0     C28660   3.657   6.340   8.799  0.4036  0.9032 -1.0225
  954MOL0     C28661   3.524   6.308   8.812  0.1916 -0.0499 -0.5926
  954MOL0     C28662   3.466   6.279   8.935 -0.0349  0.0835 -0.7673
  954MOL0     O28663   3.334   6.242   8.959  0.6036 -0.7570  0.2126
  954MOL0     C28664   3.233   6.235   8.854  0.4916 -0.1630 -1.2193
  954MOL0     C28665   3.141   6.122   8.895 -0.1323  1.0887  0.2564
  954MOL0     C28666   3.035   6.088   8.791 -0.0036  0.3578 -0.0017
  954MOL0     C28667   2.950   6.198   8.743 -0.5432 -0.0206  0.2846
  954MOL0     C28668   2.805   6.158   8.691 -1.1117 -0.1236 -0.1921
  954MOL0     C28669   2.713   6.092   8.802 -0.5482 -0.7082  0.7350
  954MOL0     C28670   2.605   6.027   8.717  0.1284  0.0727 -0.6817
  954MOL0     C28671   2.497   5.965   8.813 -0.1333 -0.6813 -0.7467
  954MOL0     N28672   2.394   6.055   8.866 -0.0481  0.0325  0.2391
  954MOL0     C28673   2.368   6.084   8.998  0.9235  0.6831  0.9103
  954MOL0     C28674   2.245   6.131   8.994  0.6126  0.4283 -0.0047
  954MOL0     C28675   2.168   6.173   9.116 -0.2433 -0.4357 -0.3010
  954MOL0     C28676   2.097   6.043   9.173  0.1300  0.0778  0.1808
  954MOL0     C28677   2.005   5.977   9.069 -0.0613  1.2762  0.1167
  954MOL0     C28678   1.877   6.054   9.039  0.0050 -0.1279  0.9042
  954MOL0     O28679   1.789   6.067   9.155 -0.1531  0.1116  0.1584
  954MOL0     C28680   1.663   6.100   9.128 -0.6319 -0.5902 -0.5118
  954MOL0     C28681   1.618   6.133   9.004 -1.1411  0.1878  0.8587
  954MOL0     C28682   1.485   6.175   8.977  0.0038 -0.4340 -0.3364
  954MOL0     C28683   1.446   6.212   8.835 -0.2379 -0.5438 -0.3766
  954MOL0     C28684   1.386   6.161   9.068 -0.3963 -0.0883 -0.4794
  954MOL0     C28685   1.244   6.195   9.054 -0.0841  0.0406  0.1498
  954MOL0     O28686   1.202   6.279   8.956  0.3835  0.1918 -0.7397
  954MOL0     C28687   1.071   6.288   8.921  0.1494  0.2542  0.4441
  954MOL0     C28688   0.975   6.182   8.927  0.5255  0.3409 -0.8262
  954MOL0     C28689   0.838   6.214   8.907  0.0493  0.5527  1.3489
  954MOL0     C28690   0.801   6.342   8.873  0.2453  0.2713 -0.6663
  954MOL0     O28691   0.664   6.377   8.858  0.1022 -0.1924  0.6325
  954MOL0     C28692   0.561   6.274   8.872 -0.2441 -0.7475 -0.7919
  954MOL0     C28693   0.423   6.332   8.845  0.1453  0.0694 -0.0575
  954MOL0     C28694   0.409   6.442   8.736 -0.3239  0.0039  0.1248
  954MOL0     C28695   0.261   6.456   8.695  0.3174  0.3109 -0.3574
  954MOL0     C28696   0.244   6.510   8.547 -0.6783  0.1491 -0.3874
  954MOL0     C28697   0.263   6.409   8.435 -1.1451 -1.6095 -0.7983
  954MOL0     C28698   0.295   6.476   8.301 -0.2667 -0.2040 -0.0916
  954MOL0     C28699   0.291   6.377   8.183  0.2018 -0.4177  0.6808
  954MOL0    Cl28700   0.113   6.342   8.155 -0.6506  0.2102 -0.1824
  954MOL0     C28701   0.894   6.443   8.860  0.4398 -0.8297 -0.8583
  954MOL0     C28702   1.025   6.414   8.885 -0.5109 -0.4268  1.0867
  954MOL0     O28703   1.168   6.130   9.126  0.2722 -1.0815 -0.5812
  954MOL0     C28704   1.435   6.126   9.193  0.6738  0.2472 -0.1998
  954MOL0     C28705   1.562   6.089   9.225 -0.1115  0.0630  0.5194
  954MOL0     N28706   2.188   6.139   8.871 -0.6862 -0.4156  0.1853
  954MOL0     N28707   2.282   6.090   8.798  0.0974 -1.1769  0.5452
  954MOL0     C28708   3.543   6.269   9.049 -0.3674 -0.3603  1.1441
  954MOL0     C28709   3.685   6.296   9.038 -0.0844  0.9742 -0.8838
  954MOL0     C28710   4.114   6.346   8.933  0.7553  0.9436  0.2153
  954MOL0     C28711   4.220   6.284   8.986 -0.1967 -0.6752  0.0126
  954MOL0     C28712   4.351   6.297   8.934 -0.6390 -0.1672  0.1294
  954MOL0     C28713   4.387   6.394   8.844  0.2970 -0.0631  1.2580
  954MOL0     O28714   4.511   6.435   8.803  0.0007  0.0001  0.0919
  954MOL0     C28715   4.605   6.332   8.828 -0.6763  0.0506 -0.2418
  954MOL0     C28716   4.662   6.352   8.969  0.0817 -0.5565  0.3724
  954MOL0     C28717   4.760   6.240   8.994 -1.1184  1.2865  0.3319
  954MOL0     C28718   4.731   6.159   9.127  0.2867  0.3151  0.1097
  954MOL0     C28719   4.604   6.079   9.126  1.0202 -1.2689 -0.9451
  954MOL0     C28720   4.501   6.013   9.119  0.1317 -0.7797  0.6181
  954MOL0     C28721   4.277   6.464   8.795  0.3866  0.3055  1.2212
  954MOL0     C28722   4.144   6.438   8.834  0.0581  0.4346 -0.0479
  954MOL0     H28723   3.689   6.374   8.702  1.3681 -0.2632 -1.1394
  954MOL0     H28724   3.460   6.320   8.725 -1.7695 -1.0181  0.6497
  954MOL0     H28725   3.169   6.324   8.860 -0.3122 -0.8136  0.5742
  954MOL0     H28726   3.279   6.217   8.756  3.2370 -6.2302  0.6961
  954MOL0     H28727   3.200   6.032   8.912 -0.0673  1.6845  4.0330
  954MOL0     H28728   3.091   6.155   8.986 -1.9010  0.3256 -0.3904
  954MOL0     H28729   3.087   6.042   8.706 -3.1820 -0.2226 -1.8230
  954MOL0     H28730   2.972   6.011   8.836 -1.1095  1.7713  0.9730
  954MOL0     H28731   2.926   6.274   8.819  1.2526  1.1838 -0.2817
  954MOL0     H28732   3.011   6.249   8.667  0.8679  0.2020  1.5040
  954MOL0     H28733   2.767   6.249   8.644  1.1581 -0.7256 -3.5520
  954MOL0     H28734   2.827   6.084   8.613  1.8433 -0.0061  0.4147
  954MOL0     H28735   2.767   6.022   8.867  0.3583  0.1627  0.9413
  954MOL0     H28736   2.684   6.174   8.868 -2.6038 -0.7530 -0.0543
  954MOL0     H28737   2.554   6.090   8.644 -1.0132 -0.4156 -0.3274
  954MOL0     H28738   2.658   5.950   8.661  3.1267  2.9346 -2.1500
  954MOL0     H28739   2.550   5.928   8.901 -0.6723  1.2777  0.4578
  954MOL0     H28740   2.442   5.890   8.756 -1.8929  0.7718 -1.0674
  954MOL0     H28741   2.421   6.058   9.089  0.1231 -0.3185  1.1031
  954MOL0     H28742   2.231   6.212   9.196 -0.9251  1.6284 -0.7084
  954MOL0     H28743   2.097   6.252   9.091 -1.3618 -1.0505  0.8273
  954MOL0     H28744   2.046   6.071   9.266 -2.0458 -1.4618 -0.4606
  954MOL0     H28745   2.185   5.980   9.191  0.3942  0.3323 -0.2057
  954MOL0     H28746   1.975   5.878   9.104 -0.5172  0.9825 -1.0765
  954MOL0     H28747   2.062   5.944   8.982 -1.2595  1.1991 -0.6604
  954MOL0     H28748   1.830   6.006   8.953 -2.6600  0.4801  1.9337
  954MOL0     H28749   1.904   6.157   9.012  1.6654 -0.2769  1.8681
  954MOL0     H28750   1.684   6.143   8.919 -1.8082  4.4723  0.6285
  954MOL0     H28751   1.372   6.141   8.795 -1.1079 -0.0951  0.4027
  954MOL0     H28752   1.397   6.309   8.847 -1.6781 -1.2353 -0.4403
  954MOL0     H28753   1.529   6.211   8.764 -0.3398  1.0148 -0.5376
  954MOL0     H28754   1.008   6.080   8.946 -0.4860  0.2420  0.6027
  954MOL0     H28755   0.762   6.137   8.915 -0.5863  1.1151  0.9316
  954MOL0     H28756   0.572   6.188   8.804  2.5014 -1.2948  0.2066
  954MOL0     H28757   0.564   6.240   8.976  1.6130  1.4594 -0.0492
  954MOL0     H28758   0.357   6.252   8.811 -1.1113  1.4219 -0.9214
  954MOL0     H28759   0.370   6.365   8.935 -0.9838  1.5627 -1.2207
  954MOL0     H28760   0.460   6.405   8.647 -3.3323 -3.5529 -0.3766
  954MOL0     H28761   0.444   6.540   8.770  0.0337  1.2646 -3.3990
  954MOL0     H28762   0.215   6.357   8.703  0.7380  0.1357 -0.0770
  954MOL0     H28763   0.206   6.522   8.764 -1.7962 -0.7150 -0.9645
  954MOL0     H28764   0.323   6.585   8.545  0.0003 -0.5023  0.7944
  954MOL0     H28765   0.151   6.568   8.538 -0.1453  1.3207  1.1753
  954MOL0     H28766   0.351   6.348   8.455  0.5177  0.0198 -2.6951
  954MOL0     H28767   0.177   6.341   8.430 -0.8699 -2.3234  2.2637
  954MOL0     H28768   0.385   6.536   8.311 -0.1812 -0.4256  0.4728
  954MOL0     H28769   0.218   6.554   8.301  0.6427  0.7407 -1.7615
  954MOL0     H28770   0.345   6.283   8.199 -1.6440 -1.3260  1.9587
  954MOL0     H28771   0.332   6.419   8.090  0.0058 -4.3241 -1.4182
  954MOL0     H28772   0.868   6.541   8.823  1.3156  1.2864  3.5097
  954MOL0     H28773   1.094   6.498   8.876 -2.7179  1.5015  1.2624
  954MOL0     H28774   1.359   6.117   9.270 -1.0544 -1.0670 -1.9648
  954MOL0     H28775   1.577   6.069   9.331 -0.5510 -2.2550  0.1949
  954MOL0     H28776   3.517   6.255   9.153 -0.4160  1.4180  1.4032
  954MOL0     H28777   3.743   6.282   9.128 -2.4193  0.8850  0.6946
  954MOL0     H28778   4.201   6.209   9.062  2.4679 -0.1609  1.2834
  954MOL0     H28779   4.425   6.232   8.980  0.7424  2.4049  1.7904
  954MOL0     H28780   4.568   6.230   8.814 -0.4235 -0.4634  2.3485
  954MOL0     H28781   4.683   6.358   8.756  0.1987 -0.6381  0.4277
  954MOL0     H28782   4.582   6.352   9.044  0.9989 -0.4875  1.3768
  954MOL0     H28783   4.703   6.453   8.972  0.1302 -0.5977  1.7233
  954MOL0     H28784   4.862   6.278   9.010  0.0971 -2.7729  4.3188
  954MOL0     H28785   4.768   6.167   8.913 -2.3866 -1.0055  2.1503
  954MOL0     H28786   4.726   6.236   9.204  2.3708 -1.7233  2.4603
  954MOL0     H28787   4.815   6.093   9.147  1.3819  1.6968  0.1708
  954MOL0     H28788   4.413   5.952   9.120  0.8259 -1.8573 -0.5136
  954MOL0     H28789   4.297   6.541   8.722 -2.2890 -1.4044 -1.5146
  954MOL0     H28790   4.071   6.505   8.789 -1.3351 -0.4360  0.8203
  955MOL0     O28791   2.977  11.439   5.691 -0.1174  0.7432  0.1424
  955MOL0     C28792   2.886  11.381   5.744  0.6184 -0.0525 -0.3199
  955MOL0     O28793   2.890  11.256   5.770 -0.5910  0.1593  0.4369
  955MOL0     C28794   3.003  11.188   5.740 -0.1076 -0.5233 -0.1998
  955MOL0     C28795   3.121  11.192   5.817 -0.2399  0.5235 -0.6787
  955MOL0     C28796   3.222  11.089   5.788  1.1975  0.0652  0.3949
  955MOL0     C28797   3.205  11.002   5.679 -0.5609 -0.1980  0.1223
  955MOL0     O28798   3.300  10.910   5.655  0.5538  0.1758  0.7096
  955MOL0     C28799   3.271  10.801   5.562 -0.5978 -1.0397  0.0815
  955MOL0     C28800   3.403  10.723   5.562  0.6591 -0.4021  0.5147
  955MOL0     C28801   3.450  10.658   5.688 -0.4437 -0.0292 -0.4082
  955MOL0     C28802   3.569  10.555   5.656 -0.4316  0.5700 -0.2204
  955MOL0     C28803   3.641  10.512   5.781 -0.0317  0.9079 -0.5240
  955MOL0     C28804   3.759  10.409   5.766  1.2570 -0.7866 -0.8160
  955MOL0     C28805   3.696  10.278   5.797 -0.0758  0.3592 -0.0558
  955MOL0     C28806   3.783  10.149   5.804  0.1095  0.2615 -0.0949
  955MOL0     N28807   3.712  10.020   5.812 -0.7728 -0.4606  0.3634
  955MOL0     C28808   3.751   9.910   5.887 -0.9820  0.0037  0.0315
  955MOL0     C28809   3.662   9.817   5.862  0.8823  1.1936  0.7738
  955MOL0     C28810   3.661   9.675   5.910 -0.1147  0.3480 -0.3240
  955MOL0     C28811   3.556   9.654   6.019 -0.2243  0.8018 -0.2814
  955MOL0     C28812   3.409   9.635   5.958  0.2972  0.5688  0.6323
  955MOL0     C28813   3.325   9.683   6.083 -0.1076 -0.3726  1.0433
  955MOL0     O28814   3.184   9.660   6.068  0.7694 -1.2353 -0.0319
  955MOL0     C28815   3.123   9.756   5.987  0.3924 -0.1851 -0.2695
  955MOL0     C28816   3.082   9.867   6.064 -0.0212 -0.4701  0.7429
  955MOL0     C28817   3.009   9.971   5.992 -0.2651  0.6564 -0.4761
  955MOL0     C28818   2.975  10.084   6.089  0.6158  0.8487  0.4612
  955MOL0     C28819   2.977   9.956   5.861 -0.5731  0.8941  0.5116
  955MOL0     C28820   2.879  10.055   5.794  0.5184 -0.6245  0.3531
  955MOL0     O28821   2.819  10.012   5.683 -0.3633  0.3616  0.0303
  955MOL0     C28822   2.790  10.097   5.574 -0.2792  0.3955  0.2790
  955MOL0     C28823   2.677  10.057   5.493 -0.3240 -0.2825  0.2222
  955MOL0     C28824   2.632  10.144   5.389  0.0890 -0.1923 -0.6371
  955MOL0     C28825   2.710  10.252   5.346 -0.8918  0.0244  0.0047
  955MOL0     O28826   2.661  10.345   5.254  0.1987  0.1346  0.2030
  955MOL0     C28827   2.559  10.309   5.155  0.1210  0.8186  0.7300
  955MOL0     C28828   2.544  10.423   5.059 -0.1790  0.7384 -0.1897
  955MOL0     C28829   2.417  10.421   4.976 -0.0910 -0.6258 -0.4275
  955MOL0     C28830   2.401  10.557   4.887 -0.4570  0.2042 -0.1457
  955MOL0     C28831   2.260  10.570   4.820 -0.7260  0.4700 -0.0172
  955MOL0     C28832   2.213  10.453   4.725 -0.4980 -1.1074 -0.3278
  955MOL0     C28833   2.090  10.494   4.649 -0.6072 -0.1509 -0.3535
  955MOL0     C28834   2.019  10.388   4.569 -0.2486 -0.1274  0.1946
  955MOL0    Cl28835   1.916  10.285   4.668  0.3454 -0.2491 -0.0845
  955MOL0     C28836   2.822  10.290   5.420  0.8367 -0.1982  0.2362
  955MOL0     C28837   2.859  10.217   5.530 -1.0286  0.4206 -0.5544
  955MOL0     O28838   2.851  10.169   5.847  0.7840 -0.4845  0.4416
  955MOL0     C28839   3.005   9.832   5.787 -0.0559  0.7742 -0.6236
  955MOL0     C28840   3.090   9.735   5.849 -0.1583 -0.0838 -0.7681
  955MOL0     N28841   3.576   9.861   5.756 -0.7135  0.0140 -0.0494
  955MOL0     N28842   3.607   9.982   5.734 -0.3794 -0.6268 -0.0266
  955MOL0     C28843   3.092  11.016   5.596 -0.4796  0.1553  0.1463
  955MOL0     C28844   2.993  11.107   5.636  0.2299  1.3514  0.6242
  955MOL0     C28845   2.762  11.451   5.773  0.8826 -0.2660 -0.7503
  955MOL0     C28846   2.651  11.383   5.830  0.0233 -0.0891  0.2602
  955MOL0     C28847   2.531  11.447   5.861 -0.3352  0.4689  0.1793
  955MOL0     C28848   2.515  11.583   5.842  0.4818 -0.0790  0.0850
  955MOL0     O28849   2.390  11.637   5.867  0.2921  0.2752  0.6707
  955MOL0     C28850   2.360  11.772   5.830 -0.0352 -0.2451  1.0173
  955MOL0     C28851   2.391  11.864   5.932 -0.3459 -0.2741  0.0922
  955MOL0     C28852   2.330  11.860   6.070  0.4757 -0.8043 -1.2686
  955MOL0     C28853   2.426  11.824   6.179  0.0083  0.9858 -0.1987
  955MOL0     C28854   2.370  11.863   6.317 -0.4172  0.2059 -0.2132
  955MOL0     C28855   2.326  11.882   6.426  0.0344 -0.5421  0.4374
  955MOL0     C28856   2.632  11.648   5.793  1.0603  0.2734  0.0131
  955MOL0     C28857   2.744  11.587   5.749 -0.2186  0.5450  0.2629
  955MOL0     H28858   3.150  11.251   5.903  1.2244 -0.0201 -0.7672
  955MOL0     H28859   3.316  11.077   5.841  1.4067  1.6326  0.4469
  955MOL0     H28860   3.184  10.737   5.580 -0.6226 -0.9052  0.4485
  955MOL0     H28861   3.262  10.846   5.462 -1.7622  1.1493  1.0952
  955MOL0     H28862   3.383  10.641   5.492 -2.2289  2.0162 -1.8005
  955MOL0     H28863   3.480  10.782   5.511 -3.3297  3.9582 -1.2745
  955MOL0     H28864   3.481  10.742   5.752 -1.4483  1.9069 -2.3256
  955MOL0     H28865   3.386  10.587   5.741  0.9652 -1.0259  0.0381
  955MOL0     H28866   3.524  10.466   5.610 -1.2964  0.2666  1.1562
  955MOL0     H28867   3.645  10.594   5.588  1.9188  0.5115  2.2363
  955MOL0     H28868   3.688  10.601   5.825  0.4666 -0.1002  1.0909
  955MOL0     H28869   3.569  10.476   5.855  0.3877  1.4777  0.1736
  955MOL0     H28870   3.804  10.422   5.667  2.9048  0.4346  0.0349
  955MOL0     H28871   3.825  10.429   5.851 -0.9435  0.9857  0.6088
  955MOL0     H28872   3.633  10.283   5.886  1.0291 -2.8804  1.0739
  955MOL0     H28873   3.628  10.269   5.712 -1.6156 -0.2100  1.1950
  955MOL0     H28874   3.865  10.155   5.876  0.6608  3.5480 -0.8425
  955MOL0     H28875   3.845  10.135   5.715 -0.6828  2.7166 -1.1043
  955MOL0     H28876   3.844   9.914   5.944  0.2616  2.0574 -1.9510
  955MOL0     H28877   3.650   9.606   5.825  1.5434  0.4875 -0.6856
  955MOL0     H28878   3.758   9.656   5.956 -0.3332  0.3556  0.1473
  955MOL0     H28879   3.567   9.732   6.095 -1.6550  0.6743  0.0884
  955MOL0     H28880   3.571   9.555   6.063 -1.6296  1.2492  1.3119
  955MOL0     H28881   3.397   9.528   5.936  1.8475  0.1936  1.4161
  955MOL0     H28882   3.401   9.696   5.868  2.2404  1.8760  1.2615
  955MOL0     H28883   3.333   9.791   6.095 -1.7001 -0.1553  0.4593
  955MOL0     H28884   3.352   9.634   6.177  0.0671 -3.7002 -0.5954
  955MOL0     H28885   3.090   9.873   6.172  3.8096 -3.0682  0.7978
  955MOL0     H28886   2.885  10.070   6.150  0.4009 -0.0364 -0.0434
  955MOL0     H28887   3.051  10.086   6.168  1.6140  1.8200 -0.5003
  955MOL0     H28888   2.980  10.184   6.046 -0.0046  0.3952 -0.7275
  955MOL0     H28889   2.640   9.957   5.514  0.5614 -1.6557 -3.9064
  955MOL0     H28890   2.543  10.119   5.331  2.0683 -2.1543 -3.0179
  955MOL0     H28891   2.592  10.223   5.095  1.5318  1.7198  0.1644
  955MOL0     H28892   2.460  10.287   5.196 -1.3511  3.6071 -1.0098
  955MOL0     H28893   2.537  10.519   5.111 -1.1650  2.1340 -2.7393
  955MOL0     H28894   2.625  10.426   4.985 -1.8276 -0.9528 -2.1846
  955MOL0     H28895   2.324  10.401   5.030  0.3007 -1.4113 -0.0295
  955MOL0     H28896   2.428  10.342   4.901  0.5700 -1.8625  0.9117
  955MOL0     H28897   2.416  10.645   4.950  3.0548 -1.1780  1.1728
  955MOL0     H28898   2.483  10.554   4.815  3.6076 -1.3317  4.0463
  955MOL0     H28899   2.255  10.656   4.752  1.5327  0.6729 -0.0291
  955MOL0     H28900   2.189  10.585   4.901 -0.2334  2.3557  0.1005
  955MOL0     H28901   2.293  10.417   4.659  0.5759  1.1992 -0.3846
  955MOL0     H28902   2.176  10.379   4.796 -1.4628  0.5347  0.9411
  955MOL0     H28903   2.126  10.566   4.576  1.9866 -1.2366 -0.2565
  955MOL0     H28904   2.019  10.543   4.717  0.2977  0.7309 -0.0183
  955MOL0     H28905   2.097  10.330   4.519  2.2006  3.2908 -0.3099
  955MOL0     H28906   1.958  10.431   4.488  2.3964 -0.1912 -1.9551
  955MOL0     H28907   2.880  10.379   5.397 -0.4643  0.9034  1.0420
  955MOL0     H28908   2.950  10.246   5.580 -1.3792  0.6239 -0.0217
  955MOL0     H28909   2.986   9.837   5.680 -1.0512  0.6364 -0.4599
  955MOL0     H28910   3.106   9.642   5.796 -0.4220 -2.1026  2.4456
  955MOL0     H28911   3.063  10.960   5.508 -3.2713 -0.0184  1.0812
  955MOL0     H28912   2.904  11.097   5.573  0.6346 -0.4754  0.2709
  955MOL0     H28913   2.658  11.276   5.847  4.2077 -0.6101 -3.1578
  955MOL0     H28914   2.453  11.385   5.904  1.0002 -0.9095  0.6964
  955MOL0     H28915   2.420  11.801   5.743 -0.2240 -2.5246  0.0467
  955MOL0     H28916   2.257  11.783   5.795 -0.1916  3.0424  2.1436
  955MOL0     H28917   2.361  11.961   5.889 -1.1397 -1.0605 -1.1955
  955MOL0     H28918   2.499  11.859   5.946  0.2412  2.8418 -2.0769
  955MOL0     H28919   2.242  11.796   6.059 -1.3509  1.0969  1.1458
  955MOL0     H28920   2.305  11.966   6.079  0.6835 -0.8693  0.2906
  955MOL0     H28921   2.523  11.874   6.176  1.0966 -0.1505  5.0512
  955MOL0     H28922   2.441  11.716   6.178  3.1751  1.3118 -2.9585
  955MOL0     H28923   2.276  11.912   6.516  1.3799  2.3104  0.3554
  955MOL0     H28924   2.636  11.753   5.764  3.6194  1.1317  2.9385
  955MOL0     H28925   2.828  11.637   5.702 -0.7676  1.1870 -0.0487
  956MOL0     O28926   3.855  10.277   6.140  0.0527 -0.9320 -0.2511
  956MOL0     C28927   3.766  10.368   6.134 -0.0766 -0.2212 -0.2019
  956MOL0     O28928   3.630  10.344   6.150  0.8940 -0.1727  0.3604
  956MOL0     C28929   3.580  10.229   6.203 -0.4559 -0.3804 -0.9650
  956MOL0     C28930   3.571  10.123   6.118 -0.5402  0.4285 -0.8373
  956MOL0     C28931   3.497  10.015   6.166 -0.3340 -0.3061  0.1605
  956MOL0     C28932   3.443  10.007   6.294  0.8610  0.3780 -0.6994
  956MOL0     O28933   3.384   9.887   6.327 -0.9216  0.0905  0.0536
  956MOL0     C28934   3.304   9.884   6.448  0.5506 -1.0689  0.0847
  956MOL0     C28935   3.207   9.763   6.455  0.3439 -0.1133  0.1991
  956MOL0     C28936   3.051   9.803   6.455 -0.7362  0.2228 -0.3737
  956MOL0     C28937   2.992   9.797   6.604 -0.6845 -0.2185  0.1718
  956MOL0     C28938   3.029   9.928   6.680  1.1581  1.2916  0.5734
  956MOL0     C28939   2.925   9.955   6.794  0.6134  0.4031 -1.4858
  956MOL0     C28940   2.970  10.062   6.903 -0.0357  0.6399  0.4174
  956MOL0     C28941   2.877  10.079   7.018  0.1137  0.2106 -0.1431
  956MOL0     N28942   2.754  10.146   6.980 -0.2087 -0.8606 -0.1435
  956MOL0     C28943   2.750  10.274   6.929  0.6876  0.2842 -0.9907
  956MOL0     C28944   2.622  10.310   6.924 -0.4153 -0.6522  0.8263
  956MOL0     C28945   2.567  10.435   6.866 -0.5996  0.7942 -0.5799
  956MOL0     C28946   2.586  10.552   6.965  0.4277  0.0563 -0.9152
  956MOL0     C28947   2.621  10.679   6.878 -0.2076  0.2448 -0.3115
  956MOL0     C28948   2.768  10.697   6.821  0.3913  0.3048 -0.4151
  956MOL0     O28949   2.778  10.627   6.700  1.1412  0.2231  0.0029
  956MOL0     C28950   2.899  10.573   6.685  0.1504 -0.1812 -0.3876
  956MOL0     C28951   3.015  10.648   6.720 -0.2349  0.7747  0.5082
  956MOL0     C28952   3.140  10.582   6.691  0.4231  0.3043  0.4435
  956MOL0     C28953   3.257  10.659   6.742  0.1878  0.9367  0.0844
  956MOL0     C28954   3.145  10.443   6.643 -0.4688 -0.0814 -0.1373
  956MOL0     C28955   3.276  10.392   6.618 -0.2522 -0.2403  0.5363
  956MOL0     O28956   3.368  10.451   6.538 -0.1866  0.1810  0.0801
  956MOL0     C28957   3.344  10.520   6.421 -0.2682 -0.1655  0.2062
  956MOL0     C28958   3.442  10.613   6.387 -0.6049  0.4801  0.4591
  956MOL0     C28959   3.431  10.691   6.275  0.0353 -0.5342  0.2651
  956MOL0     C28960   3.317  10.682   6.195 -0.1635 -0.3528  0.2812
  956MOL0     O28961   3.310  10.774   6.093  0.4671 -0.0889  0.1686
  956MOL0     C28962   3.205  10.772   5.998  0.0958  0.4547  0.9876
  956MOL0     C28963   3.069  10.838   6.034  0.3125 -0.6276 -0.0413
  956MOL0     C28964   3.086  10.967   6.117 -0.6568 -0.1209 -0.2220
  956MOL0     C28965   2.967  11.061   6.086  0.1436  0.1703  0.2897
  956MOL0     C28966   2.988  11.193   6.157 -0.2941 -0.5617 -1.3620
  956MOL0     C28967   2.852  11.273   6.165  0.1166 -0.3420 -0.2985
  956MOL0     C28968   2.868  11.387   6.271  0.4202 -0.1492 -0.4355
  956MOL0     C28969   2.739  11.473   6.276  0.1368 -0.4528 -0.4558
  956MOL0    Cl28970   2.602  11.364   6.301  0.1460  0.1768 -0.6394
  956MOL0     C28971   3.211  10.600   6.226  0.3743  1.3253 -0.7633
  956MOL0     C28972   3.223  10.513   6.338  0.5290 -0.0289 -0.3812
  956MOL0     O28973   3.286  10.272   6.651  0.2418  0.0703  0.0623
  956MOL0     C28974   3.029  10.374   6.626  1.2616 -0.1068 -0.6148
  956MOL0     C28975   2.911  10.439   6.642  0.5877  0.2524 -0.2953
  956MOL0     N28976   2.551  10.202   6.967  0.5505  0.6613  0.0048
  956MOL0     N28977   2.627  10.104   7.001  0.2859 -0.6137 -0.1615
  956MOL0     C28978   3.478  10.110   6.384  0.3428  0.5240 -0.4872
  956MOL0     C28979   3.541  10.221   6.341  0.3353 -0.5201 -0.0801
  956MOL0     C28980   3.804  10.505   6.108  0.7769  0.2760  0.1263
  956MOL0     C28981   3.711  10.602   6.120  0.5675  0.0889  0.4095
  956MOL0     C28982   3.749  10.740   6.111  0.0913 -0.2908 -1.6226
  956MOL0     C28983   3.888  10.774   6.108  0.1182  1.3924 -0.2733
  956MOL0     O28984   3.914  10.911   6.113  0.5862 -0.1305 -1.2952
  956MOL0     C28985   4.047  10.953   6.095  0.1099 -1.3126  0.8370
  956MOL0     C28986   4.124  10.960   6.227 -0.5475 -0.1606 -0.2951
  956MOL0     C28987   4.254  11.040   6.246  0.7096 -0.0143 -1.0955
  956MOL0     C28988   4.298  11.042   6.395  0.3041 -0.3248  0.0486
  956MOL0     C28989   4.335  11.179   6.443 -0.5728 -0.0667 -0.3813
  956MOL0     C28990   4.372  11.289   6.474  0.3878  0.2279 -0.2684
  956MOL0     C28991   3.979  10.674   6.112 -0.3948  0.2956 -0.6016
  956MOL0     C28992   3.937  10.540   6.112 -0.0378  0.0863  0.8490
  956MOL0     H28993   3.614  10.129   6.019  1.8893 -0.4290  0.0798
  956MOL0     H28994   3.500   9.928   6.102 -1.1075  0.6695 -1.2732
  956MOL0     H28995   3.370   9.884   6.535  1.7132 -0.1031 -0.7506
  956MOL0     H28996   3.250   9.979   6.453 -1.5666 -2.1132 -1.6615
  956MOL0     H28997   3.241   9.696   6.375  2.9733 -0.3715  1.4312
  956MOL0     H28998   3.237   9.709   6.546  2.0425 -1.0845 -0.8703
  956MOL0     H28999   3.030   9.901   6.409 -6.4283  0.0094  1.1061
  956MOL0     H29000   2.999   9.729   6.394 -1.5522  0.7704 -0.3658
  956MOL0     H29001   2.883   9.797   6.595 -0.5401  0.4791 -2.8921
  956MOL0     H29002   3.021   9.707   6.658 -4.0606 -1.5321  0.0433
  956MOL0     H29003   3.120   9.902   6.734  2.1638  0.3637 -1.4520
  956MOL0     H29004   3.041  10.014   6.614  0.5516 -0.2357 -1.6336
  956MOL0     H29005   2.835   9.997   6.747 -0.4641  0.2342  0.3429
  956MOL0     H29006   2.888   9.866   6.846 -0.1187  2.1277  1.1461
  956MOL0     H29007   3.065  10.024   6.942  0.1854 -1.4634 -1.9078
  956MOL0     H29008   2.987  10.156   6.850 -4.0658  0.8670 -0.7255
  956MOL0     H29009   2.925  10.138   7.097  0.4046  2.7042 -2.0271
  956MOL0     H29010   2.850   9.987   7.069 -1.5702  1.1326  0.7169
  956MOL0     H29011   2.823  10.347   6.893 -0.3565  2.6572  1.3501
  956MOL0     H29012   2.604  10.464   6.767  1.2740  2.7282  0.5732
  956MOL0     H29013   2.460  10.420   6.847 -0.6824  1.7641 -0.9482
  956MOL0     H29014   2.663  10.532   7.040 -2.6200  3.9097  3.8711
  956MOL0     H29015   2.487  10.566   7.010 -0.5556  0.0641 -2.9497
  956MOL0     H29016   2.594  10.766   6.939 -1.1334  1.1750 -1.9870
  956MOL0     H29017   2.557  10.674   6.790 -1.0461 -1.9281  0.3569
  956MOL0     H29018   2.840  10.678   6.902  1.1722  2.0610 -0.6485
  956MOL0     H29019   2.778  10.802   6.793  1.8204  0.3304  0.1091
  956MOL0     H29020   3.009  10.747   6.763 -2.8315  0.7385  0.3839
  956MOL0     H29021   3.316  10.701   6.660  0.1930 -0.3549 -0.5979
  956MOL0     H29022   3.249  10.745   6.808  1.2503  0.2539  1.1339
  956MOL0     H29023   3.328  10.597   6.797 -0.4386  0.9327  0.9074
  956MOL0     H29024   3.533  10.624   6.446 -1.0352  3.2747  0.7363
  956MOL0     H29025   3.491  10.774   6.240 -0.8505 -1.0865 -2.8832
  956MOL0     H29026   3.239  10.828   5.910 -1.2362  2.9801  1.9756
  956MOL0     H29027   3.180  10.669   5.973 -0.9624  0.7986  0.5656
  956MOL0     H29028   3.007  10.845   5.944 -0.4463 -0.9419  0.4462
  956MOL0     H29029   3.011  10.775   6.102 -0.8025  1.4969  1.0789
  956MOL0     H29030   3.171  11.025   6.081  0.6586 -0.8432  1.5755
  956MOL0     H29031   3.108  10.937   6.220 -1.6610 -2.6678 -0.6736
  956MOL0     H29032   2.952  11.088   5.981 -1.0746  0.6373  0.5667
  956MOL0     H29033   2.875  11.021   6.130  0.2219 -0.1125  0.1959
  956MOL0     H29034   3.066  11.250   6.107  1.7445 -1.2415  0.8934
  956MOL0     H29035   3.010  11.179   6.263 -3.0701  0.6949 -0.5089
  956MOL0     H29036   2.839  11.314   6.065  3.2041 -1.2004 -1.1269
  956MOL0     H29037   2.766  11.210   6.191  0.2708 -0.1451  0.7497
  956MOL0     H29038   2.956  11.448   6.251 -1.8009  2.7378 -2.1504
  956MOL0     H29039   2.874  11.335   6.367  0.7355  0.5662 -0.0651
  956MOL0     H29040   2.744  11.520   6.177  0.7704 -1.5283 -0.9449
  956MOL0     H29041   2.730  11.557   6.346  0.4929  0.8774 -1.9449
  956MOL0     H29042   3.115  10.620   6.179 -0.4977  0.9882  0.8085
  956MOL0     H29043   3.134  10.454   6.353  1.7418 -2.0082 -0.6163
  956MOL0     H29044   3.032  10.266   6.619  0.8026 -0.2025  0.4264
  956MOL0     H29045   2.823  10.381   6.616  0.7470 -0.4728  0.6843
  956MOL0     H29046   3.453  10.087   6.487 -0.8120 -2.8494 -1.3904
  956MOL0     H29047   3.555  10.310   6.403 -1.4009  2.4480 -3.5932
  956MOL0     H29048   3.604  10.585   6.128  0.1960  1.4603 -0.9981
  956MOL0     H29049   3.673  10.816   6.123 -0.3350 -0.9575  0.2223
  956MOL0     H29050   4.099  10.896   6.018 -0.1586 -1.6147  0.8744
  956MOL0     H29051   4.042  11.054   6.053  1.8996 -0.9279  1.4683
  956MOL0     H29052   4.153  10.859   6.256  3.5559  0.7899 -0.5128
  956MOL0     H29053   4.057  10.999   6.304  4.1266  0.3376  4.0053
  956MOL0     H29054   4.238  11.140   6.205 -0.5348  0.5589  0.6637
  956MOL0     H29055   4.335  10.989   6.194 -1.1242 -0.9168 -3.2332
  956MOL0     H29056   4.382  10.977   6.418  0.9446  0.7586  0.8549
  956MOL0     H29057   4.229  10.994   6.465  0.4818 -0.3984  0.1721
  956MOL0     H29058   4.395  11.390   6.503  0.2876  0.1777 -0.0193
  956MOL0     H29059   4.084  10.697   6.130 -0.7607  2.1884 -0.7246
  956MOL0     H29060   4.012  10.462   6.119  1.3725  1.4747  1.6343
  957MOL0     O29061   8.995   1.154  10.732 -0.2387 -0.5316  0.2506
  957MOL0     C29062   9.073   1.245  10.693  0.0411  0.8455 -0.1738
  957MOL0     O29063   9.201   1.232  10.658 -0.6631  0.3096  0.3944
  957MOL0     C29064   9.277   1.115  10.667  0.0238  0.5288 -0.3048
  957MOL0     C29065   9.256   1.008  10.761 -0.1636 -0.7402  0.5658
  957MOL0     C29066   9.335   0.897  10.757 -0.6562 -0.1570  0.0932
  957MOL0     C29067   9.451   0.895  10.678  0.0029  0.1065 -0.2065
  957MOL0     O29068   9.534   0.792  10.686 -0.6420  0.1379 -0.3749
  957MOL0     C29069   9.548   0.721  10.564 -0.5034 -0.0615 -0.1407
  957MOL0     C29070   9.638   0.612  10.623  0.3338  0.4585 -0.3927
  957MOL0     C29071   9.703   0.520  10.515 -1.2299  0.6841  0.0049
  957MOL0     C29072   9.600   0.429  10.453 -0.6726 -0.5423  0.8307
  957MOL0     C29073   9.530   0.334  10.552  0.7264  0.5555  0.0322
  957MOL0     C29074   9.465   0.224  10.487 -0.0405  0.2362 -0.6919
  957MOL0     C29075   9.430   0.115  10.589  0.8300 -0.5465 -0.1117
  957MOL0     C29076   9.305   0.027  10.534 -0.0621  0.1527 -0.4055
  957MOL0     N29077   9.218   0.007  10.648  0.5121  0.3285  0.1992
  957MOL0     C29078   9.256  -0.048  10.773 -0.4815 -1.0125  0.1240
  957MOL0     C29079   9.158  -0.027  10.860 -0.0384  0.7180  0.6091
  957MOL0     C29080   9.157  -0.056  11.019  0.9375 -1.0101 -0.4220
  957MOL0     C29081   9.104   0.062  11.108 -0.2681 -0.3041 -0.0982
  957MOL0     C29082   9.217   0.163  11.133  0.2275 -1.5216  0.1072
  957MOL0     C29083   9.156   0.291  11.200 -0.6352  0.0606 -0.5034
  957MOL0     O29084   9.105   0.276  11.325 -0.6727  0.1970 -0.8624
  957MOL0     C29085   9.042   0.392  11.363 -0.1433 -0.4217  0.0086
  957MOL0     C29086   9.096   0.523  11.367  0.4989 -0.8351  0.0236
  957MOL0     C29087   9.024   0.636  11.401  0.6017 -0.4591  0.4985
  957MOL0     C29088   9.101   0.767  11.411  0.3525  0.1413  0.2186
  957MOL0     C29089   8.881   0.618  11.436 -0.4304  0.5741  0.4266
  957MOL0     C29090   8.796   0.725  11.480  0.0961 -0.9383 -0.0054
  957MOL0     O29091   8.663   0.695  11.465 -0.2075 -0.3843  0.1013
  957MOL0     C29092   8.573   0.774  11.526  0.4263  0.3016 -1.1438
  957MOL0     C29093   8.503   0.863  11.449  0.1779 -0.4369 -0.5508
  957MOL0     C29094   8.418   0.959  11.502 -0.5418 -0.1199  0.2831
  957MOL0     C29095   8.414   0.969  11.645 -0.0738 -0.8217  0.3579
  957MOL0     O29096   8.346   1.069  11.704  0.5789 -0.0422  0.1349
  957MOL0     C29097   8.216   1.035  11.749 -0.8457  0.6524  0.7707
  957MOL0     C29098   8.159   1.160  11.815 -0.2393  0.3697  0.4414
  957MOL0     C29099   8.025   1.141  11.879 -0.5622  1.3821  0.1580
  957MOL0     C29100   8.008   1.224  12.006  1.1410 -0.7973  0.1501
  957MOL0     C29101   7.914   1.166  12.107  0.7869 -0.3980  0.6471
  957MOL0     C29102   7.772   1.141  12.059  0.0311 -0.8917 -0.7466
  957MOL0     C29103   7.687   1.265  12.042 -0.2928 -1.3475 -0.0401
  957MOL0     C29104   7.554   1.245  11.985  1.1343  0.3493  0.0332
  957MOL0    Cl29105   7.472   1.097  12.033  0.0225  0.5352 -0.0090
  957MOL0     C29106   8.479   0.874  11.725 -0.0158  0.1515  0.3531
  957MOL0     C29107   8.550   0.778  11.662  0.4383  0.4532 -0.0629
  957MOL0     O29108   8.842   0.821  11.546  0.4037 -0.4014 -0.2954
  957MOL0     C29109   8.831   0.486  11.431  0.8680 -0.4569 -0.2335
  957MOL0     C29110   8.908   0.371  11.393 -0.5793  0.9508  0.3561
  957MOL0     N29111   9.058   0.034  10.792  0.9604 -0.4632  0.2918
  957MOL0     N29112   9.096   0.058  10.673 -0.0084 -0.6580  0.4387
  957MOL0     C29113   9.469   0.999  10.590 -1.0890 -0.1771  0.5124
  957MOL0     C29114   9.390   1.112  10.587 -0.2084 -0.3498  0.6035
  957MOL0     C29115   9.009   1.378  10.675  0.3737 -0.3661 -0.6329
  957MOL0     C29116   8.879   1.397  10.632 -0.7015  0.3811 -0.2910
  957MOL0     C29117   8.824   1.523  10.620 -0.5633 -0.8360  0.1192
  957MOL0     C29118   8.906   1.636  10.641  0.4136 -0.3684 -0.0739
  957MOL0     O29119   8.844   1.756  10.636 -0.4271 -0.6530 -0.2890
  957MOL0     C29120   8.917   1.875  10.607  0.7611  0.0054  0.0446
  957MOL0     C29121   8.814   1.989  10.619  1.3671 -1.0810 -0.4281
  957MOL0     C29122   8.731   1.981  10.750 -0.2872 -0.1055 -0.5673
  957MOL0     C29123   8.811   1.955  10.876  0.0280 -0.2382  0.4270
  957MOL0     C29124   8.737   1.994  10.988  0.2454 -0.1689  0.3883
  957MOL0     C29125   8.679   2.030  11.089  0.4360 -0.1503  0.0839
  957MOL0     C29126   9.039   1.616  10.669  0.2226 -0.9918  0.5485
  957MOL0     C29127   9.096   1.489  10.698 -0.0210  0.4505  0.4947
  957MOL0     H29128   9.182   1.019  10.840 -1.8752  5.4121 -1.3036
  957MOL0     H29129   9.313   0.809  10.817 -0.4264 -0.4381 -0.2312
  957MOL0     H29130   9.448   0.694  10.528 -1.1589  2.0741 -0.0381
  957MOL0     H29131   9.597   0.774  10.482  0.6491  3.5215  2.6031
  957MOL0     H29132   9.720   0.662  10.676 -1.0702  0.4731  1.9131
  957MOL0     H29133   9.580   0.554  10.696  2.1243 -1.5172 -0.4265
  957MOL0     H29134   9.751   0.579  10.437  0.5386  1.2132  1.4300
  957MOL0     H29135   9.776   0.455  10.564 -3.3769 -1.7310  0.2292
  957MOL0     H29136   9.532   0.498  10.401  1.3497  1.6106  0.8553
  957MOL0     H29137   9.659   0.378  10.376 -0.5649 -0.2067  0.6881
  957MOL0     H29138   9.606   0.295  10.621  1.2137  3.1890  1.1160
  957MOL0     H29139   9.450   0.379  10.612 -1.7144 -0.9733 -1.9071
  957MOL0     H29140   9.374   0.260  10.438 -0.6081  0.4297  0.4645
  957MOL0     H29141   9.528   0.181  10.409  0.3602 -0.8807  0.2240
  957MOL0     H29142   9.513   0.046  10.609  0.3769 -0.4588  2.4164
  957MOL0     H29143   9.402   0.163  10.683  2.2902  1.9769 -0.8610
  957MOL0     H29144   9.336  -0.071  10.497 -1.3041 -0.3062 -0.2776
  957MOL0     H29145   9.241   0.060  10.452 -1.0556 -2.4902 -0.7900
  957MOL0     H29146   9.354  -0.087  10.802 -0.3256 -0.4009  0.4460
  957MOL0     H29147   9.089  -0.142  11.030  0.5622 -0.7301 -0.5510
  957MOL0     H29148   9.258  -0.084  11.050  0.5573 -1.3143  0.5946
  957MOL0     H29149   9.067   0.015  11.199 -0.3254  0.4672  0.2886
  957MOL0     H29150   9.021   0.118  11.062  1.5236 -0.7256 -4.3376
  957MOL0     H29151   9.261   0.186  11.036  0.4039  0.6458  0.6346
  957MOL0     H29152   9.294   0.122  11.199 -0.0331 -0.4658  1.1029
  957MOL0     H29153   9.072   0.334  11.145  0.4101  1.1051 -1.3619
  957MOL0     H29154   9.244   0.355  11.208  0.4937 -1.6046  1.0866
  957MOL0     H29155   9.202   0.547  11.360  0.1372  1.1963  0.8407
  957MOL0     H29156   9.174   0.764  11.329  0.4147  3.9900 -0.0360
  957MOL0     H29157   9.033   0.850  11.390  1.7535  1.2741 -0.0151
  957MOL0     H29158   9.155   0.784  11.505  1.2993 -0.2592 -0.2389
  957MOL0     H29159   8.502   0.847  11.342 -0.7065  1.6237 -0.8884
  957MOL0     H29160   8.347   1.023  11.450  1.9443  1.4542 -1.3295
  957MOL0     H29161   8.151   0.999  11.669 -0.5261 -0.4981  1.0067
  957MOL0     H29162   8.231   0.959  11.827 -2.7504  0.6415  1.1778
  957MOL0     H29163   8.235   1.196  11.885  0.6727 -1.6130  0.5436
  957MOL0     H29164   8.140   1.236  11.739  1.0757  0.9842  0.7015
  957MOL0     H29165   8.013   1.033  11.893  0.7800  1.3233  1.1132
  957MOL0     H29166   7.942   1.159  11.811 -0.1121  1.4523 -0.3824
  957MOL0     H29167   8.107   1.233  12.053  1.5865 -2.7240 -0.3410
  957MOL0     H29168   7.972   1.325  11.986  1.9238  0.0433  2.5973
  957MOL0     H29169   7.902   1.238  12.189  0.8007 -0.6756  0.8928
  957MOL0     H29170   7.955   1.073  12.148  0.6604 -0.3359  0.9135
  957MOL0     H29171   7.773   1.095  11.959  1.3130 -4.3716  0.7215
  957MOL0     H29172   7.732   1.062  12.123 -2.7828 -1.0208 -2.5157
  957MOL0     H29173   7.725   1.350  11.984  1.1034  1.3473  4.3721
  957MOL0     H29174   7.678   1.301  12.144  0.7332 -1.2570  0.0338
  957MOL0     H29175   7.577   1.238  11.878 -0.0691  0.2337 -0.2281
  957MOL0     H29176   7.487   1.331  11.988  0.1488 -0.3963 -0.2032
  957MOL0     H29177   8.495   0.879  11.832  0.8529 -1.1164  0.3088
  957MOL0     H29178   8.591   0.697  11.721  0.6571 -0.7578 -1.8008
  957MOL0     H29179   8.727   0.460  11.449  1.1865 -2.2208 -0.7067
  957MOL0     H29180   8.861   0.274  11.388 -1.7961  1.5713 -1.2959
  957MOL0     H29181   9.545   0.979  10.515  0.9359  0.9255  2.1815
  957MOL0     H29182   9.404   1.195  10.519  1.8290 -1.4755 -0.4227
  957MOL0     H29183   8.809   1.314  10.629 -1.1500  0.2361  4.9564
  957MOL0     H29184   8.722   1.536  10.587 -0.6763  0.1273  0.8028
  957MOL0     H29185   8.999   1.883  10.680  0.1660 -2.4032  1.0645
  957MOL0     H29186   8.974   1.857  10.515  0.1871 -1.4704 -0.0417
  957MOL0     H29187   8.739   1.976  10.540  0.1988 -1.0753  0.6498
  957MOL0     H29188   8.863   2.087  10.618  1.5133 -1.1547 -0.7415
  957MOL0     H29189   8.649   1.909  10.745 -1.1648  0.9775 -2.9096
  957MOL0     H29190   8.677   2.075  10.764 -0.2638 -0.3647  1.7034
  957MOL0     H29191   8.906   2.009  10.876  0.4389 -0.9159  2.0461
  957MOL0     H29192   8.827   1.847  10.883 -0.0215 -0.3134 -0.4608
  957MOL0     H29193   8.621   2.066  11.171  0.7979 -0.6578  0.5672
  957MOL0     H29194   9.097   1.706  10.686  0.4820 -1.0380 -0.0656
  957MOL0     H29195   9.198   1.483  10.735  1.2427  5.0595 -1.4789
  958MOL0     O29196   4.306   5.653   3.141 -0.4460  0.2380  0.0433
  958MOL0     C29197   4.325   5.556   3.069 -0.3804 -0.0735  0.5090
  958MOL0     O29198   4.425   5.462   3.090 -0.2994  0.2447  0.2787
  958MOL0     C29199   4.494   5.466   3.210 -0.9184 -0.6873 -0.7344
  958MOL0     C29200   4.436   5.459   3.334  0.8977  0.1685  0.0113
  958MOL0     C29201   4.503   5.486   3.452  0.1725  1.1316  0.9175
  958MOL0     C29202   4.642   5.510   3.448 -0.4715  0.9910 -1.1035
  958MOL0     O29203   4.722   5.527   3.570 -0.2020  0.0040  0.1138
  958MOL0     C29204   4.675   5.613   3.674  0.6487  0.0392 -0.3794
  958MOL0     C29205   4.795   5.635   3.767 -0.1739 -0.8455 -0.5430
  958MOL0     C29206   4.777   5.712   3.886 -0.4555 -0.0853 -1.0980
  958MOL0     C29207   4.750   5.865   3.851 -0.2497 -0.0613  0.6925
  958MOL0     C29208   4.874   5.935   3.793 -0.0540  0.2369  0.4853
  958MOL0     C29209   4.858   6.091   3.776 -0.3466 -0.5556  0.1457
  958MOL0     C29210   4.980   6.151   3.709  0.4388 -0.0182  0.2555
  958MOL0     C29211   4.959   6.305   3.714  0.5089  0.3728 -0.1195
  958MOL0     N29212   5.084   6.372   3.657 -0.2265  0.5711  0.0030
  958MOL0     C29213   5.119   6.404   3.528  0.4169  0.0187  0.7014
  958MOL0     C29214   5.243   6.455   3.538 -0.1749  0.4468 -0.7837
  958MOL0     C29215   5.327   6.520   3.424 -0.2797  1.0881  0.0877
  958MOL0     C29216   5.316   6.449   3.284 -0.5053  0.5485 -0.0570
  958MOL0     C29217   5.378   6.517   3.168 -0.6130 -0.6538 -0.2018
  958MOL0     C29218   5.530   6.501   3.173 -0.0479 -1.0604 -0.2582
  958MOL0     O29219   5.568   6.379   3.121 -0.1360  0.9399 -0.6507
  958MOL0     C29220   5.706   6.368   3.102  0.5457  0.6954  0.8335
  958MOL0     C29221   5.768   6.431   2.996  0.2236  0.7539 -0.2051
  958MOL0     C29222   5.914   6.426   2.981  0.7645 -0.7130  0.1305
  958MOL0     C29223   5.962   6.498   2.858 -0.8089 -0.1890 -0.0819
  958MOL0     C29224   5.992   6.345   3.062 -0.8357  0.4131 -0.4636
  958MOL0     C29225   6.133   6.303   3.035  0.4521 -0.5044  0.0092
  958MOL0     O29226   6.210   6.304   3.153  0.0079  0.3784  0.6603
  958MOL0     C29227   6.345   6.289   3.153  0.2070  0.3586 -0.7793
  958MOL0     C29228   6.396   6.194   3.240 -1.4267  0.1983 -0.2050
  958MOL0     C29229   6.529   6.145   3.222 -0.2047 -1.4264  0.5201
  958MOL0     C29230   6.624   6.214   3.137  0.5519 -0.7312 -0.3034
  958MOL0     O29231   6.750   6.159   3.147  0.0954  0.1871 -0.2402
  958MOL0     C29232   6.864   6.229   3.082  0.3698 -0.2961 -0.5025
  958MOL0     C29233   6.998   6.182   3.122  0.3765 -0.1589  0.3131
  958MOL0     C29234   7.015   6.029   3.099  0.2756  0.1542 -0.1086
  958MOL0     C29235   7.160   5.998   3.145 -0.5608 -0.2943 -0.0254
  958MOL0     C29236   7.192   5.853   3.150 -0.2012 -0.0679  0.3116
  958MOL0     C29237   7.340   5.813   3.192 -0.1809 -0.9657 -0.0839
  958MOL0     C29238   7.348   5.663   3.210  0.9816  1.1401  0.1301
  958MOL0     C29239   7.257   5.612   3.325  0.4867  0.2274 -0.2660
  958MOL0    Cl29240   7.331   5.477   3.424  0.3669  0.7209  0.0802
  958MOL0     C29241   6.573   6.325   3.065 -0.2582  0.7223 -0.0682
  958MOL0     C29242   6.436   6.354   3.072  0.3599 -0.9616  1.2165
  958MOL0     O29243   6.174   6.289   2.921  0.0656 -0.4478 -0.5867
  958MOL0     C29244   5.918   6.277   3.164  0.0257  0.3979 -0.5175
  958MOL0     C29245   5.776   6.290   3.181 -0.4880  0.1703 -1.4162
  958MOL0     N29246   5.292   6.449   3.667  1.0963 -0.0905  0.2697
  958MOL0     N29247   5.195   6.410   3.735 -0.3998  0.4364 -0.0555
  958MOL0     C29248   4.709   5.501   3.323  0.0394  0.4429 -0.1256
  958MOL0     C29249   4.632   5.479   3.208  0.5176  0.1412 -0.0043
  958MOL0     C29250   4.231   5.537   2.948 -0.2616  0.1763  0.7944
  958MOL0     C29251   4.108   5.607   2.933  0.5142  0.3279 -0.1627
  958MOL0     C29252   4.026   5.577   2.822  0.3017  1.0065  0.0697
  958MOL0     C29253   4.069   5.505   2.709 -0.5404  0.4984  0.0108
  958MOL0     O29254   3.973   5.489   2.607  0.8466 -0.0188 -0.1182
  958MOL0     C29255   4.012   5.411   2.489  0.2104  0.1460  0.6484
  958MOL0     C29256   3.934   5.454   2.370 -0.0131  0.0005  0.2094
  958MOL0     C29257   3.776   5.437   2.387 -0.0039  0.5599 -0.3817
  958MOL0     C29258   3.705   5.500   2.272  0.2459 -0.3511 -0.9718
  958MOL0     C29259   3.758   5.450   2.140  0.3073 -0.8514  0.2081
  958MOL0     C29260   3.790   5.405   2.032  1.1856 -0.2179 -0.4313
  958MOL0     C29261   4.193   5.442   2.717 -0.2723 -0.1730 -0.2885
  958MOL0     C29262   4.273   5.457   2.834 -0.0756 -0.4750 -0.8913
  958MOL0     H29263   4.329   5.443   3.333  1.1233 -1.4846 -0.8006
  958MOL0     H29264   4.460   5.471   3.551  2.7358  1.0393  2.0960
  958MOL0     H29265   4.612   5.689   3.629 -3.9117 -2.3170  1.3855
  958MOL0     H29266   4.609   5.552   3.736  2.0688 -1.4433 -0.2541
  958MOL0     H29267   4.840   5.538   3.792  2.9867  0.2282 -1.5071
  958MOL0     H29268   4.872   5.691   3.713 -0.3426  2.2706  2.1798
  958MOL0     H29269   4.692   5.676   3.946 -0.2818  1.6865  0.2899
  958MOL0     H29270   4.858   5.695   3.957 -1.4795 -3.1482 -0.4862
  958MOL0     H29271   4.668   5.874   3.778  2.3060 -2.8587 -2.8864
  958MOL0     H29272   4.726   5.905   3.950  0.9009 -3.9074  2.7614
  958MOL0     H29273   4.962   5.896   3.845 -0.3354 -1.6382 -0.3828
  958MOL0     H29274   4.874   5.907   3.688  1.4252  2.4030 -0.1582
  958MOL0     H29275   4.767   6.118   3.722 -0.0177  0.0904 -0.1016
  958MOL0     H29276   4.844   6.142   3.872 -2.3510 -0.3276 -0.2258
  958MOL0     H29277   5.075   6.119   3.752  0.1865 -0.2700  0.6234
  958MOL0     H29278   4.974   6.116   3.606  0.7922 -1.4663  0.7112
  958MOL0     H29279   4.927   6.334   3.815 -2.0599  0.7841 -0.9818
  958MOL0     H29280   4.873   6.334   3.653  1.2530  2.3129 -0.3105
  958MOL0     H29281   5.062   6.381   3.439 -0.7617  0.9465  1.1801
  958MOL0     H29282   5.306   6.626   3.412 -2.2251  0.5994 -1.3363
  958MOL0     H29283   5.435   6.517   3.444  0.1050 -0.2538 -1.8574
  958MOL0     H29284   5.209   6.447   3.259 -0.9306  0.6186  1.6039
  958MOL0     H29285   5.366   6.352   3.297 -1.5558 -0.2252 -1.5453
  958MOL0     H29286   5.352   6.623   3.162 -1.3175 -0.8797 -1.9463
  958MOL0     H29287   5.341   6.464   3.079 -3.5733  2.6676 -1.1967
  958MOL0     H29288   5.563   6.517   3.276  0.8486 -0.4348 -0.6342
  958MOL0     H29289   5.581   6.580   3.117 -1.6232  1.0919  1.1680
  958MOL0     H29290   5.694   6.482   2.936 -0.3509 -0.8483 -0.9016
  958MOL0     H29291   6.050   6.560   2.876  0.8101 -1.5741 -2.6308
  958MOL0     H29292   5.982   6.438   2.769 -0.9318  0.5288 -0.6057
  958MOL0     H29293   5.891   6.574   2.823  0.3916 -0.2625 -2.9453
  958MOL0     H29294   6.344   6.139   3.318 -1.1736 -0.0573 -0.2133
  958MOL0     H29295   6.568   6.062   3.281  4.5308 -1.5771 -2.2931
  958MOL0     H29296   6.863   6.222   2.973  0.2501  3.6638 -0.8845
  958MOL0     H29297   6.853   6.334   3.112 -2.1745 -0.9024  0.9971
  958MOL0     H29298   7.075   6.248   3.079  0.1547 -0.4791 -0.6127
  958MOL0     H29299   7.015   6.208   3.226 -0.7500  1.5346  0.1229
  958MOL0     H29300   7.001   6.013   2.992 -3.7070  2.7332 -0.1895
  958MOL0     H29301   6.940   5.976   3.157  1.1656 -2.5811 -1.3180
  958MOL0     H29302   7.233   6.050   3.083 -0.9160 -0.8023 -0.8897
  958MOL0     H29303   7.170   6.025   3.250 -0.5198  0.0600 -0.1184
  958MOL0     H29304   7.175   5.814   3.049 -0.7662  0.1228  0.3283
  958MOL0     H29305   7.111   5.817   3.215 -1.1852 -1.0659 -1.3958
  958MOL0     H29306   7.410   5.846   3.115 -2.2159  2.9867 -0.5014
  958MOL0     H29307   7.370   5.858   3.287 -0.1139 -0.4140 -0.3603
  958MOL0     H29308   7.443   5.622   3.246 -0.8603 -1.6997  2.2525
  958MOL0     H29309   7.322   5.606   3.120  0.5142  0.8634  0.4355
  958MOL0     H29310   7.165   5.561   3.293 -0.1439 -0.2064  2.0709
  958MOL0     H29311   7.213   5.694   3.384  0.9551  0.8154 -0.7187
  958MOL0     H29312   6.633   6.384   2.996 -0.6391  3.1990  1.5977
  958MOL0     H29313   6.382   6.431   3.018 -2.0246 -4.6728 -2.2685
  958MOL0     H29314   5.974   6.202   3.218  1.0223  2.0216  0.8252
  958MOL0     H29315   5.713   6.238   3.252 -1.0797  0.2916 -1.8438
  958MOL0     H29316   4.815   5.522   3.331 -0.1180  0.8936  0.9461
  958MOL0     H29317   4.684   5.478   3.112  3.5048 -1.9407  1.4728
  958MOL0     H29318   4.066   5.661   3.017 -3.6781 -1.6663 -0.6918
  958MOL0     H29319   3.926   5.618   2.829 -0.3041 -0.4029  0.0016
  958MOL0     H29320   4.119   5.427   2.469  0.1518 -1.7373 -1.7451
  958MOL0     H29321   4.010   5.305   2.515 -1.0296 -0.8332 -2.7982
  958MOL0     H29322   3.969   5.395   2.285  2.0321  2.1449 -0.5704
  958MOL0     H29323   3.947   5.558   2.337  1.0042 -0.1138  0.2155
  958MOL0     H29324   3.738   5.491   2.474 -1.7380  0.7623 -1.2277
  958MOL0     H29325   3.753   5.330   2.392  0.8977  0.3598 -0.2865
  958MOL0     H29326   3.726   5.607   2.277 -0.6816 -0.1101 -1.7305
  958MOL0     H29327   3.599   5.474   2.263  0.2844 -0.6754 -0.4933
  958MOL0     H29328   3.802   5.356   1.937  0.3163  1.7290 -1.6163
  958MOL0     H29329   4.218   5.362   2.649  0.7905 -1.0609  1.1131
  958MOL0     H29330   4.364   5.397   2.838  1.8844  2.3666 -0.3051
  959MOL0     O29331   0.166   7.302   5.111  0.8435  0.4710 -0.9169
  959MOL0     C29332   0.131   7.224   5.016 -0.3488 -0.1342 -0.2170
  959MOL0     O29333   0.011   7.152   5.000  0.0612 -0.7938 -0.1154
  959MOL0     C29334  -0.093   7.177   5.082 -0.3097 -0.0889  0.4745
  959MOL0     C29335  -0.184   7.077   5.104  0.2844 -0.0457 -0.0437
  959MOL0     C29336  -0.297   7.103   5.189 -0.1627  0.0101 -0.0101
  959MOL0     C29337  -0.323   7.237   5.238  0.0111  0.5198  0.0721
  959MOL0     O29338  -0.421   7.278   5.328 -0.4490  0.3115 -0.3522
  959MOL0     C29339  -0.509   7.186   5.389  0.7000 -0.0088 -0.8274
  959MOL0     C29340  -0.595   7.270   5.485 -0.4351  0.8907  0.1747
  959MOL0     C29341  -0.621   7.209   5.623  0.6876 -0.9473 -0.5281
  959MOL0     C29342  -0.747   7.254   5.687  0.6485 -0.5416  0.9697
  959MOL0     C29343  -0.809   7.152   5.781 -0.4523 -0.1231 -0.1624
  959MOL0     C29344  -0.740   7.141   5.924  1.0916 -1.3600 -0.4646
  959MOL0     C29345  -0.767   7.004   5.989 -0.2189 -0.5624 -0.0333
  959MOL0     C29346  -0.744   6.879   5.909 -1.1945  0.5864  0.3162
  959MOL0     N29347  -0.737   6.758   5.989 -0.1575 -1.0001  0.2779
  959MOL0     C29348  -0.644   6.742   6.088 -0.3588 -1.0211  0.3479
  959MOL0     C29349  -0.691   6.633   6.149 -0.2364 -0.3712  0.1525
  959MOL0     C29350  -0.633   6.602   6.282  0.1142  0.2840  0.5029
  959MOL0     C29351  -0.702   6.682   6.393 -0.4820 -0.8192 -0.1947
  959MOL0     C29352  -0.676   6.607   6.527  0.1230  0.0518 -0.6018
  959MOL0     C29353  -0.766   6.657   6.649 -0.0781  1.2049 -0.0406
  959MOL0     O29354  -0.677   6.728   6.734 -0.0748  0.2176  0.6628
  959MOL0     C29355  -0.739   6.821   6.817  0.2564 -0.4654  0.3537
  959MOL0     C29356  -0.790   6.937   6.763  0.0677  0.2333 -0.9771
  959MOL0     C29357  -0.844   7.038   6.848 -1.0880 -0.9390 -0.4608
  959MOL0     C29358  -0.888   7.159   6.778 -0.2405  0.1214  0.3474
  959MOL0     C29359  -0.858   7.016   6.990  0.3903  0.2668 -0.1799
  959MOL0     C29360  -0.930   7.109   7.081 -0.4449  0.8174 -0.2543
  959MOL0     O29361  -1.040   7.181   7.025 -0.6600  0.2298  0.2168
  959MOL0     C29362  -1.097   7.295   7.077 -0.2857 -0.7956 -0.3479
  959MOL0     C29363  -1.022   7.373   7.173  0.4901 -0.3879  0.0214
  959MOL0     C29364  -1.088   7.473   7.242 -0.1183 -1.0902  0.5692
  959MOL0     C29365  -1.227   7.508   7.210 -0.4633 -0.6414 -0.5269
  959MOL0     O29366  -1.289   7.608   7.276  0.9123  0.4993 -0.3497
  959MOL0     C29367  -1.406   7.671   7.231 -0.4711  0.3462  0.0834
  959MOL0     C29368  -1.446   7.764   7.352 -0.3540 -0.0456 -0.2351
  959MOL0     C29369  -1.586   7.820   7.335  0.4433  0.8067  0.0309
  959MOL0     C29370  -1.649   7.875   7.459 -0.0780 -1.1663  0.2945
  959MOL0     C29371  -1.761   7.966   7.414 -0.1226  0.0325 -0.5552
  959MOL0     C29372  -1.852   8.015   7.527  0.1392 -0.0149 -0.2557
  959MOL0     C29373  -1.999   8.041   7.484 -0.5487  0.5415 -0.0589
  959MOL0     C29374  -2.068   8.160   7.537  0.8251 -0.7563 -0.1826
  959MOL0    Cl29375  -2.038   8.308   7.448  0.0113 -0.0392  0.0098
  959MOL0     C29376  -1.298   7.433   7.112 -0.3178 -0.1667 -1.4140
  959MOL0     C29377  -1.229   7.328   7.052  0.1947 -0.4604  0.3001
  959MOL0     O29378  -0.903   7.104   7.203  0.2084 -0.2432 -0.3882
  959MOL0     C29379  -0.810   6.892   7.038 -0.8109 -0.2238 -0.6634
  959MOL0     C29380  -0.735   6.805   6.953  0.7618 -0.1214 -0.0763
  959MOL0     N29381  -0.801   6.579   6.088  0.0422  0.8026  1.0118
  959MOL0     N29382  -0.828   6.663   5.995 -0.0986  0.7605 -0.5506
  959MOL0     C29383  -0.238   7.339   5.193  0.4659  0.8854 -0.4669
  959MOL0     C29384  -0.125   7.306   5.124 -1.2196  0.9746  0.1242
  959MOL0     C29385   0.227   7.199   4.917 -0.6079 -0.3484 -0.5211
  959MOL0     C29386   0.203   7.118   4.803 -0.2056 -0.1112 -0.5470
  959MOL0     C29387   0.302   7.102   4.708  0.6570 -0.2594  0.0155
  959MOL0     C29388   0.433   7.163   4.716 -0.4413 -0.7421 -0.4869
  959MOL0     O29389   0.530   7.150   4.623  0.2981  0.1302 -0.9983
  959MOL0     C29390   0.665   7.144   4.661  0.2180  0.1784 -0.2497
  959MOL0     C29391   0.695   7.026   4.756 -0.7007 -1.0605 -0.2655
  959MOL0     C29392   0.688   6.895   4.682  0.7259  0.9552  0.0457
  959MOL0     C29393   0.795   6.797   4.711 -0.5690  0.1103 -0.3036
  959MOL0     C29394   0.829   6.718   4.590 -1.2827  0.2692  0.1418
  959MOL0     C29395   0.874   6.647   4.502  1.1124  0.9870  0.7356
  959MOL0     C29396   0.457   7.238   4.832 -0.6063 -0.1461  0.1777
  959MOL0     C29397   0.359   7.254   4.930  1.3392 -0.2756  0.5279
  959MOL0     H29398  -0.175   6.979   5.060 -0.2770  0.9675 -2.5958
  959MOL0     H29399  -0.366   7.021   5.203 -1.2912  0.4747 -2.2523
  959MOL0     H29400  -0.583   7.139   5.323 -0.7227  0.3386  0.4560
  959MOL0     H29401  -0.446   7.122   5.452  2.8133  2.1649 -0.5721
  959MOL0     H29402  -0.552   7.369   5.497  2.3937 -0.3917  1.4039
  959MOL0     H29403  -0.696   7.271   5.443 -0.2280 -1.5921 -0.5753
  959MOL0     H29404  -0.614   7.101   5.604 -0.1810 -0.9802 -0.7016
  959MOL0     H29405  -0.541   7.235   5.692  1.4930 -1.5985 -1.1926
  959MOL0     H29406  -0.727   7.349   5.736 -0.8152  0.8725 -0.9842
  959MOL0     H29407  -0.829   7.287   5.621  0.8400  2.3866  2.0535
  959MOL0     H29408  -0.915   7.177   5.794 -0.2678  0.7944 -0.3580
  959MOL0     H29409  -0.815   7.055   5.732  2.3033  0.9504 -2.9934
  959MOL0     H29410  -0.632   7.159   5.920  1.0923 -0.9059  0.8748
  959MOL0     H29411  -0.787   7.222   5.981  0.4795 -0.2114 -2.4947
  959MOL0     H29412  -0.704   7.001   6.078 -1.6444  2.3345  1.2082
  959MOL0     H29413  -0.870   7.011   6.025 -1.4186  1.2782 -3.3449
  959MOL0     H29414  -0.647   6.897   5.862 -0.2843 -3.4536  0.2623
  959MOL0     H29415  -0.821   6.871   5.832 -0.6789  2.0270 -0.3829
  959MOL0     H29416  -0.566   6.810   6.119 -0.4874 -0.0637 -1.3175
  959MOL0     H29417  -0.642   6.495   6.306 -0.2454  0.1670 -0.1222
  959MOL0     H29418  -0.527   6.627   6.279  0.2472 -0.3104 -0.0088
  959MOL0     H29419  -0.809   6.683   6.371 -0.3826 -3.0738 -1.1075
  959MOL0     H29420  -0.649   6.777   6.396  0.3808 -1.1201 -3.2157
  959MOL0     H29421  -0.569   6.619   6.550 -0.2029  3.5438 -0.4960
  959MOL0     H29422  -0.707   6.502   6.523  1.9864 -0.7380  2.1815
  959MOL0     H29423  -0.794   6.568   6.706  1.8064 -2.3625 -4.1741
  959MOL0     H29424  -0.858   6.706   6.614 -2.0096 -1.6158  0.7886
  959MOL0     H29425  -0.779   6.936   6.655 -3.3534 -1.4165 -1.4622
  959MOL0     H29426  -0.997   7.167   6.777 -0.1828  1.0087  0.0903
  959MOL0     H29427  -0.836   7.244   6.824  0.1393 -0.7609  1.6015
  959MOL0     H29428  -0.852   7.158   6.675 -0.5869  2.5236  0.1463
  959MOL0     H29429  -0.915   7.366   7.189  0.7513  1.3523 -0.7699
  959MOL0     H29430  -1.019   7.540   7.292  0.1182 -2.6737  2.4371
  959MOL0     H29431  -1.391   7.734   7.143 -1.0797 -0.0819 -0.3381
  959MOL0     H29432  -1.491   7.602   7.218 -1.0069  0.8871  0.6657
  959MOL0     H29433  -1.445   7.700   7.441 -0.1218  0.7625  0.3553
  959MOL0     H29434  -1.370   7.842   7.355  1.6933 -1.8315 -1.9058
  959MOL0     H29435  -1.656   7.749   7.290 -0.7130  2.7473 -1.3923
  959MOL0     H29436  -1.575   7.899   7.260 -0.9346 -0.6695 -1.8278
  959MOL0     H29437  -1.696   7.798   7.521 -1.9242 -1.3256 -1.2203
  959MOL0     H29438  -1.577   7.933   7.517 -0.2112  0.5904 -1.2131
  959MOL0     H29439  -1.820   7.918   7.336 -0.1439 -1.3956  0.3117
  959MOL0     H29440  -1.716   8.044   7.353  3.2090 -2.3748 -1.4713
  959MOL0     H29441  -1.847   7.936   7.602  2.7084 -0.7578 -1.1106
  959MOL0     H29442  -1.797   8.104   7.561  0.3704 -0.1277 -0.3354
  959MOL0     H29443  -2.049   7.944   7.496 -0.2923  0.1898 -1.5988
  959MOL0     H29444  -1.988   8.058   7.376  1.7726 -1.7836 -0.2792
  959MOL0     H29445  -2.054   8.186   7.642 -1.3562 -0.4294  0.0666
  959MOL0     H29446  -2.175   8.140   7.536  0.9587 -1.4853 -1.3932
  959MOL0     H29447  -1.405   7.444   7.099 -0.2686  3.0798  0.1629
  959MOL0     H29448  -1.267   7.261   6.976  2.2757 -1.9821  0.5233
  959MOL0     H29449  -0.818   6.859   7.141  1.1138 -1.1014 -0.7533
  959MOL0     H29450  -0.702   6.709   6.990 -0.0046 -0.6530 -0.7493
  959MOL0     H29451  -0.259   7.445   5.208 -0.5265  0.3668  2.2674
  959MOL0     H29452  -0.063   7.393   5.101 -1.1788  0.7221 -0.7835
  959MOL0     H29453   0.108   7.067   4.788 -0.2069 -0.1824 -0.3097
  959MOL0     H29454   0.280   7.039   4.622 -2.5353 -1.5166  1.6157
  959MOL0     H29455   0.726   7.148   4.570 -1.9646 -0.7017 -1.8290
  959MOL0     H29456   0.684   7.237   4.716 -3.4978  0.8310  0.1751
  959MOL0     H29457   0.633   7.032   4.846 -2.1803 -1.5391 -1.2233
  959MOL0     H29458   0.801   7.028   4.784 -0.0909 -1.5747 -2.3623
  959MOL0     H29459   0.692   6.910   4.574  1.3781 -0.3196 -0.1292
  959MOL0     H29460   0.590   6.849   4.698  1.1100 -1.5751 -3.6523
  959MOL0     H29461   0.755   6.734   4.792 -2.4688  2.7561  0.9708
  959MOL0     H29462   0.888   6.853   4.723 -2.0402  2.3808  1.1658
  959MOL0     H29463   0.918   6.579   4.431 -1.5936  0.4216 -0.5357
  959MOL0     H29464   0.553   7.287   4.849 -0.0028 -0.8620 -0.9959
  959MOL0     H29465   0.382   7.329   5.005  1.0258  1.2004 -0.7931
  960MOL0     O29466   5.294   7.274   2.174 -0.2857 -0.5891 -0.8317
  960MOL0     C29467   5.195   7.341   2.200 -0.0258  0.3311 -0.4856
  960MOL0     O29468   5.193   7.472   2.229  0.4221 -0.1062 -0.7744
  960MOL0     C29469   5.305   7.548   2.223 -1.0873  0.2217 -0.0296
  960MOL0     C29470   5.366   7.581   2.342  0.4212 -0.0208  0.3026
  960MOL0     C29471   5.496   7.637   2.345  0.6402 -0.5415 -0.7895
  960MOL0     C29472   5.565   7.679   2.234  1.3551 -0.0629  0.2900
  960MOL0     O29473   5.681   7.740   2.249 -0.4523 -1.0400  0.5663
  960MOL0     C29474   5.766   7.725   2.134 -0.4254  0.3294 -0.0388
  960MOL0     C29475   5.903   7.775   2.164 -0.6500  0.2169 -0.8075
  960MOL0     C29476   5.983   7.685   2.257  0.0952  0.0971  0.9171
  960MOL0     C29477   6.135   7.720   2.271 -0.2148  1.0243 -0.0960
  960MOL0     C29478   6.208   7.678   2.406  0.8426  0.5488  0.2438
  960MOL0     C29479   6.205   7.523   2.420  0.2454  0.2355 -0.0240
  960MOL0     C29480   6.324   7.475   2.495  0.3929 -0.6772 -0.5944
  960MOL0     C29481   6.324   7.495   2.645 -0.0687  0.5797 -0.3198
  960MOL0     N29482   6.450   7.436   2.703 -0.0268 -0.2374 -0.3087
  960MOL0     C29483   6.562   7.494   2.755  0.6461  0.5178  0.8799
  960MOL0     C29484   6.638   7.390   2.804 -0.7019 -0.0744  0.0502
  960MOL0     C29485   6.768   7.413   2.880 -0.1196  0.0511  0.1905
  960MOL0     C29486   6.874   7.474   2.785  0.2992  0.6737  0.1770
  960MOL0     C29487   7.010   7.465   2.870  0.8252 -0.0415 -0.0136
  960MOL0     C29488   7.097   7.348   2.806  0.4809  0.5001  0.4148
  960MOL0     O29489   7.111   7.374   2.663 -0.1945  0.2850 -0.5892
  960MOL0     C29490   7.184   7.284   2.586  0.4211 -1.2486  1.0387
  960MOL0     C29491   7.246   7.160   2.622  0.6865 -0.2543  0.5053
  960MOL0     C29492   7.277   7.065   2.530 -0.5384  0.3542  0.5729
  960MOL0     C29493   7.325   6.935   2.576  0.0891 -0.2710  0.4150
  960MOL0     C29494   7.266   7.102   2.398 -0.5186  0.2549 -1.1910
  960MOL0     C29495   7.296   7.005   2.283 -0.3768  0.1303 -1.0238
  960MOL0     O29496   7.299   7.063   2.158  0.0494  0.5534  0.7956
  960MOL0     C29497   7.306   6.973   2.056 -0.5298 -1.4109  0.4424
  960MOL0     C29498   7.185   6.946   1.989 -0.2123  0.3925 -1.0579
  960MOL0     C29499   7.188   6.873   1.876  0.8110 -0.0216  0.3568
  960MOL0     C29500   7.312   6.821   1.822 -0.1132  0.1262  0.0428
  960MOL0     O29501   7.324   6.743   1.711  0.4823  0.4683  0.6913
  960MOL0     C29502   7.274   6.808   1.592 -0.1014 -0.1153  0.1158
  960MOL0     C29503   7.248   6.698   1.487 -0.2340  0.6936  0.0584
  960MOL0     C29504   7.182   6.742   1.359  0.4292  0.7387 -0.0866
  960MOL0     C29505   7.289   6.767   1.247 -0.4901 -0.2006  0.3240
  960MOL0     C29506   7.234   6.833   1.125  0.3232  0.4285  0.2863
  960MOL0     C29507   7.298   6.786   0.997 -0.7107  0.1296  0.8773
  960MOL0     C29508   7.247   6.647   0.964 -0.8804  0.1825  0.5203
  960MOL0     C29509   7.313   6.605   0.825 -0.5858  0.2190 -0.1487
  960MOL0    Cl29510   7.485   6.598   0.845 -0.0598 -0.4655 -0.0765
  960MOL0     C29511   7.431   6.841   1.894 -0.4806 -0.3895 -0.3301
  960MOL0     C29512   7.417   6.917   2.007  0.1301  0.1462 -0.6749
  960MOL0     O29513   7.289   6.888   2.308  0.3422  0.7468  0.1198
  960MOL0     C29514   7.240   7.226   2.359 -0.1876 -0.1717 -0.4419
  960MOL0     C29515   7.191   7.317   2.448 -0.2159  0.7869  0.4428
  960MOL0     N29516   6.571   7.273   2.790 -0.1761  0.3115 -0.2428
  960MOL0     N29517   6.468   7.303   2.731  0.3596 -0.0965  0.6856
  960MOL0     C29518   5.497   7.647   2.115  0.0947 -0.7964  0.0504
  960MOL0     C29519   5.380   7.574   2.110 -0.3072  0.8438 -1.3182
  960MOL0     C29520   5.068   7.266   2.213 -0.0071 -0.5494 -0.5218
  960MOL0     C29521   4.979   7.309   2.313 -0.0260 -0.2646 -0.3151
  960MOL0     C29522   4.861   7.242   2.327  0.4834 -0.4903  1.1377
  960MOL0     C29523   4.837   7.120   2.264 -0.1054 -0.1103 -0.4355
  960MOL0     O29524   4.728   7.038   2.297 -0.5381 -0.0947 -0.6483
  960MOL0     C29525   4.631   7.068   2.406  0.0558  0.7216  0.9065
  960MOL0     C29526   4.689   7.018   2.537  0.8183 -0.5102 -0.4742
  960MOL0     C29527   4.589   7.089   2.644 -0.0879 -0.0517 -0.6609
  960MOL0     C29528   4.656   7.058   2.788  0.7702  0.0272  0.8248
  960MOL0     C29529   4.623   7.166   2.882  0.6617 -0.1077 -0.4540
  960MOL0     C29530   4.582   7.245   2.966 -0.5723 -0.9900  0.1737
  960MOL0     C29531   4.927   7.080   2.170 -0.8450 -0.2235  0.7306
  960MOL0     C29532   5.038   7.156   2.135 -0.1125  0.0325 -0.1633
  960MOL0     H29533   5.307   7.566   2.432  0.8471 -0.2670  0.5398
  960MOL0     H29534   5.541   7.664   2.441  0.1698 -1.0967 -0.4036
  960MOL0     H29535   5.776   7.620   2.106 -0.6712  0.6587 -1.4326
  960MOL0     H29536   5.729   7.762   2.038  2.3538 -1.3061 -1.9009
  960MOL0     H29537   5.967   7.795   2.077  1.4435  0.3630  0.6760
  960MOL0     H29538   5.888   7.872   2.213 -0.0306 -0.5221  0.9212
  960MOL0     H29539   5.952   7.686   2.362 -1.1806  0.0490  0.5491
  960MOL0     H29540   5.967   7.587   2.212 -2.8452  1.3182 -1.0147
  960MOL0     H29541   6.185   7.670   2.188 -1.2306  0.0715 -0.1671
  960MOL0     H29542   6.143   7.827   2.249 -0.1198  1.3608  1.4555
  960MOL0     H29543   6.306   7.723   2.392  0.8100  0.3535 -0.6444
  960MOL0     H29544   6.159   7.715   2.497 -1.5302 -2.7146  0.4577
  960MOL0     H29545   6.110   7.483   2.456  0.2403  2.2274  2.3457
  960MOL0     H29546   6.225   7.471   2.325  2.1092  1.6881 -0.4909
  960MOL0     H29547   6.324   7.365   2.493  1.0921 -0.6830 -0.5258
  960MOL0     H29548   6.412   7.518   2.446  0.1940  1.9938  1.2151
  960MOL0     H29549   6.237   7.446   2.689 -0.5414  2.7235  1.3057
  960MOL0     H29550   6.332   7.601   2.672  1.3095 -0.1774  2.7315
  960MOL0     H29551   6.580   7.601   2.748 -1.4782  1.0398  2.3328
  960MOL0     H29552   6.751   7.484   2.962  1.6283 -0.0034  0.6398
  960MOL0     H29553   6.795   7.319   2.930 -3.4700 -1.1763 -0.0219
  960MOL0     H29554   6.842   7.578   2.772 -3.7125 -0.1359  2.1265
  960MOL0     H29555   6.869   7.415   2.692 -0.8790  1.5347 -0.3348
  960MOL0     H29556   6.991   7.460   2.978 -0.0236  0.0014 -0.1522
  960MOL0     H29557   7.061   7.560   2.854  3.0752 -0.9974  1.0972
  960MOL0     H29558   7.045   7.255   2.830  2.5719 -0.6403  0.7918
  960MOL0     H29559   7.191   7.340   2.862 -0.5445 -1.7264  1.9489
  960MOL0     H29560   7.265   7.126   2.723 -0.6171 -0.9502  0.5433
  960MOL0     H29561   7.354   6.937   2.681 -1.0272 -3.3548  0.8927
  960MOL0     H29562   7.234   6.874   2.574 -2.7867  3.5948 -0.0371
  960MOL0     H29563   7.413   6.904   2.520  0.0234  1.8605 -0.9974
  960MOL0     H29564   7.092   6.997   2.013  0.1853 -0.1872  2.3336
  960MOL0     H29565   7.092   6.869   1.824 -1.4893  2.4322  3.9497
  960MOL0     H29566   7.180   6.862   1.608 -0.1683 -0.0373 -0.5076
  960MOL0     H29567   7.345   6.875   1.543 -1.4574  1.2898 -0.0104
  960MOL0     H29568   7.346   6.654   1.464  0.8247  1.0200  3.3578
  960MOL0     H29569   7.179   6.627   1.533  1.1846 -2.4383 -2.2457
  960MOL0     H29570   7.123   6.833   1.368 -0.8570  0.0242 -0.9641
  960MOL0     H29571   7.115   6.668   1.314 -0.0675  1.6938 -0.9640
  960MOL0     H29572   7.383   6.818   1.270  0.5950 -2.2707  0.6782
  960MOL0     H29573   7.329   6.672   1.211 -2.5689 -0.4427 -1.5721
  960MOL0     H29574   7.264   6.939   1.127 -1.1069  0.8599 -0.3402
  960MOL0     H29575   7.126   6.848   1.121  0.1584 -0.8709 -2.1185
  960MOL0     H29576   7.276   6.856   0.915  3.2532  1.9355  1.1357
  960MOL0     H29577   7.404   6.785   1.024 -1.3201 -1.4019  3.4886
  960MOL0     H29578   7.139   6.632   0.974 -1.7152  2.9230 -2.7243
  960MOL0     H29579   7.297   6.575   1.030  0.5592  0.8587  0.2048
  960MOL0     H29580   7.292   6.675   0.744  2.1148 -2.2416 -3.2491
  960MOL0     H29581   7.278   6.504   0.802  0.6739  0.0375 -1.3898
  960MOL0     H29582   7.525   6.798   1.860  1.1421  1.4562  1.6063
  960MOL0     H29583   7.506   6.943   2.064 -1.6107  5.2861  0.1791
  960MOL0     H29584   7.226   7.250   2.254 -3.5794 -0.5772 -0.1842
  960MOL0     H29585   7.149   7.410   2.411 -0.5754  1.6963  2.9446
  960MOL0     H29586   5.547   7.682   2.025 -1.7258 -1.8837 -1.4673
  960MOL0     H29587   5.326   7.532   2.025 -2.2361  1.5632 -0.5071
  960MOL0     H29588   4.995   7.395   2.376 -0.8438  0.0334 -0.5049
  960MOL0     H29589   4.780   7.272   2.393 -4.0382 -3.4703 -2.4622
  960MOL0     H29590   4.607   7.175   2.399  1.5597  1.2796  3.0915
  960MOL0     H29591   4.536   7.019   2.385 -0.4620  0.8404  2.7916
  960MOL0     H29592   4.788   7.064   2.549 -0.6956  2.6880  0.9909
  960MOL0     H29593   4.683   6.909   2.547 -0.2371 -0.4977 -0.8176
  960MOL0     H29594   4.490   7.044   2.645 -0.2042  0.1154 -2.0745
  960MOL0     H29595   4.585   7.197   2.624 -1.7052  0.6503  2.8651
  960MOL0     H29596   4.762   7.034   2.777  0.5098  0.1535 -4.1877
  960MOL0     H29597   4.620   6.960   2.822  1.1149 -0.0297  1.0336
  960MOL0     H29598   4.543   7.311   3.040  3.9096  1.6285  0.5978
  960MOL0     H29599   4.894   6.981   2.139 -0.6132 -1.2455  3.4479
  960MOL0     H29600   5.116   7.113   2.074  0.8471  0.5316  0.6871
  961MOL0     O29601   8.822   2.966   5.278  0.4720 -0.2055 -0.7778
  961MOL0     C29602   8.744   3.007   5.361  0.2709 -0.7906 -0.5856
  961MOL0     O29603   8.772   3.013   5.497  0.0789 -0.1282 -0.0294
  961MOL0     C29604   8.896   2.971   5.541 -0.1914  0.4097  0.8292
  961MOL0     C29605   8.915   2.835   5.546  0.4517  0.1695 -0.0699
  961MOL0     C29606   9.039   2.790   5.586  0.3163  0.6881 -0.3907
  961MOL0     C29607   9.149   2.867   5.617 -0.5454  0.6174 -0.1761
  961MOL0     O29608   9.272   2.819   5.659  0.2740  0.2227  0.4405
  961MOL0     C29609   9.275   2.697   5.733 -1.2529 -0.3102 -0.0311
  961MOL0     C29610   9.196   2.692   5.862  0.4095 -0.1543  0.3160
  961MOL0     C29611   9.248   2.803   5.958 -0.1848  0.5661 -0.3338
  961MOL0     C29612   9.175   2.806   6.097  0.5580  0.0218 -0.1160
  961MOL0     C29613   9.210   2.680   6.175  0.0363  0.6505  0.0042
  961MOL0     C29614   9.170   2.678   6.325 -0.2540  0.5289 -0.6511
  961MOL0     C29615   9.250   2.582   6.421  0.5480 -0.6230  0.5105
  961MOL0     C29616   9.215   2.439   6.385 -0.6629  0.0990 -0.0616
  961MOL0     N29617   9.078   2.408   6.414 -0.8923 -0.1156  0.3303
  961MOL0     C29618   9.016   2.386   6.536  0.8347 -0.6928 -1.1677
  961MOL0     C29619   8.892   2.340   6.502 -0.5330 -0.1733 -0.2975
  961MOL0     C29620   8.781   2.309   6.603  0.1445  0.4914 -0.2209
  961MOL0     C29621   8.819   2.329   6.749  0.2309  0.5017  0.2112
  961MOL0     C29622   8.682   2.314   6.816  0.3298 -0.2253  0.1212
  961MOL0     C29623   8.608   2.444   6.841  0.4131 -0.4683  0.0378
  961MOL0     O29624   8.567   2.522   6.732 -0.3436  0.1763  0.8310
  961MOL0     C29625   8.446   2.482   6.674  0.0529 -0.8106 -0.3197
  961MOL0     C29626   8.407   2.571   6.582  1.2739 -0.8364 -0.7545
  961MOL0     C29627   8.286   2.559   6.505 -0.4654 -0.6195  0.6074
  961MOL0     C29628   8.250   2.670   6.406  0.2433 -0.1369 -0.8078
  961MOL0     C29629   8.219   2.436   6.509  0.6760  0.1325 -1.2240
  961MOL0     C29630   8.116   2.398   6.409 -0.2404 -0.3730  0.1388
  961MOL0     O29631   8.058   2.271   6.437  0.2412 -0.5243  0.0884
  961MOL0     C29632   7.961   2.233   6.349 -0.1927 -0.0494 -0.5402
  961MOL0     C29633   8.001   2.158   6.248 -1.0063  0.4086  0.0563
  961MOL0     C29634   7.901   2.095   6.174  0.8267  0.0250  0.8521
  961MOL0     C29635   7.761   2.119   6.196  0.8969  0.1505  0.1337
  961MOL0     O29636   7.671   2.065   6.103 -0.8965  0.0211 -0.7636
  961MOL0     C29637   7.544   2.129   6.084  1.0296  0.2647 -0.4817
  961MOL0     C29638   7.445   2.048   6.178 -0.0039  0.3047 -0.4579
  961MOL0     C29639   7.438   1.895   6.147  0.6540 -0.8723 -0.6036
  961MOL0     C29640   7.513   1.822   6.254  0.7553  0.4277  0.1285
  961MOL0     C29641   7.496   1.667   6.250  0.1401 -0.4889  0.9898
  961MOL0     C29642   7.546   1.624   6.112  0.4923  0.3804  0.6514
  961MOL0     C29643   7.596   1.480   6.102 -0.0123 -0.6718 -0.2847
  961MOL0     C29644   7.725   1.448   6.179 -0.0958  0.9733 -0.7360
  961MOL0    Cl29645   7.841   1.579   6.173 -0.2775 -0.0383 -0.1354
  961MOL0     C29646   7.729   2.208   6.300  0.6577  0.8525  0.7330
  961MOL0     C29647   7.825   2.259   6.380 -0.2688  0.2532  0.5926
  961MOL0     O29648   8.080   2.474   6.316 -0.4958  0.0714  0.2567
  961MOL0     C29649   8.258   2.345   6.612  0.6695  0.6112  0.0850
  961MOL0     C29650   8.363   2.374   6.694 -0.5642  0.5412 -0.8900
  961MOL0     N29651   8.889   2.313   6.367 -0.8969 -0.1724  0.5478
  961MOL0     N29652   9.006   2.357   6.321 -0.2391 -0.6320  0.3906
  961MOL0     C29653   9.134   3.009   5.590 -0.0631 -0.6616 -0.7092
  961MOL0     C29654   9.009   3.055   5.546  0.2340 -0.7066 -0.2606
  961MOL0     C29655   8.603   3.043   5.309 -0.6199  0.2801  0.7839
  961MOL0     C29656   8.579   3.070   5.173  0.0250  0.0195 -0.3279
  961MOL0     C29657   8.454   3.112   5.129  0.5284  0.2786 -0.2912
  961MOL0     C29658   8.344   3.120   5.216  0.7380  0.6839 -0.5511
  961MOL0     O29659   8.218   3.169   5.189 -0.8756 -0.5870 -0.1578
  961MOL0     C29660   8.185   3.167   5.052 -0.2923  0.3404 -0.2217
  961MOL0     C29661   8.045   3.188   5.019  0.1874  1.0235  0.4031
  961MOL0     C29662   7.955   3.081   5.086  0.3870 -0.3406  0.4692
  961MOL0     C29663   7.817   3.054   5.010 -0.1492  0.8848  0.4563
  961MOL0     C29664   7.823   2.926   4.931  0.1544 -0.0590 -0.0544
  961MOL0     C29665   7.829   2.822   4.864 -0.8334 -0.0147 -0.2312
  961MOL0     C29666   8.366   3.088   5.349 -0.6407 -0.7481  0.0410
  961MOL0     C29667   8.490   3.067   5.402 -0.0201 -1.0816  1.1697
  961MOL0     H29668   8.832   2.770   5.517 -0.8160  0.9633  1.6249
  961MOL0     H29669   9.037   2.681   5.586 -4.3867  0.4231 -4.1901
  961MOL0     H29670   9.255   2.610   5.669  1.5384 -1.8414  1.0116
  961MOL0     H29671   9.380   2.693   5.764 -0.3841 -1.4028 -2.7546
  961MOL0     H29672   9.090   2.703   5.835 -0.1502 -0.2862  2.2855
  961MOL0     H29673   9.221   2.592   5.899  2.8744  0.3305  0.0995
  961MOL0     H29674   9.357   2.794   5.968  0.2429  1.9097 -2.8426
  961MOL0     H29675   9.239   2.900   5.908 -2.3538 -1.1650 -3.6931
  961MOL0     H29676   9.212   2.889   6.157 -2.4945  2.0336 -0.8001
  961MOL0     H29677   9.066   2.811   6.099  0.5726  1.3065 -1.1307
  961MOL0     H29678   9.158   2.610   6.110  1.2502 -1.0945  0.8507
  961MOL0     H29679   9.318   2.668   6.160  0.0250 -1.3202  1.2000
  961MOL0     H29680   9.191   2.777   6.367 -0.4831  0.0351  0.6925
  961MOL0     H29681   9.062   2.671   6.337 -0.6262  0.2054 -3.5654
  961MOL0     H29682   9.358   2.600   6.421  0.7254 -1.5288  1.5240
  961MOL0     H29683   9.213   2.608   6.520 -1.9522  0.1368 -0.5612
  961MOL0     H29684   9.282   2.371   6.437 -0.0835 -4.0180 -5.3063
  961MOL0     H29685   9.243   2.418   6.281 -0.7997 -0.7422  0.0628
  961MOL0     H29686   9.055   2.410   6.635 -1.9175 -3.0151  0.6372
  961MOL0     H29687   8.695   2.367   6.569 -0.2174  0.4816  0.6521
  961MOL0     H29688   8.748   2.205   6.596  1.6208 -0.0115 -0.0515
  961MOL0     H29689   8.868   2.421   6.783 -0.0093  0.2148  1.3939
  961MOL0     H29690   8.880   2.243   6.777 -1.0022 -1.6144 -3.1036
  961MOL0     H29691   8.711   2.283   6.917 -0.8733  1.2010  0.9585
  961MOL0     H29692   8.619   2.235   6.774  0.5283 -0.9716  1.1893
  961MOL0     H29693   8.681   2.511   6.887  1.9142 -0.4934 -2.1670
  961MOL0     H29694   8.525   2.416   6.907 -0.2649  2.7706  0.7312
  961MOL0     H29695   8.461   2.665   6.585  0.9206 -0.6250  1.8567
  961MOL0     H29696   8.146   2.694   6.429 -0.2841 -3.0040  0.2502
  961MOL0     H29697   8.316   2.756   6.419  1.8664 -1.7090  2.6969
  961MOL0     H29698   8.263   2.636   6.302 -1.2010 -0.2000 -0.9984
  961MOL0     H29699   8.106   2.147   6.223 -0.7829  2.2922 -0.0152
  961MOL0     H29700   7.933   2.030   6.093 -0.1723 -1.0311  1.2643
  961MOL0     H29701   7.544   2.237   6.100 -2.9365  0.2742  0.5652
  961MOL0     H29702   7.510   2.119   5.981  1.3234 -0.1862 -0.5372
  961MOL0     H29703   7.482   2.059   6.281 -2.0829  1.3784  0.2474
  961MOL0     H29704   7.342   2.084   6.169 -0.4079 -1.0062 -1.3868
  961MOL0     H29705   7.475   1.869   6.047  2.1718  0.0922 -0.3333
  961MOL0     H29706   7.337   1.857   6.164  1.3674 -2.5086  0.1470
  961MOL0     H29707   7.616   1.856   6.253  0.3644  1.6785  0.4679
  961MOL0     H29708   7.484   1.844   6.358 -0.0479 -0.6335  0.1531
  961MOL0     H29709   7.393   1.631   6.260 -0.9304  1.9085 -0.5670
  961MOL0     H29710   7.558   1.614   6.324  2.3775 -1.5780 -1.4790
  961MOL0     H29711   7.466   1.620   6.037 -0.3012 -1.5725  1.5302
  961MOL0     H29712   7.626   1.690   6.079 -1.1146  1.5047 -1.2463
  961MOL0     H29713   7.615   1.475   5.994 -0.8017  1.1625 -0.5518
  961MOL0     H29714   7.515   1.416   6.137 -1.1179 -1.1485 -3.4339
  961MOL0     H29715   7.769   1.352   6.148 -0.5074  1.2109 -2.1351
  961MOL0     H29716   7.699   1.439   6.284  2.8206 -1.3793 -0.0733
  961MOL0     H29717   7.628   2.230   6.333  0.5108  0.8058  0.3231
  961MOL0     H29718   7.787   2.304   6.471 -0.4004 -1.2861  1.3390
  961MOL0     H29719   8.216   2.247   6.630  0.8085  0.5837  0.2637
  961MOL0     H29720   8.401   2.305   6.769  0.6683  0.0380 -1.9521
  961MOL0     H29721   9.215   3.079   5.607  0.2339 -1.0642 -0.4443
  961MOL0     H29722   8.999   3.162   5.533 -1.7870 -0.7856  0.2697
  961MOL0     H29723   8.662   3.058   5.104  0.9631  1.3437  0.5100
  961MOL0     H29724   8.429   3.111   5.024 -0.8637  2.1795 -0.0421
  961MOL0     H29725   8.244   3.243   5.000 -1.9208  2.1654  0.4436
  961MOL0     H29726   8.205   3.066   5.015 -0.4293 -0.1093  0.8992
  961MOL0     H29727   8.027   3.192   4.911 -0.8960 -1.0158  0.4738
  961MOL0     H29728   8.025   3.291   5.051  0.3352  0.8518  1.0736
  961MOL0     H29729   7.922   3.121   5.182  2.1899  0.2828  0.8646
  961MOL0     H29730   8.005   2.984   5.099 -0.9813 -1.2165 -0.5071
  961MOL0     H29731   7.798   3.139   4.944  0.8380 -0.1160 -1.1795
  961MOL0     H29732   7.744   3.031   5.089  1.3587 -0.2045  1.5784
  961MOL0     H29733   7.844   2.736   4.801 -1.9669 -0.6219  0.3084
  961MOL0     H29734   8.283   3.088   5.418 -1.4586  0.6900 -0.9039
  961MOL0     H29735   8.498   3.043   5.508 -1.3589  0.6655  1.7015
  962MOL0     O29736   3.892   7.560   6.325 -0.2145 -0.1706  1.2121
  962MOL0     C29737   3.792   7.569   6.249 -0.2855 -0.2660 -0.2674
  962MOL0     O29738   3.717   7.461   6.203 -0.0110 -1.3116 -0.5998
  962MOL0     C29739   3.702   7.347   6.287 -0.8088 -0.1808  0.5040
  962MOL0     C29740   3.666   7.362   6.419  0.0370 -1.0100 -0.1052
  962MOL0     C29741   3.622   7.254   6.493  0.4948 -0.8347 -0.1710
  962MOL0     C29742   3.614   7.122   6.437 -0.8258  0.2290  1.0559
  962MOL0     O29743   3.561   7.002   6.492  1.1748 -0.2644  0.6077
  962MOL0     C29744   3.573   6.993   6.633  0.6023  0.5767 -0.4882
  962MOL0     C29745   3.448   7.041   6.712  0.0093  0.0121 -0.3453
  962MOL0     C29746   3.466   7.045   6.854  0.2577 -0.3688 -1.1956
  962MOL0     C29747   3.340   7.086   6.936 -0.3849  0.6472  0.7978
  962MOL0     C29748   3.327   7.241   6.949  0.2559 -0.4168 -0.2372
  962MOL0     C29749   3.407   7.302   7.072  1.0681  0.1188  0.0925
  962MOL0     C29750   3.383   7.229   7.199  0.5338 -0.3719 -0.6315
  962MOL0     C29751   3.427   7.314   7.319  0.4489  0.1659  0.0017
  962MOL0     N29752   3.339   7.307   7.437 -0.5163  0.4364 -0.0772
  962MOL0     C29753   3.222   7.374   7.464  0.4030  0.2012 -1.1020
  962MOL0     C29754   3.161   7.310   7.572 -0.6204 -0.0887  0.3220
  962MOL0     C29755   3.024   7.344   7.622  0.0736 -0.5660 -0.3543
  962MOL0     C29756   2.992   7.309   7.772 -0.9759 -0.2163  0.3993
  962MOL0     C29757   2.857   7.357   7.827 -0.2671 -0.1127  0.3201
  962MOL0     C29758   2.812   7.498   7.799  0.2690 -1.1595 -0.7844
  962MOL0     O29759   2.888   7.585   7.887  0.2547 -0.3478  0.1030
  962MOL0     C29760   2.971   7.677   7.830 -1.4718  0.6374 -0.7273
  962MOL0     C29761   2.957   7.744   7.706  0.6427 -0.0457  0.6558
  962MOL0     C29762   3.020   7.858   7.671  1.1595 -0.5537  0.5083
  962MOL0     C29763   2.974   7.926   7.542 -0.0802  0.2941 -0.4294
  962MOL0     C29764   3.118   7.915   7.753 -0.1868 -0.3659  0.0279
  962MOL0     C29765   3.199   8.035   7.713 -0.6094  0.3859 -0.1279
  962MOL0     O29766   3.232   8.137   7.801 -0.3243 -0.1800 -0.7233
  962MOL0     C29767   3.298   8.245   7.750 -0.1054 -0.2913  0.2584
  962MOL0     C29768   3.383   8.329   7.833 -0.7450  0.6487  0.2055
  962MOL0     C29769   3.429   8.458   7.793  0.7065 -0.3853 -0.2636
  962MOL0     C29770   3.400   8.511   7.673  0.1225 -0.1076  0.3445
  962MOL0     O29771   3.449   8.640   7.640  0.3226  0.2590 -0.3975
  962MOL0     C29772   3.434   8.687   7.503  0.3748 -0.4502 -0.3792
  962MOL0     C29773   3.508   8.823   7.501  0.6001 -0.4864 -0.4034
  962MOL0     C29774   3.444   8.922   7.594  0.9365  0.3621  0.1126
  962MOL0     C29775   3.520   9.052   7.590 -0.4485 -0.0108 -0.6906
  962MOL0     C29776   3.474   9.158   7.687 -0.1910  0.0231 -1.3285
  962MOL0     C29777   3.567   9.283   7.683 -0.3647 -0.1081 -1.1670
  962MOL0     C29778   3.521   9.398   7.787  0.2363 -0.1178  0.3407
  962MOL0     C29779   3.562   9.362   7.932 -0.0051  0.9484  0.2378
  962MOL0    Cl29780   3.743   9.367   7.961  0.1930  0.2855  0.2516
  962MOL0     C29781   3.316   8.436   7.596 -0.2388  0.0829 -0.0906
  962MOL0     C29782   3.262   8.308   7.634  0.0472 -0.4509  0.0299
  962MOL0     O29783   3.242   8.017   7.604  0.0595  0.7488  0.7077
  962MOL0     C29784   3.134   7.852   7.883 -0.5471 -1.6223  0.4088
  962MOL0     C29785   3.063   7.740   7.917 -0.5549  0.1923 -0.5255
  962MOL0     N29786   3.255   7.230   7.618 -0.7384  0.5025  0.1281
  962MOL0     N29787   3.359   7.217   7.538 -0.3402 -0.3947 -0.3160
  962MOL0     C29788   3.682   7.117   6.313  0.8862 -1.1963 -0.1605
  962MOL0     C29789   3.727   7.226   6.233 -1.2980  0.1087  0.0568
  962MOL0     C29790   3.750   7.696   6.193 -0.8905 -0.2069 -0.1614
  962MOL0     C29791   3.821   7.811   6.235  0.9298  0.6843  0.9850
  962MOL0     C29792   3.783   7.932   6.180 -0.9439 -0.7477 -0.7582
  962MOL0     C29793   3.700   7.953   6.068  0.2679  0.1646 -0.1279
  962MOL0     O29794   3.697   8.067   5.986  0.2881  0.5608 -0.6088
  962MOL0     C29795   3.730   8.193   6.043  0.4513 -0.1169  1.1299
  962MOL0     C29796   3.876   8.224   6.015 -0.3513 -0.4112 -0.5689
  962MOL0     C29797   3.905   8.278   5.871 -0.1569 -0.3178  1.1386
  962MOL0     C29798   3.808   8.398   5.823 -0.3370  0.0633  0.6032
  962MOL0     C29799   3.852   8.443   5.685  0.1342 -0.1733 -0.4849
  962MOL0     C29800   3.875   8.494   5.582 -0.1913 -0.5944  0.9344
  962MOL0     C29801   3.626   7.837   6.032 -0.0286  0.3277  0.3437
  962MOL0     C29802   3.641   7.714   6.096  0.4567  0.1713  0.3335
  962MOL0     H29803   3.641   7.456   6.468 -0.7781 -2.1417  1.7523
  962MOL0     H29804   3.582   7.280   6.590 -1.0458 -0.8201 -0.7781
  962MOL0     H29805   3.574   6.884   6.637  1.8234  0.1322 -5.5299
  962MOL0     H29806   3.667   7.037   6.667  2.4772 -2.5652 -1.1930
  962MOL0     H29807   3.416   7.141   6.683  0.7244  1.2784  2.8473
  962MOL0     H29808   3.367   6.978   6.674  0.0937 -0.1452 -0.2667
  962MOL0     H29809   3.515   6.958   6.898  1.5929  1.1946  0.5914
  962MOL0     H29810   3.528   7.134   6.871 -0.8623 -0.0346  1.8834
  962MOL0     H29811   3.254   7.050   6.879  3.1660 -1.5308 -3.8541
  962MOL0     H29812   3.343   7.040   7.034 -1.2363 -2.4663 -0.5302
  962MOL0     H29813   3.367   7.297   6.864  0.1366  1.8950  1.1446
  962MOL0     H29814   3.220   7.263   6.948 -0.1182 -2.0014  1.4163
  962MOL0     H29815   3.515   7.308   7.055  0.6846  3.9110 -2.0722
  962MOL0     H29816   3.367   7.404   7.078  0.5952 -0.0483 -0.1636
  962MOL0     H29817   3.278   7.200   7.206  1.2757 -2.9145  1.9515
  962MOL0     H29818   3.432   7.131   7.196 -0.7855 -1.0395 -1.3245
  962MOL0     H29819   3.434   7.418   7.288  0.9023  0.9019  2.3532
  962MOL0     H29820   3.530   7.288   7.344  0.2065  1.2744  2.4534
  962MOL0     H29821   3.181   7.453   7.401  1.1032  0.6106 -1.0566
  962MOL0     H29822   3.022   7.453   7.607  1.2112 -0.2842  1.2784
  962MOL0     H29823   2.952   7.288   7.562 -0.5169 -1.6342  1.2884
  962MOL0     H29824   3.073   7.348   7.834 -2.1099  0.9303  1.2310
  962MOL0     H29825   3.014   7.203   7.786 -0.8172 -0.0263  1.7779
  962MOL0     H29826   2.851   7.335   7.934 -0.6470 -0.9328  0.1398
  962MOL0     H29827   2.777   7.284   7.807  0.5083 -1.5677  2.1400
  962MOL0     H29828   2.708   7.504   7.832  0.9353 -0.4992  1.3511
  962MOL0     H29829   2.822   7.523   7.693 -0.9456  1.4584 -0.3738
  962MOL0     H29830   2.872   7.722   7.642 -0.8617  1.0559  2.1643
  962MOL0     H29831   2.971   8.036   7.546 -1.3881  0.3258 -1.5176
  962MOL0     H29832   3.042   7.907   7.458 -0.1537  1.6948 -0.8480
  962MOL0     H29833   2.873   7.895   7.514  0.4422  0.9545 -3.3805
  962MOL0     H29834   3.413   8.285   7.928  0.9030  1.5174  0.1188
  962MOL0     H29835   3.481   8.524   7.861 -1.9921  0.8434  0.7545
  962MOL0     H29836   3.464   8.620   7.422  1.8924  4.7700 -4.8037
  962MOL0     H29837   3.330   8.718   7.491  0.3275  0.8106  2.4006
  962MOL0     H29838   3.607   8.804   7.544 -0.0512  1.5803  2.2387
  962MOL0     H29839   3.513   8.866   7.400  0.2795  0.1652 -0.1398
  962MOL0     H29840   3.445   8.874   7.692  2.1727 -2.2831 -1.0923
  962MOL0     H29841   3.340   8.940   7.565 -0.3554 -2.0165  2.7976
  962MOL0     H29842   3.624   9.032   7.617 -1.5652 -1.4278  3.2088
  962MOL0     H29843   3.524   9.097   7.490  0.6811  0.9869 -0.2271
  962MOL0     H29844   3.479   9.121   7.789 -2.5080 -0.9803 -1.5056
  962MOL0     H29845   3.371   9.193   7.674 -0.4179  0.8090  1.7796
  962MOL0     H29846   3.670   9.250   7.703 -0.2543  0.5856 -0.5299
  962MOL0     H29847   3.566   9.337   7.588 -1.3857  0.6094 -0.7630
  962MOL0     H29848   3.414   9.404   7.766  0.6712  3.1332 -1.5102
  962MOL0     H29849   3.570   9.494   7.769 -0.6065  0.5457  1.4595
  962MOL0     H29850   3.521   9.263   7.955 -2.0064  1.6483 -0.1333
  962MOL0     H29851   3.511   9.437   7.992 -1.1282  1.0409 -0.7932
  962MOL0     H29852   3.284   8.475   7.500  2.7940  1.8056 -0.5228
  962MOL0     H29853   3.195   8.260   7.563 -1.3934 -0.3861  1.2818
  962MOL0     H29854   3.205   7.903   7.948  0.4586 -1.4411 -0.7775
  962MOL0     H29855   3.057   7.706   8.020 -2.1395  1.4811 -0.1419
  962MOL0     H29856   3.674   7.021   6.263  0.6368 -1.8816  1.1476
  962MOL0     H29857   3.759   7.223   6.130  2.4405 -0.2059  1.0985
  962MOL0     H29858   3.908   7.802   6.299 -0.1237  0.6125  2.4769
  962MOL0     H29859   3.835   8.020   6.217 -1.5178 -0.8695  0.3786
  962MOL0     H29860   3.664   8.271   6.004  0.3849 -0.0119  1.4471
  962MOL0     H29861   3.712   8.205   6.151  1.3348  3.1286  0.9973
  962MOL0     H29862   3.937   8.138   6.044 -0.3042  0.0076  0.6669
  962MOL0     H29863   3.906   8.302   6.086 -2.1161  1.2400 -1.5400
  962MOL0     H29864   3.914   8.197   5.797  0.9036  0.8000 -0.0103
  962MOL0     H29865   4.002   8.328   5.858  0.3393 -1.5920 -0.4487
  962MOL0     H29866   3.830   8.481   5.890  1.5881 -0.3535  0.5211
  962MOL0     H29867   3.701   8.375   5.819 -0.8795  2.5263 -1.4766
  962MOL0     H29868   3.908   8.546   5.495 -2.3195  1.8768  1.4721
  962MOL0     H29869   3.560   7.844   5.946 -1.5452 -0.1327  1.4326
  962MOL0     H29870   3.583   7.627   6.067  2.2799 -1.1691  0.5206
  963MOL0     O29871   6.477   4.343   9.427  0.3246  0.0803 -0.0378
  963MOL0     C29872   6.521   4.402   9.528  0.2212  1.0997  0.9540
  963MOL0     O29873   6.456   4.495   9.597 -0.8360  0.0193  0.6125
  963MOL0     C29874   6.322   4.510   9.579 -0.7969  0.1662 -0.0521
  963MOL0     C29875   6.233   4.442   9.661  0.0987 -0.1971  0.5360
  963MOL0     C29876   6.095   4.465   9.634  0.0979  0.8003 -0.3879
  963MOL0     C29877   6.050   4.538   9.517  0.0670 -0.6288 -0.4786
  963MOL0     O29878   5.912   4.556   9.500  0.1731  0.3534  0.8835
  963MOL0     C29879   5.816   4.507   9.599 -0.5434 -0.5587  0.3793
  963MOL0     C29880   5.681   4.506   9.522  0.4739 -0.9584 -0.2273
  963MOL0     C29881   5.577   4.446   9.619  0.9644 -0.6314 -0.5476
  963MOL0     C29882   5.443   4.446   9.546 -0.0539 -0.2986  0.0657
  963MOL0     C29883   5.336   4.353   9.613  0.3288 -0.1319  0.1348
  963MOL0     C29884   5.317   4.379   9.763 -0.4769  0.8525  0.3345
  963MOL0     C29885   5.234   4.500   9.787  0.4973  0.2927  0.7599
  963MOL0     C29886   5.219   4.531   9.931 -0.0387 -0.0610 -0.2066
  963MOL0     N29887   5.329   4.614   9.981  0.1790 -0.7592 -0.4245
  963MOL0     C29888   5.366   4.739   9.928 -0.0662  0.2561 -0.7900
  963MOL0     C29889   5.438   4.797  10.023 -0.2874  0.1326 -0.1308
  963MOL0     C29890   5.482   4.938  10.024  0.7729  0.5276 -0.3581
  963MOL0     C29891   5.572   4.961   9.900 -0.7317 -0.1234 -0.0652
  963MOL0     C29892   5.709   4.885   9.916 -0.5044 -0.0260 -0.3172
  963MOL0     C29893   5.823   4.919   9.820 -0.9761  0.8195  0.5183
  963MOL0     O29894   5.883   4.800   9.759  0.0967 -0.3649 -0.4095
  963MOL0     C29895   6.010   4.824   9.729 -1.3758 -0.5086  0.5580
  963MOL0     C29896   6.120   4.775   9.805 -0.7546 -0.5180 -0.5489
  963MOL0     C29897   6.251   4.791   9.767 -0.8001 -0.2985 -0.3360
  963MOL0     C29898   6.365   4.728   9.851  0.1703  0.1554 -0.6827
  963MOL0     C29899   6.286   4.873   9.650 -0.0244  0.0405  0.1409
  963MOL0     C29900   6.425   4.912   9.607  0.1753 -0.2885 -0.2156
  963MOL0     O29901   6.430   5.026   9.534 -0.4323 -0.2959 -0.5874
  963MOL0     C29902   6.554   5.066   9.493 -0.7527 -0.5878 -0.7249
  963MOL0     C29903   6.611   5.180   9.548  0.1210 -0.1174 -0.3040
  963MOL0     C29904   6.724   5.239   9.489 -0.2028  0.2891  0.3403
  963MOL0     C29905   6.785   5.181   9.379 -0.5666  0.1678  0.6485
  963MOL0     O29906   6.890   5.247   9.325  0.3538  0.3547  0.0117
  963MOL0     C29907   7.011   5.172   9.343 -0.2494 -0.1249 -0.2666
  963MOL0     C29908   7.109   5.257   9.413 -0.1247  0.6144 -0.4869
  963MOL0     C29909   7.204   5.331   9.327 -0.1611 -0.3598  0.5641
  963MOL0     C29910   7.129   5.433   9.230 -0.3448 -1.0286 -0.0601
  963MOL0     C29911   7.235   5.521   9.163 -0.5178 -0.2041 -0.2788
  963MOL0     C29912   7.174   5.660   9.122  0.0476  0.5369 -0.4098
  963MOL0     C29913   7.078   5.659   9.001 -0.6045 -0.6562  0.6195
  963MOL0     C29914   7.119   5.589   8.872  0.6543 -1.0283  0.4983
  963MOL0    Cl29915   7.271   5.656   8.800 -0.4696 -0.0340  0.2498
  963MOL0     C29916   6.741   5.055   9.329 -0.8961 -0.1820 -1.1603
  963MOL0     C29917   6.630   5.002   9.392 -0.0606  0.4457  0.6785
  963MOL0     O29918   6.525   4.841   9.635 -0.0398 -0.2857 -0.6146
  963MOL0     C29919   6.171   4.917   9.582 -0.8713  0.1766  0.0411
  963MOL0     C29920   6.038   4.886   9.613  0.2230  0.7948  0.4659
  963MOL0     N29921   5.451   4.715  10.127 -0.0303  0.3934  0.3954
  963MOL0     N29922   5.383   4.608  10.109 -0.3584  0.0835 -0.8153
  963MOL0     C29923   6.143   4.593   9.432 -0.0812 -0.4612 -0.6425
  963MOL0     C29924   6.282   4.591   9.466 -0.5838  0.3071  0.1785
  963MOL0     C29925   6.663   4.371   9.563 -1.0746  0.2805  1.0314
  963MOL0     C29926   6.737   4.476   9.630  0.8111  0.3334  0.6117
  963MOL0     C29927   6.871   4.450   9.669  0.0131  0.3143 -0.8367
  963MOL0     C29928   6.937   4.334   9.647 -0.4759  0.5290  0.3655
  963MOL0     O29929   7.064   4.304   9.692 -0.2816 -0.4945 -0.1865
  963MOL0     C29930   7.075   4.311   9.838 -0.6603  0.0385 -0.2028
  963MOL0     C29931   7.225   4.297   9.880 -1.0463  1.2053  0.4487
  963MOL0     C29932   7.270   4.150   9.878  0.6257 -1.3510 -0.3303
  963MOL0     C29933   7.207   4.056   9.989 -0.8820  0.4653 -0.6401
  963MOL0     C29934   7.256   4.097  10.121  0.0510 -0.8917  0.5383
  963MOL0     C29935   7.283   4.133  10.222  0.6348 -0.3400 -0.4572
  963MOL0     C29936   6.864   4.227   9.583 -0.1443 -0.1173 -0.3857
  963MOL0     C29937   6.733   4.253   9.541 -0.0715 -0.2550  0.4351
  963MOL0     H29938   6.267   4.388   9.748 -0.8971  0.2211  1.2044
  963MOL0     H29939   6.026   4.408   9.695 -1.4566 -0.2029 -2.9366
  963MOL0     H29940   5.834   4.402   9.626  1.7811  0.8689  5.5258
  963MOL0     H29941   5.827   4.563   9.692 -2.4443 -0.4731  0.5794
  963MOL0     H29942   5.654   4.611   9.510 -2.0588 -1.4814  0.2303
  963MOL0     H29943   5.686   4.468   9.419 -0.9946  1.8785 -1.4764
  963MOL0     H29944   5.588   4.342   9.653  1.0325 -0.1648  0.8788
  963MOL0     H29945   5.583   4.491   9.718  0.0193 -2.6554  0.4920
  963MOL0     H29946   5.410   4.550   9.532 -2.3859 -0.9629  0.2626
  963MOL0     H29947   5.470   4.397   9.452  0.0742  2.2912 -1.3621
  963MOL0     H29948   5.237   4.356   9.566  0.2872 -1.6190  0.0842
  963MOL0     H29949   5.371   4.250   9.605 -0.2192 -0.5799  2.6871
  963MOL0     H29950   5.269   4.287   9.799  0.0082  0.7246  0.6618
  963MOL0     H29951   5.408   4.397   9.821  0.3003  0.3079 -0.6766
  963MOL0     H29952   5.276   4.581   9.727 -0.7786  0.4970  0.1218
  963MOL0     H29953   5.134   4.486   9.744  1.3970  0.9498 -1.7517
  963MOL0     H29954   5.219   4.447  10.001  2.2802 -0.3311 -0.4555
  963MOL0     H29955   5.130   4.593   9.945  0.3247 -0.0212  2.4585
  963MOL0     H29956   5.337   4.787   9.835  0.7586  1.7422 -0.3209
  963MOL0     H29957   5.394   5.002  10.020 -1.6133 -2.1126  3.4245
  963MOL0     H29958   5.521   4.938  10.127  0.3426 -4.9816  0.1379
  963MOL0     H29959   5.603   5.064   9.881  1.1981 -0.8719 -1.3871
  963MOL0     H29960   5.525   4.931   9.806 -1.2139 -1.0851  0.4606
  963MOL0     H29961   5.702   4.776   9.911 -0.7841 -0.1479  1.8435
  963MOL0     H29962   5.746   4.891  10.018 -0.6069 -2.5478 -0.0597
  963MOL0     H29963   5.899   4.971   9.880 -2.0598  2.9971  0.1025
  963MOL0     H29964   5.790   4.989   9.743 -1.5559  0.6206  0.5806
  963MOL0     H29965   6.095   4.722   9.896 -0.1113  0.7650  0.4072
  963MOL0     H29966   6.417   4.642   9.808 -0.5574  0.0378 -1.3617
  963MOL0     H29967   6.441   4.804   9.873  2.3587 -1.7815 -1.1654
  963MOL0     H29968   6.330   4.681   9.943 -2.1302 -1.5121 -2.2786
  963MOL0     H29969   6.555   5.244   9.616 -1.5664 -1.0912 -0.7154
  963MOL0     H29970   6.753   5.341   9.512 -2.8888  1.1948  0.0648
  963MOL0     H29971   7.004   5.074   9.390  0.4321  0.1079  0.3428
  963MOL0     H29972   7.048   5.140   9.245  1.1719 -0.9520  0.5017
  963MOL0     H29973   7.060   5.332   9.474  0.0443  0.4456 -0.1418
  963MOL0     H29974   7.165   5.189   9.478 -1.6223  0.2942  0.4969
  963MOL0     H29975   7.264   5.254   9.278 -1.9475 -2.8064  2.0319
  963MOL0     H29976   7.269   5.381   9.399  1.7435 -3.3489  1.0659
  963MOL0     H29977   7.069   5.375   9.160 -1.5337 -2.0204  1.7091
  963MOL0     H29978   7.059   5.490   9.293  0.6282  0.7487 -0.5060
  963MOL0     H29979   7.284   5.468   9.081 -0.0970  1.1653 -0.9467
  963MOL0     H29980   7.307   5.546   9.242 -0.1800 -1.0453 -0.3115
  963MOL0     H29981   7.127   5.702   9.212 -0.1978 -2.9918  1.2965
  963MOL0     H29982   7.259   5.724   9.100  2.3455 -1.4088  2.0588
  963MOL0     H29983   7.045   5.758   8.969  2.2633 -0.1450 -1.1476
  963MOL0     H29984   6.985   5.619   9.043 -0.8071 -0.8920 -0.0381
  963MOL0     H29985   7.041   5.597   8.797  1.0905 -1.2615  0.0147
  963MOL0     H29986   7.122   5.481   8.892 -1.7810 -1.4544 -1.1031
  963MOL0     H29987   6.798   4.986   9.268 -0.4707  0.9886 -2.1193
  963MOL0     H29988   6.594   4.910   9.347 -1.4025  0.0328  2.4714
  963MOL0     H29989   6.181   4.973   9.490 -2.0102 -0.6376 -0.6107
  963MOL0     H29990   5.966   4.911   9.536  0.0098  0.6291  0.6113
  963MOL0     H29991   6.115   4.649   9.344  1.4899  2.2876  0.4776
  963MOL0     H29992   6.354   4.645   9.406  1.4673 -2.3765  0.0115
  963MOL0     H29993   6.691   4.571   9.655  2.8339  1.2205  1.1918
  963MOL0     H29994   6.919   4.531   9.724 -2.7988  1.3839  0.2467
  963MOL0     H29995   7.039   4.408   9.876  1.6352  1.3283 -1.1452
  963MOL0     H29996   7.009   4.237   9.884  0.9984 -1.5579 -0.2997
  963MOL0     H29997   7.255   4.343   9.975 -0.5689 -1.1071  1.4976
  963MOL0     H29998   7.288   4.339   9.801  1.4742 -0.5835  1.3453
  963MOL0     H29999   7.379   4.148   9.875  0.6624  0.1818 -2.9096
  963MOL0     H30000   7.246   4.113   9.778  3.3603 -0.9477 -1.2030
  963MOL0     H30001   7.233   3.949   9.992 -0.3569  0.6095  1.8530
  963MOL0     H30002   7.102   4.078   9.969 -0.0099  4.1332 -1.8784
  963MOL0     H30003   7.314   4.187  10.310  1.3547 -0.7468 -0.4501
  963MOL0     H30004   6.906   4.132   9.554  0.3861  0.8903 -3.1967
  963MOL0     H30005   6.673   4.182   9.485 -2.1160  3.3659 -2.4177
  964MOL0     O30006   5.234   2.764   2.688 -0.3170  0.4628  0.3453
  964MOL0     C30007   5.353   2.801   2.687 -0.2726  0.2081  0.0393
  964MOL0     O30008   5.439   2.778   2.583  0.0926  0.4899 -0.7544
  964MOL0     C30009   5.401   2.737   2.460 -0.6132  0.4756  1.0368
  964MOL0     C30010   5.287   2.782   2.401  0.6127 -0.9038 -0.0061
  964MOL0     C30011   5.260   2.775   2.263  0.1189  0.2415 -0.4837
  964MOL0     C30012   5.329   2.687   2.179 -0.7456  0.4508 -1.3134
  964MOL0     O30013   5.294   2.680   2.045 -0.2240 -0.4132 -0.4835
  964MOL0     C30014   5.315   2.556   1.983 -0.0428  0.1598  0.2402
  964MOL0     C30015   5.181   2.507   1.918  1.0753  0.4242  0.1480
  964MOL0     C30016   5.193   2.352   1.914  0.6951 -0.9307  0.6524
  964MOL0     C30017   5.294   2.306   1.809  0.4830 -0.0885 -0.2724
  964MOL0     C30018   5.323   2.164   1.852 -0.2295 -0.0361  0.4506
  964MOL0     C30019   5.455   2.109   1.810 -0.6714 -0.1691 -0.3169
  964MOL0     C30020   5.452   1.964   1.878  0.1082 -0.0396  0.2150
  964MOL0     C30021   5.566   1.881   1.821  0.1003 -0.8290  0.0039
  964MOL0     N30022   5.698   1.904   1.886  0.2500 -0.4659  0.4782
  964MOL0     C30023   5.740   1.845   1.998  0.6122 -0.1195  0.2481
  964MOL0     C30024   5.849   1.910   2.033 -0.3459 -0.3638 -0.0654
  964MOL0     C30025   5.934   1.888   2.167 -0.4269  0.4690 -0.2920
  964MOL0     C30026   6.085   1.866   2.148  0.4885  0.3889 -0.1335
  964MOL0     C30027   6.140   1.782   2.258  0.1118  0.0585 -0.6862
  964MOL0     C30028   6.296   1.791   2.258  0.4625  0.1453 -0.3259
  964MOL0     O30029   6.330   1.916   2.315 -0.3802  0.0951 -1.4696
  964MOL0     C30030   6.470   1.914   2.320  0.0071 -0.0118 -0.6762
  964MOL0     C30031   6.532   1.915   2.444  0.2830  0.4143  0.8174
  964MOL0     C30032   6.674   1.925   2.465  0.2710 -0.4786 -0.8878
  964MOL0     C30033   6.726   1.924   2.607  0.4374  0.2152 -0.3371
  964MOL0     C30034   6.756   1.941   2.348 -0.3777  0.2026 -0.2121
  964MOL0     C30035   6.910   1.954   2.348 -0.9129 -0.1398  0.6168
  964MOL0     O30036   6.975   1.920   2.232 -0.5856  0.9054  0.0557
  964MOL0     C30037   7.105   1.957   2.220  1.0588 -0.8044 -0.5165
  964MOL0     C30038   7.131   2.061   2.139  0.9949 -0.0555  0.2188
  964MOL0     C30039   7.257   2.094   2.096 -0.4917 -0.3376  0.7744
  964MOL0     C30040   7.355   2.005   2.126  0.4430 -0.2257  0.5130
  964MOL0     O30041   7.487   2.041   2.100 -0.0490 -0.7433  0.2885
  964MOL0     C30042   7.525   2.177   2.072 -0.3572 -0.1077  0.0907
  964MOL0     C30043   7.680   2.183   2.073  0.7988 -1.0121  0.1614
  964MOL0     C30044   7.719   2.308   1.999 -0.3246  0.3982 -0.2601
  964MOL0     C30045   7.692   2.292   1.852  0.6006 -0.1166  0.8670
  964MOL0     C30046   7.733   2.424   1.778  0.1766  0.1051  0.1503
  964MOL0     C30047   7.712   2.410   1.626  0.2721 -0.5569 -0.1344
  964MOL0     C30048   7.762   2.532   1.562  0.0366  1.1218  0.5571
  964MOL0     C30049   7.716   2.546   1.423  0.2515 -0.6174  0.2133
  964MOL0    Cl30050   7.781   2.427   1.310 -0.2180 -0.0502  0.3927
  964MOL0     C30051   7.331   1.897   2.203 -0.0289 -1.0925  0.5226
  964MOL0     C30052   7.201   1.863   2.251 -0.1070  0.9297  0.1726
  964MOL0     O30053   6.965   1.994   2.448 -0.5035 -0.3197 -0.2109
  964MOL0     C30054   6.692   1.936   2.228 -0.0999 -0.5745 -0.4636
  964MOL0     C30055   6.557   1.929   2.207  0.9498  0.7989  0.1135
  964MOL0     N30056   5.882   2.002   1.929  0.4473 -0.9561  0.8731
  964MOL0     N30057   5.784   2.006   1.842 -0.2750 -0.1186  0.0635
  964MOL0     C30058   5.435   2.624   2.245  0.0550 -0.6447  0.0073
  964MOL0     C30059   5.477   2.654   2.381 -1.1785 -0.3339  0.1661
  964MOL0     C30060   5.404   2.849   2.826 -0.9117 -0.4323 -0.2979
  964MOL0     C30061   5.531   2.909   2.814  0.2400  1.2650  0.1657
  964MOL0     C30062   5.592   2.962   2.924  0.7149 -0.1261  0.4152
  964MOL0     C30063   5.514   2.960   3.046  0.6560 -0.6725 -0.3895
  964MOL0     O30064   5.574   3.035   3.141 -0.4413  0.3065  0.6066
  964MOL0     C30065   5.551   3.015   3.280 -0.0359  0.1802 -0.7695
  964MOL0     C30066   5.604   3.131   3.369  0.2844  0.3724  0.2251
  964MOL0     C30067   5.651   3.069   3.498 -0.6527 -0.7433 -0.7348
  964MOL0     C30068   5.696   3.167   3.600  0.1911 -0.5464  0.4146
  964MOL0     C30069   5.838   3.205   3.604  0.0133 -0.0484  0.4584
  964MOL0     C30070   5.940   3.253   3.641 -0.1523 -0.3977 -0.0751
  964MOL0     C30071   5.387   2.904   3.060 -0.4550  0.1053 -0.5340
  964MOL0     C30072   5.331   2.840   2.948 -0.2814 -0.7893  0.9312
  964MOL0     H30073   5.222   2.852   2.452  0.9176 -0.7368  0.1550
  964MOL0     H30074   5.190   2.841   2.213  0.8638 -0.1266 -2.0873
  964MOL0     H30075   5.398   2.560   1.911 -0.1990 -2.7213 -0.1852
  964MOL0     H30076   5.343   2.477   2.053  0.1433  0.9965  1.1392
  964MOL0     H30077   5.094   2.530   1.982  0.3207 -1.9499  0.0482
  964MOL0     H30078   5.173   2.562   1.824 -1.2433  2.2106  1.2597
  964MOL0     H30079   5.197   2.312   2.016  1.2518  0.1173  1.0643
  964MOL0     H30080   5.097   2.317   1.875 -1.4881  0.9224  3.8747
  964MOL0     H30081   5.259   2.311   1.705  2.3018  0.6922 -0.8918
  964MOL0     H30082   5.387   2.362   1.819  0.2082  0.4010 -0.3681
  964MOL0     H30083   5.332   2.170   1.961  0.5649  2.9971  0.3033
  964MOL0     H30084   5.240   2.096   1.826  1.5001 -1.1365 -2.7377
  964MOL0     H30085   5.476   2.094   1.704 -1.3049 -0.6160 -0.3837
  964MOL0     H30086   5.541   2.165   1.849 -1.9202  2.0251 -0.6221
  964MOL0     H30087   5.447   1.957   1.987  1.6148 -0.8551  0.2580
  964MOL0     H30088   5.361   1.910   1.850 -0.4553  0.5758  0.8371
  964MOL0     H30089   5.575   1.900   1.713  0.9195  0.6369  0.3113
  964MOL0     H30090   5.543   1.775   1.833 -0.6039 -0.5853  0.8830
  964MOL0     H30091   5.679   1.777   2.056  1.0332  1.2136  2.3721
  964MOL0     H30092   5.909   1.973   2.231  2.6623  1.6022 -0.4303
  964MOL0     H30093   5.890   1.795   2.203  1.5570 -0.0393  0.9923
  964MOL0     H30094   6.127   1.965   2.127 -2.0487  1.7302  0.8142
  964MOL0     H30095   6.084   1.818   2.050  1.1968  0.7410 -0.3201
  964MOL0     H30096   6.109   1.677   2.251 -0.9980  0.1680  1.8672
  964MOL0     H30097   6.103   1.821   2.353 -4.0914 -1.2149 -1.5770
  964MOL0     H30098   6.336   1.775   2.157 -1.9560  2.3723 -1.7280
  964MOL0     H30099   6.328   1.706   2.319  1.8425  0.7474 -0.1651
  964MOL0     H30100   6.455   1.921   2.520 -2.5036 -1.3903 -1.6241
  964MOL0     H30101   6.815   1.860   2.601  2.6351  3.2421 -3.5719
  964MOL0     H30102   6.767   2.022   2.633  1.5786  0.1930 -1.9278
  964MOL0     H30103   6.649   1.893   2.679  1.1361 -1.5769 -0.3093
  964MOL0     H30104   7.044   2.118   2.109 -0.0838 -1.3452  0.7819
  964MOL0     H30105   7.280   2.176   2.029  1.3961 -1.3302  0.1365
  964MOL0     H30106   7.470   2.200   1.980  0.1286  2.1910  0.3073
  964MOL0     H30107   7.480   2.237   2.152 -1.8817 -1.5103  0.3422
  964MOL0     H30108   7.718   2.189   2.175  3.2688  2.7462 -0.7557
  964MOL0     H30109   7.721   2.096   2.019  0.7870 -0.7619 -0.2554
  964MOL0     H30110   7.827   2.323   2.012  0.4521 -4.7025  1.9995
  964MOL0     H30111   7.656   2.390   2.035 -1.4618 -0.5044 -0.1289
  964MOL0     H30112   7.739   2.208   1.799 -1.1563  0.3439 -1.5621
  964MOL0     H30113   7.588   2.281   1.820  1.0167 -0.3954 -0.4828
  964MOL0     H30114   7.838   2.446   1.800  0.0828  2.8934 -1.7565
  964MOL0     H30115   7.674   2.511   1.806 -1.3152 -1.1389  1.0348
  964MOL0     H30116   7.759   2.321   1.585 -0.9728 -1.2165 -0.1565
  964MOL0     H30117   7.604   2.405   1.608 -0.1720  1.6324  1.4395
  964MOL0     H30118   7.872   2.527   1.567 -0.0365 -2.1001  0.8796
  964MOL0     H30119   7.740   2.620   1.623  2.0809 -0.1552  3.3686
  964MOL0     H30120   7.746   2.646   1.391 -1.4994 -0.7199 -2.0419
  964MOL0     H30121   7.607   2.542   1.414  0.4102 -1.1963 -2.2916
  964MOL0     H30122   7.413   1.828   2.219  0.8135 -0.0457  0.8693
  964MOL0     H30123   7.185   1.780   2.319 -0.2236  1.4928  0.8423
  964MOL0     H30124   6.752   1.947   2.139  1.3706  0.2392  0.5767
  964MOL0     H30125   6.503   1.950   2.115  0.6319 -1.8062 -0.3957
  964MOL0     H30126   5.508   2.570   2.186  0.7691  0.7769 -0.4551
  964MOL0     H30127   5.570   2.615   2.422  0.3523  1.5983 -1.2699
  964MOL0     H30128   5.578   2.915   2.717 -0.9312  1.2770 -0.4192
  964MOL0     H30129   5.694   2.992   2.904 -0.3843  1.3622 -4.2061
  964MOL0     H30130   5.443   3.012   3.296 -0.5157 -1.5700 -3.7344
  964MOL0     H30131   5.592   2.920   3.315 -0.5943 -0.5651 -2.0717
  964MOL0     H30132   5.522   3.201   3.388 -0.4471 -0.7825  1.4898
  964MOL0     H30133   5.677   3.185   3.309 -0.2985 -1.7546 -2.6217
  964MOL0     H30134   5.730   2.997   3.477  0.5735  0.3579 -0.0164
  964MOL0     H30135   5.556   3.030   3.537 -2.3559  2.6532 -1.0713
  964MOL0     H30136   5.672   3.112   3.691 -2.3240  0.0971  0.2179
  964MOL0     H30137   5.634   3.257   3.590  1.6229  0.5119  0.8284
  964MOL0     H30138   6.034   3.300   3.663 -0.3903  1.0818 -1.9754
  964MOL0     H30139   5.333   2.911   3.154  0.5258  0.7819  0.0048
  964MOL0     H30140   5.231   2.800   2.959 -0.5076 -0.9657 -1.2634
  965MOL0     O30141   4.009   1.714   4.895  0.3567 -0.1686 -0.3090
  965MOL0     C30142   4.073   1.646   4.823 -0.5979 -0.0029 -0.3208
  965MOL0     O30143   4.054   1.511   4.801  0.4955 -0.8412 -1.1471
  965MOL0     C30144   3.955   1.445   4.863  0.8758 -0.9739 -0.5835
  965MOL0     C30145   3.994   1.367   4.966  1.4002 -0.2400 -0.5559
  965MOL0     C30146   3.890   1.307   5.046 -0.4272  0.6292  0.7016
  965MOL0     C30147   3.753   1.332   5.021 -0.5174 -0.4361  0.1568
  965MOL0     O30148   3.672   1.267   5.106 -0.3764 -0.3012  0.4553
  965MOL0     C30149   3.535   1.249   5.063  0.9727 -0.2478  0.2435
  965MOL0     C30150   3.445   1.193   5.173 -0.6263  0.1335 -0.3513
  965MOL0     C30151   3.425   1.304   5.271 -0.5256  0.2197  0.3756
  965MOL0     C30152   3.339   1.266   5.387  0.6532 -0.1301  0.2104
  965MOL0     C30153   3.285   1.384   5.474 -0.8406 -0.1045 -0.4476
  965MOL0     C30154   3.147   1.438   5.420 -0.0781  0.5981 -0.0485
  965MOL0     C30155   3.050   1.507   5.527 -0.4857  0.9580 -0.8358
  965MOL0     C30156   2.933   1.569   5.445  0.7190 -0.3700  0.5290
  965MOL0     N30157   2.850   1.649   5.540 -0.8707  1.1107 -0.0377
  965MOL0     C30158   2.833   1.781   5.526  0.4075  0.0739 -0.1246
  965MOL0     C30159   2.708   1.812   5.573 -0.6199  0.1968 -0.3988
  965MOL0     C30160   2.632   1.938   5.553 -0.5965 -0.0119 -0.4345
  965MOL0     C30161   2.596   1.973   5.405 -1.2229 -0.1478 -0.2352
  965MOL0     C30162   2.535   1.849   5.334 -0.1752 -1.0223  0.0949
  965MOL0     C30163   2.386   1.826   5.380 -0.0487  0.6763  0.5157
  965MOL0     O30164   2.320   1.752   5.279 -0.0217  0.1275 -0.8866
  965MOL0     C30165   2.358   1.626   5.263  0.4842  0.2634 -0.1970
  965MOL0     C30166   2.445   1.552   5.343 -0.0020  0.8683  1.5471
  965MOL0     C30167   2.467   1.413   5.320 -0.5421 -0.2464  0.1691
  965MOL0     C30168   2.567   1.343   5.405 -0.1442 -0.9189 -0.6602
  965MOL0     C30169   2.392   1.347   5.227 -0.5764  0.9113  0.5169
  965MOL0     C30170   2.399   1.203   5.191  0.4194 -0.3794 -0.2346
  965MOL0     O30171   2.340   1.165   5.079 -0.2815  0.4226 -0.6626
  965MOL0     C30172   2.309   1.026   5.059  0.3935 -0.1568 -0.8675
  965MOL0     C30173   2.211   0.965   5.136 -0.8392 -0.4201  0.3802
  965MOL0     C30174   2.177   0.837   5.120  0.7210  0.3499 -0.8292
  965MOL0     C30175   2.246   0.752   5.032 -0.1546 -0.8990  0.1526
  965MOL0     O30176   2.204   0.625   5.034 -0.3452  0.9687  0.9360
  965MOL0     C30177   2.251   0.536   4.930 -0.0067  1.3542  0.0494
  965MOL0     C30178   2.385   0.462   4.972 -0.3095 -1.2337 -0.7224
  965MOL0     C30179   2.361   0.362   5.086 -0.8297  0.2481 -0.2504
  965MOL0     C30180   2.493   0.308   5.129 -0.4020 -0.3744 -0.2746
  965MOL0     C30181   2.546   0.194   5.043 -0.7091 -0.7424  0.1933
  965MOL0     C30182   2.659   0.130   5.111  0.1123  0.3134 -0.7104
  965MOL0     C30183   2.731   0.032   5.030  0.2493  0.3741 -0.0152
  965MOL0     C30184   2.821   0.094   4.917  0.0297  0.6767  0.6320
  965MOL0    Cl30185   2.916  -0.041   4.854 -0.2136  0.0328 -0.8284
  965MOL0     C30186   2.349   0.811   4.956 -0.6293  0.1105 -0.0845
  965MOL0     C30187   2.377   0.949   4.967  0.0992  0.1591 -0.1634
  965MOL0     O30188   2.451   1.132   5.272 -0.0893  0.6305  0.0999
  965MOL0     C30189   2.299   1.421   5.149  0.6179  0.2499 -0.7489
  965MOL0     C30190   2.286   1.563   5.163 -0.4205  0.1280 -0.0076
  965MOL0     N30191   2.651   1.695   5.617 -0.0063 -0.0152  0.4443
  965MOL0     N30192   2.738   1.598   5.608 -0.6592  0.2804 -0.0085
  965MOL0     C30193   3.724   1.419   4.912  0.7665 -0.1158 -0.0251
  965MOL0     C30194   3.823   1.480   4.832  0.6554 -0.1028 -0.7165
  965MOL0     C30195   4.181   1.709   4.756 -0.4181 -0.2973  0.4910
  965MOL0     C30196   4.282   1.628   4.703 -0.1495  0.9128 -0.9724
  965MOL0     C30197   4.400   1.678   4.647 -0.3109  0.7578  0.2041
  965MOL0     C30198   4.419   1.817   4.641 -0.4797  1.2240 -0.5144
  965MOL0     O30199   4.531   1.873   4.606 -0.4535 -0.0346  0.7275
  965MOL0     C30200   4.648   1.783   4.585  0.4793 -0.1274  0.3309
  965MOL0     C30201   4.772   1.853   4.530 -0.3312 -0.6532  0.0214
  965MOL0     C30202   4.902   1.770   4.560 -0.1944 -0.8211 -0.5845
  965MOL0     C30203   5.022   1.818   4.469 -0.1591  0.4897 -0.2735
  965MOL0     C30204   5.150   1.814   4.550  0.2341  0.5823  0.0534
  965MOL0     C30205   5.250   1.815   4.616  0.4720  0.3219 -1.0001
  965MOL0     C30206   4.326   1.899   4.697  0.0730 -0.1688 -0.1673
  965MOL0     C30207   4.207   1.852   4.755  0.2395  0.8822  0.2154
  965MOL0     H30208   4.099   1.360   4.994  2.4083  3.0933 -2.8911
  965MOL0     H30209   3.922   1.244   5.128  1.8714  0.5833 -0.1545
  965MOL0     H30210   3.488   1.336   5.017  0.2362 -1.9403 -2.4310
  965MOL0     H30211   3.534   1.170   4.988 -2.6596 -1.3631  1.2151
  965MOL0     H30212   3.348   1.158   5.137  0.4613 -1.1555 -2.1894
  965MOL0     H30213   3.499   1.105   5.210 -0.2187  0.8779  0.9026
  965MOL0     H30214   3.511   1.353   5.318  1.1818 -1.6818 -0.6047
  965MOL0     H30215   3.377   1.380   5.209  1.3628  0.5924 -0.7202
  965MOL0     H30216   3.251   1.208   5.356  0.0423  0.9417 -0.1445
  965MOL0     H30217   3.373   1.199   5.466 -0.7703 -0.8001  0.2896
  965MOL0     H30218   3.270   1.332   5.569 -0.2278 -0.6520 -0.6449
  965MOL0     H30219   3.351   1.470   5.493 -2.6138  0.8181  2.0756
  965MOL0     H30220   3.163   1.504   5.334 -2.3358  0.3717 -0.7088
  965MOL0     H30221   3.092   1.352   5.380  1.1765  0.2523 -1.0882
  965MOL0     H30222   3.010   1.429   5.592  3.3885 -0.0411  0.6290
  965MOL0     H30223   3.104   1.577   5.592 -0.1818 -0.0250 -0.0040
  965MOL0     H30224   2.869   1.492   5.399  0.2195 -0.1260  0.8181
  965MOL0     H30225   2.960   1.631   5.359 -4.3711 -0.0839 -1.2175
  965MOL0     H30226   2.901   1.845   5.471 -0.2754  1.9907  1.1890
  965MOL0     H30227   2.547   1.932   5.620  0.5231 -0.7398  0.9768
  965MOL0     H30228   2.693   2.015   5.601 -0.0273  1.0203 -2.6628
  965MOL0     H30229   2.679   2.006   5.342  0.2698 -1.0334  1.1894
  965MOL0     H30230   2.520   2.052   5.402  0.1376  1.1815 -1.7904
  965MOL0     H30231   2.600   1.761   5.333 -0.4984 -1.3536 -2.9847
  965MOL0     H30232   2.531   1.873   5.227  1.5975  2.7211  0.6956
  965MOL0     H30233   2.329   1.918   5.395 -1.0764  0.4816 -1.7194
  965MOL0     H30234   2.387   1.767   5.472 -1.7087  0.1109  0.2007
  965MOL0     H30235   2.506   1.599   5.419  1.1888  1.1262  0.4642
  965MOL0     H30236   2.522   1.274   5.478  0.0338 -2.5817 -2.0579
  965MOL0     H30237   2.648   1.296   5.349  1.8070  0.6280  0.7095
  965MOL0     H30238   2.612   1.428   5.458  0.3733 -0.8773 -1.1600
  965MOL0     H30239   2.159   1.030   5.205 -0.6329 -2.5228  2.6229
  965MOL0     H30240   2.096   0.791   5.175 -0.3219  2.1468 -0.7932
  965MOL0     H30241   2.186   0.453   4.901  0.7038  0.8585 -0.1378
  965MOL0     H30242   2.267   0.584   4.834 -0.8851  2.7781  0.5717
  965MOL0     H30243   2.416   0.406   4.883 -3.3002 -3.5588 -0.4683
  965MOL0     H30244   2.454   0.540   5.005  0.0744 -1.3474 -1.2437
  965MOL0     H30245   2.292   0.281   5.062  2.1491 -2.8597  0.7852
  965MOL0     H30246   2.313   0.422   5.163  1.0637  1.6029 -0.0438
  965MOL0     H30247   2.565   0.390   5.134  1.2307 -1.7803  0.6274
  965MOL0     H30248   2.486   0.273   5.233 -2.8043  1.2057  0.1809
  965MOL0     H30249   2.582   0.237   4.949  0.7367 -0.3447  0.8802
  965MOL0     H30250   2.462   0.128   5.022 -2.2723  0.7892  1.4056
  965MOL0     H30251   2.730   0.201   5.153  0.5371  0.7998 -2.1676
  965MOL0     H30252   2.610   0.086   5.198 -2.5330  2.1131 -1.1642
  965MOL0     H30253   2.660  -0.040   4.987 -0.1343  0.0772  1.0959
  965MOL0     H30254   2.788  -0.028   5.102 -1.0484  0.2344  0.9146
  965MOL0     H30255   2.890   0.169   4.958  0.6725 -1.1046  3.0239
  965MOL0     H30256   2.758   0.135   4.837 -1.9335  0.7538  2.1326
  965MOL0     H30257   2.403   0.748   4.886  1.1816  1.8911 -0.3919
  965MOL0     H30258   2.455   0.994   4.906  2.0758  2.3623  3.6264
  965MOL0     H30259   2.238   1.385   5.067 -1.5930  0.5499  0.6854
  965MOL0     H30260   2.213   1.609   5.096 -0.1576 -0.9406 -1.0668
  965MOL0     H30261   3.620   1.449   4.905  1.4582  2.9711  1.2387
  965MOL0     H30262   3.810   1.563   4.763  4.3436  1.6456  0.4734
  965MOL0     H30263   4.281   1.520   4.711  0.2375  1.0442  1.5291
  965MOL0     H30264   4.467   1.601   4.612  1.6370  2.1465  0.7141
  965MOL0     H30265   4.669   1.749   4.687 -0.6013 -0.1436  0.5578
  965MOL0     H30266   4.627   1.698   4.520 -1.2465  0.2916  0.2793
  965MOL0     H30267   4.786   1.951   4.576 -1.4352  0.0144 -1.0155
  965MOL0     H30268   4.769   1.868   4.422 -0.9153  1.2101  0.2725
  965MOL0     H30269   4.891   1.662   4.543  0.7915 -1.0101 -0.1235
  965MOL0     H30270   4.925   1.795   4.664 -1.7181 -0.9879 -0.1762
  965MOL0     H30271   4.994   1.917   4.434 -1.3107 -0.3844 -1.9654
  965MOL0     H30272   5.020   1.755   4.379 -0.3737  0.2183 -0.0805
  965MOL0     H30273   5.338   1.824   4.677  1.1594  1.0540 -2.0641
  965MOL0     H30274   4.360   2.003   4.696 -0.6352  0.0683 -0.4564
  965MOL0     H30275   4.145   1.933   4.791  2.8676  3.3624 -0.4711
  966MOL0     O30276   6.788  10.869  10.643 -0.5101  0.3294  0.6819
  966MOL0     C30277   6.799  10.956  10.728  0.1692 -0.9777 -0.5835
  966MOL0     O30278   6.691  11.041  10.767  0.1058 -0.2146 -0.5019
  966MOL0     C30279   6.566  10.998  10.726  1.0484  0.5189  0.8269
  966MOL0     C30280   6.491  10.902  10.800  1.3786 -0.4222  1.1395
  966MOL0     C30281   6.362  10.870  10.755 -0.8872 -0.2954 -1.0898
  966MOL0     C30282   6.298  10.932  10.645  0.2539  0.7620 -0.2838
  966MOL0     O30283   6.170  10.908  10.597  0.4449  0.3959  0.5032
  966MOL0     C30284   6.120  10.786  10.642  0.0943  0.2458 -0.2854
  966MOL0     C30285   6.004  10.760  10.548 -0.2915  0.7776 -0.0621
  966MOL0     C30286   5.932  10.637  10.597  0.0150  0.2576 -0.6405
  966MOL0     C30287   5.781  10.651  10.571 -0.3295  0.1925  0.3208
  966MOL0     C30288   5.715  10.529  10.641  0.7813  0.0812  0.9627
  966MOL0     C30289   5.563  10.514  10.626 -0.0610  0.0918  0.3746
  966MOL0     C30290   5.493  10.609  10.721 -0.2284  0.5463 -0.7733
  966MOL0     C30291   5.342  10.564  10.735 -1.4582  0.5023  0.7927
  966MOL0     N30292   5.270  10.661  10.810  0.0496 -0.8005  0.4508
  966MOL0     C30293   5.230  10.775  10.743  0.9180 -0.9124  0.4383
  966MOL0     C30294   5.152  10.848  10.828 -0.9367 -0.0291 -0.1035
  966MOL0     C30295   5.101  10.979  10.797  0.8130  0.0838  0.3959
  966MOL0     C30296   5.143  11.066  10.916  0.4279 -0.5014 -1.3736
  966MOL0     C30297   5.123  11.215  10.894  0.1968  0.4106  0.1707
  966MOL0     C30298   5.241  11.276  10.808 -0.8385 -0.4088 -0.0005
  966MOL0     O30299   5.208  11.416  10.801 -0.0934  0.0409 -0.0013
  966MOL0     C30300   5.317  11.496  10.794  0.0521  0.9227 -0.4730
  966MOL0     C30301   5.439  11.473  10.725  0.2343  0.0878 -0.4506
  966MOL0     C30302   5.543  11.565  10.720  0.5473  0.7062  0.6636
  966MOL0     C30303   5.667  11.510  10.644  0.3085 -0.9375 -0.1534
  966MOL0     C30304   5.528  11.692  10.783 -0.4286  0.7985  0.1617
  966MOL0     C30305   5.639  11.786  10.800  0.0036  0.4593  0.5926
  966MOL0     O30306   5.606  11.906  10.847 -1.3326  0.3414 -0.2366
  966MOL0     C30307   5.707  11.974  10.914  0.4151 -0.1639 -0.0380
  966MOL0     C30308   5.748  11.942  11.046  0.1530  0.0105  0.2788
  966MOL0     C30309   5.850  12.029  11.104 -0.2131 -0.3060 -0.1903
  966MOL0     C30310   5.909  12.134  11.029 -0.1163 -0.1611 -0.0777
  966MOL0     O30311   5.993  12.233  11.077 -0.0455 -0.1151  0.7035
  966MOL0     C30312   6.062  12.210  11.205 -0.2028  0.4109 -0.2032
  966MOL0     C30313   6.174  12.111  11.210  0.4653  0.9672 -0.2019
  966MOL0     C30314   6.271  12.122  11.329  0.0302  0.2323  0.3832
  966MOL0     C30315   6.204  12.077  11.460 -0.2630  0.2547  0.3773
  966MOL0     C30316   6.252  11.943  11.521  0.5556 -0.0323 -1.2623
  966MOL0     C30317   6.178  11.924  11.661  0.4727  0.1728  1.0290
  966MOL0     C30318   6.035  11.870  11.664  0.0135  0.3601 -0.6197
  966MOL0     C30319   5.986  11.806  11.796 -0.2803 -0.3561  0.2800
  966MOL0    Cl30320   5.985  11.933  11.921  0.0258 -0.1325 -0.1758
  966MOL0     C30321   5.861  12.159  10.898 -0.0890  0.0187  0.0063
  966MOL0     C30322   5.761  12.078  10.840  0.2477 -0.3689  0.6015
  966MOL0     O30323   5.749  11.759  10.759 -0.0936 -0.4882  0.1890
  966MOL0     C30324   5.397  11.724  10.836  0.2453  0.5389 -0.2783
  966MOL0     C30325   5.294  11.626  10.833 -0.2710  0.4585 -0.0780
  966MOL0     N30326   5.162  10.786  10.958  0.4253 -0.0589 -0.0707
  966MOL0     N30327   5.245  10.684  10.944  1.0923  0.0495 -0.0468
  966MOL0     C30328   6.365  11.027  10.575  0.0755  0.0269 -0.0561
  966MOL0     C30329   6.493  11.063  10.615 -0.1405  0.1975  0.3076
  966MOL0     C30330   6.928  10.972  10.805 -0.7628  0.2722 -0.3774
  966MOL0     C30331   6.952  11.080  10.891  0.3164  0.0744  0.7601
  966MOL0     C30332   7.081  11.105  10.949 -0.3774  0.1001 -0.0231
  966MOL0     C30333   7.190  11.027  10.915 -1.2840 -0.3370 -0.2059
  966MOL0     O30334   7.320  11.056  10.972 -0.3196  0.3072  0.1380
  966MOL0     C30335   7.410  10.947  10.979  0.2506  0.1942 -0.4885
  966MOL0     C30336   7.530  10.979  11.067  0.7018 -0.2544  0.3780
  966MOL0     C30337   7.627  10.859  11.081  0.1784 -0.7697  0.1036
  966MOL0     C30338   7.758  10.893  11.154 -0.2339 -0.7409 -0.0415
  966MOL0     C30339   7.757  11.027  11.202  0.3583 -0.4902 -0.0157
  966MOL0     C30340   7.757  11.140  11.237  0.1736 -0.9394  1.0190
  966MOL0     C30341   7.161  10.911  10.840 -0.3452  0.2733  0.5293
  966MOL0     C30342   7.037  10.890  10.778 -0.6203  0.1216  0.6839
  966MOL0     H30343   6.527  10.852  10.890  0.8268 -0.9123  1.0929
  966MOL0     H30344   6.304  10.807  10.822 -1.5108  1.3463 -0.0300
  966MOL0     H30345   6.190  10.701  10.636 -0.6750 -0.5298  1.2253
  966MOL0     H30346   6.074  10.797  10.740 -0.8329  1.9643 -0.8858
  966MOL0     H30347   5.930  10.841  10.549  0.1821  1.2557 -1.2738
  966MOL0     H30348   6.034  10.736  10.445  0.6608 -0.5513  0.5029
  966MOL0     H30349   5.968  10.547  10.548 -1.9542 -0.9993  0.0996
  966MOL0     H30350   5.939  10.624  10.706  1.1859  0.4791 -0.6849
  966MOL0     H30351   5.750  10.742  10.623 -0.9651  0.0885  0.1387
  966MOL0     H30352   5.752  10.652  10.465 -2.3302  0.6566  0.8308
  966MOL0     H30353   5.764  10.442  10.599 -2.1802 -1.5539  0.5985
  966MOL0     H30354   5.729  10.540  10.749 -0.8302  0.5940  1.1535
  966MOL0     H30355   5.530  10.516  10.521 -0.3235 -1.0284  0.4235
  966MOL0     H30356   5.537  10.416  10.666 -0.5213  0.0819  0.0755
  966MOL0     H30357   5.535  10.611  10.822  0.1908  0.4093 -0.9400
  966MOL0     H30358   5.497  10.711  10.681 -1.4240  0.9154  0.0018
  966MOL0     H30359   5.327  10.469  10.787  2.1736  0.0705  1.3137
  966MOL0     H30360   5.305  10.548  10.633  0.7892 -3.6186  0.3943
  966MOL0     H30361   5.252  10.804  10.640  1.2418 -1.9201  0.2107
  966MOL0     H30362   5.133  11.009  10.697  0.1716  0.6242  0.3444
  966MOL0     H30363   4.992  10.980  10.790  0.8708 -0.9592 -1.1753
  966MOL0     H30364   5.247  11.041  10.939  0.0799 -0.5623  0.2940
  966MOL0     H30365   5.078  11.038  10.999 -0.4957  2.4810 -0.9414
  966MOL0     H30366   5.130  11.267  10.990  2.6080 -2.8312  1.9755
  966MOL0     H30367   5.023  11.224  10.852 -1.3720 -3.3690  2.5850
  966MOL0     H30368   5.234  11.236  10.706  3.5322  0.5358 -0.8559
  966MOL0     H30369   5.333  11.249  10.860 -0.6143  0.9131  0.3443
  966MOL0     H30370   5.473  11.376  10.690  0.1089  0.4516 -1.6281
  966MOL0     H30371   5.760  11.532  10.696  1.3130  1.0669 -2.5709
  966MOL0     H30372   5.670  11.403  10.621 -2.4263 -0.4831 -3.5643
  966MOL0     H30373   5.678  11.566  10.551  1.9148 -2.0309 -0.6757
  966MOL0     H30374   5.693  11.860  11.092  0.1264 -0.8944 -1.3031
  966MOL0     H30375   5.882  12.006  11.205  0.3154  2.0774  0.2453
  966MOL0     H30376   6.112  12.304  11.230 -0.0253  0.6357 -1.3617
  966MOL0     H30377   5.979  12.189  11.273 -0.6532  1.5165 -0.3975
  966MOL0     H30378   6.136  12.010  11.229  2.5769  0.6711  3.3086
  966MOL0     H30379   6.226  12.111  11.113  0.1649 -0.3955 -0.3885
  966MOL0     H30380   6.298  12.228  11.335  1.9161  0.2898 -4.4965
  966MOL0     H30381   6.370  12.080  11.315 -0.8353 -2.4680  1.6899
  966MOL0     H30382   6.226  12.158  11.531 -0.4907  1.8841 -1.3248
  966MOL0     H30383   6.097  12.057  11.447  0.0171 -1.6926  0.7464
  966MOL0     H30384   6.361  11.948  11.535  0.8604  2.1818 -3.7859
  966MOL0     H30385   6.236  11.857  11.456  1.0790  0.2407 -1.7632
  966MOL0     H30386   6.233  11.851  11.721  0.0824  1.0541  2.5077
  966MOL0     H30387   6.180  12.017  11.719  1.9191  0.5287  0.4668
  966MOL0     H30388   6.017  11.793  11.588  1.2334 -0.1304 -0.4464
  966MOL0     H30389   5.969  11.954  11.647  0.5948  0.7158 -1.1486
  966MOL0     H30390   6.053  11.733  11.842 -2.7115 -1.5364  2.1604
  966MOL0     H30391   5.893  11.751  11.785 -0.1908 -1.1311  2.8689
  966MOL0     H30392   5.912  12.240  10.847  0.6730  0.2892  1.1430
  966MOL0     H30393   5.724  12.082  10.738  0.5296 -2.3661  0.3687
  966MOL0     H30394   5.370  11.826  10.860  1.4130  1.7198 -3.4072
  966MOL0     H30395   5.192  11.635  10.870  0.0644 -1.1644  1.3674
  966MOL0     H30396   6.318  11.073  10.489  0.7802  0.2961 -0.3127
  966MOL0     H30397   6.528  11.152  10.565 -1.3196  1.7057  2.0353
  966MOL0     H30398   6.874  11.155  10.906  0.0279  0.1497 -0.9229
  966MOL0     H30399   7.103  11.195  11.006 -2.7109  1.0955 -0.5969
  966MOL0     H30400   7.366  10.852  11.013  2.2482 -0.1681  1.2867
  966MOL0     H30401   7.448  10.917  10.881  1.2582  3.1521 -1.0857
  966MOL0     H30402   7.505  11.017  11.167  1.6808 -0.2598  0.6352
  966MOL0     H30403   7.577  11.064  11.016 -0.9000 -1.6394 -3.8193
  966MOL0     H30404   7.644  10.812  10.984 -0.7029  0.5361 -0.7269
  966MOL0     H30405   7.576  10.785  11.143 -0.4548  0.3976  1.0302
  966MOL0     H30406   7.840  10.881  11.083  1.2506  0.3694  1.4063
  966MOL0     H30407   7.772  10.828  11.241 -1.3123  0.9463  1.4720
  966MOL0     H30408   7.747  11.243  11.263  2.4930 -0.0760 -1.0758
  966MOL0     H30409   7.238  10.837  10.819 -3.3405 -3.0800  0.5073
  966MOL0     H30410   7.019  10.809  10.709  3.1752 -0.1883 -0.1127
  967MOL0     O30411   0.960   7.436   7.370 -0.1523 -0.1319  0.1844
  967MOL0     C30412   0.918   7.359   7.280  0.8582 -1.1076  0.0829
  967MOL0     O30413   0.983   7.311   7.170 -0.0834 -0.1150  0.1235
  967MOL0     C30414   1.122   7.314   7.165 -0.5448  0.3216  0.0574
  967MOL0     C30415   1.181   7.349   7.044  0.9580 -1.4550  0.2383
  967MOL0     C30416   1.323   7.390   7.054 -0.1303  0.2382  0.4397
  967MOL0     C30417   1.399   7.370   7.169 -0.1477 -0.2113  0.1271
  967MOL0     O30418   1.531   7.414   7.166 -0.6155 -0.4812 -0.3452
  967MOL0     C30419   1.622   7.381   7.271 -0.0368 -0.4974  0.1319
  967MOL0     C30420   1.760   7.436   7.233  0.3946  0.0220 -0.8181
  967MOL0     C30421   1.873   7.387   7.324 -0.6019 -0.4422 -0.0286
  967MOL0     C30422   2.012   7.450   7.267  0.7879 -0.1937  0.7700
  967MOL0     C30423   2.137   7.392   7.343 -0.0720 -0.6032  0.4583
  967MOL0     C30424   2.157   7.246   7.320 -0.6763  0.1003 -0.1955
  967MOL0     C30425   2.263   7.198   7.421  0.7797 -0.4173  0.8046
  967MOL0     C30426   2.221   7.070   7.504  0.6872 -0.2790 -0.4278
  967MOL0     N30427   2.328   6.975   7.516  0.9264 -0.2829  0.4321
  967MOL0     C30428   2.369   6.885   7.427  0.0024 -0.0027  0.9885
  967MOL0     C30429   2.479   6.827   7.475  0.7312 -0.0387 -0.5622
  967MOL0     C30430   2.563   6.714   7.423 -0.2558  0.3424  0.6001
  967MOL0     C30431   2.571   6.588   7.500 -0.1614 -0.4664 -0.2360
  967MOL0     C30432   2.693   6.503   7.457  0.6243 -0.3217 -0.5009
  967MOL0     C30433   2.666   6.344   7.444 -0.1183 -0.3399 -0.7924
  967MOL0     O30434   2.604   6.318   7.315  0.0517 -0.2947 -0.5591
  967MOL0     C30435   2.551   6.191   7.323 -1.1181  0.3187 -0.3394
  967MOL0     C30436   2.426   6.169   7.278  1.0334 -0.1274 -0.8024
  967MOL0     C30437   2.365   6.039   7.294 -0.0195 -0.1286  0.5864
  967MOL0     C30438   2.231   6.022   7.224  0.8128  0.8516 -0.6769
  967MOL0     C30439   2.430   5.928   7.364 -0.7550  0.4946  0.1951
  967MOL0     C30440   2.378   5.793   7.398  0.1342  0.3709  0.1865
  967MOL0     O30441   2.460   5.710   7.472  0.0101 -0.7711  0.3794
  967MOL0     C30442   2.452   5.574   7.494 -0.3949 -0.2176 -0.2952
  967MOL0     C30443   2.348   5.482   7.454 -0.2588 -0.1422 -0.5215
  967MOL0     C30444   2.362   5.348   7.472 -0.1520 -0.2879  0.0175
  967MOL0     C30445   2.471   5.309   7.543 -0.8206 -0.4201  0.0415
  967MOL0     O30446   2.485   5.165   7.545 -0.0199 -0.2918 -0.2234
  967MOL0     C30447   2.605   5.095   7.572  0.1385 -0.0670  0.1504
  967MOL0     C30448   2.594   4.941   7.576 -0.6494 -0.8589 -1.0081
  967MOL0     C30449   2.725   4.887   7.519 -0.4291 -0.6317  0.6158
  967MOL0     C30450   2.719   4.730   7.516 -1.0661  0.2159  0.1010
  967MOL0     C30451   2.734   4.698   7.671  1.1917  0.9455 -0.1915
  967MOL0     C30452   2.742   4.546   7.712  0.3244 -0.6594 -0.7944
  967MOL0     C30453   2.877   4.479   7.664 -0.4485 -0.6475 -0.5271
  967MOL0     C30454   2.937   4.411   7.791  1.2582  0.0437  0.1506
  967MOL0    Cl30455   2.848   4.268   7.850  0.0413 -0.0348  0.2695
  967MOL0     C30456   2.574   5.387   7.593  0.0988 -1.0653 -0.0746
  967MOL0     C30457   2.562   5.525   7.559 -0.5591 -0.7137  0.7163
  967MOL0     O30458   2.282   5.749   7.333  0.0636  0.5232 -0.1685
  967MOL0     C30459   2.565   5.958   7.400  0.1475  1.0424  0.6577
  967MOL0     C30460   2.621   6.082   7.379  0.2516 -0.3533  0.8705
  967MOL0     N30461   2.498   6.886   7.602 -1.0052  0.5377  0.0825
  967MOL0     N30462   2.406   6.972   7.630  0.2988  0.6124  0.1009
  967MOL0     C30463   1.331   7.313   7.278  0.2083  0.0768  0.3285
  967MOL0     C30464   1.196   7.289   7.276  0.2013  0.9232  0.8533
  967MOL0     C30465   0.772   7.342   7.295 -0.0287  0.6368 -0.0273
  967MOL0     C30466   0.687   7.414   7.388 -0.7776  0.2049  0.7541
  967MOL0     C30467   0.555   7.392   7.373  0.9696 -0.1435 -0.1984
  967MOL0     C30468   0.498   7.310   7.275 -0.3691 -0.3850  0.1143
  967MOL0     O30469   0.359   7.301   7.264  0.3386  0.0751 -0.1708
  967MOL0     C30470   0.312   7.156   7.296 -0.1017 -0.8741 -0.1381
  967MOL0     C30471   0.331   7.136   7.447 -0.0843  0.6975  0.7796
  967MOL0     C30472   0.414   7.013   7.476 -0.6543 -0.1987  0.4483
  967MOL0     C30473   0.544   7.047   7.557  0.5867 -0.3425 -0.0627
  967MOL0     C30474   0.624   6.928   7.563 -0.5537 -0.0871  0.5929
  967MOL0     C30475   0.699   6.834   7.582  0.3993  0.3210  0.9270
  967MOL0     C30476   0.579   7.255   7.177  1.0619  0.2508 -0.2585
  967MOL0     C30477   0.713   7.277   7.184 -0.4605  0.3694 -0.2937
  967MOL0     H30478   1.113   7.370   6.962 -0.3254 -0.6132  1.4787
  967MOL0     H30479   1.388   7.430   6.977  2.7471  0.3492  2.7420
  967MOL0     H30480   1.585   7.419   7.367 -0.1189 -1.6888  0.5935
  967MOL0     H30481   1.632   7.273   7.287  0.1976 -0.5366 -0.2537
  967MOL0     H30482   1.785   7.399   7.132 -0.8851 -2.4355 -0.3246
  967MOL0     H30483   1.755   7.545   7.225 -0.5937  0.2298  1.7183
  967MOL0     H30484   1.856   7.424   7.426  0.5553  1.1148 -0.3755
  967MOL0     H30485   1.872   7.277   7.330 -0.4933 -0.3767  2.3236
  967MOL0     H30486   2.017   7.418   7.162 -0.0134  1.0055  0.3412
  967MOL0     H30487   2.014   7.559   7.278  1.4721  0.2295 -2.4194
  967MOL0     H30488   2.229   7.442   7.312  2.0150 -1.7054  4.1400
  967MOL0     H30489   2.129   7.416   7.450  3.2652 -0.5870  0.8012
  967MOL0     H30490   2.065   7.188   7.329 -1.2847  1.1896  0.9235
  967MOL0     H30491   2.195   7.227   7.220 -0.1097  0.8286 -0.1279
  967MOL0     H30492   2.361   7.174   7.378 -0.0970 -2.4003 -0.1780
  967MOL0     H30493   2.278   7.279   7.494  0.7848 -0.9582  1.4147
  967MOL0     H30494   2.137   7.015   7.459  2.3679 -2.2315 -1.3701
  967MOL0     H30495   2.194   7.102   7.605  3.1193  3.5167 -0.7876
  967MOL0     H30496   2.325   6.865   7.330 -1.3902  2.0527  1.1292
  967MOL0     H30497   2.547   6.691   7.317 -0.0746 -0.1049  0.6706
  967MOL0     H30498   2.660   6.762   7.409 -0.8194  1.3583 -0.0159
  967MOL0     H30499   2.483   6.522   7.501 -1.6019  1.2668  2.8145
  967MOL0     H30500   2.585   6.615   7.605 -0.0247 -4.2495  0.8441
  967MOL0     H30501   2.766   6.520   7.537 -0.2562 -1.3462  0.5633
  967MOL0     H30502   2.734   6.549   7.367  0.5244  0.9942  0.0950
  967MOL0     H30503   2.603   6.322   7.530  1.3024 -0.0207  0.3773
  967MOL0     H30504   2.758   6.290   7.467  0.5133  1.1154  0.2349
  967MOL0     H30505   2.366   6.247   7.232 -1.7635 -1.0437  1.0233
  967MOL0     H30506   2.165   5.983   7.302  1.8195  1.6297  0.6118
  967MOL0     H30507   2.192   6.118   7.188  0.0232  1.0819  0.7217
  967MOL0     H30508   2.238   5.949   7.143  0.2582 -1.8820  1.5639
  967MOL0     H30509   2.264   5.515   7.394  1.2357 -1.2779 -3.4967
  967MOL0     H30510   2.291   5.271   7.443 -1.9231  0.1439  2.8134
  967MOL0     H30511   2.695   5.120   7.515  2.8770 -2.0493  3.2388
  967MOL0     H30512   2.632   5.123   7.674  2.8885 -0.6741 -0.3249
  967MOL0     H30513   2.580   4.932   7.684  3.8085 -1.3636 -0.2746
  967MOL0     H30514   2.508   4.905   7.519 -1.8641  1.0955 -0.4985
  967MOL0     H30515   2.815   4.921   7.571  1.6951  0.2286 -3.1901
  967MOL0     H30516   2.728   4.930   7.418  1.0077  1.2503  1.3891
  967MOL0     H30517   2.624   4.682   7.489  0.1439 -2.1928 -0.2233
  967MOL0     H30518   2.805   4.687   7.462 -0.0742  0.6545  1.2845
  967MOL0     H30519   2.646   4.728   7.728 -0.6869 -4.7276  0.4309
  967MOL0     H30520   2.825   4.752   7.703  1.8563 -1.8409  3.1880
  967MOL0     H30521   2.739   4.532   7.821  1.9212  1.3709 -0.4386
  967MOL0     H30522   2.656   4.485   7.682 -0.4284  0.3233 -0.7033
  967MOL0     H30523   2.956   4.550   7.636  1.4456 -1.4814  2.3335
  967MOL0     H30524   2.869   4.413   7.577  2.2131 -1.1618 -0.4509
  967MOL0     H30525   2.953   4.479   7.875  0.8165 -2.0238  1.9781
  967MOL0     H30526   3.035   4.374   7.762  1.1367  0.2171 -0.5030
  967MOL0     H30527   2.665   5.355   7.644  2.2547  1.6088 -1.9296
  967MOL0     H30528   2.642   5.593   7.587 -0.6659 -0.8677  1.4061
  967MOL0     H30529   2.630   5.882   7.441 -0.3455 -0.5999 -1.4435
  967MOL0     H30530   2.723   6.086   7.417 -0.0067 -0.6898  1.6174
  967MOL0     H30531   1.367   7.277   7.373 -0.4347  0.9302  0.9095
  967MOL0     H30532   1.143   7.247   7.361 -0.6573 -0.2708 -0.2324
  967MOL0     H30533   0.725   7.465   7.476  2.9369 -3.8028  1.8633
  967MOL0     H30534   0.487   7.443   7.439  0.8028 -0.1148 -0.3915
  967MOL0     H30535   0.206   7.137   7.282 -0.4398  1.3354 -0.8377
  967MOL0     H30536   0.364   7.092   7.223  0.8100 -0.8774  0.4939
  967MOL0     H30537   0.237   7.115   7.498  0.9067 -2.6657  1.5134
  967MOL0     H30538   0.372   7.224   7.499  4.4744 -1.3031  1.0692
  967MOL0     H30539   0.434   6.959   7.383  2.6918  3.2524 -1.1027
  967MOL0     H30540   0.353   6.950   7.542 -0.3080  1.1426  2.1151
  967MOL0     H30541   0.508   7.076   7.657 -2.7539 -2.9948 -0.3030
  967MOL0     H30542   0.594   7.136   7.518 -2.1366  1.5964  0.4748
  967MOL0     H30543   0.754   6.744   7.602 -4.5531 -3.3789 -0.2581
  967MOL0     H30544   0.535   7.201   7.093 -0.9091  0.2559  0.7204
  967MOL0     H30545   0.769   7.220   7.111  1.4772  1.5799  0.1630
  968MOL0     O30546   8.716   5.768   9.994 -0.4428 -1.1468  0.6265
  968MOL0     C30547   8.696   5.893   9.983  0.7992 -0.5095  0.2413
  968MOL0     O30548   8.600   5.957  10.060  0.1282 -0.3509  0.4409
  968MOL0     C30549   8.543   5.914  10.179 -0.3776  0.2840 -0.2821
  968MOL0     C30550   8.604   5.823  10.265  0.3720 -0.0874  0.0600
  968MOL0     C30551   8.557   5.803  10.395  0.4368 -0.3004  0.1193
  968MOL0     C30552   8.446   5.881  10.438 -0.0838  0.4423 -0.0713
  968MOL0     O30553   8.386   5.831  10.544 -0.2916  0.5117 -0.5563
  968MOL0     C30554   8.343   5.932  10.640  0.4269  0.3443 -0.3750
  968MOL0     C30555   8.240   5.868  10.742 -0.0919  0.1786 -0.0884
  968MOL0     C30556   8.180   5.969  10.841  0.0035  0.5198  0.0700
  968MOL0     C30557   8.094   6.093  10.797 -0.1314 -0.0047 -0.1066
  968MOL0     C30558   8.085   6.180  10.911  0.3034  0.3959 -0.4926
  968MOL0     C30559   8.025   6.324  10.876 -0.1151  0.2810 -1.3127
  968MOL0     C30560   8.046   6.413  11.001  0.5383  0.4277  1.0162
  968MOL0     C30561   7.951   6.529  11.005 -0.8894  0.5460 -0.3276
  968MOL0     N30562   7.995   6.628  10.910 -0.4215 -0.3900  0.6989
  968MOL0     C30563   7.941   6.631  10.785 -0.2590 -0.3356  0.8795
  968MOL0     C30564   7.994   6.742  10.718 -0.0219  0.5181  0.1449
  968MOL0     C30565   7.954   6.781  10.581  0.0910  0.0597  0.0063
  968MOL0     C30566   7.930   6.933  10.564  0.3126 -0.7520 -0.3042
  968MOL0     C30567   7.814   6.993  10.649 -0.0362 -0.0921 -0.9581
  968MOL0     C30568   7.678   6.926  10.632  0.4605 -0.4449  0.0086
  968MOL0     O30569   7.630   6.931  10.500  0.7226 -0.6370  0.0796
  968MOL0     C30570   7.506   6.870  10.472 -0.1965  0.6268 -0.6714
  968MOL0     C30571   7.426   6.792  10.557  0.2350  0.2336  0.6285
  968MOL0     C30572   7.305   6.734  10.511 -0.3413 -0.5861  0.3078
  968MOL0     C30573   7.236   6.658  10.615  0.5617  0.3991  0.3807
  968MOL0     C30574   7.248   6.767  10.387 -0.3666 -0.0583 -0.1473
  968MOL0     C30575   7.106   6.733  10.340 -0.2910 -0.3258 -0.0655
  968MOL0     O30576   7.017   6.693  10.434  0.6486  0.4124 -0.1493
  968MOL0     C30577   6.891   6.639  10.405  0.5995 -0.3845  0.8776
  968MOL0     C30578   6.791   6.722  10.443  0.0965 -0.1930  0.3642
  968MOL0     C30579   6.660   6.692  10.425  0.0928 -0.1526  0.3982
  968MOL0     C30580   6.626   6.576  10.356 -0.5020 -0.0160 -0.5580
  968MOL0     O30581   6.493   6.561  10.328 -0.1631 -0.1936 -0.3320
  968MOL0     C30582   6.451   6.483  10.215 -0.1847 -0.1624 -0.6242
  968MOL0     C30583   6.302   6.463  10.214  0.1900 -0.0922 -0.5312
  968MOL0     C30584   6.243   6.443  10.356 -0.3243 -0.2775  1.1432
  968MOL0     C30585   6.253   6.298  10.408 -0.0396  0.2897 -0.2626
  968MOL0     C30586   6.252   6.289  10.560 -0.3895 -0.2222 -1.1348
  968MOL0     C30587   6.388   6.324  10.625  1.2056  0.6649 -0.4454
  968MOL0     C30588   6.360   6.336  10.781  0.3251 -0.3221  0.1008
  968MOL0     C30589   6.371   6.200  10.844 -0.4239  0.9016 -0.6533
  968MOL0    Cl30590   6.295   6.207  11.002  0.1307 -0.2686 -0.4208
  968MOL0     C30591   6.730   6.492  10.303 -0.0592 -0.2333 -0.6278
  968MOL0     C30592   6.867   6.520  10.328  0.7982 -0.8204  0.4377
  968MOL0     O30593   7.081   6.738  10.218  0.7307 -0.4807 -0.3518
  968MOL0     C30594   7.330   6.852  10.306 -0.4088 -0.3146 -0.7940
  968MOL0     C30595   7.455   6.894  10.342  0.1222  0.1655  0.2055
  968MOL0     N30596   8.085   6.799  10.811  0.5088 -0.0376  0.5932
  968MOL0     N30597   8.076   6.743  10.928  0.3466  0.2158 -0.0224
  968MOL0     C30598   8.380   5.963  10.342 -0.1748 -0.2397 -0.2659
  968MOL0     C30599   8.434   5.985  10.219 -0.2369 -0.1744 -0.9147
  968MOL0     C30600   8.746   5.965   9.873 -0.5617  0.3665  0.6813
  968MOL0     C30601   8.681   6.077   9.822  0.5561 -0.1441 -0.5983
  968MOL0     C30602   8.741   6.146   9.715  0.1614  0.0170  0.3268
  968MOL0     C30603   8.863   6.104   9.654  0.4359 -0.3726  1.2080
  968MOL0     O30604   8.910   6.160   9.534  0.1200  1.0505  0.7693
  968MOL0     C30605   8.912   6.302   9.531  0.0102 -0.1847 -0.1984
  968MOL0     C30606   8.969   6.358   9.396  0.4068 -0.1764  0.0995
  968MOL0     C30607   9.022   6.502   9.404 -0.7824  0.3048 -0.2919
  968MOL0     C30608   9.096   6.554   9.277 -0.3611  0.8029 -0.2087
  968MOL0     C30609   9.209   6.471   9.244 -0.2726  0.2045 -0.6392
  968MOL0     C30610   9.307   6.405   9.208 -0.2131  0.0883 -0.3932
  968MOL0     C30611   8.929   5.995   9.705 -0.8004 -0.3703 -0.0171
  968MOL0     C30612   8.872   5.926   9.814  0.0501  1.0351 -0.7088
  968MOL0     H30613   8.680   5.753  10.234 -1.5468 -1.1226 -2.7295
  968MOL0     H30614   8.589   5.719  10.456 -4.6584 -1.7014  1.3713
  968MOL0     H30615   8.434   5.960  10.695  2.6052 -0.7649 -3.1218
  968MOL0     H30616   8.301   6.022  10.594 -1.6580  0.3979  1.4543
  968MOL0     H30617   8.156   5.827  10.685  0.2019 -2.7991  1.4258
  968MOL0     H30618   8.294   5.788  10.794  1.3106  1.1496 -0.0260
  968MOL0     H30619   8.110   5.912  10.903  1.0472 -1.0513 -0.1226
  968MOL0     H30620   8.265   6.008  10.898  0.5901  1.8156 -1.6190
  968MOL0     H30621   8.149   6.146  10.719  0.1643  1.2367  0.9157
  968MOL0     H30622   7.993   6.069  10.764 -1.0680  0.9527  1.9237
  968MOL0     H30623   8.031   6.125  10.989 -1.2617  1.8122 -0.5377
  968MOL0     H30624   8.183   6.188  10.958 -1.0393  1.1194  2.3960
  968MOL0     H30625   8.082   6.353  10.787 -0.1591 -0.5696 -1.6311
  968MOL0     H30626   7.921   6.314  10.845 -0.1917 -0.5873 -0.8018
  968MOL0     H30627   8.027   6.348  11.087 -0.1632 -0.6856  0.0583
  968MOL0     H30628   8.146   6.449  11.024  0.0673  1.9648  0.7772
  968MOL0     H30629   7.959   6.563  11.108 -0.5834  2.5809 -0.9850
  968MOL0     H30630   7.848   6.494  10.994 -1.1564  1.9960 -3.7222
  968MOL0     H30631   7.857   6.572  10.751 -1.1101  0.8544  0.8391
  968MOL0     H30632   8.035   6.750  10.514 -0.4652  0.1461 -0.7177
  968MOL0     H30633   7.869   6.723  10.544 -0.6054  1.1492 -0.1370
  968MOL0     H30634   7.909   6.962  10.461  1.4571  0.6362 -0.1758
  968MOL0     H30635   8.021   6.986  10.593  0.2593 -2.5914  3.9683
  968MOL0     H30636   7.800   7.100  10.631 -1.3190  0.0735  0.7920
  968MOL0     H30637   7.846   6.985  10.753  0.4153  0.9141 -1.0042
  968MOL0     H30638   7.600   6.964  10.698  1.8196 -0.7744  1.8746
  968MOL0     H30639   7.686   6.820  10.659 -2.2814 -0.4679  1.0594
  968MOL0     H30640   7.480   6.767  10.648  3.6424  2.3705 -0.6069
  968MOL0     H30641   7.311   6.613  10.681 -0.1065  0.5806  1.2919
  968MOL0     H30642   7.165   6.723  10.668  1.0082  1.5379 -0.3625
  968MOL0     H30643   7.188   6.570  10.571 -1.7689  1.3769  0.7798
  968MOL0     H30644   6.824   6.809  10.498  2.2922 -0.1640 -0.8449
  968MOL0     H30645   6.590   6.770  10.453  0.7655  0.0146  1.6804
  968MOL0     H30646   6.497   6.522  10.124 -0.3073 -1.4618 -1.2644
  968MOL0     H30647   6.488   6.381  10.229 -0.8939 -0.4074 -0.4818
  968MOL0     H30648   6.265   6.557  10.172 -0.4085  0.7243  1.7146
  968MOL0     H30649   6.273   6.378  10.151  0.2797 -1.9289  1.7659
  968MOL0     H30650   6.138   6.466  10.336 -0.4929 -0.9670  1.2190
  968MOL0     H30651   6.281   6.515  10.430  0.9298  0.8336 -0.5281
  968MOL0     H30652   6.174   6.240  10.361  1.8665 -0.8062 -2.2676
  968MOL0     H30653   6.350   6.254  10.383 -0.1579 -1.1082  1.5274
  968MOL0     H30654   6.211   6.194  10.597  0.0786  1.1017  3.3228
  968MOL0     H30655   6.171   6.355  10.592  0.7758  0.5236  0.4060
  968MOL0     H30656   6.457   6.242  10.601  0.7871 -0.0122  0.5866
  968MOL0     H30657   6.416   6.419  10.579 -1.0482 -0.3094 -4.2694
  968MOL0     H30658   6.266   6.390  10.784 -0.3485 -1.2500 -2.2121
  968MOL0     H30659   6.428   6.405  10.832 -0.1527  0.0368  0.2592
  968MOL0     H30660   6.479   6.185  10.844 -0.4281  0.6744  1.1411
  968MOL0     H30661   6.324   6.123  10.783 -0.0280  0.4718 -0.4148
  968MOL0     H30662   6.719   6.399  10.248  2.3602 -0.6876 -0.4600
  968MOL0     H30663   6.952   6.465  10.288 -0.0057 -1.6023 -0.2350
  968MOL0     H30664   7.296   6.891  10.211 -0.5736  1.5815  0.0162
  968MOL0     H30665   7.508   6.959  10.273 -1.1901 -0.1173 -1.1099
  968MOL0     H30666   8.294   6.014  10.386  0.0545 -0.4545  0.4464
  968MOL0     H30667   8.393   6.058  10.150  0.5598 -1.1216 -2.4592
  968MOL0     H30668   8.589   6.104   9.872  2.3305  0.5288  2.5812
  968MOL0     H30669   8.693   6.227   9.661  1.1649 -0.8344 -1.9903
  968MOL0     H30670   8.808   6.334   9.543  0.3850  0.9601  0.1136
  968MOL0     H30671   8.950   6.337   9.627 -1.2976  0.0519  0.2635
  968MOL0     H30672   8.904   6.349   9.308 -0.2788  0.0821  0.5697
  968MOL0     H30673   9.054   6.291   9.382 -0.3735 -1.0840 -0.4419
  968MOL0     H30674   9.079   6.507   9.498 -0.1022 -2.7720 -0.4336
  968MOL0     H30675   8.934   6.566   9.412 -1.7195 -1.1740  3.4032
  968MOL0     H30676   9.118   6.661   9.278  2.5590  0.2834 -0.2374
  968MOL0     H30677   9.024   6.549   9.195 -1.1075 -1.1310  0.5065
  968MOL0     H30678   9.384   6.334   9.186 -1.5514 -0.5023 -3.6887
  968MOL0     H30679   9.016   5.950   9.659 -1.6516 -1.4107 -0.6431
  968MOL0     H30680   8.922   5.839   9.855  1.6947  2.4085  0.3829
  969MOL0     O30681   4.564   7.977   8.065  0.2688 -0.0514  0.1924
  969MOL0     C30682   4.476   7.979   8.153 -0.2753  0.0347  0.5177
  969MOL0     O30683   4.504   7.968   8.298 -0.1078 -0.2551  0.2953
  969MOL0     C30684   4.636   7.973   8.337  0.1613  0.8329  0.0976
  969MOL0     C30685   4.693   7.857   8.388  0.9711  0.0391 -0.7712
  969MOL0     C30686   4.826   7.858   8.444 -0.0551  0.2085  0.3166
  969MOL0     C30687   4.899   7.972   8.430 -0.1118  0.1283 -0.8119
  969MOL0     O30688   5.028   7.977   8.487  0.1503  0.5055  0.5528
  969MOL0     C30689   5.139   8.036   8.411 -0.1587  1.1933  0.2253
  969MOL0     C30690   5.180   7.941   8.294  0.0828  0.4232 -0.5143
  969MOL0     C30691   5.286   8.020   8.206  0.0576  0.1781  0.2200
  969MOL0     C30692   5.344   7.929   8.102 -0.6626 -0.6360 -1.1527
  969MOL0     C30693   5.450   7.984   8.011 -0.4255 -0.2762  0.5755
  969MOL0     C30694   5.449   7.906   7.881  0.1362 -0.0483  0.5454
  969MOL0     C30695   5.543   7.971   7.773  0.8280  1.4134 -0.2346
  969MOL0     C30696   5.522   8.112   7.725  0.3174  0.3700  0.6726
  969MOL0     N30697   5.376   8.149   7.709  0.5972 -0.3461 -0.6996
  969MOL0     C30698   5.304   8.108   7.601 -0.1837  0.8010 -0.7478
  969MOL0     C30699   5.185   8.167   7.612 -0.4467 -0.2817 -0.5031
  969MOL0     C30700   5.072   8.136   7.513 -0.4807 -0.3229  0.2768
  969MOL0     C30701   4.975   8.247   7.483  0.5869 -0.2259 -0.4311
  969MOL0     C30702   5.034   8.359   7.396 -0.0694 -0.8282 -0.5480
  969MOL0     C30703   5.005   8.348   7.241 -0.0750  0.3830 -0.2502
  969MOL0     O30704   5.045   8.223   7.184 -0.4104 -0.1215 -0.2751
  969MOL0     C30705   4.982   8.163   7.070 -0.3372  0.3146  0.5141
  969MOL0     C30706   4.902   8.238   6.988 -0.3750  0.2688  1.0178
  969MOL0     C30707   4.855   8.177   6.864 -0.1496  0.5745 -0.3036
  969MOL0     C30708   4.772   8.275   6.784 -1.0046  0.7341 -0.2745
  969MOL0     C30709   4.873   8.037   6.839  0.5542 -0.3487 -0.2368
  969MOL0     C30710   4.814   7.971   6.723 -0.3815  0.2294  0.1036
  969MOL0     O30711   4.838   7.838   6.715 -0.4129  0.2293  0.0605
  969MOL0     C30712   4.812   7.767   6.600  0.6334  0.5127 -0.6893
  969MOL0     C30713   4.686   7.733   6.563 -0.3469  0.6131 -0.5407
  969MOL0     C30714   4.666   7.669   6.450  0.2212  1.2105  0.7743
  969MOL0     C30715   4.776   7.625   6.371  0.6353 -0.5526  0.4542
  969MOL0     O30716   4.745   7.563   6.247 -1.1540 -0.0085  0.1179
  969MOL0     C30717   4.816   7.438   6.216 -0.3746  0.6431 -0.0257
  969MOL0     C30718   4.793   7.388   6.069 -0.9773  0.1890  0.5716
  969MOL0     C30719   4.660   7.315   6.030 -0.4269 -0.2098 -0.5001
  969MOL0     C30720   4.657   7.241   5.894  0.2032 -0.6908 -0.3620
  969MOL0     C30721   4.702   7.318   5.770 -0.2317  0.4634  0.0539
  969MOL0     C30722   4.620   7.448   5.745 -0.2578  0.0981 -0.3465
  969MOL0     C30723   4.475   7.413   5.690 -0.1600  0.4198 -0.0282
  969MOL0     C30724   4.381   7.540   5.697  0.7179 -0.2785 -0.0361
  969MOL0    Cl30725   4.345   7.578   5.868 -0.4558  0.0881  0.5952
  969MOL0     C30726   4.906   7.643   6.410  0.3876  0.3436 -0.4898
  969MOL0     C30727   4.930   7.716   6.527  0.5087 -0.4146  0.5971
  969MOL0     O30728   4.762   8.037   6.635 -0.0027  0.0023  0.0966
  969MOL0     C30729   4.954   7.967   6.929 -0.5785  0.4536 -0.3012
  969MOL0     C30730   5.024   8.031   7.036  0.3609  0.0783 -0.7387
  969MOL0     N30731   5.208   8.273   7.704 -0.5222  0.3928  0.1872
  969MOL0     N30732   5.322   8.258   7.762 -0.5106  0.0466  0.4892
  969MOL0     C30733   4.843   8.095   8.388 -0.5065  0.5813 -0.5720
  969MOL0     C30734   4.709   8.089   8.343 -0.0893 -0.1410 -0.6626
  969MOL0     C30735   4.327   7.986   8.124  0.1115  0.0150 -0.7435
  969MOL0     C30736   4.292   7.991   7.988  0.2471 -1.3512  0.0561
  969MOL0     C30737   4.162   8.010   7.943  1.0722 -1.1416 -0.2047
  969MOL0     C30738   4.049   8.017   8.037  0.9700  0.8708  0.3895
  969MOL0     O30739   3.911   8.033   8.006 -0.7947  0.9762 -0.4356
  969MOL0     C30740   3.880   8.036   7.867  0.2863 -0.2067 -1.5810
  969MOL0     C30741   3.742   7.969   7.859 -1.1933  0.0807 -0.2448
  969MOL0     C30742   3.635   8.024   7.957 -0.7589 -0.3317 -0.1561
  969MOL0     C30743   3.497   7.963   7.940 -0.5723  0.7100  0.4548
  969MOL0     C30744   3.487   7.838   8.019  0.3607 -0.4084  1.2725
  969MOL0     C30745   3.467   7.736   8.074  0.7493  0.2151 -0.0908
  969MOL0     C30746   4.085   8.006   8.170  0.8459 -0.3127  0.3412
  969MOL0     C30747   4.226   7.982   8.215  1.0841 -0.0117  0.5664
  969MOL0     H30748   4.634   7.766   8.395 -0.5860  0.9675 -1.3449
  969MOL0     H30749   4.870   7.765   8.479 -0.2305 -0.0709 -0.1964
  969MOL0     H30750   5.114   8.137   8.377  0.1325  1.3929  0.6058
  969MOL0     H30751   5.225   8.041   8.478  0.4487 -1.2506 -0.2795
  969MOL0     H30752   5.235   7.856   8.335  2.7549  1.9735 -0.6625
  969MOL0     H30753   5.090   7.915   8.237 -0.2981  0.5710  0.0107
  969MOL0     H30754   5.243   8.104   8.150 -0.2390 -1.0879 -1.5653
  969MOL0     H30755   5.358   8.060   8.277  0.1368 -1.9001  1.3655
  969MOL0     H30756   5.378   7.834   8.145 -1.5484 -0.5977 -0.3298
  969MOL0     H30757   5.256   7.906   8.042 -1.4170  0.9444 -0.7209
  969MOL0     H30758   5.417   8.085   7.983  1.3975  0.3141  0.4354
  969MOL0     H30759   5.550   7.991   8.055 -1.3985 -2.1428  3.3944
  969MOL0     H30760   5.487   7.803   7.889  2.9668  0.8944  0.3186
  969MOL0     H30761   5.346   7.896   7.844  1.8547 -4.9069 -4.3028
  969MOL0     H30762   5.652   7.967   7.787  1.0531  1.4422 -1.7091
  969MOL0     H30763   5.540   7.895   7.694  2.9015 -0.2773  1.1821
  969MOL0     H30764   5.578   8.117   7.631 -0.9963  2.1090 -0.0749
  969MOL0     H30765   5.559   8.185   7.797 -1.3164  0.8916  1.0306
  969MOL0     H30766   5.337   8.036   7.527  1.7199  0.3704  0.4730
  969MOL0     H30767   5.121   8.107   7.420 -1.8336 -3.0570  0.3167
  969MOL0     H30768   5.015   8.051   7.553 -2.0119  0.0967 -0.9205
  969MOL0     H30769   4.944   8.295   7.577  1.2468 -0.7854  0.0870
  969MOL0     H30770   4.881   8.212   7.440 -0.3251  2.0355 -0.4330
  969MOL0     H30771   5.134   8.392   7.425 -1.2358  1.1457  1.5868
  969MOL0     H30772   4.990   8.454   7.428 -0.5111 -1.9957  2.6192
  969MOL0     H30773   5.065   8.425   7.192  0.3446  0.2605  0.0688
  969MOL0     H30774   4.898   8.365   7.224  0.0186 -0.0395 -1.3710
  969MOL0     H30775   4.887   8.344   7.005  0.3006  1.0722 -2.5658
  969MOL0     H30776   4.765   8.379   6.818  0.2145  0.9465 -0.6334
  969MOL0     H30777   4.818   8.287   6.685 -1.3918  0.3247 -0.5127
  969MOL0     H30778   4.672   8.235   6.764  0.2170 -2.3087 -0.9010
  969MOL0     H30779   4.617   7.764   6.641  2.1892  0.0016  2.0882
  969MOL0     H30780   4.568   7.634   6.418 -0.4512 -0.0322  3.8521
  969MOL0     H30781   4.923   7.438   6.235  0.2799 -1.0445 -3.1359
  969MOL0     H30782   4.774   7.369   6.290  1.7420 -2.5985 -1.6099
  969MOL0     H30783   4.805   7.468   5.995 -0.8170  0.5586  0.9936
  969MOL0     H30784   4.877   7.326   6.038  1.0740  2.3908  1.4481
  969MOL0     H30785   4.575   7.379   6.053 -0.8238 -0.5843 -0.9097
  969MOL0     H30786   4.658   7.232   6.101 -0.0446 -1.7516 -2.2074
  969MOL0     H30787   4.713   7.148   5.910  2.8892  1.1005  1.4732
  969MOL0     H30788   4.552   7.210   5.886 -0.0229 -0.2355  0.6250
  969MOL0     H30789   4.687   7.242   5.693 -1.6024  0.4386  0.3187
  969MOL0     H30790   4.808   7.343   5.782 -0.6264  3.1668 -1.2506
  969MOL0     H30791   4.607   7.509   5.834 -1.9659  0.3021 -0.6961
  969MOL0     H30792   4.675   7.507   5.671  1.1683  0.1927  0.7527
  969MOL0     H30793   4.432   7.344   5.763  0.7864 -0.5750 -0.3804
  969MOL0     H30794   4.469   7.370   5.590 -2.0683  0.4105  0.0534
  969MOL0     H30795   4.283   7.526   5.650  2.3890  1.2268 -4.3767
  969MOL0     H30796   4.413   7.627   5.640  1.0584 -0.4117 -0.0494
  969MOL0     H30797   4.986   7.597   6.353  1.4834  1.9570 -0.3325
  969MOL0     H30798   5.026   7.742   6.571 -0.2271 -1.6543  3.1121
  969MOL0     H30799   4.976   7.861   6.918  0.4792  0.3984  1.8309
  969MOL0     H30800   5.091   7.976   7.101  0.5973  2.0557  0.7832
  969MOL0     H30801   4.909   8.181   8.399  1.1437 -0.7347  0.2990
  969MOL0     H30802   4.658   8.179   8.311 -1.0478 -0.9023 -1.3433
  969MOL0     H30803   4.373   7.968   7.921  0.1465 -1.8018  0.0814
  969MOL0     H30804   4.144   7.990   7.838 -3.8823 -1.7805  0.5608
  969MOL0     H30805   3.864   8.141   7.841  2.4746  0.3391 -0.8983
  969MOL0     H30806   3.952   8.000   7.793  2.3593  1.1136 -0.2924
  969MOL0     H30807   3.756   7.862   7.875 -2.1279 -0.4533 -2.6559
  969MOL0     H30808   3.714   7.972   7.754  1.5371 -2.0577 -1.1763
  969MOL0     H30809   3.630   8.133   7.942 -1.1748 -0.7463 -4.0107
  969MOL0     H30810   3.661   8.027   8.064 -1.6135  3.3474  0.1052
  969MOL0     H30811   3.489   7.936   7.834 -0.7505  1.2061  0.3397
  969MOL0     H30812   3.422   8.032   7.979 -1.2058  0.6081 -0.5527
  969MOL0     H30813   3.450   7.643   8.124 -0.9292  0.2259 -0.5982
  969MOL0     H30814   3.997   8.006   8.233 -2.1744 -1.9130 -3.4532
  969MOL0     H30815   4.256   7.973   8.319 -1.0972  2.2754  1.5104
  970MOL0     O30816   3.697   4.485   6.582 -0.4612  0.0383 -0.2074
  970MOL0     C30817   3.739   4.533   6.689  0.4450  0.6096  0.4525
  970MOL0     O30818   3.692   4.655   6.741 -0.0883  0.2452 -0.0386
  970MOL0     C30819   3.603   4.734   6.678  0.0135  0.6495  1.1642
  970MOL0     C30820   3.537   4.824   6.758 -1.0028 -0.4229  0.7786
  970MOL0     C30821   3.446   4.927   6.712 -0.1546  1.3789  0.3264
  970MOL0     C30822   3.406   4.923   6.578  0.1364  0.0091  0.6781
  970MOL0     O30823   3.301   5.005   6.553  0.5986  0.3699 -0.1689
  970MOL0     C30824   3.232   5.001   6.428  0.1542  0.0168 -0.1231
  970MOL0     C30825   3.113   5.100   6.436  0.4356 -0.3824  0.4134
  970MOL0     C30826   3.029   5.112   6.315 -0.3325  0.2202 -0.3425
  970MOL0     C30827   2.943   4.983   6.292 -0.9988  0.1128 -0.7876
  970MOL0     C30828   2.853   4.993   6.167 -0.7399 -0.0296  0.0166
  970MOL0     C30829   2.749   4.878   6.152 -0.7720 -0.0847  0.1789
  970MOL0     C30830   2.692   4.872   6.010  0.4107 -0.3498  0.5099
  970MOL0     C30831   2.588   4.977   5.970 -0.8070 -0.5254  0.3222
  970MOL0     N30832   2.549   4.983   5.828 -0.3462  0.2418 -0.3359
  970MOL0     C30833   2.484   4.881   5.762 -0.0947  0.4790  0.0107
  970MOL0     C30834   2.477   4.922   5.637  0.2980  0.4994 -0.1440
  970MOL0     C30835   2.417   4.836   5.532  0.5483  0.2685  0.8799
  970MOL0     C30836   2.311   4.736   5.575  0.3908  0.1149  0.6688
  970MOL0     C30837   2.241   4.685   5.452  0.2054 -0.2493  0.0282
  970MOL0     C30838   2.142   4.570   5.455 -0.0220 -0.6023  0.3128
  970MOL0     O30839   2.030   4.607   5.536  0.3527 -0.5900 -0.5284
  970MOL0     C30840   1.923   4.523   5.527 -0.2847 -0.9553  0.0093
  970MOL0     C30841   1.802   4.571   5.554  0.4869 -0.0255  0.7695
  970MOL0     C30842   1.690   4.495   5.552 -0.2792 -0.2529 -0.3551
  970MOL0     C30843   1.563   4.571   5.579 -0.2263  0.1655 -0.0574
  970MOL0     C30844   1.695   4.354   5.527  0.4031  0.6585  0.1023
  970MOL0     C30845   1.579   4.261   5.524  0.0879  0.2036  0.5010
  970MOL0     O30846   1.453   4.299   5.552 -0.7872  0.1583 -0.6323
  970MOL0     C30847   1.343   4.229   5.511 -0.5610  0.7400  0.7680
  970MOL0     C30848   1.222   4.249   5.579  0.1393 -0.6521  0.6647
  970MOL0     C30849   1.108   4.176   5.545  0.2399  0.9070 -0.7584
  970MOL0     C30850   1.099   4.079   5.439 -1.0094 -0.1564 -0.0537
  970MOL0     O30851   0.989   4.012   5.400 -0.1029 -0.2613 -0.6098
  970MOL0     C30852   0.860   4.068   5.441  0.5476  0.5996 -0.8648
  970MOL0     C30853   0.745   3.992   5.375  0.1285  0.2880 -0.2470
  970MOL0     C30854   0.594   4.025   5.409  0.6294 -0.3705  0.3240
  970MOL0     C30855   0.552   4.170   5.371 -0.3377 -0.2322 -1.6389
  970MOL0     C30856   0.441   4.224   5.455  0.3988  0.9009 -0.1546
  970MOL0     C30857   0.395   4.359   5.423  0.7596 -0.1564  0.7170
  970MOL0     C30858   0.310   4.407   5.544 -0.0898  0.1375 -0.0013
  970MOL0     C30859   0.248   4.542   5.527 -0.1642  0.3976  0.2072
  970MOL0    Cl30860   0.142   4.563   5.667  0.2749  0.0179  0.0135
  970MOL0     C30861   1.220   4.066   5.368  0.6838  0.2813  0.0266
  970MOL0     C30862   1.336   4.135   5.399  0.3606 -0.0201 -0.7209
  970MOL0     O30863   1.611   4.138   5.505  0.5302 -0.3851 -0.2505
  970MOL0     C30864   1.823   4.301   5.496 -0.6658  0.1357  0.0710
  970MOL0     C30865   1.933   4.388   5.491  0.4487  1.0614 -0.3944
  970MOL0     N30866   2.542   5.052   5.627  0.2360 -0.0102 -0.1519
  970MOL0     N30867   2.582   5.086   5.744 -0.5259 -0.0813 -0.2794
  970MOL0     C30868   3.467   4.822   6.497  0.6202  0.3370 -0.0967
  970MOL0     C30869   3.575   4.747   6.541  0.7298 -0.0352 -0.4209
  970MOL0     C30870   3.853   4.484   6.765 -0.5489 -0.0092 -0.7608
  970MOL0     C30871   3.931   4.571   6.847 -0.7384 -0.0244  0.4945
  970MOL0     C30872   4.052   4.529   6.908 -0.0071  0.3142 -0.8696
  970MOL0     C30873   4.089   4.394   6.891 -0.2142 -0.2966 -0.8370
  970MOL0     O30874   4.191   4.334   6.958 -0.3887 -0.1007  0.3648
  970MOL0     C30875   4.291   4.424   7.018 -0.3187  0.4090  0.0459
  970MOL0     C30876   4.410   4.334   7.047  0.1080  0.3774 -0.0188
  970MOL0     C30877   4.507   4.405   7.146 -0.0268  0.3491  0.1095
  970MOL0     C30878   4.631   4.328   7.187  0.1584 -0.3839  0.9393
  970MOL0     C30879   4.610   4.207   7.272  0.5552 -0.8153  0.6087
  970MOL0     C30880   4.616   4.113   7.344  0.0188  0.1257 -0.5003
  970MOL0     C30881   4.011   4.306   6.815 -0.0863 -0.8124  0.2561
  970MOL0     C30882   3.896   4.351   6.752  0.2974  0.5297  0.0426
  970MOL0     H30883   3.574   4.826   6.860  2.5749  1.2848 -0.3688
  970MOL0     H30884   3.404   5.002   6.778  0.2893  2.4144 -0.5389
  970MOL0     H30885   3.306   5.028   6.352  1.1782  1.6634  1.3947
  970MOL0     H30886   3.199   4.898   6.411  2.4725 -0.8068  0.0977
  970MOL0     H30887   3.054   5.080   6.526  1.6923 -1.5400  1.0170
  970MOL0     H30888   3.160   5.197   6.450  0.3481  0.2996 -3.0361
  970MOL0     H30889   2.955   5.186   6.347 -3.0323 -3.0986  1.8388
  970MOL0     H30890   3.083   5.133   6.222  1.2477 -0.4776  0.3821
  970MOL0     H30891   3.008   4.899   6.266 -1.1485  0.6551 -3.1460
  970MOL0     H30892   2.880   4.951   6.375  0.8175 -2.2887 -0.1946
  970MOL0     H30893   2.796   5.084   6.188 -2.0833 -1.0401  0.9406
  970MOL0     H30894   2.910   5.009   6.076 -0.7210  1.4742  0.2667
  970MOL0     H30895   2.808   4.786   6.166 -0.7366 -0.4027 -1.6865
  970MOL0     H30896   2.677   4.899   6.231  0.8708  2.0840  1.1729
  970MOL0     H30897   2.774   4.871   5.938 -1.6809  0.8468 -2.0435
  970MOL0     H30898   2.639   4.776   6.000 -1.7479  0.6007  1.9210
  970MOL0     H30899   2.624   5.078   5.988 -2.6075  0.3880 -0.9353
  970MOL0     H30900   2.494   4.960   6.023  0.2209  0.4407  2.6081
  970MOL0     H30901   2.445   4.790   5.806  0.3827  0.1841 -0.1711
  970MOL0     H30902   2.371   4.904   5.460 -2.0684  1.6600  3.6750
  970MOL0     H30903   2.503   4.775   5.500  1.2286  1.2157  0.8458
  970MOL0     H30904   2.240   4.783   5.643 -1.7383 -3.0752  0.8710
  970MOL0     H30905   2.354   4.646   5.621  1.4454  1.1995  1.8552
  970MOL0     H30906   2.313   4.655   5.375  0.1692  1.0580 -0.5538
  970MOL0     H30907   2.190   4.771   5.407 -1.3601 -1.1636 -0.0147
  970MOL0     H30908   2.192   4.481   5.496  2.5814 -0.0928 -1.5409
  970MOL0     H30909   2.102   4.564   5.354 -0.3922 -1.3284  0.4933
  970MOL0     H30910   1.791   4.676   5.581 -2.6331 -0.1446  0.3452
  970MOL0     H30911   1.569   4.679   5.560 -0.8816  0.4311  1.1489
  970MOL0     H30912   1.485   4.534   5.512 -0.6908 -0.1760  0.6650
  970MOL0     H30913   1.530   4.555   5.682  1.9886  1.3419  0.8964
  970MOL0     H30914   1.236   4.319   5.661  0.4050 -0.3951  0.3992
  970MOL0     H30915   1.024   4.189   5.613 -0.7594 -2.0607 -1.2722
  970MOL0     H30916   0.848   4.037   5.545 -1.0793  0.0811 -1.1627
  970MOL0     H30917   0.851   4.176   5.431 -1.1312  0.6931  1.1089
  970MOL0     H30918   0.756   4.004   5.267  1.0524  3.0078  0.0676
  970MOL0     H30919   0.754   3.885   5.394 -0.4870  0.0865 -1.0511
  970MOL0     H30920   0.586   4.014   5.518  0.9071 -0.2717  0.3544
  970MOL0     H30921   0.514   3.956   5.381  0.4550 -0.2949  0.6202
  970MOL0     H30922   0.639   4.235   5.379 -0.2245 -0.5695  0.3713
  970MOL0     H30923   0.518   4.164   5.267 -0.1443  0.6739 -1.7665
  970MOL0     H30924   0.478   4.221   5.558 -0.0210  0.4449 -0.0136
  970MOL0     H30925   0.348   4.167   5.442 -0.2162  2.2827 -2.3961
  970MOL0     H30926   0.478   4.431   5.429 -1.2246  2.2667  0.4896
  970MOL0     H30927   0.348   4.379   5.326  1.7045 -1.6582 -0.0890
  970MOL0     H30928   0.356   4.421   5.642 -2.2127  0.5463  0.9979
  970MOL0     H30929   0.224   4.342   5.563 -2.4088  2.9924  0.0482
  970MOL0     H30930   0.198   4.538   5.429  0.6345  0.9233 -0.2275
  970MOL0     H30931   0.311   4.631   5.528 -3.2973  2.8103  0.4309
  970MOL0     H30932   1.220   3.998   5.283  0.2414  1.8634 -1.3105
  970MOL0     H30933   1.420   4.106   5.337  1.6652 -2.1819  1.8579
  970MOL0     H30934   1.829   4.193   5.485 -0.1738  0.1865 -0.2020
  970MOL0     H30935   2.025   4.338   5.462 -0.8217 -0.5266 -1.9411
  970MOL0     H30936   3.429   4.812   6.396 -2.9892  0.5597  1.0746
  970MOL0     H30937   3.638   4.696   6.469  0.2913  0.9414 -1.5469
  970MOL0     H30938   3.911   4.678   6.849 -0.4064  0.1165 -1.4980
  970MOL0     H30939   4.116   4.598   6.960  2.9884 -0.6315 -3.0222
  970MOL0     H30940   4.323   4.498   6.945 -2.8119  0.6774 -0.8898
  970MOL0     H30941   4.259   4.474   7.110 -3.1386 -0.0959 -0.5466
  970MOL0     H30942   4.459   4.312   6.952 -1.0391  0.2155 -0.5780
  970MOL0     H30943   4.369   4.239   7.082 -1.0198 -0.9117 -4.3131
  970MOL0     H30944   4.459   4.437   7.239 -0.2191  1.4763 -0.3655
  970MOL0     H30945   4.527   4.501   7.099 -0.8042  2.1457  3.1472
  970MOL0     H30946   4.698   4.398   7.239  0.1012 -1.3625  2.3988
  970MOL0     H30947   4.698   4.303   7.104  1.2752  3.9344  0.2682
  970MOL0     H30948   4.610   4.025   7.405 -0.9725  0.2664 -0.3766
  970MOL0     H30949   4.033   4.201   6.801  1.5346 -0.3577 -0.7927
  970MOL0     H30950   3.836   4.277   6.699 -1.5368  0.6927  1.7660
  971MOL0     O30951   2.367   3.869   1.184  1.1413 -0.2922  0.4360
  971MOL0     C30952   2.283   3.927   1.120 -0.6700  0.3541 -0.5813
  971MOL0     O30953   2.210   3.866   1.021  0.2852 -0.2374  0.1654
  971MOL0     C30954   2.205   3.732   0.975 -0.3673  0.0806  0.3221
  971MOL0     C30955   2.085   3.699   0.918 -0.7353  1.1249 -0.7113
  971MOL0     C30956   2.061   3.565   0.873 -0.8037 -0.0326  0.2720
  971MOL0     C30957   2.163   3.466   0.877  0.5680 -0.0481 -0.3940
  971MOL0     O30958   2.132   3.338   0.846  0.2736 -0.3828  0.4685
  971MOL0     C30959   2.208   3.265   0.758  0.0564  0.1732  0.4209
  971MOL0     C30960   2.130   3.143   0.711 -0.1707  0.1271  0.4910
  971MOL0     C30961   2.141   3.025   0.807  0.0567 -0.6981  0.0664
  971MOL0     C30962   2.268   2.936   0.818 -0.0578  0.2937 -0.0613
  971MOL0     C30963   2.272   2.841   0.939 -0.1967  0.0205  0.5577
  971MOL0     C30964   2.155   2.730   0.931 -0.8042 -0.1400 -0.2683
  971MOL0     C30965   2.155   2.643   1.062  0.0927  0.0958  0.2639
  971MOL0     C30966   2.079   2.506   1.054 -0.2040 -0.5000 -0.3796
  971MOL0     N30967   2.079   2.447   1.198  0.2315  0.8888 -0.8494
  971MOL0     C30968   2.160   2.341   1.233 -0.8827 -0.4377 -1.2399
  971MOL0     C30969   2.117   2.322   1.361  0.2199  0.5838 -0.3901
  971MOL0     C30970   2.165   2.214   1.454 -0.4723 -0.3274 -0.7483
  971MOL0     C30971   2.275   2.265   1.546 -0.2264  0.3013  0.2210
  971MOL0     C30972   2.305   2.160   1.656 -0.2092 -0.4011 -0.3449
  971MOL0     C30973   2.383   2.208   1.778  0.9380 -0.5814  0.1236
  971MOL0     O30974   2.412   2.091   1.859 -0.2258 -0.1493 -0.1081
  971MOL0     C30975   2.388   2.089   1.993  0.5589 -0.4313  0.0377
  971MOL0     C30976   2.420   1.975   2.059 -0.2568 -0.3608 -0.0376
  971MOL0     C30977   2.391   1.939   2.189  0.0242 -0.4075  0.0426
  971MOL0     C30978   2.431   1.805   2.237 -1.3828  1.5544 -0.1106
  971MOL0     C30979   2.338   2.046   2.270  0.5006 -0.3005 -0.5186
  971MOL0     C30980   2.308   2.028   2.418  0.2833 -0.7901 -0.7056
  971MOL0     O30981   2.237   2.140   2.470 -0.4290 -0.6384 -0.4303
  971MOL0     C30982   2.240   2.178   2.611  0.3960  0.1222  1.0770
  971MOL0     C30983   2.320   2.117   2.715  0.4122 -0.0454  0.0750
  971MOL0     C30984   2.306   2.168   2.846  0.1997 -0.9379  0.7188
  971MOL0     C30985   2.218   2.277   2.876  0.1176  0.4995  0.1025
  971MOL0     O30986   2.183   2.305   3.006 -0.4642  0.3954 -0.0876
  971MOL0     C30987   2.154   2.445   3.039 -0.4526 -0.7525 -1.1915
  971MOL0     C30988   2.172   2.436   3.193 -0.3081 -0.2362 -0.6459
  971MOL0     C30989   2.248   2.565   3.243  0.6635 -0.1487  0.0116
  971MOL0     C30990   2.145   2.690   3.264  0.9691 -0.2899 -0.2283
  971MOL0     C30991   2.223   2.811   3.313  1.4652  0.4850 -0.4146
  971MOL0     C30992   2.310   2.851   3.199 -0.6745 -0.6262  0.6597
  971MOL0     C30993   2.402   2.971   3.248  0.1010 -0.0983  0.6210
  971MOL0     C30994   2.460   3.047   3.127  0.0510 -0.2425  0.3404
  971MOL0    Cl30995   2.339   3.151   3.045 -0.1053 -0.0166  0.0723
  971MOL0     C30996   2.171   2.358   2.770 -0.3678  0.4192  0.5774
  971MOL0     C30997   2.173   2.303   2.638 -0.0480  0.1971 -0.7224
  971MOL0     O30998   2.341   1.922   2.479  0.1902 -0.2018 -0.4677
  971MOL0     C30999   2.305   2.169   2.208  1.1385  0.6363 -1.1528
  971MOL0     C31000   2.330   2.187   2.072  0.3963  0.0429 -0.2631
  971MOL0     N31001   2.028   2.420   1.405 -0.0958  0.4848  0.1785
  971MOL0     N31002   2.008   2.498   1.311  0.5935 -0.1265 -0.6352
  971MOL0     C31003   2.284   3.504   0.936 -0.1627 -0.1150 -0.3430
  971MOL0     C31004   2.303   3.636   0.980 -0.3807  0.2981 -0.3073
  971MOL0     C31005   2.278   4.074   1.136  0.0974  0.6100  0.3199
  971MOL0     C31006   2.174   4.147   1.085  0.5311 -0.6619 -0.0342
  971MOL0     C31007   2.174   4.279   1.114 -0.6925 -0.7611  0.4546
  971MOL0     C31008   2.270   4.344   1.183 -0.5478 -0.9389 -0.8679
  971MOL0     O31009   2.244   4.477   1.211  0.0401 -0.3049  0.2933
  971MOL0     C31010   2.349   4.559   1.270 -0.2148 -0.3155  0.8654
  971MOL0     C31011   2.294   4.703   1.279  1.1846 -0.4540  0.1850
  971MOL0     C31012   2.245   4.749   1.140  0.1653 -1.3895  1.0101
  971MOL0     C31013   2.297   4.891   1.106 -0.1010 -0.3326  0.0059
  971MOL0     C31014   2.225   4.954   0.995 -0.0249 -0.5985 -0.3434
  971MOL0     C31015   2.151   5.010   0.915  0.2879  0.0074  0.6955
  971MOL0     C31016   2.386   4.279   1.217 -0.5843  0.4502 -0.9580
  971MOL0     C31017   2.386   4.142   1.198 -0.4562  0.0483  0.3364
  971MOL0     H31018   2.008   3.776   0.912 -0.5949  1.4735  1.2763
  971MOL0     H31019   1.956   3.546   0.854 -0.5113 -2.0194  0.4404
  971MOL0     H31020   2.246   3.314   0.667  1.7275 -0.7240  0.5845
  971MOL0     H31021   2.303   3.233   0.802 -0.6520 -1.1069  1.0755
  971MOL0     H31022   2.027   3.168   0.683 -0.2155 -2.2026 -1.8049
  971MOL0     H31023   2.167   3.104   0.616 -0.1422  1.1145  0.0840
  971MOL0     H31024   2.118   3.062   0.908  0.1679  2.6032 -1.0077
  971MOL0     H31025   2.051   2.969   0.781 -0.8229  0.9127 -0.5370
  971MOL0     H31026   2.280   2.885   0.722 -0.0412  1.1590 -0.5312
  971MOL0     H31027   2.346   3.011   0.833  0.2981  0.6568 -3.1382
  971MOL0     H31028   2.375   2.803   0.940 -0.4576 -0.8300 -0.9754
  971MOL0     H31029   2.248   2.897   1.030  0.5020 -0.3456  0.9736
  971MOL0     H31030   2.059   2.784   0.930  0.3256  2.2450  2.6387
  971MOL0     H31031   2.181   2.660   0.852  1.8009  1.3389 -0.8228
  971MOL0     H31032   2.261   2.633   1.086  0.2610 -1.0561 -0.8232
  971MOL0     H31033   2.102   2.697   1.140 -0.3645 -1.3809  1.0248
  971MOL0     H31034   2.133   2.453   0.976 -0.1559 -0.8547 -0.1075
  971MOL0     H31035   1.979   2.520   1.013  0.0238 -2.7668 -1.8974
  971MOL0     H31036   2.236   2.292   1.174 -1.2305 -4.5469  1.3339
  971MOL0     H31037   2.078   2.184   1.514 -0.0702  0.2793  0.1646
  971MOL0     H31038   2.196   2.124   1.399  1.4928  0.9895 -1.9284
  971MOL0     H31039   2.237   2.362   1.578  0.9461  1.8490 -2.6647
  971MOL0     H31040   2.370   2.293   1.499  0.4899 -1.0711  0.8036
  971MOL0     H31041   2.347   2.074   1.604 -2.9621 -1.1977 -1.4437
  971MOL0     H31042   2.209   2.133   1.699  0.0211  0.2311  0.5970
  971MOL0     H31043   2.319   2.280   1.830 -2.1085 -3.4169  0.6389
  971MOL0     H31044   2.473   2.253   1.736 -0.3182  0.1163 -1.9354
  971MOL0     H31045   2.458   1.901   1.989 -0.8024 -0.8431  0.1728
  971MOL0     H31046   2.363   1.757   2.308 -0.8670  1.2035  0.1566
  971MOL0     H31047   2.443   1.736   2.153  1.8046  0.0401  1.4016
  971MOL0     H31048   2.529   1.812   2.286 -2.1506 -0.2625  1.8889
  971MOL0     H31049   2.379   2.026   2.709  1.1765  0.4023  0.6148
  971MOL0     H31050   2.363   2.116   2.923  2.2467 -0.9208 -0.7210
  971MOL0     H31051   2.237   2.507   3.007 -1.5329  1.8203  0.6204
  971MOL0     H31052   2.054   2.485   3.018 -1.0181  0.0778  2.3349
  971MOL0     H31053   2.079   2.425   3.249  0.0825 -1.5769 -0.2439
  971MOL0     H31054   2.225   2.344   3.216  1.6083  0.2601 -2.6709
  971MOL0     H31055   2.318   2.595   3.165  0.4567  0.4922  0.0700
  971MOL0     H31056   2.299   2.540   3.337  0.1729  0.5650  0.4828
  971MOL0     H31057   2.098   2.704   3.167  3.2794 -0.4293 -1.4455
  971MOL0     H31058   2.082   2.671   3.351  1.8754  1.5054  0.8849
  971MOL0     H31059   2.280   2.796   3.405 -0.9825 -2.4741  0.8313
  971MOL0     H31060   2.147   2.889   3.314  0.0045 -0.8788  0.0372
  971MOL0     H31061   2.387   2.778   3.173  2.3076  2.2122  0.7894
  971MOL0     H31062   2.246   2.886   3.117 -1.5986 -0.9265  1.2335
  971MOL0     H31063   2.492   2.939   3.302  1.0891  4.2722  1.9683
  971MOL0     H31064   2.347   3.045   3.307 -0.7325  0.5884 -0.9667
  971MOL0     H31065   2.479   2.967   3.056  2.9142 -0.1372  0.8748
  971MOL0     H31066   2.544   3.113   3.151  0.9155 -1.2331  0.1163
  971MOL0     H31067   2.108   2.443   2.789 -0.5671 -0.0117  1.9352
  971MOL0     H31068   2.120   2.355   2.559 -2.7996  1.4007  1.7370
  971MOL0     H31069   2.257   2.246   2.267 -1.6504 -0.2780 -2.0997
  971MOL0     H31070   2.308   2.285   2.031 -1.1464 -0.7041 -1.3701
  971MOL0     H31071   2.358   3.426   0.949 -2.1570 -1.7675  2.2648
  971MOL0     H31072   2.401   3.657   1.019 -0.3270 -1.5568  0.6479
  971MOL0     H31073   2.099   4.104   1.018  0.4046 -0.3570 -0.0887
  971MOL0     H31074   2.076   4.322   1.093  0.2152 -0.2346 -3.5720
  971MOL0     H31075   2.380   4.506   1.361  1.9651 -1.4778 -0.4837
  971MOL0     H31076   2.440   4.561   1.210 -0.3444 -0.4633  0.6630
  971MOL0     H31077   2.372   4.763   1.325  1.2638  1.2010 -1.9692
  971MOL0     H31078   2.207   4.709   1.345 -1.4147 -0.5299 -2.9663
  971MOL0     H31079   2.136   4.739   1.144  0.0442 -0.8400 -0.3064
  971MOL0     H31080   2.281   4.678   1.064 -0.8684  1.5987 -2.6230
  971MOL0     H31081   2.406   4.884   1.092 -0.1485 -0.6337 -0.2061
  971MOL0     H31082   2.292   4.950   1.198  1.3609 -0.4005  0.1627
  971MOL0     H31083   2.089   5.063   0.846 -0.6442  1.2164  2.3843
  971MOL0     H31084   2.470   4.316   1.275  0.0805 -1.7258 -0.4192
  971MOL0     H31085   2.472   4.083   1.228  0.5312  0.5540 -1.3534
  972MOL0     O31086   9.000   5.923   1.993 -0.2417 -0.4835  0.0361
  972MOL0     C31087   8.996   5.816   2.061 -0.9028 -0.9832  0.8374
  972MOL0     O31088   8.913   5.794   2.168  0.4058 -0.4690 -0.6114
  972MOL0     C31089   8.876   5.905   2.235 -0.5383  0.5625 -1.6110
  972MOL0     C31090   8.755   5.959   2.201  0.7081 -0.7074  0.0865
  972MOL0     C31091   8.721   6.076   2.268  0.2245 -0.5327  0.7000
  972MOL0     C31092   8.791   6.136   2.370  0.3504  0.4167 -0.1417
  972MOL0     O31093   8.755   6.249   2.428  0.0456 -1.3543 -0.4326
  972MOL0     C31094   8.734   6.252   2.572  0.6243 -0.9891  0.2532
  972MOL0     C31095   8.649   6.375   2.604 -0.8059  0.4079  0.1099
  972MOL0     C31096   8.508   6.381   2.536  0.0300 -0.3541 -0.3689
  972MOL0     C31097   8.452   6.524   2.548 -0.4478 -0.0746 -1.3045
  972MOL0     C31098   8.344   6.569   2.455 -0.0925  0.1704  1.7820
  972MOL0     C31099   8.288   6.711   2.485 -0.0719  0.3782  0.4522
  972MOL0     C31100   8.190   6.747   2.368 -0.8532  1.0216 -0.0389
  972MOL0     C31101   8.054   6.686   2.386 -0.9623  0.2150  0.0683
  972MOL0     N31102   7.972   6.767   2.480  0.2453  0.4567  1.6164
  972MOL0     C31103   7.889   6.875   2.449  0.0102  0.2997  0.5030
  972MOL0     C31104   7.846   6.917   2.576  0.3905 -0.2672  1.1451
  972MOL0     C31105   7.752   7.030   2.586  0.3315 -0.2884  0.7773
  972MOL0     C31106   7.799   7.134   2.685 -0.7164  0.6931 -0.0018
  972MOL0     C31107   7.930   7.212   2.657  0.2364 -0.3036  0.6027
  972MOL0     C31108   8.055   7.145   2.703 -0.3828  0.3702 -0.7866
  972MOL0     O31109   8.069   7.144   2.849  0.8043  0.2525  0.3254
  972MOL0     C31110   8.167   7.070   2.896  1.0450  0.2305 -0.5523
  972MOL0     C31111   8.254   7.140   2.968 -0.8869 -0.5034 -0.0264
  972MOL0     C31112   8.351   7.075   3.053  0.9508 -0.3327 -0.1524
  972MOL0     C31113   8.433   7.162   3.147 -0.0292 -0.3285  0.7423
  972MOL0     C31114   8.368   6.937   3.026 -0.7254 -1.4095 -0.6786
  972MOL0     C31115   8.483   6.853   3.079  0.2735 -0.8693  0.3799
  972MOL0     O31116   8.490   6.734   3.026 -0.2303 -0.7455  0.0187
  972MOL0     C31117   8.570   6.632   3.065 -0.6572 -0.7637  0.1644
  972MOL0     C31118   8.560   6.512   2.989 -0.2833 -0.6507  0.9362
  972MOL0     C31119   8.641   6.394   3.005  0.1400 -0.4179 -0.5586
  972MOL0     C31120   8.747   6.397   3.095  0.0380 -0.0869 -0.3584
  972MOL0     O31121   8.809   6.287   3.148 -0.1439  0.1018  0.4534
  972MOL0     C31122   8.773   6.155   3.101 -0.8178 -0.6423  0.5462
  972MOL0     C31123   8.636   6.107   3.150  0.3763 -0.2987  0.2815
  972MOL0     C31124   8.603   5.966   3.094  0.7568  0.0907 -1.0529
  972MOL0     C31125   8.514   5.880   3.192 -0.5398  0.4727  0.6319
  972MOL0     C31126   8.499   5.744   3.117 -0.0071 -0.9877  0.6504
  972MOL0     C31127   8.399   5.647   3.199 -1.1822  0.3944  0.4565
  972MOL0     C31128   8.480   5.561   3.305 -0.0957  0.8251  0.1720
  972MOL0     C31129   8.395   5.442   3.351  0.7703  0.1118  0.8706
  972MOL0    Cl31130   8.479   5.315   3.456  0.3565  1.1383  0.0558
  972MOL0     C31131   8.763   6.518   3.171  0.2305 -0.2601  0.2817
  972MOL0     C31132   8.683   6.633   3.148  0.5668  0.1863  0.1882
  972MOL0     O31133   8.566   6.907   3.155  0.5191  0.1455  0.5382
  972MOL0     C31134   8.282   6.881   2.926  0.0701  0.2425 -0.3154
  972MOL0     C31135   8.173   6.938   2.878 -0.2741 -0.4218  0.2530
  972MOL0     N31136   7.895   6.827   2.673 -0.9209  0.6018 -0.7412
  972MOL0     N31137   7.963   6.737   2.610  0.5020  0.5471 -0.8504
  972MOL0     C31138   8.912   6.074   2.407 -0.2849  0.1301 -0.1510
  972MOL0     C31139   8.959   5.967   2.329 -0.3283 -0.0681  0.0544
  972MOL0     C31140   9.052   5.697   1.998 -0.5845 -0.7978  0.2504
  972MOL0     C31141   9.061   5.700   1.859  0.7804 -0.4143  0.3689
  972MOL0     C31142   9.114   5.582   1.796  0.1224  0.4223 -0.7306
  972MOL0     C31143   9.159   5.474   1.876  0.0561  0.2590  0.3121
  972MOL0     O31144   9.208   5.359   1.812  0.9396 -0.2033  0.5198
  972MOL0     C31145   9.345   5.332   1.849 -0.3483 -0.8142  0.0463
  972MOL0     C31146   9.444   5.377   1.741 -0.3890  0.3476 -0.2468
  972MOL0     C31147   9.419   5.316   1.609  0.2787 -0.0618  0.7473
  972MOL0     C31148   9.434   5.161   1.584  0.4573  0.1680  0.1692
  972MOL0     C31149   9.318   5.083   1.616  0.3745  0.1763 -0.4142
  972MOL0     C31150   9.222   5.017   1.651  0.5585 -0.3024  0.1309
  972MOL0     C31151   9.145   5.480   2.016 -0.3479 -0.5149  0.3720
  972MOL0     C31152   9.085   5.586   2.082  0.3963  1.6120 -0.5259
  972MOL0     H31153   8.679   5.926   2.130  0.6923 -2.0011  0.6695
  972MOL0     H31154   8.628   6.122   2.236  0.7462 -0.5958 -1.0582
  972MOL0     H31155   8.671   6.167   2.600  1.2547 -0.1803  5.0766
  972MOL0     H31156   8.826   6.265   2.630  0.2531 -0.1681  0.6618
  972MOL0     H31157   8.641   6.390   2.712 -0.7210  1.9808 -0.0755
  972MOL0     H31158   8.716   6.457   2.579  1.4705 -1.2356  0.5367
  972MOL0     H31159   8.521   6.351   2.432 -0.2926  0.4720 -0.6593
  972MOL0     H31160   8.432   6.315   2.578  0.0505  1.7994  3.5168
  972MOL0     H31161   8.415   6.535   2.650  1.9483 -1.1946 -0.2329
  972MOL0     H31162   8.539   6.588   2.531 -0.0684  0.2432  1.3865
  972MOL0     H31163   8.383   6.569   2.353 -0.5805  5.2632  1.3431
  972MOL0     H31164   8.266   6.492   2.452  0.4353 -0.4163 -2.2778
  972MOL0     H31165   8.234   6.725   2.579 -3.0279  0.9061 -1.1806
  972MOL0     H31166   8.379   6.771   2.474  1.0920 -1.7093 -2.2363
  972MOL0     H31167   8.175   6.854   2.353  1.4077  1.4769  0.5751
  972MOL0     H31168   8.238   6.711   2.276  1.5241  1.5550  0.9173
  972MOL0     H31169   8.070   6.582   2.417 -0.6735  0.9008  2.3985
  972MOL0     H31170   7.998   6.681   2.292 -0.3694  1.9175 -0.4145
  972MOL0     H31171   7.872   6.919   2.351  0.4098  1.8658  1.0993
  972MOL0     H31172   7.734   7.085   2.493 -3.3210 -3.1706 -0.4832
  972MOL0     H31173   7.649   6.997   2.607 -0.4159 -1.1230 -3.3196
  972MOL0     H31174   7.822   7.085   2.781 -4.0523 -0.0542  0.5453
  972MOL0     H31175   7.712   7.198   2.698  0.6462  3.2192 -2.4023
  972MOL0     H31176   7.928   7.318   2.684 -2.3081  0.6451 -2.7161
  972MOL0     H31177   7.918   7.212   2.549 -2.7956 -2.2550  0.8112
  972MOL0     H31178   8.139   7.209   2.675  1.8621 -1.7151  0.7067
  972MOL0     H31179   8.075   7.050   2.653 -0.0126  0.8932 -1.6384
  972MOL0     H31180   8.243   7.248   2.974  2.7009  0.0516 -0.7133
  972MOL0     H31181   8.432   7.115   3.245 -1.2470 -0.3708  0.7253
  972MOL0     H31182   8.530   7.180   3.101  0.4294  1.5356  2.3019
  972MOL0     H31183   8.403   7.267   3.155 -1.0288 -0.4575 -0.7386
  972MOL0     H31184   8.486   6.514   2.910  0.0877 -0.5779  0.5882
  972MOL0     H31185   8.603   6.308   2.951 -2.1620 -0.5971  1.1816
  972MOL0     H31186   8.786   6.156   2.993  2.6401 -2.1060  0.8520
  972MOL0     H31187   8.860   6.099   3.137 -0.7189 -0.6717  0.2607
  972MOL0     H31188   8.659   6.090   3.256  1.1646  2.8699  0.7362
  972MOL0     H31189   8.559   6.183   3.133  0.8553  0.7574  2.4201
  972MOL0     H31190   8.689   5.898   3.093  0.8166 -0.0413  2.2999
  972MOL0     H31191   8.558   5.968   2.995  0.4144 -2.3512 -0.9921
  972MOL0     H31192   8.567   5.867   3.286  3.3036  3.5795 -0.8129
  972MOL0     H31193   8.412   5.917   3.205 -1.9418 -2.7541 -0.1829
  972MOL0     H31194   8.584   5.685   3.082  0.8983  1.2631 -1.2159
  972MOL0     H31195   8.441   5.759   3.025 -1.2628 -2.9481  1.0558
  972MOL0     H31196   8.321   5.702   3.252 -0.7206 -0.8526  2.5243
  972MOL0     H31197   8.347   5.579   3.131 -0.3081 -3.7431  3.5480
  972MOL0     H31198   8.504   5.623   3.392 -1.0646  1.0159  0.3151
  972MOL0     H31199   8.575   5.532   3.260 -1.1498  0.3143 -1.8285
  972MOL0     H31200   8.379   5.383   3.260  4.2802 -2.1820  1.5634
  972MOL0     H31201   8.303   5.485   3.391 -1.0102 -0.8362 -1.9002
  972MOL0     H31202   8.831   6.508   3.256 -2.8234 -1.9097  2.7575
  972MOL0     H31203   8.706   6.716   3.214 -2.7497  0.0467  1.7013
  972MOL0     H31204   8.294   6.781   2.885 -1.3363  0.6921 -1.9285
  972MOL0     H31205   8.112   6.892   2.801 -0.2151  3.8166 -2.7198
  972MOL0     H31206   8.976   6.113   2.485 -0.6499 -1.5722  1.0364
  972MOL0     H31207   9.049   5.913   2.354  0.3245  0.7596 -0.4314
  972MOL0     H31208   9.033   5.783   1.795  1.1068 -0.0258  0.7266
  972MOL0     H31209   9.126   5.587   1.688 -0.8136  2.7354 -0.7849
  972MOL0     H31210   9.363   5.371   1.950  0.8712  1.1768 -0.9008
  972MOL0     H31211   9.361   5.224   1.857 -1.5364 -0.8857  3.3027
  972MOL0     H31212   9.549   5.369   1.773  0.4547 -1.8225 -3.1895
  972MOL0     H31213   9.419   5.484   1.735 -0.7319  0.2662 -0.2894
  972MOL0     H31214   9.484   5.367   1.538  1.1626 -1.0884  0.8081
  972MOL0     H31215   9.319   5.351   1.582  0.1908 -1.8542 -1.5912
  972MOL0     H31216   9.512   5.128   1.654  2.2451  0.0390 -1.7708
  972MOL0     H31217   9.471   5.138   1.483 -0.6070 -0.9888  0.0279
  972MOL0     H31218   9.134   4.967   1.685 -0.0831  1.2214  0.8396
  972MOL0     H31219   9.184   5.395   2.072  0.9729 -2.0243 -2.6500
  972MOL0     H31220   9.067   5.579   2.188 -2.4922  1.8204 -0.9151
  973MOL0     O31221   0.511   3.080   4.946 -0.2860 -0.0669 -0.4215
  973MOL0     C31222   0.435   3.170   4.992 -0.1197  1.2159  1.1301
  973MOL0     O31223   0.298   3.161   4.984 -0.0782 -0.2815  0.1681
  973MOL0     C31224   0.218   3.060   4.949  0.8080 -0.5737  0.6255
  973MOL0     C31225   0.088   3.068   4.993  1.3109  0.2823 -0.1504
  973MOL0     C31226  -0.011   2.962   4.972  0.1962 -1.1358 -0.1464
  973MOL0     C31227   0.028   2.847   4.900  0.1615  0.1594 -0.4650
  973MOL0     O31228  -0.061   2.752   4.845  0.3532 -0.2433 -0.4921
  973MOL0     C31229  -0.193   2.809   4.826  0.6529  0.5488  0.4832
  973MOL0     C31230  -0.286   2.702   4.756 -0.0853 -0.7293 -0.8442
  973MOL0     C31231  -0.407   2.663   4.840  0.5031  0.0905  0.1503
  973MOL0     C31232  -0.503   2.588   4.747  0.4476 -0.2718  0.0241
  973MOL0     C31233  -0.630   2.536   4.821  0.2114  0.1635  0.0244
  973MOL0     C31234  -0.604   2.426   4.913  1.1223  1.5093 -0.0578
  973MOL0     C31235  -0.725   2.403   4.998  0.2145  0.0808 -0.2223
  973MOL0     C31236  -0.701   2.285   5.091 -0.3440 -0.0801  1.2129
  973MOL0     N31237  -0.796   2.290   5.192  0.0357  0.2489  0.0817
  973MOL0     C31238  -0.932   2.241   5.185 -0.5229 -0.4547 -0.1534
  973MOL0     C31239  -0.973   2.244   5.311 -0.0970  0.2758 -0.3636
  973MOL0     C31240  -1.095   2.176   5.370 -0.0353 -0.0510 -0.2289
  973MOL0     C31241  -1.106   2.036   5.308  0.1376  0.6599  0.4961
  973MOL0     C31242  -1.196   1.953   5.393  0.0686  0.2487  0.2955
  973MOL0     C31243  -1.239   1.818   5.323  0.0598 -0.1582 -0.1942
  973MOL0     O31244  -1.342   1.849   5.223  0.3822 -0.7163 -0.4596
  973MOL0     C31245  -1.472   1.810   5.255 -0.4903 -0.1863 -0.1188
  973MOL0     C31246  -1.529   1.716   5.175  1.5913 -0.9392 -0.0891
  973MOL0     C31247  -1.665   1.677   5.208 -0.8136  0.2045 -0.5504
  973MOL0     C31248  -1.694   1.553   5.130  0.2746  0.3221  0.1875
  973MOL0     C31249  -1.740   1.743   5.315 -0.1111  0.0564 -0.5658
  973MOL0     C31250  -1.878   1.709   5.353  1.0571 -0.3418 -0.2377
  973MOL0     O31251  -1.936   1.775   5.467  0.5434 -0.1741  0.3050
  973MOL0     C31252  -2.074   1.750   5.495  0.1293  0.2708 -1.3707
  973MOL0     C31253  -2.176   1.766   5.412  0.2001 -0.9397  0.1161
  973MOL0     C31254  -2.310   1.752   5.460  0.1067  0.5660  0.8064
  973MOL0     C31255  -2.333   1.715   5.589 -0.1321  0.4854 -0.1497
  973MOL0     O31256  -2.461   1.685   5.628  0.1879 -0.2274  0.3730
  973MOL0     C31257  -2.565   1.780   5.583  0.0398  0.2758 -0.2906
  973MOL0     C31258  -2.678   1.778   5.686 -0.4117  0.3065 -0.9307
  973MOL0     C31259  -2.791   1.879   5.656  0.4439  0.0715 -0.6974
  973MOL0     C31260  -2.902   1.875   5.766 -0.6359  0.6945  0.4054
  973MOL0     C31261  -3.000   1.993   5.731 -0.2938  0.4119 -0.6946
  973MOL0     C31262  -3.132   1.975   5.811 -0.4933  0.0221 -0.1356
  973MOL0     C31263  -3.214   2.106   5.779  0.0833  0.2708  0.0211
  973MOL0     C31264  -3.351   2.109   5.844 -0.7480  0.5634 -0.1218
  973MOL0    Cl31265  -3.486   2.081   5.726  0.2867  0.1579  0.1561
  973MOL0     C31266  -2.234   1.683   5.676  0.4424  0.0740 -0.3964
  973MOL0     C31267  -2.106   1.703   5.625 -0.1914  0.1486 -0.1002
  973MOL0     O31268  -1.937   1.621   5.289 -0.2401  0.4439 -0.7434
  973MOL0     C31269  -1.670   1.841   5.394  1.0861  0.2744 -0.0642
  973MOL0     C31270  -1.542   1.872   5.361 -0.2163  0.0493 -0.2729
  973MOL0     N31271  -0.875   2.302   5.388 -0.0332  0.6241 -0.8576
  973MOL0     N31272  -0.768   2.319   5.316  0.1029 -0.2151 -0.5571
  973MOL0     C31273   0.163   2.837   4.872  0.2072 -0.7540  0.1123
  973MOL0     C31274   0.261   2.940   4.892  0.0656 -0.2334  0.9945
  973MOL0     C31275   0.495   3.287   5.027 -0.4272  0.1084  0.4040
  973MOL0     C31276   0.629   3.323   5.001  0.8909 -0.8268 -0.0825
  973MOL0     C31277   0.681   3.451   5.038  0.7479 -0.4306 -0.3624
  973MOL0     C31278   0.610   3.546   5.102 -0.1361 -0.9059 -0.3125
  973MOL0     O31279   0.663   3.665   5.152  0.2930  0.3194  0.0224
  973MOL0     C31280   0.806   3.691   5.179  0.2484  0.2756  0.1612
  973MOL0     C31281   0.879   3.774   5.067  0.1762  0.2145  1.3453
  973MOL0     C31282   1.030   3.776   5.091 -0.0368 -0.7321 -0.0954
  973MOL0     C31283   1.105   3.832   4.968  0.4033  0.0255 -0.4255
  973MOL0     C31284   1.235   3.879   5.007 -0.0732  0.1256 -0.2375
  973MOL0     C31285   1.348   3.905   5.048  0.6356 -0.0354 -0.0383
  973MOL0     C31286   0.477   3.511   5.127  0.4756  0.5910 -0.7672
  973MOL0     C31287   0.422   3.381   5.100 -0.5478 -0.1627 -0.1169
  973MOL0     H31288   0.047   3.157   5.039  1.3166 -0.5378  1.5139
  973MOL0     H31289  -0.111   2.987   5.007  0.1780 -0.2951 -0.7673
  973MOL0     H31290  -0.231   2.822   4.927  1.6656 -2.3736  1.3432
  973MOL0     H31291  -0.196   2.909   4.780  3.9424 -0.9375 -3.6365
  973MOL0     H31292  -0.331   2.731   4.660 -4.0689 -1.1935  0.6605
  973MOL0     H31293  -0.221   2.615   4.748  0.8457 -0.2617  1.0916
  973MOL0     H31294  -0.372   2.599   4.922  1.4284  1.3845  0.7879
  973MOL0     H31295  -0.445   2.750   4.894  0.7084  0.0210  0.4080
  973MOL0     H31296  -0.530   2.648   4.660  0.1720 -0.5347 -0.0749
  973MOL0     H31297  -0.451   2.497   4.715  0.4186  0.6704 -2.9532
  973MOL0     H31298  -0.689   2.610   4.876  0.7915 -0.3036  1.3314
  973MOL0     H31299  -0.699   2.496   4.746  0.0041 -1.7208  1.1623
  973MOL0     H31300  -0.598   2.346   4.839  1.6174  2.4117 -1.0119
  973MOL0     H31301  -0.517   2.439   4.978  2.9425 -0.4699 -1.9211
  973MOL0     H31302  -0.748   2.499   5.045  2.4420  1.7453 -2.2603
  973MOL0     H31303  -0.807   2.371   4.932  1.1766 -2.5217 -0.2854
  973MOL0     H31304  -0.601   2.299   5.133  0.3211  1.2123 -0.6707
  973MOL0     H31305  -0.704   2.190   5.036  0.6510 -0.3301  1.5727
  973MOL0     H31306  -0.988   2.207   5.099 -0.4836 -1.2646  0.1329
  973MOL0     H31307  -1.079   2.169   5.478 -1.9304  3.9861  0.4964
  973MOL0     H31308  -1.184   2.235   5.348  0.6191  1.6498  1.4104
  973MOL0     H31309  -1.012   1.979   5.312  0.1114  0.6147  0.4705
  973MOL0     H31310  -1.159   2.034   5.213 -0.9622  0.5359  1.0937
  973MOL0     H31311  -1.282   2.010   5.430  0.7692  1.0559  0.7300
  973MOL0     H31312  -1.144   1.923   5.485  0.0376  0.2972  0.3292
  973MOL0     H31313  -1.284   1.750   5.396 -3.8937 -0.4804 -2.6459
  973MOL0     H31314  -1.152   1.772   5.275 -0.3139 -1.4941  0.3581
  973MOL0     H31315  -1.465   1.659   5.108  1.5248  0.1618 -1.1153
  973MOL0     H31316  -1.744   1.572   5.034 -1.4084  0.4337  1.0494
  973MOL0     H31317  -1.602   1.495   5.121 -0.2254 -0.9318  2.4442
  973MOL0     H31318  -1.749   1.486   5.196  0.4791  0.4980  0.5421
  973MOL0     H31319  -2.163   1.795   5.308  4.3402 -3.2867 -0.2780
  973MOL0     H31320  -2.399   1.770   5.400  0.7973  0.8822 -0.1439
  973MOL0     H31321  -2.523   1.880   5.565  0.9070  0.2258  1.2681
  973MOL0     H31322  -2.608   1.748   5.488 -0.9567  0.9141 -0.0650
  973MOL0     H31323  -2.716   1.676   5.691 -0.1945  0.2395  2.9861
  973MOL0     H31324  -2.642   1.805   5.786  1.1393 -2.0226 -0.8063
  973MOL0     H31325  -2.836   1.858   5.558 -0.2457  2.2116 -0.8973
  973MOL0     H31326  -2.746   1.979   5.653 -1.0356  0.7702 -0.2854
  973MOL0     H31327  -2.949   1.776   5.774  0.1880  0.4535  4.1991
  973MOL0     H31328  -2.864   1.883   5.869 -2.0777 -2.5548  1.3283
  973MOL0     H31329  -3.026   1.976   5.626 -0.2613 -0.3646 -0.5854
  973MOL0     H31330  -2.960   2.093   5.748 -0.4443  0.4740 -0.7044
  973MOL0     H31331  -3.175   1.883   5.771 -0.2417 -0.2819  0.2835
  973MOL0     H31332  -3.114   1.971   5.918 -0.6002  0.2046 -0.1112
  973MOL0     H31333  -3.234   2.103   5.671  0.2583  2.9745 -0.1548
  973MOL0     H31334  -3.156   2.196   5.802  0.5937 -0.1134  0.2682
  973MOL0     H31335  -3.363   2.202   5.901 -0.0271  0.7818 -0.3146
  973MOL0     H31336  -3.360   2.038   5.927  2.1441  0.5382  0.2583
  973MOL0     H31337  -2.253   1.646   5.776  0.6829 -1.6870 -0.9791
  973MOL0     H31338  -2.028   1.704   5.700 -0.5913  2.0157  0.3378
  973MOL0     H31339  -1.709   1.891   5.483  2.4602 -0.1680  0.8131
  973MOL0     H31340  -1.506   1.951   5.425 -0.5770 -0.3846  0.4831
  973MOL0     H31341   0.204   2.742   4.839  3.2388  0.6217 -0.4314
  973MOL0     H31342   0.358   2.918   4.849 -0.2225 -1.3778  0.8958
  973MOL0     H31343   0.696   3.254   4.952  3.9274  2.1639 -0.5039
  973MOL0     H31344   0.789   3.459   5.027  0.6171  0.3466 -1.2832
  973MOL0     H31345   0.826   3.739   5.276  1.7463  0.6878 -0.3314
  973MOL0     H31346   0.858   3.595   5.181  0.9047  0.5531  3.8748
  973MOL0     H31347   0.842   3.877   5.071 -2.3972 -0.6442  0.9370
  973MOL0     H31348   0.843   3.729   4.975 -0.2533 -2.4724  2.7386
  973MOL0     H31349   1.084   3.682   5.099  2.2597  0.4936 -0.2908
  973MOL0     H31350   1.040   3.821   5.190 -0.0090 -2.3289  0.6596
  973MOL0     H31351   1.043   3.912   4.926  1.2547  0.5438 -0.7086
  973MOL0     H31352   1.105   3.754   4.891  0.4166  0.9895 -1.4245
  973MOL0     H31353   1.447   3.939   5.070 -0.1387  0.8687  2.3380
  973MOL0     H31354   0.416   3.573   5.192  1.2841 -0.3994  0.9790
  973MOL0     H31355   0.319   3.371   5.132 -0.6129 -0.8052 -0.5038
  974MOL0     O31356   6.949   6.261   8.254 -0.1463  0.5284  0.1252
  974MOL0     C31357   7.030   6.244   8.339 -0.0933 -0.3442 -0.0550
  974MOL0     O31358   7.078   6.117   8.372 -0.2852  0.3109  0.1095
  974MOL0     C31359   7.019   6.016   8.302 -1.5127  0.4254 -0.0414
  974MOL0     C31360   7.076   5.955   8.190 -0.0741  0.4717  0.3948
  974MOL0     C31361   7.005   5.839   8.131 -0.4209 -0.5806 -0.9770
  974MOL0     C31362   6.891   5.792   8.185 -0.8909  0.6326 -0.0225
  974MOL0     O31363   6.811   5.697   8.124  0.0057 -0.0408 -0.3536
  974MOL0     C31364   6.817   5.680   7.976 -0.2219 -0.0214  0.1223
  974MOL0     C31365   6.780   5.814   7.895 -0.3320  0.1254  0.4974
  974MOL0     C31366   6.650   5.869   7.936  0.1387 -0.1649 -1.5844
  974MOL0     C31367   6.610   5.998   7.868 -0.1271 -1.2088 -0.7934
  974MOL0     C31368   6.603   5.981   7.713 -0.3006  0.2926 -0.5372
  974MOL0     C31369   6.499   6.069   7.639  0.0760 -0.2012 -0.2979
  974MOL0     C31370   6.358   6.057   7.678  0.0951 -0.3388  0.1066
  974MOL0     C31371   6.261   6.132   7.591  0.1041 -0.1089 -0.4970
  974MOL0     N31372   6.118   6.119   7.625  0.0872 -0.3695 -0.5732
  974MOL0     C31373   6.036   6.026   7.579  0.3067 -0.2621  0.0604
  974MOL0     C31374   5.914   6.070   7.617  1.1573  0.1583 -1.0601
  974MOL0     C31375   5.785   5.989   7.588 -0.6328 -0.4251  0.4093
  974MOL0     C31376   5.693   6.044   7.478  0.2380 -0.1958 -0.0911
  974MOL0     C31377   5.627   6.176   7.523 -0.1312 -0.6791 -0.8996
  974MOL0     C31378   5.537   6.235   7.415  1.1143 -0.5698  0.3952
  974MOL0     O31379   5.590   6.222   7.285  0.0498  0.3066  0.8318
  974MOL0     C31380   5.505   6.226   7.176  0.4517 -0.4277 -0.6391
  974MOL0     C31381   5.388   6.305   7.179 -0.5054 -0.5699  0.3184
  974MOL0     C31382   5.296   6.302   7.069 -1.2103  0.1462  0.3182
  974MOL0     C31383   5.165   6.378   7.070  0.8775 -0.0661  0.0606
  974MOL0     C31384   5.324   6.218   6.964  0.3529  0.0664 -0.1046
  974MOL0     C31385   5.245   6.192   6.848  0.5714  0.4869  0.7896
  974MOL0     O31386   5.256   6.067   6.796  0.0775  0.2179 -0.4260
  974MOL0     C31387   5.173   6.031   6.697 -1.1829 -0.2064 -0.0277
  974MOL0     C31388   5.072   5.949   6.743  0.4870 -0.0905  0.3449
  974MOL0     C31389   4.982   5.897   6.657  0.4254  0.3320 -0.2438
  974MOL0     C31390   4.987   5.921   6.521 -0.3642 -1.1112  0.2506
  974MOL0     O31391   4.879   5.882   6.437 -0.2561  0.0441 -0.4925
  974MOL0     C31392   4.823   5.752   6.454 -0.1399  0.5276  0.4095
  974MOL0     C31393   4.688   5.747   6.533  0.1994  0.5488 -0.7653
  974MOL0     C31394   4.567   5.789   6.448  0.1083 -0.4054 -0.2392
  974MOL0     C31395   4.559   5.942   6.449 -0.6568  0.5255 -0.4272
  974MOL0     C31396   4.418   5.988   6.438  0.7056  0.2798  0.2735
  974MOL0     C31397   4.343   5.969   6.310  0.0544  0.0339  0.5270
  974MOL0     C31398   4.200   6.012   6.327 -0.8521  0.1900  0.1065
  974MOL0     C31399   4.125   5.987   6.186 -0.3952 -0.5048 -0.7718
  974MOL0    Cl31400   3.944   5.988   6.220 -0.0848 -0.2592  0.4526
  974MOL0     C31401   5.087   6.005   6.473  0.4657  0.2644 -0.3955
  974MOL0     C31402   5.185   6.068   6.564  0.3283 -0.2508  0.3711
  974MOL0     O31403   5.179   6.283   6.801 -0.1222 -0.3583  0.1858
  974MOL0     C31404   5.446   6.146   6.960  0.2254  0.2105  0.1424
  974MOL0     C31405   5.547   6.152   7.060  0.2148 -0.4575 -1.1075
  974MOL0     N31406   5.926   6.188   7.683 -0.7288  0.3352  0.2773
  974MOL0     N31407   6.051   6.223   7.681  0.2000  1.0640  0.5377
  974MOL0     C31408   6.842   5.848   8.305  0.6610 -0.0541  0.2662
  974MOL0     C31409   6.911   5.963   8.357  0.9674  0.5119 -0.1203
  974MOL0     C31410   7.093   6.360   8.413 -0.5264  0.4077 -0.0172
  974MOL0     C31411   7.092   6.488   8.355 -0.0317  0.0273  0.6685
  974MOL0     C31412   7.163   6.597   8.414 -0.6492 -0.0063  0.3711
  974MOL0     C31413   7.238   6.578   8.530  0.9183 -1.8895  0.1265
  974MOL0     O31414   7.319   6.682   8.577  0.2632 -0.7372 -0.4103
  974MOL0     C31415   7.249   6.791   8.639 -0.4252  0.6423  0.0352
  974MOL0     C31416   7.334   6.891   8.727  1.0751 -0.5370  1.2123
  974MOL0     C31417   7.439   6.957   8.653  0.1831 -0.3311 -0.3291
  974MOL0     C31418   7.390   7.049   8.534 -0.0881 -0.3137 -0.5746
  974MOL0     C31419   7.296   7.148   8.582  0.2156  0.6214  0.2313
  974MOL0     C31420   7.246   7.250   8.618 -0.4307 -0.8035 -0.1970
  974MOL0     C31421   7.238   6.450   8.586 -0.4547  0.1781 -0.2436
  974MOL0     C31422   7.164   6.338   8.529 -0.2665  0.1214 -0.5002
  974MOL0     H31423   7.165   5.996   8.143  0.7833 -3.2736 -1.6286
  974MOL0     H31424   7.049   5.808   8.037 -0.3606  0.0699 -1.1684
  974MOL0     H31425   6.919   5.653   7.946 -0.4777  0.9439 -1.7073
  974MOL0     H31426   6.755   5.594   7.950  1.5709 -1.2384 -0.3027
  974MOL0     H31427   6.865   5.882   7.883  0.3731 -1.1386 -2.3915
  974MOL0     H31428   6.763   5.789   7.790  0.7685 -0.3117  0.4091
  974MOL0     H31429   6.572   5.793   7.920 -0.7651  0.2955  0.3220
  974MOL0     H31430   6.648   5.885   8.044  0.3943 -2.4025 -1.1981
  974MOL0     H31431   6.511   6.018   7.912  0.8068 -0.8847  1.2688
  974MOL0     H31432   6.678   6.081   7.888 -3.4486  2.3626 -2.8352
  974MOL0     H31433   6.704   6.003   7.677  0.4048 -2.0161 -0.1121
  974MOL0     H31434   6.575   5.876   7.705 -0.3920 -0.1405  3.5086
  974MOL0     H31435   6.529   6.172   7.663 -0.7790 -0.3272  1.4988
  974MOL0     H31436   6.509   6.077   7.531  0.6651 -0.0534 -0.2389
  974MOL0     H31437   6.329   5.952   7.685  3.7491 -1.4921  0.3330
  974MOL0     H31438   6.345   6.098   7.778  1.7261 -1.5555  0.8653
  974MOL0     H31439   6.264   6.097   7.487 -1.8443  1.3265 -1.1027
  974MOL0     H31440   6.291   6.237   7.605 -2.0804  0.1706  3.3199
  974MOL0     H31441   6.052   5.929   7.532 -0.0299 -1.2646  1.9109
  974MOL0     H31442   5.825   5.894   7.551 -0.1393  0.2286 -0.7764
  974MOL0     H31443   5.722   5.984   7.678 -0.4340  0.1366  0.5837
  974MOL0     H31444   5.614   5.972   7.456 -1.8418  1.4560  1.5360
  974MOL0     H31445   5.764   6.066   7.398  1.0296 -1.6956  0.1759
  974MOL0     H31446   5.711   6.244   7.542 -0.0808 -1.2791  1.3587
  974MOL0     H31447   5.580   6.159   7.621  0.3740  0.5387 -0.4311
  974MOL0     H31448   5.514   6.339   7.436 -0.9886 -0.4175 -2.0774
  974MOL0     H31449   5.447   6.174   7.423 -0.2065  1.4154  1.3958
  974MOL0     H31450   5.377   6.376   7.261  2.1449  1.5688 -1.0360
  974MOL0     H31451   5.171   6.466   7.006  1.6759 -0.8115 -0.9271
  974MOL0     H31452   5.075   6.324   7.041  1.2381 -0.9040  0.4519
  974MOL0     H31453   5.148   6.416   7.171 -0.4372  0.9906 -0.5339
  974MOL0     H31454   5.079   5.919   6.847  0.2465 -0.8948  0.1379
  974MOL0     H31455   4.917   5.821   6.700  1.4599  1.9367  4.9049
  974MOL0     H31456   4.796   5.708   6.358  0.8529 -0.2671  0.4743
  974MOL0     H31457   4.894   5.677   6.492  2.8466  0.1459 -4.9162
  974MOL0     H31458   4.665   5.645   6.566  0.3621 -0.0740 -2.4680
  974MOL0     H31459   4.700   5.806   6.625  1.2453 -2.2371  1.0095
  974MOL0     H31460   4.475   5.752   6.495 -0.5998  0.0004 -1.2696
  974MOL0     H31461   4.568   5.744   6.348  1.9593 -0.3821 -0.2630
  974MOL0     H31462   4.604   5.980   6.541  0.6993 -2.6625  0.3319
  974MOL0     H31463   4.621   5.968   6.362 -1.5818 -4.0922 -2.7493
  974MOL0     H31464   4.419   6.097   6.453 -0.4274  0.3183  0.1499
  974MOL0     H31465   4.369   5.951   6.529  0.2949  0.9084  0.3172
  974MOL0     H31466   4.408   6.002   6.229  0.0623  1.9833  1.2810
  974MOL0     H31467   4.354   5.861   6.295 -1.1976  0.0321 -0.5913
  974MOL0     H31468   4.199   6.119   6.350  1.2937  0.7355 -1.8732
  974MOL0     H31469   4.155   5.960   6.412  0.6101  0.8866  1.3359
  974MOL0     H31470   4.154   5.890   6.143 -0.9723 -0.9301 -0.2218
  974MOL0     H31471   4.146   6.077   6.128 -2.3092  0.9400  0.6336
  974MOL0     H31472   5.081   6.051   6.375 -0.9524 -0.3353 -0.5981
  974MOL0     H31473   5.259   6.140   6.531  1.0804 -0.5022  1.4691
  974MOL0     H31474   5.485   6.094   6.873  0.5381 -0.3837  0.6192
  974MOL0     H31475   5.648   6.114   7.055  1.2785  2.0098 -0.2931
  974MOL0     H31476   6.746   5.815   8.344 -0.9574  1.8333 -1.8284
  974MOL0     H31477   6.865   6.004   8.447 -3.3169 -1.4808 -1.1446
  974MOL0     H31478   7.055   6.499   8.254 -1.9368  0.3685  1.3621
  974MOL0     H31479   7.168   6.692   8.363 -1.0506 -1.1072 -1.8692
  974MOL0     H31480   7.171   6.840   8.580 -1.3313  1.5603  1.9295
  974MOL0     H31481   7.191   6.745   8.719  0.3184 -1.4590 -0.5537
  974MOL0     H31482   7.384   6.838   8.808  0.1085  0.3004  2.3856
  974MOL0     H31483   7.270   6.965   8.775  1.8794 -1.2462  3.5325
  974MOL0     H31484   7.503   6.883   8.603 -1.3976 -1.5964 -0.5634
  974MOL0     H31485   7.500   7.022   8.715  1.7193 -2.3433  0.4053
  974MOL0     H31486   7.342   6.987   8.457  0.3168 -0.0856 -1.0138
  974MOL0     H31487   7.479   7.097   8.493 -0.1671  3.0199  2.6565
  974MOL0     H31488   7.225   7.348   8.655  1.2341  0.6108 -2.6842
  974MOL0     H31489   7.292   6.427   8.677  0.0610 -2.8994 -1.2323
  974MOL0     H31490   7.160   6.242   8.579 -2.4711  0.2574 -0.3368
  975MOL0     O31491   5.020   1.935   5.943  0.2545  0.5553 -0.1588
  975MOL0     C31492   5.076   1.937   5.833  1.0798 -0.6225 -0.6301
  975MOL0     O31493   5.030   1.876   5.720 -0.2841  0.2879 -0.6368
  975MOL0     C31494   4.899   1.845   5.697 -0.6958 -0.1866  0.1312
  975MOL0     C31495   4.797   1.811   5.785 -0.3899  0.4780 -0.1027
  975MOL0     C31496   4.671   1.776   5.746  0.3886 -0.0479  1.2310
  975MOL0     C31497   4.645   1.763   5.605 -0.0011 -1.4152 -0.7853
  975MOL0     O31498   4.529   1.712   5.554 -0.3823 -0.4100  0.3450
  975MOL0     C31499   4.404   1.724   5.620  0.0044  0.1951  0.7017
  975MOL0     C31500   4.343   1.586   5.642  0.8223 -0.2945  0.7378
  975MOL0     C31501   4.203   1.584   5.703 -0.1139  0.5447  0.1717
  975MOL0     C31502   4.203   1.593   5.857  0.2461 -0.0498  0.3276
  975MOL0     C31503   4.066   1.583   5.921  0.9353 -0.3455  0.0012
  975MOL0     C31504   3.956   1.661   5.850  0.0445 -0.9394  0.3368
  975MOL0     C31505   3.966   1.814   5.839  0.1785 -0.1183  0.3358
  975MOL0     C31506   3.823   1.854   5.785 -0.2907  1.1865 -0.4466
  975MOL0     N31507   3.810   2.002   5.769  0.0219 -0.4615 -0.0905
  975MOL0     C31508   3.765   2.080   5.865 -1.0176 -0.2666 -1.0924
  975MOL0     C31509   3.762   2.202   5.808 -0.3786  0.3598 -0.3097
  975MOL0     C31510   3.718   2.327   5.881 -0.4023  0.6939  0.5022
  975MOL0     C31511   3.556   2.357   5.867 -0.5449 -0.3329  0.0434
  975MOL0     C31512   3.503   2.472   5.956 -0.7935  0.2672  1.0931
  975MOL0     C31513   3.361   2.509   5.928  0.0065 -0.4019 -0.0138
  975MOL0     O31514   3.274   2.407   5.986  0.3636  0.6243 -0.2756
  975MOL0     C31515   3.137   2.417   5.963  0.1001 -0.4981 -0.0985
  975MOL0     C31516   3.084   2.536   5.916 -0.7161 -0.3908  0.0004
  975MOL0     C31517   2.949   2.534   5.868 -0.5753 -0.3418 -0.5518
  975MOL0     C31518   2.904   2.663   5.817  0.0688 -0.4810 -0.5592
  975MOL0     C31519   2.868   2.419   5.869  0.2162 -0.1746 -0.1779
  975MOL0     C31520   2.728   2.410   5.812 -0.4289  0.4284  0.3400
  975MOL0     O31521   2.650   2.302   5.839 -0.1189  0.4940  0.0046
  975MOL0     C31522   2.528   2.295   5.776  0.3779 -0.2086 -0.6293
  975MOL0     C31523   2.520   2.266   5.637  1.2297 -0.4454 -0.0525
  975MOL0     C31524   2.393   2.269   5.567  0.5035  0.0131 -0.4095
  975MOL0     C31525   2.270   2.288   5.638 -0.7380  0.0021 -1.5812
  975MOL0     O31526   2.153   2.268   5.572 -0.1976  1.3606 -0.1999
  975MOL0     C31527   2.052   2.361   5.616 -0.3127 -0.3748 -0.3170
  975MOL0     C31528   1.951   2.372   5.500  0.0042 -0.8864 -0.2999
  975MOL0     C31529   1.839   2.483   5.528 -0.1604 -0.1559 -0.7722
  975MOL0     C31530   1.743   2.480   5.399 -0.2845 -0.4320 -0.5452
  975MOL0     C31531   1.807   2.554   5.281 -0.5080  0.0597  0.5980
  975MOL0     C31532   1.730   2.496   5.158  0.6361 -0.4503  0.0066
  975MOL0     C31533   1.742   2.589   5.037  0.4777  0.2858 -0.6746
  975MOL0     C31534   1.860   2.564   4.947 -0.1480 -0.7638  0.7097
  975MOL0    Cl31535   1.830   2.648   4.781 -0.3633  0.0476  0.1231
  975MOL0     C31536   2.282   2.331   5.772 -0.7466  0.8881 -0.2032
  975MOL0     C31537   2.405   2.339   5.836 -0.0355  1.3288  0.0430
  975MOL0     O31538   2.691   2.505   5.736 -0.4720  0.3424  0.4509
  975MOL0     C31539   2.917   2.306   5.938 -0.0651 -0.7036  0.8789
  975MOL0     C31540   3.051   2.301   5.970 -0.7207  0.2073  0.4083
  975MOL0     N31541   3.797   2.198   5.679  0.2647 -0.1643  0.5846
  975MOL0     N31542   3.824   2.075   5.657 -0.1046 -0.0134  0.9691
  975MOL0     C31543   4.744   1.787   5.512  1.1807 -0.0773 -0.1230
  975MOL0     C31544   4.871   1.835   5.559  0.4119  0.5815  0.2390
  975MOL0     C31545   5.210   1.998   5.811 -0.6129 -0.0973  0.2826
  975MOL0     C31546   5.286   2.027   5.921 -0.6924  0.8111  0.4053
  975MOL0     C31547   5.414   2.063   5.904 -0.4230 -0.3643  0.5059
  975MOL0     C31548   5.468   2.094   5.783  0.2241  0.7976  0.4331
  975MOL0     O31549   5.600   2.128   5.762  0.6912  0.2157 -0.2415
  975MOL0     C31550   5.702   2.107   5.863  0.3970  0.0418  0.0643
  975MOL0     C31551   5.715   1.955   5.902 -0.6684 -1.4320 -0.2130
  975MOL0     C31552   5.841   1.921   5.977 -0.0307  0.7413 -0.0297
  975MOL0     C31553   5.847   1.973   6.124  0.3090 -0.6706 -0.1511
  975MOL0     C31554   5.757   1.921   6.224 -0.7350  0.1704  0.4755
  975MOL0     C31555   5.679   1.891   6.311 -0.7322 -0.1934 -0.1989
  975MOL0     C31556   5.395   2.071   5.666 -0.4908  0.0751  0.2267
  975MOL0     C31557   5.260   2.033   5.683 -0.8864  0.8068  0.4342
  975MOL0     H31558   4.810   1.831   5.891 -1.1451  1.2608 -0.1376
  975MOL0     H31559   4.598   1.736   5.817  0.4820 -1.7253  0.4255
  975MOL0     H31560   4.415   1.770   5.719 -0.7162  3.5264 -0.6066
  975MOL0     H31561   4.334   1.788   5.566 -1.5649 -1.0591  1.1798
  975MOL0     H31562   4.323   1.550   5.540  0.0485 -0.0179  0.7868
  975MOL0     H31563   4.410   1.507   5.677  3.0499  1.1120 -0.1006
  975MOL0     H31564   4.145   1.658   5.646  2.5053  1.6903 -1.1726
  975MOL0     H31565   4.154   1.488   5.686 -3.4357  1.3876  3.5676
  975MOL0     H31566   4.263   1.510   5.897 -0.4300 -1.5554 -1.6576
  975MOL0     H31567   4.236   1.690   5.897 -0.1919  0.2436 -0.0266
  975MOL0     H31568   4.030   1.480   5.933  0.8780 -0.1072  2.2144
  975MOL0     H31569   4.053   1.614   6.025  1.2625  0.0515 -0.0759
  975MOL0     H31570   3.944   1.612   5.753  3.3557  0.3402 -0.8529
  975MOL0     H31571   3.864   1.637   5.905 -1.3515  1.4052 -0.7943
  975MOL0     H31572   3.990   1.859   5.936  1.2317  2.6681 -1.1262
  975MOL0     H31573   4.043   1.847   5.769  0.8429 -1.8649  0.1852
  975MOL0     H31574   3.744   1.816   5.852  0.4295  0.6222  0.0997
  975MOL0     H31575   3.813   1.809   5.686  2.8599 -1.1545  0.1394
  975MOL0     H31576   3.762   2.076   5.973  3.6510 -0.5878 -0.7755
  975MOL0     H31577   3.736   2.309   5.987  0.8178 -1.1410  0.0352
  975MOL0     H31578   3.772   2.412   5.840 -1.7165  0.7364 -1.2906
  975MOL0     H31579   3.494   2.269   5.883  0.4384 -0.8412  1.1769
  975MOL0     H31580   3.541   2.383   5.761 -0.0191 -2.5090 -0.6158
  975MOL0     H31581   3.578   2.553   5.955 -3.7717  3.3658 -2.1598
  975MOL0     H31582   3.511   2.436   6.059 -0.0379  1.3817  1.4449
  975MOL0     H31583   3.346   2.513   5.819 -1.8292 -0.0246  0.2126
  975MOL0     H31584   3.345   2.608   5.970  0.1177 -0.9521  1.3592
  975MOL0     H31585   3.130   2.634   5.917 -2.1734  0.3805  2.5825
  975MOL0     H31586   2.889   2.653   5.709  1.4787  4.4585 -1.4533
  975MOL0     H31587   2.805   2.690   5.855  0.6130  3.0270 -1.2722
  975MOL0     H31588   2.972   2.748   5.821 -0.2909 -0.0776 -2.2075
  975MOL0     H31589   2.615   2.246   5.590  1.8013  3.0263 -0.6657
  975MOL0     H31590   2.389   2.245   5.461  3.0877  0.3142 -0.6549
  975MOL0     H31591   1.998   2.335   5.707  0.6127  0.7063  0.5677
  975MOL0     H31592   2.106   2.454   5.631  1.0054 -1.4137  1.7267
  975MOL0     H31593   2.009   2.404   5.412 -2.2019 -1.6287 -2.1171
  975MOL0     H31594   1.912   2.270   5.501  1.6811 -1.5748  1.2927
  975MOL0     H31595   1.886   2.581   5.544 -1.4504  0.6680 -1.8169
  975MOL0     H31596   1.774   2.454   5.612  0.3753 -0.4221 -0.4411
  975MOL0     H31597   1.708   2.378   5.378 -0.7638 -0.1908 -0.9217
  975MOL0     H31598   1.649   2.533   5.415 -1.3490 -2.0041 -1.3155
  975MOL0     H31599   1.912   2.523   5.273 -1.4398 -2.9948 -1.5986
  975MOL0     H31600   1.790   2.662   5.290  1.5679  0.7180 -2.1723
  975MOL0     H31601   1.771   2.401   5.122 -1.6669 -0.8438 -1.8053
  975MOL0     H31602   1.627   2.473   5.187  0.3398 -0.8961 -1.3274
  975MOL0     H31603   1.751   2.691   5.077  1.4133 -0.4725  1.2105
  975MOL0     H31604   1.656   2.583   4.971 -1.5749 -0.8044  1.9232
  975MOL0     H31605   1.873   2.458   4.926  1.3445 -0.7109  1.2893
  975MOL0     H31606   1.951   2.603   4.993  2.3077 -0.5581 -3.7634
  975MOL0     H31607   2.196   2.360   5.832 -1.6591 -1.9265  0.0456
  975MOL0     H31608   2.411   2.376   5.938 -0.1571  0.2826  0.4406
  975MOL0     H31609   2.851   2.221   5.958  0.4346 -1.9723 -2.2723
  975MOL0     H31610   3.083   2.206   6.011  0.1948  0.8872  1.3252
  975MOL0     H31611   4.711   1.770   5.410  0.2479 -0.6992  0.2676
  975MOL0     H31612   4.947   1.855   5.484  2.8767  0.6275  2.5854
  975MOL0     H31613   5.265   2.006   6.026  1.3047 -0.4261  0.6176
  975MOL0     H31614   5.472   2.081   5.994  0.4681 -2.2874  0.3683
  975MOL0     H31615   5.804   2.135   5.837  1.2373 -1.7449  1.2342
  975MOL0     H31616   5.674   2.168   5.949 -2.1014 -0.7252 -0.1262
  975MOL0     H31617   5.707   1.899   5.809 -1.4966  0.3946 -1.2994
  975MOL0     H31618   5.626   1.918   5.953 -0.6346 -1.3210 -0.0720
  975MOL0     H31619   5.931   1.951   5.924  0.0606 -3.3171 -2.5827
  975MOL0     H31620   5.846   1.812   5.979  1.3345  0.7822 -0.2479
  975MOL0     H31621   5.833   2.081   6.128  0.5738 -0.6243 -0.4290
  975MOL0     H31622   5.948   1.974   6.164 -0.2056  2.4541  1.3837
  975MOL0     H31623   5.627   1.878   6.404 -0.4787  0.2612  0.0120
  975MOL0     H31624   5.440   2.087   5.569  0.3806  3.4646  1.0587
  975MOL0     H31625   5.193   2.031   5.597 -1.2902  0.0675  0.7591
  976MOL0     O31626   6.648   3.313   9.043 -0.1044  0.1704  0.0365
  976MOL0     C31627   6.712   3.219   9.081  0.5301  0.3351 -0.9490
  976MOL0     O31628   6.852   3.210   9.092 -0.5976 -0.3172  0.7126
  976MOL0     C31629   6.929   3.322   9.052  0.1652  0.0430  1.0667
  976MOL0     C31630   6.900   3.377   8.928 -0.2963 -0.1564  0.1531
  976MOL0     C31631   6.976   3.480   8.869 -0.4026  0.3263  0.0054
  976MOL0     C31632   7.074   3.536   8.946  0.4199 -0.4610  0.1315
  976MOL0     O31633   7.147   3.637   8.897 -0.4300 -0.0819 -0.6226
  976MOL0     C31634   7.133   3.769   8.962  0.1891  0.4210  0.3975
  976MOL0     C31635   7.250   3.850   8.914 -0.5360 -0.1165 -0.4607
  976MOL0     C31636   7.362   3.842   9.016  0.2488  0.3075 -0.3518
  976MOL0     C31637   7.481   3.924   9.001 -0.8618 -0.4446  0.7416
  976MOL0     C31638   7.578   3.915   9.124  0.0530 -0.6621  0.2835
  976MOL0     C31639   7.531   3.982   9.254  0.4602 -0.8362 -0.7114
  976MOL0     C31640   7.635   3.979   9.366 -0.5133  0.3378 -0.4440
  976MOL0     C31641   7.771   4.056   9.340  0.1857  0.4648 -0.0642
  976MOL0     N31642   7.868   4.043   9.449 -0.3003 -0.0114  0.6133
  976MOL0     C31643   7.913   3.931   9.514  0.2792 -0.4986 -0.1557
  976MOL0     C31644   8.002   3.970   9.613 -0.1450 -0.7262  0.8078
  976MOL0     C31645   8.068   3.896   9.726 -0.6404  0.0114  0.4861
  976MOL0     C31646   8.062   3.742   9.717 -0.1256 -0.8966 -0.9557
  976MOL0     C31647   7.926   3.703   9.776 -0.2045  0.9085  0.5840
  976MOL0     C31648   7.915   3.688   9.929 -0.0048 -0.1259  0.6533
  976MOL0     O31649   8.011   3.592   9.989  0.5385 -0.0273  0.4708
  976MOL0     C31650   7.990   3.548  10.115  0.4970  0.0099 -0.3845
  976MOL0     C31651   7.865   3.530  10.174 -0.0002  0.8987  0.3722
  976MOL0     C31652   7.854   3.463  10.289  0.3780 -0.0183 -0.5621
  976MOL0     C31653   7.709   3.438  10.338  0.0908  1.0035  0.2789
  976MOL0     C31654   7.964   3.451  10.377 -0.7555  1.1182 -0.2261
  976MOL0     C31655   7.937   3.393  10.518 -0.5033  0.0243  0.5068
  976MOL0     O31656   8.017   3.442  10.623  0.3015  0.0243  0.8695
  976MOL0     C31657   7.996   3.384  10.742  0.2155 -1.3634  0.5657
  976MOL0     C31658   7.922   3.459  10.838  0.7179  0.3257  0.5037
  976MOL0     C31659   7.918   3.411  10.971 -0.3114  0.0541 -0.2673
  976MOL0     C31660   7.987   3.298  11.009  0.1199  0.6323 -0.2254
  976MOL0     O31661   7.958   3.258  11.142 -0.0383  0.2497 -0.6377
  976MOL0     C31662   8.006   3.135  11.195 -0.7060 -0.1083  0.8211
  976MOL0     C31663   7.912   3.019  11.155  0.0500 -0.1299  0.0952
  976MOL0     C31664   7.777   3.051  11.222 -0.3020  0.8087 -0.5138
  976MOL0     C31665   7.754   2.956  11.345 -0.0899  0.0646  0.1287
  976MOL0     C31666   7.724   2.798  11.305 -1.1685 -0.3263  0.1873
  976MOL0     C31667   7.605   2.784  11.215  0.2290  0.3678 -0.7314
  976MOL0     C31668   7.559   2.643  11.191 -0.0825  0.1133  0.5001
  976MOL0     C31669   7.475   2.647  11.063  0.2115 -0.1890  0.6146
  976MOL0    Cl31670   7.344   2.765  11.094 -0.1160 -0.2077 -0.0279
  976MOL0     C31671   8.062   3.232  10.906  0.6813 -0.7582  0.5195
  976MOL0     C31672   8.059   3.270  10.774 -0.0768  0.2031  0.1741
  976MOL0     O31673   7.870   3.287  10.524  0.4473 -0.6121 -0.5692
  976MOL0     C31674   8.089   3.494  10.334  0.2703  0.0545  0.5008
  976MOL0     C31675   8.099   3.550  10.201 -0.2535  0.2095 -0.2157
  976MOL0     N31676   8.003   4.109   9.602  0.3157 -0.0183  0.3013
  976MOL0     N31677   7.917   4.149   9.510 -0.4355 -0.2223  0.2832
  976MOL0     C31678   7.112   3.474   9.064 -0.1268 -0.5402  0.1809
  976MOL0     C31679   7.042   3.367   9.121  0.5926  0.3596 -0.9481
  976MOL0     C31680   6.643   3.098   9.130 -0.8187  0.5186  0.4174
  976MOL0     C31681   6.707   3.008   9.219 -0.1926 -0.2692 -0.4227
  976MOL0     C31682   6.643   2.901   9.279  0.8417 -0.2161 -1.1745
  976MOL0     C31683   6.506   2.875   9.254 -0.2496 -0.6659  0.4843
  976MOL0     O31684   6.444   2.774   9.314  0.6245 -0.0486  0.5453
  976MOL0     C31685   6.516   2.660   9.380 -0.2557  1.0807 -0.7847
  976MOL0     C31686   6.584   2.566   9.268  0.1521 -0.5834  0.4163
  976MOL0     C31687   6.632   2.440   9.333  0.1331 -0.4190  0.7218
  976MOL0     C31688   6.686   2.328   9.240  0.5856 -0.1622  0.7000
  976MOL0     C31689   6.764   2.232   9.317 -1.1193 -0.7847 -0.3047
  976MOL0     C31690   6.823   2.136   9.368  0.7504 -1.1514 -1.0208
  976MOL0     C31691   6.448   2.961   9.159  0.2294 -0.5845  0.0617
  976MOL0     C31692   6.509   3.072   9.104 -0.2342 -0.0308  0.6621
  976MOL0     H31693   6.817   3.327   8.879 -0.0911 -0.5703  0.2199
  976MOL0     H31694   6.945   3.519   8.773  0.5824  1.6449  0.1793
  976MOL0     H31695   7.036   3.805   8.926 -1.3061  0.1495  3.7514
  976MOL0     H31696   7.129   3.760   9.071 -0.7646 -1.7565  0.2297
  976MOL0     H31697   7.277   3.803   8.819 -0.4608  1.5290 -1.2754
  976MOL0     H31698   7.230   3.956   8.896  1.1022 -0.1665 -3.0846
  976MOL0     H31699   7.317   3.868   9.112  1.9745  1.9638  0.0766
  976MOL0     H31700   7.395   3.739   9.029 -4.2556 -1.3286 -0.0102
  976MOL0     H31701   7.533   3.904   8.907  0.4139  0.4885  1.2255
  976MOL0     H31702   7.439   4.025   8.992 -1.5896 -0.8985 -2.0314
  976MOL0     H31703   7.599   3.808   9.123 -0.7070 -0.8739 -2.4250
  976MOL0     H31704   7.679   3.949   9.097  0.8840 -2.3125  1.1237
  976MOL0     H31705   7.516   4.090   9.243 -2.5250 -1.1531 -0.6522
  976MOL0     H31706   7.438   3.945   9.297 -0.3259  2.0151  0.2872
  976MOL0     H31707   7.590   4.019   9.457 -0.6903  1.9497 -1.2026
  976MOL0     H31708   7.664   3.876   9.388 -1.0572  0.1548 -0.5805
  976MOL0     H31709   7.742   4.160   9.322  1.1917  0.4800 -1.7891
  976MOL0     H31710   7.817   4.016   9.249 -0.6082  2.8261 -1.5858
  976MOL0     H31711   7.883   3.830   9.488  0.6165 -0.4809 -0.6172
  976MOL0     H31712   8.172   3.931   9.730 -1.1702  1.5889  0.8275
  976MOL0     H31713   8.027   3.940   9.817  3.4831  3.4018  1.0236
  976MOL0     H31714   8.151   3.703   9.766 -1.5037 -0.6921  1.8671
  976MOL0     H31715   8.060   3.712   9.612 -0.4317 -3.2674 -0.3158
  976MOL0     H31716   7.893   3.613   9.723  0.6751  1.5965 -1.1995
  976MOL0     H31717   7.842   3.765   9.744 -2.0633 -1.2894  0.9689
  976MOL0     H31718   7.811   3.660   9.947 -1.2542  1.8040 -2.6129
  976MOL0     H31719   7.916   3.791   9.967  0.5136 -0.3526  1.2750
  976MOL0     H31720   7.774   3.543  10.117  0.3863 -0.6390 -0.6726
  976MOL0     H31721   7.696   3.475  10.440 -1.4108 -1.3955  1.0272
  976MOL0     H31722   7.639   3.495  10.276  1.0561 -0.1665 -2.0022
  976MOL0     H31723   7.684   3.332  10.329  2.0734  0.6059 -1.8363
  976MOL0     H31724   7.881   3.555  10.810  2.4964  1.3896  1.3375
  976MOL0     H31725   7.866   3.468  11.048 -1.4344 -1.3738  0.0564
  976MOL0     H31726   8.110   3.119  11.165 -1.2022 -0.6300 -0.7280
  976MOL0     H31727   8.005   3.148  11.303 -2.1833 -0.3972  0.8647
  976MOL0     H31728   7.908   3.012  11.046  1.0844 -0.4256  0.0634
  976MOL0     H31729   7.957   2.924  11.185  2.1100  0.1001 -1.9236
  976MOL0     H31730   7.703   3.040  11.143  0.2469 -1.8390 -0.7591
  976MOL0     H31731   7.764   3.154  11.257 -0.8085  1.0779 -1.4751
  976MOL0     H31732   7.853   2.943  11.390  0.0809 -1.8056 -0.6928
  976MOL0     H31733   7.677   2.986  11.416  0.8249 -3.4404  2.9290
  976MOL0     H31734   7.707   2.739  11.396 -0.9550  1.0800  1.1584
  976MOL0     H31735   7.808   2.758  11.247  0.4862  1.2920  1.3603
  976MOL0     H31736   7.521   2.847  11.246  0.3405 -0.6729  1.9781
  976MOL0     H31737   7.647   2.829  11.125 -0.7592 -1.3724 -2.1115
  976MOL0     H31738   7.504   2.620  11.283  3.0860 -0.0897  2.4968
  976MOL0     H31739   7.640   2.575  11.163  0.1496  0.6276 -0.0933
  976MOL0     H31740   7.426   2.553  11.039 -0.3586  1.0892 -4.2090
  976MOL0     H31741   7.548   2.663  10.983 -1.0070 -2.0642 -0.9432
  976MOL0     H31742   8.115   3.141  10.932  0.6637 -1.2422 -1.0208
  976MOL0     H31743   8.111   3.211  10.700 -2.0522 -3.3834  1.3853
  976MOL0     H31744   8.170   3.458  10.397 -0.5685  0.8940  2.1408
  976MOL0     H31745   8.195   3.575  10.157  0.5794  0.0153  1.4323
  976MOL0     H31746   7.201   3.509   9.114 -0.7747  0.4802  0.6617
  976MOL0     H31747   7.075   3.315   9.210  0.1336  1.5899 -0.0260
  976MOL0     H31748   6.813   3.020   9.241 -0.7682  0.0071  2.6776
  976MOL0     H31749   6.690   2.850   9.362 -0.3053  1.4604  0.5903
  976MOL0     H31750   6.601   2.687   9.443 -0.2055  0.1290 -0.4336
  976MOL0     H31751   6.450   2.601   9.443 -2.0201  1.0545 -2.5582
  976MOL0     H31752   6.666   2.624   9.225 -0.4265  0.0168  0.1140
  976MOL0     H31753   6.508   2.548   9.191  0.1405  1.8365 -0.2318
  976MOL0     H31754   6.538   2.412   9.381 -2.0813  3.9849 -0.6036
  976MOL0     H31755   6.712   2.471   9.402 -0.0206 -1.1044  1.2214
  976MOL0     H31756   6.734   2.368   9.151 -0.7694 -3.8852 -1.9995
  976MOL0     H31757   6.605   2.276   9.188  0.2025 -3.0004  3.7600
  976MOL0     H31758   6.860   2.045   9.410 -0.4435 -2.7080 -3.1510
  976MOL0     H31759   6.345   2.931   9.141 -0.3685  1.9366 -1.1198
  976MOL0     H31760   6.459   3.144   9.040  0.9715 -0.6066 -1.0058
  977MOL0     O31761   3.218  10.955   4.137 -0.1449 -0.3316  0.3798
  977MOL0     C31762   3.221  10.922   4.019 -1.0973  0.4097 -0.1667
  977MOL0     O31763   3.251  11.003   3.910  0.1872 -0.2103 -0.5610
  977MOL0     C31764   3.254  11.140   3.939 -0.3878  0.3977  0.7306
  977MOL0     C31765   3.365  11.217   3.912  0.1558 -0.1700  0.1021
  977MOL0     C31766   3.364  11.350   3.930  0.2708 -0.1312  0.0356
  977MOL0     C31767   3.251  11.427   3.969 -0.1257 -0.1437 -0.4939
  977MOL0     O31768   3.258  11.565   3.957 -0.1158  0.2414 -0.7367
  977MOL0     C31769   3.146  11.637   4.020 -0.3029  0.3618 -0.8003
  977MOL0     C31770   3.178  11.781   3.998  1.0406 -0.9302 -0.9206
  977MOL0     C31771   3.304  11.838   4.055 -0.7661  0.0213 -0.6233
  977MOL0     C31772   3.303  11.997   4.037  0.3513 -0.0668  0.8898
  977MOL0     C31773   3.432  12.061   4.077  0.8974 -0.1001  0.5894
  977MOL0     C31774   3.433  12.216   4.056  0.4457  0.9575  0.1543
  977MOL0     C31775   3.474  12.278   4.191 -0.1837 -0.9393  0.0520
  977MOL0     C31776   3.487  12.439   4.174  0.1443  0.0088 -0.2914
  977MOL0     N31777   3.540  12.488   4.298 -0.6375  0.1866 -0.0557
  977MOL0     C31778   3.485  12.467   4.430 -0.2012  0.6331 -0.4709
  977MOL0     C31779   3.559  12.553   4.504  0.3362  0.0792 -0.5751
  977MOL0     C31780   3.528  12.573   4.652  0.0239  0.7058  0.3816
  977MOL0     C31781   3.384  12.630   4.674  0.9505  0.4927  0.4937
  977MOL0     C31782   3.275  12.515   4.687  0.2457  1.0586 -0.4956
  977MOL0     C31783   3.134  12.572   4.676  0.2614  0.5651  0.9927
  977MOL0     O31784   3.038  12.459   4.666  0.1448 -0.7963  0.4149
  977MOL0     C31785   3.019  12.408   4.539  0.1741 -0.0431  1.1353
  977MOL0     C31786   3.052  12.463   4.407  1.0449  1.0175 -0.7321
  977MOL0     C31787   3.010  12.392   4.291  0.4490  0.4160 -0.4508
  977MOL0     C31788   3.054  12.451   4.160  0.2365 -0.1251 -0.4271
  977MOL0     C31789   2.930  12.275   4.301 -0.7320  0.5195 -0.0429
  977MOL0     C31790   2.893  12.190   4.185  0.4032 -0.0449  0.5619
  977MOL0     O31791   2.891  12.247   4.065 -0.0131  0.2229  0.6747
  977MOL0     C31792   2.863  12.180   3.948  0.4185 -0.4006  0.0767
  977MOL0     C31793   2.757  12.208   3.866  0.2535 -0.5663  0.2944
  977MOL0     C31794   2.740  12.145   3.739  0.1166 -0.2758 -0.1464
  977MOL0     C31795   2.824  12.038   3.693 -0.9829  0.3964 -0.4268
  977MOL0     O31796   2.813  11.979   3.565 -0.1469  0.4426 -0.9405
  977MOL0     C31797   2.737  11.853   3.581  0.1240  0.0074 -0.8995
  977MOL0     C31798   2.716  11.788   3.450 -0.4712 -0.0664 -0.2091
  977MOL0     C31799   2.645  11.869   3.346 -0.1292  0.2071 -0.1971
  977MOL0     C31800   2.709  11.816   3.217 -0.3937 -0.5477  0.5585
  977MOL0     C31801   2.626  11.863   3.099  0.2577  0.2841 -0.6176
  977MOL0     C31802   2.661  11.793   2.970 -0.4613 -0.2160  0.8344
  977MOL0     C31803   2.612  11.864   2.838  0.8405  0.5529  0.1699
  977MOL0     C31804   2.567  11.769   2.728  0.2977  0.7015  0.5789
  977MOL0    Cl31805   2.702  11.658   2.676  0.0513 -0.1398  0.1049
  977MOL0     C31806   2.932  12.002   3.786 -1.0778  0.6422  0.8536
  977MOL0     C31807   2.934  12.065   3.915 -0.7416 -0.6195  0.8019
  977MOL0     O31808   2.898  12.071   4.204  0.1825 -0.3963 -0.3673
  977MOL0     C31809   2.915  12.224   4.428  0.1140  0.1870 -0.5681
  977MOL0     C31810   2.948  12.292   4.546  0.4440  0.2479  0.1637
  977MOL0     N31811   3.650  12.621   4.423 -0.3929  0.1065 -0.0571
  977MOL0     N31812   3.639  12.584   4.300  0.2203  0.0649  0.1475
  977MOL0     C31813   3.132  11.360   3.983 -0.3172 -0.3842 -0.0344
  977MOL0     C31814   3.134  11.218   3.964  0.0452 -0.1147 -0.2396
  977MOL0     C31815   3.217  10.772   3.982  0.3681 -0.0909  0.4905
  977MOL0     C31816   3.241  10.662   4.071 -0.4050 -0.2091 -0.4970
  977MOL0     C31817   3.243  10.527   4.036 -0.1976 -0.2305  0.9254
  977MOL0     C31818   3.214  10.497   3.898 -0.6456  0.6935 -0.5306
  977MOL0     O31819   3.217  10.370   3.869 -0.0043  0.3461  0.5390
  977MOL0     C31820   3.321  10.330   3.769  0.5160 -0.2479 -0.0131
  977MOL0     C31821   3.377  10.202   3.812  0.0912  0.7841  0.0520
  977MOL0     C31822   3.462  10.225   3.948 -0.0711 -0.5611  0.7320
  977MOL0     C31823   3.521  10.090   4.000  0.9825  0.6187 -0.6548
  977MOL0     C31824   3.407  10.009   4.046  0.6217 -0.1797 -0.0061
  977MOL0     C31825   3.312   9.963   4.105  0.5080  0.2683  0.0506
  977MOL0     C31826   3.187  10.598   3.809  0.2315 -1.3663  0.5371
  977MOL0     C31827   3.189  10.736   3.846 -0.1417 -0.7007  0.4332
  977MOL0     H31828   3.457  11.170   3.877  0.9351  0.3517  1.3758
  977MOL0     H31829   3.449  11.403   3.888  0.8599 -1.7392 -0.8648
  977MOL0     H31830   3.052  11.623   3.967 -0.1051 -1.1476 -0.7881
  977MOL0     H31831   3.130  11.614   4.126  0.3458  1.0905 -0.5335
  977MOL0     H31832   3.188  11.800   3.891  2.2123  1.0061 -0.5117
  977MOL0     H31833   3.090  11.835   4.034  1.8890  0.9510 -1.5442
  977MOL0     H31834   3.314  11.811   4.160 -0.0109  2.7923  0.1050
  977MOL0     H31835   3.387  11.793   3.999  0.4105 -2.0074  2.4838
  977MOL0     H31836   3.290  12.018   3.931  0.2050  0.1579  0.9513
  977MOL0     H31837   3.224  12.047   4.095 -1.2625 -1.2262 -0.2104
  977MOL0     H31838   3.453  12.031   4.180 -0.5048  1.5365  1.4089
  977MOL0     H31839   3.517  12.020   4.021 -0.3312  0.5937 -1.9286
  977MOL0     H31840   3.499  12.259   3.980  1.5278  1.1032  1.1480
  977MOL0     H31841   3.330  12.238   4.025 -0.5526  0.7103  3.0384
  977MOL0     H31842   3.400  12.253   4.268 -0.0158  0.8263  0.8449
  977MOL0     H31843   3.567  12.237   4.231  1.8942  2.8770 -0.3909
  977MOL0     H31844   3.397  12.496   4.150 -0.2094 -0.7967 -0.9132
  977MOL0     H31845   3.560  12.464   4.096 -0.4009  2.3126 -0.1252
  977MOL0     H31846   3.409  12.396   4.459 -2.5237  2.3960 -1.8942
  977MOL0     H31847   3.531  12.477   4.704  0.1004  1.4194  1.7215
  977MOL0     H31848   3.606  12.642   4.685  0.2776  1.3382 -1.4108
  977MOL0     H31849   3.348  12.684   4.586 -0.5426 -3.3518 -1.4762
  977MOL0     H31850   3.369  12.692   4.763 -0.9291 -0.1540  0.6601
  977MOL0     H31851   3.280  12.464   4.783 -2.5715 -1.0650 -1.3408
  977MOL0     H31852   3.275  12.438   4.609 -1.9155  0.6875 -0.1925
  977MOL0     H31853   3.123  12.637   4.589  4.1945  1.3698  0.9416
  977MOL0     H31854   3.104  12.642   4.754 -3.1601  1.4603 -0.9258
  977MOL0     H31855   3.092  12.563   4.392 -0.0417  2.0860  2.5793
  977MOL0     H31856   3.118  12.379   4.107  2.2821 -0.0754  1.7920
  977MOL0     H31857   2.970  12.500   4.110  0.1136  2.0136  1.6875
  977MOL0     H31858   3.128  12.525   4.190  0.1599 -0.9636  2.0128
  977MOL0     H31859   2.679  12.275   3.900 -1.4466 -2.9169  1.3495
  977MOL0     H31860   2.654  12.156   3.673 -0.7457  1.8240  1.2186
  977MOL0     H31861   2.791  11.785   3.648 -0.7870 -0.8924 -1.0590
  977MOL0     H31862   2.635  11.861   3.621  0.0691 -1.0081 -0.8031
  977MOL0     H31863   2.814  11.757   3.412 -0.7507 -0.0148 -0.9942
  977MOL0     H31864   2.660  11.699   3.480 -1.2062 -0.0324 -1.4371
  977MOL0     H31865   2.666  11.975   3.359  1.0508 -0.2435  1.8969
  977MOL0     H31866   2.538  11.845   3.343  0.2100 -1.4656  0.0752
  977MOL0     H31867   2.809  11.856   3.201 -0.6470 -1.1406 -3.2678
  977MOL0     H31868   2.719  11.707   3.220  0.1909 -0.4945  0.5923
  977MOL0     H31869   2.635  11.972   3.087  1.2066  0.3184  0.3347
  977MOL0     H31870   2.518  11.851   3.115  0.5669 -0.0904  1.5508
  977MOL0     H31871   2.770  11.800   2.966 -0.5185  0.7943  0.5658
  977MOL0     H31872   2.627  11.690   2.963  2.3630 -1.2345  0.7316
  977MOL0     H31873   2.687  11.932   2.797 -0.9901  2.6995  0.2076
  977MOL0     H31874   2.539  11.940   2.864  3.5556  2.2652  3.5448
  977MOL0     H31875   2.552  11.837   2.644  2.2686  0.4007 -0.0680
  977MOL0     H31876   2.473  11.718   2.751 -0.3301  0.0971 -2.7634
  977MOL0     H31877   2.990  11.915   3.755 -3.1284 -0.0244 -1.5248
  977MOL0     H31878   3.010  12.047   3.991  1.9182  1.4199 -1.1823
  977MOL0     H31879   2.864  12.128   4.429 -1.0322  0.6475 -3.8436
  977MOL0     H31880   2.929  12.251   4.645  1.1177 -2.7405 -0.8416
  977MOL0     H31881   3.040  11.417   3.986  1.3776  2.6894 -1.2024
  977MOL0     H31882   3.037  11.171   3.977  0.9440 -1.3602  2.9873
  977MOL0     H31883   3.280  10.689   4.168 -1.0810  2.1764 -0.8252
  977MOL0     H31884   3.286  10.454   4.104 -1.1450  0.5241  2.3980
  977MOL0     H31885   3.288  10.329   3.665  2.1513  2.0850 -0.6219
  977MOL0     H31886   3.403  10.402   3.776 -2.1948  2.9559  0.9518
  977MOL0     H31887   3.455  10.173   3.742 -1.7507  1.4800 -2.4259
  977MOL0     H31888   3.300  10.126   3.801  1.1106 -0.1361 -0.8638
  977MOL0     H31889   3.392  10.264   4.022  0.6261 -2.3254  2.4114
  977MOL0     H31890   3.543  10.295   3.928 -0.0290 -0.4830  1.1608
  977MOL0     H31891   3.594  10.094   4.082  3.7279 -2.7951 -2.6640
  977MOL0     H31892   3.581  10.042   3.923 -0.3535  0.5953 -1.7065
  977MOL0     H31893   3.223   9.924   4.151  1.9989 -2.6526  0.7278
  977MOL0     H31894   3.162  10.575   3.706  2.5698 -0.8097 -0.2024
  977MOL0     H31895   3.173  10.814   3.773  0.4920  0.3571  1.4024
  978MOL0     O31896   4.961   4.002   9.636 -0.2145  0.3893  0.3658
  978MOL0     C31897   5.006   3.892   9.627  0.2029  0.2813  0.8733
  978MOL0     O31898   4.923   3.775   9.591  0.0658 -0.5715  1.0218
  978MOL0     C31899   4.798   3.789   9.547  0.6674 -0.3811 -0.1748
  978MOL0     C31900   4.696   3.826   9.630 -0.7501 -0.8357 -0.6143
  978MOL0     C31901   4.565   3.859   9.580  0.3457 -0.8764  0.1011
  978MOL0     C31902   4.535   3.834   9.441  0.4910  0.6594 -0.8089
  978MOL0     O31903   4.413   3.849   9.390 -0.2943  0.3041  0.3147
  978MOL0     C31904   4.323   3.939   9.451  0.7539  0.2651  0.6752
  978MOL0     C31905   4.219   3.971   9.344  0.1085 -0.1653  1.1062
  978MOL0     C31906   4.138   4.090   9.376  0.4581 -0.8121 -0.5825
  978MOL0     C31907   4.032   4.048   9.478 -0.3130  0.2621  0.2130
  978MOL0     C31908   3.955   4.169   9.541  0.1261 -0.1112  0.3835
  978MOL0     C31909   3.858   4.239   9.441 -0.2953  0.3605 -0.2159
  978MOL0     C31910   3.734   4.154   9.401  0.4816 -0.1086  2.0486
  978MOL0     C31911   3.605   4.234   9.415  0.4805 -0.6365 -1.3893
  978MOL0     N31912   3.489   4.192   9.337 -0.0440  0.3700  0.1393
  978MOL0     C31913   3.451   4.055   9.311 -1.0013 -0.6868 -0.0088
  978MOL0     C31914   3.344   4.057   9.228  0.4974  0.2658 -0.3113
  978MOL0     C31915   3.301   3.928   9.159 -0.0032 -0.6549  0.4380
  978MOL0     C31916   3.330   3.936   9.016  0.7383  0.5834  0.3760
  978MOL0     C31917   3.296   3.799   8.943 -0.3764  0.3818  0.5726
  978MOL0     C31918   3.276   3.812   8.792  0.5325 -0.4285  0.1043
  978MOL0     O31919   3.396   3.866   8.735 -0.0365 -0.1739 -0.3364
  978MOL0     C31920   3.383   3.935   8.618  0.4481 -0.2377  0.3475
  978MOL0     C31921   3.449   3.879   8.509  0.6923  0.2921  0.7174
  978MOL0     C31922   3.450   3.932   8.387  0.2006  0.1003  0.2572
  978MOL0     C31923   3.523   3.859   8.283 -0.0871 -0.1587 -0.6839
  978MOL0     C31924   3.374   4.045   8.359 -0.2668 -0.9665 -0.9704
  978MOL0     C31925   3.363   4.105   8.226 -0.0020 -0.1235 -0.9218
  978MOL0     O31926   3.406   4.034   8.121  0.6595 -0.0751  0.4675
  978MOL0     C31927   3.360   4.059   7.996 -0.5508  0.4120  0.6302
  978MOL0     C31928   3.453   4.070   7.891 -0.2957  0.1141  0.5631
  978MOL0     C31929   3.405   4.096   7.758  0.4835 -0.6938  0.0782
  978MOL0     C31930   3.268   4.101   7.721  0.0170  0.0029 -0.3255
  978MOL0     O31931   3.237   4.116   7.584 -0.5059  0.3619 -0.2702
  978MOL0     C31932   3.093   4.119   7.552 -0.4491  0.6147  0.5804
  978MOL0     C31933   3.032   3.981   7.546  0.0161  0.6230  0.0372
  978MOL0     C31934   2.900   3.975   7.473  0.5601  0.5929  0.2428
  978MOL0     C31935   2.927   3.986   7.325  0.3537 -0.2425  0.6154
  978MOL0     C31936   2.803   3.978   7.243  0.7054 -0.4818 -0.4872
  978MOL0     C31937   2.700   4.087   7.258 -0.1766  0.3603 -0.3909
  978MOL0     C31938   2.770   4.222   7.231  0.6014  0.1152 -0.9374
  978MOL0     C31939   2.670   4.325   7.186 -0.3732  0.1744  0.2077
  978MOL0    Cl31940   2.744   4.494   7.162 -0.3850  0.0463 -0.0137
  978MOL0     C31941   3.179   4.078   7.830  0.3111 -0.3584  0.2248
  978MOL0     C31942   3.222   4.068   7.961 -1.0447  0.0389  0.0199
  978MOL0     O31943   3.313   4.221   8.217  0.2573 -0.4887  0.5002
  978MOL0     C31944   3.322   4.115   8.471  0.0609  0.7345 -0.3764
  978MOL0     C31945   3.313   4.053   8.596  0.1241 -0.5062  0.0564
  978MOL0     N31946   3.313   4.186   9.205  0.3859 -0.5689 -0.0301
  978MOL0     N31947   3.396   4.262   9.271 -0.1320  0.6452  0.3387
  978MOL0     C31948   4.640   3.785   9.363  0.4161 -0.6335  0.5392
  978MOL0     C31949   4.777   3.774   9.407  0.1555  1.0649 -0.0909
  978MOL0     C31950   5.148   3.889   9.651  0.0485  0.2354 -0.5326
  978MOL0     C31951   5.219   3.764   9.626 -0.8585 -0.5833  0.1339
  978MOL0     C31952   5.359   3.768   9.641 -0.6276 -0.1148 -0.9744
  978MOL0     C31953   5.434   3.886   9.678  0.0995 -0.0294 -0.2256
  978MOL0     O31954   5.568   3.862   9.701 -0.8598  0.3976  0.1014
  978MOL0     C31955   5.651   3.989   9.687  0.6277  0.5759  0.0611
  978MOL0     C31956   5.791   3.953   9.653 -0.0423  0.8514  0.1869
  978MOL0     C31957   5.880   4.066   9.601 -0.4945 -0.6182 -0.2745
  978MOL0     C31958   5.848   4.109   9.457 -0.6644  0.4001 -0.7003
  978MOL0     C31959   5.863   3.996   9.365  0.2182  1.1234 -1.1782
  978MOL0     C31960   5.886   3.899   9.304 -0.2261  1.1276  0.0870
  978MOL0     C31961   5.366   4.003   9.709  0.8669  0.3202  0.6755
  978MOL0     C31962   5.220   4.005   9.699 -1.4768 -0.5221 -0.6040
  978MOL0     H31963   4.735   3.828   9.732  2.2170 -0.1032 -1.6601
  978MOL0     H31964   4.500   3.888   9.662  2.8692 -0.5220  2.0835
  978MOL0     H31965   4.285   3.895   9.543 -1.7669  0.6927 -0.0960
  978MOL0     H31966   4.369   4.035   9.476 -0.8263  0.8793  1.3534
  978MOL0     H31967   4.288   3.998   9.264  1.3667 -1.9878  1.5133
  978MOL0     H31968   4.160   3.884   9.313 -2.2703  1.6304  0.2592
  978MOL0     H31969   4.205   4.166   9.419  0.3450 -1.2236  0.3417
  978MOL0     H31970   4.091   4.133   9.287  0.1054  1.0009  0.4171
  978MOL0     H31971   3.957   3.980   9.438  1.0374 -0.1122 -1.7897
  978MOL0     H31972   4.078   3.986   9.556 -1.4534  1.9895  2.3766
  978MOL0     H31973   3.891   4.128   9.620 -1.0813 -1.2099 -1.0833
  978MOL0     H31974   4.026   4.243   9.578 -0.1283 -0.0243  0.6988
  978MOL0     H31975   3.817   4.327   9.490 -1.2589 -0.8356  1.2024
  978MOL0     H31976   3.916   4.282   9.359  4.0020 -0.9863  1.8253
  978MOL0     H31977   3.748   4.126   9.296 -2.7807  2.1236  0.8650
  978MOL0     H31978   3.723   4.057   9.452  0.2117 -0.0617  2.0804
  978MOL0     H31979   3.615   4.343   9.407  0.2734 -0.4507  0.3583
  978MOL0     H31980   3.573   4.218   9.518  3.9899 -0.9935 -0.2171
  978MOL0     H31981   3.493   3.963   9.352 -0.9273 -0.5789  0.1551
  978MOL0     H31982   3.350   3.848   9.216  1.7821  0.8623  1.1299
  978MOL0     H31983   3.193   3.914   9.164 -0.2470 -0.6737 -2.9039
  978MOL0     H31984   3.437   3.950   8.996  0.5160  0.1473 -1.3425
  978MOL0     H31985   3.277   4.020   8.970  1.4255  1.6465  1.4674
  978MOL0     H31986   3.201   3.759   8.978 -1.3301  0.4920 -1.7274
  978MOL0     H31987   3.376   3.730   8.971 -1.2176 -0.3387  1.2416
  978MOL0     H31988   3.186   3.871   8.774  0.9571  0.4070  0.6963
  978MOL0     H31989   3.248   3.712   8.755 -1.0973  1.1265 -3.3192
  978MOL0     H31990   3.523   3.802   8.530 -0.7314 -0.9722  1.2836
  978MOL0     H31991   3.472   3.808   8.201  0.0605 -3.2675  0.9997
  978MOL0     H31992   3.603   3.920   8.239  1.4681 -1.6974 -0.1165
  978MOL0     H31993   3.571   3.777   8.337 -0.1714 -0.0085 -0.3837
  978MOL0     H31994   3.555   4.090   7.922 -0.0591 -0.4062  0.1457
  978MOL0     H31995   3.485   4.096   7.685  1.6135 -0.8839  1.2758
  978MOL0     H31996   3.038   4.176   7.627 -1.3562  0.2244  0.2281
  978MOL0     H31997   3.093   4.174   7.457  1.1176  1.2270  0.9058
  978MOL0     H31998   3.093   3.917   7.482  2.2575  1.9055  0.7940
  978MOL0     H31999   3.031   3.922   7.638 -0.5526 -2.4722 -1.8130
  978MOL0     H32000   2.842   4.061   7.508  2.3052  1.5816  0.8132
  978MOL0     H32001   2.836   3.890   7.498 -1.2271  2.3551  2.1006
  978MOL0     H32002   2.982   4.077   7.301  1.0006 -1.2417 -2.0271
  978MOL0     H32003   2.998   3.909   7.292 -0.3081 -0.9948  0.8947
  978MOL0     H32004   2.761   3.882   7.276  2.9610 -0.2999  3.5659
  978MOL0     H32005   2.841   3.960   7.141  0.8230 -2.2479 -0.1723
  978MOL0     H32006   2.615   4.073   7.190 -1.6157 -2.5100  1.7743
  978MOL0     H32007   2.661   4.093   7.360  2.5682 -3.2338  1.1005
  978MOL0     H32008   2.838   4.205   7.147  0.8720 -0.5303 -0.5921
  978MOL0     H32009   2.826   4.260   7.317  1.0934  0.0460 -1.2234
  978MOL0     H32010   2.590   4.335   7.259  0.3467  1.0672  0.9028
  978MOL0     H32011   2.627   4.284   7.094  1.2608 -0.9934 -0.0944
  978MOL0     H32012   3.072   4.079   7.810  0.3473  3.1992 -0.5248
  978MOL0     H32013   3.145   4.055   8.036 -2.0519 -2.9561 -1.3972
  978MOL0     H32014   3.281   4.216   8.464  1.5724  1.3928 -0.1099
  978MOL0     H32015   3.269   4.104   8.681  2.2496  1.7496 -0.0979
  978MOL0     H32016   4.624   3.761   9.258  0.9900 -3.5757  1.0331
  978MOL0     H32017   4.847   3.755   9.327  0.9641 -0.9283  1.0184
  978MOL0     H32018   5.161   3.680   9.591  1.1478 -2.5100  1.1853
  978MOL0     H32019   5.406   3.671   9.629 -0.3073  0.0138 -0.7589
  978MOL0     H32020   5.618   4.053   9.605  1.2633  1.0868  0.1919
  978MOL0     H32021   5.648   4.047   9.780  2.5129 -0.6801  0.9580
  978MOL0     H32022   5.778   3.871   9.582 -1.2327  0.0328  1.3266
  978MOL0     H32023   5.839   3.909   9.741  0.1111 -2.9239 -1.5805
  978MOL0     H32024   5.982   4.027   9.599 -1.1803 -2.6996  1.6253
  978MOL0     H32025   5.871   4.152   9.669 -0.5000  1.2467 -2.4937
  978MOL0     H32026   5.911   4.189   9.415 -0.3544  0.2886 -0.4516
  978MOL0     H32027   5.749   4.153   9.464 -0.5972  0.4530 -0.0022
  978MOL0     H32028   5.904   3.817   9.238 -2.7481  2.4454 -2.4840
  978MOL0     H32029   5.404   4.099   9.742 -0.2021  0.8098  0.5443
  978MOL0     H32030   5.176   4.103   9.715  0.2565  0.1526  0.4043
  979MOL0     O32031   2.950   6.032   7.507  0.9254  0.5063 -0.2266
  979MOL0     C32032   3.049   6.000   7.566  0.1145 -0.6565 -0.2472
  979MOL0     O32033   3.157   6.080   7.585 -0.4195 -0.5678 -0.1173
  979MOL0     C32034   3.132   6.217   7.582  0.2293 -0.5273 -0.6712
  979MOL0     C32035   3.236   6.300   7.524  0.5908  0.3538  0.6263
  979MOL0     C32036   3.214   6.443   7.535  0.8344  0.2288  0.3365
  979MOL0     C32037   3.101   6.500   7.585 -0.9479  1.0283  0.0078
  979MOL0     O32038   3.088   6.631   7.605  0.5025 -0.7305  0.9989
  979MOL0     C32039   3.175   6.719   7.535  1.4235  0.3126  0.1436
  979MOL0     C32040   3.128   6.752   7.390  0.3147  0.5368  0.3872
  979MOL0     C32041   2.993   6.816   7.369  0.0019  1.3333  0.4421
  979MOL0     C32042   2.978   6.858   7.229  0.0902  0.0411 -0.3493
  979MOL0     C32043   2.844   6.919   7.194 -0.5339  0.6849 -0.9871
  979MOL0     C32044   2.824   7.045   7.268 -0.3667 -0.5149 -0.1033
  979MOL0     C32045   2.706   7.129   7.195 -1.2231  0.5860 -1.1197
  979MOL0     C32046   2.643   7.227   7.295  0.1330  0.2670  0.6505
  979MOL0     N32047   2.735   7.330   7.339 -0.8869  0.0609  0.0210
  979MOL0     C32048   2.814   7.408   7.260 -0.3394 -0.8285 -0.3068
  979MOL0     C32049   2.839   7.522   7.328 -0.0698  1.4321  0.1908
  979MOL0     C32050   2.937   7.617   7.286 -0.2382  0.3220 -0.7010
  979MOL0     C32051   2.896   7.758   7.236  0.4065 -0.0598  0.0202
  979MOL0     C32052   3.014   7.839   7.172  0.2766  0.5456  0.8050
  979MOL0     C32053   2.972   7.976   7.109 -0.9091 -0.0976 -0.8286
  979MOL0     O32054   2.922   8.062   7.199 -0.0697  0.4732  0.0666
  979MOL0     C32055   2.880   8.188   7.163 -0.5336  1.0979 -0.1687
  979MOL0     C32056   2.802   8.254   7.251 -0.4580 -0.0864  0.0602
  979MOL0     C32057   2.766   8.379   7.229 -0.1996  0.4987  0.0705
  979MOL0     C32058   2.682   8.451   7.329  0.1862  0.6255  0.2550
  979MOL0     C32059   2.813   8.452   7.115  0.4035  0.0603 -0.2104
  979MOL0     C32060   2.774   8.593   7.077 -0.7924 -0.2736 -0.2693
  979MOL0     O32061   2.826   8.633   6.952 -0.2319  0.0095 -0.6089
  979MOL0     C32062   2.848   8.767   6.932 -0.3271 -0.1596  0.2240
  979MOL0     C32063   2.779   8.836   6.828  1.0261  0.8293  1.3688
  979MOL0     C32064   2.815   8.967   6.796  0.3126  0.8908 -0.7711
  979MOL0     C32065   2.920   9.028   6.864 -0.1603  0.4509 -0.0687
  979MOL0     O32066   2.948   9.162   6.835 -0.5508  0.4438 -0.1496
  979MOL0     C32067   2.893   9.226   6.719  0.1446 -0.7426 -0.6268
  979MOL0     C32068   2.953   9.366   6.706  0.2046 -0.0933  1.0106
  979MOL0     C32069   2.928   9.417   6.565 -0.4466 -0.4949 -0.0627
  979MOL0     C32070   3.021   9.352   6.463 -0.8203 -0.8212  1.2047
  979MOL0     C32071   2.980   9.389   6.317  1.0642 -0.1410  1.0578
  979MOL0     C32072   3.068   9.334   6.205  0.4727  0.2684 -0.8942
  979MOL0     C32073   2.996   9.377   6.072 -0.1566  0.3566  0.1947
  979MOL0     C32074   3.071   9.321   5.946 -0.0959  0.3107  0.3267
  979MOL0    Cl32075   3.060   9.140   5.936 -0.5091  0.0902 -0.3894
  979MOL0     C32076   2.993   8.963   6.969  0.1891 -0.3613  0.1425
  979MOL0     C32077   2.956   8.828   6.997 -0.3811  0.1290 -0.1413
  979MOL0     O32078   2.701   8.667   7.150 -0.6793 -0.3952 -0.3947
  979MOL0     C32079   2.894   8.386   7.025 -0.0751 -0.3191 -0.8022
  979MOL0     C32080   2.943   8.258   7.049  0.0959 -0.4871 -0.0683
  979MOL0     N32081   2.764   7.512   7.447  0.1826  0.3287 -0.3142
  979MOL0     N32082   2.702   7.402   7.451  0.7792  0.5845  0.9864
  979MOL0     C32083   3.010   6.417   7.645  0.5098 -1.0148 -1.0311
  979MOL0     C32084   3.020   6.280   7.641  1.0544  0.2225 -0.3697
  979MOL0     C32085   3.077   5.858   7.597  0.9068 -0.3205  0.8171
  979MOL0     C32086   2.983   5.756   7.549  0.1526  0.7085 -0.0925
  979MOL0     C32087   3.005   5.624   7.595  0.0648  1.0701 -0.0777
  979MOL0     C32088   3.106   5.587   7.684  0.5756 -0.2983 -0.3577
  979MOL0     O32089   3.123   5.455   7.710  0.5110  0.1662 -0.0088
  979MOL0     C32090   3.219   5.415   7.807 -0.5947  0.9831  0.4362
  979MOL0     C32091   3.227   5.261   7.829 -1.3654  0.2942  0.3525
  979MOL0     C32092   3.309   5.192   7.723  0.5050  0.2042  0.1528
  979MOL0     C32093   3.310   5.037   7.757 -0.0518 -0.3185  0.3480
  979MOL0     C32094   3.182   4.966   7.725 -0.0102  0.8815 -0.4726
  979MOL0     C32095   3.092   4.884   7.700  0.1253  0.6454 -0.3069
  979MOL0     C32096   3.192   5.692   7.737 -0.0543 -0.4557 -0.6042
  979MOL0     C32097   3.170   5.823   7.696 -0.5040  0.8455  0.7493
  979MOL0     H32098   3.329   6.262   7.484 -0.0726  0.1412 -0.7788
  979MOL0     H32099   3.289   6.507   7.488  0.6160  0.1021 -0.1936
  979MOL0     H32100   3.157   6.809   7.595 -0.4009 -0.5506  0.9603
  979MOL0     H32101   3.281   6.696   7.543  1.8539  2.4238  1.6175
  979MOL0     H32102   3.201   6.823   7.348  1.4039 -2.3137 -3.0769
  979MOL0     H32103   3.136   6.662   7.328  0.5102 -1.0366  2.5716
  979MOL0     H32104   2.906   6.756   7.399 -0.1159  1.8829  1.2307
  979MOL0     H32105   2.981   6.900   7.437 -0.7728 -0.2268  2.3204
  979MOL0     H32106   3.055   6.933   7.209 -0.7650  1.1635  0.4578
  979MOL0     H32107   2.996   6.771   7.165 -0.3544 -1.9850  2.0974
  979MOL0     H32108   2.831   6.928   7.085 -1.5827  2.9244 -0.7348
  979MOL0     H32109   2.761   6.855   7.225 -0.3745  0.0243 -1.8862
  979MOL0     H32110   2.802   7.022   7.373 -2.4010 -1.1182 -0.6129
  979MOL0     H32111   2.921   7.094   7.276 -0.1378 -1.1157  1.1305
  979MOL0     H32112   2.747   7.177   7.106 -1.3208 -0.4223 -1.7291
  979MOL0     H32113   2.625   7.062   7.164 -0.6296 -0.8144  0.2248
  979MOL0     H32114   2.612   7.170   7.383 -0.3135 -0.1535  0.2358
  979MOL0     H32115   2.556   7.275   7.249  1.7492  0.5742 -2.3388
  979MOL0     H32116   2.856   7.386   7.163  3.0627 -2.4514  1.3525
  979MOL0     H32117   3.014   7.632   7.362 -1.4579 -1.0126  0.8588
  979MOL0     H32118   2.995   7.570   7.205 -0.8760 -4.1563  1.1443
  979MOL0     H32119   2.845   7.812   7.317 -0.6458 -0.4453 -0.3620
  979MOL0     H32120   2.813   7.747   7.165  0.7041  2.3038 -0.7705
  979MOL0     H32121   3.054   7.781   7.088  1.2411  2.1287  0.1153
  979MOL0     H32122   3.098   7.861   7.239 -2.1857  1.8046  3.7022
  979MOL0     H32123   2.913   7.944   7.023  0.9471 -4.9412 -0.5968
  979MOL0     H32124   3.065   8.020   7.073 -0.8551 -0.9331 -1.7440
  979MOL0     H32125   2.763   8.208   7.342  0.7391  1.3390  1.3552
  979MOL0     H32126   2.733   8.520   7.397 -0.8787  1.2530  0.4395
  979MOL0     H32127   2.599   8.506   7.284 -1.3893  1.6777  4.0300
  979MOL0     H32128   2.636   8.375   7.392 -0.1355  0.5557 -0.0621
  979MOL0     H32129   2.705   8.782   6.770  1.1005 -1.0581  2.9108
  979MOL0     H32130   2.758   9.017   6.718  1.7583  2.4101 -0.9080
  979MOL0     H32131   2.907   9.153   6.639 -1.6013 -0.6388 -1.0678
  979MOL0     H32132   2.787   9.253   6.730  0.5191  0.2155  0.9133
  979MOL0     H32133   2.931   9.437   6.786 -0.6457  0.1676  0.5550
  979MOL0     H32134   3.062   9.356   6.705  0.2595  0.3702  1.8396
  979MOL0     H32135   2.933   9.526   6.550 -1.4597 -0.5172 -0.6373
  979MOL0     H32136   2.826   9.396   6.532 -1.0565  0.9787  0.7847
  979MOL0     H32137   3.126   9.383   6.476 -0.2739 -0.6119 -2.6203
  979MOL0     H32138   3.009   9.245   6.479 -1.8644 -1.5921 -3.4785
  979MOL0     H32139   2.987   9.498   6.311  3.1568 -0.3054 -0.8011
  979MOL0     H32140   2.880   9.351   6.294  2.0840 -1.3027 -1.9814
  979MOL0     H32141   3.169   9.371   6.225 -1.1486  4.7037  0.3465
  979MOL0     H32142   3.067   9.227   6.227  1.6401  0.9372  3.3391
  979MOL0     H32143   3.005   9.486   6.072  1.4867  0.2400  0.1288
  979MOL0     H32144   2.890   9.351   6.062  0.4226 -1.2310 -4.8350
  979MOL0     H32145   3.172   9.363   5.948 -1.5342  4.1578 -0.2853
  979MOL0     H32146   3.037   9.361   5.850  1.1940 -1.0135 -0.7278
  979MOL0     H32147   3.084   9.010   7.005 -1.1158  1.9855  0.6182
  979MOL0     H32148   3.020   8.782   7.072 -1.2341  0.5001  0.8334
  979MOL0     H32149   2.932   8.447   6.944  0.0608 -1.2154 -1.4184
  979MOL0     H32150   3.010   8.206   6.981  2.2081  2.7134 -0.6529
  979MOL0     H32151   2.927   6.473   7.689  1.9659 -0.7193  1.5247
  979MOL0     H32152   2.948   6.220   7.696  2.2815  0.7606  1.9392
  979MOL0     H32153   2.903   5.787   7.482  1.3342 -2.6495 -3.3890
  979MOL0     H32154   2.937   5.542   7.573  3.9750 -2.0385 -1.8936
  979MOL0     H32155   3.321   5.442   7.781  0.9057 -4.7419 -1.1755
  979MOL0     H32156   3.203   5.469   7.901  0.9946  0.2473  1.1662
  979MOL0     H32157   3.125   5.219   7.830 -1.3862  0.3333  2.1052
  979MOL0     H32158   3.282   5.245   7.922 -0.7648  0.7823  0.0906
  979MOL0     H32159   3.409   5.236   7.714 -0.0994  1.6867  0.4888
  979MOL0     H32160   3.265   5.200   7.623  0.8108  4.1425  0.1609
  979MOL0     H32161   3.329   5.031   7.864 -1.2853 -2.3628  0.4907
  979MOL0     H32162   3.389   4.990   7.697  0.6976  0.4519  0.7156
  979MOL0     H32163   3.014   4.815   7.676  2.4857 -1.4557 -2.6149
  979MOL0     H32164   3.267   5.671   7.812  1.0972  1.0426 -1.2970
  979MOL0     H32165   3.245   5.890   7.737 -0.2629  1.9731 -1.3820
  980MOL0     O32166   1.339   4.564   0.519  0.2203  0.3531 -0.1005
  980MOL0     C32167   1.265   4.464   0.479  0.1095 -0.5642 -0.1266
  980MOL0     O32168   1.183   4.460   0.365  0.1431 -0.1933 -0.9571
  980MOL0     C32169   1.205   4.563   0.282  0.2541 -0.6396  0.2034
  980MOL0     C32170   1.128   4.681   0.298 -0.4886  0.2403  0.3501
  980MOL0     C32171   1.125   4.787   0.205  0.5993  0.6067  0.7555
  980MOL0     C32172   1.220   4.788   0.098 -0.5077 -0.7378  0.2808
  980MOL0     O32173   1.225   4.898   0.017  0.3754 -0.0872 -0.5008
  980MOL0     C32174   1.270   4.891  -0.125  0.2929 -0.1628  0.6892
  980MOL0     C32175   1.157   4.872  -0.231 -1.1557  0.7271  0.2419
  980MOL0     C32176   1.011   4.924  -0.223  1.2228  0.0807  0.0173
  980MOL0     C32177   0.998   5.066  -0.185  0.0612 -0.6962  0.1183
  980MOL0     C32178   0.854   5.115  -0.186 -1.1715  0.3369 -0.5888
  980MOL0     C32179   0.852   5.272  -0.160 -0.5426 -0.0999  0.1868
  980MOL0     C32180   0.913   5.317  -0.027  0.1141 -0.6180  0.0599
  980MOL0     C32181   0.844   5.251   0.092 -0.1409  0.9437  0.5953
  980MOL0     N32182   0.700   5.302   0.091  0.1051  0.0766 -0.0575
  980MOL0     C32183   0.588   5.230   0.046  0.4672 -0.3059  0.2608
  980MOL0     C32184   0.483   5.306   0.078 -0.0970 -0.5952 -0.5074
  980MOL0     C32185   0.340   5.304   0.043 -0.2062  0.5635 -0.5922
  980MOL0     C32186   0.304   5.389  -0.091 -0.0072  0.3268  0.4099
  980MOL0     C32187   0.153   5.365  -0.124  0.1671  0.1629  0.6629
  980MOL0     C32188   0.110   5.410  -0.261 -0.3012 -0.4436 -1.2694
  980MOL0     O32189   0.001   5.503  -0.249 -0.9853  0.1690 -0.0303
  980MOL0     C32190  -0.122   5.449  -0.223 -0.2185  0.2262 -0.0857
  980MOL0     C32191  -0.212   5.545  -0.185 -0.1595  0.2800 -0.0730
  980MOL0     C32192  -0.336   5.517  -0.139  0.2084  0.2955 -0.0883
  980MOL0     C32193  -0.431   5.632  -0.098  0.1291 -0.1177  0.3955
  980MOL0     C32194  -0.379   5.381  -0.141  0.0173  0.1127  1.1797
  980MOL0     C32195  -0.520   5.346  -0.109 -1.2043  0.0557  0.4717
  980MOL0     O32196  -0.585   5.296  -0.216  0.7175  1.4110  0.4810
  980MOL0     C32197  -0.708   5.233  -0.209 -0.2578  0.7471 -0.5311
  980MOL0     C32198  -0.826   5.298  -0.249 -0.1249  0.0093  0.9943
  980MOL0     C32199  -0.941   5.220  -0.262 -0.1763  0.2976 -0.3551
  980MOL0     C32200  -0.945   5.092  -0.216 -0.1450  0.1817  0.4644
  980MOL0     O32201  -1.060   5.025  -0.247 -0.4742  0.6270 -0.3268
  980MOL0     C32202  -1.100   4.900  -0.175  0.1653  0.2642  0.7046
  980MOL0     C32203  -1.195   4.919  -0.063  0.3374 -0.3856 -0.4794
  980MOL0     C32204  -1.126   4.966   0.065 -0.0972  0.2407 -0.0833
  980MOL0     C32205  -1.226   4.997   0.183  0.0137 -0.0385  0.7670
  980MOL0     C32206  -1.157   5.095   0.277 -0.0733  0.6528  0.1377
  980MOL0     C32207  -1.251   5.147   0.380  0.4618  0.0751 -0.4783
  980MOL0     C32208  -1.333   5.053   0.463 -0.2402  0.3911  0.2540
  980MOL0     C32209  -1.242   4.953   0.540  0.7578 -0.4145  0.8310
  980MOL0    Cl32210  -1.127   5.044   0.637 -0.0268 -0.5605  0.1281
  980MOL0     C32211  -0.830   5.030  -0.154 -0.5083 -0.1604  0.3731
  980MOL0     C32212  -0.709   5.102  -0.146 -0.1453 -0.5229 -0.1299
  980MOL0     O32213  -0.561   5.371   0.000  0.4010  0.3731  0.3715
  980MOL0     C32214  -0.289   5.284  -0.184  0.1836 -0.1196  0.1721
  980MOL0     C32215  -0.159   5.314  -0.219  0.9324 -0.0335  0.0648
  980MOL0     N32216   0.539   5.425   0.113 -0.0469 -0.1695  0.0670
  980MOL0     N32217   0.664   5.423   0.138  0.1959 -0.6962 -0.0880
  980MOL0     C32218   1.305   4.680   0.080  1.9884  0.7911 -0.1294
  980MOL0     C32219   1.291   4.566   0.163  1.0159  0.1016 -0.2722
  980MOL0     C32220   1.261   4.343   0.563  0.2942 -0.2436 -0.6196
  980MOL0     C32221   1.293   4.345   0.703  0.2510 -1.4206  0.2185
  980MOL0     C32222   1.277   4.233   0.781 -0.0454 -0.0540 -0.0913
  980MOL0     C32223   1.227   4.116   0.729  0.9772  0.4363  0.4219
  980MOL0     O32224   1.212   4.003   0.807 -0.3222  0.5640 -0.5987
  980MOL0     C32225   1.239   4.005   0.948 -0.8123 -0.2877  0.1952
  980MOL0     C32226   1.262   3.857   0.987 -0.3382 -0.8813 -0.0786
  980MOL0     C32227   1.290   3.826   1.133 -0.5719  0.2542  0.2827
  980MOL0     C32228   1.269   3.671   1.154 -0.5505  0.8844 -0.7199
  980MOL0     C32229   1.293   3.638   1.299  0.5915 -0.2694 -0.5575
  980MOL0     C32230   1.314   3.623   1.416  0.5989 -0.6171  0.2133
  980MOL0     C32231   1.192   4.107   0.593  0.9861  0.1709  0.5581
  980MOL0     C32232   1.201   4.218   0.514 -0.3999 -0.1310  0.5356
  980MOL0     H32233   1.046   4.675   0.369  0.2841  1.3884  1.3740
  980MOL0     H32234   1.046   4.861   0.204  2.0565  2.2314 -0.5831
  980MOL0     H32235   1.325   4.983  -0.146  1.4255 -0.9512  0.0864
  980MOL0     H32236   1.340   4.807  -0.135  0.2050 -0.3102  1.2761
  980MOL0     H32237   1.207   4.918  -0.316  3.2704  1.0125  2.7189
  980MOL0     H32238   1.148   4.763  -0.241 -2.3320  0.5873  2.2485
  980MOL0     H32239   0.966   4.910  -0.321  1.0964  0.8947 -0.0508
  980MOL0     H32240   0.952   4.868  -0.149  1.8262  0.8143  1.0874
  980MOL0     H32241   1.038   5.070  -0.083  0.2948 -2.3130  0.1299
  980MOL0     H32242   1.063   5.126  -0.249  1.4366  0.1510  2.2061
  980MOL0     H32243   0.809   5.105  -0.285  0.4068 -0.7238 -1.2427
  980MOL0     H32244   0.800   5.064  -0.106  0.5812  3.0156  2.5429
  980MOL0     H32245   0.913   5.320  -0.237  0.4810 -2.1174 -0.3154
  980MOL0     H32246   0.757   5.324  -0.176 -0.1501  0.4165 -0.5618
  980MOL0     H32247   1.016   5.283  -0.019  0.1639 -0.2793  0.9251
  980MOL0     H32248   0.897   5.425  -0.029 -1.0164 -0.7367  1.1530
  980MOL0     H32249   0.897   5.273   0.185  2.9368 -1.6535 -0.3758
  980MOL0     H32250   0.838   5.142   0.089 -0.8918  0.9630 -2.2003
  980MOL0     H32251   0.593   5.132  -0.000 -0.3154  0.3453 -1.2712
  980MOL0     H32252   0.316   5.199   0.028  0.2218  0.0457  1.9254
  980MOL0     H32253   0.286   5.347   0.128  0.3580 -2.3854  1.3841
  980MOL0     H32254   0.369   5.362  -0.175  0.3914  2.4909 -0.0395
  980MOL0     H32255   0.319   5.496  -0.071 -0.6821  0.2808  1.1748
  980MOL0     H32256   0.095   5.423  -0.052 -0.5312  0.8879 -0.4488
  980MOL0     H32257   0.133   5.260  -0.103 -0.3315  0.0654 -0.2661
  980MOL0     H32258   0.082   5.329  -0.328  0.4798 -0.9769 -0.9679
  980MOL0     H32259   0.197   5.455  -0.309  2.4828 -2.2406  1.6811
  980MOL0     H32260  -0.167   5.642  -0.166  1.4266 -0.7203  1.6393
  980MOL0     H32261  -0.399   5.730  -0.135 -1.5808  0.6306  0.8009
  980MOL0     H32262  -0.528   5.613  -0.145  1.2988  1.9302 -3.2333
  980MOL0     H32263  -0.453   5.645   0.009 -1.0759  0.0166  0.1473
  980MOL0     H32264  -0.829   5.402  -0.279  0.0874  0.2549  1.8004
  980MOL0     H32265  -1.032   5.259  -0.306 -1.2767 -0.9981  0.6999
  980MOL0     H32266  -1.154   4.839  -0.248 -0.4526  1.1138  0.4352
  980MOL0     H32267  -1.015   4.838  -0.147  1.9421  2.1531 -0.2388
  980MOL0     H32268  -1.279   4.985  -0.089  1.3519  2.6348  3.0254
  980MOL0     H32269  -1.233   4.819  -0.045 -3.6564  0.9496 -0.5571
  980MOL0     H32270  -1.076   5.059   0.036  2.6281 -0.8390  0.7671
  980MOL0     H32271  -1.044   4.897   0.087  2.4302  3.6720  2.2377
  980MOL0     H32272  -1.327   5.025   0.149  0.1558 -1.3979 -0.9208
  980MOL0     H32273  -1.242   4.901   0.233  0.6986 -0.5353  0.0547
  980MOL0     H32274  -1.111   5.179   0.223 -1.6513  1.9519  0.7307
  980MOL0     H32275  -1.074   5.039   0.322  1.7790  2.3999 -0.9062
  980MOL0     H32276  -1.191   5.202   0.453 -1.2518  3.7291 -1.6008
  980MOL0     H32277  -1.310   5.208   0.311 -0.5707 -2.1158 -1.6439
  980MOL0     H32278  -1.398   4.999   0.394  0.3408  0.2099 -0.1595
  980MOL0     H32279  -1.393   5.104   0.539 -1.7241 -3.1132  1.6695
  980MOL0     H32280  -1.191   4.893   0.464  0.8497  1.9549 -1.0922
  980MOL0     H32281  -1.303   4.892   0.607 -0.1794 -0.3308  0.0700
  980MOL0     H32282  -0.835   4.926  -0.123  1.2917 -0.2509  0.4903
  980MOL0     H32283  -0.626   5.059  -0.091 -3.1357 -0.5930  4.9838
  980MOL0     H32284  -0.321   5.181  -0.193 -1.2768  0.4852 -2.4461
  980MOL0     H32285  -0.098   5.226  -0.237  0.1562 -1.3045  2.9705
  980MOL0     H32286   1.372   4.663  -0.004  0.5024 -2.7931 -0.7815
  980MOL0     H32287   1.357   4.483   0.139  3.1709  2.0347 -1.3440
  980MOL0     H32288   1.326   4.430   0.761  2.4408 -3.2749  1.8962
  980MOL0     H32289   1.308   4.249   0.884  0.8618  0.7353 -0.4712
  980MOL0     H32290   1.320   4.071   0.979 -1.1683  0.1421  0.2042
  980MOL0     H32291   1.144   4.049   0.978 -1.3507  0.7233 -2.6584
  980MOL0     H32292   1.343   3.810   0.930 -2.9053 -1.8612 -3.1899
  980MOL0     H32293   1.174   3.802   0.953  1.3029 -3.2028 -0.8770
  980MOL0     H32294   1.215   3.872   1.198 -1.6688 -1.8123  0.5420
  980MOL0     H32295   1.382   3.868   1.175 -0.4757  0.7256 -0.3850
  980MOL0     H32296   1.340   3.618   1.090  0.2510  1.1646 -0.0751
  980MOL0     H32297   1.168   3.630   1.141  0.3901 -2.5617  1.5076
  980MOL0     H32298   1.339   3.597   1.517  0.6790 -3.5636 -0.4735
  980MOL0     H32299   1.150   4.015   0.553  1.9032 -0.4058  0.8908
  980MOL0     H32300   1.163   4.209   0.412 -0.7871  0.4719  0.6264
  981MOL0     O32301   6.609   8.043   5.408 -0.1191  0.2067 -0.3292
  981MOL0     C32302   6.676   7.958   5.346  1.1283 -0.1201  1.0710
  981MOL0     O32303   6.756   7.987   5.236 -0.0059 -0.1088 -0.0597
  981MOL0     C32304   6.772   8.118   5.206  0.6245  0.2842  1.3175
  981MOL0     C32305   6.905   8.159   5.222 -0.3886  0.0131  0.5010
  981MOL0     C32306   6.946   8.291   5.189 -1.0723  0.1696  0.2871
  981MOL0     C32307   6.846   8.373   5.122 -0.3188 -0.3785  0.5225
  981MOL0     O32308   6.854   8.494   5.056 -0.9104  0.6666 -0.3648
  981MOL0     C32309   6.981   8.537   5.034 -0.4297  0.1199  1.6028
  981MOL0     C32310   6.961   8.656   4.935 -0.4337  0.3159 -0.5022
  981MOL0     C32311   7.101   8.720   4.908 -0.3430  0.1303 -0.4928
  981MOL0     C32312   7.142   8.821   5.012 -0.2556 -0.4301 -0.0395
  981MOL0     C32313   7.275   8.891   5.013  0.7982 -0.7484 -0.5101
  981MOL0     C32314   7.390   8.792   5.025  0.0265  0.0273 -2.1362
  981MOL0     C32315   7.519   8.858   5.086 -0.6156  0.2991  0.3839
  981MOL0     C32316   7.650   8.779   5.043  0.8933 -0.0198 -0.8716
  981MOL0     N32317   7.771   8.854   5.076  0.3863  0.2005 -0.5009
  981MOL0     C32318   7.821   8.957   4.997  0.0951 -0.2250 -0.5586
  981MOL0     C32319   7.954   8.973   5.040  0.2151  0.0573 -1.0179
  981MOL0     C32320   8.045   9.069   4.990  0.6893 -0.3775  0.1344
  981MOL0     C32321   8.133   9.131   5.099 -0.0823 -0.1771 -0.4154
  981MOL0     C32322   8.235   9.226   5.041 -0.1879  0.0535 -0.3195
  981MOL0     C32323   8.176   9.356   4.990  0.7509  0.3580 -0.3195
  981MOL0     O32324   8.107   9.420   5.102 -0.4124  0.4842 -0.7386
  981MOL0     C32325   8.092   9.560   5.105  1.0131 -0.5802 -0.1088
  981MOL0     C32326   8.057   9.622   5.224 -0.5996 -0.6132 -0.3695
  981MOL0     C32327   8.018   9.758   5.230 -0.1642 -0.4402 -0.0622
  981MOL0     C32328   7.974   9.818   5.364 -0.6449 -0.0316  0.1533
  981MOL0     C32329   8.014   9.831   5.113 -0.2021 -0.8419 -0.2962
  981MOL0     C32330   7.980   9.977   5.115  0.2778 -1.1258 -0.8419
  981MOL0     O32331   8.017  10.043   5.003 -0.2514 -0.0496 -0.1482
  981MOL0     C32332   7.993  10.178   4.992 -0.7029 -0.3078 -0.1643
  981MOL0     C32333   7.880  10.229   4.931 -0.4447 -0.3151 -0.1015
  981MOL0     C32334   7.856  10.361   4.920 -0.8717 -0.9769  1.0292
  981MOL0     C32335   7.955  10.452   4.945  0.0229  0.4328  0.0990
  981MOL0     O32336   7.942  10.585   4.917  0.5280 -0.5239 -0.2623
  981MOL0     C32337   7.813  10.659   4.936  0.3353 -0.2175  0.0695
  981MOL0     C32338   7.770  10.668   5.078  0.2044 -0.3490 -0.6452
  981MOL0     C32339   7.884  10.725   5.165  0.7746  0.3429  0.6407
  981MOL0     C32340   7.859  10.692   5.309  0.2195 -0.9867 -1.1258
  981MOL0     C32341   7.934  10.800   5.406 -0.1469  0.2209  0.0563
  981MOL0     C32342   7.909  10.768   5.559  0.2648 -0.1933 -0.7089
  981MOL0     C32343   7.768  10.791   5.606 -0.0143 -0.0692  0.5334
  981MOL0     C32344   7.764  10.790   5.754  0.2990  1.2504  0.5918
  981MOL0    Cl32345   7.801  10.619   5.797  0.0881  0.2524  0.4822
  981MOL0     C32346   8.081  10.400   4.984 -0.0006  0.4015  1.0944
  981MOL0     C32347   8.100  10.265   5.009 -0.5581 -0.1991 -0.0258
  981MOL0     O32348   7.908  10.021   5.203  0.0181  0.0571 -0.3019
  981MOL0     C32349   8.078   9.777   4.997 -0.1063  0.6936  0.8160
  981MOL0     C32350   8.109   9.645   4.992 -0.5598 -0.1379 -0.0664
  981MOL0     N32351   7.974   8.891   5.145 -0.1430 -0.0968  0.7644
  981MOL0     N32352   7.862   8.817   5.170 -0.2986 -0.7736 -0.2704
  981MOL0     C32353   6.716   8.321   5.105  0.0627  0.0912 -0.1274
  981MOL0     C32354   6.680   8.198   5.159  0.0443  0.9689 -0.6109
  981MOL0     C32355   6.706   7.828   5.412  0.8114  0.0933  0.5002
  981MOL0     C32356   6.637   7.790   5.526  0.3801 -0.8832  0.1869
  981MOL0     C32357   6.677   7.680   5.596  0.3025 -0.3183  0.0435
  981MOL0     C32358   6.782   7.599   5.557  0.0863  0.8468  0.4393
  981MOL0     O32359   6.805   7.475   5.613 -0.1239 -0.2467  0.5763
  981MOL0     C32360   6.807   7.475   5.757  0.4411  0.0328  0.0187
  981MOL0     C32361   6.857   7.345   5.813 -0.2984 -0.0839  0.0354
  981MOL0     C32362   6.854   7.325   5.962 -0.1291  0.8563 -0.1198
  981MOL0     C32363   6.970   7.385   6.031 -0.1389  0.4249 -0.8203
  981MOL0     C32364   6.967   7.343   6.173 -0.4751  0.1535  0.6438
  981MOL0     C32365   6.959   7.291   6.280 -0.0358 -0.0824  0.5867
  981MOL0     C32366   6.858   7.644   5.453 -0.1483 -0.0887  0.0290
  981MOL0     C32367   6.823   7.765   5.382 -0.2531  0.4159  0.2398
  981MOL0     H32368   6.983   8.093   5.261  2.3249  2.6989 -0.0167
  981MOL0     H32369   7.049   8.323   5.199 -0.3498 -2.2532  1.4034
  981MOL0     H32370   7.028   8.551   5.132  2.7846 -1.0638  0.3945
  981MOL0     H32371   7.034   8.453   4.987  0.6697  0.8514  1.5007
  981MOL0     H32372   6.911   8.621   4.844 -2.1022  5.6447 -2.0301
  981MOL0     H32373   6.895   8.734   4.975 -0.9415 -0.2057 -0.3123
  981MOL0     H32374   7.183   8.648   4.919  0.9857  1.6102 -0.4154
  981MOL0     H32375   7.113   8.764   4.809 -0.1205  1.8969  0.2905
  981MOL0     H32376   7.068   8.901   5.006  1.2183  0.9470 -0.5560
  981MOL0     H32377   7.139   8.765   5.106 -2.6644 -0.2628  0.0429
  981MOL0     H32378   7.276   8.942   4.916  0.5653  0.2935  0.0330
  981MOL0     H32379   7.284   8.955   5.100 -2.2226 -2.0356  0.8863
  981MOL0     H32380   7.381   8.725   5.111 -2.7408  1.8686 -0.8463
  981MOL0     H32381   7.417   8.734   4.936  3.8928 -1.6357 -0.1168
  981MOL0     H32382   7.524   8.963   5.059  0.3950 -0.2988 -1.9690
  981MOL0     H32383   7.514   8.848   5.195 -0.8103  1.1322  0.4593
  981MOL0     H32384   7.633   8.762   4.936  3.4610  0.2429 -1.3779
  981MOL0     H32385   7.644   8.691   5.107 -2.6204  1.7235  1.5361
  981MOL0     H32386   7.797   9.018   4.911  0.7122  1.0595  0.1393
  981MOL0     H32387   8.114   9.014   4.925 -0.6291 -0.8293 -0.9280
  981MOL0     H32388   7.986   9.145   4.938  1.1350  1.0297  1.5933
  981MOL0     H32389   8.184   9.056   5.160  0.2868  0.7964  0.5209
  981MOL0     H32390   8.072   9.191   5.167  1.7398  2.6982 -1.1501
  981MOL0     H32391   8.292   9.181   4.959 -1.4476 -0.0838 -1.1360
  981MOL0     H32392   8.300   9.248   5.126 -0.1045  1.0955 -0.6468
  981MOL0     H32393   8.101   9.334   4.913  2.7641  1.7162 -2.8525
  981MOL0     H32394   8.256   9.423   4.957 -0.3362  1.2988 -1.1696
  981MOL0     H32395   8.041   9.558   5.310 -3.1984  0.0300 -0.2759
  981MOL0     H32396   7.866   9.833   5.368 -0.7129 -0.4062 -0.2496
  981MOL0     H32397   7.989   9.752   5.450  0.6626 -1.0320 -0.7978
  981MOL0     H32398   8.026   9.909   5.395 -1.0926 -0.3520  1.9887
  981MOL0     H32399   7.789  10.173   4.909 -2.7978  3.3303 -0.5696
  981MOL0     H32400   7.757  10.397   4.892 -2.2783 -4.5504  0.8770
  981MOL0     H32401   7.847  10.760   4.914  1.6483 -0.7895 -0.6385
  981MOL0     H32402   7.743  10.622   4.860  1.5386 -0.0965 -1.1209
  981MOL0     H32403   7.684  10.736   5.070 -0.0318 -0.7784 -2.0973
  981MOL0     H32404   7.733  10.579   5.130 -2.4922  1.2590  0.3763
  981MOL0     H32405   7.884  10.835   5.159 -0.1081  0.4424  2.0174
  981MOL0     H32406   7.982  10.686   5.136 -0.3369 -2.0717 -0.1446
  981MOL0     H32407   7.756  10.673   5.341  0.7958 -1.0358  0.8735
  981MOL0     H32408   7.912  10.598   5.330  0.2847 -0.8633 -0.7170
  981MOL0     H32409   7.896  10.899   5.380 -0.0239 -0.1261 -1.5036
  981MOL0     H32410   8.043  10.790   5.405 -0.0924  0.6378  0.7978
  981MOL0     H32411   7.935  10.665   5.585 -1.1002 -0.7147 -1.3053
  981MOL0     H32412   7.977  10.826   5.623 -3.0886 -0.8938  4.0358
  981MOL0     H32413   7.710  10.709   5.563  1.2021 -0.9315  0.4864
  981MOL0     H32414   7.725  10.880   5.559 -3.5924 -1.3534  1.0592
  981MOL0     H32415   7.659  10.810   5.776 -1.2667 -0.9566 -3.6488
  981MOL0     H32416   7.821  10.864   5.810  1.5112 -0.2175  1.4087
  981MOL0     H32417   8.154  10.481   4.979  0.1401  0.2227 -1.0498
  981MOL0     H32418   8.202  10.241   5.039  1.7107  2.7272 -4.3713
  981MOL0     H32419   8.105   9.828   4.905 -2.0772  1.4021  0.5690
  981MOL0     H32420   8.126   9.599   4.895 -0.9295 -1.9150  0.6702
  981MOL0     H32421   6.637   8.377   5.055 -0.2501 -0.1977  0.0422
  981MOL0     H32422   6.579   8.160   5.150  0.3630  0.2359 -1.1348
  981MOL0     H32423   6.550   7.837   5.572  2.9854  1.5630  3.1155
  981MOL0     H32424   6.603   7.660   5.674 -0.9647  3.7937  0.1567
  981MOL0     H32425   6.871   7.557   5.788  1.4367 -1.0370  0.8838
  981MOL0     H32426   6.705   7.491   5.794  0.5489  3.0008 -0.7076
  981MOL0     H32427   6.959   7.334   5.774 -1.3291 -0.7103 -2.6798
  981MOL0     H32428   6.800   7.265   5.767 -1.3672  0.2989  0.6632
  981MOL0     H32429   6.868   7.216   5.969 -0.7756  0.5500 -2.4995
  981MOL0     H32430   6.757   7.354   6.002  0.3605  2.8928 -0.3113
  981MOL0     H32431   6.967   7.495   6.024  2.9977  0.6260 -0.6489
  981MOL0     H32432   7.065   7.345   5.993 -0.8978 -1.1919 -1.0601
  981MOL0     H32433   6.942   7.243   6.375  0.8670 -0.7947  0.4019
  981MOL0     H32434   6.945   7.586   5.423  0.9712  0.2757  2.3826
  981MOL0     H32435   6.892   7.819   5.318  0.0290  0.3625  0.4947
  982MOL0     O32436   8.269   6.484   7.960  0.1395  0.6064  0.1469
  982MOL0     C32437   8.222   6.372   7.981  0.0691 -0.3265 -0.1155
  982MOL0     O32438   8.093   6.343   7.961  0.7902 -0.0814  0.1516
  982MOL0     C32439   8.003   6.442   7.927  0.4037  0.8524  0.2559
  982MOL0     C32440   8.019   6.538   7.820  0.7946 -0.1522  0.0944
  982MOL0     C32441   7.915   6.627   7.788  0.5381  0.3264 -0.0539
  982MOL0     C32442   7.788   6.620   7.855 -0.8013  0.3139 -0.4272
  982MOL0     O32443   7.690   6.695   7.804  0.5226 -0.1808  0.4940
  982MOL0     C32444   7.564   6.698   7.871  0.4322  0.3790  0.2953
  982MOL0     C32445   7.471   6.791   7.798 -0.3155 -0.4832  0.0031
  982MOL0     C32446   7.526   6.942   7.787  0.0489  0.1685  0.4148
  982MOL0     C32447   7.433   7.035   7.704  0.7446  0.3791  1.0861
  982MOL0     C32448   7.341   7.122   7.791  0.4095  0.3574  0.3968
  982MOL0     C32449   7.255   7.220   7.719  0.1449 -0.3863 -0.5372
  982MOL0     C32450   7.178   7.313   7.812 -0.9708  0.6045  1.0525
  982MOL0     C32451   7.057   7.243   7.888  0.5261  0.0965 -0.5336
  982MOL0     N32452   6.927   7.244   7.822  0.4287 -0.6860  0.5833
  982MOL0     C32453   6.901   7.191   7.701 -0.4088 -0.0952 -0.7686
  982MOL0     C32454   6.771   7.217   7.674  0.1655 -0.1509 -0.1050
  982MOL0     C32455   6.693   7.173   7.559  0.2393  0.3316  0.1806
  982MOL0     C32456   6.586   7.065   7.597 -0.7661  0.2058 -0.8446
  982MOL0     C32457   6.646   6.949   7.677 -0.3048 -0.3449  0.3365
  982MOL0     C32458   6.548   6.836   7.697 -0.1310  0.2691 -1.1737
  982MOL0     O32459   6.420   6.879   7.752 -0.0621 -0.2616  0.4791
  982MOL0     C32460   6.368   6.799   7.845  0.1473 -0.2290 -0.6016
  982MOL0     C32461   6.351   6.663   7.823  0.7810  0.0323 -0.4196
  982MOL0     C32462   6.274   6.581   7.901 -0.1813  0.4631 -0.5698
  982MOL0     C32463   6.263   6.431   7.860 -0.9384  0.9778  0.2892
  982MOL0     C32464   6.195   6.634   8.008 -1.0882 -0.2841 -0.7603
  982MOL0     C32465   6.108   6.558   8.102  0.9108  0.6573 -0.9176
  982MOL0     O32466   6.024   6.636   8.172 -0.0628 -0.2241 -0.1772
  982MOL0     C32467   5.932   6.582   8.258 -0.3011  0.5597 -0.4716
  982MOL0     C32468   5.975   6.470   8.339  0.7611  0.6895 -1.2581
  982MOL0     C32469   5.888   6.423   8.440 -0.5575  0.0239 -0.7531
  982MOL0     C32470   5.762   6.480   8.457  0.1678 -0.0335 -0.2971
  982MOL0     O32471   5.683   6.429   8.556 -0.1334 -0.9907 -0.7079
  982MOL0     C32472   5.544   6.467   8.575  1.0364  0.4177  0.5423
  982MOL0     C32473   5.522   6.575   8.669 -0.1476 -0.9744  0.4871
  982MOL0     C32474   5.572   6.532   8.808  0.0209  0.7288  0.5972
  982MOL0     C32475   5.522   6.628   8.913 -0.6847 -0.1939 -0.7267
  982MOL0     C32476   5.564   6.583   9.051  0.5718  0.6991  0.3249
  982MOL0     C32477   5.517   6.666   9.167  0.2447 -0.5202  0.4595
  982MOL0     C32478   5.618   6.778   9.191  0.0843  0.7497  0.0556
  982MOL0     C32479   5.598   6.850   9.330 -0.1016  0.5152  0.2706
  982MOL0    Cl32480   5.599   6.747   9.480 -0.2929  0.4192  0.5126
  982MOL0     C32481   5.723   6.588   8.367  0.2751 -0.3736  0.3396
  982MOL0     C32482   5.812   6.650   8.275 -0.0771 -0.5262  0.5036
  982MOL0     O32483   6.123   6.435   8.113 -0.7460 -0.0932  0.7507
  982MOL0     C32484   6.210   6.778   8.034 -0.2246 -0.9042  0.1198
  982MOL0     C32485   6.296   6.848   7.956 -0.6440 -0.5699 -0.5445
  982MOL0     N32486   6.718   7.286   7.786  0.7600  0.2943  0.0574
  982MOL0     N32487   6.813   7.296   7.873 -0.1594  0.3645 -0.3729
  982MOL0     C32488   7.779   6.529   7.958  0.9693 -0.2151  0.2281
  982MOL0     C32489   7.882   6.439   7.991  0.1366 -0.1857 -0.5686
  982MOL0     C32490   8.306   6.273   8.041 -0.0022  0.3242 -0.3117
  982MOL0     C32491   8.252   6.145   8.068 -0.4056 -0.0432  0.6457
  982MOL0     C32492   8.330   6.053   8.136 -0.0205  0.4772 -0.5854
  982MOL0     C32493   8.455   6.076   8.189 -0.2837 -0.0968 -0.2298
  982MOL0     O32494   8.524   5.985   8.273 -0.3735  0.1437  0.5618
  982MOL0     C32495   8.463   5.857   8.284 -0.1085 -1.0580  0.4674
  982MOL0     C32496   8.531   5.778   8.392 -0.5623  0.4388  0.6516
  982MOL0     C32497   8.482   5.819   8.531  0.7878  1.3763  0.1599
  982MOL0     C32498   8.515   5.720   8.642 -0.4103 -1.4135  0.2847
  982MOL0     C32499   8.465   5.586   8.613  0.4636  0.1666 -0.8831
  982MOL0     C32500   8.394   5.489   8.602 -0.8608 -0.1369 -1.3070
  982MOL0     C32501   8.513   6.201   8.158  0.3966 -0.2007  0.0682
  982MOL0     C32502   8.439   6.299   8.087 -0.1631  0.8698  0.3371
  982MOL0     H32503   8.116   6.541   7.771  2.2828  0.5832  2.9177
  982MOL0     H32504   7.941   6.689   7.703 -2.0848  1.6810  0.0145
  982MOL0     H32505   7.525   6.598   7.849 -0.1310  1.2043 -2.9495
  982MOL0     H32506   7.572   6.719   7.978 -0.5363 -0.4782  0.5567
  982MOL0     H32507   7.468   6.748   7.697 -1.3798 -0.7349  0.1310
  982MOL0     H32508   7.374   6.778   7.846  0.6382  0.3341  2.3110
  982MOL0     H32509   7.537   6.983   7.888  2.3091  1.8307 -0.4239
  982MOL0     H32510   7.628   6.943   7.750  0.1484  0.6115  0.6921
  982MOL0     H32511   7.485   7.098   7.631 -0.1753 -0.3788 -0.2717
  982MOL0     H32512   7.349   6.979   7.663 -1.5777  2.4398  2.7917
  982MOL0     H32513   7.276   7.064   7.857 -1.0079  3.9534  2.3982
  982MOL0     H32514   7.404   7.180   7.858 -0.7457  2.4934 -0.2831
  982MOL0     H32515   7.318   7.281   7.655 -0.8692 -0.8848 -2.0534
  982MOL0     H32516   7.188   7.174   7.647 -0.2223  2.6221 -2.2971
  982MOL0     H32517   7.254   7.340   7.886  1.2869 -0.8552 -0.5898
  982MOL0     H32518   7.144   7.403   7.761 -2.7510 -0.5824  0.0222
  982MOL0     H32519   7.040   7.288   7.986 -0.1555 -1.7450  0.2537
  982MOL0     H32520   7.075   7.139   7.917  3.3104  0.7929  0.5445
  982MOL0     H32521   6.977   7.138   7.644  0.6021 -0.8739  1.2259
  982MOL0     H32522   6.639   7.253   7.507 -1.8671 -1.5719 -0.6977
  982MOL0     H32523   6.767   7.145   7.484 -0.8476  3.2449 -2.1521
  982MOL0     H32524   6.531   7.023   7.512  1.4404 -0.0701 -2.2324
  982MOL0     H32525   6.515   7.129   7.650  1.8167  1.9588  0.7689
  982MOL0     H32526   6.691   6.979   7.772  2.5271 -1.8120 -0.4393
  982MOL0     H32527   6.722   6.914   7.608 -0.2280  1.2047 -0.4123
  982MOL0     H32528   6.603   6.771   7.766  2.9403  2.0276 -1.7437
  982MOL0     H32529   6.535   6.791   7.599  0.1127 -1.0317 -0.6319
  982MOL0     H32530   6.401   6.613   7.741  2.3547 -0.5337  0.8144
  982MOL0     H32531   6.315   6.420   7.764  0.8247  0.0602  1.3068
  982MOL0     H32532   6.320   6.368   7.929 -0.5230 -0.7322 -1.5350
  982MOL0     H32533   6.157   6.406   7.858 -1.4567  2.9075  1.1059
  982MOL0     H32534   6.071   6.419   8.336 -0.0667 -1.0542  0.3508
  982MOL0     H32535   5.928   6.346   8.505  0.7298  1.6502  0.4793
  982MOL0     H32536   5.482   6.470   8.485  0.4716 -3.9528  0.5639
  982MOL0     H32537   5.507   6.386   8.639  3.1897 -1.0587  0.0211
  982MOL0     H32538   5.575   6.662   8.630 -1.0842 -0.4031  0.4582
  982MOL0     H32539   5.417   6.594   8.696  0.7488  0.5099  3.3722
  982MOL0     H32540   5.680   6.521   8.799 -0.3340 -3.0407 -1.5620
  982MOL0     H32541   5.533   6.432   8.832 -0.8874  1.1112  0.7659
  982MOL0     H32542   5.558   6.728   8.888 -0.1644 -0.4669 -1.0681
  982MOL0     H32543   5.414   6.648   8.912 -0.8457 -1.0172 -2.6847
  982MOL0     H32544   5.673   6.580   9.064  0.7620  0.0982 -1.1873
  982MOL0     H32545   5.524   6.482   9.064  1.4848 -0.1870 -2.8076
  982MOL0     H32546   5.425   6.719   9.142 -0.9198 -2.3207  0.7219
  982MOL0     H32547   5.509   6.602   9.255  1.7625 -1.8231 -0.3030
  982MOL0     H32548   5.620   6.861   9.119  0.7122  0.7533  0.0700
  982MOL0     H32549   5.718   6.735   9.194 -0.4045 -0.6558 -1.9539
  982MOL0     H32550   5.495   6.885   9.327  0.0923  1.0543 -0.9917
  982MOL0     H32551   5.672   6.930   9.347  0.8260 -0.5574  1.4848
  982MOL0     H32552   5.633   6.644   8.391 -0.3643 -1.5439  0.7819
  982MOL0     H32553   5.778   6.736   8.219 -0.9087 -0.0456  1.6999
  982MOL0     H32554   6.144   6.834   8.099 -1.0617  0.9694 -2.1930
  982MOL0     H32555   6.311   6.955   7.960  2.0829 -0.8509 -0.9837
  982MOL0     H32556   7.683   6.536   8.009  1.1646  1.3654  0.4285
  982MOL0     H32557   7.870   6.371   8.075  0.7792  0.6284  0.1968
  982MOL0     H32558   8.164   6.098   8.024 -0.5259  0.0926  0.7419
  982MOL0     H32559   8.276   5.959   8.135  0.0231  0.4591 -1.4733
  982MOL0     H32560   8.354   5.865   8.292 -0.1794  1.7903 -1.7858
  982MOL0     H32561   8.482   5.805   8.190 -1.6063  0.2756 -0.6061
  982MOL0     H32562   8.640   5.791   8.396 -0.6607  1.4486  0.4422
  982MOL0     H32563   8.512   5.674   8.364  0.0907  1.0371 -2.4049
  982MOL0     H32564   8.375   5.824   8.513  1.0889 -1.3958 -3.4898
  982MOL0     H32565   8.534   5.911   8.559  2.9655  0.5015 -0.7642
  982MOL0     H32566   8.470   5.762   8.733 -1.5886  1.7099 -1.5689
  982MOL0     H32567   8.624   5.713   8.645 -0.3589 -0.3931  1.4251
  982MOL0     H32568   8.333   5.401   8.594 -2.2429  0.3802  1.9750
  982MOL0     H32569   8.611   6.232   8.193  0.4272 -1.1007  0.8254
  982MOL0     H32570   8.492   6.392   8.073 -0.4024  0.7708 -1.3777
  983MOL0     O32571   1.152   8.457   5.208  0.2962  0.2124 -0.1421
  983MOL0     C32572   1.074   8.481   5.120  0.8722  0.7549 -0.1489
  983MOL0     O32573   1.111   8.529   5.009  0.2024  0.4998  0.3042
  983MOL0     C32574   1.240   8.507   4.970  0.0497 -0.6657 -0.2696
  983MOL0     C32575   1.308   8.621   4.946 -0.1116 -0.1862  0.6673
  983MOL0     C32576   1.442   8.624   4.900  0.7324  0.6130 -1.0190
  983MOL0     C32577   1.498   8.502   4.863  0.1914 -0.4158  1.1375
  983MOL0     O32578   1.636   8.482   4.843 -0.1428 -0.3152 -0.3440
  983MOL0     C32579   1.699   8.573   4.752  0.3872 -1.3799 -0.2593
  983MOL0     C32580   1.656   8.573   4.599  0.0861  0.5318  0.1740
  983MOL0     C32581   1.680   8.432   4.535 -0.1078 -0.1107  0.6427
  983MOL0     C32582   1.653   8.422   4.379  0.2430 -0.7651  0.2393
  983MOL0     C32583   1.630   8.270   4.340  0.4640 -0.5097 -0.5917
  983MOL0     C32584   1.621   8.251   4.186  0.4829 -0.0918  0.9178
  983MOL0     C32585   1.520   8.346   4.120  0.2403  0.4152  0.0728
  983MOL0     C32586   1.501   8.307   3.977 -0.2380  0.7267 -0.4846
  983MOL0     N32587   1.415   8.382   3.891 -0.3415 -0.4627  0.5146
  983MOL0     C32588   1.400   8.516   3.887 -0.9847 -0.2947 -0.3086
  983MOL0     C32589   1.336   8.540   3.772  0.0565 -0.2627 -0.7329
  983MOL0     C32590   1.288   8.678   3.728  0.2341 -0.5467 -0.3640
  983MOL0     C32591   1.365   8.719   3.604 -0.0333  0.4534 -0.2850
  983MOL0     C32592   1.518   8.758   3.633  0.5433 -1.2085  0.5140
  983MOL0     C32593   1.574   8.830   3.501 -0.2778 -0.8176 -1.4423
  983MOL0     O32594   1.715   8.866   3.526  0.5783  0.4072  1.0458
  983MOL0     C32595   1.736   8.952   3.625 -0.0121 -0.5278  0.1481
  983MOL0     C32596   1.832   8.910   3.713 -0.1469  0.4054  0.4454
  983MOL0     C32597   1.893   8.992   3.804  0.7095 -0.6009 -0.2049
  983MOL0     C32598   1.982   8.936   3.920 -0.8560  0.0165  0.3979
  983MOL0     C32599   1.868   9.135   3.792 -0.0939  0.2164 -0.6568
  983MOL0     C32600   1.911   9.236   3.887 -1.0023  0.1368  0.2597
  983MOL0     O32601   1.844   9.360   3.882 -0.8964 -0.1925 -0.9292
  983MOL0     C32602   1.892   9.469   3.956 -0.4185 -0.2508 -0.0616
  983MOL0     C32603   1.795   9.554   4.003 -0.2801 -0.6857  0.4943
  983MOL0     C32604   1.817   9.683   4.057 -0.9036 -0.0577 -0.2358
  983MOL0     C32605   1.954   9.715   4.082  0.8276  0.1808 -0.8691
  983MOL0     O32606   1.985   9.837   4.135 -0.1403  0.3301  0.2382
  983MOL0     C32607   2.122   9.865   4.160  0.2069 -0.1175 -0.0841
  983MOL0     C32608   2.129  10.017   4.183  0.2026  0.2795  0.3026
  983MOL0     C32609   2.128  10.043   4.330 -0.2920 -0.1133 -0.0331
  983MOL0     C32610   2.260   9.990   4.408  0.5576  0.1216  0.8412
  983MOL0     C32611   2.264  10.026   4.560  0.4649 -0.4178 -0.3021
  983MOL0     C32612   2.395  10.010   4.636  0.4417  0.3804 -0.5616
  983MOL0     C32613   2.421   9.859   4.665 -0.1370 -0.6693 -1.0198
  983MOL0     C32614   2.562   9.824   4.708 -0.5455  0.0044 -1.3026
  983MOL0    Cl32615   2.599   9.877   4.876 -0.2227 -0.0011 -0.2289
  983MOL0     C32616   2.055   9.619   4.044  0.9231 -0.2371  1.1573
  983MOL0     C32617   2.028   9.499   3.984  0.1454 -0.6064  0.6140
  983MOL0     O32618   2.001   9.207   3.962  0.0413  0.3787 -0.1412
  983MOL0     C32619   1.788   9.179   3.686  0.7430  0.2124  0.0880
  983MOL0     C32620   1.708   9.085   3.618  0.0001 -0.5075 -0.4039
  983MOL0     N32621   1.305   8.418   3.718 -0.7911 -0.5907  0.7395
  983MOL0     N32622   1.351   8.323   3.790  0.1293 -0.3738 -0.0671
  983MOL0     C32623   1.432   8.379   4.887 -0.1798 -0.1171  0.1709
  983MOL0     C32624   1.300   8.379   4.944  0.3028  0.1932  0.3970
  983MOL0     C32625   0.927   8.455   5.141 -0.8558 -0.4312 -0.1806
  983MOL0     C32626   0.842   8.455   5.030 -0.8743  0.7361  0.7584
  983MOL0     C32627   0.706   8.447   5.035 -0.2650  0.4614  0.2958
  983MOL0     C32628   0.650   8.456   5.158  0.5402  0.3564 -0.2558
  983MOL0     O32629   0.516   8.456   5.177 -0.5249 -0.5281  0.4497
  983MOL0     C32630   0.420   8.388   5.080 -1.0261 -0.2580  0.1294
  983MOL0     C32631   0.284   8.356   5.159  0.1855  1.4827 -0.5554
  983MOL0     C32632   0.165   8.385   5.071 -0.2514  0.6723  0.5499
  983MOL0     C32633   0.134   8.281   4.966 -0.2694  0.6123  0.2822
  983MOL0     C32634   0.062   8.160   5.011  0.1994  0.5326  0.0049
  983MOL0     C32635   0.017   8.053   5.041  0.4575 -0.6105 -0.1857
  983MOL0     C32636   0.725   8.478   5.269 -0.7712  0.1614  0.0386
  983MOL0     C32637   0.867   8.463   5.271  0.4876  0.1788 -0.0350
  983MOL0     H32638   1.248   8.712   4.955  1.3346  1.0804 -1.5896
  983MOL0     H32639   1.493   8.719   4.892  0.1322  0.8401 -2.5509
  983MOL0     H32640   1.691   8.673   4.794 -1.6851 -2.4595  2.2148
  983MOL0     H32641   1.807   8.555   4.755  1.5073  3.6719 -0.8827
  983MOL0     H32642   1.548   8.589   4.591 -0.4003 -1.8063  1.1479
  983MOL0     H32643   1.713   8.653   4.552  0.2357 -0.7517 -1.9941
  983MOL0     H32644   1.780   8.404   4.569 -0.9550 -1.1414  2.4285
  983MOL0     H32645   1.619   8.351   4.576 -0.1680 -0.6091 -0.3933
  983MOL0     H32646   1.567   8.481   4.348 -0.7141 -0.2959  3.4244
  983MOL0     H32647   1.742   8.447   4.321 -0.4079 -1.4129 -1.0735
  983MOL0     H32648   1.717   8.212   4.373  0.0326 -0.1000  1.3423
  983MOL0     H32649   1.536   8.239   4.386 -1.2938  2.2107 -2.1036
  983MOL0     H32650   1.721   8.268   4.144 -1.0941  1.2243 -2.7208
  983MOL0     H32651   1.582   8.151   4.162 -2.7317  1.0773  0.8771
  983MOL0     H32652   1.425   8.323   4.169 -0.7802  2.1628 -1.0115
  983MOL0     H32653   1.545   8.452   4.124  1.6906  0.4999 -4.8507
  983MOL0     H32654   1.479   8.200   3.972  1.4955  0.2277  1.1304
  983MOL0     H32655   1.602   8.318   3.936 -1.2558  1.3313 -3.0571
  983MOL0     H32656   1.447   8.588   3.954 -0.8734  0.7037 -1.4183
  983MOL0     H32657   1.185   8.669   3.692  0.8312 -0.2350 -2.3135
  983MOL0     H32658   1.284   8.752   3.809 -0.5715 -1.0600  0.0716
  983MOL0     H32659   1.315   8.801   3.552 -4.3638 -1.0085  1.1203
  983MOL0     H32660   1.368   8.630   3.540 -0.8184 -0.0394  0.3445
  983MOL0     H32661   1.586   8.674   3.650  2.7734  0.1276 -1.2237
  983MOL0     H32662   1.517   8.825   3.719 -0.3468  0.9304 -1.0663
  983MOL0     H32663   1.507   8.909   3.465 -2.2170 -2.8036 -2.4094
  983MOL0     H32664   1.568   8.760   3.418 -3.9331 -1.1997 -1.0230
  983MOL0     H32665   1.871   8.809   3.707  0.7475  0.5616  2.6533
  983MOL0     H32666   2.085   8.968   3.899 -0.7804 -0.6939 -0.3591
  983MOL0     H32667   1.948   8.963   4.020 -0.4759  1.3436  0.1975
  983MOL0     H32668   1.976   8.827   3.921 -1.4233  0.0512  1.0233
  983MOL0     H32669   1.694   9.521   3.979 -0.6280  0.2120  0.6933
  983MOL0     H32670   1.753   9.764   4.091  1.3434  2.2284 -1.1265
  983MOL0     H32671   2.149   9.804   4.247 -1.8682 -0.7853  0.1512
  983MOL0     H32672   2.197   9.848   4.081  2.7832  1.1390  1.9415
  983MOL0     H32673   2.218  10.064   4.140  1.5942 -3.9502 -1.9499
  983MOL0     H32674   2.045  10.069   4.134 -1.3677 -0.9195  1.6005
  983MOL0     H32675   2.038   9.994   4.368 -0.4316  0.1178 -0.0643
  983MOL0     H32676   2.121  10.151   4.347  1.5200 -0.0832  0.7543
  983MOL0     H32677   2.265   9.881   4.407  3.6329  0.1676 -0.5297
  983MOL0     H32678   2.343  10.029   4.348 -0.8419  0.3729 -0.9885
  983MOL0     H32679   2.184   9.967   4.605  0.7598 -0.7870 -0.2612
  983MOL0     H32680   2.237  10.132   4.559  1.2377 -0.1613 -3.2886
  983MOL0     H32681   2.482  10.049   4.582 -0.8145  2.7306 -1.0535
  983MOL0     H32682   2.385  10.069   4.728  0.3735  0.3372 -0.5412
  983MOL0     H32683   2.400   9.810   4.570 -1.8649 -0.4011 -0.8171
  983MOL0     H32684   2.345   9.820   4.733 -0.3258 -0.0100 -0.8409
  983MOL0     H32685   2.632   9.863   4.634 -1.0328  0.2258 -1.6449
  983MOL0     H32686   2.574   9.716   4.716  0.6240  0.0902 -1.6799
  983MOL0     H32687   2.160   9.643   4.054  1.4328 -1.9575  0.1387
  983MOL0     H32688   2.116   9.444   3.950  1.5560  1.9267 -0.0560
  983MOL0     H32689   1.776   9.285   3.663 -0.2418  0.2280  0.6370
  983MOL0     H32690   1.645   9.116   3.535  1.4551  2.8234 -0.4225
  983MOL0     H32691   1.473   8.285   4.852  1.0877  0.7246 -0.6931
  983MOL0     H32692   1.249   8.285   4.966 -0.2421  0.2268 -0.6559
  983MOL0     H32693   0.887   8.466   4.932 -0.6863  1.0821  0.8822
  983MOL0     H32694   0.646   8.444   4.945  0.5497 -0.0450 -0.2472
  983MOL0     H32695   0.410   8.451   4.991  0.6149 -0.8300 -0.5073
  983MOL0     H32696   0.474   8.304   5.035  1.3090  1.1489  0.1454
  983MOL0     H32697   0.272   8.421   5.246  0.4450  1.1871 -0.2973
  983MOL0     H32698   0.286   8.250   5.185 -0.8941  1.7935  0.8867
  983MOL0     H32699   0.177   8.485   5.027 -0.8122 -0.4259 -2.3001
  983MOL0     H32700   0.081   8.401   5.139 -0.5623 -1.6729  0.7737
  983MOL0     H32701   0.228   8.247   4.921 -1.6431 -1.7748 -0.9720
  983MOL0     H32702   0.071   8.335   4.895 -0.5879  0.4920  0.4717
  983MOL0     H32703  -0.010   7.954   5.071  1.3307 -0.7909  0.0327
  983MOL0     H32704   0.682   8.498   5.367 -0.2113  1.1535  0.0901
  983MOL0     H32705   0.921   8.489   5.362  1.5160  0.9476 -0.8345
  984MOL0     O32706  10.720   6.646   4.398 -0.1963  0.2142 -0.7290
  984MOL0     C32707  10.726   6.527   4.433 -0.1724  0.4853 -0.2008
  984MOL0     O32708  10.630   6.441   4.493  0.0340 -0.1792 -0.2422
  984MOL0     C32709  10.503   6.471   4.520 -0.5096 -0.1715  0.7011
  984MOL0     C32710  10.458   6.394   4.625  0.3092 -0.5740 -0.3859
  984MOL0     C32711  10.334   6.412   4.676  0.4408 -0.7228  0.2362
  984MOL0     C32712  10.242   6.515   4.626 -0.0500 -0.5736  0.3831
  984MOL0     O32713  10.116   6.533   4.688 -0.1715 -0.0835  0.0111
  984MOL0     C32714  10.037   6.650   4.658  1.0418  1.0461 -0.1065
  984MOL0     C32715   9.925   6.681   4.766  0.2882  0.8548  0.3867
  984MOL0     C32716   9.814   6.570   4.785 -0.5241  0.0321 -0.7361
  984MOL0     C32717   9.709   6.574   4.673 -0.1825 -0.5549 -0.1884
  984MOL0     C32718   9.599   6.467   4.697  0.1086  0.1134  0.0600
  984MOL0     C32719   9.661   6.329   4.698 -0.0432  1.1372 -0.6028
  984MOL0     C32720   9.550   6.212   4.707 -0.0023  0.5726  0.5608
  984MOL0     C32721   9.486   6.191   4.568  0.3525  0.5179 -0.1987
  984MOL0     N32722   9.367   6.102   4.563 -0.5242 -0.4471  0.4036
  984MOL0     C32723   9.341   5.995   4.649  0.7463 -0.3046 -0.2940
  984MOL0     C32724   9.207   5.971   4.637  0.2018 -0.5867  0.3673
  984MOL0     C32725   9.124   5.871   4.696 -0.2920  0.1731 -0.1390
  984MOL0     C32726   9.203   5.751   4.733 -0.4185 -0.4464  0.4716
  984MOL0     C32727   9.264   5.662   4.630 -0.3376  0.0572 -0.1988
  984MOL0     C32728   9.368   5.562   4.690 -0.6459 -0.8563 -0.8262
  984MOL0     O32729   9.406   5.481   4.580 -0.2750 -0.3184 -0.4436
  984MOL0     C32730   9.531   5.427   4.587 -0.1280 -0.4465 -0.6384
  984MOL0     C32731   9.603   5.393   4.703  0.1330 -0.4214 -0.7513
  984MOL0     C32732   9.731   5.326   4.711  0.4437  0.4683 -0.0045
  984MOL0     C32733   9.802   5.295   4.846  1.2472 -0.0518  0.2243
  984MOL0     C32734   9.786   5.301   4.591 -0.5961 -0.5230  0.9427
  984MOL0     C32735   9.925   5.232   4.577 -0.6931 -0.3076  0.2121
  984MOL0     O32736  10.004   5.279   4.466 -0.5219 -0.5127 -1.4776
  984MOL0     C32737  10.132   5.229   4.428  0.3439  0.5621 -0.6753
  984MOL0     C32738  10.186   5.298   4.322  0.3143  1.1912  0.0098
  984MOL0     C32739  10.323   5.268   4.275  0.1069 -0.0237 -1.0424
  984MOL0     C32740  10.394   5.167   4.339 -0.4940 -0.9306 -0.0204
  984MOL0     O32741  10.535   5.163   4.331  0.1217 -0.4365  0.0430
  984MOL0     C32742  10.602   5.218   4.214 -1.0196  0.6825  0.4078
  984MOL0     C32743  10.728   5.133   4.173  0.6829 -0.6967  0.3786
  984MOL0     C32744  10.709   4.984   4.167  0.6460 -0.1089  0.2655
  984MOL0     C32745  10.601   4.932   4.072 -0.0658  0.5863 -0.0149
  984MOL0     C32746  10.627   4.955   3.920  0.6326  0.1875 -0.3356
  984MOL0     C32747  10.541   4.865   3.833 -0.5906  0.6236 -0.2153
  984MOL0     C32748  10.395   4.890   3.852 -0.8685  0.2205  0.0464
  984MOL0     C32749  10.362   5.033   3.819  1.3166 -0.2107  0.5815
  984MOL0    Cl32750  10.186   5.033   3.821  0.2420  0.1470  0.1221
  984MOL0     C32751  10.332   5.087   4.435 -0.3959 -0.1969  0.4131
  984MOL0     C32752  10.209   5.120   4.483  0.1381 -0.3353 -0.7998
  984MOL0     O32753   9.946   5.132   4.652  0.1829  0.1066 -0.3672
  984MOL0     C32754   9.717   5.338   4.475 -0.3028  0.1086 -0.4654
  984MOL0     C32755   9.597   5.406   4.463  0.2356  0.3317  0.4932
  984MOL0     N32756   9.150   6.068   4.554  0.0690 -0.4058 -0.8080
  984MOL0     N32757   9.246   6.143   4.516 -0.2594  0.4794  0.1315
  984MOL0     C32758  10.290   6.597   4.516 -0.4095  0.2911  0.5608
  984MOL0     C32759  10.421   6.576   4.460 -0.6465  0.6660 -0.2075
  984MOL0     C32760  10.844   6.448   4.388 -0.7597  0.2351  1.1916
  984MOL0     C32761  10.852   6.302   4.389 -1.1317 -0.0840  0.4863
  984MOL0     C32762  10.971   6.231   4.349  0.2274  0.1144 -1.2754
  984MOL0     C32763  11.079   6.303   4.306  0.1796 -0.2251 -0.8736
  984MOL0     O32764  11.184   6.217   4.277  0.2464 -0.5560 -0.0530
  984MOL0     C32765  11.301   6.261   4.200  0.4673 -0.1561 -0.5592
  984MOL0     C32766  11.415   6.159   4.190 -0.4363  0.1943 -0.7491
  984MOL0     C32767  11.358   6.023   4.167  0.4400 -0.0366  0.2739
  984MOL0     C32768  11.479   5.920   4.157  0.5247 -0.2227 -0.2291
  984MOL0     C32769  11.555   5.890   4.279  1.0817  0.1140  0.5556
  984MOL0     C32770  11.625   5.871   4.369  0.3424  0.7603 -0.8782
  984MOL0     C32771  11.077   6.451   4.309  0.0046  0.5646  0.7281
  984MOL0     C32772  10.953   6.519   4.340 -0.0840  0.5426  0.4306
  984MOL0     H32773  10.524   6.322   4.673  0.6652  1.9070  3.2360
  984MOL0     H32774  10.313   6.369   4.774  0.8424 -1.6833 -0.0855
  984MOL0     H32775  10.102   6.736   4.676  0.4089  1.0891  2.3479
  984MOL0     H32776   9.990   6.647   4.560 -0.1999  1.1995  0.4651
  984MOL0     H32777   9.970   6.700   4.864 -0.1390 -0.2286  0.8103
  984MOL0     H32778   9.880   6.774   4.729  0.7311  0.3464 -1.5300
  984MOL0     H32779   9.872   6.477   4.785  3.5162  2.2348  2.1519
  984MOL0     H32780   9.765   6.581   4.883 -1.1655  2.3003 -1.2486
  984MOL0     H32781   9.661   6.671   4.668 -1.1206 -0.2673  6.2749
  984MOL0     H32782   9.755   6.545   4.578 -0.5115  1.0364 -0.8563
  984MOL0     H32783   9.555   6.485   4.795 -0.1032 -1.6650  0.3216
  984MOL0     H32784   9.518   6.480   4.624 -0.3871 -1.4841  0.3038
  984MOL0     H32785   9.724   6.300   4.614 -0.3486  0.4323 -0.5926
  984MOL0     H32786   9.722   6.330   4.788  1.2162  2.4321 -1.4175
  984MOL0     H32787   9.600   6.120   4.736  0.5224  0.3908 -0.8421
  984MOL0     H32788   9.468   6.245   4.772 -0.9982  1.8759 -1.2488
  984MOL0     H32789   9.564   6.164   4.497  2.8534  1.9522  1.8126
  984MOL0     H32790   9.455   6.289   4.532  4.1239  2.1941  0.5859
  984MOL0     H32791   9.415   5.946   4.711  0.5839  2.6044  2.4427
  984MOL0     H32792   9.088   5.913   4.790  4.5924  0.9487  1.7164
  984MOL0     H32793   9.045   5.828   4.634  0.3546 -0.5279 -0.4911
  984MOL0     H32794   9.137   5.690   4.795 -0.6483  0.2617  0.9205
  984MOL0     H32795   9.285   5.780   4.799 -1.2719 -0.3950  1.5283
  984MOL0     H32796   9.307   5.709   4.541  1.8434 -0.2269  0.6421
  984MOL0     H32797   9.174   5.605   4.602 -1.5773  0.9567  1.7622
  984MOL0     H32798   9.328   5.500   4.770  1.3584  0.5893  1.4458
  984MOL0     H32799   9.455   5.615   4.731 -2.2696  1.5610 -0.2868
  984MOL0     H32800   9.562   5.407   4.802  2.9111 -0.7216  0.5589
  984MOL0     H32801   9.909   5.282   4.828  1.4602 -0.4905  1.6783
  984MOL0     H32802   9.784   5.381   4.912 -1.6502 -0.1128 -0.3668
  984MOL0     H32803   9.756   5.212   4.899 -3.6565  1.3616 -1.2777
  984MOL0     H32804  10.132   5.385   4.286 -2.4438 -0.6883 -0.7391
  984MOL0     H32805  10.372   5.336   4.207  2.3771  0.8723  1.3472
  984MOL0     H32806  10.540   5.217   4.123  0.3601 -0.4496 -0.5655
  984MOL0     H32807  10.634   5.321   4.234 -2.4073  0.9909  1.1218
  984MOL0     H32808  10.779   5.171   4.084 -0.0429 -3.1682 -1.1950
  984MOL0     H32809  10.792   5.135   4.262 -0.2804 -3.8277  1.2850
  984MOL0     H32810  10.678   4.954   4.267 -0.8260 -0.0449 -0.1576
  984MOL0     H32811  10.803   4.932   4.147  0.7888  0.2017  0.1114
  984MOL0     H32812  10.593   4.824   4.088  1.6608  0.4835  0.3611
  984MOL0     H32813  10.502   4.975   4.090 -0.1214  1.5627 -2.2841
  984MOL0     H32814  10.732   4.928   3.902  0.4839 -0.9380  0.4376
  984MOL0     H32815  10.613   5.059   3.888  0.6374  0.1010 -0.6252
  984MOL0     H32816  10.584   4.863   3.732  1.5336  1.2547  0.6326
  984MOL0     H32817  10.546   4.757   3.847 -0.8766 -0.0036 -3.8620
  984MOL0     H32818  10.361   4.870   3.954 -0.7455 -4.1158 -0.5656
  984MOL0     H32819  10.334   4.822   3.791 -1.4137  1.6169 -1.0377
  984MOL0     H32820  10.389   5.058   3.716  0.2092  2.7104  0.9184
  984MOL0     H32821  10.408   5.105   3.887 -1.9129  1.0038  1.7086
  984MOL0     H32822  10.391   5.018   4.494 -1.5154  0.2883  2.1499
  984MOL0     H32823  10.154   5.065   4.559  1.4020  0.7061  0.9299
  984MOL0     H32824   9.763   5.318   4.379  2.4475 -1.4147  1.0707
  984MOL0     H32825   9.552   5.439   4.370 -0.7242 -1.4268  0.2937
  984MOL0     H32826  10.225   6.665   4.462 -1.4185 -1.0670 -0.0252
  984MOL0     H32827  10.454   6.635   4.375 -0.3644  1.8095  0.6778
  984MOL0     H32828  10.769   6.242   4.426 -1.1660  1.2646  2.8282
  984MOL0     H32829  10.963   6.123   4.334 -2.4328  0.0306  0.0799
  984MOL0     H32830  11.270   6.290   4.100  2.4499 -1.2320 -1.5413
  984MOL0     H32831  11.345   6.352   4.240 -2.8389  0.7758  1.3267
  984MOL0     H32832  11.466   6.155   4.286 -2.4996 -1.4046  0.3532
  984MOL0     H32833  11.489   6.186   4.114 -0.2735  4.1140  0.5389
  984MOL0     H32834  11.288   6.019   4.083  0.5650 -0.5895  0.1948
  984MOL0     H32835  11.295   5.991   4.250  1.0236  1.1646  1.2060
  984MOL0     H32836  11.548   5.961   4.083  1.7273  1.5737  1.7874
  984MOL0     H32837  11.432   5.830   4.115  1.8524 -0.4634 -1.2912
  984MOL0     H32838  11.678   5.851   4.460 -1.2287  2.4853  0.5056
  984MOL0     H32839  11.158   6.507   4.262  0.4027 -1.6041 -1.3733
  984MOL0     H32840  10.944   6.626   4.321  1.2954  0.0799 -4.0501
  985MOL0     O32841   6.052  10.882   4.357  0.1035 -1.0791  0.2566
  985MOL0     C32842   5.945  10.944   4.366 -0.0153 -0.3445 -0.4829
  985MOL0     O32843   5.933  11.076   4.360  0.4592  0.7829 -0.2394
  985MOL0     C32844   6.044  11.151   4.360 -0.2351 -0.6605 -0.2985
  985MOL0     C32845   6.139  11.149   4.246  0.3360  0.4989 -0.0532
  985MOL0     C32846   6.264  11.211   4.271 -0.0912  0.3160  1.2750
  985MOL0     C32847   6.299  11.276   4.390  0.5215  0.1545  0.1538
  985MOL0     O32848   6.413  11.352   4.407 -0.6392 -0.0677  0.1891
  985MOL0     C32849   6.490  11.401   4.298  0.4427  1.0872  0.2152
  985MOL0     C32850   6.609  11.314   4.288  0.6412  0.2349 -0.5202
  985MOL0     C32851   6.716  11.380   4.206  0.7007 -0.5009  0.7328
  985MOL0     C32852   6.852  11.311   4.217 -1.0278 -0.3139 -0.1390
  985MOL0     C32853   6.967  11.403   4.154  0.9808  0.2440  0.6362
  985MOL0     C32854   7.116  11.349   4.160 -0.2034 -0.3640  0.1939
  985MOL0     C32855   7.217  11.453   4.114  0.6686  0.7365 -0.3213
  985MOL0     C32856   7.339  11.390   4.031  0.5004 -1.2017 -0.0753
  985MOL0     N32857   7.451  11.494   4.034  0.4454  1.3088  0.1247
  985MOL0     C32858   7.519  11.528   4.149 -0.1788  0.6517  0.0763
  985MOL0     C32859   7.586  11.640   4.117  0.3986  0.8198  0.4800
  985MOL0     C32860   7.679  11.722   4.205  0.4574 -0.0341  0.4184
  985MOL0     C32861   7.613  11.731   4.351 -0.1508 -0.1984  0.8966
  985MOL0     C32862   7.708  11.804   4.439 -0.5133 -0.1586 -0.3318
  985MOL0     C32863   7.620  11.860   4.553  0.0956 -0.6707 -0.5624
  985MOL0     O32864   7.702  11.939   4.645 -0.2946 -0.3768 -0.3642
  985MOL0     C32865   7.790  11.866   4.715 -0.3838  0.6665 -0.4113
  985MOL0     C32866   7.738  11.791   4.822 -0.2094  0.6785 -0.8829
  985MOL0     C32867   7.824  11.719   4.914  0.2696 -0.6153 -0.0042
  985MOL0     C32868   7.759  11.659   5.035  0.3738 -0.0189  0.2913
  985MOL0     C32869   7.963  11.728   4.896  0.1834  0.3222  0.4336
  985MOL0     C32870   8.059  11.650   4.986 -0.6087 -0.0332 -0.0621
  985MOL0     O32871   8.188  11.676   4.961 -0.0279  0.0370  0.8475
  985MOL0     C32872   8.291  11.644   5.047 -0.8878 -0.2378 -1.1984
  985MOL0     C32873   8.284  11.599   5.185 -0.4874 -0.7723 -0.3027
  985MOL0     C32874   8.409  11.564   5.254  0.1162 -0.2205  0.5080
  985MOL0     C32875   8.533  11.574   5.189 -0.7111  0.3551 -0.1219
  985MOL0     O32876   8.644  11.541   5.260  0.0796 -0.6372  0.3066
  985MOL0     C32877   8.756  11.496   5.200 -0.2411 -0.0984 -0.0761
  985MOL0     C32878   8.788  11.367   5.279 -0.0348  0.0692  0.2925
  985MOL0     C32879   8.875  11.403   5.404  0.7290  0.1990 -0.4939
  985MOL0     C32880   9.015  11.451   5.366  0.3540 -0.3610 -0.1176
  985MOL0     C32881   9.111  11.466   5.490 -0.6178 -0.2165 -0.3585
  985MOL0     C32882   9.248  11.407   5.444  0.4936 -0.4225 -1.1834
  985MOL0     C32883   9.343  11.355   5.552  0.1797 -0.6784 -0.6087
  985MOL0     C32884   9.464  11.289   5.480 -0.2850 -0.3019 -0.4586
  985MOL0    Cl32885   9.421  11.137   5.392  0.2581  0.2106  0.0883
  985MOL0     C32886   8.539  11.639   5.062 -0.0924  0.3083  0.1500
  985MOL0     C32887   8.422  11.662   4.988 -0.4688 -1.0958 -0.1225
  985MOL0     O32888   8.020  11.556   5.059  0.1520 -0.1136 -0.8407
  985MOL0     C32889   8.018  11.812   4.795 -0.2930  0.4908 -0.2876
  985MOL0     C32890   7.929  11.881   4.713  0.5030  0.3762  1.0788
  985MOL0     N32891   7.561  11.670   3.982 -0.5587  0.1558  0.2636
  985MOL0     N32892   7.476  11.578   3.937 -0.1253  0.9511 -0.1670
  985MOL0     C32893   6.204  11.270   4.494  0.3162  0.3506  0.7988
  985MOL0     C32894   6.077  11.206   4.484 -0.3059  0.6555  0.4224
  985MOL0     C32895   5.820  10.866   4.365 -0.5563 -0.3874 -0.3606
  985MOL0     C32896   5.708  10.936   4.401 -0.2185  1.0499  0.1165
  985MOL0     C32897   5.586  10.873   4.388  0.3156  0.7527 -0.1518
  985MOL0     C32898   5.576  10.753   4.319 -0.3977  0.3621  0.1999
  985MOL0     O32899   5.464  10.693   4.290  0.7841 -0.4979  0.9267
  985MOL0     C32900   5.439  10.556   4.331 -0.3739 -0.5876  0.8862
  985MOL0     C32901   5.321  10.532   4.437 -0.5342 -0.0249 -0.6099
  985MOL0     C32902   5.189  10.536   4.351 -0.1928 -0.4614  0.3989
  985MOL0     C32903   5.082  10.434   4.381 -0.2159  0.6746 -0.4583
  985MOL0     C32904   4.954  10.460   4.310 -0.1503 -0.0913  0.8945
  985MOL0     C32905   4.835  10.470   4.273 -0.2477  0.9912 -0.6728
  985MOL0     C32906   5.693  10.683   4.281 -0.4514 -0.7406  0.0149
  985MOL0     C32907   5.813  10.743   4.307  0.0866  0.8439 -0.9259
  985MOL0     H32908   6.104  11.095   4.160 -0.3686 -1.5150  1.4282
  985MOL0     H32909   6.337  11.200   4.192 -0.0014 -2.5870  1.6439
  985MOL0     H32910   6.434  11.386   4.205 -1.4052 -4.1937  1.7728
  985MOL0     H32911   6.525  11.503   4.314  0.0887  1.2070  0.2352
  985MOL0     H32912   6.639  11.308   4.393  1.2933  1.9166 -0.5686
  985MOL0     H32913   6.579  11.218   4.246 -1.6410 -0.6261  2.6762
  985MOL0     H32914   6.688  11.373   4.101  1.5301 -2.8026  0.6149
  985MOL0     H32915   6.730  11.484   4.239  2.7047 -0.0897 -1.1944
  985MOL0     H32916   6.869  11.304   4.325  2.7910  3.4734 -0.2797
  985MOL0     H32917   6.851  11.212   4.171  0.9186 -0.6145  0.3906
  985MOL0     H32918   6.933  11.424   4.052  0.9349 -1.9728  0.1459
  985MOL0     H32919   6.966  11.499   4.205 -5.2367 -0.6944  3.2376
  985MOL0     H32920   7.153  11.310   4.255  3.3549 -0.8744 -1.2253
  985MOL0     H32921   7.129  11.269   4.086 -1.4920  0.2514 -0.7321
  985MOL0     H32922   7.172  11.535   4.057  0.8328  2.1460  1.5009
  985MOL0     H32923   7.252  11.501   4.206 -1.6648  1.5028  0.2176
  985MOL0     H32924   7.311  11.372   3.927 -3.1535 -2.5421  0.9756
  985MOL0     H32925   7.361  11.293   4.077 -1.3459 -1.1594  1.0137
  985MOL0     H32926   7.521  11.493   4.252  2.6450  0.5865  0.0794
  985MOL0     H32927   7.780  11.681   4.195  2.1276  3.9203 -1.1371
  985MOL0     H32928   7.690  11.822   4.161 -2.1719 -0.6243 -1.9428
  985MOL0     H32929   7.599  11.629   4.388 -1.5801 -0.4835 -0.3406
  985MOL0     H32930   7.518  11.779   4.327  0.4993 -0.3117 -2.2937
  985MOL0     H32931   7.760  11.885   4.386 -1.6328  0.5612 -0.3776
  985MOL0     H32932   7.786  11.739   4.480 -2.0085 -2.3068 -0.7590
  985MOL0     H32933   7.582  11.780   4.618 -1.9987  2.1262  1.9552
  985MOL0     H32934   7.544  11.928   4.512  0.1709 -1.1827 -1.5881
  985MOL0     H32935   7.629  11.790   4.820 -0.1961 -0.2410 -1.5080
  985MOL0     H32936   7.805  11.696   5.127  1.6932  3.3883 -1.5743
  985MOL0     H32937   7.654  11.691   5.030  0.5548  0.3779 -3.5174
  985MOL0     H32938   7.758  11.550   5.028 -1.2451  0.0190 -0.6033
  985MOL0     H32939   8.185  11.602   5.230 -2.0584  2.3890 -3.4911
  985MOL0     H32940   8.402  11.524   5.354  0.1770  1.8892  1.4136
  985MOL0     H32941   8.738  11.476   5.094 -0.8727  1.0921 -0.2084
  985MOL0     H32942   8.825  11.580   5.192  2.3253 -2.1973 -1.6134
  985MOL0     H32943   8.698  11.309   5.299 -0.8241  0.0901 -2.6674
  985MOL0     H32944   8.844  11.301   5.213  0.2235  0.4973  0.0756
  985MOL0     H32945   8.896  11.309   5.455 -1.2364 -0.5683 -1.0071
  985MOL0     H32946   8.825  11.477   5.467 -1.6728 -0.7236 -1.2106
  985MOL0     H32947   9.056  11.386   5.287  0.2129  0.8284 -1.2065
  985MOL0     H32948   9.026  11.545   5.312  2.0278 -0.9349 -0.8652
  985MOL0     H32949   9.083  11.398   5.571  1.0587 -0.7418 -0.1847
  985MOL0     H32950   9.124  11.568   5.529  1.6713  0.0801 -1.7520
  985MOL0     H32951   9.225  11.308   5.402  0.2142 -0.9687  0.2165
  985MOL0     H32952   9.298  11.468   5.368  2.8061 -0.9532 -0.1721
  985MOL0     H32953   9.284  11.279   5.603 -2.6429  1.7005 -0.0643
  985MOL0     H32954   9.367  11.440   5.617 -0.4517 -0.1247 -1.0874
  985MOL0     H32955   9.541  11.263   5.553  0.4143  1.0087 -0.7109
  985MOL0     H32956   9.502  11.369   5.417  0.5493 -0.9429 -0.7923
  985MOL0     H32957   8.629  11.647   5.001 -1.9952 -0.2622 -2.9242
  985MOL0     H32958   8.414  11.712   4.892  0.1431  0.9118  0.8050
  985MOL0     H32959   8.121  11.846   4.781  0.0892  1.3082  3.3900
  985MOL0     H32960   7.957  11.951   4.635 -2.0050 -2.1845 -2.4413
  985MOL0     H32961   6.225  11.317   4.590 -0.5040  2.9669 -0.2118
  985MOL0     H32962   5.998  11.208   4.558  0.3783  0.9310  1.1544
  985MOL0     H32963   5.701  11.042   4.425 -1.5106  1.3801 -1.5641
  985MOL0     H32964   5.491  10.907   4.429 -0.2467 -0.5031 -0.3708
  985MOL0     H32965   5.418  10.491   4.246 -1.1936  2.1555 -1.1562
  985MOL0     H32966   5.532  10.523   4.379  0.3284  2.0341  1.5270
  985MOL0     H32967   5.344  10.594   4.524  0.8170 -0.9291 -0.2929
  985MOL0     H32968   5.331  10.431   4.477 -1.4420  0.1570  0.1059
  985MOL0     H32969   5.204  10.523   4.244 -0.6143  0.2225  0.2477
  985MOL0     H32970   5.140  10.631   4.373 -0.4784 -0.8353  1.4622
  985MOL0     H32971   5.067  10.427   4.489  0.9012  0.1749 -0.3278
  985MOL0     H32972   5.112  10.336   4.342  1.2668  1.0510 -0.3100
  985MOL0     H32973   4.734  10.492   4.246 -0.3638  2.1008  0.5252
  985MOL0     H32974   5.698  10.591   4.223  0.0998 -1.0606  0.5596
  985MOL0     H32975   5.896  10.690   4.263 -0.3768 -2.6015  1.8832
  986MOL0     O32976  10.243   8.700   5.530  0.7241 -0.1836  0.0986
  986MOL0     C32977  10.262   8.643   5.421 -0.3722 -0.3296 -0.4102
  986MOL0     O32978  10.193   8.527   5.383 -0.0777  0.0290 -0.2211
  986MOL0     C32979  10.072   8.484   5.441  0.5622 -0.1256  0.0498
  986MOL0     C32980  10.070   8.416   5.561  0.2794 -1.0092  0.0612
  986MOL0     C32981   9.947   8.390   5.632 -0.7807 -0.6394  0.3620
  986MOL0     C32982   9.826   8.407   5.559 -0.7822  0.4839 -0.4047
  986MOL0     O32983   9.699   8.375   5.602  0.3859 -0.5691 -0.6331
  986MOL0     C32984   9.697   8.282   5.701 -0.2935  0.2696 -0.0175
  986MOL0     C32985   9.551   8.246   5.730  0.2070  0.0555  0.8510
  986MOL0     C32986   9.476   8.161   5.620 -1.1693  0.7870  0.9164
  986MOL0     C32987   9.517   8.006   5.641  0.8640  0.1534  0.0054
  986MOL0     C32988   9.407   7.910   5.580  0.2571 -1.1788 -0.2990
  986MOL0     C32989   9.349   7.934   5.451  1.0378 -1.4739 -0.7685
  986MOL0     C32990   9.241   7.831   5.402  0.9439 -0.2467  0.6163
  986MOL0     C32991   9.110   7.821   5.487  0.5641 -0.4124  0.7795
  986MOL0     N32992   9.014   7.941   5.475 -0.7444 -0.1472  0.1590
  986MOL0     C32993   9.039   8.061   5.536  0.1211 -0.6723 -0.3993
  986MOL0     C32994   8.919   8.116   5.567  0.4629  0.3187  0.4160
  986MOL0     C32995   8.870   8.250   5.624 -0.2554  0.8121 -0.2921
  986MOL0     C32996   8.845   8.347   5.508  0.5005 -0.2819  0.5344
  986MOL0     C32997   8.773   8.482   5.562  0.5143 -1.0344 -0.2619
  986MOL0     C32998   8.765   8.596   5.470  0.0484 -0.0496  0.2345
  986MOL0     O32999   8.682   8.702   5.533 -0.3377  0.3378  0.4970
  986MOL0     C33000   8.704   8.825   5.481  0.3161 -0.5009  0.0853
  986MOL0     C33001   8.801   8.869   5.380  0.3073 -0.3534  1.0277
  986MOL0     C33002   8.803   9.004   5.347  0.1250 -0.3825 -0.5637
  986MOL0     C33003   8.899   9.046   5.235  0.1950  0.7791 -0.0451
  986MOL0     C33004   8.711   9.094   5.401 -0.1815  0.5073 -0.0275
  986MOL0     C33005   8.721   9.244   5.389  0.0883 -0.1470 -0.5991
  986MOL0     O33006   8.623   9.322   5.451 -0.8825  0.2985  0.1054
  986MOL0     C33007   8.586   9.436   5.384 -0.0457 -1.2170 -0.2954
  986MOL0     C33008   8.458   9.454   5.329  1.3697  0.6452 -0.3759
  986MOL0     C33009   8.432   9.567   5.263  0.1035  0.1191 -0.5036
  986MOL0     C33010   8.532   9.667   5.240  0.4876 -0.1619 -0.2574
  986MOL0     O33011   8.485   9.778   5.172 -0.1402  0.3335 -0.1236
  986MOL0     C33012   8.582   9.875   5.124  0.1910  1.0231 -0.3640
  986MOL0     C33013   8.516   9.983   5.038 -0.3580  0.6060  0.8482
  986MOL0     C33014   8.443   9.935   4.908 -0.0318 -1.3305 -0.7628
  986MOL0     C33015   8.538   9.902   4.799 -0.7978  0.5393  0.3135
  986MOL0     C33016   8.473   9.831   4.677  0.0669  0.4617 -0.3363
  986MOL0     C33017   8.541   9.858   4.539  0.1434 -0.0190 -0.1173
  986MOL0     C33018   8.687   9.811   4.541  0.5676  0.3685 -0.0944
  986MOL0     C33019   8.745   9.773   4.401 -0.6393 -0.7439  0.1287
  986MOL0    Cl33020   8.663   9.642   4.318  0.0862  0.2975  0.1983
  986MOL0     C33021   8.653   9.647   5.285 -0.5614  0.3851  0.1387
  986MOL0     C33022   8.686   9.531   5.354  0.5756  0.5070  0.4338
  986MOL0     O33023   8.816   9.292   5.331  0.3973 -0.3286 -0.1594
  986MOL0     C33024   8.617   9.041   5.497  0.4485  0.2378 -0.7493
  986MOL0     C33025   8.616   8.912   5.541  0.7763  0.2817  1.2637
  986MOL0     N33026   8.823   8.027   5.519 -0.1738  0.1941 -0.4305
  986MOL0     N33027   8.886   7.932   5.467 -0.9082  0.3297  0.0003
  986MOL0     C33028   9.838   8.447   5.431  0.4779 -1.1678  0.0488
  986MOL0     C33029   9.952   8.498   5.372  0.1244  0.3374  0.0845
  986MOL0     C33030  10.378   8.672   5.333  0.4219 -1.2738 -0.0947
  986MOL0     C33031  10.439   8.564   5.267  0.0256  0.1630  0.4326
  986MOL0     C33032  10.550   8.591   5.190 -0.1890 -0.5468 -0.0055
  986MOL0     C33033  10.604   8.721   5.175  0.9949 -0.1334  0.3038
  986MOL0     O33034  10.710   8.740   5.094 -0.2915 -0.0345  0.0570
  986MOL0     C33035  10.795   8.855   5.109  0.1661 -0.2901  0.0095
  986MOL0     C33036  10.937   8.826   5.063  0.5745 -0.5994  0.0341
  986MOL0     C33037  10.947   8.789   4.913  0.4730 -0.0500 -0.2741
  986MOL0     C33038  11.082   8.766   4.873 -0.7602 -0.0515  1.4613
  986MOL0     C33039  11.143   8.639   4.915  0.5443  0.3066  0.2483
  986MOL0     C33040  11.192   8.530   4.922  0.4069  0.4512  0.6165
  986MOL0     C33041  10.537   8.830   5.241 -0.1358  0.2916 -0.2667
  986MOL0     C33042  10.430   8.803   5.329 -0.8780  0.6203  0.8729
  986MOL0     H33043  10.161   8.397   5.617 -0.2951 -1.2715  0.9272
  986MOL0     H33044   9.961   8.347   5.731  2.0702  0.4528  0.5170
  986MOL0     H33045   9.748   8.190   5.672 -0.1157  0.3791 -0.0558
  986MOL0     H33046   9.733   8.320   5.797  1.1636  0.9830 -0.8300
  986MOL0     H33047   9.549   8.192   5.825  0.6417  0.5923  1.1692
  986MOL0     H33048   9.494   8.340   5.729 -1.6991 -1.0390 -1.0415
  986MOL0     H33049   9.367   8.165   5.623 -1.4068 -1.7056 -0.9529
  986MOL0     H33050   9.500   8.204   5.522 -0.1709  1.9925  1.6627
  986MOL0     H33051   9.614   7.980   5.597  1.2302  0.1743  0.7857
  986MOL0     H33052   9.522   7.977   5.746  3.0662  0.6914  0.0853
  986MOL0     H33053   9.452   7.810   5.589 -1.1766 -1.6694  3.3881
  986MOL0     H33054   9.323   7.916   5.650 -1.7644 -3.3068 -2.3512
  986MOL0     H33055   9.303   8.033   5.458 -0.0272 -2.0528  1.6265
  986MOL0     H33056   9.433   7.952   5.384  0.4263 -2.6437 -1.8907
  986MOL0     H33057   9.214   7.858   5.300 -1.1623 -1.2282  0.8659
  986MOL0     H33058   9.287   7.732   5.403  1.3716 -0.2314 -3.0428
  986MOL0     H33059   9.135   7.805   5.592  0.4230 -0.0718  0.8663
  986MOL0     H33060   9.063   7.725   5.461 -0.7472  0.6629 -1.0709
  986MOL0     H33061   9.135   8.109   5.557  0.1913 -0.9421 -0.0998
  986MOL0     H33062   8.772   8.231   5.667 -1.6713  0.4716 -3.3820
  986MOL0     H33063   8.932   8.296   5.702 -2.3107  3.0994  0.0890
  986MOL0     H33064   8.777   8.311   5.430  2.0132 -1.6185 -0.2190
  986MOL0     H33065   8.940   8.372   5.460 -0.4242  0.7716 -0.8235
  986MOL0     H33066   8.821   8.521   5.653  1.9672  1.2328 -1.8947
  986MOL0     H33067   8.668   8.468   5.589 -0.1840 -0.9336 -2.7648
  986MOL0     H33068   8.730   8.570   5.370  1.4146 -0.3905 -0.1784
  986MOL0     H33069   8.869   8.629   5.457  0.3030 -0.3546  1.3922
  986MOL0     H33070   8.883   8.813   5.338  0.3061  0.1465  0.3482
  986MOL0     H33071   8.982   9.102   5.278  0.2025  1.6048 -1.0945
  986MOL0     H33072   8.939   8.960   5.181 -2.0408  0.6822 -1.7304
  986MOL0     H33073   8.845   9.095   5.154 -0.6478  1.6713  1.0301
  986MOL0     H33074   8.367   9.397   5.349  0.0462  1.8112 -2.6490
  986MOL0     H33075   8.330   9.577   5.227  0.6075 -0.8107 -2.2913
  986MOL0     H33076   8.641   9.910   5.210 -0.6455 -0.1340  0.7089
  986MOL0     H33077   8.646   9.831   5.047 -0.0391  1.3208 -0.7296
  986MOL0     H33078   8.442  10.032   5.102 -0.8152  1.2332 -0.1394
  986MOL0     H33079   8.595  10.055   5.019  1.4235 -1.6119 -0.6926
  986MOL0     H33080   8.387  10.025   4.880  1.2523  0.7055  2.5844
  986MOL0     H33081   8.377   9.850   4.930 -0.7313 -0.7879 -0.7005
  986MOL0     H33082   8.586   9.993   4.763 -1.2788  0.4984 -0.4480
  986MOL0     H33083   8.615   9.832   4.835 -1.9749 -0.8784  0.1855
  986MOL0     H33084   8.368   9.861   4.678 -0.6808 -1.8067  1.9003
  986MOL0     H33085   8.477   9.722   4.692 -1.4083  0.3539 -0.4877
  986MOL0     H33086   8.483   9.798   4.468  1.4100 -1.5063  0.0453
  986MOL0     H33087   8.527   9.962   4.509 -2.8561 -0.4102 -0.4051
  986MOL0     H33088   8.693   9.724   4.608 -0.9783  0.1424 -0.2179
  986MOL0     H33089   8.750   9.886   4.590  3.1273 -0.5939 -1.7088
  986MOL0     H33090   8.851   9.753   4.416 -0.4392  1.4947  2.2052
  986MOL0     H33091   8.742   9.865   4.343  1.0316  0.8389  2.3975
  986MOL0     H33092   8.720   9.731   5.290 -1.5023  1.0843  2.1859
  986MOL0     H33093   8.786   9.520   5.394 -0.0271 -0.4412  1.7518
  986MOL0     H33094   8.552   9.110   5.550  1.5993  0.3022  0.6331
  986MOL0     H33095   8.553   8.893   5.627 -1.6871  0.9396 -0.2921
  986MOL0     H33096   9.745   8.443   5.374 -1.7757 -2.1417  3.4851
  986MOL0     H33097   9.954   8.535   5.270 -3.9781  0.6826 -0.0385
  986MOL0     H33098  10.393   8.466   5.268 -1.0574  0.2820 -5.3100
  986MOL0     H33099  10.588   8.504   5.138 -1.1870  0.1087 -1.9378
  986MOL0     H33100  10.749   8.942   5.060 -0.6537 -1.1109 -0.7410
  986MOL0     H33101  10.802   8.876   5.216  0.0366 -0.0008 -0.0364
  986MOL0     H33102  10.973   8.748   5.130  0.7921 -1.6235 -1.2335
  986MOL0     H33103  10.994   8.917   5.086  1.8327 -1.2514 -0.3660
  986MOL0     H33104  10.896   8.869   4.860 -2.4684 -1.2539  0.5452
  986MOL0     H33105  10.877   8.705   4.908 -2.5951  2.3394 -0.8111
  986MOL0     H33106  11.146   8.849   4.904  0.6680  0.4616 -2.3434
  986MOL0     H33107  11.086   8.765   4.764 -0.1980 -0.8418  1.4727
  986MOL0     H33108  11.245   8.438   4.929 -1.0814 -0.4497  0.4851
  986MOL0     H33109  10.577   8.931   5.232  1.3520 -0.3408 -1.0300
  986MOL0     H33110  10.389   8.886   5.384  0.1016  3.5401 -2.4600
  987MOL0     O33111   0.024  10.618   1.789 -0.5152 -0.5645  0.2638
  987MOL0     C33112   0.124  10.672   1.744 -0.3130 -0.4441 -0.4293
  987MOL0     O33113   0.146  10.707   1.613  0.0050 -0.1984 -0.4830
  987MOL0     C33114   0.041  10.672   1.530 -0.1541  0.5582 -0.0984
  987MOL0     C33115  -0.079  10.744   1.552 -0.3846  0.1789  0.4410
  987MOL0     C33116  -0.196  10.719   1.481 -0.4130  0.5771  0.3302
  987MOL0     C33117  -0.184  10.618   1.380  0.0991  0.3190 -0.1193
  987MOL0     O33118  -0.292  10.580   1.304  0.2924 -0.3270 -0.1023
  987MOL0     C33119  -0.272  10.580   1.165  0.8872 -0.2234  0.1675
  987MOL0     C33120  -0.405  10.600   1.085  0.1092  1.1872  0.2272
  987MOL0     C33121  -0.378  10.589   0.937 -0.6257 -0.5720 -0.0149
  987MOL0     C33122  -0.515  10.621   0.878  0.5689  0.0769  1.0321
  987MOL0     C33123  -0.513  10.611   0.717 -0.6410 -0.5633 -0.0594
  987MOL0     C33124  -0.458  10.737   0.667  1.0270  0.0177  0.0800
  987MOL0     C33125  -0.446  10.746   0.508 -0.1881  0.3752  0.1318
  987MOL0     C33126  -0.394  10.880   0.448 -0.1842 -0.2809  0.0732
  987MOL0     N33127  -0.249  10.905   0.481  0.1264 -0.2861 -0.7881
  987MOL0     C33128  -0.158  10.863   0.395 -0.0122 -0.4284  0.5870
  987MOL0     C33129  -0.037  10.888   0.467  0.5622 -0.3372 -0.0017
  987MOL0     C33130   0.106  10.866   0.412  0.8405  0.0125 -0.1908
  987MOL0     C33131   0.136  10.984   0.324 -0.4632 -0.3303 -1.6366
  987MOL0     C33132   0.270  10.970   0.259 -0.7095 -0.1966  0.5871
  987MOL0     C33133   0.383  11.003   0.343  0.5289  0.1660  0.1154
  987MOL0     O33134   0.366  11.127   0.412 -0.3671  0.2381  0.9080
  987MOL0     C33135   0.445  11.151   0.526  0.3422 -0.9162  0.1923
  987MOL0     C33136   0.406  11.270   0.586 -0.0341 -0.1727 -0.7922
  987MOL0     C33137   0.452  11.316   0.711 -0.1283 -0.1072  0.7056
  987MOL0     C33138   0.399  11.447   0.763  0.0029  0.3047 -1.0456
  987MOL0     C33139   0.552  11.236   0.776  0.3818  0.3130  0.5346
  987MOL0     C33140   0.607  11.265   0.902  0.4266 -0.5205  0.3354
  987MOL0     O33141   0.517  11.258   1.003  0.3597 -0.2835 -0.0392
  987MOL0     C33142   0.544  11.326   1.115  0.3189  0.1592  0.1725
  987MOL0     C33143   0.501  11.451   1.159 -0.4961 -0.0162  0.4828
  987MOL0     C33144   0.528  11.506   1.283  0.2487 -0.4762  0.0700
  987MOL0     C33145   0.590  11.427   1.377  0.5104 -0.0642  0.5626
  987MOL0     O33146   0.605  11.476   1.503  0.0063 -0.1679  0.1474
  987MOL0     C33147   0.706  11.576   1.499  0.1135  0.1349 -0.1414
  987MOL0     C33148   0.733  11.626   1.639 -0.0173 -0.1291 -0.0938
  987MOL0     C33149   0.810  11.758   1.644  0.5865  0.6577 -0.3042
  987MOL0     C33150   0.957  11.735   1.617 -0.9479 -1.1690  0.1037
  987MOL0     C33151   1.045  11.851   1.629  0.3857  0.0057  0.7420
  987MOL0     C33152   1.097  11.873   1.772  0.8943 -0.0884  0.3785
  987MOL0     C33153   1.186  12.001   1.782  0.1948  0.4434  0.2773
  987MOL0     C33154   1.184  12.063   1.920 -0.3867  0.5377  0.7013
  987MOL0    Cl33155   1.280  12.220   1.921  0.7177  0.0523  0.0599
  987MOL0     C33156   0.615  11.298   1.348 -1.3160 -0.2996 -0.3127
  987MOL0     C33157   0.602  11.250   1.218 -0.0286 -0.2444  0.6933
  987MOL0     O33158   0.717  11.315   0.901  0.3673 -0.0957 -0.1655
  987MOL0     C33159   0.593  11.109   0.711  0.3643  0.6765  0.6067
  987MOL0     C33160   0.554  11.078   0.577  0.2523  0.4520  0.0207
  987MOL0     N33161  -0.065  10.978   0.574  0.0761  0.3581 -0.1717
  987MOL0     N33162  -0.193  10.987   0.578  0.2625 -0.3598  0.2801
  987MOL0     C33163  -0.064  10.549   1.350 -0.0488 -0.1598  0.4029
  987MOL0     C33164   0.053  10.577   1.423 -0.5756 -0.0541 -0.2621
  987MOL0     C33165   0.236  10.704   1.838  0.6862  0.9125 -0.3288
  987MOL0     C33166   0.214  10.748   1.968 -0.1105 -0.1419 -0.0110
  987MOL0     C33167   0.329  10.753   2.058  0.1828  0.6369  0.0257
  987MOL0     C33168   0.454  10.726   2.002  0.1434  0.0959  0.5031
  987MOL0     O33169   0.573  10.746   2.075  0.4016  0.2630  0.2025
  987MOL0     C33170   0.581  10.729   2.223 -0.1080  0.4414  1.1305
  987MOL0     C33171   0.723  10.694   2.274 -0.0148  0.5181 -0.7139
  987MOL0     C33172   0.782  10.572   2.194 -0.0831 -0.6825  0.8554
  987MOL0     C33173   0.760  10.439   2.266  0.0699  0.8060 -0.2476
  987MOL0     C33174   0.823  10.329   2.190 -1.1526 -0.7278 -0.3870
  987MOL0     C33175   0.863  10.233   2.124 -0.0361 -0.5340  0.8205
  987MOL0     C33176   0.471  10.690   1.872  0.3190 -0.4936 -0.1701
  987MOL0     C33177   0.362  10.663   1.794 -1.0052  0.1255  0.8410
  987MOL0     H33178  -0.078  10.834   1.614  0.1702  1.6058 -1.5179
  987MOL0     H33179  -0.290  10.769   1.499 -0.1247  1.8425 -1.3780
  987MOL0     H33180  -0.219  10.669   1.127 -2.0031  0.3971 -2.8643
  987MOL0     H33181  -0.221  10.488   1.136 -0.4781 -0.4786 -1.5637
  987MOL0     H33182  -0.479  10.522   1.103 -0.1648  1.0920 -1.2260
  987MOL0     H33183  -0.455  10.693   1.113 -1.3503 -0.5455  4.0280
  987MOL0     H33184  -0.300  10.659   0.907  0.1146 -1.9307 -1.4043
  987MOL0     H33185  -0.354  10.489   0.901  0.4748 -0.7921  1.2404
  987MOL0     H33186  -0.572  10.531   0.903  0.6094 -0.2970 -0.1557
  987MOL0     H33187  -0.578  10.702   0.916 -2.7215 -1.5045 -0.6286
  987MOL0     H33188  -0.455  10.529   0.674 -0.0048  1.5997 -3.8303
  987MOL0     H33189  -0.617  10.614   0.682 -0.9607 -0.9180  0.8390
  987MOL0     H33190  -0.513  10.828   0.694 -0.8230 -0.9242 -0.3744
  987MOL0     H33191  -0.359  10.750   0.712 -0.7377 -0.5833  4.7223
  987MOL0     H33192  -0.383  10.660   0.481 -1.3089 -0.4216  0.0169
  987MOL0     H33193  -0.541  10.730   0.457 -0.0690 -1.7413  0.4718
  987MOL0     H33194  -0.450  10.959   0.497  1.2215  0.5807  0.3432
  987MOL0     H33195  -0.412  10.884   0.340  1.2675 -0.2722 -0.1851
  987MOL0     H33196  -0.173  10.813   0.300 -2.2667  3.3697 -1.2612
  987MOL0     H33197   0.179  10.857   0.493  1.2892  0.9129 -0.4812
  987MOL0     H33198   0.100  10.777   0.348  0.6028  1.1973 -1.8954
  987MOL0     H33199   0.137  11.080   0.377 -0.3663 -1.6458  0.8806
  987MOL0     H33200   0.050  10.993   0.257 -0.6608  0.3538 -1.3055
  987MOL0     H33201   0.263  11.037   0.173  0.4440  0.6395  1.1231
  987MOL0     H33202   0.283  10.868   0.222  0.8418 -0.2547  1.2018
  987MOL0     H33203   0.479  10.992   0.293  0.6632 -1.9272  0.7551
  987MOL0     H33204   0.396  10.923   0.416 -0.0380 -0.1076 -0.0780
  987MOL0     H33205   0.331  11.328   0.533 -1.9131 -2.0132 -0.2756
  987MOL0     H33206   0.481  11.518   0.751  1.7874 -1.7336 -1.5931
  987MOL0     H33207   0.306  11.478   0.715 -2.1816 -1.2272  1.8528
  987MOL0     H33208   0.365  11.444   0.867 -1.9810  0.3061 -1.6509
  987MOL0     H33209   0.463  11.519   1.083  1.1742 -1.2679 -1.5987
  987MOL0     H33210   0.512  11.613   1.285  1.6109 -0.2648  0.2707
  987MOL0     H33211   0.794  11.551   1.440 -1.6244 -2.2797 -1.8960
  987MOL0     H33212   0.655  11.652   1.440  2.7369 -1.3921 -4.9225
  987MOL0     H33213   0.639  11.648   1.691  1.6322  1.7396  2.3763
  987MOL0     H33214   0.779  11.547   1.699 -1.9235  0.0111  1.6469
  987MOL0     H33215   0.797  11.793   1.747 -0.5717 -2.1781  0.6136
  987MOL0     H33216   0.763  11.834   1.581 -0.8364  0.6568  0.7260
  987MOL0     H33217   0.992  11.659   1.687  0.0074  0.3535  1.3364
  987MOL0     H33218   0.971  11.708   1.512  0.0727  2.0595 -0.7052
  987MOL0     H33219   1.002  11.944   1.589  3.3120  1.6660  1.1453
  987MOL0     H33220   1.134  11.841   1.566 -0.9771  1.3067 -1.5349
  987MOL0     H33221   1.014  11.871   1.844 -1.3252  2.0572 -1.8760
  987MOL0     H33222   1.157  11.786   1.798  1.8034 -0.3374 -2.2473
  987MOL0     H33223   1.141  12.064   1.705  0.4336  0.9657  0.5591
  987MOL0     H33224   1.291  11.979   1.756  0.0714 -2.0480  1.6172
  987MOL0     H33225   1.234  11.997   1.991  1.0732 -1.1716 -1.7704
  987MOL0     H33226   1.079  12.080   1.946 -0.9957 -0.8409 -0.6963
  987MOL0     H33227   0.659  11.241   1.430  3.0994  2.8348 -0.1786
  987MOL0     H33228   0.639  11.148   1.207  0.6499 -0.1418  1.7926
  987MOL0     H33229   0.658  11.038   0.762 -3.0280 -2.4280  0.9905
  987MOL0     H33230   0.592  10.990   0.526 -0.6635 -0.1931  0.4255
  987MOL0     H33231  -0.065  10.473   1.273 -2.1608  1.4696 -1.3026
  987MOL0     H33232   0.151  10.530   1.412 -1.2646 -1.0895 -2.6274
  987MOL0     H33233   0.115  10.761   2.011  0.5070  1.8363  0.9064
  987MOL0     H33234   0.320  10.792   2.159  3.3968  3.2237 -0.5184
  987MOL0     H33235   0.556  10.829   2.258 -0.1932 -0.1232  2.7437
  987MOL0     H33236   0.505  10.652   2.241  1.4169 -1.5896 -0.6812
  987MOL0     H33237   0.719  10.670   2.381 -2.2912 -1.3396 -1.1224
  987MOL0     H33238   0.774  10.790   2.280  0.6819  0.0629  2.5786
  987MOL0     H33239   0.888  10.580   2.170  0.2316  1.5519  2.6227
  987MOL0     H33240   0.738  10.578   2.094  3.1738  1.3674 -0.6244
  987MOL0     H33241   0.654  10.418   2.286 -0.0049 -0.8083 -2.0906
  987MOL0     H33242   0.802  10.461   2.364  1.2973  4.2844 -1.4002
  987MOL0     H33243   0.899  10.162   2.054  3.5739  0.4998  1.4272
  987MOL0     H33244   0.572  10.664   1.841  0.9415 -1.0765  2.0984
  987MOL0     H33245   0.381  10.620   1.697  1.2103  1.7680  0.4691
  988MOL0     O33246  11.116  10.930   3.875  0.1520  0.5561  0.8208
  988MOL0     C33247  11.118  10.815   3.918  0.3444  0.4869 -1.1024
  988MOL0     O33248  11.205  10.775   4.014 -0.1575 -0.5133 -0.3198
  988MOL0     C33249  11.296  10.870   4.061  0.7090  0.1364  1.1538
  988MOL0     C33250  11.258  10.945   4.174  0.4714  0.7169  0.4175
  988MOL0     C33251  11.350  11.027   4.239  0.0254  0.7862  0.3477
  988MOL0     C33252  11.479  11.040   4.179  0.5039 -0.0758 -0.0085
  988MOL0     O33253  11.568  11.123   4.237  0.9513 -0.3026  0.1146
  988MOL0     C33254  11.600  11.090   4.371  0.3714  0.0120 -0.4742
  988MOL0     C33255  11.623  11.215   4.449  0.2760 -0.1444 -0.3175
  988MOL0     C33256  11.493  11.291   4.463 -0.2661 -0.0265  0.2000
  988MOL0     C33257  11.487  11.397   4.583  0.2879  1.2840 -0.6103
  988MOL0     C33258  11.354  11.448   4.621 -0.2458 -0.2056 -0.1942
  988MOL0     C33259  11.263  11.506   4.523 -1.0543 -0.5401  0.1665
  988MOL0     C33260  11.340  11.617   4.436 -0.1479  0.6824 -0.7322
  988MOL0     C33261  11.255  11.680   4.327  0.6107  0.5707 -0.3866
  988MOL0     N33262  11.315  11.803   4.285 -0.5262  0.4710  0.5027
  988MOL0     C33263  11.435  11.817   4.217  0.1766  0.2395 -0.3167
  988MOL0     C33264  11.432  11.946   4.178  0.5347 -0.1196  0.0471
  988MOL0     C33265  11.527  12.013   4.091 -0.5327 -0.5272 -0.2350
  988MOL0     C33266  11.620  12.104   4.173  0.0007 -0.5154  0.2605
  988MOL0     C33267  11.734  12.018   4.249 -0.1032 -0.6734 -0.5708
  988MOL0     C33268  11.829  12.110   4.325  0.6293 -0.0973  0.8239
  988MOL0     O33269  11.898  12.191   4.229  0.5495  0.5122  0.5457
  988MOL0     C33270  12.002  12.272   4.280  0.9647 -1.3774 -0.0109
  988MOL0     C33271  12.070  12.352   4.193 -0.9121  0.6583  0.3097
  988MOL0     C33272  12.166  12.454   4.237 -0.2369  0.1675 -0.6062
  988MOL0     C33273  12.243  12.535   4.126 -0.2833 -0.2251 -0.5250
  988MOL0     C33274  12.186  12.475   4.378  0.0814  0.1370  0.4741
  988MOL0     C33275  12.264  12.586   4.430 -0.6392  0.5073 -0.3465
  988MOL0     O33276  12.285  12.702   4.349  0.2131 -0.1156  0.8011
  988MOL0     C33277  12.302  12.824   4.409  0.6406 -0.2931  0.5218
  988MOL0     C33278  12.356  12.910   4.317  0.0916  1.1850  0.1600
  988MOL0     C33279  12.399  13.035   4.354  0.4790  0.7113 -0.0980
  988MOL0     C33280  12.386  13.069   4.493 -0.6639 -1.4323 -0.6526
  988MOL0     O33281  12.428  13.189   4.549 -0.3836 -0.0974  0.0458
  988MOL0     C33282  12.506  13.283   4.471  0.2188  0.5829  1.3700
  988MOL0     C33283  12.657  13.246   4.457  0.1100 -1.2866  1.3321
  988MOL0     C33284  12.737  13.361   4.386 -0.1982 -0.4228  0.8070
  988MOL0     C33285  12.769  13.472   4.481 -0.4808 -0.2746  0.1454
  988MOL0     C33286  12.897  13.556   4.444 -0.2784  0.6328  1.1611
  988MOL0     C33287  12.902  13.673   4.540  0.1860  0.4325  0.6266
  988MOL0     C33288  13.032  13.761   4.549 -0.3776  0.0656  0.7244
  988MOL0     C33289  13.024  13.866   4.439 -0.3709 -0.7979 -0.8367
  988MOL0    Cl33290  13.176  13.966   4.456 -0.3793 -0.3874 -0.1816
  988MOL0     C33291  12.316  12.988   4.579  0.5032  0.0271 -0.5133
  988MOL0     C33292  12.268  12.868   4.534  1.3155  0.2255  0.0254
  988MOL0     O33293  12.309  12.570   4.547 -0.5585  0.3256 -0.0337
  988MOL0     C33294  12.101  12.403   4.458 -0.2613 -0.1698 -0.5619
  988MOL0     C33295  12.023  12.299   4.424  0.9889  0.0327  0.5071
  988MOL0     N33296  11.314  12.004   4.224  0.1212  0.4330 -0.1486
  988MOL0     N33297  11.246  11.918   4.297  0.3345 -1.0378  0.3107
  988MOL0     C33298  11.503  10.991   4.053 -0.2552 -0.4087  0.2441
  988MOL0     C33299  11.415  10.902   3.991 -0.2475 -0.4589  0.1833
  988MOL0     C33300  11.029  10.720   3.853 -0.1223  1.0807 -0.6263
  988MOL0     C33301  10.904  10.755   3.808  1.2045  0.0127  0.1869
  988MOL0     C33302  10.810  10.657   3.779 -0.2969 -0.8142  0.5245
  988MOL0     C33303  10.847  10.520   3.773  0.2700 -0.5090  0.6735
  988MOL0     O33304  10.757  10.429   3.745 -0.4666 -0.4323 -0.2013
  988MOL0     C33305  10.774  10.377   3.611  0.4682 -0.5693 -0.1549
  988MOL0     C33306  10.673  10.275   3.574  0.2267  0.6372 -0.2811
  988MOL0     C33307  10.523  10.330   3.592 -0.5419 -0.7215  0.5190
  988MOL0     C33308  10.421  10.242   3.536  0.9638  0.0749  0.5317
  988MOL0     C33309  10.425  10.248   3.389 -0.2755  0.0435  1.0712
  988MOL0     C33310  10.429  10.237   3.268  1.2819 -0.0976  0.2089
  988MOL0     C33311  10.988  10.488   3.801 -0.1737  1.0665 -0.6556
  988MOL0     C33312  11.069  10.587   3.855 -0.6330 -0.2364  0.3616
  988MOL0     H33313  11.159  10.918   4.208  1.4041 -2.1468  1.1977
  988MOL0     H33314  11.311  11.083   4.323 -2.4399  1.3894 -1.0908
  988MOL0     H33315  11.513  11.043   4.419 -0.1140  2.4877  1.2704
  988MOL0     H33316  11.680  11.017   4.382 -0.9052 -1.2862  0.6550
  988MOL0     H33317  11.644  11.187   4.552 -2.2671 -0.8763  0.0792
  988MOL0     H33318  11.700  11.281   4.407  0.3509  0.7881  1.2203
  988MOL0     H33319  11.482  11.331   4.361  1.7779 -3.0607 -1.3797
  988MOL0     H33320  11.412  11.220   4.480 -0.1112 -0.5435 -1.0867
  988MOL0     H33321  11.523  11.342   4.670 -1.3012  0.2158 -0.5826
  988MOL0     H33322  11.543  11.489   4.563  0.6493  1.0433 -0.6888
  988MOL0     H33323  11.305  11.364   4.671 -1.1638  0.1569 -0.4635
  988MOL0     H33324  11.364  11.527   4.696 -1.7165  0.0778 -0.2549
  988MOL0     H33325  11.221  11.434   4.452  1.1062  0.7862 -2.6816
  988MOL0     H33326  11.186  11.555   4.584 -1.0002 -0.9410  0.5565
  988MOL0     H33327  11.364  11.691   4.513 -3.5744  2.0432 -0.7840
  988MOL0     H33328  11.435  11.582   4.393 -1.5464 -2.3332 -1.6359
  988MOL0     H33329  11.156  11.704   4.367 -0.5612 -0.3753 -2.5428
  988MOL0     H33330  11.257  11.606   4.246 -2.4797 -2.0433  1.6935
  988MOL0     H33331  11.510  11.741   4.195  0.7076  0.6056  0.2299
  988MOL0     H33332  11.581  11.934   4.037 -0.8921 -2.0104  1.4768
  988MOL0     H33333  11.482  12.070   4.009 -0.0231  2.3598  1.3656
  988MOL0     H33334  11.573  12.169   4.248  1.2858 -0.1290  0.7575
  988MOL0     H33335  11.663  12.180   4.107 -1.6410  0.3124  0.0789
  988MOL0     H33336  11.778  11.958   4.169  3.4273 -0.1389  0.7879
  988MOL0     H33337  11.693  11.946   4.320 -0.0796  2.6024  3.0935
  988MOL0     H33338  11.901  12.059   4.390 -1.2067 -2.1738  1.3643
  988MOL0     H33339  11.767  12.180   4.383  0.6578  1.7088 -1.2395
  988MOL0     H33340  12.038  12.347   4.089 -0.2097  4.5016 -0.2382
  988MOL0     H33341  12.213  12.640   4.126  0.8994  0.1446  0.2600
  988MOL0     H33342  12.351  12.517   4.135 -0.3394 -0.0718  0.7017
  988MOL0     H33343  12.204  12.507   4.028 -2.1352  1.9642 -0.4951
  988MOL0     H33344  12.374  12.869   4.219 -2.8878  0.1629 -0.0588
  988MOL0     H33345  12.456  13.096   4.285 -2.7419  1.7133 -2.0931
  988MOL0     H33346  12.465  13.297   4.370  0.1086 -0.6660  1.2161
  988MOL0     H33347  12.491  13.378   4.522 -0.9071  1.4189 -0.4056
  988MOL0     H33348  12.709  13.226   4.551  1.2824 -3.1066  0.3659
  988MOL0     H33349  12.663  13.146   4.411 -2.2531 -1.0130  0.2685
  988MOL0     H33350  12.680  13.399   4.301  3.7829  3.2628 -0.5656
  988MOL0     H33351  12.832  13.320   4.348  0.2575  0.1024  1.3625
  988MOL0     H33352  12.686  13.543   4.486 -2.2705 -2.3540  1.4895
  988MOL0     H33353  12.777  13.436   4.584  1.2217  1.1269  0.5560
  988MOL0     H33354  12.886  13.582   4.338 -1.4825 -1.0921  0.8190
  988MOL0     H33355  12.988  13.498   4.463 -0.7146  0.9311  4.8276
  988MOL0     H33356  12.812  13.737   4.538 -0.2768 -0.2023  0.8684
  988MOL0     H33357  12.885  13.634   4.640 -5.0499  0.0040 -0.1583
  988MOL0     H33358  13.118  13.695   4.531  2.3416  3.5414 -0.2761
  988MOL0     H33359  13.045  13.820   4.641  3.0161  1.2832 -0.3804
  988MOL0     H33360  12.939  13.934   4.443  1.0876  1.1871 -2.0646
  988MOL0     H33361  13.019  13.816   4.342  0.4942  1.5019 -2.1318
  988MOL0     H33362  12.301  13.026   4.679 -3.4495  0.4635 -1.1061
  988MOL0     H33363  12.207  12.800   4.592  0.9711 -0.3548 -0.9936
  988MOL0     H33364  12.118  12.423   4.564 -1.9874  1.1377 -0.4915
  988MOL0     H33365  11.966  12.241   4.496  1.3741 -0.9429  0.0457
  988MOL0     H33366  11.593  11.027   4.006 -1.8656  1.1261 -1.8360
  988MOL0     H33367  11.442  10.870   3.890 -0.1768  1.9122 -0.6050
  988MOL0     H33368  10.873  10.857   3.792 -1.1666 -0.9568 -2.0056
  988MOL0     H33369  10.710  10.683   3.746  0.0014 -2.4596 -1.9490
  988MOL0     H33370  10.773  10.458   3.537  1.7231  2.9932  3.3647
  988MOL0     H33371  10.873  10.337   3.592  0.2864 -1.1196  0.0501
  988MOL0     H33372  10.676  10.182   3.630 -1.4795  0.8640  0.2623
  988MOL0     H33373  10.701  10.250   3.471 -0.7758  0.7295 -0.5937
  988MOL0     H33374  10.523  10.430   3.547 -0.0270 -0.9909 -0.1014
  988MOL0     H33375  10.502  10.350   3.697  0.4965  0.6736  0.4798
  988MOL0     H33376  10.315  10.266   3.549  0.4556 -2.1516  0.8385
  988MOL0     H33377  10.417  10.140   3.575  0.2462  1.6995  5.5679
  988MOL0     H33378  10.434  10.235   3.161 -2.0597 -2.2239 -0.0535
  988MOL0     H33379  11.015  10.384   3.785  4.9085  2.1378 -0.4682
  988MOL0     H33380  11.167  10.556   3.890  0.3923 -0.2871 -2.3514
  989MOL0     O33381   4.126   6.492   7.821 -0.3591  0.3677  0.5417
  989MOL0     C33382   4.201   6.587   7.857 -0.9854  0.8317  1.5524
  989MOL0     O33383   4.161   6.684   7.943  0.6467  0.2340 -0.2700
  989MOL0     C33384   4.031   6.687   7.992  0.4437  0.2481 -0.7878
  989MOL0     C33385   3.953   6.573   8.022  0.2355  0.1164 -0.5537
  989MOL0     C33386   3.822   6.584   8.077 -0.1897  0.2319 -0.4386
  989MOL0     C33387   3.772   6.717   8.110 -0.3782  0.7842 -0.7988
  989MOL0     O33388   3.667   6.716   8.189  0.1283 -0.1981 -0.4754
  989MOL0     C33389   3.547   6.775   8.137  0.4829  0.4107 -0.3449
  989MOL0     C33390   3.437   6.754   8.246  0.1220 -0.0289  0.3681
  989MOL0     C33391   3.289   6.806   8.203 -0.0946 -0.2254  0.5354
  989MOL0     C33392   3.185   6.804   8.318 -0.4169  0.4188  0.3877
  989MOL0     C33393   3.037   6.829   8.275  0.9521 -0.0790 -0.1309
  989MOL0     C33394   2.976   6.913   8.386 -1.1156  0.6436  0.1912
  989MOL0     C33395   3.026   7.063   8.387  0.0617  0.3631  0.2257
  989MOL0     C33396   2.981   7.143   8.505 -0.3326 -0.0967 -0.0837
  989MOL0     N33397   2.841   7.137   8.542 -0.0072  0.2666  0.1007
  989MOL0     C33398   2.783   7.035   8.617 -0.1257  1.2816 -0.4574
  989MOL0     C33399   2.649   7.073   8.620 -0.6222 -0.1134  0.6980
  989MOL0     C33400   2.552   7.007   8.707  0.2841  0.7113  0.0445
  989MOL0     C33401   2.461   6.908   8.628 -0.3444 -0.3278 -0.0756
  989MOL0     C33402   2.361   6.967   8.526  0.9188  0.2437 -0.4897
  989MOL0     C33403   2.249   7.063   8.585  0.3363  0.8472 -0.3253
  989MOL0     O33404   2.166   7.128   8.490 -0.3215  0.2510  0.0783
  989MOL0     C33405   2.156   7.263   8.500  0.1136 -0.2439 -0.2890
  989MOL0     C33406   2.265   7.336   8.467 -0.9188  0.9565 -0.2197
  989MOL0     C33407   2.285   7.470   8.481  0.2213 -0.3615 -0.3515
  989MOL0     C33408   2.422   7.526   8.446 -0.9253 -0.2993  0.4709
  989MOL0     C33409   2.172   7.545   8.517  0.6443 -0.4422 -0.3390
  989MOL0     C33410   2.173   7.698   8.504  0.4148 -0.0664 -0.1317
  989MOL0     O33411   2.057   7.756   8.552  0.8210 -0.0921  0.7191
  989MOL0     C33412   2.039   7.889   8.507  0.5071  1.2653  0.2144
  989MOL0     C33413   2.122   7.989   8.541  0.4924 -0.2272 -0.0601
  989MOL0     C33414   2.109   8.120   8.486  0.5015  0.1992 -0.1528
  989MOL0     C33415   2.006   8.142   8.394  0.1840  0.3993 -0.2795
  989MOL0     O33416   1.976   8.258   8.334  1.1038  0.0221 -0.1649
  989MOL0     C33417   2.091   8.337   8.286  0.8447  0.5994 -0.4156
  989MOL0     C33418   2.072   8.481   8.307 -0.9676 -0.3643  0.3576
  989MOL0     C33419   1.943   8.556   8.256 -0.1162  0.6575 -0.5790
  989MOL0     C33420   1.893   8.688   8.313 -1.0788 -0.2330  0.3422
  989MOL0     C33421   1.996   8.795   8.295  0.3207 -0.6836 -0.2434
  989MOL0     C33422   1.965   8.930   8.359 -0.5000 -0.9062 -0.3763
  989MOL0     C33423   1.994   8.930   8.507 -0.1820 -0.4488 -0.2772
  989MOL0     C33424   1.943   9.050   8.580 -0.3413 -0.1824 -0.1292
  989MOL0    Cl33425   2.007   9.072   8.737 -0.3684 -0.0203  0.4589
  989MOL0     C33426   1.924   8.034   8.360 -0.1347 -0.5779 -0.1029
  989MOL0     C33427   1.931   7.912   8.421 -0.7534  0.0328  0.3362
  989MOL0     O33428   2.266   7.758   8.452  0.3273 -0.6315 -0.5873
  989MOL0     C33429   2.055   7.476   8.548  0.5237  0.2779 -0.1135
  989MOL0     C33430   2.046   7.332   8.537  0.0149 -0.4875 -0.8273
  989MOL0     N33431   2.623   7.188   8.544 -0.3547  0.1920 -0.2911
  989MOL0     N33432   2.742   7.226   8.504  0.3944 -0.4101  0.2694
  989MOL0     C33433   3.849   6.830   8.084 -0.8489  0.8936  0.5221
  989MOL0     C33434   3.980   6.812   8.031  0.3443  0.0431 -0.0375
  989MOL0     C33435   4.340   6.590   7.800  0.1109  0.2231 -0.0729
  989MOL0     C33436   4.379   6.499   7.698 -0.4805 -0.6596  0.1754
  989MOL0     C33437   4.493   6.522   7.621  0.0956  0.9904  0.4580
  989MOL0     C33438   4.582   6.621   7.641  0.3016 -0.0728  0.3710
  989MOL0     O33439   4.693   6.631   7.561 -0.3664  0.3451  0.0979
  989MOL0     C33440   4.753   6.757   7.535  0.3241  0.0381 -0.2579
  989MOL0     C33441   4.879   6.745   7.621  0.4054 -0.2401 -0.5129
  989MOL0     C33442   4.984   6.831   7.567  0.8937 -0.0267 -0.5281
  989MOL0     C33443   5.125   6.798   7.606 -0.0734  0.0382  0.0374
  989MOL0     C33444   5.151   6.812   7.752 -0.4863 -1.0178 -0.0857
  989MOL0     C33445   5.156   6.820   7.870  0.0374 -0.7426 -0.7413
  989MOL0     C33446   4.556   6.702   7.755 -0.2040  0.0661 -0.7731
  989MOL0     C33447   4.439   6.690   7.837  0.2413 -0.1850 -0.2838
  989MOL0     H33448   3.987   6.471   8.007 -0.7059 -0.2732 -0.1196
  989MOL0     H33449   3.786   6.486   8.105  0.0520  0.7543  1.9025
  989MOL0     H33450   3.534   6.883   8.124  0.0594  0.4962  0.7007
  989MOL0     H33451   3.522   6.722   8.045 -0.2545 -0.0197  0.0891
  989MOL0     H33452   3.434   6.648   8.274  0.2356 -0.1487 -0.0492
  989MOL0     H33453   3.477   6.798   8.337  0.8081 -2.3920  1.2809
  989MOL0     H33454   3.294   6.907   8.162 -0.0285 -0.4541 -0.0293
  989MOL0     H33455   3.242   6.741   8.129 -2.0711  0.9726  0.6807
  989MOL0     H33456   3.183   6.705   8.365  0.0202 -0.0779 -0.5968
  989MOL0     H33457   3.215   6.869   8.400  0.8709 -0.2931  0.4980
  989MOL0     H33458   3.049   6.868   8.174  3.8934 -0.0264  0.1392
  989MOL0     H33459   2.971   6.744   8.258 -0.1295  0.7595 -0.1789
  989MOL0     H33460   2.869   6.918   8.364 -0.5439  3.4212 -2.6464
  989MOL0     H33461   2.976   6.857   8.480  1.4916 -0.8966 -0.6192
  989MOL0     H33462   3.136   7.060   8.388  0.0731  0.2706 -0.6253
  989MOL0     H33463   3.001   7.099   8.287  1.0414  0.8638  0.1497
  989MOL0     H33464   3.002   7.246   8.476 -1.4743  0.3636  0.6634
  989MOL0     H33465   3.046   7.121   8.590  0.6636  1.2810 -0.4604
  989MOL0     H33466   2.822   6.943   8.660 -1.1640  0.1992 -1.7352
  989MOL0     H33467   2.616   6.952   8.776 -1.3100 -0.9092  0.3100
  989MOL0     H33468   2.498   7.073   8.775 -0.0495  2.1229 -1.5203
  989MOL0     H33469   2.405   6.843   8.695  0.4033 -0.0121  0.8855
  989MOL0     H33470   2.532   6.839   8.582 -0.4533 -1.9802  2.1007
  989MOL0     H33471   2.311   6.889   8.469 -0.8588  2.4906 -2.1646
  989MOL0     H33472   2.414   7.024   8.449 -1.0025  0.7368 -1.4977
  989MOL0     H33473   2.282   7.129   8.666 -1.1392 -0.3876  1.3736
  989MOL0     H33474   2.184   6.993   8.638  1.3911  0.6068  0.6904
  989MOL0     H33475   2.353   7.283   8.431 -0.7038  1.1191  0.0605
  989MOL0     H33476   2.443   7.603   8.520  0.2458 -1.7797  1.7476
  989MOL0     H33477   2.504   7.455   8.457  2.7852  2.9356 -3.1561
  989MOL0     H33478   2.431   7.572   8.347 -1.8309  0.6511  0.8103
  989MOL0     H33479   2.206   7.972   8.607  0.0096 -1.0035  0.3790
  989MOL0     H33480   2.181   8.199   8.508  0.9402 -0.4294  0.7510
  989MOL0     H33481   2.184   8.310   8.337  0.7349 -3.4544 -1.9842
  989MOL0     H33482   2.096   8.310   8.180  1.2943 -2.7437  0.3436
  989MOL0     H33483   2.068   8.493   8.416  0.7512 -0.5835  0.4656
  989MOL0     H33484   2.158   8.541   8.274 -0.9668  0.2623  1.4422
  989MOL0     H33485   1.864   8.483   8.273  2.5530 -2.0417  1.1983
  989MOL0     H33486   1.944   8.567   8.147 -1.7601  3.7766 -0.4117
  989MOL0     H33487   1.802   8.715   8.259  1.3359 -1.6318 -5.1063
  989MOL0     H33488   1.879   8.670   8.420  1.8433  0.5861  0.9460
  989MOL0     H33489   2.017   8.820   8.190  2.3358 -0.8068  0.0992
  989MOL0     H33490   2.093   8.772   8.339  0.1840  2.3512  1.9695
  989MOL0     H33491   2.030   9.007   8.315 -0.5497  0.2010  1.3805
  989MOL0     H33492   1.864   8.960   8.330 -0.7728 -2.4250 -1.1122
  989MOL0     H33493   2.103   8.934   8.516 -0.0256 -2.3998 -0.8060
  989MOL0     H33494   1.953   8.840   8.554 -0.1147 -0.4718 -0.2637
  989MOL0     H33495   1.835   9.037   8.585 -0.8949  2.7142 -2.2312
  989MOL0     H33496   1.958   9.138   8.517  0.5297 -1.1212 -1.3123
  989MOL0     H33497   1.844   8.059   8.291  0.3334 -0.6793 -0.6873
  989MOL0     H33498   1.878   7.824   8.386  1.5284 -0.9675 -0.8295
  989MOL0     H33499   1.962   7.528   8.568  0.6372 -0.3300  2.2710
  989MOL0     H33500   1.953   7.282   8.562  1.6087 -4.5398 -2.2115
  989MOL0     H33501   3.822   6.927   8.124 -2.3895  1.3126 -1.3823
  989MOL0     H33502   4.049   6.895   8.035 -0.2667  0.6083 -0.8918
  989MOL0     H33503   4.305   6.427   7.663 -1.9290  0.2914  1.1624
  989MOL0     H33504   4.510   6.461   7.533  1.6634 -0.2556  1.5702
  989MOL0     H33505   4.773   6.752   7.427  0.0617  1.0136 -0.3620
  989MOL0     H33506   4.686   6.841   7.553  1.3150  0.1632  3.7111
  989MOL0     H33507   4.915   6.642   7.620  0.8982 -0.0956  0.5477
  989MOL0     H33508   4.855   6.767   7.725  2.0316 -1.4806  0.1556
  989MOL0     H33509   4.958   6.930   7.604 -1.0213 -0.5166 -0.4590
  989MOL0     H33510   4.979   6.833   7.457  2.1669 -1.0169 -0.6350
  989MOL0     H33511   5.196   6.859   7.550 -0.4831  1.0514  0.5922
  989MOL0     H33512   5.134   6.692   7.583  0.3506 -0.8777  3.7227
  989MOL0     H33513   5.176   6.841   7.973 -0.2184 -3.0135 -0.1798
  989MOL0     H33514   4.613   6.786   7.793 -1.3939 -0.5109  2.6063
  989MOL0     H33515   4.423   6.773   7.905  1.2911 -0.3519  0.1936
  990MOL0     O33516   6.037   2.242   0.653 -0.0759 -0.0058 -0.6912
  990MOL0     C33517   6.071   2.154   0.579 -0.2433  0.2094 -0.5414
  990MOL0     O33518   6.005   2.104   0.467  0.1634 -0.3218 -0.6715
  990MOL0     C33519   5.885   2.159   0.428  0.5041 -0.3618  0.0436
  990MOL0     C33520   5.839   2.283   0.465  0.2050  0.1592 -0.5555
  990MOL0     C33521   5.710   2.325   0.421 -0.1398  0.5371  0.9117
  990MOL0     C33522   5.632   2.238   0.340 -0.3948  0.1215 -0.7671
  990MOL0     O33523   5.507   2.276   0.310  0.0390  0.3845  0.5187
  990MOL0     C33524   5.459   2.257   0.177  0.3731 -0.1963  0.4768
  990MOL0     C33525   5.356   2.364   0.140  0.1148  0.2546  0.2770
  990MOL0     C33526   5.312   2.345  -0.019  0.1923  0.0321 -0.9811
  990MOL0     C33527   5.418   2.372  -0.122  0.2381  0.4208  0.2672
  990MOL0     C33528   5.352   2.364  -0.269  0.5354 -0.2617  0.5124
  990MOL0     C33529   5.456   2.399  -0.373 -0.1290 -0.0483 -0.3712
  990MOL0     C33530   5.399   2.405  -0.517 -0.2712  0.4456  0.1751
  990MOL0     C33531   5.503   2.430  -0.634 -0.0527  0.6150  0.1757
  990MOL0     N33532   5.616   2.514  -0.594  0.7755  0.4773  0.6164
  990MOL0     C33533   5.608   2.653  -0.588 -0.4926 -0.5304 -1.0106
  990MOL0     C33534   5.731   2.689  -0.542  0.2055  1.2333  0.6617
  990MOL0     C33535   5.773   2.825  -0.500 -0.4192 -0.9515  0.5063
  990MOL0     C33536   5.770   2.926  -0.618  0.2518 -0.2428 -0.2248
  990MOL0     C33537   5.902   2.930  -0.695  0.0230  0.1669 -0.1116
  990MOL0     C33538   5.878   2.972  -0.844  0.5851 -0.7643 -0.4591
  990MOL0     O33539   5.822   2.859  -0.922 -0.4194  0.0909  0.4974
  990MOL0     C33540   5.916   2.779  -0.977  0.1005 -0.0948  0.7811
  990MOL0     C33541   6.007   2.823  -1.078  0.3219 -0.1620 -0.2536
  990MOL0     C33542   6.101   2.733  -1.136 -1.0265  0.3510 -0.1553
  990MOL0     C33543   6.181   2.803  -1.239  0.0112 -0.3035  0.6315
  990MOL0     C33544   6.120   2.595  -1.091 -0.8272  0.0352  0.2429
  990MOL0     C33545   6.234   2.509  -1.133  0.4553  1.0575 -0.2296
  990MOL0     O33546   6.306   2.552  -1.238 -0.5366 -0.4577 -0.3583
  990MOL0     C33547   6.415   2.478  -1.270 -0.8059 -0.7232  0.8810
  990MOL0     C33548   6.539   2.538  -1.250 -0.2511 -0.1198 -0.1992
  990MOL0     C33549   6.649   2.465  -1.288 -0.0569  0.2110 -0.4812
  990MOL0     C33550   6.646   2.336  -1.341  0.5481  0.1628  0.8541
  990MOL0     O33551   6.761   2.258  -1.363 -0.7754 -0.2003 -0.1563
  990MOL0     C33552   6.888   2.331  -1.372  0.2402 -0.5235 -0.0722
  990MOL0     C33553   7.007   2.232  -1.399 -0.6753  0.3525  0.1070
  990MOL0     C33554   7.130   2.315  -1.412 -0.2054 -0.4918 -0.1581
  990MOL0     C33555   7.257   2.240  -1.457 -0.5190 -0.1013 -0.9974
  990MOL0     C33556   7.339   2.173  -1.345 -0.2412  0.5800  0.2060
  990MOL0     C33557   7.458   2.111  -1.403 -0.1067 -0.3787 -0.6225
  990MOL0     C33558   7.528   2.019  -1.301  0.5765 -0.8110 -0.6735
  990MOL0     C33559   7.672   1.997  -1.328 -0.8038 -0.3383 -0.4301
  990MOL0    Cl33560   7.722   1.846  -1.249 -0.0439 -0.1413 -0.2541
  990MOL0     C33561   6.519   2.279  -1.360 -0.7844  0.0015  0.1955
  990MOL0     C33562   6.407   2.347  -1.318 -0.6167 -0.5511  0.2927
  990MOL0     O33563   6.238   2.399  -1.079 -0.3439 -0.3914 -0.6514
  990MOL0     C33564   6.025   2.563  -0.993 -0.6685 -0.8162  0.8449
  990MOL0     C33565   5.928   2.649  -0.931  0.5375  0.4992  0.4955
  990MOL0     N33566   5.808   2.573  -0.515 -0.3513 -0.3422  0.2555
  990MOL0     N33567   5.733   2.467  -0.540  0.3262 -0.0642  0.4058
  990MOL0     C33568   5.684   2.116   0.299 -0.0303  0.1221  0.7089
  990MOL0     C33569   5.808   2.079   0.343  0.4249 -0.1968 -0.1685
  990MOL0     C33570   6.190   2.077   0.626 -0.5837  0.3067 -0.0643
  990MOL0     C33571   6.196   1.939   0.608 -0.4079  0.4085  0.2412
  990MOL0     C33572   6.310   1.869   0.657  0.2729  0.4157  0.2290
  990MOL0     C33573   6.411   1.939   0.723 -0.2915  0.0660 -0.9122
  990MOL0     O33574   6.526   1.869   0.736  0.6251  0.0028  0.3921
  990MOL0     C33575   6.643   1.936   0.712 -0.6108 -0.3877 -0.4529
  990MOL0     C33576   6.726   1.837   0.631 -0.8587  0.8958  0.2617
  990MOL0     C33577   6.658   1.804   0.489  0.1364  0.7451 -0.0869
  990MOL0     C33578   6.758   1.836   0.373 -0.6466  0.1574  0.2435
  990MOL0     C33579   6.879   1.751   0.389 -1.1105 -0.4311 -0.8737
  990MOL0     C33580   6.989   1.703   0.408 -0.8195 -0.7709 -0.3749
  990MOL0     C33581   6.408   2.076   0.751 -0.1721 -0.1842 -0.0246
  990MOL0     C33582   6.294   2.144   0.696  0.3384 -0.1495  0.8310
  990MOL0     H33583   5.896   2.357   0.521 -2.8782  3.0405 -0.9194
  990MOL0     H33584   5.671   2.425   0.438  1.8993  1.1901  1.9926
  990MOL0     H33585   5.549   2.265   0.116 -1.3249  1.7091 -1.9512
  990MOL0     H33586   5.413   2.158   0.173 -1.5631  0.4290  3.5403
  990MOL0     H33587   5.269   2.358   0.206 -0.1335 -0.3052 -0.0931
  990MOL0     H33588   5.385   2.469   0.145 -1.5019  1.0825 -3.5381
  990MOL0     H33589   5.270   2.244  -0.030  1.8259 -0.8096  0.0816
  990MOL0     H33590   5.230   2.415  -0.036 -0.5201 -0.7805 -0.9497
  990MOL0     H33591   5.461   2.473  -0.114  2.9145 -0.5669 -0.4808
  990MOL0     H33592   5.505   2.306  -0.117 -0.4302 -0.4933  0.0365
  990MOL0     H33593   5.307   2.269  -0.299  1.4977  0.1414 -2.5878
  990MOL0     H33594   5.270   2.433  -0.289  0.6674  0.3879  2.0775
  990MOL0     H33595   5.495   2.499  -0.354  1.5366 -0.5905 -0.7907
  990MOL0     H33596   5.535   2.327  -0.354  0.1039  0.4776  0.7556
  990MOL0     H33597   5.336   2.317  -0.534 -0.1689  0.1091  1.3965
  990MOL0     H33598   5.328   2.488  -0.522  1.5474  2.0148 -0.6949
  990MOL0     H33599   5.450   2.488  -0.710  2.7991  0.5567 -2.0166
  990MOL0     H33600   5.543   2.344  -0.688 -0.3051  0.3313  0.4380
  990MOL0     H33601   5.529   2.718  -0.625 -0.6297 -0.5782 -0.8047
  990MOL0     H33602   5.712   2.868  -0.420  1.1133 -1.3654  1.9532
  990MOL0     H33603   5.874   2.821  -0.459 -0.1910 -0.2433  0.0312
  990MOL0     H33604   5.750   3.027  -0.579  0.8933 -0.4835  0.7650
  990MOL0     H33605   5.686   2.901  -0.684  0.4833 -1.4182 -0.0966
  990MOL0     H33606   5.946   2.830  -0.698  0.6159  0.3798  0.9241
  990MOL0     H33607   5.975   2.996  -0.646  0.6086 -0.5235 -0.0269
  990MOL0     H33608   5.961   3.022  -0.895  0.8513  0.6448  1.2648
  990MOL0     H33609   5.798   3.046  -0.846 -0.0045 -1.3381  0.7684
  990MOL0     H33610   5.970   2.913  -1.126 -0.2974 -0.6978 -0.8057
  990MOL0     H33611   6.165   2.910  -1.229 -1.1768 -0.4774  0.7617
  990MOL0     H33612   6.289   2.786  -1.233  0.2280  0.8637  0.1082
  990MOL0     H33613   6.155   2.764  -1.338  1.4098 -0.4888  0.3057
  990MOL0     H33614   6.547   2.636  -1.204  0.1301 -0.5239  0.6260
  990MOL0     H33615   6.741   2.517  -1.265 -1.4841  1.2390  3.7005
  990MOL0     H33616   6.885   2.406  -1.451 -0.6223  1.1766  1.4921
  990MOL0     H33617   6.902   2.386  -1.278 -0.3137  0.4506 -0.5437
  990MOL0     H33618   7.010   2.160  -1.317 -1.7396 -0.0947 -0.2283
  990MOL0     H33619   6.983   2.165  -1.482  1.1134  0.1514 -0.2796
  990MOL0     H33620   7.156   2.370  -1.321  2.0800 -2.6413  0.6160
  990MOL0     H33621   7.118   2.384  -1.496 -1.0963 -0.8989 -0.3739
  990MOL0     H33622   7.225   2.164  -1.528  2.8162 -1.8408 -0.8226
  990MOL0     H33623   7.329   2.300  -1.513 -2.0037  1.6778 -1.0954
  990MOL0     H33624   7.275   2.099  -1.296 -1.3193 -0.2271 -2.2395
  990MOL0     H33625   7.378   2.243  -1.271 -0.3481 -1.6931  2.5635
  990MOL0     H33626   7.434   2.046  -1.488  0.7733 -0.3685 -0.8902
  990MOL0     H33627   7.519   2.197  -1.431 -0.9873  0.7189  0.6909
  990MOL0     H33628   7.478   1.922  -1.296 -1.2804  0.1589  2.4069
  990MOL0     H33629   7.508   2.059  -1.201  0.5928  0.3991 -1.1361
  990MOL0     H33630   7.723   2.086  -1.289  0.1045 -0.3336 -1.6053
  990MOL0     H33631   7.689   1.983  -1.435 -0.2217 -0.3071 -0.3411
  990MOL0     H33632   6.498   2.179  -1.396 -0.9464  0.6393 -1.6105
  990MOL0     H33633   6.312   2.294  -1.325 -0.9254  0.1309 -0.8635
  990MOL0     H33634   6.029   2.459  -0.961  1.4615 -0.7686  0.8696
  990MOL0     H33635   5.864   2.595  -0.861 -0.5784  1.8691  0.5783
  990MOL0     H33636   5.622   2.038   0.257  0.0408  0.6614 -0.4436
  990MOL0     H33637   5.841   1.976   0.326 -2.0116 -1.5436  2.4654
  990MOL0     H33638   6.112   1.899   0.552 -0.1845 -1.7903  1.3467
  990MOL0     H33639   6.323   1.763   0.635 -1.1533  0.4622 -1.0108
  990MOL0     H33640   6.639   2.033   0.662  2.1161  0.8688  1.4677
  990MOL0     H33641   6.706   1.953   0.800  2.0140  1.6154 -2.5158
  990MOL0     H33642   6.735   1.746   0.691 -1.5279  0.0959 -0.8149
  990MOL0     H33643   6.824   1.882   0.609 -1.0834 -0.1298 -3.4605
  990MOL0     H33644   6.576   1.876   0.475  0.8068  1.2848 -1.3377
  990MOL0     H33645   6.620   1.701   0.486  0.4580  0.6546 -2.1645
  990MOL0     H33646   6.786   1.942   0.372 -1.4303  0.3839  0.9581
  990MOL0     H33647   6.709   1.803   0.281 -0.8715 -1.2864  0.8594
  990MOL0     H33648   7.092   1.676   0.422 -0.8356 -1.3021 -1.2326
  990MOL0     H33649   6.488   2.134   0.795 -2.9188  1.5681  3.1370
  990MOL0     H33650   6.290   2.252   0.706  0.3309  0.2249 -2.2433
  991MOL0     O33651   5.001  11.036   9.024  0.0515  0.2636  0.3070
  991MOL0     C33652   4.975  11.154   9.053 -0.2594  1.7599  0.3276
  991MOL0     O33653   5.015  11.255   8.968  0.1347  0.6770 -0.5628
  991MOL0     C33654   5.084  11.228   8.857  0.4265 -0.3342 -0.5277
  991MOL0     C33655   5.211  11.185   8.850 -1.0223  0.2920  0.3859
  991MOL0     C33656   5.267  11.162   8.718 -0.0224  0.5736 -0.1715
  991MOL0     C33657   5.189  11.179   8.598 -0.3069  0.4737  0.3469
  991MOL0     O33658   5.259  11.159   8.488  0.0287  0.0200  0.7576
  991MOL0     C33659   5.200  11.154   8.356 -0.2751 -0.4792  0.5815
  991MOL0     C33660   5.283  11.084   8.253 -0.0727  0.7028 -0.5643
  991MOL0     C33661   5.228  11.104   8.110 -0.0140 -0.1011  0.5399
  991MOL0     C33662   5.254  11.237   8.049  0.1574 -0.6238 -0.0874
  991MOL0     C33663   5.231  11.223   7.901 -0.5439  0.1604  0.8142
  991MOL0     C33664   5.224  11.354   7.825 -0.0983 -0.1702 -0.3659
  991MOL0     C33665   5.337  11.458   7.847  0.3768 -0.0700  0.6252
  991MOL0     C33666   5.348  11.566   7.735  0.3359  0.1227 -0.4350
  991MOL0     N33667   5.242  11.664   7.720 -0.1876  0.0553  0.4255
  991MOL0     C33668   5.215  11.758   7.812  0.6216  0.4403  0.1578
  991MOL0     C33669   5.126  11.833   7.748  0.8041 -0.1987 -0.6857
  991MOL0     C33670   5.051  11.952   7.799  1.0212 -0.2400 -0.5081
  991MOL0     C33671   4.956  11.919   7.921 -0.4509  0.0733  0.6953
  991MOL0     C33672   4.911  12.046   7.986 -0.5350 -0.2829  1.1153
  991MOL0     C33673   4.827  12.139   7.897 -0.2425 -0.4642  0.3014
  991MOL0     O33674   4.703  12.083   7.852  0.1706 -0.2474 -0.3790
  991MOL0     C33675   4.614  12.157   7.781 -0.1580  0.5996 -0.1585
  991MOL0     C33676   4.509  12.075   7.727  0.0863  0.1196  0.3301
  991MOL0     C33677   4.408  12.135   7.645 -0.5917 -0.1553  0.5638
  991MOL0     C33678   4.297  12.050   7.605  0.2941  1.2442  0.5651
  991MOL0     C33679   4.429  12.271   7.608 -0.3467 -0.4395 -0.2595
  991MOL0     C33680   4.339  12.329   7.519  0.2692 -0.5385 -0.0366
  991MOL0     O33681   4.340  12.296   7.392 -0.1194 -0.2610  0.5189
  991MOL0     C33682   4.266  12.340   7.288  0.2189  0.1074 -0.5737
  991MOL0     C33683   4.321  12.322   7.166 -0.3969 -0.6639 -1.0904
  991MOL0     C33684   4.252  12.363   7.051  0.0712  0.4907  0.0608
  991MOL0     C33685   4.115  12.408   7.057 -1.2990  0.5402  0.1747
  991MOL0     O33686   4.043  12.454   6.951  0.8520 -0.2843 -0.0560
  991MOL0     C33687   4.113  12.513   6.841 -0.4977 -0.7271  0.3366
  991MOL0     C33688   4.010  12.584   6.755  0.0236 -0.6565  0.0924
  991MOL0     C33689   4.067  12.620   6.616  0.2635 -0.2613  0.2996
  991MOL0     C33690   4.093  12.768   6.612  0.2010  0.1977 -0.3288
  991MOL0     C33691   4.142  12.818   6.479  0.3075 -1.6162 -0.5090
  991MOL0     C33692   4.288  12.774   6.454 -0.4438 -1.2988  0.3331
  991MOL0     C33693   4.345  12.812   6.314  0.0212 -0.2443  0.1594
  991MOL0     C33694   4.257  12.749   6.203 -0.3750 -0.2300 -1.9101
  991MOL0    Cl33695   4.275  12.573   6.202 -0.4999 -0.0812  0.3209
  991MOL0     C33696   4.056  12.419   7.184 -0.3876  0.7020 -0.0364
  991MOL0     C33697   4.129  12.378   7.293  0.7163 -0.3860 -0.4271
  991MOL0     O33698   4.258  12.399   7.574 -0.4207  0.4503 -0.0282
  991MOL0     C33699   4.533  12.350   7.662  0.8067 -0.2229  0.2270
  991MOL0     C33700   4.632  12.292   7.735 -0.2842 -0.8877 -0.1389
  991MOL0     N33701   5.106  11.784   7.615 -0.1225  0.2162 -0.1822
  991MOL0     N33702   5.176  11.679   7.597 -0.1343 -1.3086 -0.7645
  991MOL0     C33703   5.058  11.222   8.615 -0.2406  0.6952  0.6363
  991MOL0     C33704   5.006  11.242   8.743  0.9060  0.1403 -0.1593
  991MOL0     C33705   4.899  11.177   9.176 -0.3739 -0.0447  0.0887
  991MOL0     C33706   4.877  11.079   9.277 -0.1757 -0.4806  0.5854
  991MOL0     C33707   4.799  11.121   9.390 -0.9818  1.0571  0.6663
  991MOL0     C33708   4.762  11.256   9.408 -1.0732  0.5017 -0.4559
  991MOL0     O33709   4.695  11.304   9.524  0.0992 -0.4389  0.5869
  991MOL0     C33710   4.709  11.219   9.647 -0.1175 -1.0406  0.2647
  991MOL0     C33711   4.859  11.208   9.699  0.8806  0.2170  0.1438
  991MOL0     C33712   4.873  11.178   9.852  0.0891  0.4481  0.2800
  991MOL0     C33713   5.017  11.170   9.910 -0.0594  0.1235 -0.1600
  991MOL0     C33714   5.115  11.118   9.810  0.3906 -0.3583  0.2435
  991MOL0     C33715   5.198  11.074   9.741 -0.1927  0.7245 -0.0917
  991MOL0     C33716   4.773  11.343   9.307  0.7002 -0.5783 -0.1050
  991MOL0     C33717   4.830  11.299   9.190  0.8119  0.0390  0.5582
  991MOL0     H33718   5.272  11.172   8.939  0.1504 -3.8021 -0.8444
  991MOL0     H33719   5.373  11.141   8.709  0.4525  2.2514  0.9002
  991MOL0     H33720   5.108  11.098   8.376  0.4423 -2.2291 -0.7372
  991MOL0     H33721   5.182  11.253   8.314  3.7589 -0.6738 -2.2011
  991MOL0     H33722   5.378  11.139   8.261 -1.1165  2.2317  4.2083
  991MOL0     H33723   5.289  10.978   8.277  0.4963  1.3941  2.7902
  991MOL0     H33724   5.273  11.025   8.049 -0.5711 -1.4847  1.8710
  991MOL0     H33725   5.122  11.083   8.097  0.1398  0.5347 -2.4994
  991MOL0     H33726   5.177  11.308   8.082  2.2608 -0.0281  4.2546
  991MOL0     H33727   5.351  11.280   8.078 -1.1513  0.6838  2.7059
  991MOL0     H33728   5.317  11.163   7.870 -0.9644 -1.6391  2.8979
  991MOL0     H33729   5.139  11.170   7.875  0.8337 -1.8893 -0.2388
  991MOL0     H33730   5.229  11.325   7.719  0.6228 -1.5769  0.0376
  991MOL0     H33731   5.133  11.414   7.835  2.8142  4.7102  0.3275
  991MOL0     H33732   5.318  11.508   7.942  2.2701  0.4553  0.7624
  991MOL0     H33733   5.427  11.397   7.857 -0.8854 -1.8137  1.9704
  991MOL0     H33734   5.356  11.511   7.641  0.3360  0.3101 -0.5465
  991MOL0     H33735   5.446  11.614   7.746  0.4048  0.0682 -0.8038
  991MOL0     H33736   5.255  11.782   7.911  0.4589  1.8958 -0.1102
  991MOL0     H33737   5.117  12.036   7.825  0.5838  0.2322 -0.8934
  991MOL0     H33738   4.981  11.996   7.727  0.7979  1.7685  0.8375
  991MOL0     H33739   5.008  11.852   7.990  0.0971 -1.8065 -1.3931
  991MOL0     H33740   4.872  11.860   7.883  0.8810 -0.4666 -1.5947
  991MOL0     H33741   4.997  12.104   8.020  0.7302 -1.2862 -0.2746
  991MOL0     H33742   4.855  12.010   8.073 -0.8671 -0.6810  0.7448
  991MOL0     H33743   4.890  12.176   7.816 -0.4478 -2.6590 -0.9645
  991MOL0     H33744   4.810  12.224   7.963 -0.6735  2.1482 -2.9524
  991MOL0     H33745   4.511  11.969   7.750  0.7875 -0.0265 -0.3547
  991MOL0     H33746   4.333  11.958   7.557 -1.3578  0.4860  0.7148
  991MOL0     H33747   4.243  12.007   7.689  0.4116 -2.4189 -1.0562
  991MOL0     H33748   4.229  12.104   7.539  0.0638 -0.7533 -0.9295
  991MOL0     H33749   4.422  12.283   7.158 -0.5804 -2.2324  2.5097
  991MOL0     H33750   4.304  12.347   6.957 -0.4963 -0.8947 -0.0507
  991MOL0     H33751   4.186  12.594   6.850 -2.6618  1.6619 -1.9260
  991MOL0     H33752   4.157  12.427   6.792  0.8918 -0.4864  1.1268
  991MOL0     H33753   3.927  12.514   6.740  0.6082 -1.4357  0.4239
  991MOL0     H33754   3.965  12.674   6.799  1.3170 -0.5761  1.3220
  991MOL0     H33755   3.995  12.601   6.536  0.0167 -2.5144  0.9923
  991MOL0     H33756   4.151  12.555   6.590  2.2724  1.8891  0.9804
  991MOL0     H33757   3.992  12.806   6.627  0.6000  0.9231  0.6409
  991MOL0     H33758   4.166  12.802   6.686  2.4466 -1.2622 -1.7396
  991MOL0     H33759   4.135  12.927   6.479  0.5571 -1.5906  0.2049
  991MOL0     H33760   4.065  12.800   6.404  0.3096 -0.6192 -0.7583
  991MOL0     H33761   4.358  12.823   6.522 -0.3683 -1.6278  0.4957
  991MOL0     H33762   4.308  12.669   6.479  3.7932 -1.0442 -1.2047
  991MOL0     H33763   4.452  12.793   6.307  0.6953  2.6567  1.0217
  991MOL0     H33764   4.344  12.920   6.296 -2.2990 -0.0871  0.8451
  991MOL0     H33765   4.296  12.796   6.112  0.2433  1.1718 -0.9616
  991MOL0     H33766   4.150  12.760   6.220 -0.3204 -3.3438  1.8422
  991MOL0     H33767   3.954  12.455   7.185 -0.0931  1.9192 -2.8479
  991MOL0     H33768   4.070  12.376   7.384 -1.2375 -1.0746 -1.6439
  991MOL0     H33769   4.541  12.452   7.624 -0.8289 -0.4718 -0.9132
  991MOL0     H33770   4.725  12.344   7.754 -1.0371  0.1031  1.0433
  991MOL0     H33771   4.995  11.256   8.533 -1.7349 -1.1268  0.9623
  991MOL0     H33772   4.906  11.282   8.760  1.1551  1.5921 -1.8309
  991MOL0     H33773   4.918  10.979   9.265 -1.7773 -0.8200 -3.4914
  991MOL0     H33774   4.773  11.035   9.450  0.5496  1.2535  1.6579
  991MOL0     H33775   4.644  11.265   9.721  0.5178  4.1572 -1.9160
  991MOL0     H33776   4.681  11.117   9.618  0.0703 -0.1861 -3.5459
  991MOL0     H33777   4.904  11.307   9.690 -1.0971  1.2862  1.3136
  991MOL0     H33778   4.912  11.137   9.635 -2.3599 -2.1520 -0.1576
  991MOL0     H33779   4.812  11.088   9.865  0.5876 -0.4036 -2.5377
  991MOL0     H33780   4.821  11.249   9.918 -1.0596 -0.7841  0.7629
  991MOL0     H33781   5.012  11.098   9.993 -0.0453 -0.3990 -0.6111
  991MOL0     H33782   5.051  11.269   9.940 -1.7763  1.4382 -2.2693
  991MOL0     H33783   5.286  11.033   9.696  0.6612  0.2200  1.8992
  991MOL0     H33784   4.729  11.441   9.322 -1.3440 -1.5294  0.3804
  991MOL0     H33785   4.827  11.373   9.111  1.2215  0.2910  0.7769
  992MOL0     O33786   8.521   5.694   8.965 -0.9736  0.2966  0.3240
  992MOL0     C33787   8.589   5.604   9.012 -0.1632  0.4262 -0.8723
  992MOL0     O33788   8.543   5.515   9.107  0.5998 -0.0921  0.4127
  992MOL0     C33789   8.407   5.505   9.142  0.9216  0.3552  0.0302
  992MOL0     C33790   8.294   5.534   9.049 -0.5928  0.6029 -0.0849
  992MOL0     C33791   8.170   5.500   9.087 -0.2080 -0.6182 -0.4499
  992MOL0     C33792   8.150   5.432   9.214  1.2297  0.5006  0.1715
  992MOL0     O33793   8.023   5.398   9.251  0.4237  0.3649 -0.3646
  992MOL0     C33794   7.954   5.511   9.308 -0.0498 -0.2676  0.7174
  992MOL0     C33795   7.809   5.493   9.280 -1.0194 -0.4708  0.3706
  992MOL0     C33796   7.772   5.464   9.132 -0.3038  0.7682  0.1542
  992MOL0     C33797   7.621   5.452   9.120 -0.3218 -0.0443 -1.3112
  992MOL0     C33798   7.575   5.440   8.977 -0.5700  0.0761 -0.0675
  992MOL0     C33799   7.616   5.308   8.895  0.0790 -0.0689  0.0397
  992MOL0     C33800   7.626   5.321   8.741 -0.0358  0.1864 -0.0501
  992MOL0     C33801   7.517   5.410   8.672  0.1610 -0.8276  0.9006
  992MOL0     N33802   7.536   5.384   8.527 -0.4439 -0.3722  0.6194
  992MOL0     C33803   7.643   5.420   8.447 -0.1642  0.2909  0.7992
  992MOL0     C33804   7.612   5.383   8.319  1.3497 -0.8034  0.3877
  992MOL0     C33805   7.684   5.411   8.186 -0.0149  0.8273  0.1431
  992MOL0     C33806   7.669   5.563   8.150  0.1949  0.2268  0.7984
  992MOL0     C33807   7.730   5.585   8.013 -0.0556 -0.1623 -0.4407
  992MOL0     C33808   7.666   5.704   7.943 -0.3832  0.2125 -0.0259
  992MOL0     O33809   7.528   5.657   7.927 -0.1712 -0.1933 -0.6541
  992MOL0     C33810   7.439   5.745   7.866  0.4910  0.9701 -0.0770
  992MOL0     C33811   7.320   5.695   7.825 -0.2252  0.4022 -0.6116
  992MOL0     C33812   7.242   5.759   7.739 -0.9837 -0.9765 -0.7982
  992MOL0     C33813   7.118   5.696   7.685 -1.1165 -0.5789  0.1554
  992MOL0     C33814   7.284   5.891   7.694  0.0093 -0.0640  0.4510
  992MOL0     C33815   7.199   5.971   7.594  0.0102  0.2283 -1.0727
  992MOL0     O33816   7.066   5.977   7.621  0.1368 -0.6413 -0.6169
  992MOL0     C33817   6.997   6.057   7.539 -0.0433 -0.2630  0.5553
  992MOL0     C33818   7.019   6.197   7.535  0.2953 -0.0597 -0.2738
  992MOL0     C33819   6.951   6.277   7.440 -1.0482  0.0137 -0.7591
  992MOL0     C33820   6.853   6.229   7.352  0.2074  0.2884 -0.6211
  992MOL0     O33821   6.775   6.307   7.271  0.2446  0.5228 -0.2539
  992MOL0     C33822   6.637   6.276   7.280 -0.3537  1.0658 -0.5571
  992MOL0     C33823   6.563   6.401   7.272  0.2517  0.1021  1.0375
  992MOL0     C33824   6.433   6.401   7.349  0.2799  0.4225  0.1344
  992MOL0     C33825   6.376   6.549   7.348 -0.1632  0.0197  0.0898
  992MOL0     C33826   6.278   6.571   7.467  1.1689  0.9300 -0.5363
  992MOL0     C33827   6.156   6.476   7.457  0.4644  0.7982  0.6435
  992MOL0     C33828   6.058   6.513   7.353  0.0322  0.2387  0.6283
  992MOL0     C33829   5.928   6.437   7.376  0.2725  0.4844 -0.1398
  992MOL0    Cl33830   5.929   6.260   7.338 -0.2133  0.1327 -0.0123
  992MOL0     C33831   6.830   6.090   7.357  0.3860  0.4267  0.4560
  992MOL0     C33832   6.905   6.005   7.442  0.6895 -0.0217  0.7356
  992MOL0     O33833   7.263   6.029   7.504 -0.4092 -0.3477 -0.7005
  992MOL0     C33834   7.406   5.945   7.741  0.2420 -0.8255  0.8585
  992MOL0     C33835   7.480   5.869   7.825  0.4753  0.1418 -1.0816
  992MOL0     N33836   7.486   5.328   8.312 -1.1875 -0.3791 -0.2358
  992MOL0     N33837   7.458   5.313   8.442 -0.6214 -0.1162 -0.8081
  992MOL0     C33838   8.253   5.407   9.296  0.0590  0.0295 -0.6090
  992MOL0     C33839   8.384   5.442   9.265  0.1985  0.2632  0.6840
  992MOL0     C33840   8.740   5.587   8.986  0.8844 -0.1599  1.5087
  992MOL0     C33841   8.805   5.460   9.013  0.3701 -0.6068 -0.4873
  992MOL0     C33842   8.944   5.451   8.983 -0.3042 -0.4400 -1.0026
  992MOL0     C33843   9.017   5.555   8.912  0.1763 -0.7067  0.4012
  992MOL0     O33844   9.153   5.541   8.885  0.8971 -0.1687 -0.2652
  992MOL0     C33845   9.192   5.479   8.763 -0.1931  0.1878 -0.1832
  992MOL0     C33846   9.346   5.482   8.744  0.8051  0.9218  0.2222
  992MOL0     C33847   9.389   5.379   8.633  0.8214  0.4835 -0.2667
  992MOL0     C33848   9.527   5.399   8.583  0.0872 -0.3330  0.1725
  992MOL0     C33849   9.561   5.309   8.471  0.1176  0.4198 -0.5543
  992MOL0     C33850   9.586   5.235   8.375  0.0929  0.0430  0.1322
  992MOL0     C33851   8.950   5.675   8.889  0.2746 -0.0095  0.1927
  992MOL0     C33852   8.817   5.696   8.927  0.7374  0.3297 -0.2102
  992MOL0     H33853   8.313   5.577   8.951 -0.1292  1.1069  0.2228
  992MOL0     H33854   8.086   5.522   9.021 -0.6201  1.6940  0.7123
  992MOL0     H33855   7.981   5.505   9.414 -1.1200 -0.2738  1.0006
  992MOL0     H33856   7.987   5.597   9.249  0.1505 -1.7174 -1.3767
  992MOL0     H33857   7.776   5.415   9.348 -1.9899 -0.1548  0.2676
  992MOL0     H33858   7.755   5.580   9.317 -0.8504 -0.7838  1.3927
  992MOL0     H33859   7.811   5.548   9.074  4.3576 -1.6789 -0.7397
  992MOL0     H33860   7.819   5.371   9.100  2.5353  2.3703 -0.7094
  992MOL0     H33861   7.587   5.365   9.177  0.2668  0.5131 -0.0478
  992MOL0     H33862   7.569   5.538   9.162 -0.6976 -0.7092 -0.3690
  992MOL0     H33863   7.467   5.459   8.968 -1.1550 -1.6998  2.2508
  992MOL0     H33864   7.627   5.520   8.923  0.3302 -0.3447  0.1634
  992MOL0     H33865   7.710   5.263   8.928 -0.8808  0.9519  4.8009
  992MOL0     H33866   7.540   5.229   8.900  0.7990 -0.7439  0.6728
  992MOL0     H33867   7.721   5.366   8.710  0.2329 -0.5376 -0.2866
  992MOL0     H33868   7.625   5.224   8.691  1.5764  0.6204 -0.9889
  992MOL0     H33869   7.540   5.517   8.681 -0.1161 -0.8148  1.4546
  992MOL0     H33870   7.415   5.383   8.700 -0.2905  0.7475  0.8740
  992MOL0     H33871   7.740   5.456   8.481  0.7163  0.9250 -2.1011
  992MOL0     H33872   7.786   5.382   8.212 -0.4927 -0.7424  0.3299
  992MOL0     H33873   7.656   5.354   8.097 -0.3240 -0.4275  1.0170
  992MOL0     H33874   7.733   5.615   8.223  2.0658  0.0065 -0.6029
  992MOL0     H33875   7.561   5.574   8.161 -0.4466 -2.4289 -1.8283
  992MOL0     H33876   7.744   5.496   7.952  1.1048 -0.9199  0.8500
  992MOL0     H33877   7.830   5.630   8.027 -0.9088  1.6908  0.1091
  992MOL0     H33878   7.710   5.718   7.844  1.1592  0.3713  0.6582
  992MOL0     H33879   7.669   5.794   8.006 -3.9197 -1.3325  2.7550
  992MOL0     H33880   7.289   5.596   7.857 -0.8846  0.8797  0.2576
  992MOL0     H33881   7.118   5.696   7.575 -0.4463 -0.7427  0.1514
  992MOL0     H33882   7.113   5.593   7.722 -0.2908 -0.5587  0.3412
  992MOL0     H33883   7.030   5.750   7.722 -2.2335 -1.8475 -0.5415
  992MOL0     H33884   7.098   6.236   7.598 -0.1174  1.0040 -0.3939
  992MOL0     H33885   6.966   6.384   7.455 -2.0468 -0.1946  2.4643
  992MOL0     H33886   6.604   6.219   7.192 -0.5132  1.9569 -1.0874
  992MOL0     H33887   6.614   6.232   7.378 -1.5402  1.5167 -0.6131
  992MOL0     H33888   6.625   6.488   7.297 -1.3144  2.0802 -1.4898
  992MOL0     H33889   6.549   6.411   7.164  1.2689 -0.9308  0.7948
  992MOL0     H33890   6.458   6.376   7.452  0.4354  0.4686  0.1074
  992MOL0     H33891   6.374   6.322   7.303  1.7453 -1.2402  1.0131
  992MOL0     H33892   6.460   6.613   7.373  0.8275 -1.4262  0.6251
  992MOL0     H33893   6.325   6.577   7.256  0.7707 -1.3752 -0.8990
  992MOL0     H33894   6.251   6.677   7.469  1.0101  0.9072 -1.2957
  992MOL0     H33895   6.331   6.550   7.560  1.1275 -0.6481 -0.8324
  992MOL0     H33896   6.173   6.369   7.442 -1.6576  0.5068 -0.1023
  992MOL0     H33897   6.105   6.484   7.554  2.3675  1.6656  1.6147
  992MOL0     H33898   6.094   6.520   7.250  3.2890  2.9825  1.7780
  992MOL0     H33899   6.027   6.617   7.367 -0.8705 -0.1154  1.4088
  992MOL0     H33900   5.856   6.484   7.309  0.4130  1.6025  0.4542
  992MOL0     H33901   5.899   6.450   7.481  0.4060  2.0231 -0.2731
  992MOL0     H33902   6.767   6.046   7.281  3.0442  0.2125 -1.7641
  992MOL0     H33903   6.879   5.899   7.441  1.1882 -0.1452 -0.1001
  992MOL0     H33904   7.434   6.048   7.717  0.9657 -0.9035  1.3277
  992MOL0     H33905   7.579   5.904   7.850  0.1381 -0.4722  1.3520
  992MOL0     H33906   8.224   5.367   9.393  2.5741 -0.7399 -0.0826
  992MOL0     H33907   8.463   5.437   9.339  0.8477 -1.4516 -0.0742
  992MOL0     H33908   8.764   5.381   9.075  0.6268 -0.5208 -0.2074
  992MOL0     H33909   8.994   5.356   8.998  0.9530  0.1272 -1.4018
  992MOL0     H33910   9.170   5.372   8.767  0.4060  0.0804  3.2546
  992MOL0     H33911   9.146   5.525   8.676 -2.6774 -2.9541 -0.7289
  992MOL0     H33912   9.403   5.447   8.831  1.4939  1.0026 -0.1848
  992MOL0     H33913   9.370   5.583   8.710  2.2589 -0.1527 -2.2011
  992MOL0     H33914   9.317   5.399   8.554  1.8505 -0.8871 -1.6037
  992MOL0     H33915   9.388   5.279   8.677  0.9467  1.0939  1.1883
  992MOL0     H33916   9.583   5.369   8.672  0.2379  2.0167  0.9398
  992MOL0     H33917   9.557   5.503   8.568  4.2669 -1.5489 -1.3111
  992MOL0     H33918   9.613   5.166   8.297 -0.1200  1.3205 -1.1135
  992MOL0     H33919   9.011   5.757   8.853 -0.4062 -0.1013 -1.2601
  992MOL0     H33920   8.761   5.784   8.897 -0.5214 -1.7854 -4.9560
  993MOL0     O33921   2.113   7.550   1.899  0.6661  0.1401 -0.7444
  993MOL0     C33922   2.152   7.544   1.785  0.5032 -0.4074  0.4376
  993MOL0     O33923   2.106   7.458   1.694 -0.0857 -0.3007 -0.0070
  993MOL0     C33924   2.008   7.367   1.724 -0.1729  0.3826 -0.8182
  993MOL0     C33925   2.013   7.280   1.832 -0.2404  0.4400 -0.8969
  993MOL0     C33926   1.903   7.187   1.849  0.1087 -0.3746  0.6146
  993MOL0     C33927   1.790   7.183   1.764 -0.0605 -0.7753 -0.1265
  993MOL0     O33928   1.680   7.096   1.768 -0.1961 -0.5012 -0.2026
  993MOL0     C33929   1.665   7.002   1.877 -0.6565 -0.2071  0.3585
  993MOL0     C33930   1.531   6.912   1.879  0.7213 -0.3479  0.0759
  993MOL0     C33931   1.496   6.851   2.018 -0.8222  0.2285  0.7588
  993MOL0     C33932   1.356   6.780   2.015 -0.2678  0.2299 -0.0379
  993MOL0     C33933   1.364   6.654   2.101  0.1874 -0.8190  0.0013
  993MOL0     C33934   1.446   6.548   2.026  1.0543 -0.1259 -0.2152
  993MOL0     C33935   1.392   6.412   2.063  0.6096 -0.6311  0.5018
  993MOL0     C33936   1.309   6.365   1.950  1.0140  0.7897  1.2022
  993MOL0     N33937   1.237   6.245   1.978 -0.5308  0.8600  0.3109
  993MOL0     C33938   1.102   6.235   1.982  0.1000  0.3462 -0.0270
  993MOL0     C33939   1.075   6.103   1.990  0.7217  0.1968 -0.2120
  993MOL0     C33940   0.941   6.028   1.996  0.0238 -0.2759 -0.8373
  993MOL0     C33941   0.875   6.013   1.861 -0.1780 -0.6925  0.7522
  993MOL0     C33942   0.979   5.968   1.754 -0.0048  0.3552 -0.8434
  993MOL0     C33943   0.915   5.890   1.637 -0.3780  0.2688 -1.1678
  993MOL0     O33944   1.007   5.819   1.552 -0.6167  0.4370 -0.3353
  993MOL0     C33945   0.973   5.687   1.528 -0.2162  0.3837 -0.6346
  993MOL0     C33946   0.929   5.594   1.630 -0.3319 -0.7694 -0.3401
  993MOL0     C33947   0.883   5.459   1.608  0.5238 -0.9119  0.8332
  993MOL0     C33948   0.822   5.390   1.722  0.1976 -1.1097  0.7894
  993MOL0     C33949   0.876   5.425   1.469 -0.0846  0.3200 -0.0590
  993MOL0     C33950   0.813   5.300   1.429 -0.0948 -0.8447 -0.0831
  993MOL0     O33951   0.790   5.295   1.296  0.0801 -0.0380 -0.2685
  993MOL0     C33952   0.700   5.194   1.251 -1.0760 -0.3310  0.2755
  993MOL0     C33953   0.764   5.090   1.179 -0.4136  0.3117  0.5593
  993MOL0     C33954   0.689   4.992   1.110  0.3266 -0.6433  0.1715
  993MOL0     C33955   0.550   5.000   1.127 -0.1291  0.4067  0.6246
  993MOL0     O33956   0.481   4.902   1.076  0.4742 -0.0314 -0.1444
  993MOL0     C33957   0.445   4.931   0.936  1.4464 -0.7312 -0.7822
  993MOL0     C33958   0.493   4.814   0.843 -0.2029 -0.4092 -0.3609
  993MOL0     C33959   0.429   4.816   0.699  0.1326 -1.0895 -0.7009
  993MOL0     C33960   0.474   4.703   0.610  0.9073 -0.6340 -0.4611
  993MOL0     C33961   0.406   4.717   0.469  0.5447  0.1566 -0.8419
  993MOL0     C33962   0.514   4.724   0.365  0.3515 -0.0043  0.1707
  993MOL0     C33963   0.591   4.862   0.374  0.1392 -0.4130 -0.3146
  993MOL0     C33964   0.721   4.873   0.290  0.1558 -0.3027 -0.5716
  993MOL0    Cl33965   0.693   4.862   0.114 -0.3030 -0.1441  0.2885
  993MOL0     C33966   0.489   5.094   1.205  0.6971 -0.3850 -0.1736
  993MOL0     C33967   0.561   5.194   1.276 -0.3287 -0.3631  0.3609
  993MOL0     O33968   0.784   5.208   1.507 -0.3383 -0.5181 -0.0317
  993MOL0     C33969   0.934   5.510   1.372 -0.6407 -0.5907  0.4319
  993MOL0     C33970   0.977   5.640   1.397  1.4689 -0.2364  0.0114
  993MOL0     N33971   1.192   6.039   1.990 -0.7915  0.1529 -0.2887
  993MOL0     N33972   1.292   6.120   1.990 -0.3128  0.6458 -0.0263
  993MOL0     C33973   1.786   7.272   1.657 -0.0257 -1.8323  0.3899
  993MOL0     C33974   1.883   7.374   1.646 -0.6815 -0.7322 -0.1751
  993MOL0     C33975   2.267   7.633   1.738  0.1566  0.1873  0.0288
  993MOL0     C33976   2.347   7.596   1.634  0.1792 -1.2266  0.6867
  993MOL0     C33977   2.444   7.684   1.593 -0.2796 -0.0392 -1.2232
  993MOL0     C33978   2.472   7.812   1.653  0.1021 -1.1781  0.7659
  993MOL0     O33979   2.570   7.907   1.620  0.6446  0.2660 -0.5801
  993MOL0     C33980   2.617   7.892   1.484  0.2802  0.9395  0.3409
  993MOL0     C33981   2.522   7.931   1.376 -0.3399  0.8099 -0.2781
  993MOL0     C33982   2.588   7.954   1.240  0.3671  0.1789 -0.0276
  993MOL0     C33983   2.645   7.835   1.168 -0.5069 -0.3140 -1.2327
  993MOL0     C33984   2.746   7.871   1.072  0.9975  0.2361  0.4095
  993MOL0     C33985   2.833   7.907   0.995 -0.4064  0.4508 -0.2700
  993MOL0     C33986   2.400   7.837   1.772 -0.6105 -0.2445  0.1216
  993MOL0     C33987   2.292   7.753   1.806 -0.5960  0.3089 -0.3091
  993MOL0     H33988   2.093   7.281   1.905 -1.5238 -0.8183  0.6115
  993MOL0     H33989   1.919   7.122   1.934  3.4519  0.8721  1.0831
  993MOL0     H33990   1.759   6.946   1.883  0.7005  2.1333  3.3258
  993MOL0     H33991   1.659   7.053   1.973 -4.0849  0.5969 -0.1526
  993MOL0     H33992   1.451   6.977   1.842  1.1472 -1.1437 -2.4554
  993MOL0     H33993   1.525   6.826   1.811 -2.3646 -1.3267  1.4057
  993MOL0     H33994   1.577   6.779   2.033  0.9930  1.7220 -1.2782
  993MOL0     H33995   1.499   6.930   2.094 -0.3676  0.4953  0.4630
  993MOL0     H33996   1.277   6.847   2.050  0.6333  1.5933 -0.5578
  993MOL0     H33997   1.321   6.760   1.913 -1.8903 -1.1385  0.7281
  993MOL0     H33998   1.396   6.677   2.203  1.4061  1.2803 -0.8055
  993MOL0     H33999   1.261   6.617   2.101 -0.3155  0.4404 -1.8955
  993MOL0     H34000   1.441   6.562   1.918 -0.5682 -0.2958 -0.1889
  993MOL0     H34001   1.552   6.548   2.055  0.9283 -0.7956  0.2851
  993MOL0     H34002   1.470   6.343   2.096  1.4358 -0.4004 -0.9022
  993MOL0     H34003   1.317   6.417   2.143 -1.5263 -0.0832 -1.4354
  993MOL0     H34004   1.377   6.340   1.867  0.4918  2.7910  0.1118
  993MOL0     H34005   1.257   6.451   1.908  2.4162  1.6733  1.2040
  993MOL0     H34006   1.019   6.303   1.965 -1.3963 -1.9087 -2.4757
  993MOL0     H34007   0.950   5.928   2.040  1.7299  1.1034  2.2982
  993MOL0     H34008   0.865   6.077   2.058 -0.8020 -1.5275 -0.8276
  993MOL0     H34009   0.839   6.112   1.832 -0.5718 -0.8760  0.6142
  993MOL0     H34010   0.787   5.949   1.868 -2.5364  2.0391 -1.3320
  993MOL0     H34011   1.047   5.895   1.798 -0.1378 -2.2635 -4.5781
  993MOL0     H34012   1.042   6.051   1.722  2.1422 -0.1596  1.7286
  993MOL0     H34013   0.867   5.961   1.569 -0.2719 -1.3584 -3.0306
  993MOL0     H34014   0.830   5.829   1.670 -0.8385  2.0627  1.1909
  993MOL0     H34015   0.935   5.633   1.732  2.4626 -0.8567 -0.3973
  993MOL0     H34016   0.713   5.390   1.708  0.4049 -2.2097 -1.1218
  993MOL0     H34017   0.864   5.290   1.729  2.4691 -0.3242 -0.5881
  993MOL0     H34018   0.841   5.442   1.817 -0.9719  2.5368 -0.7816
  993MOL0     H34019   0.872   5.085   1.174 -0.4217  0.4495  0.2773
  993MOL0     H34020   0.742   4.911   1.059  1.9519  0.3032  0.2818
  993MOL0     H34021   0.337   4.925   0.918  1.8191 -2.5029 -2.8530
  993MOL0     H34022   0.484   5.026   0.897 -0.9113  0.8471  0.4578
  993MOL0     H34023   0.600   4.799   0.831 -0.4347 -3.2272  0.2028
  993MOL0     H34024   0.445   4.722   0.881 -1.0002 -0.7504 -2.0985
  993MOL0     H34025   0.457   4.906   0.643 -0.9980  0.7957  1.5727
  993MOL0     H34026   0.322   4.811   0.718  0.2011  0.7106  0.4496
  993MOL0     H34027   0.583   4.705   0.616  1.2365  1.3884 -4.2735
  993MOL0     H34028   0.434   4.614   0.660 -1.7629  1.2081  0.9402
  993MOL0     H34029   0.337   4.802   0.458 -0.8871 -0.7432  0.8193
  993MOL0     H34030   0.341   4.631   0.457 -2.0110  1.9912 -0.9582
  993MOL0     H34031   0.581   4.641   0.390 -0.2102  0.0811  2.2128
  993MOL0     H34032   0.471   4.709   0.266  1.2170  0.8117 -0.3377
  993MOL0     H34033   0.639   4.876   0.471  2.2980 -2.1391 -1.0526
  993MOL0     H34034   0.522   4.943   0.347  0.5945  1.0699  2.5767
  993MOL0     H34035   0.796   4.801   0.324 -1.1678 -1.8750 -0.7981
  993MOL0     H34036   0.753   4.975   0.309 -3.7187  0.7535  1.2809
  993MOL0     H34037   0.381   5.090   1.208  0.6207  1.3473  1.3966
  993MOL0     H34038   0.512   5.278   1.324 -2.0679 -1.1422  0.0549
  993MOL0     H34039   0.943   5.481   1.268  2.1981 -0.0937  0.4521
  993MOL0     H34040   1.011   5.703   1.315 -2.4022  3.1396  0.6596
  993MOL0     H34041   1.699   7.276   1.592  0.2501 -2.3119 -0.0157
  993MOL0     H34042   1.877   7.452   1.571 -1.4408  0.8743  1.4699
  993MOL0     H34043   2.327   7.498   1.591  1.6247 -0.8031 -1.0622
  993MOL0     H34044   2.504   7.652   1.509  2.9850  0.8543  0.6153
  993MOL0     H34045   2.706   7.953   1.498  0.9660 -0.5273  3.1708
  993MOL0     H34046   2.646   7.788   1.464 -0.2488  1.2762 -2.6375
  993MOL0     H34047   2.473   8.022   1.412  1.0261  1.1103  0.9049
  993MOL0     H34048   2.440   7.858   1.376  0.7870 -0.4906 -0.3837
  993MOL0     H34049   2.666   8.031   1.245 -0.7173  1.2785  0.6550
  993MOL0     H34050   2.518   8.003   1.171  3.8487  2.2850 -2.4105
  993MOL0     H34051   2.576   7.780   1.103  1.1056 -0.6049 -2.7651
  993MOL0     H34052   2.697   7.769   1.239  4.2174  2.5015 -1.7260
  993MOL0     H34053   2.906   7.942   0.925  1.2042  1.3487  1.7583
  993MOL0     H34054   2.427   7.920   1.837  0.0030 -2.3212  2.6436
  993MOL0     H34055   2.234   7.781   1.893  1.0460  0.5118  0.7767
  994MOL0     O34056   9.443   5.122   2.915 -0.0456  0.1244  0.3022
  994MOL0     C34057   9.477   5.235   2.954  0.3212  0.9481  0.0833
  994MOL0     O34058   9.446   5.283   3.077  0.2287  1.1086  0.0059
  994MOL0     C34059   9.426   5.197   3.189  0.4779 -0.0256 -0.4132
  994MOL0     C34060   9.335   5.237   3.294  0.0977 -0.5952  0.0858
  994MOL0     C34061   9.318   5.163   3.407  0.3050 -0.4928  0.0340
  994MOL0     C34062   9.397   5.045   3.430  0.3221 -0.5967 -0.3774
  994MOL0     O34063   9.384   4.970   3.540  0.4748 -0.4282  0.9228
  994MOL0     C34064   9.338   5.041   3.653 -0.3251 -0.3656 -0.3008
  994MOL0     C34065   9.404   4.970   3.778 -0.2754  0.2053 -0.4457
  994MOL0     C34066   9.308   4.931   3.892  0.2060  0.9515 -0.7343
  994MOL0     C34067   9.387   4.862   4.003  0.6830  0.9753 -0.2436
  994MOL0     C34068   9.302   4.848   4.135  0.2496 -0.4118 -0.2862
  994MOL0     C34069   9.226   4.715   4.156  0.5240  0.1441  0.2566
  994MOL0     C34070   9.166   4.708   4.299 -0.0300  0.5286 -0.1300
  994MOL0     C34071   9.061   4.819   4.321 -0.6551  0.1917 -0.5401
  994MOL0     N34072   8.941   4.816   4.232  0.2836 -0.2186  0.9996
  994MOL0     C34073   8.937   4.878   4.111  0.1559 -0.3214 -0.6108
  994MOL0     C34074   8.833   4.826   4.041 -0.3080  0.8360 -0.1740
  994MOL0     C34075   8.817   4.843   3.891 -0.1495 -0.2176  0.4892
  994MOL0     C34076   8.941   4.831   3.811 -0.5063  0.2367  0.0972
  994MOL0     C34077   8.918   4.867   3.669  0.1682 -0.3440  0.6974
  994MOL0     C34078   9.037   4.806   3.582  0.5290 -1.1473  0.3834
  994MOL0     O34079   9.013   4.802   3.440 -0.1638 -0.2354 -0.6607
  994MOL0     C34080   8.947   4.906   3.380 -0.6879 -0.0714 -0.0677
  994MOL0     C34081   8.993   5.036   3.402 -0.0254  0.7817 -0.7948
  994MOL0     C34082   8.928   5.145   3.347 -0.6590 -0.1941 -0.3131
  994MOL0     C34083   8.964   5.280   3.399  0.3608 -0.0492  0.1871
  994MOL0     C34084   8.816   5.123   3.258 -0.8650 -0.0291 -0.0777
  994MOL0     C34085   8.734   5.227   3.193  0.4403 -0.4647 -0.1793
  994MOL0     O34086   8.614   5.192   3.123 -1.0507  0.4747  0.3318
  994MOL0     C34087   8.546   5.284   3.044  0.3207 -0.3999  0.4104
  994MOL0     C34088   8.595   5.403   2.982 -0.3271  0.8324 -0.2272
  994MOL0     C34089   8.517   5.480   2.901 -0.4633 -0.5795 -0.6971
  994MOL0     C34090   8.392   5.442   2.861  0.5645  0.1167  1.1702
  994MOL0     O34091   8.331   5.502   2.754  0.1533 -0.1964 -0.6558
  994MOL0     C34092   8.187   5.532   2.770 -0.3067 -0.1309 -0.4977
  994MOL0     C34093   8.160   5.644   2.665  0.2219  0.0273  0.7558
  994MOL0     C34094   8.003   5.648   2.627 -0.9314 -0.9159 -0.4523
  994MOL0     C34095   7.981   5.771   2.534  0.6889  0.5235  0.5167
  994MOL0     C34096   7.828   5.785   2.504  0.1328 -1.3219  0.6588
  994MOL0     C34097   7.797   5.915   2.433 -0.1876  0.0453 -0.2050
  994MOL0     C34098   7.650   5.894   2.389 -0.4242 -0.6129 -0.7117
  994MOL0     C34099   7.565   6.027   2.368  0.4644 -0.5650 -0.2554
  994MOL0    Cl34100   7.655   6.149   2.278 -0.1654 -0.1215  0.1712
  994MOL0     C34101   8.334   5.334   2.930 -0.1834  0.1860  0.2137
  994MOL0     C34102   8.414   5.257   3.021  0.0594 -0.2030 -0.7907
  994MOL0     O34103   8.771   5.344   3.198  0.1918 -0.2514 -0.1600
  994MOL0     C34104   8.780   4.986   3.241  0.2305  0.2008 -1.0637
  994MOL0     C34105   8.846   4.880   3.304  0.4816 -0.5017  0.1588
  994MOL0     N34106   8.783   4.731   4.126 -0.4702 -0.4097  0.0429
  994MOL0     N34107   8.845   4.727   4.235 -0.2279  0.3021  0.3811
  994MOL0     C34108   9.475   4.997   3.332  0.6610 -0.4299 -0.0213
  994MOL0     C34109   9.486   5.070   3.217  0.0692 -0.1793  0.5697
  994MOL0     C34110   9.554   5.316   2.860 -0.3626  0.2482 -0.0224
  994MOL0     C34111   9.630   5.428   2.914  0.0771  0.5075  0.4235
  994MOL0     C34112   9.709   5.516   2.833  1.0480 -0.6031 -0.1875
  994MOL0     C34113   9.714   5.494   2.701 -0.0281  0.5295  0.6539
  994MOL0     O34114   9.805   5.560   2.620  0.2030  0.4821 -0.2294
  994MOL0     C34115   9.884   5.672   2.681  0.4785  0.3420  0.0085
  994MOL0     C34116   9.940   5.762   2.571  0.3411  0.3214 -0.0771
  994MOL0     C34117  10.008   5.891   2.627  0.9680  1.0315  0.3613
  994MOL0     C34118  10.079   5.977   2.514 -0.0810 -0.3272  0.1726
  994MOL0     C34119  10.224   5.957   2.531  1.0788  0.5208  1.2230
  994MOL0     C34120  10.335   5.953   2.571  0.2005  0.9024  0.6821
  994MOL0     C34121   9.637   5.392   2.644 -0.1651  0.6205  1.1550
  994MOL0     C34122   9.555   5.307   2.721 -0.5812 -0.1129 -0.8492
  994MOL0     H34123   9.283   5.330   3.313  2.6399  0.3379  3.4291
  994MOL0     H34124   9.240   5.205   3.469 -0.0199 -1.0510  0.0119
  994MOL0     H34125   9.378   5.142   3.662 -1.0787 -0.0014 -0.9436
  994MOL0     H34126   9.229   5.051   3.656 -0.1934  1.9352  3.5408
  994MOL0     H34127   9.450   4.879   3.737 -1.8190 -0.2205 -1.3398
  994MOL0     H34128   9.477   5.038   3.822  2.3798 -0.6146 -3.2372
  994MOL0     H34129   9.254   5.015   3.937 -3.0372 -0.1039 -2.3136
  994MOL0     H34130   9.239   4.850   3.866  1.7696 -0.7408  0.1584
  994MOL0     H34131   9.416   4.764   3.963 -0.2191  1.9849 -3.6537
  994MOL0     H34132   9.481   4.917   4.012  0.7991  1.5851 -3.7713
  994MOL0     H34133   9.346   4.863   4.233 -3.3688  1.1105  1.3004
  994MOL0     H34134   9.227   4.928   4.137  1.2189  0.4997  0.4947
  994MOL0     H34135   9.143   4.691   4.089  0.4669 -2.5031  1.1874
  994MOL0     H34136   9.307   4.646   4.132  0.2689 -0.6067  1.4915
  994MOL0     H34137   9.117   4.610   4.303  2.6870 -1.0733 -2.1941
  994MOL0     H34138   9.241   4.706   4.378 -0.2812  1.5939  0.1449
  994MOL0     H34139   9.110   4.915   4.303  2.0806 -1.3614 -1.9582
  994MOL0     H34140   9.029   4.807   4.425  0.6641 -2.1685 -0.3405
  994MOL0     H34141   9.007   4.952   4.074  2.0730 -1.1905  1.1470
  994MOL0     H34142   8.746   4.768   3.854 -3.9774  3.3498 -0.2157
  994MOL0     H34143   8.765   4.937   3.871 -1.0965 -0.8593 -0.1380
  994MOL0     H34144   8.973   4.728   3.826 -0.3775  0.1733 -0.5764
  994MOL0     H34145   9.008   4.906   3.853  1.3251  0.2020 -2.5219
  994MOL0     H34146   8.919   4.975   3.652  1.5383 -0.7701 -2.8232
  994MOL0     H34147   8.824   4.832   3.624  0.9123  0.7071 -1.8917
  994MOL0     H34148   9.061   4.702   3.605 -0.5691 -1.9855 -1.9683
  994MOL0     H34149   9.126   4.868   3.594  0.5295 -0.7879 -1.2247
  994MOL0     H34150   9.081   5.051   3.464 -0.4790 -0.3038  0.1653
  994MOL0     H34151   8.874   5.324   3.443  0.4449 -0.9741  1.3481
  994MOL0     H34152   9.029   5.267   3.486  1.5657  2.8034 -0.1810
  994MOL0     H34153   9.005   5.339   3.318  0.8143 -0.3605  0.1858
  994MOL0     H34154   8.701   5.425   2.973  0.4172 -0.8181  3.0650
  994MOL0     H34155   8.579   5.551   2.847  1.9805 -2.4457 -0.5144
  994MOL0     H34156   8.132   5.442   2.739  0.1192 -0.7782  0.5803
  994MOL0     H34157   8.163   5.557   2.874  0.3504 -0.3110 -0.3021
  994MOL0     H34158   8.203   5.740   2.695  2.7637 -0.7283 -0.2066
  994MOL0     H34159   8.216   5.614   2.575  0.6577 -2.1900  1.7014
  994MOL0     H34160   7.948   5.662   2.721 -0.7616 -0.7327 -0.3774
  994MOL0     H34161   7.970   5.557   2.577 -1.9701  0.4577 -2.4416
  994MOL0     H34162   7.998   5.859   2.597 -1.8961  0.2471  1.7310
  994MOL0     H34163   8.044   5.781   2.445  1.0608 -2.8186  0.2725
  994MOL0     H34164   7.764   5.790   2.593  0.2695  2.9602  0.7465
  994MOL0     H34165   7.794   5.695   2.453 -5.7931  0.7180  0.2409
  994MOL0     H34166   7.812   6.003   2.497 -0.3827  0.5327 -0.8197
  994MOL0     H34167   7.858   5.922   2.342  1.4120  0.5405  0.8608
  994MOL0     H34168   7.601   5.826   2.460  2.0263 -1.4262  0.3038
  994MOL0     H34169   7.638   5.849   2.290 -3.9817 -2.0232  0.1799
  994MOL0     H34170   7.520   6.068   2.459 -2.0707 -2.6496 -0.4433
  994MOL0     H34171   7.472   6.007   2.313 -2.1437  2.6522  2.4835
  994MOL0     H34172   8.230   5.306   2.916 -0.9889  1.9148  2.2686
  994MOL0     H34173   8.370   5.170   3.069 -1.0003  0.0197 -1.3221
  994MOL0     H34174   8.692   4.962   3.181 -0.5537  1.9256 -0.6825
  994MOL0     H34175   8.797   4.783   3.290  1.3007 -0.9593  0.4084
  994MOL0     H34176   9.519   4.898   3.338 -0.0408 -0.7815 -0.6245
  994MOL0     H34177   9.542   5.031   3.133 -0.6496  4.8396 -2.6805
  994MOL0     H34178   9.655   5.453   3.016  1.4528 -1.7590  0.7059
  994MOL0     H34179   9.761   5.595   2.886 -1.9659  2.5607 -1.5988
  994MOL0     H34180   9.810   5.734   2.731  1.9359  3.3539 -1.3277
  994MOL0     H34181   9.970   5.649   2.746  2.5093  3.1205 -1.4732
  994MOL0     H34182   9.859   5.799   2.508 -1.0977  0.8987  2.0109
  994MOL0     H34183  10.014   5.711   2.509 -0.8090  2.1349 -3.1485
  994MOL0     H34184  10.064   5.867   2.718  1.2668  2.0147  0.4470
  994MOL0     H34185   9.919   5.936   2.673  0.6887 -0.0347  0.8927
  994MOL0     H34186  10.051   6.083   2.508  2.5473  0.3748 -4.3407
  994MOL0     H34187  10.042   5.946   2.416 -4.0266 -0.9023  1.6616
  994MOL0     H34188  10.434   5.964   2.611 -0.3262 -2.4644  3.3092
  994MOL0     H34189   9.648   5.383   2.536 -0.2312  1.1382  1.0993
  994MOL0     H34190   9.494   5.247   2.654 -2.2257  0.1433  0.3378
  995MOL0     O34191   8.889   0.336   0.659 -0.3878 -0.1180  0.5013
  995MOL0     C34192   8.959   0.423   0.719  0.9260 -0.8856 -0.0764
  995MOL0     O34193   8.923   0.491   0.834  0.0156  0.2749  0.5470
  995MOL0     C34194   8.801   0.482   0.903  0.2432  0.0558 -0.0979
  995MOL0     C34195   8.772   0.582   0.987 -0.6366 -0.1875 -0.2680
  995MOL0     C34196   8.651   0.589   1.053  0.2773 -0.6870  0.1305
  995MOL0     C34197   8.554   0.490   1.036 -0.8680 -0.8883  0.2617
  995MOL0     O34198   8.424   0.512   1.087 -0.2448 -0.2333 -0.2487
  995MOL0     C34199   8.324   0.415   1.060 -0.1591 -0.4387  0.3072
  995MOL0     C34200   8.186   0.460   1.107  0.2594 -0.1423  0.0342
  995MOL0     C34201   8.072   0.381   1.051  0.0617 -0.2171 -0.3469
  995MOL0     C34202   7.938   0.432   1.108  0.5750  0.5640 -0.0692
  995MOL0     C34203   7.823   0.330   1.079 -0.1586  0.6277 -0.1985
  995MOL0     C34204   7.678   0.383   1.099 -0.0160  0.3714  0.8047
  995MOL0     C34205   7.626   0.460   0.980 -0.1225  1.8819 -0.4668
  995MOL0     C34206   7.556   0.594   1.010 -0.4377 -0.4326 -0.3116
  995MOL0     N34207   7.410   0.594   1.037 -0.9017  0.1614  0.9048
  995MOL0     C34208   7.348   0.535   1.144 -0.9039 -0.2429 -0.9306
  995MOL0     C34209   7.218   0.575   1.143  0.4420 -0.1237  0.5788
  995MOL0     C34210   7.106   0.536   1.240 -0.4319 -0.3540 -0.0632
  995MOL0     C34211   7.127   0.388   1.273 -0.3333  0.1814 -0.0701
  995MOL0     C34212   7.010   0.332   1.343 -1.2315  0.3002 -0.3325
  995MOL0     C34213   7.030   0.193   1.400  0.6433  1.0376 -0.2137
  995MOL0     O34214   7.067   0.108   1.283 -0.1109  0.1587 -0.4637
  995MOL0     C34215   7.101  -0.022   1.312  0.4963 -0.4292 -0.3928
  995MOL0     C34216   7.051  -0.100   1.416 -0.0291 -0.0788  0.0328
  995MOL0     C34217   7.090  -0.242   1.431  0.2533 -0.9835  0.5583
  995MOL0     C34218   7.030  -0.308   1.552 -0.3267  0.1449 -0.4459
  995MOL0     C34219   7.190  -0.299   1.349  0.0810  0.6504 -0.0932
  995MOL0     C34220   7.245  -0.438   1.375  0.7260 -0.3636  0.7437
  995MOL0     O34221   7.172  -0.528   1.457  0.6054  0.4716  0.5698
  995MOL0     C34222   7.232  -0.650   1.490 -0.0857 -0.1866 -0.3554
  995MOL0     C34223   7.252  -0.746   1.393 -0.1127  0.1504  0.0574
  995MOL0     C34224   7.326  -0.864   1.415 -0.6098  0.4690  0.1114
  995MOL0     C34225   7.358  -0.893   1.550  0.1434  0.3355  0.1529
  995MOL0     O34226   7.412  -1.013   1.593 -0.0614 -0.4226 -0.2646
  995MOL0     C34227   7.500  -1.081   1.506 -0.0247  0.3668  0.0458
  995MOL0     C34228   7.551  -1.185   1.608 -0.2081 -0.4691  0.7694
  995MOL0     C34229   7.696  -1.180   1.638 -0.0039  0.3123 -0.1435
  995MOL0     C34230   7.722  -1.052   1.709 -0.6112 -0.7539  0.2037
  995MOL0     C34231   7.871  -1.041   1.731 -0.8481  0.2940 -1.0260
  995MOL0     C34232   7.914  -0.906   1.791 -0.0809 -0.4832  0.0011
  995MOL0     C34233   8.062  -0.912   1.839  0.6058  0.3090 -0.0623
  995MOL0     C34234   8.130  -0.781   1.827  0.4089  0.3690 -0.7268
  995MOL0    Cl34235   8.036  -0.670   1.922 -0.1786  0.3218  0.0621
  995MOL0     C34236   7.353  -0.791   1.641  0.5150 -0.2563  0.5875
  995MOL0     C34237   7.284  -0.675   1.612  0.8438  0.2414 -0.0783
  995MOL0     O34238   7.349  -0.465   1.313  0.0179  0.1337 -0.6115
  995MOL0     C34239   7.238  -0.218   1.238  0.2986 -1.0603 -0.2977
  995MOL0     C34240   7.190  -0.083   1.223 -0.6674  0.0642  0.1274
  995MOL0     N34241   7.203   0.663   1.035  0.0653 -0.0190 -0.0990
  995MOL0     N34242   7.319   0.680   0.979 -0.7707 -0.9755 -1.0530
  995MOL0     C34243   8.595   0.371   0.962  0.6901  0.3723  0.7763
  995MOL0     C34244   8.716   0.372   0.904 -1.4403 -0.5189 -0.8868
  995MOL0     C34245   9.104   0.440   0.691 -0.0290 -0.1679 -0.0881
  995MOL0     C34246   9.153   0.355   0.587  0.5943 -0.3075  0.0172
  995MOL0     C34247   9.286   0.369   0.550 -0.1115 -0.4157  0.5594
  995MOL0     C34248   9.370   0.456   0.620  0.5650  0.0387  0.2237
  995MOL0     O34249   9.489   0.470   0.568 -0.2122 -0.3092  0.1370
  995MOL0     C34250   9.572   0.579   0.602 -0.9805 -0.0046  0.5894
  995MOL0     C34251   9.700   0.597   0.509  0.0423  0.4966  0.0887
  995MOL0     C34252   9.815   0.675   0.581  1.1458 -0.0637  1.7858
  995MOL0     C34253   9.798   0.828   0.555 -0.2667 -1.0725 -0.3209
  995MOL0     C34254   9.706   0.911   0.631  0.3202 -0.5196 -0.8035
  995MOL0     C34255   9.627   0.971   0.702  0.6575 -0.8748  0.2687
  995MOL0     C34256   9.321   0.540   0.718  0.1125 -0.0078  0.5173
  995MOL0     C34257   9.186   0.532   0.756 -0.0759  0.0124 -0.2912
  995MOL0     H34258   8.837   0.669   0.992 -0.6931 -0.1053 -0.9494
  995MOL0     H34259   8.620   0.679   1.105 -1.8911  0.1778 -2.4495
  995MOL0     H34260   8.313   0.393   0.954  0.1671 -2.6325  0.6763
  995MOL0     H34261   8.339   0.318   1.109 -1.8742 -0.1513  1.5043
  995MOL0     H34262   8.181   0.462   1.216  1.3472 -0.7468  0.1083
  995MOL0     H34263   8.168   0.556   1.058  0.0671 -1.9210 -3.7305
  995MOL0     H34264   8.063   0.397   0.943  1.7401 -1.4089 -0.7072
  995MOL0     H34265   8.098   0.276   1.065  2.1902  0.3649  0.5226
  995MOL0     H34266   7.946   0.454   1.215  0.9000  2.2241 -0.4081
  995MOL0     H34267   7.905   0.522   1.056 -1.6751 -0.1983 -0.0797
  995MOL0     H34268   7.840   0.304   0.974  1.6636 -4.6207  1.0850
  995MOL0     H34269   7.836   0.237   1.135  1.8315  0.8984 -0.1327
  995MOL0     H34270   7.613   0.296   1.090 -1.7799  1.8552 -2.5026
  995MOL0     H34271   7.681   0.442   1.192  2.5832  1.6136  0.0328
  995MOL0     H34272   7.714   0.480   0.919 -0.5901  2.9363 -0.8071
  995MOL0     H34273   7.562   0.393   0.921 -1.7067  3.2084 -0.3235
  995MOL0     H34274   7.566   0.657   0.921  1.1452 -0.9116 -0.4955
  995MOL0     H34275   7.610   0.640   1.093 -0.1786  0.9230 -1.1924
  995MOL0     H34276   7.397   0.471   1.217  0.3656  1.2122 -0.4720
  995MOL0     H34277   7.110   0.601   1.327 -1.3093 -0.6799  0.2277
  995MOL0     H34278   7.006   0.549   1.198  0.0411 -0.9807 -1.4623
  995MOL0     H34279   7.211   0.384   1.343 -0.4707  2.5555  0.3104
  995MOL0     H34280   7.152   0.320   1.191 -1.4797 -0.9024  0.4343
  995MOL0     H34281   6.930   0.321   1.270 -2.0881 -0.0743  0.6474
  995MOL0     H34282   6.977   0.403   1.419 -0.0650 -2.0538  2.5238
  995MOL0     H34283   6.936   0.156   1.442  1.9767 -1.0306  1.1268
  995MOL0     H34284   7.112   0.194   1.473  1.6896  1.1207 -1.3660
  995MOL0     H34285   6.974  -0.061   1.482 -0.3683 -1.7432  0.6582
  995MOL0     H34286   7.106  -0.324   1.629 -0.9396  4.2506  1.2965
  995MOL0     H34287   6.953  -0.246   1.599 -1.5609 -0.0393 -2.1342
  995MOL0     H34288   6.972  -0.399   1.536  0.0574 -0.4622  1.3442
  995MOL0     H34289   7.222  -0.719   1.292  0.5890  0.0349 -0.1896
  995MOL0     H34290   7.340  -0.931   1.330  0.2146 -1.5678  1.7510
  995MOL0     H34291   7.454  -1.123   1.416  2.9430  0.0124 -1.3894
  995MOL0     H34292   7.580  -1.015   1.475 -1.6684  2.5816  0.2849
  995MOL0     H34293   7.491  -1.196   1.699 -0.4342 -0.0915  0.6666
  995MOL0     H34294   7.534  -1.277   1.551 -5.1557 -0.2280  1.4660
  995MOL0     H34295   7.735  -1.179   1.536 -0.7401  0.2604 -0.4293
  995MOL0     H34296   7.733  -1.255   1.709 -2.3501 -0.3774  0.4306
  995MOL0     H34297   7.689  -0.968   1.647 -2.8996 -0.7618  1.2825
  995MOL0     H34298   7.667  -1.048   1.804 -1.5911 -0.4394 -0.3606
  995MOL0     H34299   7.921  -1.060   1.635 -1.9806 -2.1055 -1.2309
  995MOL0     H34300   7.897  -1.125   1.797 -1.5609  0.2612 -0.7838
  995MOL0     H34301   7.907  -0.824   1.718  1.9888 -0.0938  0.1734
  995MOL0     H34302   7.860  -0.883   1.883 -0.0147 -3.0556  0.7476
  995MOL0     H34303   8.113  -0.981   1.773 -1.6783 -2.3290  0.7286
  995MOL0     H34304   8.051  -0.962   1.936  0.7824  0.5474  0.0821
  995MOL0     H34305   8.131  -0.753   1.721  0.1180 -0.2678 -0.8996
  995MOL0     H34306   8.236  -0.791   1.854 -0.2253 -0.8523  1.5873
  995MOL0     H34307   7.385  -0.812   1.743 -0.2077 -0.0135  0.8732
  995MOL0     H34308   7.278  -0.592   1.682 -0.5960 -0.4786  0.7149
  995MOL0     H34309   7.308  -0.248   1.161  0.2631 -3.6098  0.5816
  995MOL0     H34310   7.215  -0.022   1.137 -2.5020  2.8297  1.3935
  995MOL0     H34311   8.530   0.286   0.943 -0.4948  1.8475 -2.6402
  995MOL0     H34312   8.741   0.286   0.844  1.9900  0.8950 -1.7180
  995MOL0     H34313   9.091   0.292   0.524 -0.1278 -0.0221  0.4247
  995MOL0     H34314   9.322   0.332   0.454 -0.6842 -2.5674  1.1290
  995MOL0     H34315   9.527   0.679   0.605  0.2593  0.6073 -0.0814
  995MOL0     H34316   9.616   0.546   0.697 -0.6573  2.1845  1.2634
  995MOL0     H34317   9.662   0.651   0.421  1.4861  3.4840  1.1578
  995MOL0     H34318   9.727   0.492   0.495 -0.8186  0.4942 -1.9279
  995MOL0     H34319   9.909   0.640   0.536  1.3312  1.1374  1.1829
  995MOL0     H34320   9.824   0.662   0.689  0.7610  0.3166  1.8653
  995MOL0     H34321   9.787   0.840   0.447  0.2094 -1.1925 -0.3807
  995MOL0     H34322   9.898   0.865   0.577  0.7020 -3.6032 -0.1407
  995MOL0     H34323   9.568   1.035   0.764  2.0702  0.0325  0.7238
  995MOL0     H34324   9.384   0.608   0.774 -2.3900 -0.0087  3.6464
  995MOL0     H34325   9.148   0.598   0.833 -1.1993 -0.7911 -0.1349
  996MOL0     O34326   7.650   0.583   2.669  0.0417  0.0664 -0.5446
  996MOL0     C34327   7.606   0.480   2.618  0.0255 -1.2440 -0.8865
  996MOL0     O34328   7.475   0.459   2.585 -1.1368 -0.3400 -0.4878
  996MOL0     C34329   7.405   0.572   2.571  0.1975  0.5740 -0.6308
  996MOL0     C34330   7.275   0.563   2.627 -0.8658  0.1541  0.4408
  996MOL0     C34331   7.176   0.667   2.635  0.1979 -0.8118  0.6390
  996MOL0     C34332   7.208   0.787   2.569 -0.5512  0.0590  0.6341
  996MOL0     O34333   7.119   0.886   2.546 -0.4868  0.4505  0.2786
  996MOL0     C34334   6.984   0.864   2.538  0.1624  0.6507 -0.3730
  996MOL0     C34335   6.902   0.976   2.468 -0.7877 -0.8313  0.1834
  996MOL0     C34336   6.751   0.947   2.453 -0.5289 -0.6004  0.1775
  996MOL0     C34337   6.735   0.841   2.340 -0.0971 -0.3806 -0.0881
  996MOL0     C34338   6.594   0.844   2.287  0.7293 -0.7898 -0.3821
  996MOL0     C34339   6.579   0.737   2.180  0.9805  0.6732  0.6115
  996MOL0     C34340   6.431   0.710   2.150 -0.7177  0.8447 -0.0769
  996MOL0     C34341   6.414   0.571   2.086  0.6334  0.2539  0.0960
  996MOL0     N34342   6.280   0.519   2.066  0.3949  0.4128 -0.0490
  996MOL0     C34343   6.263   0.380   2.050 -1.2796  0.4830 -1.4165
  996MOL0     C34344   6.134   0.365   2.031 -0.3184 -0.1278  0.3519
  996MOL0     C34345   6.064   0.231   2.031 -0.1707  0.2015  0.5669
  996MOL0     C34346   6.136   0.131   1.935 -0.8985 -0.0079  0.6150
  996MOL0     C34347   6.109  -0.020   1.966 -0.4821 -0.1869 -0.2152
  996MOL0     C34348   6.193  -0.108   1.877  0.2092 -0.0891  0.2674
  996MOL0     O34349   6.326  -0.118   1.920 -0.7937  0.4739 -0.8687
  996MOL0     C34350   6.417  -0.207   1.870 -0.5318  0.6829 -0.0442
  996MOL0     C34351   6.550  -0.210   1.918 -1.0232 -0.0235  0.2109
  996MOL0     C34352   6.655  -0.294   1.868  0.3978 -0.2416  0.2798
  996MOL0     C34353   6.798  -0.292   1.931  0.3977  0.3792  0.4234
  996MOL0     C34354   6.617  -0.392   1.765 -1.1125  0.3999  1.0542
  996MOL0     C34355   6.707  -0.497   1.706  0.2795  0.5790 -0.6614
  996MOL0     O34356   6.675  -0.563   1.590  0.2851 -0.9598 -0.0779
  996MOL0     C34357   6.729  -0.693   1.576 -0.3459 -0.0811  0.6671
  996MOL0     C34358   6.642  -0.795   1.602  0.7228  0.3017  0.7322
  996MOL0     C34359   6.678  -0.926   1.588 -0.5363 -0.7164 -0.3661
  996MOL0     C34360   6.813  -0.951   1.557  0.7316 -0.2637  0.0854
  996MOL0     O34361   6.844  -1.082   1.568 -0.1865 -0.0817  0.8615
  996MOL0     C34362   6.976  -1.125   1.519  0.8833  0.2575  1.1996
  996MOL0     C34363   7.004  -1.271   1.571  0.2274 -0.6547  0.1761
  996MOL0     C34364   7.150  -1.313   1.550  0.6742  0.8800 -0.2414
  996MOL0     C34365   7.163  -1.454   1.595  0.2135  0.2541  0.3984
  996MOL0     C34366   7.302  -1.505   1.568 -1.0038 -0.9403 -0.8790
  996MOL0     C34367   7.325  -1.647   1.609  0.5787  0.1478  0.0169
  996MOL0     C34368   7.458  -1.702   1.557 -0.5246 -0.8899  0.5344
  996MOL0     C34369   7.579  -1.625   1.612 -0.3767  0.1976 -0.7557
  996MOL0    Cl34370   7.586  -1.638   1.791  0.0465 -0.2451 -0.7255
  996MOL0     C34371   6.897  -0.846   1.517 -0.4741 -0.7079  1.1036
  996MOL0     C34372   6.856  -0.713   1.530 -0.7055  0.7312  0.2057
  996MOL0     O34373   6.820  -0.515   1.755  0.6786  0.0734 -0.0591
  996MOL0     C34374   6.485  -0.379   1.718 -0.7814  0.3833  0.4291
  996MOL0     C34375   6.383  -0.301   1.773 -0.8569 -0.4474 -1.1237
  996MOL0     N34376   6.079   0.490   2.033 -0.5118  0.1115  0.5402
  996MOL0     N34377   6.165   0.581   2.050 -0.4858 -0.8377  0.1138
  996MOL0     C34378   7.343   0.800   2.517 -0.2875  0.4094 -0.4384
  996MOL0     C34379   7.443   0.698   2.520 -0.0207 -0.1810 -0.4679
  996MOL0     C34380   7.693   0.359   2.595  0.5496 -0.0691 -0.2768
  996MOL0     C34381   7.653   0.223   2.595  0.3609 -0.5893 -0.4506
  996MOL0     C34382   7.746   0.125   2.568  0.1690 -0.3241  0.0190
  996MOL0     C34383   7.878   0.155   2.559 -0.3104  0.4949 -0.0446
  996MOL0     O34384   7.980   0.056   2.541 -0.7099  0.7482 -1.0358
  996MOL0     C34385   7.992  -0.064   2.636  0.8128 -0.1517 -0.5850
  996MOL0     C34386   7.982  -0.188   2.561 -0.1932  0.9335  0.5274
  996MOL0     C34387   8.051  -0.312   2.617 -0.8889 -0.2050  0.5939
  996MOL0     C34388   8.015  -0.439   2.530  0.4292 -0.6882  0.5897
  996MOL0     C34389   8.091  -0.443   2.403 -0.6007  0.0309 -0.2902
  996MOL0     C34390   8.145  -0.472   2.296 -0.4635 -1.1627  0.2427
  996MOL0     C34391   7.921   0.287   2.572  0.5633 -0.8401 -0.0309
  996MOL0     C34392   7.828   0.385   2.583 -0.3624  0.2910  0.9164
  996MOL0     H34393   7.246   0.467   2.668 -2.3925  1.7311  3.3931
  996MOL0     H34394   7.076   0.644   2.671 -0.5103  3.2657  1.6797
  996MOL0     H34395   6.960   0.762   2.505 -1.3562  1.5541 -2.1907
  996MOL0     H34396   6.953   0.876   2.643  3.6518  1.4747  0.6823
  996MOL0     H34397   6.922   1.069   2.522  0.1393 -0.6987 -0.3570
  996MOL0     H34398   6.953   0.993   2.372  2.8843  2.1426  2.3790
  996MOL0     H34399   6.714   0.909   2.548 -1.7384  0.1396  0.0248
  996MOL0     H34400   6.704   1.045   2.434  0.7293  0.4041  1.9678
  996MOL0     H34401   6.800   0.872   2.258  3.1642  0.1568  2.4461
  996MOL0     H34402   6.767   0.738   2.361  0.3330 -0.5568 -1.5231
  996MOL0     H34403   6.521   0.832   2.368  0.6560  1.3980 -0.0726
  996MOL0     H34404   6.571   0.944   2.248  2.9643  0.6439  1.6869
  996MOL0     H34405   6.624   0.763   2.085  0.2155 -4.9917 -1.7193
  996MOL0     H34406   6.626   0.649   2.225  0.4758 -0.0728 -0.3056
  996MOL0     H34407   6.380   0.725   2.245 -0.7394  0.6847 -0.0626
  996MOL0     H34408   6.389   0.786   2.083 -1.9516  0.3359  0.0923
  996MOL0     H34409   6.461   0.490   2.143  1.8725 -0.5651 -1.9400
  996MOL0     H34410   6.467   0.572   1.990 -0.7548 -0.9759 -0.7472
  996MOL0     H34411   6.339   0.306   2.070  0.8931  3.0425  0.6191
  996MOL0     H34412   6.062   0.202   2.137  0.3250  1.3860  0.9241
  996MOL0     H34413   5.959   0.239   2.001 -0.0168  1.0205  0.2143
  996MOL0     H34414   6.245   0.139   1.940 -0.8093  1.0563 -1.6687
  996MOL0     H34415   6.111   0.167   1.835  0.8799 -0.8018 -0.1468
  996MOL0     H34416   6.001  -0.038   1.959 -0.9360  1.7022  1.0201
  996MOL0     H34417   6.146  -0.035   2.068  0.7176 -1.2308 -0.7821
  996MOL0     H34418   6.190  -0.074   1.774  2.2334  2.3768  0.9226
  996MOL0     H34419   6.152  -0.209   1.886  0.4050 -0.0642  1.7750
  996MOL0     H34420   6.588  -0.141   1.993  1.9362 -1.2779 -0.0075
  996MOL0     H34421   6.864  -0.272   1.847  0.4272 -3.6745 -0.7346
  996MOL0     H34422   6.803  -0.205   1.998 -2.3402  2.6677 -2.0994
  996MOL0     H34423   6.821  -0.384   1.987  0.3753 -0.5922 -1.1154
  996MOL0     H34424   6.548  -0.762   1.644  0.9428  2.8088 -0.5495
  996MOL0     H34425   6.606  -0.999   1.623 -0.5746  0.3200  1.9115
  996MOL0     H34426   6.988  -1.116   1.410 -0.2897  0.1153  1.0432
  996MOL0     H34427   7.036  -1.049   1.568 -1.1472  4.4026 -2.0424
  996MOL0     H34428   6.975  -1.275   1.677 -3.1490 -1.0997 -0.6436
  996MOL0     H34429   6.938  -1.342   1.519 -0.4017  1.5317 -2.1976
  996MOL0     H34430   7.218  -1.256   1.614  1.5342  1.5472 -1.7076
  996MOL0     H34431   7.189  -1.302   1.448  3.3673 -2.2693  0.2811
  996MOL0     H34432   7.140  -1.468   1.701 -0.7355 -2.0476 -0.0554
  996MOL0     H34433   7.087  -1.509   1.540  0.2897 -0.6162  1.1434
  996MOL0     H34434   7.371  -1.443   1.627 -2.2682 -3.7147  4.0213
  996MOL0     H34435   7.324  -1.500   1.461 -2.4502  0.5422 -1.1496
  996MOL0     H34436   7.326  -1.646   1.719  0.0344 -2.6401  0.1095
  996MOL0     H34437   7.243  -1.708   1.573 -0.4872  2.3542 -1.4760
  996MOL0     H34438   7.465  -1.691   1.448 -3.1219 -1.1426  0.3000
  996MOL0     H34439   7.462  -1.807   1.586  0.7777 -0.6950  1.1623
  996MOL0     H34440   7.579  -1.517   1.592  3.4419  0.4652 -0.0887
  996MOL0     H34441   7.678  -1.659   1.579 -0.5013 -0.3636 -0.5468
  996MOL0     H34442   7.001  -0.871   1.496 -0.8776 -1.8415  0.3685
  996MOL0     H34443   6.927  -0.634   1.503  1.1410  0.3120  3.3955
  996MOL0     H34444   6.460  -0.448   1.638  2.6841 -0.7431  0.1404
  996MOL0     H34445   6.291  -0.307   1.717  1.4913 -2.7575 -5.2407
  996MOL0     H34446   7.365   0.892   2.465 -1.2808  0.9769  0.1151
  996MOL0     H34447   7.546   0.712   2.489  1.0477 -3.7761  0.9644
  996MOL0     H34448   7.548   0.202   2.610  0.6081 -2.4921 -1.1280
  996MOL0     H34449   7.713   0.022   2.567 -0.0612 -0.3145  2.3311
  996MOL0     H34450   8.087  -0.069   2.690 -0.1358 -5.4599  1.2816
  996MOL0     H34451   7.907  -0.075   2.704  0.4883 -2.1894 -1.2296
  996MOL0     H34452   8.025  -0.162   2.464  0.8866  4.1699  1.7268
  996MOL0     H34453   7.875  -0.211   2.555 -0.4459  0.9400  3.4286
  996MOL0     H34454   8.015  -0.325   2.719  3.4534 -3.1029  2.0119
  996MOL0     H34455   8.160  -0.310   2.627 -1.0278 -1.2212  2.9170
  996MOL0     H34456   7.907  -0.454   2.523  0.5657 -3.5262  2.8511
  996MOL0     H34457   8.047  -0.530   2.581  2.3729 -0.7831 -0.6824
  996MOL0     H34458   8.209  -0.482   2.211  0.0988 -0.1351  0.5225
  996MOL0     H34459   8.027   0.308   2.556  0.3900  0.6248  0.5703
  996MOL0     H34460   7.859   0.489   2.589  2.4477 -0.1907 -2.2630
  997MOL0     O34461   2.272  10.918   7.226  0.0851  0.6889 -0.8172
  997MOL0     C34462   2.250  10.959   7.106  0.4707  0.4020  0.3311
  997MOL0     O34463   2.338  11.019   7.022 -0.0288 -0.1483 -1.0490
  997MOL0     C34464   2.461  11.037   7.074  0.4778  1.5537 -0.3828
  997MOL0     C34465   2.524  11.159   7.063 -1.2845 -0.8881  1.0646
  997MOL0     C34466   2.652  11.183   7.121 -1.1476  0.2720 -0.3287
  997MOL0     C34467   2.716  11.076   7.185  1.0399 -0.2329  0.3921
  997MOL0     O34468   2.840  11.072   7.244 -0.4121 -0.4573  0.4210
  997MOL0     C34469   2.909  11.195   7.271 -0.5840 -0.1597  0.7208
  997MOL0     C34470   2.847  11.253   7.394  0.0726 -0.4915  0.7405
  997MOL0     C34471   2.939  11.356   7.467 -0.2015  0.6593 -0.1424
  997MOL0     C34472   2.858  11.397   7.590 -0.0626  0.2769  0.6003
  997MOL0     C34473   2.915  11.521   7.658  0.4099  1.3889 -0.4483
  997MOL0     C34474   3.065  11.512   7.695 -0.6998  0.3375  0.0868
  997MOL0     C34475   3.108  11.637   7.770  0.3867  0.0492 -0.4404
  997MOL0     C34476   3.126  11.751   7.673 -0.5561 -0.9594  0.1330
  997MOL0     N34477   3.176  11.867   7.752 -0.1798  0.1200 -0.4703
  997MOL0     C34478   3.122  11.924   7.866  0.6594 -0.1164  0.4244
  997MOL0     C34479   3.145  12.056   7.854  1.1356  0.3118  0.3717
  997MOL0     C34480   3.095  12.171   7.943  0.5413  0.2875  0.1033
  997MOL0     C34481   3.192  12.179   8.067  0.3133  0.2409  0.4497
  997MOL0     C34482   3.348  12.219   8.051 -0.5172  0.4095  0.0296
  997MOL0     C34483   3.365  12.370   7.988  0.9440  0.7429  0.8907
  997MOL0     O34484   3.507  12.386   8.005 -0.0492 -0.3315  0.0248
  997MOL0     C34485   3.556  12.513   7.974  0.4543 -0.5386 -0.1125
  997MOL0     C34486   3.688  12.533   7.980  0.1118  0.7389  0.6006
  997MOL0     C34487   3.750  12.654   7.931  0.3174  0.5100 -0.2949
  997MOL0     C34488   3.896  12.650   7.933  0.0125  0.2878 -0.4943
  997MOL0     C34489   3.679  12.760   7.882  1.0066 -0.3790  0.0376
  997MOL0     C34490   3.729  12.890   7.832 -1.2452 -0.7077  0.1260
  997MOL0     O34491   3.640  12.973   7.778  0.1073  0.3188  0.5043
  997MOL0     C34492   3.689  13.085   7.708 -0.1395 -0.4957 -1.3645
  997MOL0     C34493   3.777  13.084   7.608 -0.0915 -0.3356 -0.2262
  997MOL0     C34494   3.832  13.202   7.566 -0.4921  0.1670 -0.3185
  997MOL0     C34495   3.810  13.328   7.633  0.3918  0.5921 -0.7754
  997MOL0     O34496   3.879  13.435   7.577 -0.3221 -0.3966  0.2448
  997MOL0     C34497   3.851  13.563   7.635 -0.1527 -0.0067  0.4617
  997MOL0     C34498   3.929  13.677   7.582 -0.0604  0.7811  0.5358
  997MOL0     C34499   4.082  13.660   7.580  0.5687  0.3262 -0.8407
  997MOL0     C34500   4.153  13.787   7.530 -0.5363 -0.0534  0.3823
  997MOL0     C34501   4.313  13.778   7.530 -0.4557  0.3134 -0.6632
  997MOL0     C34502   4.382  13.901   7.462 -0.3405  0.8049 -0.0951
  997MOL0     C34503   4.535  13.886   7.485 -1.0904 -0.3713  0.6223
  997MOL0     C34504   4.628  13.988   7.416  1.0961 -0.5781  0.3281
  997MOL0    Cl34505   4.789  13.999   7.500  0.2686  0.1636 -0.7270
  997MOL0     C34506   3.715  13.329   7.736  0.6556 -0.3336 -0.4641
  997MOL0     C34507   3.654  13.208   7.771  0.0843  1.0066  1.4039
  997MOL0     O34508   3.848  12.922   7.839  0.2750  0.4210 -0.5675
  997MOL0     C34509   3.543  12.736   7.878  0.4762 -0.6300 -0.0460
  997MOL0     C34510   3.477  12.618   7.926 -0.5229  0.2722 -0.8276
  997MOL0     N34511   3.218  12.068   7.738  0.6624 -0.3599  0.3028
  997MOL0     N34512   3.246  11.959   7.688  0.1354  0.4677  0.3633
  997MOL0     C34513   2.658  10.948   7.186  0.4552  0.0858 -0.6017
  997MOL0     C34514   2.536  10.925   7.131 -0.3980 -0.0453 -0.5213
  997MOL0     C34515   2.105  10.960   7.052 -0.4572 -0.6740 -0.0985
  997MOL0     C34516   2.095  10.971   6.907 -0.1426  0.1554 -0.4094
  997MOL0     C34517   1.970  10.944   6.853  0.1782 -0.2704  0.6570
  997MOL0     C34518   1.853  10.943   6.938  0.2134  0.1915 -0.1312
  997MOL0     O34519   1.735  10.919   6.867 -0.1002 -0.4401 -0.4168
  997MOL0     C34520   1.619  10.917   6.947  0.0509 -0.6591  0.1123
  997MOL0     C34521   1.505  10.894   6.859 -0.0287 -0.2730 -0.1598
  997MOL0     C34522   1.380  10.841   6.936  0.2794  0.2948  1.2318
  997MOL0     C34523   1.335  10.927   7.050  0.3377  0.0998 -0.0829
  997MOL0     C34524   1.204  10.887   7.107 -0.6242  0.4960 -0.3174
  997MOL0     C34525   1.114  10.854   7.170  0.5533 -0.0346  0.4170
  997MOL0     C34526   1.866  10.949   7.079 -1.0947 -0.2076  1.0133
  997MOL0     C34527   1.993  10.963   7.137 -0.2721 -0.6902  0.1243
  997MOL0     H34528   2.456  11.227   7.012 -0.4741  1.0060  2.4175
  997MOL0     H34529   2.700  11.281   7.112 -2.0206  0.6396 -1.1951
  997MOL0     H34530   3.015  11.182   7.291 -1.1309 -1.1544  3.4496
  997MOL0     H34531   2.900  11.258   7.183  1.8851 -0.4724  0.1767
  997MOL0     H34532   2.761  11.314   7.363  1.1979 -0.6178 -3.2694
  997MOL0     H34533   2.802  11.180   7.461  0.9792 -2.6186 -0.8569
  997MOL0     H34534   3.031  11.302   7.490 -1.9084 -2.6299 -0.3694
  997MOL0     H34535   2.956  11.433   7.391 -0.1631 -1.3691 -2.2979
  997MOL0     H34536   2.757  11.428   7.561  0.7114 -0.3656 -3.2663
  997MOL0     H34537   2.861  11.308   7.655  3.1978 -0.4028 -0.3130
  997MOL0     H34538   2.897  11.608   7.594 -1.4670  0.5399 -1.1547
  997MOL0     H34539   2.856  11.541   7.747  0.3990 -2.2414  0.5221
  997MOL0     H34540   3.078  11.437   7.774  0.1893  1.7836  1.3697
  997MOL0     H34541   3.131  11.487   7.612  1.7289 -1.2815  2.3372
  997MOL0     H34542   3.041  11.667   7.850  1.9211 -0.2604  1.0166
  997MOL0     H34543   3.208  11.631   7.815 -0.3249  0.7284  1.3190
  997MOL0     H34544   3.037  11.778   7.615  0.1685  0.6178 -0.3225
  997MOL0     H34545   3.203  11.716   7.604 -0.6251 -1.4291  0.2926
  997MOL0     H34546   3.052  11.872   7.929 -0.1783  1.4057  0.8005
  997MOL0     H34547   3.091  12.269   7.895 -0.9741  0.4697  0.5339
  997MOL0     H34548   2.994  12.151   7.982 -0.0986  3.3146  0.2202
  997MOL0     H34549   3.192  12.083   8.119  1.8780 -2.3061 -3.7544
  997MOL0     H34550   3.152  12.262   8.126  0.7168  0.8592 -0.1310
  997MOL0     H34551   3.406  12.147   7.993 -1.4692 -1.7572  1.6387
  997MOL0     H34552   3.391  12.216   8.151  1.0970 -0.4480 -0.6671
  997MOL0     H34553   3.311  12.451   8.037 -0.9456  0.2899 -0.3255
  997MOL0     H34554   3.336  12.366   7.883  0.6189 -0.1103  1.0005
  997MOL0     H34555   3.744  12.460   8.036 -2.3985  0.0111  2.3339
  997MOL0     H34556   3.942  12.675   7.837 -2.2984  1.5522 -1.3718
  997MOL0     H34557   3.943  12.714   8.008 -0.5254 -3.1846  3.1249
  997MOL0     H34558   3.927  12.550   7.962  0.9372  1.1999  1.8729
  997MOL0     H34559   3.798  12.990   7.559 -0.6925 -1.4794  1.6087
  997MOL0     H34560   3.910  13.199   7.490  0.2394  1.7565  0.3133
  997MOL0     H34561   3.743  13.582   7.626 -0.3414 -0.5918  1.3421
  997MOL0     H34562   3.881  13.555   7.739 -0.0454 -1.3106  0.3472
  997MOL0     H34563   3.894  13.701   7.481  0.9641 -3.2565 -0.9953
  997MOL0     H34564   3.916  13.751   7.661  0.6651  0.0978  1.3246
  997MOL0     H34565   4.116  13.571   7.527  1.2663 -1.8600  2.9341
  997MOL0     H34566   4.107  13.655   7.687  1.8415  3.3064 -0.8891
  997MOL0     H34567   4.127  13.804   7.425 -0.5427 -1.2277  0.1874
  997MOL0     H34568   4.120  13.873   7.590 -0.3020 -0.9219  1.8115
  997MOL0     H34569   4.351  13.688   7.481  0.8681 -0.8318  2.2812
  997MOL0     H34570   4.351  13.777   7.632 -2.6781  0.8489  0.2432
  997MOL0     H34571   4.360  13.929   7.358 -1.0501  4.7511  0.9612
  997MOL0     H34572   4.344  13.985   7.520 -1.5836  0.0110  0.2745
  997MOL0     H34573   4.568  13.786   7.455 -0.6953 -0.7583  2.2246
  997MOL0     H34574   4.557  13.898   7.592  2.1638 -4.3075  0.6171
  997MOL0     H34575   4.581  14.087   7.423  2.4128  0.1225 -0.4643
  997MOL0     H34576   4.658  13.972   7.312 -0.6149 -1.7808 -0.0325
  997MOL0     H34577   3.689  13.420   7.789 -1.0085 -2.1066  2.0394
  997MOL0     H34578   3.586  13.201   7.855  0.5774  1.0498  1.8033
  997MOL0     H34579   3.474  12.806   7.833  0.3009 -1.3047 -0.8507
  997MOL0     H34580   3.372  12.599   7.910 -0.5949 -0.4490  0.4375
  997MOL0     H34581   2.711  10.868   7.236 -1.1276 -1.1319 -0.7823
  997MOL0     H34582   2.495  10.825   7.129 -3.4461  1.0229  1.7301
  997MOL0     H34583   2.185  10.991   6.850  0.9023  3.6475  2.1534
  997MOL0     H34584   1.970  10.948   6.745  0.9584 -0.3392  0.6505
  997MOL0     H34585   1.633  10.842   7.026 -2.4123 -1.2218  0.0726
  997MOL0     H34586   1.614  11.011   7.002 -0.7897 -1.3330  1.2511
  997MOL0     H34587   1.546  10.822   6.788  1.9010 -0.6218  1.2233
  997MOL0     H34588   1.478  10.980   6.797  0.1494 -1.0723 -1.3904
  997MOL0     H34589   1.405  10.746   6.985  1.1512  0.3223  0.8619
  997MOL0     H34590   1.293  10.831   6.871  2.8248 -1.6251 -2.2402
  997MOL0     H34591   1.337  11.033   7.021  0.6117 -0.3620 -1.8740
  997MOL0     H34592   1.411  10.920   7.129 -0.1489 -1.0607  0.2879
  997MOL0     H34593   1.020  10.830   7.217  0.3788 -0.3652 -0.0950
  997MOL0     H34594   1.788  10.933   7.153 -0.3021 -4.4444  1.2186
  997MOL0     H34595   2.001  10.967   7.245 -0.8266  1.5819  0.1231
  998MOL0     O34596   2.697   6.567   3.655 -0.0092  0.1007  0.0824
  998MOL0     C34597   2.784   6.526   3.584  0.1806  0.6404  0.4935
  998MOL0     O34598   2.787   6.553   3.447  0.3800 -0.1593 -0.4267
  998MOL0     C34599   2.716   6.662   3.393  0.0411 -0.1459 -0.7485
  998MOL0     C34600   2.707   6.781   3.471  0.2643  0.1031  0.1804
  998MOL0     C34601   2.627   6.880   3.412 -1.3510  0.7879  0.9085
  998MOL0     C34602   2.590   6.884   3.277 -0.1407  0.4699 -0.4744
  998MOL0     O34603   2.513   6.985   3.238  0.6173 -0.3390 -0.3342
  998MOL0     C34604   2.509   7.028   3.100  0.0698  0.0739  0.6146
  998MOL0     C34605   2.410   7.149   3.093 -0.4374  0.0501 -0.7300
  998MOL0     C34606   2.465   7.285   3.153  0.7578 -0.1582 -0.4512
  998MOL0     C34607   2.441   7.303   3.309 -1.6142  0.1741  0.1709
  998MOL0     C34608   2.496   7.431   3.361  0.4921 -1.0642  0.4896
  998MOL0     C34609   2.440   7.468   3.500  0.6573  0.4327 -0.0857
  998MOL0     C34610   2.480   7.374   3.612  0.6382  0.4311  0.1096
  998MOL0     C34611   2.484   7.462   3.745 -0.0816  0.1014 -0.3181
  998MOL0     N34612   2.420   7.373   3.847  0.3388  0.4462  0.3960
  998MOL0     C34613   2.485   7.278   3.930 -0.5936 -0.2643  0.0522
  998MOL0     C34614   2.380   7.221   3.998 -0.3553 -0.1933  0.5385
  998MOL0     C34615   2.393   7.110   4.093 -0.1233 -0.4428  0.1642
  998MOL0     C34616   2.513   7.120   4.175 -0.5586  0.7730 -1.4969
  998MOL0     C34617   2.530   7.238   4.278 -0.2548  0.6149  1.3486
  998MOL0     C34618   2.655   7.218   4.367  0.3010 -0.1224 -0.0535
  998MOL0     O34619   2.658   7.120   4.479 -0.6174 -0.7924  0.3583
  998MOL0     C34620   2.771   7.046   4.512  0.5520 -0.3990  0.4181
  998MOL0     C34621   2.897   7.048   4.450  0.8192  0.5806 -0.3498
  998MOL0     C34622   3.007   6.976   4.498 -0.3839 -0.0854 -0.8971
  998MOL0     C34623   3.141   6.986   4.421  0.2043  0.6436  0.3557
  998MOL0     C34624   2.984   6.885   4.603 -1.5310  0.2851  0.1076
  998MOL0     C34625   3.087   6.799   4.662 -0.8097  0.0391 -0.1280
  998MOL0     O34626   3.051   6.664   4.683  0.4034  0.0673 -0.1779
  998MOL0     C34627   3.138   6.565   4.730 -0.0364  0.1618  0.3524
  998MOL0     C34628   3.270   6.560   4.703 -0.6342 -0.1412  1.3658
  998MOL0     C34629   3.342   6.438   4.746  0.2785 -0.1461 -0.0840
  998MOL0     C34630   3.282   6.332   4.818  0.9402 -0.3478  0.8434
  998MOL0     O34631   3.362   6.227   4.860  0.1031  0.7418  0.0617
  998MOL0     C34632   3.437   6.247   4.979  0.4649 -0.1639 -0.5617
  998MOL0     C34633   3.364   6.185   5.097 -0.1608  0.3494 -0.6042
  998MOL0     C34634   3.423   6.209   5.241  0.5724 -0.7264  0.6089
  998MOL0     C34635   3.526   6.111   5.293  0.4296  0.1198  0.5394
  998MOL0     C34636   3.580   6.134   5.432 -0.2391 -0.9881  0.2759
  998MOL0     C34637   3.670   6.266   5.431 -0.1126 -0.0574  0.8198
  998MOL0     C34638   3.803   6.247   5.355  1.1090  0.0232  0.1535
  998MOL0     C34639   3.906   6.337   5.410 -0.2377  0.1598 -0.3708
  998MOL0    Cl34640   3.980   6.229   5.537  0.4013 -0.0822 -0.2515
  998MOL0     C34641   3.151   6.346   4.846  0.4824  0.1097  0.6537
  998MOL0     C34642   3.082   6.457   4.802  0.8931 -0.6430  0.2690
  998MOL0     O34643   3.197   6.842   4.681 -0.7024 -0.1587 -0.4278
  998MOL0     C34644   2.851   6.868   4.658 -0.3092  0.1099 -0.2614
  998MOL0     C34645   2.751   6.945   4.604 -0.5885 -0.1401  0.0012
  998MOL0     N34646   2.265   7.286   3.967 -0.2881 -0.0639 -0.9697
  998MOL0     N34647   2.289   7.379   3.888 -0.5221 -0.1613 -0.4193
  998MOL0     C34648   2.615   6.763   3.200 -0.5556  0.2785  0.0650
  998MOL0     C34649   2.671   6.653   3.262 -1.0238  0.8552 -0.3930
  998MOL0     C34650   2.876   6.417   3.641 -0.6013  0.1299 -2.0471
  998MOL0     C34651   2.842   6.372   3.776  0.3525  0.3437  0.2193
  998MOL0     C34652   2.930   6.285   3.845  0.6422  0.2726 -0.0788
  998MOL0     C34653   3.048   6.235   3.784 -0.8067 -0.6422  1.1169
  998MOL0     O34654   3.129   6.138   3.838  0.2386 -0.6085 -0.6434
  998MOL0     C34655   3.262   6.123   3.789  0.0212  0.9582  0.3970
  998MOL0     C34656   3.362   6.057   3.881  0.1179  0.3560  0.7258
  998MOL0     C34657   3.371   6.129   4.024  0.6905 -0.5934  0.2176
  998MOL0     C34658   3.446   6.046   4.124  0.0564  1.2180  0.0820
  998MOL0     C34659   3.556   5.969   4.060  0.3089  0.6490  0.0370
  998MOL0     C34660   3.644   5.906   4.000 -0.6743 -0.1528 -0.2863
  998MOL0     C34661   3.075   6.273   3.643 -0.4362  1.0427 -0.0286
  998MOL0     C34662   2.991   6.369   3.585  0.6906  0.4840  0.8593
  998MOL0     H34663   2.746   6.803   3.570 -0.2806 -0.6953  0.5825
  998MOL0     H34664   2.594   6.966   3.469  0.3600  1.1076  1.4923
  998MOL0     H34665   2.609   7.056   3.067 -0.0380  1.7898  1.5781
  998MOL0     H34666   2.477   6.947   3.035 -1.1886  0.0299  1.2423
  998MOL0     H34667   2.380   7.156   2.988  0.9265  1.3786 -1.0687
  998MOL0     H34668   2.325   7.118   3.154  0.0757  1.9777  1.1041
  998MOL0     H34669   2.574   7.298   3.143  1.5599 -2.5232  3.4556
  998MOL0     H34670   2.417   7.368   3.100 -0.3702  1.6619  3.1273
  998MOL0     H34671   2.333   7.311   3.324 -1.8497 -0.9219 -0.7623
  998MOL0     H34672   2.488   7.227   3.373 -0.2950 -0.0397 -0.9921
  998MOL0     H34673   2.602   7.424   3.386  0.2972  1.0212  2.1461
  998MOL0     H34674   2.487   7.517   3.293  2.4427  1.0876  2.7734
  998MOL0     H34675   2.483   7.567   3.520 -0.0839  0.4390  1.6228
  998MOL0     H34676   2.334   7.488   3.484  0.2708 -1.9066 -0.8490
  998MOL0     H34677   2.398   7.301   3.618 -0.4142  1.4282 -1.5902
  998MOL0     H34678   2.566   7.308   3.595  0.0644 -0.1958 -0.4090
  998MOL0     H34679   2.431   7.558   3.741 -2.1239 -0.9216  0.6688
  998MOL0     H34680   2.587   7.485   3.775 -0.3594 -2.4307  3.2770
  998MOL0     H34681   2.591   7.257   3.943 -0.3060  1.2715  0.4592
  998MOL0     H34682   2.311   7.126   4.164  1.7590  0.0548  2.3369
  998MOL0     H34683   2.371   7.017   4.040 -3.3529 -1.2684  2.6361
  998MOL0     H34684   2.601   7.112   4.110 -0.2622  0.4332 -1.0628
  998MOL0     H34685   2.517   7.028   4.234 -0.3625  3.0554  2.3770
  998MOL0     H34686   2.446   7.244   4.348 -0.9384  1.0847  0.5091
  998MOL0     H34687   2.532   7.332   4.223 -2.2835 -0.6874 -1.1742
  998MOL0     H34688   2.664   7.315   4.416 -1.4299  1.0109 -1.8486
  998MOL0     H34689   2.742   7.207   4.302  0.0045 -2.4619 -0.1484
  998MOL0     H34690   2.925   7.106   4.363 -0.2164 -0.4198 -1.3776
  998MOL0     H34691   3.153   7.076   4.360  0.9878 -0.7250 -1.6063
  998MOL0     H34692   3.231   6.959   4.476  0.0263 -3.4507 -1.0020
  998MOL0     H34693   3.135   6.915   4.338  1.7358  0.2052  0.5920
  998MOL0     H34694   3.320   6.628   4.634 -0.2672 -1.9003 -0.1670
  998MOL0     H34695   3.450   6.431   4.734  0.2200  0.5483 -1.1419
  998MOL0     H34696   3.532   6.195   4.960  1.3347  1.3130 -0.4227
  998MOL0     H34697   3.453   6.353   5.000 -2.5366  0.9279 -3.0887
  998MOL0     H34698   3.265   6.231   5.094 -2.1520 -3.5347 -1.8157
  998MOL0     H34699   3.348   6.077   5.086 -0.2170  0.4057 -1.0769
  998MOL0     H34700   3.332   6.215   5.302  1.3579 -0.4001  1.7828
  998MOL0     H34701   3.472   6.307   5.248  0.3827 -0.3354 -2.2834
  998MOL0     H34702   3.484   6.010   5.297  1.4925 -0.5603 -2.4743
  998MOL0     H34703   3.610   6.099   5.224 -0.5941 -1.0139 -0.5490
  998MOL0     H34704   3.639   6.047   5.463 -0.3835 -0.3529  2.5122
  998MOL0     H34705   3.499   6.153   5.503  1.5190  0.6742  1.9420
  998MOL0     H34706   3.620   6.354   5.388  1.6649  0.3924 -0.4720
  998MOL0     H34707   3.688   6.293   5.535 -1.9082 -0.4682  1.2627
  998MOL0     H34708   3.777   6.273   5.253 -1.5949 -1.2999  0.4190
  998MOL0     H34709   3.834   6.142   5.361 -2.6851 -1.2736 -0.6387
  998MOL0     H34710   3.858   6.430   5.439 -1.0525 -0.6749  1.1164
  998MOL0     H34711   3.988   6.349   5.338  1.0935 -3.6998  0.2352
  998MOL0     H34712   3.094   6.275   4.905 -0.8524 -0.0221 -0.7366
  998MOL0     H34713   2.975   6.448   4.820  0.5406 -3.0849 -2.3312
  998MOL0     H34714   2.841   6.812   4.751  2.8977 -1.0160 -0.4618
  998MOL0     H34715   2.653   6.926   4.645  1.1722 -2.8518  3.4776
  998MOL0     H34716   2.582   6.758   3.097 -1.6448 -0.6953  0.4440
  998MOL0     H34717   2.675   6.560   3.206 -0.3635  1.6700 -1.7141
  998MOL0     H34718   2.741   6.387   3.814 -0.1557 -0.3579 -0.7996
  998MOL0     H34719   2.910   6.252   3.947 -3.1155 -1.3294 -1.1638
  998MOL0     H34720   3.252   6.066   3.696 -2.3573  2.4525 -0.3761
  998MOL0     H34721   3.284   6.230   3.782 -1.1926  1.2636  0.9464
  998MOL0     H34722   3.456   6.070   3.825 -1.3576  1.0002 -1.7756
  998MOL0     H34723   3.325   5.955   3.896  1.9047 -1.1225 -3.3516
  998MOL0     H34724   3.265   6.137   4.053  0.3349 -2.7020 -0.2913
  998MOL0     H34725   3.414   6.229   4.020  0.6298 -0.6005 -1.3759
  998MOL0     H34726   3.381   5.981   4.184 -0.3655 -0.0124 -1.6189
  998MOL0     H34727   3.495   6.119   4.188  0.5903  1.2064 -0.3134
  998MOL0     H34728   3.728   5.852   3.961  1.2559  2.2804  0.2431
  998MOL0     H34729   3.142   6.210   3.586  1.0140  1.2267  1.3886
  998MOL0     H34730   3.011   6.403   3.484  1.9421  0.3214  1.0307
  999MOL0     O34731  10.689   4.818   6.039  0.0296  0.2107  0.0039
  999MOL0     C34732  10.575   4.803   6.072  0.5164 -0.5703  0.2386
  999MOL0     O34733  10.508   4.873   6.172 -0.9646  0.4794  0.3135
  999MOL0     C34734  10.558   4.972   6.260 -0.5644 -0.3895 -0.1666
  999MOL0     C34735  10.686   5.007   6.284 -0.5148 -0.4167 -0.7827
  999MOL0     C34736  10.719   5.106   6.375  0.0010  0.4575  0.5731
  999MOL0     C34737  10.615   5.164   6.449  0.3708 -0.0274 -0.6801
  999MOL0     O34738  10.633   5.244   6.562  0.7281  0.5650  0.5345
  999MOL0     C34739  10.728   5.200   6.649  0.1446  1.0567 -0.3386
  999MOL0     C34740  10.732   5.295   6.765 -0.0922 -0.5521  0.2501
  999MOL0     C34741  10.872   5.292   6.842  0.1247  0.2611 -0.1550
  999MOL0     C34742  10.860   5.369   6.975 -0.2310  0.2405  0.6329
  999MOL0     C34743  11.002   5.381   7.038  0.0602 -0.0235  0.0241
  999MOL0     C34744  11.071   5.493   6.980 -0.8475  0.3003 -0.0080
  999MOL0     C34745  11.202   5.522   7.054  0.3602  0.6077 -0.1139
  999MOL0     C34746  11.280   5.629   6.980  0.3693 -0.1602 -0.3883
  999MOL0     N34747  11.198   5.751   6.939  0.7376  0.8529 -0.5082
  999MOL0     C34748  11.111   5.775   6.830  0.3618  0.2362 -0.5246
  999MOL0     C34749  11.060   5.901   6.855  0.6027  0.7850  0.4205
  999MOL0     C34750  10.961   5.971   6.768 -0.2554  0.8255 -0.3027
  999MOL0     C34751  10.859   5.873   6.709 -0.1769 -0.1721 -0.6331
  999MOL0     C34752  10.770   5.806   6.813 -0.6072  0.5582  0.1309
  999MOL0     C34753  10.661   5.725   6.734 -0.1647  0.2708  0.4784
  999MOL0     O34754  10.585   5.652   6.835 -0.5468 -0.7792  0.4808
  999MOL0     C34755  10.466   5.607   6.786 -0.2988 -0.1853 -1.1127
  999MOL0     C34756  10.360   5.630   6.870 -0.5829  0.6113  0.3214
  999MOL0     C34757  10.237   5.579   6.843  0.1336 -1.6779  0.5288
  999MOL0     C34758  10.131   5.625   6.956 -0.1302  0.4678  0.2978
  999MOL0     C34759  10.226   5.499   6.724 -0.3443 -0.8097 -0.4312
  999MOL0     C34760  10.100   5.431   6.694 -0.4258 -0.3343  0.0672
  999MOL0     O34761  10.018   5.396   6.797 -0.0020  0.1368  0.6347
  999MOL0     C34762   9.884   5.387   6.771  0.0218 -0.2454 -0.5382
  999MOL0     C34763   9.806   5.297   6.845 -0.2982 -0.2731 -0.2508
  999MOL0     C34764   9.667   5.283   6.829  0.4762 -0.2152 -1.3652
  999MOL0     C34765   9.598   5.360   6.730 -1.0131  0.7428 -1.2680
  999MOL0     O34766   9.468   5.344   6.705  0.5060  0.3899 -0.4898
  999MOL0     C34767   9.401   5.428   6.618  0.0257 -1.6697 -0.7736
  999MOL0     C34768   9.252   5.419   6.663 -0.4665 -0.1115 -0.4670
  999MOL0     C34769   9.174   5.545   6.608  0.4367  0.2816 -0.2178
  999MOL0     C34770   9.054   5.579   6.697 -0.2345  0.0498  0.7542
  999MOL0     C34771   8.968   5.679   6.632 -0.1000 -0.3788  0.4821
  999MOL0     C34772   9.024   5.821   6.612 -0.0917 -0.2163  0.6300
  999MOL0     C34773   9.050   5.899   6.740 -0.5439  0.6634  0.6937
  999MOL0     C34774   9.123   6.026   6.707 -0.5343  0.2925 -0.0533
  999MOL0    Cl34775   9.294   6.011   6.672  0.3491 -0.1667 -0.0740
  999MOL0     C34776   9.681   5.444   6.648  0.6076  0.4467 -0.4932
  999MOL0     C34777   9.819   5.459   6.670  0.6013 -0.0635 -0.3398
  999MOL0     O34778  10.083   5.408   6.576 -0.3795  0.0880  0.2958
  999MOL0     C34779  10.330   5.483   6.634  0.6964 -0.6166  0.9691
  999MOL0     C34780  10.449   5.535   6.668 -0.4466 -0.0124  0.2472
  999MOL0     N34781  11.108   5.948   6.968  0.1283 -0.0274 -0.3567
  999MOL0     N34782  11.196   5.865   7.015 -0.4264 -0.7675 -0.2337
  999MOL0     C34783  10.487   5.118   6.436  0.6012 -0.2166  0.2820
  999MOL0     C34784  10.464   5.025   6.337  0.9419  0.1588  0.2067
  999MOL0     C34785  10.489   4.709   5.986 -0.0600 -0.3091 -0.7920
  999MOL0     C34786  10.356   4.676   6.022 -0.6522 -0.5240 -0.8456
  999MOL0     C34787  10.279   4.589   5.946 -0.2862  0.1709 -0.5101
  999MOL0     C34788  10.332   4.519   5.844 -0.4440  0.1667 -0.8715
  999MOL0     O34789  10.240   4.437   5.784  0.5188 -1.2133  0.9729
  999MOL0     C34790  10.274   4.394   5.647  0.0809  0.3669  0.2432
  999MOL0     C34791  10.157   4.353   5.557 -0.3327 -0.1847 -0.4154
  999MOL0     C34792  10.079   4.481   5.522  0.5831 -0.0769  0.1095
  999MOL0     C34793   9.968   4.515   5.618  0.2278 -1.2483  0.2409
  999MOL0     C34794   9.893   4.407   5.670  0.1080  0.9230  0.6954
  999MOL0     C34795   9.802   4.335   5.698 -0.2096  0.0076  0.2690
  999MOL0     C34796  10.470   4.535   5.814 -0.1515  0.0613 -0.2110
  999MOL0     C34797  10.542   4.632   5.879  0.4940 -0.4899  0.8667
  999MOL0     H34798  10.762   4.968   6.217  0.6283  0.3473  0.0201
  999MOL0     H34799  10.824   5.125   6.392  1.1915 -4.7900  0.6290
  999MOL0     H34800  10.706   5.100   6.687  2.0188  0.2985 -1.1215
  999MOL0     H34801  10.823   5.190   6.596 -0.3333 -3.9008 -0.7226
  999MOL0     H34802  10.718   5.391   6.714  0.3345 -1.0160 -0.7630
  999MOL0     H34803  10.645   5.274   6.828  0.6595 -1.0503  1.1523
  999MOL0     H34804  10.902   5.189   6.864 -2.5392 -0.7189 -0.6875
  999MOL0     H34805  10.941   5.339   6.773  0.8739 -1.2629 -0.4847
  999MOL0     H34806  10.793   5.456   6.973  1.3944  1.5565  0.9072
  999MOL0     H34807  10.801   5.296   7.032  2.9297 -2.7469  0.3957
  999MOL0     H34808  10.995   5.403   7.145  3.4932 -0.6330  0.4907
  999MOL0     H34809  11.054   5.287   7.021 -0.2709  0.0564 -1.5651
  999MOL0     H34810  11.097   5.462   6.879  2.0236 -2.4221  1.4208
  999MOL0     H34811  11.007   5.582   6.975 -0.1629  0.9378  1.8492
  999MOL0     H34812  11.177   5.543   7.158 -1.8387 -2.3549  0.0850
  999MOL0     H34813  11.262   5.430   7.048  0.2998  0.6433 -2.2385
  999MOL0     H34814  11.331   5.598   6.888  0.6049  2.0458 -1.0495
  999MOL0     H34815  11.347   5.669   7.056  0.8942 -0.5032 -0.6694
  999MOL0     H34816  11.089   5.702   6.752 -0.3715 -1.7241  1.4108
  999MOL0     H34817  10.913   6.050   6.826 -5.2862 -1.2428 -1.1645
  999MOL0     H34818  11.004   6.017   6.678 -1.4881 -0.7139 -1.7656
  999MOL0     H34819  10.911   5.796   6.651  0.8967 -1.4050  1.8089
  999MOL0     H34820  10.795   5.938   6.649 -1.5207  1.2796  2.1498
  999MOL0     H34821  10.729   5.885   6.876  0.5398  3.0252 -2.0637
  999MOL0     H34822  10.835   5.740   6.872 -1.2944  0.1910  0.4930
  999MOL0     H34823  10.701   5.655   6.660 -0.4553  1.0795 -0.4610
  999MOL0     H34824  10.593   5.797   6.689 -0.1869  2.1899  3.3338
  999MOL0     H34825  10.380   5.688   6.960 -0.5979  1.9540 -0.5146
  999MOL0     H34826  10.192   5.631   7.047  2.5391 -1.7804 -1.1804
  999MOL0     H34827  10.088   5.723   6.930 -0.8411  0.6459  1.9852
  999MOL0     H34828  10.055   5.550   6.978  0.3574 -0.2825 -0.5557
  999MOL0     H34829   9.856   5.224   6.907  1.4749 -0.4814 -1.8454
  999MOL0     H34830   9.627   5.192   6.872 -1.4964 -1.7059 -5.7807
  999MOL0     H34831   9.423   5.535   6.625 -6.4040 -0.0388  1.1515
  999MOL0     H34832   9.410   5.395   6.514 -0.8212 -0.9639 -1.0904
  999MOL0     H34833   9.209   5.332   6.613 -0.4411  1.5243 -3.5860
  999MOL0     H34834   9.247   5.407   6.771  5.0326 -0.7179  0.0338
  999MOL0     H34835   9.146   5.523   6.505  0.6114  0.7424 -0.3656
  999MOL0     H34836   9.240   5.633   6.607 -3.1479  3.2281 -1.0392
  999MOL0     H34837   8.986   5.497   6.724 -2.1276  1.8934  1.8785
  999MOL0     H34838   9.086   5.622   6.793 -0.7467  3.5233 -0.5049
  999MOL0     H34839   8.876   5.688   6.689 -1.0526  0.7681 -1.1417
  999MOL0     H34840   8.939   5.630   6.538 -1.5412  2.5630 -0.7627
  999MOL0     H34841   9.120   5.808   6.562 -1.0879 -3.2823 -0.7060
  999MOL0     H34842   8.961   5.882   6.547 -1.2065 -2.6506 -0.6954
  999MOL0     H34843   9.114   5.834   6.800  0.2932  0.5941 -0.2634
  999MOL0     H34844   8.957   5.917   6.795 -0.3874  0.6776  0.9559
  999MOL0     H34845   9.116   6.090   6.795 -2.8445 -0.3322  0.3015
  999MOL0     H34846   9.072   6.077   6.625  0.4187  0.1989 -0.7218
  999MOL0     H34847   9.634   5.485   6.559 -1.6570 -0.3636  0.2458
  999MOL0     H34848   9.865   5.545   6.622  0.5734  0.6391  0.8496
  999MOL0     H34849  10.318   5.430   6.540 -2.9588 -1.0576  1.5523
  999MOL0     H34850  10.539   5.516   6.610  1.3217  2.4022  1.9937
  999MOL0     H34851  10.396   5.144   6.489 -0.2674 -1.3112 -0.5944
  999MOL0     H34852  10.364   4.985   6.326  0.9717 -0.0060  0.5232
  999MOL0     H34853  10.308   4.736   6.099 -0.7090 -3.0983  1.2611
  999MOL0     H34854  10.175   4.578   5.973 -0.7333  1.3748 -1.6152
  999MOL0     H34855  10.337   4.468   5.597 -1.7509  0.4794 -2.0633
  999MOL0     H34856  10.332   4.302   5.660 -0.1937  0.4280  2.1795
  999MOL0     H34857  10.101   4.266   5.592 -0.1283 -0.3382 -0.4690
  999MOL0     H34858  10.211   4.316   5.470  0.8244  1.8122 -0.6122
  999MOL0     H34859  10.040   4.469   5.420  1.6848 -1.6684 -0.1779
  999MOL0     H34860  10.149   4.564   5.512 -1.0668  1.1437 -2.0338
  999MOL0     H34861   9.911   4.595   5.570  2.4249  0.2694 -0.0359
  999MOL0     H34862  10.011   4.574   5.700 -0.1446  0.1592 -0.5415
  999MOL0     H34863   9.712   4.282   5.720 -1.0947  0.8142 -1.2298
  999MOL0     H34864  10.530   4.491   5.734 -0.4645  0.8626 -0.8989
  999MOL0     H34865  10.642   4.647   5.840  0.5827 -4.1816 -0.6672
 1000MOL0     O34866   7.144  10.637  10.425  0.8074 -0.1740 -0.0836
 1000MOL0     C34867   7.131  10.532  10.367 -0.2624  1.2802 -0.4451
 1000MOL0     O34868   7.196  10.410  10.401 -0.1734  0.3097 -0.0871
 1000MOL0     C34869   7.301  10.425  10.484 -0.4339  0.0237 -1.0156
 1000MOL0     C34870   7.290  10.408  10.624 -0.1097  0.5584  0.5464
 1000MOL0     C34871   7.396  10.441  10.711  0.3124  0.1072  0.6126
 1000MOL0     C34872   7.516  10.482  10.658 -0.3214  0.7380  0.2961
 1000MOL0     O34873   7.623  10.513  10.733  0.2379  0.1946  0.1401
 1000MOL0     C34874   7.684  10.401  10.793  0.7771  0.4531  0.9872
 1000MOL0     C34875   7.819  10.431  10.838  0.2839 -0.3652 -0.2364
 1000MOL0     C34876   7.869  10.316  10.919  0.7817  0.0774  0.2630
 1000MOL0     C34877   8.006  10.344  10.988  0.5458  0.4207  0.5366
 1000MOL0     C34878   8.038  10.228  11.072  0.1989  0.2987 -0.4795
 1000MOL0     C34879   8.184  10.224  11.122  0.0246  0.0065 -0.2025
 1000MOL0     C34880   8.207  10.088  11.209  0.4606  0.4594  0.5816
 1000MOL0     C34881   8.364  10.063  11.209  0.6646  0.1384  0.3720
 1000MOL0     N34882   8.430  10.161  11.296 -0.4698 -0.4140  0.1759
 1000MOL0     C34883   8.428  10.146  11.431  0.1565  0.3066 -0.0784
 1000MOL0     C34884   8.523  10.238  11.472 -0.5289  0.2106  0.2275
 1000MOL0     C34885   8.573  10.223  11.614 -0.1138 -0.5582 -0.4201
 1000MOL0     C34886   8.568  10.361  11.685  0.5359 -0.8450  0.2982
 1000MOL0     C34887   8.436  10.422  11.743  0.6431 -0.2687 -0.2379
 1000MOL0     C34888   8.322  10.465  11.642 -0.5804 -0.5839 -0.2889
 1000MOL0     O34889   8.251  10.347  11.603  0.1039  0.0464 -0.0712
 1000MOL0     C34890   8.138  10.366  11.526  0.4527  0.4673 -0.7216
 1000MOL0     C34891   8.044  10.261  11.509 -0.0063  0.3416 -0.6829
 1000MOL0     C34892   7.927  10.276  11.435 -0.1199  0.5822 -0.1846
 1000MOL0     C34893   7.837  10.152  11.426 -1.0923  0.2793 -0.3330
 1000MOL0     C34894   7.913  10.394  11.363  0.0609  0.3863  0.0469
 1000MOL0     C34895   7.786  10.428  11.269 -0.4549  0.8682 -0.0645
 1000MOL0     O34896   7.687  10.332  11.258 -0.7602  0.1124  1.0049
 1000MOL0     C34897   7.558  10.367  11.213  0.7817 -0.0418  0.4534
 1000MOL0     C34898   7.493  10.501  11.224  0.0391  0.0336  0.5841
 1000MOL0     C34899   7.361  10.520  11.168  0.2071 -0.1329 -0.0262
 1000MOL0     C34900   7.295  10.415  11.112 -0.3496  0.6268  1.0451
 1000MOL0     O34901   7.173  10.417  11.039  0.8701 -0.3845  0.3145
 1000MOL0     C34902   7.087  10.533  11.063 -0.3280 -0.4128 -0.3808
 1000MOL0     C34903   6.957  10.526  10.988  0.8996 -0.3670 -0.3588
 1000MOL0     C34904   6.873  10.650  11.019 -0.4240  0.2818  0.2231
 1000MOL0     C34905   6.739  10.640  10.960 -0.2979 -0.7156 -0.2421
 1000MOL0     C34906   6.635  10.570  11.047 -0.2115 -0.0507  0.3125
 1000MOL0     C34907   6.502  10.539  10.968  0.5551  0.2183 -0.3188
 1000MOL0     C34908   6.411  10.445  11.044  0.0682  0.2300 -0.0535
 1000MOL0     C34909   6.287  10.415  10.956 -0.1106  0.0224 -0.0156
 1000MOL0    Cl34910   6.187  10.569  10.899 -0.0504  0.6203  0.1121
 1000MOL0     C34911   7.354  10.290  11.101 -0.3368 -0.9504 -0.1119
 1000MOL0     C34912   7.486  10.265  11.147 -0.3735  0.9638  0.4484
 1000MOL0     O34913   7.781  10.538  11.221 -0.3635 -0.4167  0.4121
 1000MOL0     C34914   8.013  10.495  11.374 -0.7670  0.0648  0.2312
 1000MOL0     C34915   8.131  10.484  11.448 -1.0180  0.3317 -0.4458
 1000MOL0     N34916   8.575  10.310  11.360 -0.5467  0.4055  0.2787
 1000MOL0     N34917   8.510  10.265  11.254  0.3842 -0.2446 -0.1420
 1000MOL0     C34918   7.534  10.494  10.523 -0.1797  0.2091  0.4316
 1000MOL0     C34919   7.421  10.467  10.436  0.6299  0.1188 -0.5817
 1000MOL0     C34920   7.011  10.515  10.295  0.5598  0.2198 -0.0872
 1000MOL0     C34921   6.949  10.385  10.282 -0.2833  0.2513  0.5263
 1000MOL0     C34922   6.831  10.372  10.207  0.7227  1.3989  0.2811
 1000MOL0     C34923   6.771  10.473  10.141 -0.9880  0.0462  0.2552
 1000MOL0     O34924   6.656  10.453  10.077  0.0599  0.7556 -0.6196
 1000MOL0     C34925   6.557  10.550  10.055 -0.1802 -0.1392  0.3540
 1000MOL0     C34926   6.472  10.576  10.177 -0.4902 -0.6553 -0.5465
 1000MOL0     C34927   6.370  10.455  10.215  0.9935 -0.6606 -0.1928
 1000MOL0     C34928   6.270  10.498  10.324 -0.2439 -0.2291 -0.6782
 1000MOL0     C34929   6.331  10.518  10.456  0.0738  0.9908 -0.5301
 1000MOL0     C34930   6.403  10.509  10.554 -0.2249 -0.3236  0.3631
 1000MOL0     C34931   6.824  10.605  10.159 -0.4618 -0.9748  0.8879
 1000MOL0     C34932   6.941  10.622  10.238 -0.7595  0.0294  0.2124
 1000MOL0     H34933   7.190  10.383  10.659  0.0456 -0.5470  0.2136
 1000MOL0     H34934   7.384  10.433  10.818 -2.3664 -0.3055  0.3532
 1000MOL0     H34935   7.619  10.375  10.878 -1.6418 -1.1380 -1.1976
 1000MOL0     H34936   7.679  10.328  10.711 -3.9413  0.9505  0.5391
 1000MOL0     H34937   7.872  10.463  10.748  0.8081 -0.1753  0.1369
 1000MOL0     H34938   7.825  10.522  10.898  0.9453  1.3727 -2.7763
 1000MOL0     H34939   7.798  10.289  10.998  1.2927  0.4734  0.8597
 1000MOL0     H34940   7.872  10.231  10.851 -0.8835  3.1668 -4.1866
 1000MOL0     H34941   8.085  10.368  10.917  1.1219 -3.0202 -0.1498
 1000MOL0     H34942   7.986  10.433  11.048 -0.3811  0.9792 -0.5611
 1000MOL0     H34943   7.961  10.223  11.150  0.0087 -0.4699 -0.7096
 1000MOL0     H34944   8.026  10.140  11.009  2.9481 -0.2733 -0.3032
 1000MOL0     H34945   8.246  10.219  11.033 -2.3592 -0.9660 -1.9017
 1000MOL0     H34946   8.204  10.307  11.190  4.0137 -0.2555 -0.8078
 1000MOL0     H34947   8.169  10.107  11.310 -0.2920  1.1503  0.1764
 1000MOL0     H34948   8.155  10.001  11.166 -0.4420  0.0101  2.4867
 1000MOL0     H34949   8.401  10.070  11.107 -0.6187  0.3637 -0.0998
 1000MOL0     H34950   8.367   9.961  11.247 -1.4538 -0.4919 -0.9763
 1000MOL0     H34951   8.376  10.072  11.490  3.8790 -2.8901 -0.3946
 1000MOL0     H34952   8.504  10.154  11.663 -1.9795 -0.2220 -2.4606
 1000MOL0     H34953   8.674  10.181  11.602  1.2366  1.2512  3.1110
 1000MOL0     H34954   8.609  10.434  11.614 -1.0659  0.2226  0.4093
 1000MOL0     H34955   8.634  10.356  11.772 -2.3777  1.9168  2.9574
 1000MOL0     H34956   8.471  10.506  11.803  0.6698 -0.0762 -0.5202
 1000MOL0     H34957   8.395  10.352  11.816  3.6553 -3.9136 -1.7180
 1000MOL0     H34958   8.360  10.521  11.556  1.7886 -2.8794 -0.8531
 1000MOL0     H34959   8.260  10.543  11.687 -0.0969 -0.0362 -0.5495
 1000MOL0     H34960   8.051  10.166  11.562  2.4206  1.4227  1.1231
 1000MOL0     H34961   7.887  10.066  11.472  1.4547  1.6144 -0.4223
 1000MOL0     H34962   7.741  10.178  11.472 -0.8478 -2.1092  1.7620
 1000MOL0     H34963   7.824  10.127  11.321 -2.9370 -0.9822  0.1537
 1000MOL0     H34964   7.536  10.592  11.266 -1.5393  2.2889 -2.3470
 1000MOL0     H34965   7.322  10.621  11.174  0.0058 -0.2641  1.1180
 1000MOL0     H34966   7.056  10.545  11.168 -1.4404 -2.1377 -0.4634
 1000MOL0     H34967   7.144  10.622  11.034  1.9392 -0.3349  3.5484
 1000MOL0     H34968   6.995  10.528  10.885  3.3648 -1.6374  0.4284
 1000MOL0     H34969   6.901  10.432  10.988  0.7577 -0.3266 -2.2761
 1000MOL0     H34970   6.923  10.738  10.980 -0.2693 -0.1459 -0.5768
 1000MOL0     H34971   6.846  10.654  11.125  0.5324  0.9314  0.4518
 1000MOL0     H34972   6.692  10.739  10.957  1.4251  0.1278 -3.1347
 1000MOL0     H34973   6.736  10.595  10.860  2.8112 -1.7972  0.0544
 1000MOL0     H34974   6.610  10.626  11.137  1.2336  0.5086  0.4020
 1000MOL0     H34975   6.689  10.483  11.086  2.6313  1.3234 -0.2401
 1000MOL0     H34976   6.446  10.631  10.952  2.6692  1.5020 -0.6902
 1000MOL0     H34977   6.526  10.500  10.868 -2.9374 -0.9922 -0.8143
 1000MOL0     H34978   6.376  10.479  11.141 -1.7529 -1.2407 -0.1348
 1000MOL0     H34979   6.462  10.354  11.075 -0.5877 -0.0531  0.2117
 1000MOL0     H34980   6.209  10.352  11.001  0.3997 -1.0559 -0.6039
 1000MOL0     H34981   6.338  10.368  10.872  1.2135 -0.0026  0.7690
 1000MOL0     H34982   7.294  10.204  11.070 -0.8092 -1.3439  1.7443
 1000MOL0     H34983   7.537  10.171  11.128  1.9437  2.0505  0.9390
 1000MOL0     H34984   8.004  10.591  11.325  0.6454 -0.1002 -0.4057
 1000MOL0     H34985   8.203  10.565  11.449  0.1552 -0.6127  2.1132
 1000MOL0     H34986   7.625  10.518  10.469  0.2467 -1.7353  0.1971
 1000MOL0     H34987   7.438  10.475  10.329 -2.0137  1.4809 -0.9792
 1000MOL0     H34988   6.995  10.295  10.323 -0.9315 -0.3593 -0.0578
 1000MOL0     H34989   6.775  10.279  10.215  1.2516  1.0198 -0.3620
 1000MOL0     H34990   6.604  10.640  10.015 -1.5601  0.6623  0.4783
 1000MOL0     H34991   6.492  10.524   9.972 -2.0054  2.9345  0.7029
 1000MOL0     H34992   6.408  10.661  10.154  1.3210  0.9963  0.2221
 1000MOL0     H34993   6.543  10.603  10.256 -1.0425 -0.6937 -0.0389
 1000MOL0     H34994   6.424  10.361  10.233  4.5960  0.8976 -1.8675
 1000MOL0     H34995   6.310  10.439  10.125 -0.4722  4.7815 -0.5394
 1000MOL0     H34996   6.189  10.425  10.326 -1.8174  1.4332 -0.3193
 1000MOL0     H34997   6.229  10.595  10.291  0.3830  0.0576 -0.6306
 1000MOL0     H34998   6.471  10.511  10.638  0.9808  0.2136 -0.5936
 1000MOL0     H34999   6.778  10.692  10.114  0.1256 -0.8149  0.5951
 1000MOL0     H35000   6.980  10.720  10.263  0.0103 -0.6809  1.9079
 1001MOL0     O35001   3.599   0.803   0.475 -0.1724  0.3190 -0.1672
 1001MOL0     C35002   3.570   0.820   0.593 -0.1026  0.3813 -0.2806
 1001MOL0     O35003   3.550   0.720   0.694  0.7131 -0.4362  0.6007
 1001MOL0     C35004   3.583   0.590   0.667 -0.3093  0.0367  0.5900
 1001MOL0     C35005   3.718   0.549   0.652  0.8877 -0.1343  0.4794
 1001MOL0     C35006   3.747   0.416   0.643 -0.2678 -0.5215 -0.5702
 1001MOL0     C35007   3.647   0.319   0.660 -0.0412  0.6683 -1.0463
 1001MOL0     O35008   3.671   0.180   0.677 -0.3010 -0.3003  0.5464
 1001MOL0     C35009   3.809   0.129   0.687 -0.7606 -0.2917 -0.5868
 1001MOL0     C35010   3.799  -0.023   0.723  0.6260 -0.4996 -0.4848
 1001MOL0     C35011   3.775  -0.102   0.596  0.8976  0.1206  0.2589
 1001MOL0     C35012   3.711  -0.228   0.642  0.9285 -0.4585 -0.3903
 1001MOL0     C35013   3.806  -0.329   0.718  0.2658  0.2004 -0.7185
 1001MOL0     C35014   3.735  -0.473   0.713  0.0329 -0.5222 -0.5193
 1001MOL0     C35015   3.603  -0.479   0.798 -0.3244  0.0019  0.7750
 1001MOL0     C35016   3.562  -0.617   0.853 -0.5749 -0.2454 -0.3494
 1001MOL0     N35017   3.420  -0.615   0.898 -0.3131 -0.3974  0.3903
 1001MOL0     C35018   3.377  -0.633   1.027  0.0264 -0.2445  0.8938
 1001MOL0     C35019   3.241  -0.637   1.023  0.4528 -0.2859 -0.6281
 1001MOL0     C35020   3.161  -0.631   1.150  0.7745  0.5020  0.4516
 1001MOL0     C35021   3.074  -0.759   1.162  0.3536 -0.7899 -1.1573
 1001MOL0     C35022   2.970  -0.750   1.272  0.1665 -0.6629 -0.0711
 1001MOL0     C35023   2.912  -0.890   1.315 -0.9901 -0.6292  0.3334
 1001MOL0     O35024   2.766  -0.882   1.320 -0.6241 -0.4618 -0.1739
 1001MOL0     C35025   2.689  -0.885   1.207 -0.4744 -0.0513 -0.3254
 1001MOL0     C35026   2.557  -0.846   1.223  0.8897 -0.0530  0.2974
 1001MOL0     C35027   2.469  -0.846   1.122  1.7048  0.0079 -0.2007
 1001MOL0     C35028   2.340  -0.787   1.157  0.6369 -1.3252  0.2381
 1001MOL0     C35029   2.502  -0.888   0.995  0.1207  0.3065  0.2498
 1001MOL0     C35030   2.420  -0.896   0.874  0.9163  0.6805 -0.1193
 1001MOL0     O35031   2.482  -0.932   0.757  0.5790 -0.3080  0.0217
 1001MOL0     C35032   2.421  -0.912   0.629 -0.0857 -0.1061 -1.1739
 1001MOL0     C35033   2.517  -0.948   0.531  0.7526 -1.5239  0.2252
 1001MOL0     C35034   2.478  -0.943   0.391 -0.3968  0.1799 -0.7253
 1001MOL0     C35035   2.341  -0.932   0.359 -0.5748 -0.2520  0.2136
 1001MOL0     O35036   2.292  -0.947   0.225  0.6375 -0.0971 -0.1593
 1001MOL0     C35037   2.388  -0.960   0.118 -0.1706  0.4108 -0.3289
 1001MOL0     C35038   2.331  -1.008  -0.002 -0.2472  0.1838 -0.1112
 1001MOL0     C35039   2.432  -1.005  -0.126 -0.5671  0.8664  0.4537
 1001MOL0     C35040   2.420  -1.122  -0.228 -0.4166  0.1242 -0.1902
 1001MOL0     C35041   2.516  -1.102  -0.345  0.3537 -0.4912  0.4195
 1001MOL0     C35042   2.520  -1.237  -0.423  0.8916  0.3151  0.3276
 1001MOL0     C35043   2.644  -1.254  -0.517 -0.5652 -0.5994 -0.0914
 1001MOL0     C35044   2.676  -1.399  -0.533 -0.2672 -0.2500  0.1956
 1001MOL0    Cl35045   2.818  -1.421  -0.636  0.6285 -0.1409 -0.0218
 1001MOL0     C35046   2.252  -0.903   0.455 -1.0161 -0.9871 -0.6329
 1001MOL0     C35047   2.290  -0.878   0.592  0.2431  0.1887  0.6074
 1001MOL0     O35048   2.299  -0.881   0.892  0.1901 -0.5724  0.2643
 1001MOL0     C35049   2.643  -0.936   0.977 -0.7320  0.1586 -1.0575
 1001MOL0     C35050   2.736  -0.934   1.084 -0.3861 -0.8213 -0.5939
 1001MOL0     N35051   3.208  -0.628   0.888  0.7514 -0.3415 -0.0011
 1001MOL0     N35052   3.318  -0.627   0.815  0.1773  0.3552 -0.3540
 1001MOL0     C35053   3.514   0.358   0.672  0.3775  0.7200  0.2580
 1001MOL0     C35054   3.485   0.493   0.673  0.0097  0.1877 -0.5643
 1001MOL0     C35055   3.569   0.964   0.636  0.1597  0.2919 -0.0889
 1001MOL0     C35056   3.530   1.011   0.762  0.2626  1.1493 -0.1925
 1001MOL0     C35057   3.516   1.145   0.789 -0.1784  0.0064  0.5502
 1001MOL0     C35058   3.546   1.240   0.692 -0.1750  0.5214  0.6455
 1001MOL0     O35059   3.535   1.368   0.716 -0.0060 -0.5669 -0.2156
 1001MOL0     C35060   3.576   1.411   0.847  0.4067  0.6033  0.3509
 1001MOL0     C35061   3.564   1.560   0.851 -0.2228 -0.3759 -0.2261
 1001MOL0     C35062   3.655   1.651   0.763 -0.6125  1.0667  0.3108
 1001MOL0     C35063   3.622   1.796   0.791 -0.2004 -0.3722 -0.0802
 1001MOL0     C35064   3.505   1.844   0.712  0.1694 -0.5512  0.3710
 1001MOL0     C35065   3.420   1.881   0.634  0.3717 -0.8895  0.2076
 1001MOL0     C35066   3.581   1.198   0.565 -0.4948  0.2914  0.1682
 1001MOL0     C35067   3.600   1.064   0.541  0.3350  0.8867 -0.8661
 1001MOL0     H35068   3.792   0.628   0.651 -0.6656  1.4354  2.6040
 1001MOL0     H35069   3.848   0.382   0.625  0.5841  1.6387 -0.1021
 1001MOL0     H35070   3.869   0.140   0.597 -0.8299  1.0573 -0.4943
 1001MOL0     H35071   3.855   0.180   0.773  0.0790 -1.1523 -0.5161
 1001MOL0     H35072   3.889  -0.049   0.780 -2.1486 -3.1899  3.1653
 1001MOL0     H35073   3.724  -0.049   0.798 -0.0494  0.4733 -0.7912
 1001MOL0     H35074   3.700  -0.051   0.535  1.4143 -0.6842 -1.0882
 1001MOL0     H35075   3.868  -0.120   0.541 -0.8452  0.9332 -3.2620
 1001MOL0     H35076   3.626  -0.214   0.710  3.5289 -0.9585  3.3253
 1001MOL0     H35077   3.670  -0.277   0.554 -3.3988  2.2032 -0.1369
 1001MOL0     H35078   3.902  -0.347   0.668 -0.3974 -1.5744 -1.4673
 1001MOL0     H35079   3.817  -0.298   0.823  1.8279 -0.4542 -0.6445
 1001MOL0     H35080   3.726  -0.488   0.605  2.9836 -1.2477 -0.7656
 1001MOL0     H35081   3.808  -0.545   0.752  0.0574  0.7768  2.0067
 1001MOL0     H35082   3.607  -0.407   0.881 -2.7353  3.4082 -1.7844
 1001MOL0     H35083   3.522  -0.441   0.735  1.1244  0.4549 -0.8783
 1001MOL0     H35084   3.624  -0.642   0.940 -1.2046  2.0757  0.8549
 1001MOL0     H35085   3.583  -0.689   0.774  1.9915 -0.6005  0.5557
 1001MOL0     H35086   3.431  -0.631   1.121 -0.6110  3.9724  1.3523
 1001MOL0     H35087   3.221  -0.611   1.239 -0.6578 -1.8905  2.1133
 1001MOL0     H35088   3.095  -0.544   1.144  0.1935 -0.0038 -0.9754
 1001MOL0     H35089   3.150  -0.836   1.180  2.3409  1.5634  1.6316
 1001MOL0     H35090   3.024  -0.784   1.068 -0.8061  1.2474 -1.1328
 1001MOL0     H35091   2.887  -0.698   1.221  0.6264 -0.4048 -0.5737
 1001MOL0     H35092   3.006  -0.702   1.363  0.2449 -1.9215  0.5714
 1001MOL0     H35093   2.937  -0.914   1.418  0.4296 -1.6140 -0.2233
 1001MOL0     H35094   2.956  -0.960   1.243 -1.0932 -0.0881 -0.2687
 1001MOL0     H35095   2.519  -0.818   1.321  0.8962 -0.2173  0.3483
 1001MOL0     H35096   2.257  -0.858   1.162  0.2442 -0.8161  1.2050
 1001MOL0     H35097   2.341  -0.735   1.253 -1.1831 -0.5136 -0.1397
 1001MOL0     H35098   2.306  -0.706   1.091  2.8334  2.4361  3.3043
 1001MOL0     H35099   2.616  -0.985   0.553  0.5818 -0.9922  2.0802
 1001MOL0     H35100   2.552  -0.969   0.316 -1.7900 -0.6681 -1.8398
 1001MOL0     H35101   2.437  -0.864   0.098 -0.7523  1.1434  1.5535
 1001MOL0     H35102   2.466  -1.032   0.146  0.5286  0.7077 -1.4495
 1001MOL0     H35103   2.290  -1.108   0.014  3.4935 -1.1005  2.7808
 1001MOL0     H35104   2.243  -0.949  -0.029 -1.0114 -0.3508  1.0965
 1001MOL0     H35105   2.530  -1.007  -0.079 -0.0135  1.3389 -0.6306
 1001MOL0     H35106   2.418  -0.909  -0.177 -2.2509 -0.8678 -2.7100
 1001MOL0     H35107   2.446  -1.209  -0.167 -1.7590 -0.6158 -0.6432
 1001MOL0     H35108   2.320  -1.145  -0.267 -0.6620 -2.2061  1.5711
 1001MOL0     H35109   2.617  -1.088  -0.304  1.2378 -1.3429 -1.3445
 1001MOL0     H35110   2.507  -1.014  -0.410  2.7418 -0.3846  0.1488
 1001MOL0     H35111   2.516  -1.324  -0.357  0.6883 -1.0528 -1.4002
 1001MOL0     H35112   2.424  -1.245  -0.474  0.1985  0.0840  1.6236
 1001MOL0     H35113   2.729  -1.201  -0.473  0.5476 -1.0619 -1.6027
 1001MOL0     H35114   2.628  -1.206  -0.614 -1.7786 -1.3733 -0.2949
 1001MOL0     H35115   2.589  -1.442  -0.583 -1.5774  1.4657  0.8950
 1001MOL0     H35116   2.695  -1.445  -0.435 -1.1759  0.0537  0.5299
 1001MOL0     H35117   2.151  -0.894   0.418 -2.0506 -2.7557  1.5739
 1001MOL0     H35118   2.221  -0.832   0.663 -0.1900 -1.7229  1.4723
 1001MOL0     H35119   2.675  -0.966   0.878 -1.5698  1.1898 -1.6618
 1001MOL0     H35120   2.837  -0.974   1.074  1.2268  1.7919  2.8929
 1001MOL0     H35121   3.430   0.291   0.673 -1.3643  2.7930  1.3012
 1001MOL0     H35122   3.381   0.522   0.666 -1.0986 -2.7110  1.9336
 1001MOL0     H35123   3.504   0.934   0.834  2.7720 -0.2828 -0.6705
 1001MOL0     H35124   3.465   1.176   0.880 -0.3984 -0.7078  0.6785
 1001MOL0     H35125   3.504   1.369   0.917  0.2298 -0.0851 -0.2348
 1001MOL0     H35126   3.677   1.378   0.874  0.3067  0.3978  0.4741
 1001MOL0     H35127   3.588   1.592   0.953  0.0908 -2.0094  0.2458
 1001MOL0     H35128   3.459   1.583   0.830 -0.4938  0.2022  1.5449
 1001MOL0     H35129   3.642   1.632   0.656  0.9630 -0.3986  0.3318
 1001MOL0     H35130   3.760   1.627   0.781 -1.1873 -1.6693  0.6032
 1001MOL0     H35131   3.701   1.856   0.745 -0.2066 -0.5605 -0.3418
 1001MOL0     H35132   3.604   1.826   0.895  0.9193  1.8560 -0.4742
 1001MOL0     H35133   3.368   1.914   0.546  0.2470 -0.4107  0.4579
 1001MOL0     H35134   3.592   1.273   0.487 -0.9041 -0.5274 -0.6908
 1001MOL0     H35135   3.643   1.035   0.445  0.4624  1.4231 -0.9766
 1002MOL0     O35136   1.886   9.251   0.285 -0.0852  0.0645 -0.5044
 1002MOL0     C35137   1.961   9.336   0.235  0.0325  0.6348  0.8311
 1002MOL0     O35138   1.946   9.385   0.118 -0.3289 -0.5072 -0.4660
 1002MOL0     C35139   1.841   9.355   0.032  0.4172  0.1112 -0.5533
 1002MOL0     C35140   1.709   9.352   0.070  0.3776 -0.0756  0.0801
 1002MOL0     C35141   1.607   9.326  -0.019 -0.2266  0.0211  1.0854
 1002MOL0     C35142   1.640   9.306  -0.158 -0.4628  0.6876 -0.6648
 1002MOL0     O35143   1.551   9.286  -0.262 -0.9021 -0.1810 -1.1176
 1002MOL0     C35144   1.414   9.238  -0.236  0.6255 -0.0068 -0.3527
 1002MOL0     C35145   1.404   9.088  -0.205 -0.2858  0.2010  0.0383
 1002MOL0     C35146   1.449   9.059  -0.057  0.5727  0.6413  0.5721
 1002MOL0     C35147   1.403   8.928   0.011  0.6197 -0.2552 -0.0831
 1002MOL0     C35148   1.257   8.946   0.032 -0.3780 -0.4652 -0.2387
 1002MOL0     C35149   1.195   8.835   0.115  0.5178  0.0549  0.0402
 1002MOL0     C35150   1.182   8.706   0.038  0.3124  0.4335 -0.7567
 1002MOL0     C35151   1.130   8.590   0.117  0.1188  0.9291  0.5583
 1002MOL0     N35152   0.998   8.611   0.177 -0.2150  0.4750 -0.2202
 1002MOL0     C35153   0.888   8.659   0.111  0.8706 -0.1810 -0.4016
 1002MOL0     C35154   0.796   8.676   0.206 -0.0576 -0.0397 -0.3861
 1002MOL0     C35155   0.653   8.716   0.171  0.9357  0.0812 -0.2530
 1002MOL0     C35156   0.643   8.856   0.139  0.1121  0.4843  0.2522
 1002MOL0     C35157   0.509   8.894   0.091  0.0936  0.7414  0.4253
 1002MOL0     C35158   0.405   8.887   0.198 -0.3933  0.2004 -1.1707
 1002MOL0     O35159   0.276   8.938   0.152 -0.7464  0.8924 -0.0512
 1002MOL0     C35160   0.187   8.859   0.089 -0.2347  0.4271 -0.4334
 1002MOL0     C35161   0.213   8.745   0.014 -0.5081 -0.3228  0.4962
 1002MOL0     C35162   0.124   8.677  -0.063 -0.2359  0.3395  0.6644
 1002MOL0     C35163   0.173   8.569  -0.163  0.3709 -0.2171  0.5457
 1002MOL0     C35164  -0.010   8.719  -0.049  0.7059 -0.0544  0.5239
 1002MOL0     C35165  -0.114   8.645  -0.115 -0.4353 -0.6560 -0.0751
 1002MOL0     O35166  -0.212   8.716  -0.175  0.2508  0.5064 -0.4202
 1002MOL0     C35167  -0.336   8.659  -0.197  0.8577 -0.3944  0.2311
 1002MOL0     C35168  -0.349   8.564  -0.304  1.1779  0.2623  0.9803
 1002MOL0     C35169  -0.468   8.511  -0.338  0.5662 -0.0188  0.0662
 1002MOL0     C35170  -0.585   8.556  -0.275 -0.2099  1.1409 -0.3000
 1002MOL0     O35171  -0.701   8.492  -0.317  0.1772  1.2186  0.0739
 1002MOL0     C35172  -0.809   8.489  -0.222 -0.6132 -0.6338 -0.2022
 1002MOL0     C35173  -0.931   8.415  -0.264 -0.6620  0.7181 -0.7670
 1002MOL0     C35174  -1.049   8.442  -0.159  0.7302 -0.0609 -0.1184
 1002MOL0     C35175  -1.021   8.381  -0.027 -0.1949 -0.7406  0.3693
 1002MOL0     C35176  -1.156   8.389   0.059  0.2902 -0.2232  0.1756
 1002MOL0     C35177  -1.116   8.357   0.211  0.1841  0.3190  0.9044
 1002MOL0     C35178  -1.238   8.292   0.268  0.8863  0.3715 -0.2684
 1002MOL0     C35179  -1.228   8.278   0.427 -0.0636  0.5972 -0.1550
 1002MOL0    Cl35180  -1.375   8.184   0.484  0.4498  0.0484 -0.3659
 1002MOL0     C35181  -0.574   8.650  -0.170 -0.4187  0.0142  0.2949
 1002MOL0     C35182  -0.448   8.711  -0.130  0.6368 -0.1330  0.1810
 1002MOL0     O35183  -0.113   8.527  -0.110 -0.6184  0.7379 -0.2324
 1002MOL0     C35184  -0.045   8.828   0.033 -0.0213 -0.9042  0.4151
 1002MOL0     C35185   0.059   8.906   0.093  0.5584 -0.1475 -0.3489
 1002MOL0     N35186   0.856   8.658   0.333  0.2168  0.2834  1.0622
 1002MOL0     N35187   0.973   8.616   0.308 -0.4719  0.5370  0.3003
 1002MOL0     C35188   1.779   9.307  -0.197  0.4829 -0.5277 -0.7271
 1002MOL0     C35189   1.872   9.333  -0.100 -0.9002  0.3813  0.0682
 1002MOL0     C35190   2.077   9.381   0.312 -0.6831  0.1579  0.3870
 1002MOL0     C35191   2.172   9.480   0.269  0.3867 -0.1122 -0.2056
 1002MOL0     C35192   2.282   9.519   0.346  0.2228 -0.9581  0.2530
 1002MOL0     C35193   2.305   9.470   0.466  0.7059 -0.9680 -0.3562
 1002MOL0     O35194   2.399   9.509   0.564 -0.8310 -0.1935  0.1362
 1002MOL0     C35195   2.493   9.611   0.525 -0.5055  0.3314 -0.0444
 1002MOL0     C35196   2.619   9.620   0.615 -0.0254 -0.4496 -0.2384
 1002MOL0     C35197   2.579   9.671   0.749  0.3607  0.4378  0.1170
 1002MOL0     C35198   2.679   9.631   0.863  0.2018  0.3522 -0.5681
 1002MOL0     C35199   2.801   9.716   0.859  0.7848  0.0366 -0.3714
 1002MOL0     C35200   2.901   9.786   0.842  0.5191  0.8720  1.0463
 1002MOL0     C35201   2.210   9.379   0.520 -0.1237 -0.7750  0.1146
 1002MOL0     C35202   2.099   9.337   0.447 -0.3056 -0.5194  0.5904
 1002MOL0     H35203   1.684   9.388   0.170 -0.4640  0.3941 -0.2893
 1002MOL0     H35204   1.510   9.324   0.029 -0.4713  1.0124  0.6607
 1002MOL0     H35205   1.358   9.297  -0.163 -0.1888 -0.5098 -0.5589
 1002MOL0     H35206   1.350   9.251  -0.324 -2.6178 -1.2328  1.6519
 1002MOL0     H35207   1.299   9.062  -0.221 -0.3144  0.0035  0.5353
 1002MOL0     H35208   1.465   9.026  -0.271 -1.1100  0.2608 -0.8029
 1002MOL0     H35209   1.558   9.065  -0.058  0.5075  4.5804 -1.2859
 1002MOL0     H35210   1.402   9.144  -0.007  0.0405  3.1617 -3.7079
 1002MOL0     H35211   1.436   8.846  -0.054  0.5854 -0.8860  0.6677
 1002MOL0     H35212   1.450   8.921   0.110 -0.7049  0.1035  0.5842
 1002MOL0     H35213   1.231   9.040   0.082  0.2972 -0.3456 -0.0888
 1002MOL0     H35214   1.205   8.951  -0.063  1.5617 -0.0375 -1.3408
 1002MOL0     H35215   1.241   8.820   0.213  2.0230  1.1489 -0.4645
 1002MOL0     H35216   1.090   8.863   0.131 -0.4755 -2.5933 -1.3106
 1002MOL0     H35217   1.125   8.717  -0.054 -0.5477  2.5746 -0.0172
 1002MOL0     H35218   1.281   8.676   0.003  0.5009 -0.5358  0.5117
 1002MOL0     H35219   1.203   8.554   0.190  0.8213 -0.5592 -0.8204
 1002MOL0     H35220   1.111   8.504   0.053  0.8773  0.4062  1.0271
 1002MOL0     H35221   0.872   8.681   0.006  2.3404 -2.4140 -1.1601
 1002MOL0     H35222   0.610   8.647   0.097  2.8768 -1.9484  0.4133
 1002MOL0     H35223   0.603   8.706   0.267  4.0551 -0.6310  1.4151
 1002MOL0     H35224   0.713   8.883   0.059 -0.3178 -2.3671 -1.2525
 1002MOL0     H35225   0.679   8.909   0.227  1.2395  0.1763 -0.0041
 1002MOL0     H35226   0.491   8.832   0.003  4.1856  0.9243 -0.7467
 1002MOL0     H35227   0.510   8.999   0.062 -0.1104  0.3449 -1.0946
 1002MOL0     H35228   0.436   8.941   0.287 -0.5368 -2.0865  0.3561
 1002MOL0     H35229   0.398   8.782   0.227  1.1983  1.2310  3.9324
 1002MOL0     H35230   0.316   8.711   0.011 -0.4992 -0.4600  1.8920
 1002MOL0     H35231   0.159   8.595  -0.268  0.1196 -0.3218  0.5537
 1002MOL0     H35232   0.279   8.543  -0.155  0.5296 -0.4244 -1.6247
 1002MOL0     H35233   0.120   8.476  -0.145 -0.9643  0.4257  0.0825
 1002MOL0     H35234  -0.259   8.547  -0.361  0.2994 -0.7479 -0.1345
 1002MOL0     H35235  -0.467   8.445  -0.423  0.6157 -0.7338  0.6080
 1002MOL0     H35236  -0.760   8.458  -0.129 -0.6039 -0.6538 -0.2130
 1002MOL0     H35237  -0.848   8.589  -0.200 -1.7670 -1.5742  2.5323
 1002MOL0     H35238  -0.957   8.437  -0.368 -0.9295  0.3929 -0.7709
 1002MOL0     H35239  -0.902   8.309  -0.264 -0.3765  0.7488  1.3282
 1002MOL0     H35240  -1.142   8.411  -0.207  0.1006  0.4880  0.7140
 1002MOL0     H35241  -1.059   8.547  -0.130  4.2848  0.4259 -0.1804
 1002MOL0     H35242  -0.990   8.278  -0.047  3.2553  0.0920  0.7517
 1002MOL0     H35243  -0.933   8.427   0.021 -3.1979  1.5600  4.2652
 1002MOL0     H35244  -1.219   8.315   0.010  1.8165  0.3018 -2.8175
 1002MOL0     H35245  -1.201   8.489   0.059 -0.7102 -0.6490  1.0918
 1002MOL0     H35246  -1.031   8.288   0.218 -0.6002 -0.9932 -1.2981
 1002MOL0     H35247  -1.087   8.446   0.267  0.3779 -0.6622  2.4388
 1002MOL0     H35248  -1.229   8.190   0.232 -0.9086 -0.1262  0.5703
 1002MOL0     H35249  -1.329   8.336   0.226 -1.0141 -2.6711  0.3709
 1002MOL0     H35250  -1.218   8.379   0.467 -2.0036  0.7522  0.0455
 1002MOL0     H35251  -1.134   8.230   0.455 -0.4460  0.3533  0.7499
 1002MOL0     H35252  -0.664   8.696  -0.131  0.5429  0.7075  1.7801
 1002MOL0     H35253  -0.449   8.777  -0.044  2.1360 -1.9645  1.6832
 1002MOL0     H35254  -0.149   8.857   0.037 -0.3245 -1.9096  0.2366
 1002MOL0     H35255   0.043   8.992   0.157  0.7091  0.0595 -0.5890
 1002MOL0     H35256   1.796   9.301  -0.304 -0.0780 -0.5733 -0.8188
 1002MOL0     H35257   1.975   9.341  -0.132 -0.3597 -1.7536  1.1211
 1002MOL0     H35258   2.155   9.520   0.170 -2.2458  3.8031  1.5938
 1002MOL0     H35259   2.350   9.589   0.297 -0.7553  1.1619  1.7779
 1002MOL0     H35260   2.524   9.614   0.420 -0.4674  5.1381 -0.1160
 1002MOL0     H35261   2.432   9.700   0.543 -0.5884  0.1657  0.5086
 1002MOL0     H35262   2.694   9.682   0.565  1.6924 -2.8570 -0.8404
 1002MOL0     H35263   2.669   9.525   0.637  2.9996  1.3525  1.3376
 1002MOL0     H35264   2.488   9.624   0.787  2.0836 -0.8345  3.1236
 1002MOL0     H35265   2.560   9.777   0.764 -2.2738 -0.2575  2.7818
 1002MOL0     H35266   2.714   9.528   0.857 -0.3759  0.0441  0.8388
 1002MOL0     H35267   2.631   9.637   0.961 -2.3825  1.7747 -1.8063
 1002MOL0     H35268   2.985   9.849   0.821 -0.9031  1.9346 -2.1713
 1002MOL0     H35269   2.217   9.347   0.624  1.6730  0.4598  0.4283
 1002MOL0     H35270   2.042   9.259   0.497  2.3489  0.0445  5.0400
 1003MOL0     O35271   7.118   7.905  10.185 -0.4359 -0.4665  0.3579
 1003MOL0     C35272   7.139   7.946  10.301  0.9500 -0.7797 -0.0857
 1003MOL0     O35273   7.259   7.968  10.362  0.0875 -0.5391  0.3060
 1003MOL0     C35274   7.376   7.930  10.307 -0.0027  0.4839  0.6662
 1003MOL0     C35275   7.486   8.003  10.355 -0.7831  0.1297  0.0663
 1003MOL0     C35276   7.611   8.000  10.302 -0.1979 -0.2827 -0.4899
 1003MOL0     C35277   7.641   7.914  10.197  0.3463 -0.3922  0.4075
 1003MOL0     O35278   7.768   7.912  10.149 -0.3625  0.1342  0.6720
 1003MOL0     C35279   7.811   7.775  10.122  0.0701  0.3644  0.1935
 1003MOL0     C35280   7.965   7.761  10.114 -0.1045  0.0514 -0.6809
 1003MOL0     C35281   8.030   7.622  10.128 -0.0002  0.7393 -0.6268
 1003MOL0     C35282   8.056   7.562   9.987  0.3501 -0.8011 -0.3882
 1003MOL0     C35283   8.113   7.423  10.002  0.4245 -0.2597  0.1354
 1003MOL0     C35284   8.172   7.361   9.872 -0.6091  0.0834 -1.4652
 1003MOL0     C35285   8.068   7.338   9.759  0.1902 -0.8039 -0.9345
 1003MOL0     C35286   8.079   7.447   9.647 -0.6995 -0.1055 -1.2209
 1003MOL0     N35287   7.944   7.438   9.577  0.2320  0.5487 -0.5145
 1003MOL0     C35288   7.890   7.353   9.478  0.3612 -0.8327 -0.4625
 1003MOL0     C35289   7.768   7.405   9.442 -1.7951 -0.2459  0.2663
 1003MOL0     C35290   7.684   7.358   9.342  0.5461  0.3442  0.2490
 1003MOL0     C35291   7.732   7.371   9.203  0.5208  0.0802 -0.4951
 1003MOL0     C35292   7.830   7.268   9.154 -1.1061  0.2275  0.4376
 1003MOL0     C35293   7.854   7.263   9.001  0.5711  0.9447  0.3768
 1003MOL0     O35294   7.733   7.231   8.931  0.4525  0.2111  0.8634
 1003MOL0     C35295   7.733   7.102   8.891 -0.2652 -0.4989 -0.1347
 1003MOL0     C35296   7.800   7.072   8.771 -0.0482  0.7981  0.2186
 1003MOL0     C35297   7.790   6.949   8.698 -0.8090 -0.4294 -0.1372
 1003MOL0     C35298   7.844   6.947   8.561 -0.2822  0.7095  1.1073
 1003MOL0     C35299   7.738   6.843   8.773  0.2747  0.7185  0.0031
 1003MOL0     C35300   7.748   6.702   8.723 -0.5677  1.0193 -1.0060
 1003MOL0     O35301   7.635   6.629   8.748  0.6480  0.0025  0.0320
 1003MOL0     C35302   7.635   6.505   8.699  0.6268 -0.2963  1.0380
 1003MOL0     C35303   7.571   6.471   8.575 -0.9610 -0.7123  0.2353
 1003MOL0     C35304   7.564   6.340   8.526 -0.0002  0.3332 -0.7911
 1003MOL0     C35305   7.622   6.239   8.614  0.2694 -0.3039  0.3929
 1003MOL0     O35306   7.627   6.107   8.579 -0.6105  0.3914  0.1352
 1003MOL0     C35307   7.539   6.057   8.484  0.7390  0.1599 -0.0610
 1003MOL0     C35308   7.594   5.920   8.438  0.0297 -1.2689  0.3073
 1003MOL0     C35309   7.509   5.842   8.332 -0.1712 -0.2597 -0.3002
 1003MOL0     C35310   7.408   5.761   8.418 -0.5843  0.5875  0.2568
 1003MOL0     C35311   7.318   5.673   8.327 -0.1025 -0.2090 -0.5812
 1003MOL0     C35312   7.225   5.587   8.404  0.9811  1.0027  0.4338
 1003MOL0     C35313   7.106   5.535   8.321  0.6597 -0.2669  0.0825
 1003MOL0     C35314   7.066   5.401   8.376  0.6324  0.1702  0.5414
 1003MOL0    Cl35315   6.996   5.403   8.548 -0.9317 -0.0790 -0.4012
 1003MOL0     C35316   7.667   6.265   8.740 -0.2526 -0.1187 -0.3454
 1003MOL0     C35317   7.675   6.395   8.787 -0.4293 -0.4818 -1.0561
 1003MOL0     O35318   7.846   6.666   8.657  1.6218 -0.1091 -0.5640
 1003MOL0     C35319   7.669   6.868   8.896 -0.5848 -0.0343 -0.9152
 1003MOL0     C35320   7.664   6.996   8.950  0.0600 -0.3002 -0.7230
 1003MOL0     N35321   7.740   7.507   9.530 -0.8416 -0.3586  0.0283
 1003MOL0     N35322   7.841   7.530   9.606  0.4939  0.3981  0.3134
 1003MOL0     C35323   7.536   7.825  10.160 -0.1342  0.3352  0.0307
 1003MOL0     C35324   7.411   7.826  10.213  0.0727  0.4746 -0.4388
 1003MOL0     C35325   7.021   8.012  10.369 -0.1307  0.3558  0.5791
 1003MOL0     C35326   6.890   8.016  10.310 -0.0841  1.5086  0.3359
 1003MOL0     C35327   6.784   8.088  10.367  0.8872 -0.6243  0.8696
 1003MOL0     C35328   6.806   8.162  10.486  0.1791  0.0110 -0.2282
 1003MOL0     O35329   6.694   8.235  10.526 -0.4174 -0.2468  0.5000
 1003MOL0     C35330   6.710   8.333  10.625  0.1782 -0.1288 -0.3100
 1003MOL0     C35331   6.570   8.398  10.659 -0.3100  0.4021  0.5228
 1003MOL0     C35332   6.473   8.303  10.732 -0.1444  0.0217 -0.2265
 1003MOL0     C35333   6.334   8.367  10.746 -0.9960  0.5959  0.0625
 1003MOL0     C35334   6.263   8.315  10.860 -0.8778  0.5955 -0.2810
 1003MOL0     C35335   6.211   8.277  10.959  0.5744  0.0389  0.1704
 1003MOL0     C35336   6.932   8.161  10.547 -0.7609  0.2047 -0.1862
 1003MOL0     C35337   7.038   8.087  10.484  0.6739  0.0164 -0.0705
 1003MOL0     H35338   7.462   8.066  10.440 -0.0070  0.0591  0.3383
 1003MOL0     H35339   7.684   8.068  10.345 -0.7304  0.5609 -0.8904
 1003MOL0     H35340   7.775   7.706  10.199  1.3026 -1.5061 -0.7986
 1003MOL0     H35341   7.765   7.756  10.024 -1.3548 -0.9943  1.0705
 1003MOL0     H35342   8.005   7.798  10.019 -0.6266  0.5095 -0.7238
 1003MOL0     H35343   8.019   7.826  10.185  1.0395 -0.1620 -1.3219
 1003MOL0     H35344   8.125   7.647  10.175 -0.1848  0.8797 -0.3220
 1003MOL0     H35345   7.971   7.560  10.196  1.1045 -0.1786 -0.4651
 1003MOL0     H35346   7.967   7.565   9.923  1.6199 -0.0620 -2.2008
 1003MOL0     H35347   8.134   7.627   9.945 -1.0631  1.5561  0.4516
 1003MOL0     H35348   8.191   7.413  10.078 -0.8276 -2.6586  1.2096
 1003MOL0     H35349   8.030   7.361  10.037 -1.0982  2.4115  1.6350
 1003MOL0     H35350   8.261   7.418   9.840  1.5407 -3.9456 -3.4758
 1003MOL0     H35351   8.213   7.260   9.882  1.0548  0.9164  1.1211
 1003MOL0     H35352   8.096   7.251   9.700 -0.9291 -0.0181 -2.7010
 1003MOL0     H35353   7.969   7.336   9.805  1.0269 -1.0424  0.9620
 1003MOL0     H35354   8.161   7.429   9.577  1.7067 -2.1711  1.8746
 1003MOL0     H35355   8.094   7.549   9.683  2.3827  0.2911 -3.2095
 1003MOL0     H35356   7.932   7.260   9.442  3.2522  0.5421 -0.9744
 1003MOL0     H35357   7.660   7.251   9.350 -2.4410  0.9267  0.0100
 1003MOL0     H35358   7.594   7.418   9.355  2.2155  2.6145  2.2636
 1003MOL0     H35359   7.770   7.473   9.189  1.2682 -0.3280 -1.6530
 1003MOL0     H35360   7.640   7.354   9.146 -0.3082 -0.1514  0.8743
 1003MOL0     H35361   7.796   7.170   9.190  1.7719 -0.4605  1.6276
 1003MOL0     H35362   7.925   7.288   9.205 -1.4394  1.0601  0.7590
 1003MOL0     H35363   7.924   7.180   8.990 -1.5291 -0.6056 -2.6667
 1003MOL0     H35364   7.898   7.356   8.963 -0.6458  0.7596 -1.6059
 1003MOL0     H35365   7.855   7.149   8.717  0.1478 -0.1746 -1.0242
 1003MOL0     H35366   7.941   6.896   8.553 -1.1706 -1.0962  1.3691
 1003MOL0     H35367   7.775   6.897   8.494  1.3320  1.4371 -1.2272
 1003MOL0     H35368   7.852   7.046   8.515 -1.8218  0.5736  0.4983
 1003MOL0     H35369   7.527   6.554   8.521 -0.1854  2.7997  4.4136
 1003MOL0     H35370   7.520   6.306   8.433 -2.8927 -1.6647  1.1613
 1003MOL0     H35371   7.440   6.036   8.524  1.2488 -1.3487  0.4907
 1003MOL0     H35372   7.536   6.125   8.399 -1.7141  1.0605  0.6635
 1003MOL0     H35373   7.689   5.948   8.392 -0.6091  3.2871  1.2851
 1003MOL0     H35374   7.607   5.854   8.524 -0.9019 -1.9634 -0.0640
 1003MOL0     H35375   7.578   5.774   8.281  2.0646  2.2358 -0.7841
 1003MOL0     H35376   7.461   5.906   8.257 -1.0132 -1.8116 -1.1337
 1003MOL0     H35377   7.466   5.690   8.476 -0.6179 -1.8240 -2.4435
 1003MOL0     H35378   7.346   5.829   8.477 -0.8396 -0.9551  1.8457
 1003MOL0     H35379   7.385   5.606   8.272  1.1996 -0.3760  1.1231
 1003MOL0     H35380   7.269   5.733   8.249  0.7078  1.2832  0.0107
 1003MOL0     H35381   7.285   5.507   8.449 -1.1531 -1.4187 -0.7453
 1003MOL0     H35382   7.191   5.639   8.494 -2.1879  0.5179 -0.3487
 1003MOL0     H35383   7.147   5.540   8.220  2.1813  1.4004  0.7270
 1003MOL0     H35384   7.030   5.612   8.335 -0.4703 -1.4326  0.5729
 1003MOL0     H35385   7.147   5.328   8.369  2.8983  2.6227 -1.4834
 1003MOL0     H35386   6.985   5.370   8.310  1.0952  1.6947 -0.8278
 1003MOL0     H35387   7.701   6.183   8.803  0.2204  0.1107 -0.2997
 1003MOL0     H35388   7.715   6.423   8.883  1.3764  0.3850 -2.0121
 1003MOL0     H35389   7.638   6.784   8.957 -0.0182 -0.9649 -1.8801
 1003MOL0     H35390   7.594   7.021   9.029  0.3164  1.4577 -1.0004
 1003MOL0     H35391   7.557   7.754  10.081  2.5107  2.4718 -1.3602
 1003MOL0     H35392   7.333   7.761  10.174  0.6800 -0.6971  0.2385
 1003MOL0     H35393   6.871   7.964  10.217  0.9401 -0.3101  1.0954
 1003MOL0     H35394   6.694   8.095  10.306  0.0500  0.2739  2.1629
 1003MOL0     H35395   6.764   8.302  10.715  0.3481  2.2893  0.4865
 1003MOL0     H35396   6.766   8.416  10.581 -0.9183  1.3328  0.9358
 1003MOL0     H35397   6.531   8.424  10.560 -2.1623  0.5005  1.2473
 1003MOL0     H35398   6.583   8.487  10.720  3.2995  3.0548 -3.5156
 1003MOL0     H35399   6.514   8.274  10.830 -0.4413  0.5186  0.0470
 1003MOL0     H35400   6.457   8.218  10.665 -0.8563  0.8572 -1.1386
 1003MOL0     H35401   6.269   8.348  10.659 -4.1674  0.9799  2.1662
 1003MOL0     H35402   6.345   8.475  10.738 -0.5513  0.4894 -0.8489
 1003MOL0     H35403   6.175   8.232  11.050 -2.0226 -1.2471 -1.3687
 1003MOL0     H35404   6.934   8.203  10.647  0.0954  1.2363 -0.6195
 1003MOL0     H35405   7.136   8.086  10.531  0.3312 -2.8334  0.7678
 1004MOL0     O35406   0.966   0.650   6.617  0.1109 -0.4252  0.0131
 1004MOL0     C35407   0.944   0.708   6.511 -0.3130  0.5233 -0.4909
 1004MOL0     O35408   0.819   0.737   6.467  0.2967  0.0916  0.0238
 1004MOL0     C35409   0.708   0.721   6.543 -0.5806 -0.3941  0.3017
 1004MOL0     C35410   0.653   0.595   6.549  0.5963  0.0523 -0.8835
 1004MOL0     C35411   0.536   0.577   6.634  0.4620 -0.2863  1.1394
 1004MOL0     C35412   0.487   0.672   6.719  0.5527 -0.2857  0.3935
 1004MOL0     O35413   0.376   0.655   6.795  0.3052  0.5624  0.8979
 1004MOL0     C35414   0.367   0.525   6.864 -0.5357 -0.1871  0.1543
 1004MOL0     C35415   0.285   0.524   6.986 -0.3204  0.0631 -0.0425
 1004MOL0     C35416   0.335   0.630   7.080  0.4314 -0.3256 -0.2558
 1004MOL0     C35417   0.280   0.608   7.220  0.6646  1.1549  0.5351
 1004MOL0     C35418   0.334   0.712   7.322  0.0136 -0.9595  0.6232
 1004MOL0     C35419   0.487   0.719   7.318 -0.7483 -0.6548 -0.2005
 1004MOL0     C35420   0.542   0.763   7.453  0.4280 -0.3452  0.8866
 1004MOL0     C35421   0.499   0.895   7.506  0.6198  1.1880  0.3975
 1004MOL0     N35422   0.593   0.939   7.611 -0.3630 -0.5223 -0.2656
 1004MOL0     C35423   0.729   0.944   7.596 -0.2413 -1.3155  0.1279
 1004MOL0     C35424   0.769   1.040   7.684 -0.0013  0.3981 -0.1181
 1004MOL0     C35425   0.908   1.091   7.718 -0.6355 -0.4185  0.4863
 1004MOL0     C35426   0.949   1.203   7.623  0.1740  0.1963 -1.0176
 1004MOL0     C35427   1.096   1.244   7.645 -0.0145 -0.1020  0.7233
 1004MOL0     C35428   1.147   1.352   7.545  0.0971 -0.3805 -0.0940
 1004MOL0     O35429   1.167   1.280   7.425 -0.6701 -0.2461  0.0690
 1004MOL0     C35430   1.279   1.305   7.343  0.2295  0.4289  0.4339
 1004MOL0     C35431   1.369   1.410   7.359 -1.4691 -0.9482 -0.5396
 1004MOL0     C35432   1.477   1.429   7.273 -0.3581 -0.4609  0.3743
 1004MOL0     C35433   1.558   1.553   7.304 -0.9496  0.2666  0.0001
 1004MOL0     C35434   1.501   1.333   7.175 -0.1029 -0.2918 -0.8177
 1004MOL0     C35435   1.614   1.343   7.084 -0.3776 -0.3103 -0.3089
 1004MOL0     O35436   1.601   1.275   6.972 -0.5113  0.1504  0.1138
 1004MOL0     C35437   1.715   1.254   6.895  0.6639  0.8672 -0.0733
 1004MOL0     C35438   1.808   1.136   6.911  0.3321 -1.2558  0.0379
 1004MOL0     C35439   1.921   1.130   6.838  1.0143  0.1121  0.2143
 1004MOL0     C35440   1.963   1.236   6.758  0.6355  0.8462 -0.0291
 1004MOL0     O35441   2.085   1.227   6.697 -0.1286  0.4746 -0.2443
 1004MOL0     C35442   2.168   1.324   6.747 -0.2199  0.2733 -0.4870
 1004MOL0     C35443   2.312   1.311   6.684  0.8784  0.6889  0.1950
 1004MOL0     C35444   2.339   1.387   6.552 -0.0686 -0.7163  0.0303
 1004MOL0     C35445   2.487   1.423   6.541 -0.6722 -0.9656 -0.9797
 1004MOL0     C35446   2.527   1.457   6.397 -0.5705  0.1198  0.8913
 1004MOL0     C35447   2.679   1.493   6.390 -0.1375 -0.2534  0.8192
 1004MOL0     C35448   2.718   1.478   6.242  0.2541 -0.1855  0.0634
 1004MOL0     C35449   2.848   1.565   6.220 -0.5563 -0.0427 -0.2212
 1004MOL0    Cl35450   2.987   1.471   6.267 -0.1397 -0.1645 -0.3686
 1004MOL0     C35451   1.871   1.342   6.724 -0.2448 -0.0171  0.2000
 1004MOL0     C35452   1.749   1.347   6.799  0.0011 -0.4647  0.6198
 1004MOL0     O35453   1.719   1.408   7.118  0.6832 -0.3213 -0.4539
 1004MOL0     C35454   1.418   1.228   7.166  0.4298  0.6929  0.4182
 1004MOL0     C35455   1.308   1.212   7.245  0.1130 -0.0418  0.2887
 1004MOL0     N35456   0.665   1.099   7.747 -0.6546 -0.0239  0.5052
 1004MOL0     N35457   0.564   1.055   7.686 -0.3619 -0.2762  0.4243
 1004MOL0     C35458   0.548   0.799   6.709  1.2852  0.0274  0.4986
 1004MOL0     C35459   0.657   0.822   6.629 -0.5658  0.7048  0.0505
 1004MOL0     C35460   1.058   0.739   6.423 -0.8955  0.3158 -0.6081
 1004MOL0     C35461   1.047   0.824   6.320  0.5017 -0.1712  0.0723
 1004MOL0     C35462   1.160   0.878   6.254  0.3027 -0.1292  0.0519
 1004MOL0     C35463   1.287   0.826   6.290  0.3256 -0.6190  0.6971
 1004MOL0     O35464   1.396   0.893   6.237  0.2299  0.1319 -0.6755
 1004MOL0     C35465   1.531   0.857   6.271  0.3037 -0.4050 -0.0565
 1004MOL0     C35466   1.620   0.926   6.158  0.0441  0.1161  0.0116
 1004MOL0     C35467   1.612   1.078   6.151 -1.1829 -0.3215 -0.0783
 1004MOL0     C35468   1.661   1.138   6.284 -0.0736  0.1863  0.0941
 1004MOL0     C35469   1.710   1.276   6.257  0.8436 -0.2205  0.4092
 1004MOL0     C35470   1.756   1.386   6.260 -0.0850  0.8833  0.1344
 1004MOL0     C35471   1.306   0.723   6.384  0.1086  0.3133 -0.6531
 1004MOL0     C35472   1.188   0.678   6.446  0.3431 -0.1918 -0.9651
 1004MOL0     H35473   0.696   0.514   6.490  0.9286  0.0805 -0.6845
 1004MOL0     H35474   0.495   0.480   6.607 -0.2472  0.4989 -0.7472
 1004MOL0     H35475   0.327   0.448   6.797 -1.5133 -0.9178  1.5341
 1004MOL0     H35476   0.469   0.500   6.896 -0.2521 -1.3795 -1.5433
 1004MOL0     H35477   0.184   0.556   6.958 -1.0663  2.3177  4.2136
 1004MOL0     H35478   0.281   0.421   7.023 -2.6911  0.1821  0.1869
 1004MOL0     H35479   0.444   0.631   7.084  0.4503 -0.9624 -0.4055
 1004MOL0     H35480   0.299   0.726   7.043  0.0321  0.3833  1.8183
 1004MOL0     H35481   0.171   0.602   7.227  0.2948  4.3082 -0.8659
 1004MOL0     H35482   0.322   0.508   7.236  1.2007  0.8547 -2.3116
 1004MOL0     H35483   0.288   0.811   7.318  3.1043  0.6211  1.1288
 1004MOL0     H35484   0.311   0.686   7.426  1.3112 -0.4363  1.0622
 1004MOL0     H35485   0.521   0.617   7.298 -0.2432 -0.3383 -1.0253
 1004MOL0     H35486   0.524   0.780   7.236  2.5051 -1.4376  0.5532
 1004MOL0     H35487   0.510   0.686   7.523 -2.8025 -0.9887 -1.0699
 1004MOL0     H35488   0.650   0.767   7.439  0.7684  2.4963  3.4102
 1004MOL0     H35489   0.401   0.903   7.555 -0.4168  0.8971 -1.5180
 1004MOL0     H35490   0.503   0.972   7.428  2.4787  3.1846  2.3336
 1004MOL0     H35491   0.796   0.877   7.541 -0.0005 -0.0182 -1.2303
 1004MOL0     H35492   0.919   1.132   7.819  2.2448  5.9922 -1.9118
 1004MOL0     H35493   0.972   1.003   7.705 -0.5022 -0.2339 -0.1200
 1004MOL0     H35494   0.893   1.295   7.643  0.2570  0.4790 -2.0112
 1004MOL0     H35495   0.936   1.173   7.518 -0.1553 -0.4664 -0.7950
 1004MOL0     H35496   1.163   1.159   7.651  0.6896  0.2850 -0.9694
 1004MOL0     H35497   1.099   1.283   7.747  1.2941 -0.6198  0.8993
 1004MOL0     H35498   1.246   1.389   7.574 -1.2673  7.0246 -2.8178
 1004MOL0     H35499   1.087   1.442   7.530  1.4298  0.6514  0.5353
 1004MOL0     H35500   1.338   1.489   7.426 -1.5985 -2.8085  1.7039
 1004MOL0     H35501   1.642   1.525   7.368 -3.0758 -1.7727  2.0881
 1004MOL0     H35502   1.599   1.600   7.214 -0.5574 -2.3685 -1.3019
 1004MOL0     H35503   1.497   1.630   7.351  1.6203  4.3523 -2.7134
 1004MOL0     H35504   1.770   1.061   6.979  0.1565  1.1898  2.8507
 1004MOL0     H35505   1.991   1.047   6.846 -0.4201 -1.4421 -2.0706
 1004MOL0     H35506   2.137   1.429   6.742 -1.0328  0.3951  3.4324
 1004MOL0     H35507   2.178   1.304   6.854  0.1852  2.6903 -0.0191
 1004MOL0     H35508   2.373   1.346   6.768 -0.1470  6.9109 -1.1508
 1004MOL0     H35509   2.325   1.205   6.663  0.7299  0.8666 -0.8100
 1004MOL0     H35510   2.293   1.486   6.558  1.1068 -0.0995 -0.7221
 1004MOL0     H35511   2.309   1.339   6.458  1.3251 -3.2127  0.7542
 1004MOL0     H35512   2.505   1.511   6.604 -1.5945  0.2506 -2.3515
 1004MOL0     H35513   2.552   1.336   6.552 -1.6086 -1.7228 -1.3366
 1004MOL0     H35514   2.473   1.543   6.358  1.2873  2.1425  2.4855
 1004MOL0     H35515   2.511   1.367   6.337  0.4777  1.7460 -2.0317
 1004MOL0     H35516   2.682   1.597   6.423 -1.6688  0.8224 -2.0424
 1004MOL0     H35517   2.736   1.422   6.451  0.7671 -2.4655 -2.2968
 1004MOL0     H35518   2.630   1.495   6.179 -0.2614 -1.1870  0.4906
 1004MOL0     H35519   2.747   1.375   6.221  1.2337 -0.3336  1.9473
 1004MOL0     H35520   2.847   1.659   6.276 -0.1827  0.1225 -0.4851
 1004MOL0     H35521   2.855   1.587   6.113 -0.3849  0.2978 -0.1429
 1004MOL0     H35522   1.902   1.430   6.669 -2.0171  0.8293  0.4762
 1004MOL0     H35523   1.681   1.426   6.767  3.5802  3.2402  1.3128
 1004MOL0     H35524   1.438   1.153   7.090 -1.2549  1.5063 -0.8866
 1004MOL0     H35525   1.247   1.123   7.235  2.1045 -1.4440  0.1201
 1004MOL0     H35526   0.502   0.884   6.758 -0.6580  0.9210 -2.6511
 1004MOL0     H35527   0.722   0.908   6.637  1.1502 -0.5115 -0.3265
 1004MOL0     H35528   0.944   0.854   6.302  0.4404 -1.1990 -1.5003
 1004MOL0     H35529   1.160   0.956   6.178 -3.4290  0.7585  0.7322
 1004MOL0     H35530   1.550   0.894   6.373 -0.2305  0.0607 -0.1189
 1004MOL0     H35531   1.537   0.748   6.273  1.9114 -0.3377  0.4412
 1004MOL0     H35532   1.571   0.887   6.069 -2.9008  0.9229  1.1588
 1004MOL0     H35533   1.723   0.889   6.151 -0.1679 -0.1407 -3.4039
 1004MOL0     H35534   1.511   1.116   6.131 -1.0714 -0.6724 -1.3555
 1004MOL0     H35535   1.682   1.121   6.079 -0.9079  0.0771  0.4186
 1004MOL0     H35536   1.737   1.075   6.330  1.4835  1.1521 -1.0716
 1004MOL0     H35537   1.574   1.141   6.351 -0.3972  2.1445 -0.3496
 1004MOL0     H35538   1.805   1.481   6.263  0.8898  0.3736  0.6449
 1004MOL0     H35539   1.401   0.686   6.421 -1.1447 -0.7426  1.7980
 1004MOL0     H35540   1.207   0.606   6.525  2.1012 -3.5046 -4.1084
 1005MOL0     O35541   7.521   5.184   0.495 -1.2595 -0.7401 -0.6349
 1005MOL0     C35542   7.609   5.234   0.560  0.2535  0.0050 -0.3111
 1005MOL0     O35543   7.708   5.312   0.509 -0.3341  0.1270  0.4284
 1005MOL0     C35544   7.770   5.306   0.383 -0.1029  0.0331 -0.5221
 1005MOL0     C35545   7.755   5.197   0.293  0.4510  0.5883 -0.4857
 1005MOL0     C35546   7.807   5.201   0.165 -0.6102  0.4620 -0.1638
 1005MOL0     C35547   7.876   5.318   0.127  0.7117 -0.6262  0.7043
 1005MOL0     O35548   7.923   5.344   0.003 -0.3573 -0.5581 -0.3154
 1005MOL0     C35549   7.829   5.308  -0.101 -0.9225  0.3274  0.8749
 1005MOL0     C35550   7.863   5.403  -0.211  0.5586  0.6132 -0.1722
 1005MOL0     C35551   7.801   5.361  -0.347  0.1470 -0.4317 -0.1738
 1005MOL0     C35552   7.845   5.234  -0.424 -0.2587  0.1516  0.2095
 1005MOL0     C35553   7.802   5.240  -0.571  0.0760 -0.4147 -0.1316
 1005MOL0     C35554   7.643   5.248  -0.579  0.2696  0.4533  0.4443
 1005MOL0     C35555   7.574   5.233  -0.715 -0.2598 -0.0352  0.2727
 1005MOL0     C35556   7.427   5.274  -0.700  0.1616  0.0072  0.5341
 1005MOL0     N35557   7.394   5.416  -0.724 -0.9863 -0.3038 -0.0019
 1005MOL0     C35558   7.268   5.458  -0.757 -0.5156 -0.3305  0.1946
 1005MOL0     C35559   7.275   5.597  -0.757 -0.2871 -0.5665  0.6968
 1005MOL0     C35560   7.151   5.693  -0.784  0.1296  0.2376 -0.1300
 1005MOL0     C35561   7.131   5.796  -0.662  0.9663  0.0002  1.3783
 1005MOL0     C35562   7.006   5.888  -0.664  0.2939  0.2017  0.4002
 1005MOL0     C35563   7.043   6.025  -0.607  0.6051 -0.3565 -0.5270
 1005MOL0     O35564   7.058   6.030  -0.460 -0.1882 -0.8924 -0.0238
 1005MOL0     C35565   6.973   6.077  -0.373 -0.9233 -0.8035 -0.4709
 1005MOL0     C35566   6.838   6.082  -0.391  0.0288  0.5659 -1.0669
 1005MOL0     C35567   6.755   6.133  -0.302  0.3011 -0.0033 -0.2175
 1005MOL0     C35568   6.611   6.136  -0.347 -0.5889 -0.7249  0.4294
 1005MOL0     C35569   6.806   6.196  -0.187 -0.4985  0.7745  0.0983
 1005MOL0     C35570   6.717   6.245  -0.073  0.5644  0.4754  0.7209
 1005MOL0     O35571   6.787   6.318   0.018  0.1609 -0.1434  0.9088
 1005MOL0     C35572   6.722   6.399   0.118 -0.0759 -0.2228  0.0106
 1005MOL0     C35573   6.795   6.410   0.239  0.8993 -0.4527  0.2414
 1005MOL0     C35574   6.749   6.476   0.349 -0.8509 -0.1740  0.9051
 1005MOL0     C35575   6.615   6.521   0.344 -0.5136 -0.1568  0.1464
 1005MOL0     O35576   6.559   6.595   0.451  0.4640  0.4442 -0.5096
 1005MOL0     C35577   6.642   6.634   0.566 -0.5306  0.3690 -0.7944
 1005MOL0     C35578   6.554   6.740   0.624 -0.7380 -0.3680 -1.0181
 1005MOL0     C35579   6.603   6.780   0.773  0.0769  0.4673 -0.1023
 1005MOL0     C35580   6.516   6.712   0.868  0.2630  0.0579  0.0850
 1005MOL0     C35581   6.577   6.700   1.007  0.4017 -0.2836  0.2827
 1005MOL0     C35582   6.695   6.600   1.012 -0.8710 -0.6689  0.4220
 1005MOL0     C35583   6.768   6.617   1.146 -0.5398  0.1374 -0.1065
 1005MOL0     C35584   6.849   6.493   1.184 -0.2650 -0.4423  0.4608
 1005MOL0    Cl35585   6.956   6.468   1.030  0.0850  0.2167  0.2828
 1005MOL0     C35586   6.547   6.516   0.231  0.3768  0.0324  1.6773
 1005MOL0     C35587   6.604   6.457   0.112 -0.1836 -0.4199 -0.5245
 1005MOL0     O35588   6.593   6.228  -0.082 -0.4322 -0.7841 -0.5122
 1005MOL0     C35589   6.939   6.190  -0.160 -0.1585  0.6025 -0.3295
 1005MOL0     C35590   7.023   6.128  -0.254  0.9127 -0.4140 -0.0894
 1005MOL0     N35591   7.405   5.634  -0.729 -0.9823  0.5412 -0.4891
 1005MOL0     N35592   7.475   5.529  -0.717  0.2277  0.3289  0.5227
 1005MOL0     C35593   7.898   5.413   0.222  0.3047 -0.6817 -0.7972
 1005MOL0     C35594   7.848   5.413   0.350 -0.8318 -0.6904 -0.0692
 1005MOL0     C35595   7.609   5.218   0.704 -0.4035  0.2367 -0.7154
 1005MOL0     C35596   7.482   5.225   0.778 -0.1557 -0.7387 -0.6991
 1005MOL0     C35597   7.494   5.223   0.916 -0.0519 -0.2708  0.1887
 1005MOL0     C35598   7.611   5.187   0.981  0.1122 -0.2516  0.2605
 1005MOL0     O35599   7.638   5.165   1.111  0.9568  1.0725  0.1706
 1005MOL0     C35600   7.549   5.230   1.202 -0.5523  0.2158 -0.5136
 1005MOL0     C35601   7.603   5.191   1.341 -0.7645 -0.6233 -0.2024
 1005MOL0     C35602   7.599   5.309   1.433  0.0180  0.3076  0.3335
 1005MOL0     C35603   7.467   5.350   1.477 -0.3936  0.4315  0.3450
 1005MOL0     C35604   7.434   5.281   1.607 -0.8062 -0.0961 -0.1143
 1005MOL0     C35605   7.417   5.216   1.709  0.8407 -0.2087 -0.8175
 1005MOL0     C35606   7.729   5.172   0.907  0.1672 -0.6277 -1.2462
 1005MOL0     C35607   7.732   5.184   0.764 -0.6977  0.3726 -0.4940
 1005MOL0     H35608   7.707   5.106   0.329  0.2509  0.6771 -0.5284
 1005MOL0     H35609   7.792   5.122   0.093 -1.3217  0.8643 -0.4670
 1005MOL0     H35610   7.847   5.202  -0.124  1.6006  0.7538  0.5241
 1005MOL0     H35611   7.724   5.328  -0.077 -1.2487 -1.5728  1.2020
 1005MOL0     H35612   7.830   5.504  -0.186 -0.7904  0.5655 -1.5947
 1005MOL0     H35613   7.971   5.411  -0.226  0.5330 -1.2977 -1.9390
 1005MOL0     H35614   7.692   5.367  -0.338  0.2314  1.6028  0.0568
 1005MOL0     H35615   7.840   5.445  -0.405 -0.8050 -0.6439 -1.1599
 1005MOL0     H35616   7.954   5.222  -0.424 -0.2167  0.4685  0.7585
 1005MOL0     H35617   7.800   5.150  -0.370  0.7605  0.0138  0.8755
 1005MOL0     H35618   7.836   5.324  -0.633  0.0416 -0.5646 -0.3564
 1005MOL0     H35619   7.833   5.145  -0.616 -0.3588 -0.5731 -0.0984
 1005MOL0     H35620   7.613   5.165  -0.514  0.9646 -0.1078  0.0576
 1005MOL0     H35621   7.627   5.353  -0.551  1.2928  2.3415 -4.9008
 1005MOL0     H35622   7.613   5.298  -0.794 -0.7117 -0.1301 -0.0339
 1005MOL0     H35623   7.592   5.127  -0.732  2.6485  0.0722  2.0132
 1005MOL0     H35624   7.386   5.253  -0.600 -0.6913 -1.7046 -0.1399
 1005MOL0     H35625   7.364   5.214  -0.767 -2.2966  0.6256  2.1252
 1005MOL0     H35626   7.172   5.407  -0.752 -1.1278  0.9084  2.4820
 1005MOL0     H35627   7.160   5.742  -0.881 -1.3452  1.2628  0.2245
 1005MOL0     H35628   7.058   5.636  -0.786  0.3006 -0.0274 -0.5758
 1005MOL0     H35629   7.225   5.851  -0.674 -0.7709  2.7167 -1.5320
 1005MOL0     H35630   7.133   5.755  -0.561 -2.3923  2.4955  2.6437
 1005MOL0     H35631   6.928   5.842  -0.602 -0.3492  1.4300  0.5361
 1005MOL0     H35632   6.981   5.903  -0.769 -0.2651 -0.5802  0.4110
 1005MOL0     H35633   6.960   6.094  -0.627  0.0174 -0.0954  2.3956
 1005MOL0     H35634   7.127   6.067  -0.664  1.2817 -0.5798  0.2940
 1005MOL0     H35635   6.777   6.039  -0.470 -3.5087  1.0625  1.1463
 1005MOL0     H35636   6.540   6.120  -0.266  0.5962 -1.1375  1.4090
 1005MOL0     H35637   6.586   6.236  -0.387  1.2286 -0.1502  0.6196
 1005MOL0     H35638   6.586   6.061  -0.422 -0.6440 -1.4531  1.1686
 1005MOL0     H35639   6.900   6.389   0.225  0.4557 -2.6809 -0.0491
 1005MOL0     H35640   6.814   6.486   0.434  1.5294  1.6823 -0.9770
 1005MOL0     H35641   6.648   6.550   0.634 -1.7820 -0.4806 -1.6873
 1005MOL0     H35642   6.734   6.689   0.544 -0.5922  1.0921  0.6307
 1005MOL0     H35643   6.557   6.831   0.562  0.7949  1.6159  1.7378
 1005MOL0     H35644   6.448   6.713   0.626 -0.8846 -0.3839 -4.1701
 1005MOL0     H35645   6.584   6.888   0.780  0.5641  0.7281 -2.0498
 1005MOL0     H35646   6.710   6.762   0.786  0.1939  0.8223 -0.5184
 1005MOL0     H35647   6.416   6.755   0.874 -0.0880 -0.7647  0.2260
 1005MOL0     H35648   6.501   6.609   0.834  0.2011 -0.1888  0.8370
 1005MOL0     H35649   6.509   6.677   1.089  2.1355  2.9282  2.8566
 1005MOL0     H35650   6.613   6.800   1.035 -1.8951  0.4871  0.6863
 1005MOL0     H35651   6.653   6.502   0.985  1.6037 -1.3758 -1.2621
 1005MOL0     H35652   6.769   6.615   0.934 -0.9367 -2.4832 -0.0411
 1005MOL0     H35653   6.705   6.640   1.232  0.5063 -0.1893  0.7733
 1005MOL0     H35654   6.842   6.698   1.147 -0.6442  0.2833  2.5164
 1005MOL0     H35655   6.787   6.405   1.205  1.5428 -1.2313  3.0975
 1005MOL0     H35656   6.917   6.514   1.268  2.8040 -2.8019 -1.2199
 1005MOL0     H35657   6.448   6.557   0.213 -1.2737 -4.0654  0.0368
 1005MOL0     H35658   6.551   6.465   0.017  1.4339  0.4381 -1.3953
 1005MOL0     H35659   6.985   6.228  -0.069 -0.2295 -0.5927  0.2296
 1005MOL0     H35660   7.128   6.109  -0.233  0.9755  1.9882  2.4052
 1005MOL0     H35661   7.955   5.499   0.187  0.2276 -1.1268 -2.0731
 1005MOL0     H35662   7.864   5.489   0.426  0.1442 -1.8091  0.8797
 1005MOL0     H35663   7.388   5.250   0.730 -0.3257 -3.3977 -1.8794
 1005MOL0     H35664   7.416   5.257   0.984  1.9554 -3.8329  4.8665
 1005MOL0     H35665   7.556   5.336   1.177 -1.2492  0.3538 -0.1435
 1005MOL0     H35666   7.447   5.191   1.197  0.4075 -2.3175 -1.7213
 1005MOL0     H35667   7.708   5.164   1.324 -0.2755  2.3313 -2.7193
 1005MOL0     H35668   7.553   5.102   1.380  0.6744 -1.2234  0.3673
 1005MOL0     H35669   7.636   5.399   1.383  0.1835 -0.8762 -1.8062
 1005MOL0     H35670   7.662   5.276   1.516 -0.5153  0.1649  0.6876
 1005MOL0     H35671   7.399   5.317   1.397 -1.7082  1.9241  0.8010
 1005MOL0     H35672   7.451   5.457   1.489  0.8262  0.7614 -0.7460
 1005MOL0     H35673   7.414   5.157   1.798 -1.7889  1.4302  0.3004
 1005MOL0     H35674   7.823   5.140   0.951  0.9575  0.1671 -2.3015
 1005MOL0     H35675   7.827   5.186   0.712 -0.9712 -1.7450 -1.1611
 1006MOL0     O35676   8.619   2.577   4.257 -0.6562  0.4978  0.3771
 1006MOL0     C35677   8.625   2.598   4.133 -0.4152 -0.2060  0.5484
 1006MOL0     O35678   8.524   2.564   4.036 -0.1680 -0.4727 -0.0453
 1006MOL0     C35679   8.410   2.520   4.087  0.3142  0.1145  0.0937
 1006MOL0     C35680   8.387   2.383   4.117 -0.1556 -0.6355 -0.6986
 1006MOL0     C35681   8.269   2.338   4.162  0.7113 -0.1743 -0.0317
 1006MOL0     C35682   8.160   2.435   4.158 -1.0557  0.3413  0.1941
 1006MOL0     O35683   8.037   2.379   4.171 -0.7582 -0.3437  0.4897
 1006MOL0     C35684   7.925   2.457   4.186  0.2278  0.0871 -0.0634
 1006MOL0     C35685   7.807   2.365   4.222 -1.1278 -0.0093  0.1446
 1006MOL0     C35686   7.683   2.440   4.261  0.2614 -0.0876  0.1748
 1006MOL0     C35687   7.547   2.369   4.231 -0.4468 -0.4623  0.1817
 1006MOL0     C35688   7.448   2.483   4.198  0.2729  0.4967  0.9090
 1006MOL0     C35689   7.308   2.430   4.162  0.6719 -0.7286  0.7628
 1006MOL0     C35690   7.201   2.550   4.169 -1.0242  0.2508  0.1459
 1006MOL0     C35691   7.146   2.555   4.311  0.1695  0.7493  0.8636
 1006MOL0     N35692   7.055   2.664   4.335  0.2431  0.4539  0.0336
 1006MOL0     C35693   6.926   2.686   4.288 -0.1360  0.7323 -0.4426
 1006MOL0     C35694   6.896   2.807   4.319  1.0035 -1.4281  0.2574
 1006MOL0     C35695   6.782   2.895   4.264 -0.3747  0.8183  0.3551
 1006MOL0     C35696   6.656   2.820   4.258 -0.2541 -0.8661  0.0233
 1006MOL0     C35697   6.605   2.745   4.386  0.2158  0.3805 -0.0615
 1006MOL0     C35698   6.453   2.715   4.379  0.3726  0.2515 -0.5734
 1006MOL0     O35699   6.382   2.816   4.444  0.9181 -0.3424 -0.0446
 1006MOL0     C35700   6.273   2.878   4.387  0.3763 -0.8978  0.4971
 1006MOL0     C35701   6.192   2.939   4.474  0.9783  0.2603 -0.5174
 1006MOL0     C35702   6.074   2.996   4.433  0.3877  0.0541  0.2055
 1006MOL0     C35703   5.986   3.044   4.544  0.5123 -0.7530  0.9064
 1006MOL0     C35704   6.037   2.999   4.295  0.9855 -0.7931 -0.1063
 1006MOL0     C35705   5.914   3.068   4.255 -0.2767  0.7949  1.0371
 1006MOL0     O35706   5.924   3.118   4.128  0.3392  0.3575  0.4288
 1006MOL0     C35707   5.814   3.163   4.063 -0.2856  0.3174  0.2730
 1006MOL0     C35708   5.696   3.082   4.052 -0.3182  1.6515 -0.1026
 1006MOL0     C35709   5.588   3.126   3.973  1.0276 -0.2604 -0.0260
 1006MOL0     C35710   5.590   3.244   3.901  0.2439  0.3612 -1.0588
 1006MOL0     O35711   5.486   3.305   3.840  0.4357  0.2338  0.0454
 1006MOL0     C35712   5.390   3.216   3.776 -0.8290 -0.9233  0.7495
 1006MOL0     C35713   5.313   3.310   3.682  0.4423 -0.0620 -0.2048
 1006MOL0     C35714   5.225   3.232   3.590  0.5359 -0.4625  0.2096
 1006MOL0     C35715   5.111   3.316   3.519  0.4684 -0.5643 -0.1205
 1006MOL0     C35716   5.120   3.285   3.366  0.7214  0.2948 -0.2655
 1006MOL0     C35717   5.004   3.366   3.300 -0.2543 -0.4318  0.3849
 1006MOL0     C35718   5.024   3.368   3.141 -0.6817  0.2618 -0.0944
 1006MOL0     C35719   4.928   3.467   3.074  1.0353  0.4023 -0.0589
 1006MOL0    Cl35720   4.999   3.506   2.912 -0.1158  0.0390  0.1382
 1006MOL0     C35721   5.714   3.316   3.908 -0.1972  0.2360  0.4570
 1006MOL0     C35722   5.827   3.269   3.978 -0.4230  0.3919 -0.2549
 1006MOL0     O35723   5.811   3.064   4.321  0.2918 -0.2220  0.0563
 1006MOL0     C35724   6.130   2.950   4.202 -0.0916  0.8492  0.2123
 1006MOL0     C35725   6.253   2.894   4.246  0.6488 -0.0831 -0.0433
 1006MOL0     N35726   6.999   2.859   4.394 -0.3022 -0.5128  0.1240
 1006MOL0     N35727   7.087   2.770   4.413 -0.4841 -0.2834  0.0680
 1006MOL0     C35728   8.181   2.571   4.126  0.0696 -0.3206 -0.0566
 1006MOL0     C35729   8.313   2.612   4.095 -0.3340 -0.0982  0.2656
 1006MOL0     C35730   8.752   2.627   4.068  0.4309 -0.2968  0.2241
 1006MOL0     C35731   8.873   2.651   4.142 -0.9502  1.9048  0.0665
 1006MOL0     C35732   9.000   2.666   4.084 -0.4106  0.5767  0.2171
 1006MOL0     C35733   9.020   2.659   3.951 -0.1178 -0.8709  0.5426
 1006MOL0     O35734   9.148   2.657   3.920 -0.9236 -0.5159  0.1351
 1006MOL0     C35735   9.182   2.639   3.781  0.2346  0.2586 -0.4853
 1006MOL0     C35736   9.303   2.728   3.746 -0.4854 -0.1414  0.0647
 1006MOL0     C35737   9.426   2.710   3.843  0.1034  0.0770 -0.3787
 1006MOL0     C35738   9.543   2.799   3.807  0.4013 -0.4767 -0.4720
 1006MOL0     C35739   9.678   2.731   3.806  0.8722 -0.1286 -0.6388
 1006MOL0     C35740   9.785   2.672   3.810 -0.3602 -0.7485 -0.6446
 1006MOL0     C35741   8.907   2.641   3.870 -0.1935  0.1197  0.1262
 1006MOL0     C35742   8.774   2.609   3.929  0.5505 -0.3007  0.3126
 1006MOL0     H35743   8.472   2.317   4.096  2.0006  2.2616 -1.8141
 1006MOL0     H35744   8.247   2.233   4.176 -0.2002 -0.0224 -0.2751
 1006MOL0     H35745   7.934   2.530   4.267  1.4403 -0.2991  0.1705
 1006MOL0     H35746   7.907   2.512   4.093 -2.3506  0.8591  0.7983
 1006MOL0     H35747   7.778   2.309   4.133 -1.3319  2.2371 -1.2825
 1006MOL0     H35748   7.831   2.298   4.306 -1.2693  2.0887  1.9687
 1006MOL0     H35749   7.686   2.469   4.366  1.7074  1.8393 -0.3434
 1006MOL0     H35750   7.678   2.524   4.191 -0.1297 -2.1071 -2.3956
 1006MOL0     H35751   7.567   2.298   4.150  2.1147 -0.5827  0.8346
 1006MOL0     H35752   7.522   2.310   4.319  1.9458 -2.6046 -0.4437
 1006MOL0     H35753   7.448   2.548   4.286  0.6582 -2.4790  3.2805
 1006MOL0     H35754   7.474   2.554   4.119  1.7216  0.9465  1.7536
 1006MOL0     H35755   7.319   2.397   4.058  0.1224  0.6415  0.2423
 1006MOL0     H35756   7.275   2.353   4.232 -0.3407 -0.6325  0.4091
 1006MOL0     H35757   7.249   2.642   4.134 -0.9949  0.1697 -0.0311
 1006MOL0     H35758   7.121   2.522   4.099  0.1913 -2.2078 -0.3445
 1006MOL0     H35759   7.230   2.567   4.380  1.3483  2.8939 -0.8077
 1006MOL0     H35760   7.103   2.457   4.333  0.8351  0.8247  2.6014
 1006MOL0     H35761   6.870   2.613   4.230 -2.2042  2.0981 -0.2678
 1006MOL0     H35762   6.766   2.980   4.331  0.0072  1.8836 -0.8636
 1006MOL0     H35763   6.810   2.926   4.163 -1.1842 -0.5156 -0.3022
 1006MOL0     H35764   6.654   2.751   4.173  0.3686  0.4038 -1.0689
 1006MOL0     H35765   6.583   2.899   4.239 -0.9415 -1.2180  1.1153
 1006MOL0     H35766   6.618   2.806   4.476  0.3559 -0.0074  0.1796
 1006MOL0     H35767   6.661   2.652   4.396 -2.5275 -1.3938 -0.2609
 1006MOL0     H35768   6.436   2.627   4.441 -0.9682  2.0783  1.8345
 1006MOL0     H35769   6.420   2.710   4.275  2.6802  1.9184 -1.4710
 1006MOL0     H35770   6.222   2.923   4.577  3.5647 -2.7220 -1.5504
 1006MOL0     H35771   5.904   2.971   4.548  2.1817 -3.0582 -2.2997
 1006MOL0     H35772   6.041   3.029   4.637  1.5298 -5.8877 -0.2254
 1006MOL0     H35773   5.963   3.151   4.536  0.6921 -0.8554 -1.9204
 1006MOL0     H35774   5.704   2.986   4.103  1.4154  2.6290  1.5907
 1006MOL0     H35775   5.501   3.064   3.959  0.0191  0.1375  3.5536
 1006MOL0     H35776   5.440   3.138   3.719  1.8663  0.0451  1.6094
 1006MOL0     H35777   5.330   3.165   3.852 -0.3227 -0.1877  1.6705
 1006MOL0     H35778   5.255   3.368   3.755  2.5318  1.8330  0.0737
 1006MOL0     H35779   5.380   3.379   3.630  0.2428 -0.9756 -1.7196
 1006MOL0     H35780   5.193   3.156   3.662  2.9886  0.5350  2.4816
 1006MOL0     H35781   5.289   3.176   3.521 -1.2048 -1.9898 -0.2734
 1006MOL0     H35782   5.021   3.278   3.569  0.7252  0.4011  1.0930
 1006MOL0     H35783   5.113   3.420   3.553 -4.6505 -1.4107  4.2285
 1006MOL0     H35784   5.099   3.179   3.347 -2.5396  1.0724 -1.8276
 1006MOL0     H35785   5.216   3.325   3.331  1.7765 -2.4083 -0.7570
 1006MOL0     H35786   4.909   3.318   3.326  0.0373 -2.0679 -1.3155
 1006MOL0     H35787   5.013   3.466   3.343  0.5052 -1.1570  1.9950
 1006MOL0     H35788   5.001   3.268   3.105 -1.7507  0.6589 -0.5748
 1006MOL0     H35789   5.122   3.407   3.115 -1.1325  1.0659 -0.6522
 1006MOL0     H35790   4.904   3.559   3.129  0.2848 -1.1156  2.2989
 1006MOL0     H35791   4.827   3.429   3.058  0.0245  1.6881  2.6303
 1006MOL0     H35792   5.736   3.413   3.866 -0.8100 -0.9257 -2.8786
 1006MOL0     H35793   5.924   3.318   3.985 -0.9693  2.1304 -3.0828
 1006MOL0     H35794   6.105   2.943   4.097  1.1026  1.0857 -0.1079
 1006MOL0     H35795   6.320   2.860   4.168  0.0955  1.4411 -1.2155
 1006MOL0     H35796   8.100   2.643   4.132 -0.6665 -1.1066 -0.3122
 1006MOL0     H35797   8.332   2.716   4.071 -3.3674  0.5793  0.3184
 1006MOL0     H35798   8.872   2.666   4.249  0.7628  0.3793  0.3506
 1006MOL0     H35799   9.091   2.681   4.140  1.3691  1.1686 -2.6053
 1006MOL0     H35800   9.202   2.534   3.757 -4.2016 -0.5116 -1.8546
 1006MOL0     H35801   9.103   2.670   3.712 -2.1911  1.0409  2.4032
 1006MOL0     H35802   9.272   2.832   3.734 -1.5156 -0.7180 -3.3202
 1006MOL0     H35803   9.324   2.687   3.647 -2.3876 -2.1354  0.4327
 1006MOL0     H35804   9.443   2.602   3.839 -1.4372 -0.2568  1.0350
 1006MOL0     H35805   9.398   2.729   3.948 -3.2003  0.1250 -1.1652
 1006MOL0     H35806   9.542   2.885   3.874 -2.2220 -1.0444  0.3045
 1006MOL0     H35807   9.531   2.836   3.704 -2.2638 -0.7950 -0.3313
 1006MOL0     H35808   9.887   2.639   3.809 -0.2738 -0.4957 -0.4942
 1006MOL0     H35809   8.903   2.621   3.763  0.2174 -1.6870  0.4031
 1006MOL0     H35810   8.698   2.575   3.860  1.3392 -3.2496  0.7413
 1007MOL0     O35811   8.141   1.752   5.569 -0.2392  0.0447 -0.4268
 1007MOL0     C35812   8.215   1.728   5.475  0.5470  0.2068 -0.0148
 1007MOL0     O35813   8.198   1.769   5.347  0.5506 -0.0149 -0.0249
 1007MOL0     C35814   8.075   1.825   5.307 -0.4128  0.7088  0.2480
 1007MOL0     C35815   7.968   1.744   5.280 -0.3062  0.2458  0.2087
 1007MOL0     C35816   7.856   1.812   5.222  0.1364  1.3148 -0.7027
 1007MOL0     C35817   7.853   1.953   5.193 -0.0614  0.7554 -0.2035
 1007MOL0     O35818   7.741   2.017   5.139  0.0793 -0.4158 -0.3207
 1007MOL0     C35819   7.614   1.952   5.136  0.6139 -0.2464 -0.2961
 1007MOL0     C35820   7.595   1.903   4.998 -0.0763 -0.4867 -0.0107
 1007MOL0     C35821   7.459   1.840   4.980 -0.3292  1.2877  1.2208
 1007MOL0     C35822   7.363   1.937   4.929 -0.3732  0.7603  0.6619
 1007MOL0     C35823   7.233   1.868   4.882  0.4918 -0.2895  0.2137
 1007MOL0     C35824   7.138   1.970   4.819  0.1221  0.2555 -0.8546
 1007MOL0     C35825   7.019   1.916   4.739  0.0351 -0.2400  0.1304
 1007MOL0     C35826   6.950   1.795   4.802 -0.1683  0.2099 -0.0141
 1007MOL0     N35827   6.827   1.755   4.717 -1.1862  0.1922 -0.5882
 1007MOL0     C35828   6.730   1.828   4.650 -0.3171 -0.0466 -0.4262
 1007MOL0     C35829   6.656   1.739   4.583 -0.1890  0.0152  0.0616
 1007MOL0     C35830   6.553   1.758   4.486 -0.7653 -1.0243 -0.3303
 1007MOL0     C35831   6.422   1.753   4.541  0.7887 -0.1248 -0.6310
 1007MOL0     C35832   6.320   1.801   4.431 -0.1645  0.3451  0.1940
 1007MOL0     C35833   6.204   1.869   4.498 -0.0947  0.1286 -0.4527
 1007MOL0     O35834   6.125   1.936   4.403 -0.7270 -0.5377  0.8783
 1007MOL0     C35835   6.045   1.860   4.333  0.1259  0.3945  1.2927
 1007MOL0     C35836   6.016   1.729   4.345 -0.1047 -0.6206 -1.4731
 1007MOL0     C35837   5.921   1.657   4.270  0.0884  0.4624 -0.1181
 1007MOL0     C35838   5.917   1.511   4.295  0.0198  0.6765 -1.1456
 1007MOL0     C35839   5.848   1.726   4.166 -0.6707  0.2915 -0.2121
 1007MOL0     C35840   5.741   1.666   4.079 -0.2063 -0.0239 -0.5852
 1007MOL0     O35841   5.714   1.733   3.965 -0.1147  0.6115  0.8845
 1007MOL0     C35842   5.623   1.690   3.870 -0.2076  0.1669 -0.0099
 1007MOL0     C35843   5.621   1.551   3.826 -0.3142  0.2582 -0.5595
 1007MOL0     C35844   5.525   1.503   3.734  0.3839 -1.2167 -0.2860
 1007MOL0     C35845   5.424   1.585   3.686 -0.2470 -0.0419 -0.2423
 1007MOL0     O35846   5.349   1.532   3.585 -0.2973 -0.6520 -0.4141
 1007MOL0     C35847   5.293   1.613   3.484  0.5967  0.1109 -0.0037
 1007MOL0     C35848   5.196   1.543   3.390 -0.2587 -0.5276  0.6571
 1007MOL0     C35849   5.060   1.532   3.454 -0.4284  0.2767 -0.4349
 1007MOL0     C35850   4.954   1.452   3.364  0.3435  0.6787 -0.3377
 1007MOL0     C35851   4.966   1.300   3.365  0.2943 -0.3338 -0.5448
 1007MOL0     C35852   5.010   1.221   3.495 -0.0582 -0.4348  0.2288
 1007MOL0     C35853   4.896   1.184   3.579 -0.1257  0.5559 -0.5652
 1007MOL0     C35854   4.932   1.117   3.714  1.2991  1.0107  0.4719
 1007MOL0    Cl35855   5.011   1.249   3.820  0.2841 -0.0733  0.2545
 1007MOL0     C35856   5.421   1.722   3.731  0.0715 -0.5678  0.1432
 1007MOL0     C35857   5.524   1.776   3.818  0.4759  0.4176  0.5855
 1007MOL0     O35858   5.675   1.566   4.111  0.0896 -0.1156  0.0408
 1007MOL0     C35859   5.879   1.862   4.152 -0.3872 -0.8595  0.1844
 1007MOL0     C35860   5.980   1.928   4.232  0.0789 -0.0085  0.5565
 1007MOL0     N35861   6.701   1.608   4.610  0.4928 -0.1257 -0.4495
 1007MOL0     N35862   6.804   1.625   4.683  0.1904  0.5273 -0.8334
 1007MOL0     C35863   7.974   2.021   5.211  0.4457  0.1913  0.7437
 1007MOL0     C35864   8.079   1.957   5.271  0.2864  0.8027 -1.1691
 1007MOL0     C35865   8.338   1.650   5.492 -0.0073  0.6543 -0.0230
 1007MOL0     C35866   8.441   1.631   5.391 -0.2444  0.3589 -0.9195
 1007MOL0     C35867   8.560   1.551   5.416 -0.8692  0.8701  0.6251
 1007MOL0     C35868   8.580   1.500   5.544  0.1566 -0.8571  0.7037
 1007MOL0     O35869   8.695   1.427   5.564  0.5650 -0.6625  0.4999
 1007MOL0     C35870   8.732   1.400   5.701 -1.2986 -0.1756  0.1672
 1007MOL0     C35871   8.883   1.371   5.701  0.3694  0.1543 -1.1483
 1007MOL0     C35872   8.957   1.412   5.830 -0.5833 -0.0101  0.6539
 1007MOL0     C35873   9.100   1.368   5.831  0.2560 -0.3764 -1.0135
 1007MOL0     C35874   9.161   1.411   5.952 -0.2075 -1.0536  0.1738
 1007MOL0     C35875   9.216   1.427   6.060  1.3120 -0.1641 -0.4277
 1007MOL0     C35876   8.476   1.502   5.628  0.6074 -0.1915 -0.0395
 1007MOL0     C35877   8.357   1.571   5.609  1.5284 -0.0820  0.8855
 1007MOL0     H35878   7.966   1.639   5.306  0.1874 -0.1408 -1.2310
 1007MOL0     H35879   7.762   1.758   5.216  0.6349  0.3418  0.0489
 1007MOL0     H35880   7.593   1.874   5.210 -1.7711 -0.9268 -1.6006
 1007MOL0     H35881   7.539   2.029   5.156 -1.6624 -1.3574 -3.7091
 1007MOL0     H35882   7.613   1.989   4.932  1.9148  0.7540  1.9930
 1007MOL0     H35883   7.674   1.829   4.985  2.8123  2.4702 -0.7207
 1007MOL0     H35884   7.478   1.758   4.910 -0.0968  0.7033  1.9515
 1007MOL0     H35885   7.412   1.795   5.068 -1.0927  0.7506  0.5564
 1007MOL0     H35886   7.349   2.020   4.998 -1.9725  0.3362  0.9087
 1007MOL0     H35887   7.405   1.975   4.835  3.5399 -0.4669  1.7309
 1007MOL0     H35888   7.266   1.777   4.832  0.7543 -1.0566  1.7125
 1007MOL0     H35889   7.178   1.839   4.973 -0.3540  0.4793 -0.0355
 1007MOL0     H35890   7.107   2.044   4.894 -0.0365 -3.2570  2.9228
 1007MOL0     H35891   7.189   2.013   4.732  2.4624 -1.9292 -0.6836
 1007MOL0     H35892   6.945   1.997   4.730 -0.4148 -0.3742  2.1770
 1007MOL0     H35893   7.043   1.895   4.634 -1.8873 -0.2187 -0.3534
 1007MOL0     H35894   6.929   1.820   4.906 -1.4712  1.0263 -0.4510
 1007MOL0     H35895   7.020   1.712   4.793 -1.3802 -0.7644 -0.6663
 1007MOL0     H35896   6.721   1.936   4.637 -3.7935 -0.5478 -3.9913
 1007MOL0     H35897   6.570   1.855   4.439 -2.0477 -0.8688 -0.5109
 1007MOL0     H35898   6.554   1.685   4.405 -1.9259 -0.9473 -0.4300
 1007MOL0     H35899   6.411   1.825   4.623 -0.0673 -0.0311 -0.8149
 1007MOL0     H35900   6.392   1.655   4.579 -1.1860  0.0060 -1.7008
 1007MOL0     H35901   6.288   1.719   4.366 -2.6851 -0.4645  2.2881
 1007MOL0     H35902   6.358   1.874   4.359 -0.9282 -2.2986 -3.1284
 1007MOL0     H35903   6.252   1.943   4.561 -1.1059 -0.2123  0.7728
 1007MOL0     H35904   6.136   1.813   4.564 -1.0103  1.5117 -0.1844
 1007MOL0     H35905   6.076   1.677   4.420 -1.3560  1.7355  1.3718
 1007MOL0     H35906   5.989   1.475   4.369 -0.7876 -2.4725 -1.7253
 1007MOL0     H35907   5.816   1.490   4.332 -0.2710  2.5535 -0.7741
 1007MOL0     H35908   5.940   1.463   4.199  3.9642  0.2435 -0.1290
 1007MOL0     H35909   5.705   1.492   3.862  0.1629  2.3278  2.0944
 1007MOL0     H35910   5.538   1.401   3.700 -3.3092 -1.2660 -2.1406
 1007MOL0     H35911   5.229   1.691   3.526 -1.3226 -1.8245  0.8674
 1007MOL0     H35912   5.382   1.643   3.428 -0.0038  0.7764 -0.6417
 1007MOL0     H35913   5.196   1.616   3.309 -2.2913 -0.5893  0.5654
 1007MOL0     H35914   5.241   1.449   3.357 -0.6460 -0.3454 -0.4203
 1007MOL0     H35915   5.028   1.632   3.485  3.8811  0.9048  3.0537
 1007MOL0     H35916   5.066   1.482   3.551 -0.0683 -1.1960 -1.1811
 1007MOL0     H35917   4.852   1.474   3.395 -0.5500 -1.8705 -1.1747
 1007MOL0     H35918   4.964   1.478   3.258  2.6967 -1.8105 -0.8602
 1007MOL0     H35919   5.046   1.271   3.296 -0.8996  1.0581 -2.6325
 1007MOL0     H35920   4.875   1.247   3.335 -0.5732 -0.7880  2.5085
 1007MOL0     H35921   5.056   1.131   3.454 -1.7611 -1.4814  0.5295
 1007MOL0     H35922   5.084   1.277   3.553 -0.1921 -0.0855  0.0676
 1007MOL0     H35923   4.825   1.125   3.520  1.4775  0.2187 -2.2702
 1007MOL0     H35924   4.845   1.278   3.597 -1.6019  0.3782 -3.2826
 1007MOL0     H35925   5.001   1.034   3.699 -0.1294 -0.1074 -0.1433
 1007MOL0     H35926   4.839   1.078   3.757  1.3518 -1.8102 -1.7122
 1007MOL0     H35927   5.343   1.783   3.685 -0.6716 -0.9231  0.9078
 1007MOL0     H35928   5.527   1.876   3.859 -0.2777  0.8900 -0.4821
 1007MOL0     H35929   5.842   1.922   4.069  0.2752  0.1681  0.6107
 1007MOL0     H35930   5.995   2.036   4.222  0.3817  0.1277  2.1876
 1007MOL0     H35931   7.981   2.124   5.178 -1.7051 -0.1978 -1.1703
 1007MOL0     H35932   8.177   2.002   5.253  0.2473  1.1162 -0.5989
 1007MOL0     H35933   8.419   1.673   5.294  0.4818 -0.9375 -1.6648
 1007MOL0     H35934   8.648   1.536   5.353  0.6579  1.3517  2.5443
 1007MOL0     H35935   8.710   1.476   5.777  1.3909 -1.0068  1.9072
 1007MOL0     H35936   8.690   1.307   5.738  0.6641 -0.4919  1.7758
 1007MOL0     H35937   8.938   1.422   5.621  2.3916  2.8497  1.7475
 1007MOL0     H35938   8.901   1.263   5.693 -0.8741 -0.0414 -1.5171
 1007MOL0     H35939   8.903   1.358   5.908 -2.0603 -1.2876 -1.1566
 1007MOL0     H35940   8.951   1.521   5.839 -0.2699  0.0075  0.6519
 1007MOL0     H35941   9.144   1.416   5.742 -2.1006  1.1503 -1.4379
 1007MOL0     H35942   9.110   1.260   5.818 -2.3257 -1.0937  1.8915
 1007MOL0     H35943   9.253   1.449   6.158  0.2477 -0.4419  0.0524
 1007MOL0     H35944   8.492   1.426   5.703 -1.4003 -0.2597  0.3750
 1007MOL0     H35945   8.278   1.566   5.683 -0.0420  1.9823 -0.5363
 1008MOL0     O35946   9.721   0.583   2.196 -0.1802 -0.0986  0.0065
 1008MOL0     C35947   9.678   0.642   2.095  0.6038 -0.2752  0.1825
 1008MOL0     O35948   9.594   0.579   2.004 -0.2036 -0.7383 -0.3856
 1008MOL0     C35949   9.587   0.445   1.992 -0.2761 -0.0513 -0.4120
 1008MOL0     C35950   9.645   0.384   1.886 -0.6040  0.1538 -1.0994
 1008MOL0     C35951   9.632   0.245   1.873  0.1002 -0.5584  0.6928
 1008MOL0     C35952   9.543   0.175   1.961  0.1320 -0.2464  0.1820
 1008MOL0     O35953   9.520   0.049   1.924 -0.5613 -0.5302  0.3426
 1008MOL0     C35954   9.397  -0.009   1.954  0.4827  0.3659  0.2259
 1008MOL0     C35955   9.387  -0.116   1.844  0.3496  0.6938 -0.2499
 1008MOL0     C35956   9.295  -0.237   1.871 -0.2254  0.0247 -0.2764
 1008MOL0     C35957   9.340  -0.359   1.801 -0.0181 -0.6750  0.1617
 1008MOL0     C35958   9.258  -0.484   1.830 -0.2083  0.8019 -0.3166
 1008MOL0     C35959   9.103  -0.476   1.806 -0.3529 -0.3125  0.0602
 1008MOL0     C35960   9.038  -0.611   1.844 -0.5254  0.0341 -0.3885
 1008MOL0     C35961   9.093  -0.728   1.764  0.3012 -0.0563 -0.0293
 1008MOL0     N35962   9.027  -0.857   1.790 -0.4088  1.0605  0.9758
 1008MOL0     C35963   9.010  -0.919   1.912  1.0652 -0.3148  0.7797
 1008MOL0     C35964   8.958  -1.038   1.892  0.9184 -0.3183 -0.6344
 1008MOL0     C35965   8.910  -1.123   2.003  0.4791 -0.2912 -0.4806
 1008MOL0     C35966   8.931  -1.279   1.970  0.3735 -0.4655 -0.3242
 1008MOL0     C35967   8.869  -1.350   2.086  0.0919 -0.0224  0.7170
 1008MOL0     C35968   8.795  -1.480   2.057 -0.1440  0.9736  0.4197
 1008MOL0     O35969   8.659  -1.451   2.029 -0.5265 -0.5777 -0.2572
 1008MOL0     C35970   8.599  -1.557   1.970 -0.5036  0.5501  0.3310
 1008MOL0     C35971   8.552  -1.664   2.048 -0.2597  0.7237 -0.0037
 1008MOL0     C35972   8.491  -1.779   1.977 -0.2640 -0.5460 -0.9854
 1008MOL0     C35973   8.452  -1.888   2.076  0.2245  0.6681  0.0816
 1008MOL0     C35974   8.471  -1.780   1.842 -0.2059 -0.7051  0.9512
 1008MOL0     C35975   8.404  -1.893   1.764  0.4514  0.2883 -0.1198
 1008MOL0     O35976   8.422  -1.908   1.632 -0.0172 -0.4754 -0.3499
 1008MOL0     C35977   8.358  -2.018   1.573  0.7083 -0.0523 -0.1001
 1008MOL0     C35978   8.402  -2.146   1.584 -0.3767  0.3644  0.5835
 1008MOL0     C35979   8.337  -2.257   1.526 -0.4348 -0.4374 -0.3005
 1008MOL0     C35980   8.225  -2.237   1.437 -1.0353  0.4494  0.1114
 1008MOL0     O35981   8.158  -2.346   1.394  0.0656  0.4252  0.0457
 1008MOL0     C35982   8.022  -2.333   1.371  1.0651  0.2499  0.5430
 1008MOL0     C35983   7.961  -2.471   1.389 -0.1496 -0.3975 -0.1936
 1008MOL0     C35984   7.996  -2.538   1.529  0.3059 -0.7440  0.2629
 1008MOL0     C35985   7.914  -2.665   1.534  0.2886  0.0977  0.4337
 1008MOL0     C35986   7.928  -2.715   1.678 -0.2901  0.2103 -0.3595
 1008MOL0     C35987   8.068  -2.781   1.699  0.2085 -1.2639  0.2339
 1008MOL0     C35988   8.068  -2.849   1.840  0.2185  0.7104 -0.0390
 1008MOL0     C35989   8.192  -2.900   1.911 -0.2200 -0.1107 -0.2015
 1008MOL0    Cl35990   8.270  -3.029   1.821 -0.2790  0.0342  0.1408
 1008MOL0     C35991   8.192  -2.102   1.418  0.0239  0.3453 -0.5215
 1008MOL0     C35992   8.253  -1.995   1.485 -0.2380 -0.1055 -0.3959
 1008MOL0     O35993   8.328  -1.968   1.826  0.1554  0.0863 -0.1915
 1008MOL0     C35994   8.517  -1.667   1.772 -1.0627  0.1239  0.1464
 1008MOL0     C35995   8.590  -1.560   1.831  0.1086  0.3716 -0.2219
 1008MOL0     N35996   8.924  -1.052   1.763 -0.6968 -0.9497 -0.7513
 1008MOL0     N35997   8.962  -0.941   1.703 -0.7250 -0.1648  0.7253
 1008MOL0     C35998   9.492   0.236   2.070  0.2994 -0.3098  0.0306
 1008MOL0     C35999   9.506   0.373   2.089  0.0632 -0.1723  0.9195
 1008MOL0     C36000   9.698   0.790   2.085  0.6953  0.0689 -0.0226
 1008MOL0     C36001   9.750   0.868   2.191 -0.2427 -0.4409  0.0259
 1008MOL0     C36002   9.782   1.001   2.174  0.2220  0.1799  0.4298
 1008MOL0     C36003   9.751   1.064   2.051  0.5493 -0.1337  0.4584
 1008MOL0     O36004   9.788   1.199   2.024  0.2124  0.2757 -0.3285
 1008MOL0     C36005   9.927   1.220   1.997  0.3335 -0.7711 -0.8019
 1008MOL0     C36006   9.942   1.315   1.884  0.3339  0.4967  0.2724
 1008MOL0     C36007  10.082   1.353   1.853 -0.0027 -0.3634 -0.5233
 1008MOL0     C36008  10.161   1.224   1.798 -0.2034 -0.7663  0.6401
 1008MOL0     C36009  10.283   1.278   1.738 -0.7237  1.0555 -0.8038
 1008MOL0     C36010  10.386   1.310   1.675  0.0325 -0.7265 -0.5918
 1008MOL0     C36011   9.700   0.990   1.946 -0.3518  0.1870  0.5065
 1008MOL0     C36012   9.666   0.854   1.961  0.1908  0.0176 -0.8308
 1008MOL0     H36013   9.701   0.452   1.822 -2.2125  1.9124 -0.7228
 1008MOL0     H36014   9.676   0.192   1.790 -0.5668 -0.3322  0.1861
 1008MOL0     H36015   9.388  -0.067   2.047  0.8476 -0.2949 -0.1435
 1008MOL0     H36016   9.312   0.055   1.927 -1.1525 -2.7843 -2.8669
 1008MOL0     H36017   9.357  -0.060   1.755  1.4699  1.1011 -0.3804
 1008MOL0     H36018   9.486  -0.155   1.816 -0.4167 -0.1112 -2.0227
 1008MOL0     H36019   9.303  -0.263   1.977  2.0145 -0.5743 -0.5384
 1008MOL0     H36020   9.197  -0.204   1.837  1.3399  0.6756 -4.9003
 1008MOL0     H36021   9.335  -0.346   1.693  1.8232 -1.7305 -0.0869
 1008MOL0     H36022   9.444  -0.391   1.812 -0.6133 -2.7350  0.1640
 1008MOL0     H36023   9.292  -0.566   1.766  1.1386  0.4413  0.8161
 1008MOL0     H36024   9.281  -0.512   1.933  1.0002  2.2211 -0.1675
 1008MOL0     H36025   9.055  -0.403   1.872 -1.2262 -0.7155 -0.1130
 1008MOL0     H36026   9.073  -0.441   1.706  0.6566  4.1838  1.1156
 1008MOL0     H36027   9.064  -0.613   1.950  0.4208 -1.2366 -0.6269
 1008MOL0     H36028   8.929  -0.612   1.834 -0.6289 -1.4227  0.6326
 1008MOL0     H36029   9.194  -0.748   1.801 -0.5118 -0.9942  1.8210
 1008MOL0     H36030   9.099  -0.713   1.656  0.3009  0.4739  0.0458
 1008MOL0     H36031   9.029  -0.880   2.011 -2.9848  1.8698  0.9203
 1008MOL0     H36032   8.964  -1.105   2.097  2.5176 -3.0852 -0.9885
 1008MOL0     H36033   8.805  -1.098   2.018  1.5653  2.8206  3.6191
 1008MOL0     H36034   9.039  -1.292   1.966  0.3536 -0.8528  0.2323
 1008MOL0     H36035   8.886  -1.310   1.875 -4.1629  0.2506  1.3308
 1008MOL0     H36036   8.804  -1.277   2.134  4.9062  2.8138  3.7207
 1008MOL0     H36037   8.936  -1.385   2.165 -2.5108 -3.7934  1.5624
 1008MOL0     H36038   8.803  -1.541   2.148 -0.3830 -0.0164 -0.2021
 1008MOL0     H36039   8.841  -1.521   1.966 -1.5527  3.4362 -1.5216
 1008MOL0     H36040   8.546  -1.648   2.155 -1.9382  1.9018 -0.2411
 1008MOL0     H36041   8.344  -1.878   2.088 -0.1417 -0.9908 -1.4671
 1008MOL0     H36042   8.464  -1.987   2.031 -0.7983 -1.4498  4.0522
 1008MOL0     H36043   8.499  -1.887   2.175  3.4578 -1.0533 -1.2714
 1008MOL0     H36044   8.492  -2.151   1.644 -0.8501 -1.7341  1.2146
 1008MOL0     H36045   8.373  -2.359   1.530 -0.7514 -0.5134  0.6422
 1008MOL0     H36046   7.973  -2.268   1.444 -2.0139 -0.0312 -1.1192
 1008MOL0     H36047   8.001  -2.298   1.270  1.3489  0.2448  0.4817
 1008MOL0     H36048   7.856  -2.452   1.364 -0.5630 -2.0551  0.1323
 1008MOL0     H36049   8.009  -2.527   1.308  0.6912  0.9287 -0.6429
 1008MOL0     H36050   7.964  -2.471   1.610 -0.3979 -2.1701  1.2005
 1008MOL0     H36051   8.100  -2.569   1.545  0.1700 -1.6495 -0.5606
 1008MOL0     H36052   7.809  -2.642   1.512 -0.2581 -1.4924  1.2814
 1008MOL0     H36053   7.950  -2.742   1.465  0.6606  2.3125 -2.0277
 1008MOL0     H36054   7.855  -2.786   1.717 -0.3555  0.2688 -0.3735
 1008MOL0     H36055   7.918  -2.629   1.745 -2.0754  1.1139 -1.6900
 1008MOL0     H36056   8.087  -2.859   1.625 -1.0899 -0.8802 -0.5313
 1008MOL0     H36057   8.145  -2.703   1.689 -1.2758  0.0643 -1.5087
 1008MOL0     H36058   7.992  -2.928   1.835  1.2647 -0.3432  0.1310
 1008MOL0     H36059   8.033  -2.766   1.902 -1.2983 -0.8491  1.2692
 1008MOL0     H36060   8.164  -2.937   2.010  0.6072  0.8212  0.3981
 1008MOL0     H36061   8.260  -2.817   1.934  2.4163 -2.4870  1.1501
 1008MOL0     H36062   8.102  -2.091   1.358 -2.0445 -4.1319  1.2851
 1008MOL0     H36063   8.197  -1.902   1.477 -3.0121 -1.6561 -0.3275
 1008MOL0     H36064   8.506  -1.672   1.665 -1.0494 -1.0479  0.1847
 1008MOL0     H36065   8.625  -1.483   1.763  1.3008  0.4292  0.4373
 1008MOL0     H36066   9.425   0.192   2.143 -0.7604 -2.0921 -1.8972
 1008MOL0     H36067   9.452   0.432   2.163 -0.2260  0.3887  0.2679
 1008MOL0     H36068   9.782   0.828   2.287  1.5573  1.5039  0.3005
 1008MOL0     H36069   9.846   1.056   2.242  4.2757  0.6385 -3.2850
 1008MOL0     H36070   9.966   1.274   2.084 -0.9044 -0.2443 -0.5541
 1008MOL0     H36071   9.978   1.123   1.994 -0.7809 -1.6367  2.7241
 1008MOL0     H36072   9.884   1.406   1.904 -1.4860 -0.6763  0.5168
 1008MOL0     H36073   9.904   1.269   1.793  0.7542 -0.0733  0.3817
 1008MOL0     H36074  10.122   1.410   1.937  0.5181 -0.6855 -0.5449
 1008MOL0     H36075  10.074   1.420   1.767  1.4984 -0.1284 -0.5175
 1008MOL0     H36076  10.107   1.171   1.720  1.9982 -2.4474  0.1405
 1008MOL0     H36077  10.187   1.148   1.873  2.5192  0.2475  0.8517
 1008MOL0     H36078  10.469   1.360   1.628 -0.7803  1.2824 -0.0088
 1008MOL0     H36079   9.691   1.031   1.846 -0.1848  0.3387  0.5530
 1008MOL0     H36080   9.623   0.804   1.874 -0.3171 -0.6214 -0.2289
 1009MOL0     O36081   2.473   1.293   1.512  0.2198  0.2841  1.0862
 1009MOL0     C36082   2.537   1.271   1.409 -0.6920 -0.7731  0.1944
 1009MOL0     O36083   2.486   1.263   1.284 -0.2652  0.0895 -0.5076
 1009MOL0     C36084   2.343   1.252   1.274 -0.2948 -0.3574 -0.0330
 1009MOL0     C36085   2.287   1.148   1.207 -0.1215 -0.3795 -0.3054
 1009MOL0     C36086   2.152   1.133   1.202  0.6424 -0.3670  0.3548
 1009MOL0     C36087   2.067   1.236   1.248  0.2924 -0.0390  0.0119
 1009MOL0     O36088   1.931   1.235   1.231  0.3346 -0.0456  0.6339
 1009MOL0     C36089   1.860   1.115   1.185 -0.6685  0.2292 -1.0021
 1009MOL0     C36090   1.716   1.162   1.172  0.5053 -0.6516  0.3382
 1009MOL0     C36091   1.626   1.061   1.104  0.4859  0.0026 -0.2433
 1009MOL0     C36092   1.486   1.136   1.062 -0.1135 -0.3767  0.1793
 1009MOL0     C36093   1.376   1.051   0.991  0.1521  0.1992 -0.2245
 1009MOL0     C36094   1.314   0.938   1.072  0.0878  0.5451 -0.2225
 1009MOL0     C36095   1.235   0.973   1.200  0.8951 -0.3132 -0.4811
 1009MOL0     C36096   1.120   1.068   1.181  0.2566 -0.7697 -0.4802
 1009MOL0     N36097   1.037   1.043   1.069  0.5622  0.4638 -0.6622
 1009MOL0     C36098   1.010   1.128   0.971 -0.5439 -0.7892  0.1478
 1009MOL0     C36099   0.930   1.073   0.873  0.2474  0.0940  0.4057
 1009MOL0     C36100   0.878   1.140   0.748 -0.1947 -0.1443  0.2816
 1009MOL0     C36101   0.951   1.088   0.632  0.4881 -0.0757  0.6342
 1009MOL0     C36102   0.877   0.985   0.559 -0.0944  0.7724  0.3628
 1009MOL0     C36103   0.963   0.923   0.443  1.0880  0.1510  0.4116
 1009MOL0     O36104   0.998   1.026   0.348  0.8270  0.0965 -0.0988
 1009MOL0     C36105   1.127   1.014   0.301 -0.4167 -0.1987  0.5173
 1009MOL0     C36106   1.175   0.927   0.200 -0.2909 -0.2022  0.5656
 1009MOL0     C36107   1.302   0.929   0.146 -0.2826  0.4829 -0.3733
 1009MOL0     C36108   1.345   0.817   0.059 -1.1608  0.6124 -0.2434
 1009MOL0     C36109   1.384   1.040   0.185  0.2909  0.8551 -0.0168
 1009MOL0     C36110   1.518   1.065   0.125  0.6752 -0.2548 -0.0940
 1009MOL0     O36111   1.555   1.195   0.089  1.0116  0.8001  0.0303
 1009MOL0     C36112   1.651   1.224  -0.003 -1.4896  0.0734  0.2316
 1009MOL0     C36113   1.702   1.151  -0.109 -0.1900  1.1112 -0.3268
 1009MOL0     C36114   1.810   1.189  -0.186  1.2579 -0.8478 -0.6050
 1009MOL0     C36115   1.858   1.315  -0.176 -0.1785 -1.2482 -0.6843
 1009MOL0     O36116   1.961   1.356  -0.257  0.2849 -0.3904 -0.2647
 1009MOL0     C36117   2.085   1.279  -0.244 -0.2866 -0.0333  0.2342
 1009MOL0     C36118   2.192   1.336  -0.155 -0.4614 -0.2316  0.5875
 1009MOL0     C36119   2.241   1.476  -0.218  0.7543  0.1574 -0.1184
 1009MOL0     C36120   2.352   1.552  -0.151  0.5097 -0.4243  0.4974
 1009MOL0     C36121   2.400   1.662  -0.262  0.3076 -0.4921  0.6281
 1009MOL0     C36122   2.336   1.795  -0.235  0.5038 -0.2999  0.2136
 1009MOL0     C36123   2.403   1.907  -0.320  0.6089 -0.7592 -0.2202
 1009MOL0     C36124   2.319   2.031  -0.296 -0.2834  0.1076  0.9603
 1009MOL0    Cl36125   2.408   2.175  -0.356 -0.5754 -0.0095  0.3114
 1009MOL0     C36126   1.809   1.401  -0.078 -0.5792 -0.7378 -0.0109
 1009MOL0     C36127   1.711   1.351   0.011  0.3916  0.2694 -0.1492
 1009MOL0     O36128   1.596   0.969   0.129 -0.0313  0.0210  0.1203
 1009MOL0     C36129   1.340   1.132   0.286  0.8045 -0.1993  0.3968
 1009MOL0     C36130   1.219   1.114   0.342  0.7077 -0.5958  0.2795
 1009MOL0     N36131   0.914   0.947   0.916 -1.0429  0.4365  0.2555
 1009MOL0     N36132   0.970   0.930   1.032  0.2250  0.5650 -0.6395
 1009MOL0     C36133   2.123   1.339   1.304 -0.4723 -0.5093  0.9517
 1009MOL0     C36134   2.262   1.352   1.324 -0.2666  1.2319 -0.5448
 1009MOL0     C36135   2.682   1.256   1.429 -0.3891 -0.6416  0.1903
 1009MOL0     C36136   2.768   1.262   1.314 -0.5470 -0.5544 -0.7068
 1009MOL0     C36137   2.904   1.231   1.319  0.3761  0.6358 -0.4742
 1009MOL0     C36138   2.954   1.182   1.445  1.4059 -0.0357  1.2272
 1009MOL0     O36139   3.078   1.139   1.471 -0.5761  0.1502 -0.9271
 1009MOL0     C36140   3.185   1.175   1.384 -0.4258 -0.5473 -0.0703
 1009MOL0     C36141   3.220   1.323   1.400 -0.5864  0.7546  0.3762
 1009MOL0     C36142   3.343   1.363   1.306  0.7310 -0.1587 -0.0142
 1009MOL0     C36143   3.481   1.315   1.371  0.1884 -0.3045  0.4825
 1009MOL0     C36144   3.577   1.414   1.437 -0.2329  0.9415  0.2586
 1009MOL0     C36145   3.660   1.485   1.485 -0.5280 -0.4356  0.1008
 1009MOL0     C36146   2.867   1.170   1.554  0.9745 -0.5579 -0.3916
 1009MOL0     C36147   2.738   1.213   1.553  1.1630  0.8755  0.1072
 1009MOL0     H36148   2.355   1.076   1.162 -0.8829  0.1276 -2.4012
 1009MOL0     H36149   2.116   1.049   1.143 -0.4381  0.9074 -0.8821
 1009MOL0     H36150   1.901   1.075   1.091  1.1156  2.2078 -1.1564
 1009MOL0     H36151   1.878   1.041   1.263 -0.1961  2.4891  1.1369
 1009MOL0     H36152   1.669   1.190   1.267 -0.8679 -1.7666  0.0308
 1009MOL0     H36153   1.724   1.248   1.105  1.0004 -1.2162 -0.3420
 1009MOL0     H36154   1.663   1.032   1.005  0.8378  0.5162 -0.2669
 1009MOL0     H36155   1.616   0.979   1.176  1.1650  2.1508  2.4564
 1009MOL0     H36156   1.451   1.187   1.152  0.2017  2.3169 -1.0995
 1009MOL0     H36157   1.512   1.212   0.987 -0.8820 -1.3150 -1.0867
 1009MOL0     H36158   1.304   1.129   0.966  2.3373  2.4772  0.1644
 1009MOL0     H36159   1.410   1.015   0.894  1.1054  2.7557 -0.9075
 1009MOL0     H36160   1.241   0.882   1.013 -1.6507  0.3273  1.9775
 1009MOL0     H36161   1.395   0.871   1.104  2.3719  2.4179 -1.7913
 1009MOL0     H36162   1.204   0.876   1.238 -0.2671 -0.6417 -2.1498
 1009MOL0     H36163   1.292   1.026   1.276 -2.0651  1.2717  0.7892
 1009MOL0     H36164   1.155   1.172   1.181  0.3767 -0.5785  4.4660
 1009MOL0     H36165   1.062   1.063   1.274 -2.8105  0.6441 -2.1813
 1009MOL0     H36166   1.041   1.233   0.973 -0.8864 -0.6331 -1.3596
 1009MOL0     H36167   0.770   1.125   0.739 -0.5894  1.0555  2.3846
 1009MOL0     H36168   0.888   1.249   0.754 -1.6609 -0.0571  1.8248
 1009MOL0     H36169   1.048   1.043   0.655  1.0536  0.8117  0.0393
 1009MOL0     H36170   0.958   1.177   0.570  2.1115 -0.0891  0.7561
 1009MOL0     H36171   0.786   1.026   0.513  0.1164 -0.1615 -0.9663
 1009MOL0     H36172   0.852   0.898   0.621 -1.0324 -0.2999 -1.4323
 1009MOL0     H36173   0.898   0.853   0.390 -1.6694  1.1777  2.1999
 1009MOL0     H36174   1.059   0.882   0.475  1.2073  1.4450  1.8218
 1009MOL0     H36175   1.106   0.852   0.164 -2.3052  2.1044 -0.6635
 1009MOL0     H36176   1.258   0.764   0.019 -0.1504  1.1810 -3.4401
 1009MOL0     H36177   1.405   0.843  -0.028 -0.3682 -1.7201 -0.4575
 1009MOL0     H36178   1.409   0.742   0.107  1.2206  1.6079 -1.7215
 1009MOL0     H36179   1.657   1.052  -0.115 -0.6094  1.0848  2.3753
 1009MOL0     H36180   1.843   1.130  -0.271  1.3876  0.5963 -1.6067
 1009MOL0     H36181   2.078   1.175  -0.210  0.5706  0.5894  2.4694
 1009MOL0     H36182   2.120   1.286  -0.347 -0.6049  2.6792  0.2448
 1009MOL0     H36183   2.161   1.344  -0.050 -0.1283  2.1434  0.5553
 1009MOL0     H36184   2.273   1.264  -0.140  2.2161  2.3326 -0.4979
 1009MOL0     H36185   2.153   1.541  -0.225  0.0264 -0.6748  0.9183
 1009MOL0     H36186   2.291   1.448  -0.312 -0.2069  0.6341 -0.7916
 1009MOL0     H36187   2.329   1.600  -0.055  1.6544 -0.1737  0.6562
 1009MOL0     H36188   2.434   1.481  -0.141 -0.1857 -1.3368 -0.1216
 1009MOL0     H36189   2.397   1.636  -0.368 -0.2127  2.4407 -0.1481
 1009MOL0     H36190   2.506   1.674  -0.238  0.6132 -1.8387  0.0813
 1009MOL0     H36191   2.231   1.791  -0.265  0.6268 -0.4254 -0.1953
 1009MOL0     H36192   2.358   1.819  -0.130  0.5549 -2.8451  0.8506
 1009MOL0     H36193   2.415   1.875  -0.424  1.0030  2.1368 -1.1376
 1009MOL0     H36194   2.504   1.933  -0.288  0.6252 -1.5472  0.4100
 1009MOL0     H36195   2.299   2.050  -0.190 -1.1800 -3.5612  1.5810
 1009MOL0     H36196   2.224   2.023  -0.350  0.3371 -2.1390  0.0821
 1009MOL0     H36197   1.856   1.499  -0.078 -0.9970 -0.4720  2.4843
 1009MOL0     H36198   1.672   1.417   0.088 -1.4001  1.6110 -2.0877
 1009MOL0     H36199   1.404   1.215   0.313 -0.6353  1.7071 -1.7108
 1009MOL0     H36200   1.188   1.187   0.417 -0.8807 -1.4832  0.5436
 1009MOL0     H36201   2.057   1.420   1.334  0.6344  0.1848  1.5951
 1009MOL0     H36202   2.291   1.437   1.384 -0.9269  1.3021 -0.3180
 1009MOL0     H36203   2.722   1.291   1.219 -0.1200 -4.0703 -2.1237
 1009MOL0     H36204   2.963   1.232   1.228  0.3822 -4.6104 -0.8341
 1009MOL0     H36205   3.281   1.123   1.396  0.2819  0.9188  0.8703
 1009MOL0     H36206   3.164   1.155   1.278 -2.5329 -1.0116  0.4002
 1009MOL0     H36207   3.242   1.349   1.504 -1.0893  2.6222  0.0427
 1009MOL0     H36208   3.136   1.388   1.374 -1.1032  0.0605  0.2612
 1009MOL0     H36209   3.347   1.472   1.304 -0.4150 -0.0364  1.6916
 1009MOL0     H36210   3.332   1.334   1.201  0.5078  2.6801 -0.8583
 1009MOL0     H36211   3.534   1.262   1.291 -1.6180 -2.4939  0.6285
 1009MOL0     H36212   3.463   1.244   1.453  0.1336  1.3644  1.9657
 1009MOL0     H36213   3.735   1.550   1.525 -1.5007  0.4391  0.5482
 1009MOL0     H36214   2.914   1.125   1.641 -1.0248  0.7402  1.4454
 1009MOL0     H36215   2.683   1.202   1.646 -0.1103  2.4023 -0.4025
 1010MOL0     O36216   3.243   0.038   1.299 -0.9012  0.1571 -0.1267
 1010MOL0     C36217   3.266   0.113   1.389  0.2734 -0.4301 -0.1977
 1010MOL0     O36218   3.206   0.230   1.397  0.0859 -0.3539  0.6858
 1010MOL0     C36219   3.123   0.250   1.290 -1.1668  0.7756  1.0513
 1010MOL0     C36220   3.169   0.356   1.208  0.1003  0.1630 -0.3746
 1010MOL0     C36221   3.088   0.414   1.108 -0.1916  1.1619  0.1173
 1010MOL0     C36222   2.953   0.370   1.106 -0.6504 -0.7521  0.2381
 1010MOL0     O36223   2.873   0.431   1.011  0.4161 -0.5538  0.0125
 1010MOL0     C36224   2.758   0.504   1.061  0.6136  0.4026  0.5291
 1010MOL0     C36225   2.711   0.601   0.952 -0.0765 -0.9577  0.2920
 1010MOL0     C36226   2.562   0.632   0.968 -0.0113  0.1339  0.4844
 1010MOL0     C36227   2.504   0.719   0.855 -0.8522  0.4219  0.1410
 1010MOL0     C36228   2.365   0.770   0.888 -0.0396 -0.0925  0.8877
 1010MOL0     C36229   2.317   0.858   0.773 -0.0098  0.2644 -1.2926
 1010MOL0     C36230   2.199   0.954   0.832 -0.0106  0.1407  0.1309
 1010MOL0     C36231   2.107   1.012   0.722  0.3701  1.2705  0.1965
 1010MOL0     N36232   2.161   1.134   0.661  0.1150  0.0635  0.9511
 1010MOL0     C36233   2.239   1.130   0.543  0.8578  0.0896 -0.7641
 1010MOL0     C36234   2.246   1.263   0.507 -0.0045  0.2031 -0.5065
 1010MOL0     C36235   2.297   1.313   0.374  0.2482  0.6066  0.4320
 1010MOL0     C36236   2.439   1.259   0.355 -0.2616  0.1090  0.2034
 1010MOL0     C36237   2.458   1.239   0.206  0.6067  0.2798  1.0673
 1010MOL0     C36238   2.593   1.191   0.160 -0.3206  0.5064 -0.5131
 1010MOL0     O36239   2.585   1.204   0.019 -0.2054  0.1217 -0.6190
 1010MOL0     C36240   2.653   1.319  -0.037 -0.4294  0.4518 -0.5998
 1010MOL0     C36241   2.645   1.337  -0.171  0.1760 -0.6371 -0.1206
 1010MOL0     C36242   2.706   1.434  -0.251  0.7163 -0.1476  0.2805
 1010MOL0     C36243   2.678   1.438  -0.400  0.1265  0.5052  1.0583
 1010MOL0     C36244   2.783   1.526  -0.169 -0.4045 -0.2606  0.1092
 1010MOL0     C36245   2.845   1.649  -0.231 -0.6266  0.1239  0.6387
 1010MOL0     O36246   2.893   1.743  -0.151  0.5466  0.2475 -0.6332
 1010MOL0     C36247   2.895   1.871  -0.198 -0.3660 -0.2350 -0.0013
 1010MOL0     C36248   2.789   1.955  -0.160 -0.1433 -0.5806  0.3838
 1010MOL0     C36249   2.777   2.088  -0.219 -1.5821  0.6921 -0.8867
 1010MOL0     C36250   2.870   2.137  -0.306 -0.3882 -0.2706  0.3152
 1010MOL0     O36251   2.842   2.259  -0.361  0.2734  1.0413 -0.5752
 1010MOL0     C36252   2.858   2.273  -0.500  0.3134 -0.5703 -0.0231
 1010MOL0     C36253   2.732   2.334  -0.571 -0.2640  0.6202 -0.1752
 1010MOL0     C36254   2.649   2.217  -0.617 -0.8279 -0.6740 -1.1975
 1010MOL0     C36255   2.513   2.273  -0.668 -0.3605 -0.7106 -0.0063
 1010MOL0     C36256   2.444   2.183  -0.774 -0.5743 -0.5786 -0.0673
 1010MOL0     C36257   2.328   2.262  -0.833 -0.0575 -0.3250 -0.4734
 1010MOL0     C36258   2.237   2.330  -0.726  0.1061  0.3264  0.6480
 1010MOL0     C36259   2.107   2.372  -0.791 -0.3918 -0.0040  0.4116
 1010MOL0    Cl36260   2.139   2.520  -0.887  0.1696  0.3177  0.1628
 1010MOL0     C36261   2.973   2.049  -0.342  0.7921  0.3821  0.4225
 1010MOL0     C36262   2.988   1.913  -0.287  0.1470 -0.3365 -0.2311
 1010MOL0     O36263   2.850   1.651  -0.353 -0.1590 -0.7387  0.5445
 1010MOL0     C36264   2.799   1.509  -0.034  0.6926  0.5383  0.5518
 1010MOL0     C36265   2.733   1.410   0.035  0.3886  0.4130 -0.0716
 1010MOL0     N36266   2.170   1.335   0.601  1.0705 -0.3885 -0.5052
 1010MOL0     N36267   2.134   1.267   0.694 -0.6939  0.7941 -1.1682
 1010MOL0     C36268   2.913   0.263   1.175  0.2987 -0.6771 -0.2232
 1010MOL0     C36269   2.991   0.202   1.274 -0.3000 -0.2551 -0.1402
 1010MOL0     C36270   3.380   0.083   1.482  0.0485 -0.2281 -0.0851
 1010MOL0     C36271   3.436   0.178   1.564 -1.0281 -0.5300  0.9816
 1010MOL0     C36272   3.533   0.142   1.656 -0.5304  0.8970 -0.0721
 1010MOL0     C36273   3.602   0.019   1.655  0.2200  0.5067 -0.0983
 1010MOL0     O36274   3.704   0.002   1.744 -0.1735 -0.4255  0.2266
 1010MOL0     C36275   3.757  -0.120   1.787 -0.2908 -0.0602  0.1026
 1010MOL0     C36276   3.856  -0.176   1.688  0.2140 -1.1937 -0.3791
 1010MOL0     C36277   3.975  -0.080   1.682 -0.5212  0.5078  0.6062
 1010MOL0     C36278   4.096  -0.133   1.607  0.3089  0.5995 -0.4697
 1010MOL0     C36279   4.138  -0.263   1.666 -0.1732 -0.3705 -0.8708
 1010MOL0     C36280   4.180  -0.356   1.716 -0.5951  0.1108 -0.5839
 1010MOL0     C36281   3.554  -0.073   1.564  0.5423 -0.7260 -0.5845
 1010MOL0     C36282   3.441  -0.039   1.481 -0.4009 -0.3537  0.0314
 1010MOL0     H36283   3.268   0.397   1.228 -0.6546  2.5618 -1.3343
 1010MOL0     H36284   3.113   0.500   1.048 -0.2508  0.7902 -0.4472
 1010MOL0     H36285   2.690   0.419   1.072  0.0973  0.4189 -2.0736
 1010MOL0     H36286   2.775   0.560   1.154  0.9476  0.0536  0.6809
 1010MOL0     H36287   2.777   0.687   0.964  0.3243 -1.3519  1.0492
 1010MOL0     H36288   2.721   0.545   0.859 -1.4179 -0.3935 -0.2179
 1010MOL0     H36289   2.507   0.537   0.971  2.0790 -1.3209 -2.1358
 1010MOL0     H36290   2.537   0.700   1.049 -0.7892  1.1786 -0.6008
 1010MOL0     H36291   2.564   0.807   0.831 -0.9335  0.7868  1.2409
 1010MOL0     H36292   2.499   0.655   0.766  1.4454  2.3256 -1.4668
 1010MOL0     H36293   2.302   0.681   0.891  1.3360 -1.1020  0.7503
 1010MOL0     H36294   2.353   0.827   0.981  2.2351 -0.1200  1.2710
 1010MOL0     H36295   2.395   0.929   0.743 -1.1944  0.0615 -5.4380
 1010MOL0     H36296   2.297   0.794   0.686  2.5544 -3.6208  0.6674
 1010MOL0     H36297   2.137   0.893   0.899 -1.3782 -0.2925 -1.4550
 1010MOL0     H36298   2.233   1.039   0.892  0.0143 -1.4180  2.4534
 1010MOL0     H36299   2.024   1.042   0.787 -1.0128 -0.3773 -0.7249
 1010MOL0     H36300   2.067   0.939   0.651  1.0533 -1.3925  2.4119
 1010MOL0     H36301   2.283   1.045   0.491 -1.5966 -0.3918 -2.2410
 1010MOL0     H36302   2.228   1.261   0.306  2.0114 -2.6181  0.9157
 1010MOL0     H36303   2.286   1.421   0.356 -4.0649  0.0317 -1.8214
 1010MOL0     H36304   2.462   1.160   0.397  2.1189  0.4105 -0.2079
 1010MOL0     H36305   2.508   1.322   0.413  2.8841 -2.6538 -0.1855
 1010MOL0     H36306   2.437   1.331   0.150  5.6826  0.7252 -0.6007
 1010MOL0     H36307   2.387   1.162   0.173 -0.3608 -0.4088  4.4095
 1010MOL0     H36308   2.602   1.085   0.185  5.2013  0.8334  0.2141
 1010MOL0     H36309   2.671   1.250   0.208 -1.5788  2.9434 -1.2686
 1010MOL0     H36310   2.579   1.264  -0.216 -2.3860  0.1747  2.0775
 1010MOL0     H36311   2.634   1.532  -0.436 -0.3295  0.7021  2.0816
 1010MOL0     H36312   2.773   1.419  -0.450 -1.0367  0.8314 -1.4718
 1010MOL0     H36313   2.629   1.345  -0.430 -1.7809  1.3812  1.2799
 1010MOL0     H36314   2.701   1.926  -0.105 -0.3869  1.1857  1.0006
 1010MOL0     H36315   2.695   2.156  -0.196 -0.8754  0.7365  1.9040
 1010MOL0     H36316   2.948   2.333  -0.518 -0.0477  0.3932  1.1789
 1010MOL0     H36317   2.882   2.176  -0.544  2.1251 -2.7830  5.0377
 1010MOL0     H36318   2.678   2.398  -0.500 -0.2130  3.7516 -2.7463
 1010MOL0     H36319   2.755   2.390  -0.662 -0.1278 -2.6758 -2.3110
 1010MOL0     H36320   2.645   2.144  -0.535  0.4350  1.7253  1.1454
 1010MOL0     H36321   2.715   2.183  -0.697  0.5231  1.6850 -1.1817
 1010MOL0     H36322   2.444   2.281  -0.584  0.5281 -2.7610  0.9831
 1010MOL0     H36323   2.526   2.373  -0.711 -0.1653 -0.3910  0.7900
 1010MOL0     H36324   2.398   2.096  -0.725  2.5922 -3.8634 -2.3151
 1010MOL0     H36325   2.515   2.146  -0.849 -3.1773 -3.6838 -1.2595
 1010MOL0     H36326   2.382   2.339  -0.888  0.3577 -0.6510 -0.5290
 1010MOL0     H36327   2.267   2.201  -0.900  1.1269  1.0972 -3.0117
 1010MOL0     H36328   2.295   2.418  -0.697 -0.7101  1.4044 -0.8431
 1010MOL0     H36329   2.212   2.260  -0.645 -0.9013  1.2826  1.1986
 1010MOL0     H36330   2.050   2.412  -0.707  1.2581  2.5276  0.4569
 1010MOL0     H36331   2.065   2.302  -0.863  2.8245  0.4002 -2.0933
 1010MOL0     H36332   3.041   2.085  -0.419  1.8077 -1.2047  0.5191
 1010MOL0     H36333   3.061   1.844  -0.329  1.2079 -0.0878  1.1402
 1010MOL0     H36334   2.837   1.573   0.045 -1.7342 -0.4888  2.6966
 1010MOL0     H36335   2.744   1.398   0.142 -0.4581  0.7469  0.0680
 1010MOL0     H36336   2.813   0.226   1.153 -0.8710  2.1351 -0.0473
 1010MOL0     H36337   2.953   0.122   1.337 -0.5778  0.5508  0.7356
 1010MOL0     H36338   3.401   0.281   1.567  2.1504  0.9587 -3.1589
 1010MOL0     H36339   3.565   0.213   1.731  0.5164  0.4223 -0.0512
 1010MOL0     H36340   3.807  -0.117   1.884 -2.3207 -2.4699  1.3643
 1010MOL0     H36341   3.673  -0.190   1.794  0.4171 -0.8009  1.8991
 1010MOL0     H36342   3.808  -0.173   1.590 -0.5579  0.7006  0.0250
 1010MOL0     H36343   3.880  -0.278   1.720 -1.1677 -1.5664 -0.4643
 1010MOL0     H36344   4.010  -0.064   1.784  1.5742 -2.3963  0.4732
 1010MOL0     H36345   3.953   0.021   1.645 -3.7237  0.0132  0.8201
 1010MOL0     H36346   4.174  -0.057   1.612  1.4897  0.7295 -8.2413
 1010MOL0     H36347   4.074  -0.147   1.501  2.7369  1.0076 -1.0850
 1010MOL0     H36348   4.230  -0.434   1.771  1.2561  1.1765 -0.6785
 1010MOL0     H36349   3.597  -0.170   1.543  1.7998 -0.6885  1.5422
 1010MOL0     H36350   3.404  -0.123   1.423  1.0515  0.1194 -1.6852
 1011MOL0     O36351   2.757   0.928  11.296 -0.1518  0.6394  0.7872
 1011MOL0     C36352   2.645   0.946  11.238 -0.2294 -0.3191  0.3531
 1011MOL0     O36353   2.625   0.958  11.103  0.0956  0.0236  0.4515
 1011MOL0     C36354   2.726   0.993  11.018 -0.2060 -0.8980  0.4959
 1011MOL0     C36355   2.829   1.091  11.043 -0.0005 -0.5820  0.0452
 1011MOL0     C36356   2.923   1.116  10.940 -0.9255 -0.4301 -0.2562
 1011MOL0     C36357   2.934   1.047  10.825  0.4420 -0.0526 -0.8975
 1011MOL0     O36358   3.026   1.084  10.728 -0.0925 -0.0748 -0.6937
 1011MOL0     C36359   3.094   0.974  10.664 -0.1431  1.2464 -0.1947
 1011MOL0     C36360   3.200   0.933  10.762  0.3370  0.2006  0.0514
 1011MOL0     C36361   3.287   0.812  10.710  0.2795 -0.1192 -0.6990
 1011MOL0     C36362   3.388   0.771  10.823  0.0878 -0.2643 -0.0678
 1011MOL0     C36363   3.505   0.674  10.782 -0.5192  0.7918  0.1579
 1011MOL0     C36364   3.449   0.545  10.701 -0.6991  1.0748 -0.3859
 1011MOL0     C36365   3.352   0.450  10.769  1.2743  1.0849 -0.7780
 1011MOL0     C36366   3.313   0.337  10.673  0.0430  1.3033 -0.2153
 1011MOL0     N36367   3.241   0.224  10.736  0.2118 -0.0531  0.3398
 1011MOL0     C36368   3.131   0.236  10.827  0.0369  0.5122  0.0383
 1011MOL0     C36369   3.093   0.108  10.854 -0.0047 -0.1670 -0.1759
 1011MOL0     C36370   2.967   0.058  10.921 -0.0775 -0.8916 -0.6820
 1011MOL0     C36371   2.844   0.151  10.910 -0.0959 -0.0538  0.3646
 1011MOL0     C36372   2.741   0.088  11.002  0.1005 -0.3135 -0.0007
 1011MOL0     C36373   2.609   0.169  10.994  0.5280  0.6518 -0.9077
 1011MOL0     O36374   2.522   0.117  11.095 -0.1088  0.4186 -0.3639
 1011MOL0     C36375   2.383   0.149  11.093 -0.0898  0.4206  0.1263
 1011MOL0     C36376   2.304   0.086  11.190  0.3974  0.2298  0.4716
 1011MOL0     C36377   2.171   0.114  11.193  0.0926 -0.9491 -0.0717
 1011MOL0     C36378   2.094   0.019  11.294 -0.4949 -0.3207  0.0298
 1011MOL0     C36379   2.111   0.207  11.102 -0.2822 -0.1162  0.2037
 1011MOL0     C36380   1.966   0.226  11.096  0.4251  0.3585  0.8055
 1011MOL0     O36381   1.908   0.247  10.978  0.5306 -0.6728  0.2342
 1011MOL0     C36382   1.768   0.270  10.974  0.0302  0.3285 -0.0893
 1011MOL0     C36383   1.726   0.395  11.007 -0.0384  0.3149  1.3328
 1011MOL0     C36384   1.591   0.407  11.024 -0.1796 -0.3046  1.0675
 1011MOL0     C36385   1.496   0.305  10.994 -0.5441 -0.4230 -0.8136
 1011MOL0     O36386   1.362   0.341  11.023 -0.4941 -0.4131 -0.1790
 1011MOL0     C36387   1.260   0.269  10.964  1.4296  0.5869 -0.5574
 1011MOL0     C36388   1.161   0.213  11.066 -0.0815 -0.1377  0.5367
 1011MOL0     C36389   1.076   0.323  11.139 -0.7373  0.0468 -0.5599
 1011MOL0     C36390   0.939   0.275  11.182 -0.5510  0.1567 -0.3788
 1011MOL0     C36391   0.869   0.378  11.271 -0.3731 -0.1161 -0.5100
 1011MOL0     C36392   0.723   0.324  11.310 -1.2589 -0.4515 -0.1780
 1011MOL0     C36393   0.721   0.196  11.398  0.2679  1.0439  0.1996
 1011MOL0     C36394   0.572   0.166  11.406 -0.2692  0.1599 -1.2684
 1011MOL0    Cl36395   0.497   0.097  11.263  0.2182  0.1375  0.4899
 1011MOL0     C36396   1.540   0.183  10.948 -0.4401  0.1305  1.1337
 1011MOL0     C36397   1.685   0.164  10.936 -0.1076  0.3260 -0.2682
 1011MOL0     O36398   1.916   0.254  11.202 -0.0125 -0.2885 -0.0584
 1011MOL0     C36399   2.190   0.268  11.010 -0.6586  0.4582 -0.0861
 1011MOL0     C36400   2.324   0.238  10.998 -0.0348  0.2206 -0.4183
 1011MOL0     N36401   3.179   0.022  10.788  0.2580  0.0637  0.1648
 1011MOL0     N36402   3.261   0.094  10.715  1.3983 -0.6873 -0.5022
 1011MOL0     C36403   2.829   0.955  10.798 -1.0089 -1.0338 -0.7207
 1011MOL0     C36404   2.728   0.927  10.891 -0.6278  1.1043  0.0829
 1011MOL0     C36405   2.524   0.927  11.328  0.0573 -0.0855  0.3231
 1011MOL0     C36406   2.407   1.007  11.298 -0.4606 -0.3479 -0.3680
 1011MOL0     C36407   2.289   0.977  11.377 -0.0710 -0.4846  0.3599
 1011MOL0     C36408   2.284   0.894  11.484 -0.1678  0.0049 -1.0700
 1011MOL0     O36409   2.172   0.864  11.561 -0.0780 -0.1686 -0.3175
 1011MOL0     C36410   2.039   0.868  11.502 -0.3340  0.4068 -0.3367
 1011MOL0     C36411   1.948   0.972  11.580 -0.5683  0.3481  0.4612
 1011MOL0     C36412   1.999   0.989  11.730 -0.7958 -0.2421  0.5719
 1011MOL0     C36413   1.901   1.047  11.819  0.3555  0.2301 -0.3438
 1011MOL0     C36414   1.901   1.194  11.824  0.0049  0.1191  0.2522
 1011MOL0     C36415   1.898   1.321  11.805 -0.7986  0.3672  0.4535
 1011MOL0     C36416   2.404   0.822  11.521 -0.2011 -0.3873  0.4381
 1011MOL0     C36417   2.520   0.842  11.444 -0.2350  0.9478 -0.0701
 1011MOL0     H36418   2.835   1.145  11.137  0.2268 -0.8740  0.2009
 1011MOL0     H36419   3.005   1.181  10.969 -0.2489 -2.0697  1.7416
 1011MOL0     H36420   3.023   0.893  10.641  0.7267  0.5670 -0.5159
 1011MOL0     H36421   3.136   0.997  10.565  1.9061 -0.7383  0.1394
 1011MOL0     H36422   3.255   1.027  10.775  1.5533 -0.1893 -1.9513
 1011MOL0     H36423   3.155   0.900  10.856  2.1043  1.1691  1.3153
 1011MOL0     H36424   3.217   0.732  10.684  1.6133 -0.5975 -3.2076
 1011MOL0     H36425   3.338   0.844  10.618 -1.4461 -0.7168 -1.9296
 1011MOL0     H36426   3.444   0.857  10.862  0.0441 -0.3967  0.2894
 1011MOL0     H36427   3.329   0.731  10.906 -1.9483  1.0661 -0.7875
 1011MOL0     H36428   3.585   0.723  10.726 -0.4932  1.2932  0.6192
 1011MOL0     H36429   3.545   0.642  10.878  1.9986 -1.9300 -1.6592
 1011MOL0     H36430   3.408   0.571  10.603 -0.7270  2.2535 -0.0770
 1011MOL0     H36431   3.533   0.478  10.679 -1.8820 -0.3661 -0.6972
 1011MOL0     H36432   3.399   0.399  10.853 -1.7538 -2.2641 -0.8844
 1011MOL0     H36433   3.262   0.501  10.803  0.1491 -2.0610  1.4183
 1011MOL0     H36434   3.398   0.283  10.629 -0.2874 -0.2786  0.9995
 1011MOL0     H36435   3.242   0.368  10.596 -0.2962 -1.5242 -1.1837
 1011MOL0     H36436   3.077   0.319  10.872  0.9282  0.7281  0.7211
 1011MOL0     H36437   2.931  -0.035  10.875 -0.9948  0.3379 -2.5839
 1011MOL0     H36438   3.006   0.048  11.022 -1.4098  1.6626  0.1635
 1011MOL0     H36439   2.792   0.165  10.815  0.4572  0.0220  0.0631
 1011MOL0     H36440   2.854   0.255  10.941 -0.7566 -0.2510  1.2601
 1011MOL0     H36441   2.781   0.086  11.103  0.0017 -0.7736  0.0296
 1011MOL0     H36442   2.714  -0.013  10.970  1.0959  0.3728 -3.4045
 1011MOL0     H36443   2.559   0.164  10.897  2.2192 -2.1712 -1.7586
 1011MOL0     H36444   2.634   0.275  11.006  0.7683  0.4645  0.4044
 1011MOL0     H36445   2.358   0.020  11.258  3.5853  0.9977 -1.1123
 1011MOL0     H36446   2.087   0.087  11.379  1.4456  3.2339 -2.3755
 1011MOL0     H36447   1.994  -0.015  11.267 -0.2904 -1.8961  1.0886
 1011MOL0     H36448   2.147  -0.075  11.308 -3.6613 -2.1410  0.8421
 1011MOL0     H36449   1.790   0.482  11.021 -0.3083  0.9857 -1.0931
 1011MOL0     H36450   1.546   0.504  11.044  0.3735  0.2760 -0.3302
 1011MOL0     H36451   1.216   0.338  10.891  0.5096  4.3798  3.1471
 1011MOL0     H36452   1.295   0.182  10.908 -0.7339 -1.0124  0.4606
 1011MOL0     H36453   1.093   0.149  11.010  2.3175 -2.5973  0.2380
 1011MOL0     H36454   1.218   0.159  11.142  2.1549  2.0865  0.5602
 1011MOL0     H36455   1.061   0.410  11.075 -2.7205  1.2780  1.4792
 1011MOL0     H36456   1.135   0.360  11.223 -1.4792 -1.3697  0.6428
 1011MOL0     H36457   0.875   0.262  11.094  0.1404  2.2900 -1.2756
 1011MOL0     H36458   0.950   0.183  11.240 -1.5159 -0.0519 -0.5228
 1011MOL0     H36459   0.858   0.472  11.218  2.3728  1.3658  1.3061
 1011MOL0     H36460   0.923   0.399  11.363  1.5167 -2.4018 -1.0020
 1011MOL0     H36461   0.661   0.404  11.351 -4.0453 -1.5404 -1.9620
 1011MOL0     H36462   0.676   0.298  11.215 -0.2596  0.9658 -1.0939
 1011MOL0     H36463   0.765   0.211  11.497  0.2835 -0.9438  0.5299
 1011MOL0     H36464   0.771   0.106  11.360 -1.2306  0.6211 -0.8328
 1011MOL0     H36465   0.516   0.253  11.440 -0.7446 -0.8751  0.7736
 1011MOL0     H36466   0.574   0.094  11.489  2.8124  1.4173 -0.1197
 1011MOL0     H36467   1.482   0.092  10.932 -0.0630 -0.0944  1.0476
 1011MOL0     H36468   1.731   0.069  10.913 -2.6609 -0.4250 -2.9206
 1011MOL0     H36469   2.154   0.343  10.940  0.3297 -0.7380 -1.9638
 1011MOL0     H36470   2.387   0.288  10.925  1.0828 -1.7363 -0.8694
 1011MOL0     H36471   2.824   0.920  10.695 -2.7433  1.8841 -1.7404
 1011MOL0     H36472   2.653   0.852  10.869  1.2044 -1.0523  0.8087
 1011MOL0     H36473   2.393   1.079  11.219 -4.1353 -0.0889  0.3740
 1011MOL0     H36474   2.200   1.034  11.353  0.6018  1.3123  1.9179
 1011MOL0     H36475   2.026   0.895  11.397  2.0515 -4.1315 -2.0937
 1011MOL0     H36476   2.004   0.764  11.495  4.1407 -1.2683 -1.2563
 1011MOL0     H36477   1.847   0.931  11.590  1.0684 -3.8229  2.8551
 1011MOL0     H36478   1.952   1.075  11.544  1.2016 -0.5904 -2.3018
 1011MOL0     H36479   2.095   1.042  11.740 -0.0292 -1.6568  0.9207
 1011MOL0     H36480   2.021   0.896  11.784 -4.3313 -1.3347  0.3710
 1011MOL0     H36481   1.908   1.001  11.918 -0.8971 -0.4631 -0.5474
 1011MOL0     H36482   1.798   1.034  11.783 -0.6451  3.8128  0.8006
 1011MOL0     H36483   1.901   1.425  11.779  0.0057  0.4824  0.9581
 1011MOL0     H36484   2.414   0.742  11.594  0.9051 -1.9924 -1.3715
 1011MOL0     H36485   2.609   0.788  11.475 -0.6629  0.8743  1.0982
 1012MOL0     O36486   6.722   2.749   9.661 -0.7082  0.6381  0.8550
 1012MOL0     C36487   6.762   2.637   9.642 -0.0258  0.2127  0.1498
 1012MOL0     O36488   6.681   2.523   9.653 -0.1998 -0.4299 -0.8928
 1012MOL0     C36489   6.550   2.510   9.688 -0.7703 -0.2914  0.7321
 1012MOL0     C36490   6.489   2.390   9.659  0.2076 -0.4302 -0.1203
 1012MOL0     C36491   6.353   2.368   9.698 -1.1363 -0.3731  1.1548
 1012MOL0     C36492   6.285   2.467   9.761  0.7037  0.5014 -0.2314
 1012MOL0     O36493   6.162   2.424   9.806  0.3377  0.5311 -0.1658
 1012MOL0     C36494   6.109   2.477   9.926  0.6535 -0.4315  0.1323
 1012MOL0     C36495   5.991   2.397   9.970  0.1262 -0.3537  0.3557
 1012MOL0     C36496   5.915   2.449  10.098 -0.4002  0.3896 -0.8663
 1012MOL0     C36497   5.820   2.565  10.070  0.3711 -0.3791 -0.4275
 1012MOL0     C36498   5.678   2.563  10.126 -0.7826 -0.6689  0.7688
 1012MOL0     C36499   5.678   2.586  10.280 -0.4645 -0.7769 -0.0795
 1012MOL0     C36500   5.532   2.607  10.332  0.1100  0.1459  0.2671
 1012MOL0     C36501   5.441   2.486  10.302 -0.2536  0.7616 -0.8449
 1012MOL0     N36502   5.480   2.361  10.371 -0.2764  0.0997  0.7091
 1012MOL0     C36503   5.564   2.272  10.325 -0.2214  0.2482  0.2266
 1012MOL0     C36504   5.569   2.174  10.417  0.5976 -0.1654 -0.0044
 1012MOL0     C36505   5.645   2.045  10.416  0.2260 -0.0930 -0.0679
 1012MOL0     C36506   5.794   2.088  10.371  0.3016  0.4181  0.2368
 1012MOL0     C36507   5.867   2.156  10.482 -0.3650 -0.0373 -0.4294
 1012MOL0     C36508   6.021   2.153  10.463  0.4753  0.4066  0.0613
 1012MOL0     O36509   6.071   2.020  10.482  0.4078 -0.1190 -0.4577
 1012MOL0     C36510   6.203   1.992  10.469 -0.2601 -0.3257 -0.2201
 1012MOL0     C36511   6.256   1.889  10.551 -1.3808 -0.2203  0.4646
 1012MOL0     C36512   6.389   1.839  10.529 -0.5609  0.0567  1.0561
 1012MOL0     C36513   6.433   1.711  10.608 -0.6347 -0.1947  0.7223
 1012MOL0     C36514   6.476   1.902  10.426 -0.0001 -0.3883 -1.3261
 1012MOL0     C36515   6.623   1.866  10.416  1.3313  0.0567  0.5238
 1012MOL0     O36516   6.672   1.895  10.292  0.7931 -0.1703  0.1408
 1012MOL0     C36517   6.766   1.796  10.261 -0.4347  0.2422 -0.1695
 1012MOL0     C36518   6.905   1.818  10.275  0.1309 -0.3246  0.1200
 1012MOL0     C36519   7.003   1.719  10.247  0.2920  1.0135 -0.2744
 1012MOL0     C36520   6.956   1.594  10.209 -0.5777 -1.3744 -0.2655
 1012MOL0     O36521   7.020   1.473  10.213  0.3961 -0.0225 -0.2369
 1012MOL0     C36522   7.128   1.467  10.308 -0.4716 -0.3446 -0.6198
 1012MOL0     C36523   7.180   1.324  10.298  0.2284 -1.2011  0.1450
 1012MOL0     C36524   7.255   1.289  10.179 -0.3352  0.3526 -0.5665
 1012MOL0     C36525   7.302   1.134  10.194  0.1410  1.2698  0.0686
 1012MOL0     C36526   7.351   1.066  10.067 -0.6204 -0.8995 -0.4485
 1012MOL0     C36527   7.438   1.163   9.985  0.7111  0.5911  1.2413
 1012MOL0     C36528   7.515   1.087   9.873 -0.0534 -0.2188  0.3240
 1012MOL0     C36529   7.635   1.160   9.815 -0.1692  0.2692 -0.1713
 1012MOL0    Cl36530   7.592   1.314   9.740 -0.1215 -0.1379  0.3725
 1012MOL0     C36531   6.818   1.572  10.194  1.2579 -0.1666 -0.0018
 1012MOL0     C36532   6.718   1.672  10.215  0.4402  0.2320 -0.2728
 1012MOL0     O36533   6.687   1.863  10.518 -0.1897 -0.4249 -0.3877
 1012MOL0     C36534   6.409   1.998  10.351 -0.6664 -0.6075  0.2617
 1012MOL0     C36535   6.286   2.047  10.379  0.4109  0.2163  0.3889
 1012MOL0     N36536   5.498   2.210  10.529 -0.9641 -0.6433 -0.5521
 1012MOL0     N36537   5.449   2.324  10.496 -0.1410  0.0219  0.3263
 1012MOL0     C36538   6.342   2.594   9.776  0.0127  0.6103 -0.3269
 1012MOL0     C36539   6.470   2.613   9.744 -0.0512  0.1816  0.4375
 1012MOL0     C36540   6.903   2.629   9.593  0.3614  0.4186  0.2451
 1012MOL0     C36541   6.956   2.497   9.592 -0.4712 -0.3139 -0.2243
 1012MOL0     C36542   7.080   2.488   9.526  0.0116  0.5468  0.7389
 1012MOL0     C36543   7.154   2.594   9.464  0.1481 -0.6873 -0.5087
 1012MOL0     O36544   7.273   2.579   9.404 -0.8633 -0.1874 -0.6864
 1012MOL0     C36545   7.354   2.694   9.367 -1.0801  0.2428  0.0869
 1012MOL0     C36546   7.485   2.661   9.299 -0.1371  0.5017 -0.1976
 1012MOL0     C36547   7.566   2.786   9.275 -0.0177 -0.4976 -0.3868
 1012MOL0     C36548   7.688   2.760   9.190 -0.6607  0.2659  0.2329
 1012MOL0     C36549   7.731   2.885   9.137  0.1568 -0.5497  0.7061
 1012MOL0     C36550   7.766   2.996   9.108  0.1498  0.3560 -0.0310
 1012MOL0     C36551   7.089   2.719   9.479  0.7260  0.0389  0.3155
 1012MOL0     C36552   6.972   2.740   9.551  0.1454  0.0198 -0.1499
 1012MOL0     H36553   6.556   2.325   9.605  2.0414  0.0610  1.4775
 1012MOL0     H36554   6.301   2.276   9.675 -2.1082  0.8559 -2.2143
 1012MOL0     H36555   6.186   2.493  10.001  1.5183 -2.3211 -0.2935
 1012MOL0     H36556   6.066   2.576   9.911 -3.1203 -1.6410  1.6015
 1012MOL0     H36557   5.926   2.403   9.882 -0.0116  2.0289  0.5493
 1012MOL0     H36558   6.016   2.291   9.979 -0.7931 -0.5484  0.8176
 1012MOL0     H36559   5.849   2.369  10.133 -1.4772  2.9617  3.8826
 1012MOL0     H36560   5.990   2.476  10.172 -0.8601  1.3678 -0.7403
 1012MOL0     H36561   5.867   2.660  10.097 -1.8108  0.9042 -0.9456
 1012MOL0     H36562   5.812   2.587   9.963 -0.2579 -0.3121 -0.3687
 1012MOL0     H36563   5.622   2.644  10.079  3.8733  1.2266 -2.2295
 1012MOL0     H36564   5.633   2.466  10.101 -1.0986 -1.6320  4.4526
 1012MOL0     H36565   5.716   2.502  10.338  0.5220  0.5698  1.3053
 1012MOL0     H36566   5.737   2.679  10.287 -0.6487 -0.2846 -3.3176
 1012MOL0     H36567   5.529   2.633  10.438 -0.1439 -0.4541  0.4141
 1012MOL0     H36568   5.488   2.695  10.284  1.7448 -0.5899 -2.8679
 1012MOL0     H36569   5.426   2.464  10.196 -2.0218 -1.6913 -0.1725
 1012MOL0     H36570   5.337   2.500  10.335 -1.2579 -2.2017 -2.4356
 1012MOL0     H36571   5.613   2.267  10.228  0.5426 -2.5045  0.6840
 1012MOL0     H36572   5.629   1.986  10.507 -2.2829 -0.6893 -0.8049
 1012MOL0     H36573   5.598   1.983  10.339 -1.1245  1.3710 -0.4803
 1012MOL0     H36574   5.792   2.151  10.281 -0.8803  1.9173  1.2541
 1012MOL0     H36575   5.849   1.996  10.346  2.6873  2.1998 -1.6865
 1012MOL0     H36576   5.841   2.090  10.565 -2.5854  0.2017 -0.8641
 1012MOL0     H36577   5.828   2.257  10.497 -0.2109 -0.2212  1.4748
 1012MOL0     H36578   6.062   2.219  10.540  0.1452  0.4527  0.1987
 1012MOL0     H36579   6.057   2.176  10.362  1.5925  1.9159  0.7569
 1012MOL0     H36580   6.198   1.844  10.631 -3.5509  3.0171  0.8696
 1012MOL0     H36581   6.361   1.630  10.620 -0.4635 -0.3923  0.4336
 1012MOL0     H36582   6.527   1.675  10.567  0.0789  3.6196 -1.5360
 1012MOL0     H36583   6.467   1.736  10.709 -0.6506 -2.8616  1.4470
 1012MOL0     H36584   6.943   1.917  10.299  1.6451 -0.5211 -1.2779
 1012MOL0     H36585   7.107   1.739  10.269  0.6423 -1.9232  1.2550
 1012MOL0     H36586   7.201   1.548  10.299  0.4558 -1.2834 -1.8973
 1012MOL0     H36587   7.084   1.483  10.407  0.4422 -0.8123 -0.1267
 1012MOL0     H36588   7.234   1.301  10.390  0.8219  2.2596  0.8071
 1012MOL0     H36589   7.092   1.259  10.296  1.9983 -3.7178 -1.7230
 1012MOL0     H36590   7.339   1.356  10.158 -0.0926  0.4701  0.7059
 1012MOL0     H36591   7.186   1.299  10.095  1.8886  0.7547 -2.4436
 1012MOL0     H36592   7.373   1.144  10.276 -0.5441  0.2330  0.8151
 1012MOL0     H36593   7.222   1.072  10.237  0.2691  0.4127 -0.9029
 1012MOL0     H36594   7.270   1.042   9.998 -0.8655 -0.7062 -0.2297
 1012MOL0     H36595   7.399   0.974  10.100  0.2424  0.2543  1.6746
 1012MOL0     H36596   7.371   1.233   9.935 -1.2092 -1.6860  0.4367
 1012MOL0     H36597   7.508   1.215  10.052  1.7690 -0.8019  1.2803
 1012MOL0     H36598   7.450   1.072   9.787 -1.2265  0.1100  1.1288
 1012MOL0     H36599   7.546   0.987   9.906 -1.5305 -0.4617  1.0748
 1012MOL0     H36600   7.667   1.097   9.731 -0.7313  0.0100 -0.1951
 1012MOL0     H36601   7.715   1.171   9.890  0.7531  2.7930 -1.4253
 1012MOL0     H36602   6.790   1.469  10.171  2.6354 -0.6691  0.4660
 1012MOL0     H36603   6.613   1.663  10.189  1.2469 -2.5223 -3.3766
 1012MOL0     H36604   6.460   2.043  10.266 -0.4465 -0.3889  0.5092
 1012MOL0     H36605   6.244   2.118  10.308 -1.8078 -1.4804 -0.1010
 1012MOL0     H36606   6.289   2.678   9.820  0.1352  1.1116 -1.1061
 1012MOL0     H36607   6.518   2.709   9.761  2.8025 -1.6698  4.5220
 1012MOL0     H36608   6.905   2.404   9.613 -3.4737  0.5509 -2.7865
 1012MOL0     H36609   7.120   2.388   9.541 -1.1890 -0.3633 -1.6370
 1012MOL0     H36610   7.309   2.767   9.299 -0.1692 -1.3709 -2.4024
 1012MOL0     H36611   7.371   2.753   9.457  0.7957 -1.5068  0.9654
 1012MOL0     H36612   7.467   2.611   9.204  1.9730  2.8680 -2.0003
 1012MOL0     H36613   7.548   2.600   9.364 -0.5670  2.5763  2.3519
 1012MOL0     H36614   7.605   2.810   9.375  2.1136 -0.7557 -1.1000
 1012MOL0     H36615   7.506   2.865   9.228  1.1358 -0.0858 -1.2097
 1012MOL0     H36616   7.654   2.691   9.112  0.6135  1.1195 -1.1400
 1012MOL0     H36617   7.777   2.716   9.235 -0.7470 -0.4056 -0.2475
 1012MOL0     H36618   7.802   3.096   9.104 -0.2297  0.4623 -3.8031
 1012MOL0     H36619   7.145   2.798   9.429  1.1373  0.2459  1.0916
 1012MOL0     H36620   6.939   2.843   9.553  2.7152  0.9242 -0.3642
 1013MOL0     O36621   8.259  11.231   5.761 -0.5107 -0.9250  0.2460
 1013MOL0     C36622   8.182  11.147   5.820 -0.8586  0.3232  0.2707
 1013MOL0     O36623   8.055  11.168   5.877  0.0019  0.1053 -0.2510
 1013MOL0     C36624   7.995  11.294   5.877 -0.2095 -0.4851  0.6806
 1013MOL0     C36625   7.858  11.292   5.896 -0.5206  0.2355 -0.8171
 1013MOL0     C36626   7.789  11.414   5.917 -0.0195  0.0887  0.4176
 1013MOL0     C36627   7.857  11.539   5.934  0.5917  0.2744  0.2491
 1013MOL0     O36628   7.788  11.647   5.983  0.7968 -0.5348  0.2028
 1013MOL0     C36629   7.857  11.780   5.996 -0.1830 -0.1896  0.7183
 1013MOL0     C36630   7.759  11.892   5.943  0.5780  0.3844 -0.0129
 1013MOL0     C36631   7.824  12.028   5.950 -0.9369  0.3511  0.8840
 1013MOL0     C36632   7.714  12.136   5.928 -0.0816 -0.9100 -0.6480
 1013MOL0     C36633   7.630  12.181   6.054  0.0462 -0.0114 -0.6368
 1013MOL0     C36634   7.523  12.289   6.028  0.3091  0.0654  0.0875
 1013MOL0     C36635   7.473  12.346   6.166  0.3441  0.9486  0.6142
 1013MOL0     C36636   7.352  12.437   6.134  0.3018  0.7826 -0.0785
 1013MOL0     N36637   7.297  12.506   6.256  0.1009  1.0326  0.9991
 1013MOL0     C36638   7.375  12.591   6.329 -0.0192  0.6541 -0.5017
 1013MOL0     C36639   7.297  12.616   6.441  0.2065 -0.0898  0.5845
 1013MOL0     C36640   7.319  12.711   6.552  0.0108  0.0813  0.4727
 1013MOL0     C36641   7.459  12.734   6.600  0.4872  0.1843  1.3009
 1013MOL0     C36642   7.535  12.848   6.538 -0.5991  0.4163  0.1366
 1013MOL0     C36643   7.665  12.884   6.607  0.2857  0.2954  1.0267
 1013MOL0     O36644   7.712  13.023   6.574  0.6869 -0.3611 -0.5273
 1013MOL0     C36645   7.834  13.060   6.621 -0.2092  0.4955 -0.8976
 1013MOL0     C36646   7.886  13.171   6.562  1.0853 -0.8901  0.9633
 1013MOL0     C36647   8.012  13.222   6.595  1.3042 -0.2222 -0.0386
 1013MOL0     C36648   8.060  13.336   6.505 -0.5762 -0.0670 -0.2055
 1013MOL0     C36649   8.084  13.165   6.704 -0.9267 -0.1455 -0.7009
 1013MOL0     C36650   8.218  13.214   6.754 -0.5220 -0.5764  0.3412
 1013MOL0     O36651   8.287  13.129   6.839  0.3244  0.4043 -0.4594
 1013MOL0     C36652   8.412  13.156   6.905  0.5117  0.0716 -0.0561
 1013MOL0     C36653   8.502  13.250   6.862  0.4930 -0.1098  0.5528
 1013MOL0     C36654   8.615  13.281   6.939 -0.8513 -0.1450 -0.6094
 1013MOL0     C36655   8.640  13.209   7.054 -0.6677  0.8342  0.3119
 1013MOL0     O36656   8.746  13.256   7.130  0.6151  0.5056 -0.2109
 1013MOL0     C36657   8.862  13.167   7.138  0.4660  0.6407 -0.0228
 1013MOL0     C36658   8.994  13.246   7.182  0.9727 -0.4761 -0.5151
 1013MOL0     C36659   9.005  13.358   7.085  0.1599  0.8323 -0.2383
 1013MOL0     C36660   9.139  13.429   7.135  0.3445 -0.4106 -0.5894
 1013MOL0     C36661   9.160  13.538   7.039 -0.6710  0.1500 -0.3613
 1013MOL0     C36662   9.058  13.649   7.040 -0.0168 -0.0340 -0.1106
 1013MOL0     C36663   9.009  13.695   7.183  0.2015  0.2193 -0.9592
 1013MOL0     C36664   8.909  13.809   7.178 -0.2267  0.1612  0.0405
 1013MOL0    Cl36665   8.979  13.959   7.113  0.0639  0.1879 -0.1898
 1013MOL0     C36666   8.547  13.108   7.092 -0.1986  0.0222  0.4206
 1013MOL0     C36667   8.442  13.080   7.022 -0.4286  0.2349  1.0356
 1013MOL0     O36668   8.258  13.321   6.704  0.4343  0.0407 -0.0333
 1013MOL0     C36669   8.034  13.046   6.762 -0.2999  1.2662 -0.0670
 1013MOL0     C36670   7.913  12.993   6.718 -0.4397 -0.3763 -0.2002
 1013MOL0     N36671   7.173  12.556   6.421  0.2817  0.5363  0.0645
 1013MOL0     N36672   7.170  12.488   6.310 -0.5204  0.0260 -0.5460
 1013MOL0     C36673   7.997  11.530   5.928  0.5091  0.1439  0.2807
 1013MOL0     C36674   8.063  11.415   5.886  0.2997 -1.5034 -0.1642
 1013MOL0     C36675   8.229  11.008   5.812 -0.3500  0.4081 -0.2705
 1013MOL0     C36676   8.160  10.899   5.880 -0.2336  0.3348  0.1930
 1013MOL0     C36677   8.214  10.772   5.868 -0.2641  0.6086 -0.2125
 1013MOL0     C36678   8.324  10.744   5.793 -1.0102  0.2479 -0.8890
 1013MOL0     O36679   8.371  10.610   5.775 -0.2963  0.3179  0.6604
 1013MOL0     C36680   8.284  10.524   5.694  0.2856 -0.0685 -0.7514
 1013MOL0     C36681   8.314  10.545   5.548  0.0184 -0.3344  0.1430
 1013MOL0     C36682   8.461  10.506   5.521 -0.2282  0.9345 -0.1882
 1013MOL0     C36683   8.500  10.534   5.369  1.5100 -0.9520 -0.9849
 1013MOL0     C36684   8.449  10.433   5.281 -0.1561 -0.0974  0.6578
 1013MOL0     C36685   8.415  10.349   5.203  0.0355  0.1781  0.1352
 1013MOL0     C36686   8.386  10.851   5.722  0.5783  0.6962  0.2173
 1013MOL0     C36687   8.343  10.980   5.730  0.0205 -0.8343 -0.4134
 1013MOL0     H36688   7.812  11.194   5.901 -0.2730  0.0637 -1.8403
 1013MOL0     H36689   7.682  11.417   5.931 -0.2729  3.6100 -1.3292
 1013MOL0     H36690   7.885  11.790   6.101  2.3765  0.4818  0.0464
 1013MOL0     H36691   7.944  11.780   5.929 -1.3784 -2.8306 -1.0087
 1013MOL0     H36692   7.729  11.868   5.841  0.8285 -0.6205  0.1385
 1013MOL0     H36693   7.670  11.889   6.007  2.0547 -1.1085  2.1417
 1013MOL0     H36694   7.870  12.054   6.046 -0.7167 -1.0995  1.2037
 1013MOL0     H36695   7.912  12.041   5.887 -0.2080 -0.7550  1.6434
 1013MOL0     H36696   7.764  12.224   5.886 -0.3143 -0.5561 -0.1985
 1013MOL0     H36697   7.645  12.103   5.851 -0.0746  2.0276 -2.0555
 1013MOL0     H36698   7.585  12.097   6.107  3.4604 -0.9571  1.0769
 1013MOL0     H36699   7.702  12.223   6.125 -0.2011 -1.1300  0.3070
 1013MOL0     H36700   7.576  12.367   5.974  1.5541 -0.6554  0.2436
 1013MOL0     H36701   7.445  12.245   5.963  2.4884 -0.2632 -2.4838
 1013MOL0     H36702   7.441  12.266   6.234 -0.2457  0.4840 -0.2001
 1013MOL0     H36703   7.541  12.406   6.227  1.0499  2.6079 -1.6619
 1013MOL0     H36704   7.267  12.388   6.085 -0.8412  1.0126  1.5854
 1013MOL0     H36705   7.385  12.514   6.064  1.8735  0.7746  0.6061
 1013MOL0     H36706   7.470  12.636   6.302  0.3351  0.8323  0.9396
 1013MOL0     H36707   7.279  12.807   6.518 -1.9417 -1.3772 -1.6016
 1013MOL0     H36708   7.273  12.667   6.641  0.4499  2.0736  1.7423
 1013MOL0     H36709   7.503  12.635   6.591 -2.2581 -1.0302  0.1897
 1013MOL0     H36710   7.456  12.752   6.708 -0.5624  1.6309  1.0679
 1013MOL0     H36711   7.457  12.924   6.534 -0.1745  0.8203 -0.9386
 1013MOL0     H36712   7.562  12.827   6.434 -2.3235  1.1028 -0.4816
 1013MOL0     H36713   7.738  12.809   6.576  0.0753  0.4454  0.1285
 1013MOL0     H36714   7.651  12.892   6.715 -0.7063  6.9610  0.7976
 1013MOL0     H36715   7.829  13.212   6.479  0.2400 -3.1164  0.3583
 1013MOL0     H36716   8.137  13.293   6.440 -0.1859  1.3990 -0.7536
 1013MOL0     H36717   7.983  13.373   6.436 -1.3681 -3.6743 -1.4438
 1013MOL0     H36718   8.095  13.419   6.566 -2.1532  0.5999 -0.1464
 1013MOL0     H36719   8.494  13.319   6.778  0.2709 -0.9635 -0.1372
 1013MOL0     H36720   8.676  13.370   6.927 -0.2763 -0.5852 -0.9768
 1013MOL0     H36721   8.842  13.086   7.210  1.5414  0.6235  0.2765
 1013MOL0     H36722   8.877  13.113   7.044  0.4097  0.1543  0.2430
 1013MOL0     H36723   8.977  13.278   7.286  0.3649  0.7718 -0.9820
 1013MOL0     H36724   9.090  13.195   7.173  2.8855  2.6184  0.4173
 1013MOL0     H36725   8.918  13.421   7.105 -0.9901 -0.4748 -0.9251
 1013MOL0     H36726   9.002  13.336   6.978 -1.8215 -0.7056  0.0670
 1013MOL0     H36727   9.132  13.453   7.241  2.3045 -3.0064  0.2421
 1013MOL0     H36728   9.232  13.371   7.125  0.4577 -0.5690  1.1638
 1013MOL0     H36729   9.184  13.500   6.939  0.6581 -0.6423  0.2324
 1013MOL0     H36730   9.253  13.581   7.080 -0.5081 -1.0311  0.5551
 1013MOL0     H36731   9.108  13.735   6.994  0.0489 -0.1198 -0.1951
 1013MOL0     H36732   8.960  13.629   6.996 -0.7135  1.2838  0.7625
 1013MOL0     H36733   9.101  13.727   7.233 -1.3326  4.0657 -0.2425
 1013MOL0     H36734   8.968  13.612   7.241  1.6998  0.6471  0.8030
 1013MOL0     H36735   8.874  13.825   7.280  0.4709  2.5145 -0.0354
 1013MOL0     H36736   8.820  13.780   7.122 -2.0474  1.8162  1.9220
 1013MOL0     H36737   8.572  13.055   7.184 -1.1480  0.8157  1.1676
 1013MOL0     H36738   8.368  13.003   7.041  0.3688 -0.7322  0.3437
 1013MOL0     H36739   8.088  13.004   6.846  2.1089 -1.3676 -2.6399
 1013MOL0     H36740   7.869  12.903   6.760 -0.8727  0.3297  0.8988
 1013MOL0     H36741   8.055  11.616   5.961  0.0588  0.4742  0.2175
 1013MOL0     H36742   8.171  11.421   5.881  0.2874  2.6672  0.3929
 1013MOL0     H36743   8.061  10.921   5.919 -0.6948 -1.0392 -0.1449
 1013MOL0     H36744   8.171  10.684   5.913  1.8349 -0.6998 -0.6197
 1013MOL0     H36745   8.298  10.423   5.735  1.5010 -0.3200 -1.7144
 1013MOL0     H36746   8.181  10.549   5.720 -0.3942 -3.8847  0.8551
 1013MOL0     H36747   8.294  10.649   5.522 -0.2622 -0.2415  0.7054
 1013MOL0     H36748   8.243  10.488   5.487 -0.3330  0.9364 -0.6551
 1013MOL0     H36749   8.463  10.398   5.540 -2.8196  0.4397 -2.1562
 1013MOL0     H36750   8.534  10.561   5.581  0.2903  0.1857 -0.1276
 1013MOL0     H36751   8.609  10.539   5.359  1.3502  1.2952 -2.2388
 1013MOL0     H36752   8.464  10.635   5.348  3.5874  0.4286  1.5498
 1013MOL0     H36753   8.390  10.281   5.124 -0.5539  0.5076  0.0325
 1013MOL0     H36754   8.480  10.810   5.687  0.8431 -3.3437  4.5883
 1013MOL0     H36755   8.399  11.062   5.687 -0.7855  1.8306  3.1202
 1014MOL0     O36756   6.515  11.294   6.389 -0.5288  0.3045  0.3370
 1014MOL0     C36757   6.548  11.187   6.340 -0.0469  1.4253 -0.3412
 1014MOL0     O36758   6.487  11.124   6.236  0.3180 -0.0446  0.0417
 1014MOL0     C36759   6.364  11.146   6.173  0.5649  0.3693 -0.0840
 1014MOL0     C36760   6.290  11.266   6.194 -1.1110  0.8266 -1.0761
 1014MOL0     C36761   6.155  11.272   6.159 -0.4595 -0.7496  0.3726
 1014MOL0     C36762   6.094  11.166   6.089  0.5192 -0.3562 -0.9159
 1014MOL0     O36763   5.966  11.172   6.050 -0.4392  0.0895 -0.6597
 1014MOL0     C36764   5.871  11.276   6.092  1.9381 -0.6069 -0.4042
 1014MOL0     C36765   5.729  11.244   6.040  0.8597  0.0269  0.0085
 1014MOL0     C36766   5.705  11.094   6.043  0.3737  0.2544  0.1557
 1014MOL0     C36767   5.554  11.072   6.012 -0.4066  1.0579  0.0021
 1014MOL0     C36768   5.511  10.933   6.068 -0.9015 -0.1413 -0.6168
 1014MOL0     C36769   5.498  10.929   6.229 -0.8160  0.7044 -0.1120
 1014MOL0     C36770   5.427  10.796   6.269  0.3646  0.0087  0.0988
 1014MOL0     C36771   5.498  10.668   6.232 -0.1325  0.5982  0.0157
 1014MOL0     N36772   5.404  10.563   6.228  0.1046  0.4738 -0.1646
 1014MOL0     C36773   5.307  10.542   6.127  0.1172 -0.0653 -0.9211
 1014MOL0     C36774   5.215  10.459   6.184 -0.5904 -0.0060  0.0666
 1014MOL0     C36775   5.087  10.420   6.111  0.0128  0.3791 -0.5256
 1014MOL0     C36776   4.976  10.526   6.106 -0.0404 -0.0464  0.1899
 1014MOL0     C36777   4.929  10.574   6.242 -0.1855 -0.5825  0.0961
 1014MOL0     C36778   4.833  10.477   6.305  0.2874 -0.3629 -0.4125
 1014MOL0     O36779   4.713  10.462   6.229  0.5404 -0.6996  0.3248
 1014MOL0     C36780   4.598  10.488   6.287 -0.2182  0.3848  0.6285
 1014MOL0     C36781   4.491  10.404   6.246 -0.1692 -0.0595 -0.0465
 1014MOL0     C36782   4.367  10.414   6.304 -1.4227 -0.7064 -1.2287
 1014MOL0     C36783   4.271  10.313   6.259  0.3553  0.4119 -0.4144
 1014MOL0     C36784   4.332  10.514   6.393 -0.7036 -1.5802  0.1099
 1014MOL0     C36785   4.197  10.545   6.446 -0.2723 -0.0882 -1.5889
 1014MOL0     O36786   4.100  10.444   6.455 -0.1920  0.0091 -0.7807
 1014MOL0     C36787   3.989  10.456   6.538 -0.6709  1.4768 -0.0270
 1014MOL0     C36788   3.858  10.441   6.492 -0.5564  0.9192  0.0452
 1014MOL0     C36789   3.754  10.435   6.590 -0.8506 -0.4006  0.4420
 1014MOL0     C36790   3.789  10.456   6.725  0.2004 -0.3431  0.1989
 1014MOL0     O36791   3.707  10.446   6.835 -0.8572  0.1051  0.2826
 1014MOL0     C36792   3.568  10.439   6.803  0.2823 -0.4098  0.5878
 1014MOL0     C36793   3.477  10.388   6.904 -0.2760 -0.1861  0.0037
 1014MOL0     C36794   3.531  10.251   6.950 -0.0507 -0.3491  0.5006
 1014MOL0     C36795   3.481  10.123   6.874 -0.2864  0.8082  0.3546
 1014MOL0     C36796   3.511  10.000   6.960 -0.5486 -0.4450 -0.0573
 1014MOL0     C36797   3.469   9.871   6.900  1.0966  0.1928  0.1880
 1014MOL0     C36798   3.548   9.751   6.967 -1.1272 -0.3901  0.7341
 1014MOL0     C36799   3.478   9.695   7.084  0.2255 -0.9860  0.7354
 1014MOL0    Cl36800   3.584   9.567   7.155 -0.0436 -0.2486  0.2310
 1014MOL0     C36801   3.917  10.495   6.763  0.9199 -0.0248  0.7815
 1014MOL0     C36802   4.023  10.484   6.669  0.1755 -0.9930 -0.1515
 1014MOL0     O36803   4.180  10.662   6.491  0.4196 -0.3662 -0.0956
 1014MOL0     C36804   4.446  10.593   6.438 -0.2795  0.0655 -0.2496
 1014MOL0     C36805   4.577  10.583   6.387  0.0735  0.1994 -0.2219
 1014MOL0     N36806   5.269  10.430   6.314 -0.0251  0.2546 -0.0417
 1014MOL0     N36807   5.383  10.483   6.333  0.0600 -0.5927  0.0096
 1014MOL0     C36808   6.161  11.049   6.057 -0.6366  0.0315 -0.1798
 1014MOL0     C36809   6.297  11.042   6.105 -0.0009 -0.1079  0.1631
 1014MOL0     C36810   6.674  11.120   6.375 -0.3327  0.4142 -0.9400
 1014MOL0     C36811   6.728  11.024   6.284 -0.1783 -0.8401  0.0352
 1014MOL0     C36812   6.836  10.949   6.300 -0.4924  0.8860 -0.1108
 1014MOL0     C36813   6.907  10.954   6.425  0.4041 -0.3259  0.1732
 1014MOL0     O36814   7.011  10.870   6.460  1.1682 -0.7272  0.2966
 1014MOL0     C36815   7.054  10.762   6.375 -0.4476 -0.2342  0.7901
 1014MOL0     C36816   7.028  10.624   6.437 -0.2629  0.4089 -0.8405
 1014MOL0     C36817   6.922  10.533   6.358  0.1237 -0.6323 -0.6832
 1014MOL0     C36818   6.965  10.474   6.225  0.2957  0.8489 -0.6629
 1014MOL0     C36819   6.857  10.412   6.158  0.4917  0.3102 -0.2877
 1014MOL0     C36820   6.760  10.354   6.123  0.6371  0.5436 -0.0970
 1014MOL0     C36821   6.854  11.042   6.517 -0.5218  0.4013  0.3681
 1014MOL0     C36822   6.734  11.116   6.500  0.2629 -0.7441  0.4517
 1014MOL0     H36823   6.322  11.341   6.266  0.0690  0.7028 -1.4525
 1014MOL0     H36824   6.097  11.360   6.183 -0.3334 -0.4813 -0.2686
 1014MOL0     H36825   5.864  11.296   6.199  1.8792  0.3715 -0.5744
 1014MOL0     H36826   5.890  11.376   6.050  1.3585 -0.3247 -0.0053
 1014MOL0     H36827   5.669  11.298   6.114  0.4425 -0.0976 -0.2378
 1014MOL0     H36828   5.708  11.289   5.943  2.4687  1.0104  0.0684
 1014MOL0     H36829   5.760  11.040   5.965  1.7623 -0.4374  1.5478
 1014MOL0     H36830   5.743  11.056   6.138  3.1337 -0.1071 -0.9944
 1014MOL0     H36831   5.498  11.151   6.063  0.4660  2.2072 -0.7713
 1014MOL0     H36832   5.530  11.072   5.906  2.3547 -1.0426 -0.7217
 1014MOL0     H36833   5.411  10.904   6.035 -1.0214 -1.7436  1.0043
 1014MOL0     H36834   5.574  10.848   6.040 -4.3128 -2.8446 -0.7405
 1014MOL0     H36835   5.599  10.935   6.270 -0.6818  0.4361 -0.3984
 1014MOL0     H36836   5.441  11.020   6.253 -0.4863  0.9607 -0.2890
 1014MOL0     H36837   5.416  10.794   6.378  2.7067 -2.3457  0.4096
 1014MOL0     H36838   5.325  10.793   6.232  0.6876 -1.1272 -0.7761
 1014MOL0     H36839   5.578  10.640   6.301 -1.9193 -0.4399  1.7734
 1014MOL0     H36840   5.546  10.679   6.134 -0.9837 -1.3759 -0.6727
 1014MOL0     H36841   5.314  10.584   6.027  3.9386  0.0295 -0.7705
 1014MOL0     H36842   5.124  10.396   6.011 -1.2580 -0.1265 -0.8898
 1014MOL0     H36843   5.059  10.331   6.167 -2.8026  0.9597 -0.8861
 1014MOL0     H36844   4.896  10.470   6.055  3.8086 -2.7971 -3.6491
 1014MOL0     H36845   4.994  10.610   6.038 -0.6158  0.5861  0.8059
 1014MOL0     H36846   4.885  10.672   6.226  1.0989 -0.4151 -3.3394
 1014MOL0     H36847   5.006  10.598   6.316 -1.7711  2.4320  0.9252
 1014MOL0     H36848   4.827  10.516   6.408  1.7964  0.7057 -0.6914
 1014MOL0     H36849   4.873  10.377   6.324 -3.8357 -2.3305 -1.0577
 1014MOL0     H36850   4.521  10.328   6.174 -0.6300 -1.5943  1.3322
 1014MOL0     H36851   4.177  10.361   6.230 -1.7045 -0.8979  3.3397
 1014MOL0     H36852   4.314  10.256   6.176 -0.3435 -1.4737  0.4600
 1014MOL0     H36853   4.245  10.245   6.341  1.8079 -1.9021 -1.7518
 1014MOL0     H36854   3.836  10.434   6.386 -0.6544 -3.0153  0.1784
 1014MOL0     H36855   3.655  10.424   6.545 -0.1201 -1.1122 -1.0702
 1014MOL0     H36856   3.530  10.534   6.764 -1.0427 -0.3405  1.9566
 1014MOL0     H36857   3.558  10.373   6.715  0.3136  2.3692 -1.6481
 1014MOL0     H36858   3.480  10.457   6.989 -3.8509 -0.0022  0.0960
 1014MOL0     H36859   3.377  10.380   6.862  0.0210 -0.4756 -0.6564
 1014MOL0     H36860   3.506  10.238   7.056 -1.9417  1.4784  0.3483
 1014MOL0     H36861   3.640  10.245   6.943  0.0676  1.5027  0.0850
 1014MOL0     H36862   3.373  10.136   6.864 -0.3710  2.3414  2.5100
 1014MOL0     H36863   3.523  10.123   6.773  2.5460  1.4175  1.4328
 1014MOL0     H36864   3.462  10.010   7.057 -2.2474 -1.0463 -0.8135
 1014MOL0     H36865   3.620  10.001   6.972 -0.4899 -1.0779 -0.4843
 1014MOL0     H36866   3.362   9.862   6.917  0.9753  2.2475  0.7549
 1014MOL0     H36867   3.493   9.872   6.793  0.6859  2.9749  0.0608
 1014MOL0     H36868   3.640   9.802   6.995 -0.2583  0.7004 -3.4355
 1014MOL0     H36869   3.562   9.664   6.902  3.9317  1.1800 -0.7161
 1014MOL0     H36870   3.382   9.657   7.047 -1.4377  3.9816 -0.8394
 1014MOL0     H36871   3.453   9.776   7.153 -1.6719  1.5693 -2.6712
 1014MOL0     H36872   3.943  10.518   6.865 -0.0007 -1.7589  1.4618
 1014MOL0     H36873   4.124  10.498   6.706 -0.3295 -0.8026  1.1857
 1014MOL0     H36874   4.425  10.669   6.512 -0.6008 -1.4383  1.2539
 1014MOL0     H36875   4.657  10.654   6.406  0.1859 -0.1146  0.4941
 1014MOL0     H36876   6.110  10.967   6.007 -3.0995  2.4082 -1.8457
 1014MOL0     H36877   6.364  10.958   6.092  0.4360  0.4358 -1.1867
 1014MOL0     H36878   6.686  11.001   6.186  0.1591 -1.7340  0.0908
 1014MOL0     H36879   6.859  10.883   6.217  1.6212 -2.7289  3.0010
 1014MOL0     H36880   7.025  10.763   6.270 -1.0462 -4.0279  0.7769
 1014MOL0     H36881   7.161  10.783   6.371 -0.7443  2.0823  2.5911
 1014MOL0     H36882   6.981  10.646   6.533  0.2052  2.2329 -0.9825
 1014MOL0     H36883   7.116  10.563   6.458 -1.7405 -0.9454  1.9051
 1014MOL0     H36884   6.842  10.604   6.337  0.6644  0.0816 -0.4020
 1014MOL0     H36885   6.876  10.460   6.425 -1.1485  0.1434 -0.6780
 1014MOL0     H36886   7.044  10.403   6.253  0.2520  0.7961 -0.6728
 1014MOL0     H36887   7.016  10.547   6.162  0.9257  0.8450 -0.1665
 1014MOL0     H36888   6.681  10.297   6.078  1.7099  1.8265 -3.9833
 1014MOL0     H36889   6.910  11.043   6.611 -3.2463  1.4827  2.0930
 1014MOL0     H36890   6.697  11.170   6.586  4.5416  0.0384  2.0273
 1015MOL0     O36891   6.498   9.101   0.457 -1.0268  0.0994  0.3623
 1015MOL0     C36892   6.600   9.151   0.503  0.3313  0.1620 -0.0402
 1015MOL0     O36893   6.642   9.283   0.476 -0.2482  0.4122  0.4165
 1015MOL0     C36894   6.592   9.341   0.358  0.5028  0.4162 -0.4437
 1015MOL0     C36895   6.623   9.294   0.227 -0.1504 -0.3644 -0.4592
 1015MOL0     C36896   6.568   9.360   0.116  0.8743 -0.7127  0.0103
 1015MOL0     C36897   6.471   9.458   0.123  0.4598 -0.1079 -0.0723
 1015MOL0     O36898   6.400   9.532   0.035 -0.3924  0.9470  0.0956
 1015MOL0     C36899   6.470   9.627  -0.046 -0.2344 -0.4142  0.3495
 1015MOL0     C36900   6.381   9.711  -0.122  0.2589 -1.0404 -0.2709
 1015MOL0     C36901   6.292   9.620  -0.205 -0.4366  0.2641  0.0452
 1015MOL0     C36902   6.195   9.702  -0.305 -0.1503  0.5601 -0.5728
 1015MOL0     C36903   6.092   9.614  -0.375  0.1945 -0.0770 -0.1433
 1015MOL0     C36904   6.003   9.543  -0.274  0.5180  0.7474 -0.6414
 1015MOL0     C36905   5.894   9.457  -0.341 -0.4848  0.6416 -0.3313
 1015MOL0     C36906   5.800   9.388  -0.242  0.0398  0.6888 -0.0318
 1015MOL0     N36907   5.721   9.288  -0.310  0.2135  0.3433  0.1995
 1015MOL0     C36908   5.760   9.159  -0.337 -0.6485 -1.3299  0.1771
 1015MOL0     C36909   5.657   9.104  -0.416 -0.3462 -0.5611 -0.4660
 1015MOL0     C36910   5.661   8.966  -0.472 -0.1740 -0.6231 -0.5792
 1015MOL0     C36911   5.536   8.892  -0.466 -0.8525 -0.1802  0.5262
 1015MOL0     C36912   5.555   8.752  -0.528  0.4311  0.1267  0.1467
 1015MOL0     C36913   5.415   8.688  -0.555  0.3283  0.2224  0.2818
 1015MOL0     O36914   5.348   8.666  -0.436 -0.0677  0.6708 -0.0629
 1015MOL0     C36915   5.217   8.611  -0.426 -0.3240  0.5383 -0.0631
 1015MOL0     C36916   5.137   8.591  -0.539 -0.6010 -0.1866 -0.7398
 1015MOL0     C36917   5.003   8.551  -0.533 -0.1458 -0.6854 -0.3761
 1015MOL0     C36918   4.930   8.575  -0.663  0.0119 -0.2643  0.6503
 1015MOL0     C36919   4.943   8.517  -0.406 -0.5882 -0.3028  0.3536
 1015MOL0     C36920   4.817   8.444  -0.391  0.0445 -0.3236  0.4836
 1015MOL0     O36921   4.786   8.417  -0.266  0.3863  0.5637  0.2626
 1015MOL0     C36922   4.662   8.358  -0.244  0.9983  0.1274  0.4990
 1015MOL0     C36923   4.620   8.235  -0.292 -0.7610 -0.0946  0.4931
 1015MOL0     C36924   4.490   8.182  -0.261  0.6166 -0.3437  1.6559
 1015MOL0     C36925   4.422   8.243  -0.160  0.2783  0.9082 -0.4787
 1015MOL0     O36926   4.297   8.188  -0.122  0.0092  0.0101 -0.0853
 1015MOL0     C36927   4.299   8.130   0.010  0.8570 -0.1276  0.2515
 1015MOL0     C36928   4.286   7.978  -0.006  0.2298  0.5620 -0.5942
 1015MOL0     C36929   4.269   7.906   0.129  0.8601  0.4817 -0.3828
 1015MOL0     C36930   4.115   7.874   0.152  0.1127  0.9949 -0.7240
 1015MOL0     C36931   4.081   7.806   0.282  0.1153  0.1398  0.3373
 1015MOL0     C36932   3.934   7.761   0.295 -0.7390  0.4024  0.4669
 1015MOL0     C36933   3.912   7.697   0.428  0.7589 -0.2524  0.1863
 1015MOL0     C36934   3.895   7.800   0.541  0.3799  0.2767  0.0894
 1015MOL0    Cl36935   4.043   7.864   0.628 -0.3872  0.0557  0.2665
 1015MOL0     C36936   4.465   8.370  -0.104 -0.7603 -0.1002 -0.1044
 1015MOL0     C36937   4.587   8.429  -0.150 -0.1518 -0.4191 -0.0477
 1015MOL0     O36938   4.749   8.420  -0.489 -0.6947 -0.2656  0.1071
 1015MOL0     C36939   5.029   8.533  -0.293  0.3210  1.1660 -0.3447
 1015MOL0     C36940   5.161   8.578  -0.296 -0.3413  0.5423  0.8210
 1015MOL0     N36941   5.562   9.203  -0.430 -0.2182  0.0879 -1.1086
 1015MOL0     N36942   5.606   9.310  -0.373  0.0445  0.4453  0.2005
 1015MOL0     C36943   6.442   9.500   0.246  0.0628  0.0572 -0.4788
 1015MOL0     C36944   6.510   9.448   0.361  0.4554  0.0914 -0.7261
 1015MOL0     C36945   6.671   9.072   0.605  0.4178 -0.9722  0.2905
 1015MOL0     C36946   6.641   8.940   0.644  0.3036 -0.7272  0.2920
 1015MOL0     C36947   6.716   8.880   0.746 -0.1760 -0.4297 -1.0242
 1015MOL0     C36948   6.822   8.946   0.818  0.0356  0.0958 -0.1225
 1015MOL0     O36949   6.882   8.873   0.919 -0.7970  0.7111 -0.1855
 1015MOL0     C36950   7.018   8.902   0.959 -0.6565 -0.4106  0.5971
 1015MOL0     C36951   7.066   8.781   1.027 -0.4134 -0.2856  0.2666
 1015MOL0     C36952   7.206   8.782   1.079 -0.1697 -0.1256 -0.8871
 1015MOL0     C36953   7.242   8.657   1.136 -0.9565  0.8916 -0.0252
 1015MOL0     C36954   7.376   8.675   1.206  0.9564  0.0234  0.1648
 1015MOL0     C36955   7.481   8.706   1.255 -0.2966  0.7911 -0.0413
 1015MOL0     C36956   6.861   9.068   0.768 -0.5146 -0.4611 -0.1389
 1015MOL0     C36957   6.792   9.128   0.665  0.7841 -0.0830  0.6435
 1015MOL0     H36958   6.699   9.217   0.211  1.6680  1.5257 -1.4542
 1015MOL0     H36959   6.598   9.311   0.023 -2.1955 -5.0978  0.9924
 1015MOL0     H36960   6.530   9.688   0.022  1.5638 -3.4464  1.6470
 1015MOL0     H36961   6.546   9.575  -0.105  1.4384  2.5114 -0.3172
 1015MOL0     H36962   6.320   9.769  -0.052 -0.6687 -2.6645  0.3248
 1015MOL0     H36963   6.441   9.781  -0.180  0.4941  0.9382  2.2021
 1015MOL0     H36964   6.352   9.559  -0.272  0.2325  2.5990 -1.5905
 1015MOL0     H36965   6.231   9.552  -0.144 -1.1317  1.0472  0.2373
 1015MOL0     H36966   6.146   9.775  -0.240  0.8310 -0.3735  1.2780
 1015MOL0     H36967   6.253   9.748  -0.386 -0.9362 -0.3337 -1.6671
 1015MOL0     H36968   6.023   9.675  -0.434  0.3294 -0.0608 -0.2838
 1015MOL0     H36969   6.133   9.555  -0.457  0.1663 -0.0147 -0.2011
 1015MOL0     H36970   6.064   9.476  -0.213 -0.1482  1.1338  0.4694
 1015MOL0     H36971   5.957   9.607  -0.198  0.7517 -1.6826  1.7133
 1015MOL0     H36972   5.839   9.520  -0.411 -1.7390  0.6663  0.6232
 1015MOL0     H36973   5.945   9.379  -0.398 -0.0267 -0.5810  1.6209
 1015MOL0     H36974   5.737   9.469  -0.204  0.6228  2.2953 -2.3195
 1015MOL0     H36975   5.849   9.332  -0.161 -0.7416 -0.4272 -0.3031
 1015MOL0     H36976   5.861   9.125  -0.320  0.1233 -2.5927 -5.0836
 1015MOL0     H36977   5.692   8.967  -0.577  0.9478  0.6807 -0.2561
 1015MOL0     H36978   5.731   8.901  -0.419 -0.6937 -0.4892  0.3023
 1015MOL0     H36979   5.453   8.932  -0.526  0.3368 -1.6191 -2.2356
 1015MOL0     H36980   5.490   8.884  -0.367 -1.3862 -0.0464  0.2943
 1015MOL0     H36981   5.615   8.685  -0.467  1.3183  1.2234  0.4997
 1015MOL0     H36982   5.605   8.769  -0.624  1.7161 -0.8159  0.6263
 1015MOL0     H36983   5.420   8.592  -0.608  0.0478  0.6819 -0.5818
 1015MOL0     H36984   5.362   8.756  -0.622  0.2202  2.0159  2.0999
 1015MOL0     H36985   5.171   8.622  -0.637 -2.7454  0.9362 -1.1992
 1015MOL0     H36986   4.894   8.483  -0.711 -0.2257  1.5279 -2.9333
 1015MOL0     H36987   4.838   8.629  -0.637 -0.9890 -1.9980  0.8703
 1015MOL0     H36988   4.986   8.621  -0.745  0.9389 -2.8602 -0.2846
 1015MOL0     H36989   4.681   8.179  -0.362  1.6946  2.5427  0.3627
 1015MOL0     H36990   4.456   8.091  -0.310 -1.1421  0.7848  0.6974
 1015MOL0     H36991   4.383   8.169   0.068 -0.3407  1.4489  1.0027
 1015MOL0     H36992   4.211   8.164   0.066 -0.5716 -1.4610 -1.0682
 1015MOL0     H36993   4.207   7.959  -0.080  1.7873 -2.6382 -1.5895
 1015MOL0     H36994   4.383   7.945  -0.043  1.5401  2.4467  0.9294
 1015MOL0     H36995   4.310   7.961   0.214  0.7049  0.9393 -0.6018
 1015MOL0     H36996   4.323   7.811   0.125  2.8324  1.5349 -3.9609
 1015MOL0     H36997   4.052   7.964   0.150 -2.0625 -0.4649 -1.9030
 1015MOL0     H36998   4.076   7.804   0.078  0.1550 -0.7021  0.8005
 1015MOL0     H36999   4.106   7.875   0.363  3.7939  3.5402 -3.2264
 1015MOL0     H37000   4.139   7.713   0.290 -0.5849 -0.3019  0.3592
 1015MOL0     H37001   3.862   7.840   0.276 -1.8015 -0.0489  2.4157
 1015MOL0     H37002   3.917   7.683   0.220  1.5814 -0.0833  0.3662
 1015MOL0     H37003   3.987   7.621   0.452 -0.0209 -0.9836  0.3636
 1015MOL0     H37004   3.826   7.630   0.421 -0.0865  0.4224  2.9269
 1015MOL0     H37005   3.848   7.742   0.621 -3.6879  2.7301 -0.2677
 1015MOL0     H37006   3.830   7.883   0.514  0.4775  0.5599  0.6938
 1015MOL0     H37007   4.413   8.415  -0.021  2.6698  3.2040  0.5373
 1015MOL0     H37008   4.640   8.511  -0.104 -0.8616 -0.8252  1.5718
 1015MOL0     H37009   4.996   8.487  -0.200 -1.7526  1.9609 -0.6370
 1015MOL0     H37010   5.217   8.555  -0.206 -0.3739 -2.8107  0.1458
 1015MOL0     H37011   6.366   9.576   0.263  0.3645 -0.1523  2.3182
 1015MOL0     H37012   6.483   9.495   0.455 -2.0180 -2.5558  0.0541
 1015MOL0     H37013   6.540   8.905   0.621 -0.2468  0.8839  0.1125
 1015MOL0     H37014   6.679   8.789   0.791 -1.7052 -0.7513 -2.8083
 1015MOL0     H37015   7.068   8.942   0.871 -3.5914  0.3410 -0.8480
 1015MOL0     H37016   7.015   8.975   1.041  1.9370  0.2864  0.1847
 1015MOL0     H37017   7.049   8.689   0.970  1.3438 -0.5968  0.2132
 1015MOL0     H37018   6.999   8.789   1.113  1.5232  2.9725  1.6604
 1015MOL0     H37019   7.230   8.874   1.133  0.4927 -0.3277 -0.8256
 1015MOL0     H37020   7.274   8.791   0.993  2.6518 -1.8137  0.9906
 1015MOL0     H37021   7.253   8.589   1.051 -3.2959 -0.5389  0.7299
 1015MOL0     H37022   7.163   8.622   1.204 -1.4899 -0.4336 -1.2883
 1015MOL0     H37023   7.569   8.732   1.310  1.0325 -0.2930 -1.5431
 1015MOL0     H37024   6.954   9.116   0.797 -0.1110 -1.4344  0.2154
 1015MOL0     H37025   6.837   9.221   0.632 -0.6848  0.5482  0.3479
 1016MOL0     O37026   9.066   1.005   7.700 -0.7708 -0.7936  0.5910
 1016MOL0     C37027   9.135   0.903   7.735 -0.4755 -0.0784 -0.5661
 1016MOL0     O37028   9.133   0.850   7.864 -0.5811  0.2818 -0.8812
 1016MOL0     C37029   9.093   0.935   7.961  0.7354  0.1312  0.3697
 1016MOL0     C37030   9.177   1.022   8.033  0.0778  0.3169 -0.7295
 1016MOL0     C37031   9.128   1.101   8.140  0.6409 -0.3868 -0.1084
 1016MOL0     C37032   8.989   1.097   8.169 -0.6398  0.0106  0.0848
 1016MOL0     O37033   8.935   1.155   8.285  0.5320 -0.8067  0.7499
 1016MOL0     C37034   8.908   1.289   8.253  0.0349 -0.0969 -0.0131
 1016MOL0     C37035   8.843   1.360   8.379  0.9435  0.7753 -0.6199
 1016MOL0     C37036   8.716   1.294   8.428 -0.9399  0.3211 -0.7611
 1016MOL0     C37037   8.597   1.322   8.341  0.0243 -0.3944  0.7936
 1016MOL0     C37038   8.477   1.247   8.395 -0.0872 -0.5099  0.3433
 1016MOL0     C37039   8.464   1.108   8.365  0.6046  0.5307  1.3321
 1016MOL0     C37040   8.392   1.090   8.223  0.9055  0.1110 -0.2746
 1016MOL0     C37041   8.433   0.949   8.173  0.3454 -0.6481 -0.3298
 1016MOL0     N37042   8.371   0.927   8.043  0.2218 -0.7423  0.1421
 1016MOL0     C37043   8.239   0.933   8.010  0.0578 -0.2048 -0.2149
 1016MOL0     C37044   8.232   0.886   7.876 -0.8148  0.6982  0.1969
 1016MOL0     C37045   8.112   0.847   7.792 -0.8548 -0.5614 -0.4847
 1016MOL0     C37046   8.001   0.772   7.866  0.5568  0.8485 -0.0044
 1016MOL0     C37047   7.879   0.728   7.783  0.2382  0.1666  0.8304
 1016MOL0     C37048   7.773   0.840   7.764 -0.9888  0.3758 -0.2617
 1016MOL0     O37049   7.659   0.783   7.697 -0.2550  0.5642 -0.2280
 1016MOL0     C37050   7.559   0.721   7.777 -0.0347 -0.1839 -0.9473
 1016MOL0     C37051   7.446   0.664   7.705  0.2599  0.8625 -0.2749
 1016MOL0     C37052   7.326   0.618   7.771 -0.3676  0.4298 -0.1402
 1016MOL0     C37053   7.221   0.559   7.681 -0.0286 -0.0894 -0.7836
 1016MOL0     C37054   7.314   0.625   7.910  0.1108 -1.2063 -0.0046
 1016MOL0     C37055   7.205   0.582   7.996 -0.9306  0.4290  0.2854
 1016MOL0     O37056   7.224   0.529   8.128 -0.4882 -0.4547  0.2676
 1016MOL0     C37057   7.126   0.484   8.209  0.7822 -1.0598  0.9295
 1016MOL0     C37058   7.165   0.486   8.335 -0.1279  0.2825  0.0205
 1016MOL0     C37059   7.079   0.435   8.435  0.0990 -0.4562  0.2756
 1016MOL0     C37060   6.944   0.406   8.402  0.0335  0.5491  0.0481
 1016MOL0     O37061   6.847   0.386   8.503 -0.8310 -0.0110  0.8475
 1016MOL0     C37062   6.870   0.434   8.639  0.2531  0.4500 -0.6492
 1016MOL0     C37063   6.741   0.494   8.691  0.5696  0.5111  0.9696
 1016MOL0     C37064   6.653   0.390   8.760  0.3529 -0.1266 -0.1978
 1016MOL0     C37065   6.523   0.468   8.796  0.1609  0.1764 -0.0814
 1016MOL0     C37066   6.418   0.365   8.858  0.1325  0.8010 -0.1507
 1016MOL0     C37067   6.353   0.273   8.746  0.5416 -0.0925  0.1123
 1016MOL0     C37068   6.206   0.276   8.777  1.0618  0.6547 -0.2718
 1016MOL0     C37069   6.161   0.196   8.899 -0.4520  0.0076 -0.1216
 1016MOL0    Cl37070   6.190   0.031   8.860 -0.7877 -0.1258 -0.1685
 1016MOL0     C37071   6.908   0.401   8.266  0.7617 -0.4389 -0.4770
 1016MOL0     C37072   6.994   0.438   8.165  0.1991 -0.9162 -0.0515
 1016MOL0     O37073   7.099   0.607   7.942  0.7767  1.0691 -0.2552
 1016MOL0     C37074   7.423   0.683   7.986  0.3380 -0.7676  0.4376
 1016MOL0     C37075   7.535   0.736   7.916 -0.4682  0.2250 -0.8913
 1016MOL0     N37076   8.363   0.854   7.839  0.2945 -1.1678  0.2888
 1016MOL0     N37077   8.442   0.899   7.931  0.4529  0.8250  0.1329
 1016MOL0     C37078   8.911   1.006   8.102 -0.2731  0.3608 -0.0853
 1016MOL0     C37079   8.963   0.929   7.994  0.9174 -0.3563 -0.5286
 1016MOL0     C37080   9.233   0.843   7.634 -0.2964  0.4106 -0.0926
 1016MOL0     C37081   9.292   0.716   7.653 -0.0595 -0.6131  0.3376
 1016MOL0     C37082   9.382   0.674   7.557 -0.5958  0.2622  0.4954
 1016MOL0     C37083   9.412   0.737   7.439 -0.1808 -0.2666  0.2656
 1016MOL0     O37084   9.489   0.668   7.357 -0.1215  0.0693  0.0417
 1016MOL0     C37085   9.497   0.698   7.219  0.5188 -0.2824  0.7894
 1016MOL0     C37086   9.600   0.604   7.156 -0.7874 -0.7795  0.4659
 1016MOL0     C37087   9.549   0.461   7.160 -0.2584 -0.0309 -0.9358
 1016MOL0     C37088   9.630   0.371   7.085 -0.1785  1.3141  0.1125
 1016MOL0     C37089   9.586   0.225   7.091  0.6744  0.0861 -0.1951
 1016MOL0     C37090   9.527   0.123   7.100 -0.0303 -0.2302 -0.3814
 1016MOL0     C37091   9.340   0.859   7.410 -0.4229  0.1369 -0.2231
 1016MOL0     C37092   9.257   0.908   7.511  0.1887  0.1578  0.2484
 1016MOL0     H37093   9.283   1.012   8.014  0.4637 -2.7711  2.0668
 1016MOL0     H37094   9.185   1.162   8.210  0.6285 -1.3978  0.8016
 1016MOL0     H37095   9.000   1.346   8.236  0.7334 -0.9601  0.7568
 1016MOL0     H37096   8.857   1.291   8.156  0.0936 -0.5879 -0.0544
 1016MOL0     H37097   8.912   1.354   8.463 -1.0423 -4.4490  1.0685
 1016MOL0     H37098   8.814   1.463   8.357 -1.2904  0.1044 -1.0806
 1016MOL0     H37099   8.735   1.187   8.436  0.2987  0.6343  1.0962
 1016MOL0     H37100   8.705   1.332   8.530  1.8196 -0.1043 -0.2209
 1016MOL0     H37101   8.571   1.428   8.340  0.0183 -0.3982  0.4054
 1016MOL0     H37102   8.620   1.291   8.238  0.9430 -2.2729  1.5132
 1016MOL0     H37103   8.475   1.257   8.504 -0.9401 -2.9386  0.6089
 1016MOL0     H37104   8.386   1.299   8.363  0.1637 -0.7154 -0.7223
 1016MOL0     H37105   8.559   1.058   8.385  1.6944  2.4439  1.0946
 1016MOL0     H37106   8.389   1.067   8.433  0.2211  0.7656  1.0527
 1016MOL0     H37107   8.286   1.109   8.238  1.0980  1.2922 -0.2636
 1016MOL0     H37108   8.425   1.179   8.167  0.5052  0.1038 -0.5222
 1016MOL0     H37109   8.390   0.868   8.233  0.0305 -1.8047 -2.0496
 1016MOL0     H37110   8.542   0.942   8.170  0.4565  0.6105  0.2385
 1016MOL0     H37111   8.150   0.938   8.071 -0.2917 -2.7844 -0.4108
 1016MOL0     H37112   8.069   0.945   7.771  1.8396  1.3232  1.9820
 1016MOL0     H37113   8.136   0.795   7.699  0.1785 -0.6975 -0.1577
 1016MOL0     H37114   7.971   0.828   7.954  0.2079 -1.4058  1.3905
 1016MOL0     H37115   8.056   0.686   7.906  1.7752  1.1804 -0.8952
 1016MOL0     H37116   7.831   0.640   7.827 -0.3608 -0.3733 -0.8289
 1016MOL0     H37117   7.914   0.689   7.687 -0.7648  0.3369  0.3815
 1016MOL0     H37118   7.807   0.928   7.708 -0.2498  0.9873  1.0847
 1016MOL0     H37119   7.754   0.880   7.865  2.0554 -0.1984  0.6505
 1016MOL0     H37120   7.467   0.670   7.599  1.4654  0.2372 -0.0837
 1016MOL0     H37121   7.264   0.504   7.597  3.3324  1.2412 -0.0798
 1016MOL0     H37122   7.150   0.501   7.741 -1.7568  2.3452 -0.3098
 1016MOL0     H37123   7.155   0.637   7.642 -1.6202 -1.7599 -1.5419
 1016MOL0     H37124   7.265   0.525   8.351 -0.5096  1.7182 -0.8965
 1016MOL0     H37125   7.113   0.426   8.538  0.9750 -1.4880 -0.0862
 1016MOL0     H37126   6.896   0.351   8.705  3.4011  1.2376 -0.7609
 1016MOL0     H37127   6.949   0.509   8.641  3.1699 -2.3296 -2.4416
 1016MOL0     H37128   6.768   0.565   8.770 -3.2508  1.4348  1.6204
 1016MOL0     H37129   6.681   0.546   8.617 -0.2401 -1.7155 -0.0289
 1016MOL0     H37130   6.704   0.345   8.845  1.4372  0.1667 -0.6669
 1016MOL0     H37131   6.628   0.309   8.691  1.7113 -0.2793 -0.5476
 1016MOL0     H37132   6.547   0.537   8.877 -1.4728 -1.4313  1.8837
 1016MOL0     H37133   6.486   0.526   8.710 -1.4792  1.3552  1.3404
 1016MOL0     H37134   6.339   0.422   8.908 -3.5978 -2.1284 -2.1118
 1016MOL0     H37135   6.469   0.301   8.930  0.0392  0.0034 -0.7729
 1016MOL0     H37136   6.372   0.306   8.644 -1.2124 -1.1957 -0.6078
 1016MOL0     H37137   6.401   0.175   8.748  2.7082  0.8757  2.7464
 1016MOL0     H37138   6.152   0.229   8.694  0.8650  2.1698 -1.0418
 1016MOL0     H37139   6.167   0.378   8.779  3.0597  1.4613 -0.3942
 1016MOL0     H37140   6.053   0.208   8.913 -0.1737  3.4588 -0.0864
 1016MOL0     H37141   6.220   0.228   8.986 -2.4147 -0.0962  1.3062
 1016MOL0     H37142   6.801   0.388   8.251  0.5746  0.8962 -0.3820
 1016MOL0     H37143   6.962   0.446   8.062  1.0506  1.5266 -0.1919
 1016MOL0     H37144   7.408   0.690   8.093  1.0493 -0.0303  0.5044
 1016MOL0     H37145   7.603   0.802   7.969 -0.2650  1.0227 -2.0760
 1016MOL0     H37146   8.805   0.996   8.126  0.2286 -0.3206  2.0555
 1016MOL0     H37147   8.908   0.857   7.935 -0.4378 -0.5282  0.8759
 1016MOL0     H37148   9.259   0.659   7.738 -2.4847  2.2372  1.5166
 1016MOL0     H37149   9.421   0.577   7.587 -2.2217  0.3090  3.0806
 1016MOL0     H37150   9.401   0.686   7.167 -0.7667  1.4615  2.5900
 1016MOL0     H37151   9.528   0.802   7.212 -1.4599  0.2574 -1.0924
 1016MOL0     H37152   9.695   0.613   7.210 -1.1595 -0.7490  1.1212
 1016MOL0     H37153   9.612   0.635   7.052 -4.1056  1.8218  0.6987
 1016MOL0     H37154   9.447   0.453   7.122 -0.1473 -0.5347 -1.1299
 1016MOL0     H37155   9.553   0.441   7.267  0.3197 -0.0296 -0.9541
 1016MOL0     H37156   9.734   0.359   7.116 -0.4635 -1.1437  0.3865
 1016MOL0     H37157   9.630   0.417   6.987 -0.4991  3.1086  0.9237
 1016MOL0     H37158   9.471   0.038   7.133  1.2891 -0.8142  0.4378
 1016MOL0     H37159   9.352   0.903   7.311 -1.9036  2.1371  0.4303
 1016MOL0     H37160   9.205   1.001   7.489 -1.4313 -0.6948  0.3989
 1017MOL0     O37161   1.681   7.244   8.981  0.0899 -0.5031  0.4270
 1017MOL0     C37162   1.722   7.301   9.078 -0.9383  1.5045  0.1453
 1017MOL0     O37163   1.735   7.250   9.197  0.2901 -0.1076  0.2524
 1017MOL0     C37164   1.676   7.132   9.208  0.9941 -0.5301 -1.3050
 1017MOL0     C37165   1.555   7.114   9.275  0.8211 -0.3416 -0.2937
 1017MOL0     C37166   1.503   6.986   9.303 -0.4209  0.5418 -0.4279
 1017MOL0     C37167   1.581   6.869   9.259  0.0482  0.0143 -0.2134
 1017MOL0     O37168   1.560   6.742   9.312 -0.4119 -0.4936  0.2675
 1017MOL0     C37169   1.424   6.714   9.354  0.2065  1.3566  1.3610
 1017MOL0     C37170   1.382   6.564   9.314  0.3801  0.5296  0.1094
 1017MOL0     C37171   1.233   6.543   9.269  0.1250  0.6671  0.4348
 1017MOL0     C37172   1.150   6.554   9.388  0.8281 -0.0014 -0.4644
 1017MOL0     C37173   1.020   6.480   9.376  0.2680  0.7729  0.0232
 1017MOL0     C37174   0.936   6.525   9.249  0.3159 -0.5253  0.0954
 1017MOL0     C37175   0.803   6.462   9.236 -0.4984  1.6186  0.3756
 1017MOL0     C37176   0.689   6.533   9.314  0.4773 -0.7583  0.0572
 1017MOL0     N37177   0.580   6.447   9.355  0.4766  0.0770  0.4682
 1017MOL0     C37178   0.552   6.399   9.480 -0.6844 -0.0638 -0.7987
 1017MOL0     C37179   0.434   6.340   9.472  0.0714 -0.0761  0.0456
 1017MOL0     C37180   0.368   6.268   9.578 -0.4518  0.3083 -0.3415
 1017MOL0     C37181   0.227   6.298   9.580 -0.1160 -0.9469  0.2617
 1017MOL0     C37182   0.145   6.218   9.687  0.1692  0.6252 -0.1514
 1017MOL0     C37183   0.181   6.231   9.837  0.2119  0.5748 -0.6968
 1017MOL0     O37184   0.173   6.375   9.884  0.8096  0.4914 -0.3898
 1017MOL0     C37185   0.226   6.408  10.009 -0.7769 -0.1083 -0.4808
 1017MOL0     C37186   0.286   6.315  10.091  0.4257  0.6509  0.5594
 1017MOL0     C37187   0.359   6.348  10.205 -0.8678  1.0768  0.4484
 1017MOL0     C37188   0.407   6.222  10.279 -0.8257 -0.5426  0.3900
 1017MOL0     C37189   0.376   6.486  10.238 -0.6699 -0.3586 -0.4588
 1017MOL0     C37190   0.448   6.525  10.365 -0.0107 -0.5150  0.0440
 1017MOL0     O37191   0.442   6.654  10.392 -0.5014 -0.0755  0.3533
 1017MOL0     C37192   0.472   6.695  10.523 -0.2084  0.6028 -0.5313
 1017MOL0     C37193   0.545   6.813  10.546  0.5454  0.6744  1.5763
 1017MOL0     C37194   0.576   6.863  10.676  0.4461  0.3316  0.3358
 1017MOL0     C37195   0.515   6.799  10.789 -1.1274 -0.0063 -0.0694
 1017MOL0     O37196   0.542   6.832  10.919 -0.1067  0.5043  0.3563
 1017MOL0     C37197   0.608   6.951  10.940 -0.0934  0.6965  0.2129
 1017MOL0     C37198   0.621   6.985  11.095 -0.1379  0.0262 -0.4845
 1017MOL0     C37199   0.717   7.096  11.132  0.6437 -0.4799  0.5854
 1017MOL0     C37200   0.678   7.225  11.058 -0.0603  0.1472  0.6641
 1017MOL0     C37201   0.723   7.344  11.132  0.0009 -0.3087 -0.5885
 1017MOL0     C37202   0.701   7.488  11.071 -0.9637 -0.3594  0.1712
 1017MOL0     C37203   0.766   7.594  11.156  0.2007  1.0819 -0.0260
 1017MOL0     C37204   0.684   7.636  11.278 -0.0430 -0.2915 -0.4469
 1017MOL0    Cl37205   0.519   7.698  11.240  0.3381  0.0752  0.3310
 1017MOL0     C37206   0.445   6.685  10.771 -0.1029  0.6316  0.0720
 1017MOL0     C37207   0.427   6.632  10.639 -0.0467 -0.0645  0.9274
 1017MOL0     O37208   0.515   6.444  10.429 -0.0832 -0.3328  0.0602
 1017MOL0     C37209   0.321   6.581  10.159  0.0758 -0.1166  0.9565
 1017MOL0     C37210   0.246   6.547  10.045  0.4695 -0.7558 -0.2183
 1017MOL0     N37211   0.387   6.355   9.342 -0.6790 -0.0590  0.5830
 1017MOL0     N37212   0.473   6.427   9.281 -0.0996  0.3626  0.5824
 1017MOL0     C37213   1.711   6.890   9.202  0.5563 -0.0095 -0.3242
 1017MOL0     C37214   1.744   7.020   9.174 -0.7422  0.2984  0.4950
 1017MOL0     C37215   1.788   7.435   9.054  0.1023 -0.1057  1.3318
 1017MOL0     C37216   1.741   7.514   8.945  0.5921 -0.0255  0.3363
 1017MOL0     C37217   1.798   7.641   8.919 -1.0339  0.1974  0.1928
 1017MOL0     C37218   1.887   7.696   9.015  0.1384 -0.4360 -0.1536
 1017MOL0     O37219   1.946   7.818   8.982 -0.4862  0.5396 -0.0157
 1017MOL0     C37220   1.913   7.902   8.869 -0.1261  0.2161 -0.0428
 1017MOL0     C37221   1.963   8.055   8.868  0.0650  0.1184 -0.2430
 1017MOL0     C37222   1.924   8.138   8.991 -0.0910  0.9439 -0.8453
 1017MOL0     C37223   2.025   8.244   9.040  1.0512  0.2091  0.6024
 1017MOL0     C37224   1.963   8.341   9.136 -0.0145 -0.2293  0.2105
 1017MOL0     C37225   1.912   8.414   9.225 -0.2317 -0.6639 -0.3965
 1017MOL0     C37226   1.920   7.624   9.135  0.8182  0.3792 -0.1888
 1017MOL0     C37227   1.872   7.489   9.149  0.1876 -0.3639  1.1461
 1017MOL0     H37228   1.501   7.201   9.311 -2.9330 -1.7377 -2.0804
 1017MOL0     H37229   1.413   6.978   9.364 -2.3255  2.1939 -2.8237
 1017MOL0     H37230   1.416   6.719   9.463  1.0220 -1.7270  1.6490
 1017MOL0     H37231   1.348   6.771   9.300 -2.3420 -2.2656  0.7768
 1017MOL0     H37232   1.430   6.539   9.219  1.2961 -0.0540  0.7087
 1017MOL0     H37233   1.415   6.485   9.382  1.7837  0.8013 -0.2363
 1017MOL0     H37234   1.206   6.610   9.187 -0.6949 -2.9514 -2.4862
 1017MOL0     H37235   1.218   6.442   9.230 -1.7717  0.9978  0.2137
 1017MOL0     H37236   1.210   6.513   9.469 -2.0254  1.8180  2.8519
 1017MOL0     H37237   1.124   6.658   9.408 -1.3147 -0.9995  2.5025
 1017MOL0     H37238   1.036   6.372   9.377 -1.5736  0.1867  6.1015
 1017MOL0     H37239   0.973   6.513   9.469  5.5645  0.9564  3.0317
 1017MOL0     H37240   0.919   6.632   9.260  1.0747 -0.5551  1.7403
 1017MOL0     H37241   0.998   6.506   9.161 -1.8381 -0.7586 -1.4540
 1017MOL0     H37242   0.769   6.456   9.132 -0.8296 -0.8252  0.5634
 1017MOL0     H37243   0.808   6.355   9.257 -0.6303  1.3207 -0.9863
 1017MOL0     H37244   0.652   6.614   9.250  4.8881  0.4276 -1.4005
 1017MOL0     H37245   0.735   6.571   9.406  0.1829 -3.0750  1.2427
 1017MOL0     H37246   0.611   6.401   9.572  0.6193 -0.0891 -1.5976
 1017MOL0     H37247   0.394   6.163   9.568 -1.1474  0.0677  0.3249
 1017MOL0     H37248   0.419   6.308   9.667  0.0922  0.6651 -0.8035
 1017MOL0     H37249   0.176   6.295   9.484 -1.4374 -0.3551  0.9138
 1017MOL0     H37250   0.218   6.405   9.601 -1.7184  0.2607 -5.1021
 1017MOL0     H37251   0.150   6.114   9.655  2.9789  0.6157  0.0820
 1017MOL0     H37252   0.045   6.262   9.684  0.4361  1.6122  2.3605
 1017MOL0     H37253   0.287   6.205   9.851  0.6256  2.1393 -0.7243
 1017MOL0     H37254   0.112   6.164   9.889 -2.6610  2.5101 -1.8108
 1017MOL0     H37255   0.277   6.210  10.064  3.4043  0.5582 -0.4260
 1017MOL0     H37256   0.400   6.239  10.387  0.8723  0.1701  0.4149
 1017MOL0     H37257   0.345   6.137  10.249 -2.8200  1.3263 -1.2222
 1017MOL0     H37258   0.511   6.201  10.254 -0.4809  3.1163 -2.1635
 1017MOL0     H37259   0.579   6.851  10.450  0.4236 -3.3645 -0.2864
 1017MOL0     H37260   0.629   6.954  10.701  2.3568 -0.7415  0.3149
 1017MOL0     H37261   0.708   6.931  10.898  0.0564  0.8186  0.5085
 1017MOL0     H37262   0.561   7.033  10.885  0.8373 -0.0357 -1.7891
 1017MOL0     H37263   0.524   7.024  11.128  0.3357  2.2311 -1.5051
 1017MOL0     H37264   0.644   6.894  11.150 -0.5902 -0.0820 -0.4673
 1017MOL0     H37265   0.822   7.065  11.130  1.3542  1.6433  1.6582
 1017MOL0     H37266   0.690   7.102  11.237  0.7560 -2.8368  0.8004
 1017MOL0     H37267   0.722   7.226  10.958 -2.4643  1.0411 -0.4681
 1017MOL0     H37268   0.568   7.227  11.050 -0.1089  1.5215  1.3985
 1017MOL0     H37269   0.829   7.332  11.156 -0.5397  0.2216  2.6304
 1017MOL0     H37270   0.674   7.347  11.230  0.8859 -1.8974 -0.0481
 1017MOL0     H37271   0.749   7.496  10.973  2.0704 -1.6436  1.3968
 1017MOL0     H37272   0.595   7.510  11.056 -0.5841  1.6814  0.1629
 1017MOL0     H37273   0.771   7.684  11.095  0.5706 -1.0479 -3.3570
 1017MOL0     H37274   0.865   7.549  11.172 -0.5132 -1.5566 -2.3025
 1017MOL0     H37275   0.741   7.707  11.339 -0.0740 -1.2013  0.7019
 1017MOL0     H37276   0.683   7.545  11.340  4.4455 -0.2929 -0.0427
 1017MOL0     H37277   0.399   6.643  10.860  1.2554 -0.5100  0.2758
 1017MOL0     H37278   0.368   6.542  10.629 -0.9593  0.6060  0.0207
 1017MOL0     H37279   0.336   6.688  10.164  1.9331 -0.3324  0.6506
 1017MOL0     H37280   0.199   6.618   9.979 -1.8977  0.0618  2.1674
 1017MOL0     H37281   1.775   6.811   9.164  0.8544 -0.1033  0.3699
 1017MOL0     H37282   1.832   7.026   9.112 -0.5912  2.3484  0.8391
 1017MOL0     H37283   1.662   7.477   8.880  0.9594  2.0075 -1.3586
 1017MOL0     H37284   1.776   7.693   8.826 -2.1381  0.7947  0.7784
 1017MOL0     H37285   1.958   7.854   8.782  0.6714 -0.7926  0.9042
 1017MOL0     H37286   1.806   7.899   8.846 -0.5698  1.9126  1.5286
 1017MOL0     H37287   1.946   8.107   8.774 -0.0716  2.1912  0.8583
 1017MOL0     H37288   2.072   8.053   8.864  0.1584  0.7835  1.2090
 1017MOL0     H37289   1.904   8.066   9.071  0.0330  1.1345 -0.6440
 1017MOL0     H37290   1.829   8.187   8.968 -0.2060  0.7361 -0.8130
 1017MOL0     H37291   2.075   8.291   8.955  2.6742 -0.0953  1.3515
 1017MOL0     H37292   2.100   8.204   9.109  0.9477  0.4212  0.8405
 1017MOL0     H37293   1.879   8.477   9.305 -1.0783 -0.3175 -1.0085
 1017MOL0     H37294   1.979   7.672   9.212  0.7498  0.4471 -0.1784
 1017MOL0     H37295   1.888   7.438   9.244 -1.5733  4.3063  4.3279
 1018MOL0     O37296   7.764   1.114   7.054 -0.2403 -0.3379 -0.0946
 1018MOL0     C37297   7.695   1.098   6.956 -0.5571  0.7190  0.1196
 1018MOL0     O37298   7.558   1.069   6.952 -0.2049  0.2963 -0.8648
 1018MOL0     C37299   7.509   1.022   7.071 -0.1258 -0.1501  0.4137
 1018MOL0     C37300   7.371   1.039   7.104 -0.5512 -0.0288  0.6997
 1018MOL0     C37301   7.314   0.974   7.220 -0.0672  0.4087  0.1769
 1018MOL0     C37302   7.403   0.904   7.311 -0.1169 -0.1670  0.5702
 1018MOL0     O37303   7.366   0.845   7.435 -0.4955 -0.2276 -0.1642
 1018MOL0     C37304   7.263   0.914   7.506  0.4275 -0.1642 -0.0112
 1018MOL0     C37305   7.317   1.052   7.563 -0.4414  0.7710  0.2078
 1018MOL0     C37306   7.411   1.034   7.687 -0.5182 -0.9786  0.1365
 1018MOL0     C37307   7.446   1.164   7.762  0.4479  0.1915  0.2234
 1018MOL0     C37308   7.539   1.159   7.882  0.0558 -0.0458 -0.3542
 1018MOL0     C37309   7.689   1.206   7.851 -0.1319 -0.1758 -0.3682
 1018MOL0     C37310   7.756   1.252   7.988 -0.3951  0.6528 -0.2333
 1018MOL0     C37311   7.908   1.254   7.970 -0.1417  0.0051  0.1009
 1018MOL0     N37312   7.983   1.294   8.087  0.7449  0.5851  0.3078
 1018MOL0     C37313   8.008   1.428   8.111  0.4743  0.5556 -0.2507
 1018MOL0     C37314   8.099   1.440   8.205 -0.5601  0.8773  0.4693
 1018MOL0     C37315   8.165   1.569   8.245 -0.8493  0.2514 -0.7691
 1018MOL0     C37316   8.254   1.636   8.133 -0.0991 -0.4850  0.7763
 1018MOL0     C37317   8.324   1.761   8.180  0.5874 -0.7556  0.0304
 1018MOL0     C37318   8.417   1.731   8.290 -1.3241 -0.6843  1.1068
 1018MOL0     O37319   8.497   1.850   8.317  0.7535 -1.0895  0.3306
 1018MOL0     C37320   8.593   1.835   8.422 -0.1364 -0.0566  0.2533
 1018MOL0     C37321   8.604   1.940   8.510 -0.1019  0.5293  0.3311
 1018MOL0     C37322   8.707   1.947   8.605  0.2801 -0.3311  0.1223
 1018MOL0     C37323   8.732   2.081   8.682  0.3460 -0.3950  0.2302
 1018MOL0     C37324   8.796   1.836   8.615 -0.8585  0.5136 -0.7497
 1018MOL0     C37325   8.919   1.834   8.707 -1.3764 -0.0516  0.5515
 1018MOL0     O37326   9.013   1.733   8.679  0.1778  0.2036 -0.3964
 1018MOL0     C37327   9.133   1.714   8.738 -0.9411 -0.1775 -0.3270
 1018MOL0     C37328   9.217   1.815   8.774  0.3441  0.9105 -0.9091
 1018MOL0     C37329   9.336   1.799   8.841 -0.1349  0.7013  0.4215
 1018MOL0     C37330   9.381   1.672   8.865  0.8882 -0.1247  0.5772
 1018MOL0     O37331   9.497   1.645   8.932 -0.2716 -0.0205 -0.0722
 1018MOL0     C37332   9.488   1.630   9.074 -0.7683 -0.1988  0.2112
 1018MOL0     C37333   9.616   1.654   9.150  0.0132  0.6361 -0.7035
 1018MOL0     C37334   9.650   1.802   9.140  0.9852  0.5156  0.2971
 1018MOL0     C37335   9.779   1.814   9.225 -0.0459 -0.3445 -0.0553
 1018MOL0     C37336   9.850   1.946   9.198 -0.5022  0.0269  0.1768
 1018MOL0     C37337   9.758   2.068   9.223 -0.5211  0.5654 -0.6484
 1018MOL0     C37338   9.809   2.190   9.130 -0.3614  1.1815 -0.2261
 1018MOL0     C37339   9.960   2.226   9.158 -0.3298 -0.5750 -0.0890
 1018MOL0    Cl37340  10.032   2.354   9.056  0.3715 -0.2115 -0.1853
 1018MOL0     C37341   9.283   1.562   8.838 -0.8503 -0.3951  0.2618
 1018MOL0     C37342   9.161   1.587   8.781 -0.1867 -0.5282  0.0287
 1018MOL0     O37343   8.939   1.911   8.796 -0.0717 -0.4961  0.7082
 1018MOL0     C37344   8.767   1.719   8.542 -0.3797  0.2513  0.7786
 1018MOL0     C37345   8.677   1.723   8.437  0.8961  0.4129  1.5061
 1018MOL0     N37346   8.139   1.310   8.235 -0.3578 -0.5052  0.3669
 1018MOL0     N37347   8.075   1.224   8.160  0.3245  0.1737 -0.0009
 1018MOL0     C37348   7.538   0.875   7.265  0.4769 -1.3561  0.1679
 1018MOL0     C37349   7.584   0.932   7.145  1.2120  0.2812 -0.1537
 1018MOL0     C37350   7.760   1.088   6.822 -0.4842  0.1106 -0.3126
 1018MOL0     C37351   7.694   1.030   6.711 -0.4836  0.2953 -0.5792
 1018MOL0     C37352   7.750   1.042   6.576  0.3770 -0.6889 -0.0865
 1018MOL0     C37353   7.867   1.119   6.559 -0.3966  0.0364  0.9868
 1018MOL0     O37354   7.911   1.139   6.439 -0.3938  0.2675 -0.7057
 1018MOL0     C37355   8.015   1.236   6.420  0.0487  0.2473 -0.3680
 1018MOL0     C37356   8.060   1.251   6.278  0.7141 -0.1912  0.2381
 1018MOL0     C37357   8.152   1.375   6.261  0.9571 -0.4001  0.1404
 1018MOL0     C37358   8.175   1.427   6.122  0.6652  0.1780  0.8138
 1018MOL0     C37359   8.244   1.331   6.040 -0.1089  0.1884 -0.3637
 1018MOL0     C37360   8.304   1.267   5.961  0.1923  0.4908 -0.0468
 1018MOL0     C37361   7.936   1.166   6.673  0.5041  0.1066  0.7567
 1018MOL0     C37362   7.886   1.156   6.800 -0.7224  0.3108  0.6321
 1018MOL0     H37363   7.322   1.116   7.046  2.5093  1.5648  0.0172
 1018MOL0     H37364   7.213   0.995   7.252 -0.0672  0.1508  0.3490
 1018MOL0     H37365   7.179   0.951   7.448  0.6173  0.0305 -0.1624
 1018MOL0     H37366   7.228   0.858   7.594  1.2018  1.5198  1.4373
 1018MOL0     H37367   7.382   1.100   7.489 -1.8377  1.5165 -0.6026
 1018MOL0     H37368   7.231   1.117   7.581 -0.3919  1.1121 -0.7348
 1018MOL0     H37369   7.382   0.960   7.762  0.8469  0.2489  1.9663
 1018MOL0     H37370   7.499   0.987   7.642  1.0420  2.8367 -1.2269
 1018MOL0     H37371   7.479   1.238   7.688  0.4778 -0.1202 -0.0781
 1018MOL0     H37372   7.352   1.206   7.798  0.7566 -0.2200  1.5873
 1018MOL0     H37373   7.495   1.235   7.947 -2.4738 -0.8031 -1.0706
 1018MOL0     H37374   7.529   1.062   7.930 -1.2484  0.5061  0.5385
 1018MOL0     H37375   7.761   1.135   7.810  1.8323  1.0190  0.7805
 1018MOL0     H37376   7.675   1.282   7.773 -1.1116  0.0040 -0.0305
 1018MOL0     H37377   7.714   1.352   8.006 -0.3751  0.9212 -1.5851
 1018MOL0     H37378   7.726   1.182   8.067 -0.4019 -0.5537 -1.2873
 1018MOL0     H37379   7.921   1.309   7.876 -0.8818 -1.9137 -1.1769
 1018MOL0     H37380   7.933   1.149   7.956 -1.6850 -0.6206  1.6143
 1018MOL0     H37381   7.954   1.508   8.061 -1.1834 -0.9176 -0.9334
 1018MOL0     H37382   8.079   1.632   8.270  0.3852  1.5224  0.4541
 1018MOL0     H37383   8.216   1.547   8.339 -1.4845  1.1942 -0.1899
 1018MOL0     H37384   8.195   1.670   8.046  0.1835  0.1051  0.8136
 1018MOL0     H37385   8.321   1.561   8.089  2.0681  1.1454  1.1354
 1018MOL0     H37386   8.245   1.829   8.213 -0.1475 -1.1373 -0.8927
 1018MOL0     H37387   8.374   1.812   8.097 -2.6316  2.6785 -0.0797
 1018MOL0     H37388   8.487   1.654   8.259  1.1738  1.7836  0.1673
 1018MOL0     H37389   8.355   1.722   8.380 -3.4585  0.3417 -0.1955
 1018MOL0     H37390   8.546   2.031   8.506  0.2787  0.7613  0.0377
 1018MOL0     H37391   8.708   2.077   8.789  2.3948 -0.4504  0.7317
 1018MOL0     H37392   8.838   2.098   8.661  0.5649 -1.7555  0.1844
 1018MOL0     H37393   8.673   2.165   8.644 -0.5058 -1.1684 -0.1787
 1018MOL0     H37394   9.197   1.912   8.729  0.0919  1.1936 -0.1940
 1018MOL0     H37395   9.402   1.884   8.859 -1.6598  1.4002  3.4062
 1018MOL0     H37396   9.405   1.686   9.118  0.7291  1.2865  1.2593
 1018MOL0     H37397   9.461   1.524   9.076  0.4367 -0.5232  1.9209
 1018MOL0     H37398   9.605   1.621   9.254  0.1777 -2.9754 -1.7247
 1018MOL0     H37399   9.691   1.587   9.107 -0.7695 -2.0026  1.7608
 1018MOL0     H37400   9.558   1.842   9.184  0.4135 -1.5774  1.1132
 1018MOL0     H37401   9.680   1.835   9.040  1.1195 -1.8868 -0.5176
 1018MOL0     H37402   9.737   1.812   9.326 -1.7551 -1.8748 -0.7403
 1018MOL0     H37403   9.839   1.723   9.210  1.9351  1.0632 -1.1436
 1018MOL0     H37404   9.875   1.946   9.091 -1.8598 -0.0722 -0.1525
 1018MOL0     H37405   9.939   1.955   9.262 -0.9413 -2.2768  1.1929
 1018MOL0     H37406   9.655   2.056   9.187 -0.8496  0.5686  0.2613
 1018MOL0     H37407   9.757   2.090   9.330  3.4708  0.9149 -0.5256
 1018MOL0     H37408   9.748   2.279   9.144 -0.2581  1.1729  0.3009
 1018MOL0     H37409   9.799   2.158   9.026  0.7502 -0.6752  0.1804
 1018MOL0     H37410  10.032   2.146   9.140 -0.0034 -0.0064 -1.4706
 1018MOL0     H37411   9.967   2.262   9.262 -0.5303 -2.2716  0.5438
 1018MOL0     H37412   9.303   1.456   8.851 -0.0743 -0.0366  2.3457
 1018MOL0     H37413   9.097   1.510   8.738 -1.0306 -0.0264  0.3692
 1018MOL0     H37414   8.828   1.630   8.555 -0.2152  0.4504  1.3520
 1018MOL0     H37415   8.673   1.631   8.380  1.8961  1.4325 -0.2998
 1018MOL0     H37416   7.595   0.805   7.325 -0.1489 -0.4711  1.8811
 1018MOL0     H37417   7.682   0.898   7.114  0.9273  2.0875 -3.5226
 1018MOL0     H37418   7.595   0.988   6.726  0.2843 -1.4342 -0.0837
 1018MOL0     H37419   7.693   0.995   6.497 -3.9174  2.3657  0.8586
 1018MOL0     H37420   7.979   1.332   6.457  1.1309 -0.3937  2.5927
 1018MOL0     H37421   8.103   1.201   6.476 -1.6614 -0.4329  2.0179
 1018MOL0     H37422   7.972   1.272   6.218  0.8028  4.4347  1.3093
 1018MOL0     H37423   8.119   1.166   6.243  0.3497 -0.4871  0.3448
 1018MOL0     H37424   8.251   1.337   6.289  0.4120 -1.5495  0.5741
 1018MOL0     H37425   8.127   1.457   6.329  1.9775  0.1810 -0.1610
 1018MOL0     H37426   8.236   1.518   6.129  1.7302  0.0288 -3.7945
 1018MOL0     H37427   8.082   1.462   6.078  1.0302  1.8213  1.2594
 1018MOL0     H37428   8.342   1.205   5.882 -2.2165 -3.3215  1.4901
 1018MOL0     H37429   8.032   1.214   6.662  0.6431 -0.6147 -2.1637
 1018MOL0     H37430   7.936   1.194   6.888  0.3589 -0.0951  0.2133
 1019MOL0     O37431   1.952   5.153   2.581 -0.3282 -0.1201  0.6971
 1019MOL0     C37432   1.993   5.051   2.522  0.3503  0.5459  0.4225
 1019MOL0     O37433   1.906   4.955   2.478  0.7556 -0.7186 -0.2261
 1019MOL0     C37434   1.776   4.958   2.538  0.3458 -0.5288 -0.5449
 1019MOL0     C37435   1.750   4.873   2.643  0.1009  0.1873  0.6871
 1019MOL0     C37436   1.622   4.858   2.709 -0.1392 -0.6411  0.2801
 1019MOL0     C37437   1.517   4.942   2.667 -0.2921  0.3780  0.4322
 1019MOL0     O37438   1.394   4.923   2.712  0.1499 -1.0683 -0.6521
 1019MOL0     C37439   1.291   5.019   2.694 -0.4848  0.6718 -0.2357
 1019MOL0     C37440   1.151   4.966   2.704 -0.3178  0.1423  0.1226
 1019MOL0     C37441   1.049   5.073   2.680 -1.0798  0.1258 -0.6042
 1019MOL0     C37442   0.999   5.130   2.812 -0.2642  0.3053  0.5774
 1019MOL0     C37443   0.895   5.236   2.776 -0.5983 -0.6682 -0.5835
 1019MOL0     C37444   0.973   5.367   2.736  0.1374  1.0204  0.5200
 1019MOL0     C37445   0.873   5.486   2.740  0.3426  0.8994 -0.0536
 1019MOL0     C37446   0.755   5.487   2.632 -0.1853  0.4095 -0.9434
 1019MOL0     N37447   0.671   5.606   2.655  0.5959 -0.2104 -0.1007
 1019MOL0     C37448   0.538   5.623   2.621  1.0830  0.7033  0.0576
 1019MOL0     C37449   0.519   5.756   2.625 -0.7722  0.5063  0.9831
 1019MOL0     C37450   0.390   5.826   2.587 -0.7529  0.9496 -0.3662
 1019MOL0     C37451   0.267   5.806   2.672 -0.0692  0.3437 -0.2832
 1019MOL0     C37452   0.294   5.846   2.817  0.2686  0.1466 -0.8446
 1019MOL0     C37453   0.166   5.827   2.899 -0.3089 -0.0879  0.6655
 1019MOL0     O37454   0.141   5.687   2.911 -0.2979  0.5105 -0.7863
 1019MOL0     C37455   0.021   5.634   2.945  0.4887 -0.4736  0.5364
 1019MOL0     C37456  -0.000   5.505   2.956  0.8022  0.0630 -0.5696
 1019MOL0     C37457  -0.119   5.441   2.992  0.3040 -0.4280  0.3281
 1019MOL0     C37458  -0.114   5.290   2.997  1.1365  0.7454 -0.0379
 1019MOL0     C37459  -0.233   5.524   3.031  0.0843  0.5919  0.6615
 1019MOL0     C37460  -0.364   5.477   3.081  0.0638  0.4021 -1.4623
 1019MOL0     O37461  -0.408   5.537   3.191 -0.2505 -0.1813 -0.0600
 1019MOL0     C37462  -0.543   5.532   3.205 -0.1994  1.2257  0.6255
 1019MOL0     C37463  -0.602   5.484   3.325 -0.2633  0.2944  0.5783
 1019MOL0     C37464  -0.740   5.492   3.338  0.1589  0.0969 -0.1090
 1019MOL0     C37465  -0.818   5.559   3.237 -0.0033  0.2311  0.0359
 1019MOL0     O37466  -0.957   5.574   3.231 -0.1914  0.3772 -0.3967
 1019MOL0     C37467  -1.031   5.556   3.352  0.6214  0.4227  0.5889
 1019MOL0     C37468  -1.156   5.637   3.378  0.0640 -0.1975 -0.3637
 1019MOL0     C37469  -1.225   5.619   3.523  0.5503  0.4691  0.3472
 1019MOL0     C37470  -1.212   5.478   3.581  0.5146  0.7112  0.4910
 1019MOL0     C37471  -1.318   5.437   3.682 -0.6108  0.1048  0.5808
 1019MOL0     C37472  -1.269   5.472   3.820  0.0948  0.7675  0.7742
 1019MOL0     C37473  -1.353   5.421   3.941  0.5218 -0.1029  1.2560
 1019MOL0     C37474  -1.468   5.518   3.972 -0.3768 -0.1338  0.3039
 1019MOL0    Cl37475  -1.558   5.443   4.099  0.0822  0.3851 -0.1237
 1019MOL0     C37476  -0.757   5.609   3.123 -0.1557 -0.0221  0.3993
 1019MOL0     C37477  -0.620   5.604   3.108 -0.7753  0.3762 -0.8696
 1019MOL0     O37478  -0.423   5.390   3.027 -0.2001  0.7747 -0.1761
 1019MOL0     C37479  -0.208   5.664   3.029 -1.7305 -0.1898  0.1942
 1019MOL0     C37480  -0.088   5.717   2.982 -0.2091 -0.1073  0.6190
 1019MOL0     N37481   0.640   5.821   2.639  0.5643  0.6355  0.2867
 1019MOL0     N37482   0.721   5.734   2.659 -0.1473 -0.5885  0.4188
 1019MOL0     C37483   1.538   5.015   2.542 -0.2939 -0.1287 -1.0073
 1019MOL0     C37484   1.671   5.036   2.486 -0.5730  1.2978 -0.4208
 1019MOL0     C37485   2.135   5.017   2.525 -0.1217 -0.3907  0.5067
 1019MOL0     C37486   2.233   5.107   2.579 -0.3456 -0.0011 -0.6819
 1019MOL0     C37487   2.357   5.046   2.614 -0.6825 -0.3932  0.6723
 1019MOL0     C37488   2.401   4.926   2.569  0.1607 -0.1428  0.5149
 1019MOL0     O37489   2.517   4.856   2.597  0.6314 -0.1925  0.1532
 1019MOL0     C37490   2.598   4.898   2.697 -0.3889  0.0631  0.3012
 1019MOL0     C37491   2.583   4.802   2.819  0.4636  0.1104  0.3350
 1019MOL0     C37492   2.449   4.780   2.888 -0.0583 -0.3967  1.3105
 1019MOL0     C37493   2.465   4.726   3.033  0.3029  1.6780 -0.2376
 1019MOL0     C37494   2.513   4.586   3.027 -0.5288 -0.7677  0.4315
 1019MOL0     C37495   2.554   4.471   3.022  0.2264 -0.2782 -1.0837
 1019MOL0     C37496   2.309   4.851   2.499 -0.4865 -0.0179 -0.2401
 1019MOL0     C37497   2.178   4.892   2.477 -0.4424 -0.1639 -0.2298
 1019MOL0     H37498   1.831   4.803   2.662 -1.7225 -1.8288  1.4308
 1019MOL0     H37499   1.615   4.789   2.792 -3.0985 -0.7248  0.0516
 1019MOL0     H37500   1.298   5.104   2.761 -0.5030  0.9741 -0.6136
 1019MOL0     H37501   1.298   5.051   2.589  1.4272 -1.3271 -0.7975
 1019MOL0     H37502   1.137   4.887   2.630  0.7027 -0.3864  0.4736
 1019MOL0     H37503   1.133   4.926   2.804  2.7196  0.3206  0.8415
 1019MOL0     H37504   1.084   5.155   2.617 -0.6757  1.6821  1.5209
 1019MOL0     H37505   0.964   5.029   2.627 -1.8291  0.5461  0.2064
 1019MOL0     H37506   0.960   5.038   2.857  3.1780 -2.2730 -1.2031
 1019MOL0     H37507   1.086   5.171   2.864 -1.4210 -1.2577  4.0494
 1019MOL0     H37508   0.841   5.205   2.687 -0.3764 -1.2271 -0.5311
 1019MOL0     H37509   0.830   5.247   2.863  0.5768 -1.0379  0.3817
 1019MOL0     H37510   1.059   5.393   2.798  0.1535  0.4541  0.7433
 1019MOL0     H37511   1.015   5.354   2.635 -2.3520 -3.7748 -0.1890
 1019MOL0     H37512   0.839   5.483   2.844  2.0818 -1.5602  0.5486
 1019MOL0     H37513   0.923   5.579   2.711  0.1514  0.2509 -2.7279
 1019MOL0     H37514   0.691   5.401   2.655 -1.3805  1.8914  1.6292
 1019MOL0     H37515   0.812   5.482   2.539  1.2705 -1.0057 -0.0413
 1019MOL0     H37516   0.460   5.550   2.599  1.6924  0.3758 -1.1057
 1019MOL0     H37517   0.409   5.933   2.571  2.1873  0.4962 -0.5043
 1019MOL0     H37518   0.358   5.784   2.491  0.7134  1.6208 -1.1975
 1019MOL0     H37519   0.234   5.702   2.673  1.8944 -0.3272 -0.9713
 1019MOL0     H37520   0.187   5.865   2.626 -0.5066 -0.3189 -0.3810
 1019MOL0     H37521   0.315   5.953   2.829  0.0494  0.1511 -0.4764
 1019MOL0     H37522   0.375   5.793   2.868  0.4068  1.5891  0.5124
 1019MOL0     H37523   0.081   5.880   2.857 -2.0111 -3.1272 -0.0558
 1019MOL0     H37524   0.170   5.868   3.001 -1.3881  1.5509  0.0772
 1019MOL0     H37525   0.090   5.444   2.953 -0.0778 -1.3359  0.3260
 1019MOL0     H37526  -0.205   5.251   3.042  1.6122  4.1081  4.5770
 1019MOL0     H37527  -0.102   5.237   2.902  2.1133  1.0461 -0.1004
 1019MOL0     H37528  -0.030   5.256   3.059  0.4589 -0.5865  0.1914
 1019MOL0     H37529  -0.547   5.449   3.411  2.6896 -0.2581 -1.3956
 1019MOL0     H37530  -0.794   5.457   3.425 -1.3606  0.0465 -1.0455
 1019MOL0     H37531  -1.073   5.457   3.335 -3.0391  2.1134 -1.5960
 1019MOL0     H37532  -0.970   5.563   3.443 -0.3382  1.1157  1.2033
 1019MOL0     H37533  -1.145   5.746   3.377  0.1907 -0.1453  1.6973
 1019MOL0     H37534  -1.218   5.605   3.294 -2.7759  1.8003  0.7988
 1019MOL0     H37535  -1.332   5.632   3.502  0.8718  2.1919 -0.4243
 1019MOL0     H37536  -1.196   5.699   3.591  0.4930 -0.4891  1.5343
 1019MOL0     H37537  -1.242   5.411   3.500  0.3019 -1.9619  2.6405
 1019MOL0     H37538  -1.116   5.450   3.627  0.3503 -0.2316  0.2896
 1019MOL0     H37539  -1.337   5.330   3.677 -2.7804  0.4971 -1.6048
 1019MOL0     H37540  -1.412   5.489   3.658 -0.2917  0.8808  0.9766
 1019MOL0     H37541  -1.176   5.418   3.841 -1.5307 -1.8106  1.7746
 1019MOL0     H37542  -1.240   5.577   3.817 -0.7122  1.0423 -3.3998
 1019MOL0     H37543  -1.281   5.403   4.022  0.1267  0.4469  1.7337
 1019MOL0     H37544  -1.394   5.323   3.913  0.6957  0.6680 -2.0829
 1019MOL0     H37545  -1.525   5.535   3.880  0.6580 -1.0437 -0.5401
 1019MOL0     H37546  -1.431   5.614   4.010 -1.0245  1.0025 -1.7758
 1019MOL0     H37547  -0.818   5.647   3.041 -1.8652 -3.1048  0.0845
 1019MOL0     H37548  -0.566   5.648   3.025  4.6923  0.9543  2.4948
 1019MOL0     H37549  -0.281   5.738   3.058 -0.4326  2.1031 -1.9901
 1019MOL0     H37550  -0.078   5.825   2.993  0.1020  0.1567 -1.6611
 1019MOL0     H37551   1.467   5.069   2.482 -0.9987 -3.5531 -3.5635
 1019MOL0     H37552   1.677   5.115   2.411 -3.5336  1.9741 -0.0551
 1019MOL0     H37553   2.201   5.209   2.592 -1.8804 -0.5937  0.3925
 1019MOL0     H37554   2.424   5.111   2.669  0.6493  0.2707 -1.6052
 1019MOL0     H37555   2.701   4.894   2.660 -0.7385  3.5431 -1.4833
 1019MOL0     H37556   2.592   5.003   2.727  1.3875  0.3884 -0.3317
 1019MOL0     H37557   2.642   4.846   2.900  1.0500  0.6348 -0.3634
 1019MOL0     H37558   2.619   4.701   2.795 -0.0826  0.2667 -1.3264
 1019MOL0     H37559   2.378   4.713   2.838  0.0949  1.1310 -1.0969
 1019MOL0     H37560   2.411   4.881   2.903  0.0110 -0.1803  0.1003
 1019MOL0     H37561   2.379   4.733   3.101  2.1529  2.1022  2.2097
 1019MOL0     H37562   2.530   4.794   3.089  0.3006  1.2860  0.2428
 1019MOL0     H37563   2.584   4.369   3.011 -0.3472 -0.3869 -1.6354
 1019MOL0     H37564   2.337   4.756   2.454 -1.2179  0.5678 -2.0010
 1019MOL0     H37565   2.116   4.833   2.409 -0.4124  1.1027 -1.3996
 1020MOL0     O37566   0.848  10.372   3.852 -0.8893 -0.5230 -0.0611
 1020MOL0     C37567   0.867  10.386   3.970  0.4774 -0.7168 -0.4397
 1020MOL0     O37568   0.986  10.421   4.031  0.0549 -0.0324 -0.3417
 1020MOL0     C37569   1.094  10.434   3.948  0.2927 -0.1767 -0.2565
 1020MOL0     C37570   1.093  10.517   3.836 -0.1386  0.0681  0.1933
 1020MOL0     C37571   1.210  10.548   3.768  0.2042  0.0543  0.2140
 1020MOL0     C37572   1.331  10.493   3.802  0.8761  0.5822 -0.5518
 1020MOL0     O37573   1.433  10.530   3.710 -0.0027 -0.2578 -0.5021
 1020MOL0     C37574   1.555  10.576   3.776  0.0756  0.6197  0.4604
 1020MOL0     C37575   1.670  10.470   3.772 -0.2294 -0.2040 -0.5015
 1020MOL0     C37576   1.672  10.379   3.659 -0.7817  0.5438  0.1693
 1020MOL0     C37577   1.811  10.313   3.646  0.9504  0.3788 -0.3256
 1020MOL0     C37578   1.867  10.241   3.767  0.5442 -0.5370  0.3884
 1020MOL0     C37579   1.807  10.097   3.770  0.3247  0.0681  0.5794
 1020MOL0     C37580   1.884  10.002   3.862  0.4164  0.6154  0.3873
 1020MOL0     C37581   2.015   9.934   3.808 -0.1068 -0.2860  0.2643
 1020MOL0     N37582   2.007   9.853   3.681  0.6411 -0.2579  0.0535
 1020MOL0     C37583   1.925   9.748   3.671  0.2156 -0.6373  0.0852
 1020MOL0     C37584   1.907   9.728   3.536  0.9457 -0.0082  0.2239
 1020MOL0     C37585   1.833   9.615   3.460 -0.5488  0.3294  0.4569
 1020MOL0     C37586   1.687   9.647   3.422 -0.4493 -0.6056  0.5630
 1020MOL0     C37587   1.608   9.665   3.558  0.0448 -1.2680 -0.3143
 1020MOL0     C37588   1.453   9.666   3.532 -0.7612 -0.9860 -0.2973
 1020MOL0     O37589   1.387   9.640   3.654  0.0525 -0.2507 -0.2602
 1020MOL0     C37590   1.394   9.510   3.700  0.3806 -0.0503 -0.1046
 1020MOL0     C37591   1.370   9.401   3.617 -0.1137 -0.5898  0.3915
 1020MOL0     C37592   1.361   9.269   3.668 -0.2015  0.0721 -0.9048
 1020MOL0     C37593   1.333   9.169   3.551 -0.5018  0.5369 -0.5488
 1020MOL0     C37594   1.380   9.244   3.803 -0.1317 -0.5625 -0.0190
 1020MOL0     C37595   1.376   9.109   3.859  0.0057  0.1324  0.4909
 1020MOL0     O37596   1.437   9.091   3.981  0.0130 -0.4268 -0.0941
 1020MOL0     C37597   1.403   8.985   4.056 -0.5375  0.7581  0.9850
 1020MOL0     C37598   1.276   8.962   4.110 -0.4135  0.1760 -0.4957
 1020MOL0     C37599   1.249   8.849   4.191 -0.1241 -0.1032  0.5698
 1020MOL0     C37600   1.347   8.747   4.208 -0.2189 -0.1826 -0.2941
 1020MOL0     O37601   1.331   8.631   4.282  0.3777  0.4753 -0.0394
 1020MOL0     C37602   1.246   8.635   4.391  0.1318  0.4535 -0.0060
 1020MOL0     C37603   1.238   8.502   4.472 -0.6935 -0.4825  0.7446
 1020MOL0     C37604   1.166   8.500   4.604  0.7724  0.1728  0.5698
 1020MOL0     C37605   1.013   8.534   4.601 -0.0081  0.0579 -0.1992
 1020MOL0     C37606   0.930   8.438   4.518  0.7625  0.0309 -0.7026
 1020MOL0     C37607   0.782   8.486   4.517  1.3095  0.3453  0.3871
 1020MOL0     C37608   0.715   8.495   4.654 -1.1234  0.3684 -0.2060
 1020MOL0     C37609   0.710   8.640   4.696 -1.1296  0.0994  0.8212
 1020MOL0    Cl37610   0.561   8.715   4.640 -0.6250 -0.2859  0.1231
 1020MOL0     C37611   1.476   8.774   4.159  0.4577 -0.2011 -0.5218
 1020MOL0     C37612   1.504   8.894   4.087 -0.5352  0.3573  0.7792
 1020MOL0     O37613   1.304   9.030   3.807  0.4167  1.3673 -0.0960
 1020MOL0     C37614   1.417   9.354   3.880 -0.4394  0.2255 -0.4096
 1020MOL0     C37615   1.425   9.480   3.834 -0.1274 -1.7284  0.1112
 1020MOL0     N37616   1.972   9.825   3.468 -1.0596 -0.1804  0.4868
 1020MOL0     N37617   2.035   9.895   3.556 -0.3210  0.4437  0.0187
 1020MOL0     C37618   1.342  10.413   3.921  0.0875 -0.4862 -0.3624
 1020MOL0     C37619   1.224  10.397   4.001  0.1847 -0.8772  0.5959
 1020MOL0     C37620   0.752  10.376   4.055 -0.5401  0.3374  0.0832
 1020MOL0     C37621   0.759  10.420   4.192 -0.0523  0.1938  0.1187
 1020MOL0     C37622   0.645  10.403   4.270 -0.2686  0.3159 -0.8537
 1020MOL0     C37623   0.534  10.329   4.233  0.0212  0.9798  0.9453
 1020MOL0     O37624   0.435  10.316   4.333 -0.0276  0.3385 -0.1493
 1020MOL0     C37625   0.320  10.230   4.320  0.4380  0.8340  0.2352
 1020MOL0     C37626   0.304  10.155   4.455 -0.3595  0.6753 -0.7628
 1020MOL0     C37627   0.189  10.059   4.469  0.6668  0.5972 -0.0467
 1020MOL0     C37628   0.099  10.073   4.596  1.3459 -0.2957  0.5544
 1020MOL0     C37629   0.002   9.968   4.609  0.0444  0.1485 -0.2769
 1020MOL0     C37630  -0.087   9.885   4.598  0.0241  0.4708 -1.1598
 1020MOL0     C37631   0.530  10.285   4.102 -0.4153  0.1355 -0.0047
 1020MOL0     C37632   0.635  10.312   4.014 -0.6476  0.0883 -0.2271
 1020MOL0     H37633   1.004  10.573   3.807  1.5161  3.0170  0.4745
 1020MOL0     H37634   1.204  10.620   3.687 -1.3302 -2.6876 -2.2859
 1020MOL0     H37635   1.601  10.657   3.719 -0.4447 -0.8514 -2.2280
 1020MOL0     H37636   1.541  10.601   3.881  1.3365  3.1837  0.0960
 1020MOL0     H37637   1.765  10.523   3.773 -1.7396  2.7268 -1.1181
 1020MOL0     H37638   1.661  10.415   3.866 -0.1682 -0.3478 -0.5794
 1020MOL0     H37639   1.597  10.299   3.663 -0.5704  0.3192 -0.2162
 1020MOL0     H37640   1.662  10.435   3.566  1.6667  2.3172  0.8718
 1020MOL0     H37641   1.797  10.230   3.576 -0.6464 -0.0898  0.5015
 1020MOL0     H37642   1.879  10.389   3.607 -0.2179  0.8251 -1.5862
 1020MOL0     H37643   1.975  10.234   3.749  0.3709  1.3288 -1.7645
 1020MOL0     H37644   1.842  10.298   3.857  0.3095  1.3068 -0.7945
 1020MOL0     H37645   1.711  10.115   3.820  1.1849 -1.2296  2.9003
 1020MOL0     H37646   1.787  10.049   3.674 -0.0922 -1.1313  1.2385
 1020MOL0     H37647   1.899  10.057   3.955  1.3400  3.4344 -1.2943
 1020MOL0     H37648   1.824   9.914   3.884 -0.7741  0.7499 -1.9407
 1020MOL0     H37649   2.048   9.867   3.888 -1.3881 -1.2722  0.0013
 1020MOL0     H37650   2.093  10.011   3.801 -1.8513  1.6446  0.8286
 1020MOL0     H37651   1.874   9.686   3.744 -2.3720 -0.4639 -1.4318
 1020MOL0     H37652   1.892   9.597   3.370  1.7007  3.0162  1.2281
 1020MOL0     H37653   1.850   9.536   3.533  0.3265  0.5147  0.4616
 1020MOL0     H37654   1.661   9.560   3.361  2.5893 -1.1323 -0.1492
 1020MOL0     H37655   1.677   9.734   3.356 -0.3876 -0.6601  0.4802
 1020MOL0     H37656   1.639   9.759   3.604 -0.4350 -1.3648  0.2309
 1020MOL0     H37657   1.643   9.577   3.612  0.6757 -1.1140 -0.4713
 1020MOL0     H37658   1.421   9.590   3.461  0.5415 -1.2609 -0.6136
 1020MOL0     H37659   1.424   9.768   3.503 -0.1425 -0.1962  1.7175
 1020MOL0     H37660   1.345   9.408   3.511  0.2910 -0.8874  0.2750
 1020MOL0     H37661   1.256   9.097   3.580  0.3342 -0.3085 -0.3670
 1020MOL0     H37662   1.303   9.211   3.454  0.5949  2.0177 -0.2860
 1020MOL0     H37663   1.418   9.102   3.537 -2.8840 -3.0824  0.7525
 1020MOL0     H37664   1.192   9.030   4.100 -0.6570 -0.2043 -1.1103
 1020MOL0     H37665   1.155   8.828   4.240 -0.2975  1.4146  0.9364
 1020MOL0     H37666   1.293   8.715   4.451 -1.2727 -0.7290  2.8471
 1020MOL0     H37667   1.143   8.661   4.365  0.2334 -1.8491 -3.1447
 1020MOL0     H37668   1.209   8.423   4.402  3.7219 -0.5212 -1.4083
 1020MOL0     H37669   1.341   8.487   4.505 -1.4334 -1.5670  2.7116
 1020MOL0     H37670   1.216   8.560   4.681  2.1147  1.0941 -0.9458
 1020MOL0     H37671   1.168   8.396   4.637 -0.6931  0.2674  1.0166
 1020MOL0     H37672   0.988   8.538   4.707  1.6016  0.4036  0.2029
 1020MOL0     H37673   1.005   8.632   4.552 -1.2342 -0.8212 -1.8618
 1020MOL0     H37674   0.943   8.338   4.560 -0.6072 -0.6609 -1.8399
 1020MOL0     H37675   0.966   8.430   4.415 -1.7271  0.6486 -1.7182
 1020MOL0     H37676   0.768   8.580   4.462  3.6843  0.5742  0.0595
 1020MOL0     H37677   0.737   8.403   4.462  0.4101  2.1475 -1.7848
 1020MOL0     H37678   0.776   8.437   4.724 -0.2081  2.4981  0.8511
 1020MOL0     H37679   0.618   8.446   4.651  0.3794 -2.9346  0.3779
 1020MOL0     H37680   0.796   8.691   4.650 -1.1350 -1.7385 -1.3807
 1020MOL0     H37681   0.709   8.640   4.805 -0.6056 -3.2547  0.9271
 1020MOL0     H37682   1.550   8.697   4.179  0.1456 -0.2622  0.4362
 1020MOL0     H37683   1.602   8.925   4.051 -2.2199  1.4439 -3.4772
 1020MOL0     H37684   1.433   9.342   3.987  2.7227 -0.3868 -0.8701
 1020MOL0     H37685   1.446   9.562   3.902 -1.1334 -0.4052 -1.1216
 1020MOL0     H37686   1.441  10.386   3.957  1.0115  2.0091 -0.7924
 1020MOL0     H37687   1.228  10.343   4.095 -0.8884 -1.3204  0.3961
 1020MOL0     H37688   0.830  10.496   4.224 -0.0742  0.3449 -0.1888
 1020MOL0     H37689   0.627  10.434   4.372 -1.2849 -1.8756 -0.3001
 1020MOL0     H37690   0.235  10.293   4.292 -1.9699 -2.6922 -1.1379
 1020MOL0     H37691   0.326  10.151   4.244  0.8463  2.0192 -1.0063
 1020MOL0     H37692   0.310  10.229   4.535 -0.0570  1.0431 -1.1167
 1020MOL0     H37693   0.392  10.090   4.453 -2.8180 -2.9419 -0.4986
 1020MOL0     H37694   0.237   9.961   4.476  1.2272  0.9207  0.9265
 1020MOL0     H37695   0.117  10.066   4.387  0.8818  1.6132 -0.1670
 1020MOL0     H37696   0.045  10.168   4.606  0.6608 -0.7517  1.2554
 1020MOL0     H37697   0.164  10.060   4.683 -0.6104  5.2352  3.3491
 1020MOL0     H37698  -0.168   9.817   4.609  0.2919  0.1216 -1.3212
 1020MOL0     H37699   0.442  10.236   4.060 -1.2016  1.1340  0.4313
 1020MOL0     H37700   0.623  10.275   3.913 -1.3731 -1.8802  0.5332
 1021MOL0     O37701   5.750  11.143   7.468 -0.4038 -0.1899  1.0337
 1021MOL0     C37702   5.721  11.255   7.511 -0.8254 -0.6933  0.1812
 1021MOL0     O37703   5.642  11.282   7.623  0.1109  0.6577  0.5282
 1021MOL0     C37704   5.620  11.178   7.707 -0.1308 -0.7484 -0.9625
 1021MOL0     C37705   5.527  11.076   7.682 -0.0063 -0.3864 -0.2283
 1021MOL0     C37706   5.516  10.968   7.768 -0.8080 -0.0964 -0.3399
 1021MOL0     C37707   5.587  10.960   7.883 -0.1773  0.5958  1.0013
 1021MOL0     O37708   5.586  10.867   7.980  0.2576  0.7837 -0.0036
 1021MOL0     C37709   5.530  10.737   7.955 -0.3281  0.6215  0.4453
 1021MOL0     C37710   5.495  10.660   8.082  0.0424  0.3252  0.6267
 1021MOL0     C37711   5.614  10.588   8.153  0.7111 -0.4268  0.4526
 1021MOL0     C37712   5.738  10.676   8.171  0.9064  0.3468 -0.7221
 1021MOL0     C37713   5.846  10.581   8.234  0.1016 -0.3506 -0.2924
 1021MOL0     C37714   5.971  10.651   8.281  0.6550 -0.0628 -0.1046
 1021MOL0     C37715   5.947  10.708   8.426  0.5223 -0.3830  1.1438
 1021MOL0     C37716   6.050  10.796   8.483  0.1623  0.9469 -0.0412
 1021MOL0     N37717   6.091  10.900   8.394  0.2302  0.2840  0.0886
 1021MOL0     C37718   6.007  10.999   8.353 -0.6551  0.5939 -0.2804
 1021MOL0     C37719   6.088  11.074   8.271  0.4034  0.4271  0.3692
 1021MOL0     C37720   6.061  11.197   8.185  0.5234 -0.1824 -1.0294
 1021MOL0     C37721   5.926  11.268   8.177  0.7124  0.0826 -0.2801
 1021MOL0     C37722   5.922  11.379   8.286 -0.0921  0.0509  0.7612
 1021MOL0     C37723   5.819  11.488   8.284  0.2118 -0.2073  0.2338
 1021MOL0     O37724   5.683  11.444   8.313 -0.4352 -0.4312 -0.3104
 1021MOL0     C37725   5.568  11.518   8.288  0.3227 -0.0504  0.8059
 1021MOL0     C37726   5.573  11.654   8.255 -0.1108  0.3532  0.5552
 1021MOL0     C37727   5.452  11.723   8.233 -0.3370  0.2614 -0.0960
 1021MOL0     C37728   5.464  11.872   8.187 -0.3914  0.6587  0.1327
 1021MOL0     C37729   5.330  11.657   8.255  0.5860 -0.4235  0.8107
 1021MOL0     C37730   5.200  11.732   8.233  0.1386 -0.9408 -0.5042
 1021MOL0     O37731   5.091  11.660   8.200  0.0306 -0.1910  0.0226
 1021MOL0     C37732   4.960  11.703   8.218  0.3534 -0.1057  0.1127
 1021MOL0     C37733   4.915  11.802   8.314  0.1710 -0.2809  0.6465
 1021MOL0     C37734   4.780  11.838   8.317  0.2387  0.1441  0.2816
 1021MOL0     C37735   4.681  11.765   8.253  0.4075 -0.4829 -0.8285
 1021MOL0     O37736   4.547  11.805   8.276 -0.6395  0.0417 -0.3398
 1021MOL0     C37737   4.432  11.762   8.196 -0.3840 -0.4678 -0.0087
 1021MOL0     C37738   4.306  11.825   8.257  0.3875 -0.8002  0.2155
 1021MOL0     C37739   4.182  11.794   8.170 -0.4220 -0.6578 -0.8022
 1021MOL0     C37740   4.165  11.652   8.138 -0.5395  0.0313 -0.0874
 1021MOL0     C37741   4.013  11.642   8.100 -0.3843  0.2194 -0.5734
 1021MOL0     C37742   3.993  11.508   8.021  1.2530 -0.4192 -0.6633
 1021MOL0     C37743   4.023  11.530   7.874  0.6267  0.0791  0.2843
 1021MOL0     C37744   3.955  11.413   7.794  0.2449 -0.4944 -0.4419
 1021MOL0    Cl37745   3.777  11.450   7.769 -0.2055  0.0608  0.3997
 1021MOL0     C37746   4.716  11.657   8.175 -0.4030 -0.6195  0.4072
 1021MOL0     C37747   4.855  11.633   8.152  0.3419  1.6874 -0.1869
 1021MOL0     O37748   5.198  11.856   8.237  0.6767  0.4032 -0.0451
 1021MOL0     C37749   5.333  11.527   8.305  0.8159  0.4658 -0.0704
 1021MOL0     C37750   5.448  11.457   8.321 -0.0265 -0.1907  0.1584
 1021MOL0     N37751   6.219  11.014   8.274 -0.3007 -0.4808  1.2506
 1021MOL0     N37752   6.214  10.917   8.348  0.1526 -0.4591 -0.4242
 1021MOL0     C37753   5.663  11.071   7.915 -1.0389 -0.4892  0.4704
 1021MOL0     C37754   5.687  11.180   7.828  0.1387 -0.1827 -0.7285
 1021MOL0     C37755   5.786  11.370   7.438  0.4204 -0.6859  0.6268
 1021MOL0     C37756   5.787  11.500   7.486  0.2845 -0.8660 -0.4599
 1021MOL0     C37757   5.849  11.606   7.419  1.1146 -0.0885 -0.8169
 1021MOL0     C37758   5.924  11.576   7.305  0.7851  0.0562 -0.3229
 1021MOL0     O37759   5.967  11.696   7.235  0.8798  0.4389  0.1248
 1021MOL0     C37760   6.079  11.695   7.150  0.6197 -0.6039 -0.1063
 1021MOL0     C37761   6.207  11.686   7.227  0.4627 -0.6454  0.1911
 1021MOL0     C37762   6.233  11.820   7.301 -0.8484 -0.0864  0.2430
 1021MOL0     C37763   6.380  11.836   7.352  0.4677  0.3303 -0.4657
 1021MOL0     C37764   6.446  11.944   7.280 -0.1793 -0.1686 -0.0896
 1021MOL0     C37765   6.503  12.035   7.235 -0.6974  0.2136  0.2348
 1021MOL0     C37766   5.919  11.446   7.256 -0.1639  0.5365  0.1380
 1021MOL0     C37767   5.855  11.340   7.323 -0.0928  0.7899 -0.3199
 1021MOL0     H37768   5.470  11.073   7.590 -0.1248  2.2112 -0.3078
 1021MOL0     H37769   5.449  10.886   7.744 -2.3443  1.2429 -0.8576
 1021MOL0     H37770   5.435  10.744   7.901 -1.5109  1.9694  2.5939
 1021MOL0     H37771   5.601  10.673   7.901  0.0686  0.2719  1.3689
 1021MOL0     H37772   5.443  10.730   8.148  0.5161  0.4259  0.9014
 1021MOL0     H37773   5.419  10.584   8.062 -0.6597  0.8715  1.1948
 1021MOL0     H37774   5.586  10.547   8.251  0.7339  2.1494  1.6096
 1021MOL0     H37775   5.642  10.504   8.089  1.4396  0.2932 -0.1944
 1021MOL0     H37776   5.781  10.711   8.076  0.3680 -0.7614 -1.3987
 1021MOL0     H37777   5.723  10.763   8.234 -1.4145 -0.3115 -0.2943
 1021MOL0     H37778   5.801  10.521   8.313  0.3209  1.0826  0.9712
 1021MOL0     H37779   5.879  10.505   8.162  3.6922  2.1674 -1.6409
 1021MOL0     H37780   6.044  10.570   8.293 -1.1299 -1.4067  2.9151
 1021MOL0     H37781   6.001  10.726   8.207  1.0995  1.0420  1.1562
 1021MOL0     H37782   5.859  10.773   8.419  0.7715 -0.1530 -0.2035
 1021MOL0     H37783   5.926  10.623   8.491 -3.4002 -1.2560 -0.9564
 1021MOL0     H37784   6.134  10.737   8.521 -2.6951 -3.3278  0.3568
 1021MOL0     H37785   6.007  10.838   8.575  1.3874 -0.8948  1.4507
 1021MOL0     H37786   5.901  11.011   8.374 -0.0883  2.3351  1.8683
 1021MOL0     H37787   6.132  11.274   8.217  0.4667 -0.5309 -0.0438
 1021MOL0     H37788   6.089  11.180   8.081  2.1994  1.5628 -0.9299
 1021MOL0     H37789   5.839  11.201   8.180  0.9500 -0.1870  0.8048
 1021MOL0     H37790   5.922  11.325   8.083  0.0375 -0.7616 -0.7842
 1021MOL0     H37791   6.019  11.429   8.285 -0.4568  0.8281  1.8716
 1021MOL0     H37792   5.918  11.328   8.383  3.0082  0.9943  1.5012
 1021MOL0     H37793   5.822  11.521   8.180 -0.0697 -2.3497 -0.5112
 1021MOL0     H37794   5.842  11.567   8.356  1.3859  0.5363 -0.9218
 1021MOL0     H37795   5.672  11.697   8.249  0.3471 -0.7976 -0.4511
 1021MOL0     H37796   5.425  11.928   8.272 -4.5954 -2.8000  0.8547
 1021MOL0     H37797   5.569  11.893   8.163  1.0896 -4.6548  0.6561
 1021MOL0     H37798   5.420  11.887   8.088  1.4665 -0.3385 -0.9050
 1021MOL0     H37799   4.984  11.856   8.378  0.8670 -0.5261  0.1112
 1021MOL0     H37800   4.753  11.920   8.382 -1.3083 -1.2722  1.4873
 1021MOL0     H37801   4.453  11.807   8.099  0.7058  0.4995  0.6431
 1021MOL0     H37802   4.424  11.654   8.185 -3.6383 -0.6892  2.7992
 1021MOL0     H37803   4.281  11.796   8.360 -0.1198  0.6698  0.5328
 1021MOL0     H37804   4.325  11.931   8.244  2.0176 -0.8994  1.5438
 1021MOL0     H37805   4.190  11.846   8.074  1.3441  2.7105  0.9631
 1021MOL0     H37806   4.096  11.836   8.224  0.6226 -1.1396  1.3370
 1021MOL0     H37807   4.228  11.616   8.057 -0.2168  1.1578 -0.3582
 1021MOL0     H37808   4.189  11.581   8.218 -2.8931 -1.8023 -0.8991
 1021MOL0     H37809   3.989  11.724   8.032  0.5209  0.7365 -0.2915
 1021MOL0     H37810   3.949  11.629   8.188  1.5038 -1.2632  0.6519
 1021MOL0     H37811   4.056  11.434   8.071 -1.5969 -0.4442  3.3205
 1021MOL0     H37812   3.885  11.496   8.030  0.7945  2.8773 -0.5352
 1021MOL0     H37813   4.131  11.519   7.864  0.2268 -1.8785 -4.1549
 1021MOL0     H37814   3.982  11.624   7.835 -1.1406 -0.7192  0.0739
 1021MOL0     H37815   3.969  11.321   7.851 -0.7659 -0.3215  0.1167
 1021MOL0     H37816   4.000  11.405   7.694  2.0353  0.9435  0.1820
 1021MOL0     H37817   4.644  11.595   8.123 -0.3618 -0.9718  0.7643
 1021MOL0     H37818   4.887  11.551   8.088 -2.0193  0.9464 -0.5095
 1021MOL0     H37819   5.242  11.474   8.329  2.8071 -2.4697  1.5400
 1021MOL0     H37820   5.453  11.353   8.353  1.8767  0.2331  1.4595
 1021MOL0     H37821   5.720  11.065   8.007 -0.1434  0.7958  0.0186
 1021MOL0     H37822   5.764  11.253   7.847 -0.0674  0.4940 -2.3439
 1021MOL0     H37823   5.719  11.525   7.567 -0.3808  3.0926 -2.0314
 1021MOL0     H37824   5.823  11.707   7.448 -1.4852 -1.5865  2.6013
 1021MOL0     H37825   6.071  11.612   7.080  1.3161  0.2176 -1.2028
 1021MOL0     H37826   6.079  11.785   7.087  0.9994  0.5637  1.4854
 1021MOL0     H37827   6.284  11.681   7.150 -0.2338 -1.0591 -0.4910
 1021MOL0     H37828   6.203  11.603   7.297 -3.2615 -0.7160  0.0753
 1021MOL0     H37829   6.174  11.821   7.393 -0.8477  3.3052  0.3320
 1021MOL0     H37830   6.199  11.907   7.245  1.1089 -0.4876 -1.7368
 1021MOL0     H37831   6.443  11.748   7.340 -0.4607 -0.2375 -1.3539
 1021MOL0     H37832   6.382  11.863   7.458  1.0753  0.7157 -0.5656
 1021MOL0     H37833   6.558  12.118   7.196 -1.9029  0.1954 -1.6208
 1021MOL0     H37834   5.971  11.432   7.162  1.0973  1.4909  0.6648
 1021MOL0     H37835   5.872  11.240   7.286  1.0254  0.7982  0.1285
 1022MOL0     O37836   7.319   1.892   9.002  0.2858 -0.1600  0.2777
 1022MOL0     C37837   7.308   1.915   8.876 -0.1326  0.4810 -0.7022
 1022MOL0     O37838   7.388   1.871   8.774  0.8575  0.0685 -0.0268
 1022MOL0     C37839   7.511   1.834   8.811 -0.4604 -0.4387 -0.2424
 1022MOL0     C37840   7.610   1.930   8.817 -0.8859  0.6641 -0.6258
 1022MOL0     C37841   7.740   1.892   8.848 -0.4615 -0.8551  0.1826
 1022MOL0     C37842   7.774   1.758   8.873  0.2864 -0.8408 -0.0192
 1022MOL0     O37843   7.897   1.734   8.920 -1.0114  0.0558 -0.0277
 1022MOL0     C37844   7.902   1.701   9.061 -0.0541  0.3608  0.1820
 1022MOL0     C37845   8.030   1.743   9.131 -0.1504  0.4470 -0.3476
 1022MOL0     C37846   8.099   1.620   9.189  0.1963 -0.1506 -0.8407
 1022MOL0     C37847   8.009   1.566   9.306 -0.2401  0.1674 -0.9942
 1022MOL0     C37848   8.048   1.420   9.365  0.2711  0.2484  0.9239
 1022MOL0     C37849   7.980   1.391   9.498 -0.4963 -0.5912  0.3208
 1022MOL0     C37850   8.009   1.245   9.546 -0.2355 -0.7074 -1.4029
 1022MOL0     C37851   7.970   1.228   9.695 -0.1552  0.5686  0.1061
 1022MOL0     N37852   8.013   1.089   9.718 -0.0155 -0.7217 -0.0686
 1022MOL0     C37853   8.125   1.048   9.793  0.5971 -0.8821  0.8827
 1022MOL0     C37854   8.121   0.909   9.774  0.3972 -0.3180 -0.5388
 1022MOL0     C37855   8.237   0.829   9.818  0.3122 -0.5082  0.6435
 1022MOL0     C37856   8.206   0.762   9.951  0.2968  0.4851  0.4457
 1022MOL0     C37857   8.272   0.838  10.068 -0.2825 -0.0195 -0.2404
 1022MOL0     C37858   8.230   0.779  10.205 -0.1408  0.0907  0.1523
 1022MOL0     O37859   8.333   0.807  10.308  0.1680 -0.1662 -0.1561
 1022MOL0     C37860   8.329   0.725  10.413 -0.1519  0.1014 -0.2833
 1022MOL0     C37861   8.337   0.590  10.402  0.0325  0.3365 -0.4906
 1022MOL0     C37862   8.325   0.509  10.516  0.7138  0.4236 -0.7632
 1022MOL0     C37863   8.345   0.359  10.507  0.5786  0.2897 -0.1029
 1022MOL0     C37864   8.285   0.560  10.641 -0.3914  0.6393  0.2561
 1022MOL0     C37865   8.260   0.494  10.769 -0.3297 -0.9305 -0.7100
 1022MOL0     O37866   8.342   0.535  10.863 -0.3195  0.0071  0.1550
 1022MOL0     C37867   8.364   0.465  10.979 -0.3592 -0.3007 -0.1286
 1022MOL0     C37868   8.332   0.339  11.014  0.3348 -0.3014 -0.8376
 1022MOL0     C37869   8.357   0.293  11.139 -0.9878 -0.3093 -1.0444
 1022MOL0     C37870   8.437   0.374  11.227  0.1617 -0.2223  0.3931
 1022MOL0     O37871   8.472   0.336  11.355 -0.3746  0.6329 -0.0968
 1022MOL0     C37872   8.575   0.228  11.337  0.0576 -0.5647 -0.0970
 1022MOL0     C37873   8.626   0.171  11.469  0.2308  0.8168  0.2671
 1022MOL0     C37874   8.507   0.093  11.528  0.2578  0.5065  0.8536
 1022MOL0     C37875   8.559   0.011  11.646  0.1957  0.6351  0.4720
 1022MOL0     C37876   8.441  -0.085  11.694 -0.1648  0.2680  0.3075
 1022MOL0     C37877   8.339  -0.022  11.796  0.1772  0.6304  0.3033
 1022MOL0     C37878   8.256  -0.130  11.863  0.1588 -0.9079 -0.2447
 1022MOL0     C37879   8.160  -0.069  11.961  0.1677 -0.0088 -0.1931
 1022MOL0    Cl37880   8.046  -0.188  12.032  0.2811 -0.3473  0.8011
 1022MOL0     C37881   8.460   0.508  11.196  0.3576 -0.2110 -0.0009
 1022MOL0     C37882   8.434   0.551  11.067 -0.6333  0.0919 -1.0684
 1022MOL0     O37883   8.173   0.419  10.783  0.9141  0.1193 -0.1045
 1022MOL0     C37884   8.286   0.704  10.655  0.1121 -0.0007  0.4620
 1022MOL0     C37885   8.307   0.785  10.537  0.0531  0.3242  0.5948
 1022MOL0     N37886   8.009   0.873   9.699 -0.3106 -0.3990 -1.2978
 1022MOL0     N37887   7.943   0.979   9.679  0.0340 -0.4219  0.9109
 1022MOL0     C37888   7.664   1.658   8.880 -0.2705 -0.4176 -0.2369
 1022MOL0     C37889   7.536   1.705   8.850 -0.2939 -0.4230  0.0603
 1022MOL0     C37890   7.180   1.970   8.838 -0.2815 -0.1735  0.2323
 1022MOL0     C37891   7.070   1.957   8.921  0.1531 -0.0102 -0.5335
 1022MOL0     C37892   6.944   1.999   8.874 -0.1124 -0.5143 -0.2108
 1022MOL0     C37893   6.929   2.061   8.751  0.2353  0.2736  0.7437
 1022MOL0     O37894   6.800   2.086   8.716 -0.4712  0.2520  0.1934
 1022MOL0     C37895   6.778   2.182   8.610 -0.6046  0.2421 -0.2628
 1022MOL0     C37896   6.638   2.237   8.616 -0.1099 -0.5333 -0.0272
 1022MOL0     C37897   6.614   2.335   8.734 -0.1629  0.0716 -0.3346
 1022MOL0     C37898   6.483   2.413   8.736  0.9924 -0.2241  0.0747
 1022MOL0     C37899   6.359   2.331   8.726 -0.0396  0.4471 -0.0499
 1022MOL0     C37900   6.264   2.257   8.730 -0.2241  0.0192 -1.0878
 1022MOL0     C37901   7.037   2.054   8.660  0.3796 -0.3784 -1.1435
 1022MOL0     C37902   7.161   2.023   8.706  0.0096 -0.2912 -0.7493
 1022MOL0     H37903   7.584   2.035   8.805 -0.1751  0.7985 -1.0680
 1022MOL0     H37904   7.827   1.957   8.845 -0.4970 -0.8042  0.2526
 1022MOL0     H37905   7.821   1.759   9.106  0.3008  3.0279 -2.3265
 1022MOL0     H37906   7.888   1.592   9.066  0.5456  0.3187  1.2821
 1022MOL0     H37907   8.086   1.808   9.063 -0.6011  1.2427  0.0369
 1022MOL0     H37908   8.007   1.813   9.211  2.4313  3.1396 -1.7699
 1022MOL0     H37909   8.120   1.540   9.118  0.3210 -1.4394  0.5979
 1022MOL0     H37910   8.193   1.653   9.236 -1.1927 -0.7896  2.6783
 1022MOL0     H37911   7.994   1.626   9.396  0.7004 -3.7129  2.0039
 1022MOL0     H37912   7.906   1.551   9.271 -0.5621 -0.7377  0.2720
 1022MOL0     H37913   8.014   1.344   9.293 -5.3178  2.8936  0.2335
 1022MOL0     H37914   8.156   1.402   9.374 -0.3400 -3.4373  3.1785
 1022MOL0     H37915   8.024   1.465   9.566 -1.4252  1.6817 -1.4247
 1022MOL0     H37916   7.871   1.402   9.500 -0.3856  0.7552  1.7361
 1022MOL0     H37917   7.958   1.169   9.485 -4.2401  0.0915  0.5567
 1022MOL0     H37918   8.116   1.228   9.540 -0.2981 -0.8926 -2.1070
 1022MOL0     H37919   7.862   1.246   9.700 -0.1043  1.6003 -1.7253
 1022MOL0     H37920   8.021   1.296   9.764 -0.2171  1.2138 -0.4701
 1022MOL0     H37921   8.207   1.110   9.827  2.3935 -1.8364 -1.3694
 1022MOL0     H37922   8.263   0.765   9.734 -0.5944  2.0801 -1.7749
 1022MOL0     H37923   8.330   0.886   9.830  0.0833 -0.0925  0.4799
 1022MOL0     H37924   8.253   0.664   9.942 -0.5293  0.1973 -0.9652
 1022MOL0     H37925   8.101   0.747   9.975  1.1593  0.2328  4.8159
 1022MOL0     H37926   8.244   0.944  10.074 -0.4641 -0.0899  0.1943
 1022MOL0     H37927   8.381   0.839  10.060 -0.2533 -2.7047 -1.0781
 1022MOL0     H37928   8.218   0.670  10.193  0.2922  0.1830 -1.4262
 1022MOL0     H37929   8.132   0.818  10.235  0.3358  0.2981  1.4556
 1022MOL0     H37930   8.357   0.551  10.303  0.3866 -1.8793  0.4009
 1022MOL0     H37931   8.253   0.304  10.487 -0.2832  1.1242  1.3941
 1022MOL0     H37932   8.420   0.346  10.428 -0.1729  1.6940 -1.0788
 1022MOL0     H37933   8.386   0.315  10.599 -1.0239  3.7441  2.4830
 1022MOL0     H37934   8.288   0.270  10.942 -0.9618  1.2964 -1.6588
 1022MOL0     H37935   8.326   0.193  11.168 -0.4794  0.1768  1.3803
 1022MOL0     H37936   8.530   0.150  11.276  1.4508 -0.9569 -0.6510
 1022MOL0     H37937   8.665   0.263  11.287  0.2936 -0.9587  0.0464
 1022MOL0     H37938   8.708   0.103  11.442  1.3240  2.6174 -1.2023
 1022MOL0     H37939   8.672   0.247  11.532 -2.1684  1.6365  1.1069
 1022MOL0     H37940   8.462   0.027  11.454  4.5257 -0.2164 -1.3468
 1022MOL0     H37941   8.431   0.164  11.564 -1.9343 -0.9574 -0.6469
 1022MOL0     H37942   8.639  -0.050  11.605 -2.3630 -3.4785  1.1053
 1022MOL0     H37943   8.590   0.074  11.730  0.8235  1.3670 -0.2904
 1022MOL0     H37944   8.498  -0.176  11.714 -0.1795 -0.6333 -3.0723
 1022MOL0     H37945   8.386  -0.100  11.600  1.2852  2.7758 -1.0690
 1022MOL0     H37946   8.392   0.037  11.872  0.0551  0.6167  0.3998
 1022MOL0     H37947   8.278   0.034  11.725 -0.0176 -0.6989 -0.6180
 1022MOL0     H37948   8.326  -0.205  11.901  1.6425  0.4280 -0.2603
 1022MOL0     H37949   8.194  -0.177  11.785 -1.1334 -0.5951  0.5578
 1022MOL0     H37950   8.082  -0.013  11.910 -0.5622 -2.2094 -1.6573
 1022MOL0     H37951   8.217  -0.010  12.033  0.9527 -0.5007 -0.3987
 1022MOL0     H37952   8.512   0.584  11.253 -3.6449  2.4020  0.5815
 1022MOL0     H37953   8.456   0.654  11.040  1.9812  0.4964  1.9933
 1022MOL0     H37954   8.264   0.740  10.754  1.3963  2.2306 -0.0136
 1022MOL0     H37955   8.322   0.892  10.526 -0.8792  0.5545  1.4475
 1022MOL0     H37956   7.678   1.558   8.919 -0.1788 -0.9833 -1.6836
 1022MOL0     H37957   7.449   1.640   8.844 -2.0046  1.9122 -3.1283
 1022MOL0     H37958   7.073   1.913   9.020 -3.4476  2.5656  0.9378
 1022MOL0     H37959   6.854   1.992   8.935 -1.1699  0.5734 -1.5675
 1022MOL0     H37960   6.853   2.257   8.635  2.2106 -2.5570  0.3609
 1022MOL0     H37961   6.793   2.139   8.511  0.8698  1.7348 -0.7315
 1022MOL0     H37962   6.571   2.152   8.631  0.6865 -1.4148 -1.2423
 1022MOL0     H37963   6.624   2.282   8.518 -0.7372  4.5783  2.0600
 1022MOL0     H37964   6.704   2.395   8.746  1.7856 -2.8126  0.4395
 1022MOL0     H37965   6.612   2.277   8.827  2.1187  0.6609  0.1411
 1022MOL0     H37966   6.482   2.502   8.672 -0.0220  1.1036  1.8315
 1022MOL0     H37967   6.486   2.463   8.833 -1.8045 -0.3721  0.3264
 1022MOL0     H37968   6.180   2.191   8.738  1.9052 -3.0826 -2.2807
 1022MOL0     H37969   7.018   2.085   8.557 -1.5259 -2.5822 -1.5616
 1022MOL0     H37970   7.253   2.028   8.649  2.4311  0.6673  2.8605
 1023MOL0     O37971   0.380   3.110   5.864 -0.5612 -0.0049  0.0521
 1023MOL0     C37972   0.380   3.000   5.808  0.0609  0.6851  0.1834
 1023MOL0     O37973   0.473   2.942   5.736 -0.1119 -0.5110  0.3562
 1023MOL0     C37974   0.598   2.989   5.713 -0.7808 -0.0733  0.3737
 1023MOL0     C37975   0.646   3.117   5.736 -0.6457  0.8862  0.0597
 1023MOL0     C37976   0.781   3.145   5.707  0.9887 -1.0299 -0.2525
 1023MOL0     C37977   0.860   3.044   5.641  0.3063 -0.1959 -0.0363
 1023MOL0     O37978   0.985   3.083   5.616  0.2050 -0.3579 -0.2923
 1023MOL0     C37979   1.066   3.020   5.519  0.0370  0.1430 -0.9202
 1023MOL0     C37980   1.182   3.110   5.484 -0.1326 -0.3688 -0.2106
 1023MOL0     C37981   1.275   3.149   5.593  0.1409  0.0253 -0.8356
 1023MOL0     C37982   1.410   3.204   5.553  0.4368  0.3752  0.4389
 1023MOL0     C37983   1.417   3.353   5.558 -0.0827  0.3946  0.1176
 1023MOL0     C37984   1.545   3.401   5.491  0.9677 -0.0141 -0.8717
 1023MOL0     C37985   1.665   3.391   5.587  0.0058 -0.5748  0.6614
 1023MOL0     C37986   1.776   3.441   5.493  0.1858 -0.7373 -0.5336
 1023MOL0     N37987   1.912   3.431   5.541 -0.6655  0.7113  0.3627
 1023MOL0     C37988   1.965   3.477   5.661  0.2989  0.6770  0.1267
 1023MOL0     C37989   2.089   3.448   5.667 -0.1559  0.6080  0.2810
 1023MOL0     C37990   2.181   3.444   5.786 -0.6028  0.3498 -0.0935
 1023MOL0     C37991   2.311   3.520   5.770  0.3673  0.6599 -0.1586
 1023MOL0     C37992   2.389   3.502   5.905  0.6806 -0.4686 -0.2403
 1023MOL0     C37993   2.521   3.573   5.887  0.5291 -0.5787  0.0906
 1023MOL0     O37994   2.633   3.494   5.922 -0.0512 -0.1907  0.5741
 1023MOL0     C37995   2.756   3.560   5.922 -0.2832  0.1628  0.0708
 1023MOL0     C37996   2.855   3.541   6.019  0.3368 -0.7109  0.3587
 1023MOL0     C37997   2.983   3.592   6.010 -0.6382  0.3731 -0.3551
 1023MOL0     C37998   3.071   3.547   6.125 -0.1723  0.2159  0.0164
 1023MOL0     C37999   3.018   3.677   5.902  0.2863 -0.1513  0.5381
 1023MOL0     C38000   3.146   3.750   5.888  0.4384  0.1680 -0.2646
 1023MOL0     O38001   3.237   3.750   5.987 -0.8026 -1.1190  0.5180
 1023MOL0     C38002   3.374   3.769   5.938 -0.1386 -0.2603  0.2378
 1023MOL0     C38003   3.429   3.714   5.812 -0.1667  0.4258 -0.1877
 1023MOL0     C38004   3.563   3.738   5.773 -0.3170 -0.4927 -0.2640
 1023MOL0     C38005   3.644   3.826   5.851  0.5658 -0.4654 -0.7492
 1023MOL0     O38006   3.766   3.854   5.809 -1.0762  0.3690  0.5157
 1023MOL0     C38007   3.882   3.816   5.878 -0.9979  0.4449 -0.9122
 1023MOL0     C38008   3.943   3.699   5.793  1.1336 -0.5922  0.1480
 1023MOL0     C38009   4.055   3.617   5.867 -0.7388  0.1007  0.4595
 1023MOL0     C38010   4.194   3.685   5.868 -0.2086 -0.3290 -0.9823
 1023MOL0     C38011   4.304   3.592   5.922  0.3420 -0.5311 -0.4207
 1023MOL0     C38012   4.442   3.665   5.924 -0.2082 -0.2154  0.3809
 1023MOL0     C38013   4.560   3.572   5.911  0.7422 -0.8522 -0.0821
 1023MOL0     C38014   4.655   3.587   6.029  0.0378  0.0005 -0.5025
 1023MOL0    Cl38015   4.760   3.449   6.013  0.1020 -0.0081  0.2619
 1023MOL0     C38016   3.584   3.886   5.965 -0.1512 -0.6901  0.2967
 1023MOL0     C38017   3.460   3.848   6.014  0.7060  0.2116  1.0409
 1023MOL0     O38018   3.166   3.808   5.787  0.2815 -0.4904 -0.4047
 1023MOL0     C38019   2.917   3.706   5.807 -0.9045 -0.0557 -0.4402
 1023MOL0     C38020   2.795   3.653   5.821  0.6935  0.2227 -1.3615
 1023MOL0     N38021   2.126   3.385   5.548  0.0693  0.3360 -0.6835
 1023MOL0     N38022   2.014   3.371   5.479 -0.1144  0.4575  0.0314
 1023MOL0     C38023   0.808   2.918   5.611 -0.2059 -0.4940  0.0898
 1023MOL0     C38024   0.676   2.896   5.634 -0.0442  0.7980  0.2254
 1023MOL0     C38025   0.260   2.918   5.852 -0.1488 -0.0838  0.2457
 1023MOL0     C38026   0.148   2.980   5.902  0.3357 -0.3634 -0.8969
 1023MOL0     C38027   0.031   2.916   5.933 -1.0186  0.6359  0.4708
 1023MOL0     C38028   0.024   2.782   5.911  0.0576  0.1706 -0.6955
 1023MOL0     O38029  -0.091   2.716   5.941  0.1216 -0.4188 -0.5859
 1023MOL0     C38030  -0.167   2.669   5.824 -0.7420 -0.6636  0.6268
 1023MOL0     C38031  -0.303   2.623   5.874 -0.0500 -0.3903  0.3361
 1023MOL0     C38032  -0.376   2.543   5.754  0.1102 -0.2349  0.5951
 1023MOL0     C38033  -0.395   2.640   5.629  0.3406  0.1044  0.4864
 1023MOL0     C38034  -0.450   2.565   5.513 -0.5289  0.0210  0.0952
 1023MOL0     C38035  -0.501   2.504   5.422 -0.3753  0.0288 -0.2524
 1023MOL0     C38036   0.137   2.715   5.863  0.0265 -0.4804  1.1432
 1023MOL0     C38037   0.253   2.781   5.836 -0.4970  0.6428 -0.1599
 1023MOL0     H38038   0.585   3.197   5.774 -2.7954 -0.7724  0.2954
 1023MOL0     H38039   0.828   3.233   5.750  0.0255 -0.8852  0.5511
 1023MOL0     H38040   1.099   2.924   5.559 -0.3853  0.2737 -0.2326
 1023MOL0     H38041   1.012   3.003   5.426 -1.5943  2.3642 -0.4675
 1023MOL0     H38042   1.245   3.053   5.416  0.3770  1.6664 -1.5318
 1023MOL0     H38043   1.142   3.200   5.436 -3.4577 -1.0392  1.0372
 1023MOL0     H38044   1.230   3.221   5.663  0.5365  3.2776 -3.6751
 1023MOL0     H38045   1.295   3.061   5.655  4.4513  2.1891  1.3329
 1023MOL0     H38046   1.488   3.172   5.623  0.9184  1.7518  0.5608
 1023MOL0     H38047   1.434   3.179   5.449 -0.9838  0.4349  0.0800
 1023MOL0     H38048   1.333   3.378   5.493 -0.1334 -0.8202 -0.3170
 1023MOL0     H38049   1.399   3.398   5.656  0.5587 -0.8983  0.8644
 1023MOL0     H38050   1.555   3.347   5.396 -0.2473 -0.6521 -0.6640
 1023MOL0     H38051   1.536   3.506   5.462  3.7585  1.3798  2.5739
 1023MOL0     H38052   1.649   3.462   5.669 -1.8787  0.5828 -0.6575
 1023MOL0     H38053   1.678   3.292   5.632  1.4039  0.0846  1.8145
 1023MOL0     H38054   1.766   3.546   5.464 -0.4278 -0.2198  1.4218
 1023MOL0     H38055   1.761   3.386   5.399  0.0638 -1.1642 -0.2695
 1023MOL0     H38056   1.909   3.516   5.745  0.1527 -1.8351  1.2768
 1023MOL0     H38057   2.118   3.496   5.860 -3.4011 -2.3882 -0.3359
 1023MOL0     H38058   2.197   3.343   5.825  0.6274  1.6649  3.1318
 1023MOL0     H38059   2.298   3.626   5.745  3.0204  0.6402 -2.0414
 1023MOL0     H38060   2.365   3.475   5.686 -0.7239 -1.0471  0.0120
 1023MOL0     H38061   2.396   3.396   5.931  1.0584 -0.8053 -1.6537
 1023MOL0     H38062   2.335   3.553   5.986  1.4002  0.2667 -0.2169
 1023MOL0     H38063   2.514   3.660   5.953 -0.2965 -0.3757 -0.2619
 1023MOL0     H38064   2.524   3.612   5.785  0.1583  1.3306  0.7775
 1023MOL0     H38065   2.822   3.473   6.098  0.5018  1.6864  2.6420
 1023MOL0     H38066   3.107   3.635   6.180 -1.6669  0.4184  0.7098
 1023MOL0     H38067   3.010   3.482   6.188 -0.5371 -0.8728 -1.4100
 1023MOL0     H38068   3.148   3.478   6.088 -1.1774 -0.9576  0.0541
 1023MOL0     H38069   3.364   3.651   5.751  0.0572 -0.1571  0.1672
 1023MOL0     H38070   3.604   3.674   5.696 -1.2637 -3.2694  1.3853
 1023MOL0     H38071   3.954   3.896   5.896  1.1850 -1.7973  1.1369
 1023MOL0     H38072   3.854   3.773   5.975 -1.7470 -3.1125 -2.5303
 1023MOL0     H38073   3.865   3.633   5.753 -0.3448  2.5837 -2.7672
 1023MOL0     H38074   4.002   3.745   5.714 -0.0833  0.8218  0.0124
 1023MOL0     H38075   4.064   3.533   5.798  1.3399  0.8456 -0.2341
 1023MOL0     H38076   4.023   3.585   5.967  1.4824 -1.7917  0.6500
 1023MOL0     H38077   4.226   3.705   5.765 -0.1425 -0.3792 -0.9718
 1023MOL0     H38078   4.207   3.775   5.929  2.1438 -1.0334 -0.3001
 1023MOL0     H38079   4.304   3.513   5.846 -0.6606 -0.5719 -0.3896
 1023MOL0     H38080   4.298   3.550   6.023  1.9931 -1.6646 -0.7553
 1023MOL0     H38081   4.446   3.741   5.845 -1.6382 -1.9111 -1.4459
 1023MOL0     H38082   4.448   3.724   6.016  2.6423  0.5525 -0.1931
 1023MOL0     H38083   4.622   3.588   5.823  0.4193  1.3341  0.0318
 1023MOL0     H38084   4.525   3.468   5.911  1.0764 -0.9737 -1.3102
 1023MOL0     H38085   4.604   3.593   6.126  0.5859  3.5815 -0.2691
 1023MOL0     H38086   4.714   3.679   6.024 -2.7194  1.8247 -3.0540
 1023MOL0     H38087   3.636   3.962   6.024 -2.9245 -0.3858  2.5507
 1023MOL0     H38088   3.414   3.890   6.102 -1.9487 -0.8831  0.2727
 1023MOL0     H38089   2.945   3.772   5.726  0.7662  0.4313  0.4774
 1023MOL0     H38090   2.721   3.676   5.745  0.0547 -1.0964 -1.1713
 1023MOL0     H38091   0.874   2.844   5.568 -1.8694 -3.0028  1.5638
 1023MOL0     H38092   0.631   2.799   5.616 -0.2300  0.6681  1.3026
 1023MOL0     H38093   0.144   3.087   5.920  0.0891 -0.5717  0.4327
 1023MOL0     H38094  -0.051   2.978   5.969 -0.4750  0.1968  2.5709
 1023MOL0     H38095  -0.156   2.747   5.748  1.7690 -1.3491  0.2060
 1023MOL0     H38096  -0.112   2.585   5.781  5.6011  3.2936 -0.3360
 1023MOL0     H38097  -0.361   2.708   5.912 -0.8811 -0.3609 -0.9508
 1023MOL0     H38098  -0.283   2.562   5.963  0.7606 -1.9278 -0.8521
 1023MOL0     H38099  -0.478   2.522   5.789 -1.2539 -1.3522 -3.4096
 1023MOL0     H38100  -0.327   2.452   5.719  0.4310  0.3140 -0.4245
 1023MOL0     H38101  -0.295   2.678   5.605 -0.7107  1.3214 -2.4638
 1023MOL0     H38102  -0.464   2.721   5.654  1.6245  1.2446  0.4308
 1023MOL0     H38103  -0.550   2.440   5.351  1.5970 -3.2833  1.1127
 1023MOL0     H38104   0.140   2.607   5.847 -3.4765 -0.3044 -2.0877
 1023MOL0     H38105   0.336   2.718   5.802 -0.9177 -0.4971  0.8390
 1024MOL0     O38106   7.298   5.855   1.413  0.5164  0.1077 -0.1630
 1024MOL0     C38107   7.398   5.826   1.482 -0.3562 -0.3205  1.2229
 1024MOL0     O38108   7.409   5.843   1.609 -0.5654  0.1569  0.6683
 1024MOL0     C38109   7.302   5.879   1.682  0.3224  0.2479  0.2080
 1024MOL0     C38110   7.292   6.014   1.714  0.0917 -0.8558 -0.1209
 1024MOL0     C38111   7.173   6.059   1.767  0.1025 -0.1170  0.3157
 1024MOL0     C38112   7.087   5.963   1.827  0.3643  0.2411 -0.6276
 1024MOL0     O38113   6.966   5.985   1.901 -0.4952 -0.3532  0.6214
 1024MOL0     C38114   6.914   6.114   1.930  0.1219 -0.9980  0.4355
 1024MOL0     C38115   6.857   6.183   1.813  0.3014  0.3697  0.1789
 1024MOL0     C38116   6.819   6.335   1.829 -0.6067  0.2531  0.1845
 1024MOL0     C38117   6.943   6.427   1.834  0.4950  0.0017  0.3905
 1024MOL0     C38118   6.907   6.571   1.835  0.3187  0.1138  0.1680
 1024MOL0     C38119   6.830   6.617   1.967 -0.1254  0.1203  0.3570
 1024MOL0     C38120   6.826   6.767   1.971 -0.8994 -1.3916 -0.2455
 1024MOL0     C38121   6.749   6.808   2.100  0.5663 -0.0683  0.1185
 1024MOL0     N38122   6.744   6.951   2.117 -0.4332 -0.0456 -0.0764
 1024MOL0     C38123   6.670   7.013   2.212 -0.9766  0.3328 -0.6143
 1024MOL0     C38124   6.707   7.148   2.205  0.8368 -0.1533  0.6774
 1024MOL0     C38125   6.653   7.266   2.288  0.6613  0.4736  0.5006
 1024MOL0     C38126   6.770   7.368   2.316  0.1021  0.5680 -0.0734
 1024MOL0     C38127   6.722   7.487   2.390 -0.5170 -0.2961 -0.8158
 1024MOL0     C38128   6.846   7.569   2.433 -0.1775 -0.3660 -0.2495
 1024MOL0     O38129   6.808   7.707   2.408  0.2147 -0.4524  0.0174
 1024MOL0     C38130   6.892   7.807   2.452 -0.1648 -0.5012 -0.0392
 1024MOL0     C38131   6.865   7.940   2.413 -0.4606  0.0811  0.5722
 1024MOL0     C38132   6.925   8.058   2.461  0.0577 -0.6294 -1.3749
 1024MOL0     C38133   6.880   8.184   2.392  0.1399  0.9919  0.0718
 1024MOL0     C38134   7.026   8.046   2.554  0.4510  0.6307 -0.2729
 1024MOL0     C38135   7.113   8.163   2.583 -0.4072 -0.6125  0.4740
 1024MOL0     O38136   7.135   8.215   2.711  0.5090  0.8212  0.4802
 1024MOL0     C38137   7.030   8.232   2.806 -0.4384 -0.2409  0.1094
 1024MOL0     C38138   6.987   8.357   2.834  0.0872 -0.1536  0.0197
 1024MOL0     C38139   6.889   8.375   2.938  0.3743  0.5157 -0.0395
 1024MOL0     C38140   6.834   8.259   3.013 -0.7177 -1.1809  1.4380
 1024MOL0     O38141   6.746   8.259   3.115 -0.3374 -0.1613  0.3910
 1024MOL0     C38142   6.614   8.215   3.080 -0.1600 -0.1302  0.2189
 1024MOL0     C38143   6.535   8.314   2.985 -0.8555  0.2146  0.6380
 1024MOL0     C38144   6.499   8.444   3.057  0.2536 -0.6289  1.0723
 1024MOL0     C38145   6.417   8.544   2.982  0.4680  0.0894 -0.0451
 1024MOL0     C38146   6.355   8.649   3.079 -0.0128  1.8734 -0.8028
 1024MOL0     C38147   6.305   8.765   3.000  0.1634 -0.7920  0.7282
 1024MOL0     C38148   6.410   8.879   2.978  0.8431 -0.2258  0.4956
 1024MOL0     C38149   6.432   8.969   3.107 -0.4895 -0.2632  0.5688
 1024MOL0    Cl38150   6.564   9.087   3.082 -0.2288  0.0625 -0.1451
 1024MOL0     C38151   6.877   8.136   2.969 -0.9959  0.0818 -0.1455
 1024MOL0     C38152   6.975   8.120   2.870  0.6068 -0.0409 -0.3590
 1024MOL0     O38153   7.180   8.209   2.487 -0.2801  0.1279 -0.5117
 1024MOL0     C38154   7.070   7.915   2.585  0.2941 -0.4084  0.7501
 1024MOL0     C38155   6.999   7.799   2.545  0.6271  0.2082 -0.6803
 1024MOL0     N38156   6.795   7.164   2.105  1.0471  0.1771  0.2406
 1024MOL0     N38157   6.802   7.050   2.041  0.5276  0.1646 -0.3892
 1024MOL0     C38158   7.104   5.830   1.795  0.0710  0.2876  0.0247
 1024MOL0     C38159   7.211   5.781   1.723 -0.1896 -0.2242  0.5153
 1024MOL0     C38160   7.523   5.779   1.409  0.4612 -0.6761  0.2315
 1024MOL0     C38161   7.648   5.761   1.479  0.3551 -0.6269  0.4284
 1024MOL0     C38162   7.752   5.690   1.418 -0.0205 -0.7575 -1.1595
 1024MOL0     C38163   7.745   5.642   1.288  0.0970  0.5125 -0.2798
 1024MOL0     O38164   7.851   5.594   1.216 -1.0048 -0.2959 -0.0370
 1024MOL0     C38165   7.982   5.552   1.281  0.7110 -0.6550  0.4675
 1024MOL0     C38166   7.945   5.433   1.361  0.8565  0.0010 -1.0297
 1024MOL0     C38167   8.051   5.337   1.376 -0.3751  0.0978 -0.1787
 1024MOL0     C38168   8.032   5.243   1.490  0.2353  0.0463 -0.6431
 1024MOL0     C38169   7.950   5.124   1.475  0.2828 -0.5830 -0.9262
 1024MOL0     C38170   7.878   5.023   1.454 -0.9725 -0.1935  0.2802
 1024MOL0     C38171   7.623   5.657   1.222  0.2288  0.3206  0.8687
 1024MOL0     C38172   7.515   5.721   1.280  1.1852  0.5364 -0.4117
 1024MOL0     H38173   7.382   6.068   1.686  1.0022 -1.4931  1.4253
 1024MOL0     H38174   7.166   6.168   1.766  2.6704  0.2308  3.4743
 1024MOL0     H38175   6.834   6.115   2.005  0.1120 -3.9428  0.5734
 1024MOL0     H38176   6.994   6.176   1.971 -1.1572  1.6754 -0.8641
 1024MOL0     H38177   6.931   6.194   1.733  2.3772  2.9970  2.2426
 1024MOL0     H38178   6.775   6.120   1.777  1.0878 -0.4672 -0.2138
 1024MOL0     H38179   6.754   6.360   1.745 -0.1553  0.9414  0.0304
 1024MOL0     H38180   6.751   6.341   1.914  0.1047 -1.2540  0.8941
 1024MOL0     H38181   6.995   6.399   1.926 -1.5172 -0.9355  1.3060
 1024MOL0     H38182   7.018   6.399   1.759  1.2715  2.0496  0.3458
 1024MOL0     H38183   6.984   6.644   1.809  1.5605 -1.5701 -1.2074
 1024MOL0     H38184   6.833   6.586   1.755  0.5459  2.3710  0.3265
 1024MOL0     H38185   6.729   6.576   1.964 -0.5008  1.0588 -0.7370
 1024MOL0     H38186   6.891   6.580   2.050  1.6645  2.6306  0.2720
 1024MOL0     H38187   6.922   6.818   1.970 -2.2722  1.4343  0.2754
 1024MOL0     H38188   6.762   6.803   1.889 -1.3639  2.7487  1.7079
 1024MOL0     H38189   6.788   6.753   2.186 -0.7110  1.1989  1.5629
 1024MOL0     H38190   6.649   6.766   2.090  0.4124  0.0181  1.2220
 1024MOL0     H38191   6.596   6.969   2.280 -1.8342 -1.0760 -2.3752
 1024MOL0     H38192   6.585   7.334   2.237  2.3289  2.2800  0.5260
 1024MOL0     H38193   6.596   7.237   2.377  0.6028  0.3616  0.4266
 1024MOL0     H38194   6.808   7.396   2.217 -4.0957  1.0727 -1.7651
 1024MOL0     H38195   6.845   7.323   2.381 -0.2973  1.1037  0.7833
 1024MOL0     H38196   6.662   7.458   2.477 -0.3400 -2.8174 -1.4735
 1024MOL0     H38197   6.658   7.549   2.326 -1.5314  1.1705  1.4845
 1024MOL0     H38198   6.948   7.549   2.397  0.3114  0.1139  0.8353
 1024MOL0     H38199   6.842   7.560   2.542  1.5147 -1.6952 -0.2470
 1024MOL0     H38200   6.781   7.939   2.344 -0.9608 -0.3854  1.1792
 1024MOL0     H38201   6.927   8.193   2.294  2.3411  0.4531  1.0237
 1024MOL0     H38202   6.771   8.181   2.378  0.0342  1.1420  0.7714
 1024MOL0     H38203   6.897   8.280   2.442  0.7736  0.2911  1.2616
 1024MOL0     H38204   7.047   8.431   2.781 -0.7579  0.3094 -0.3185
 1024MOL0     H38205   6.865   8.475   2.972  1.6618  0.6903  0.4134
 1024MOL0     H38206   6.617   8.116   3.034 -1.9155 -0.4245  0.6910
 1024MOL0     H38207   6.566   8.208   3.177  0.1971  1.6969  0.5622
 1024MOL0     H38208   6.596   8.338   2.898  1.2269  0.5591  2.1353
 1024MOL0     H38209   6.444   8.260   2.955 -0.2608  0.0401 -0.9300
 1024MOL0     H38210   6.590   8.492   3.093 -0.1117 -1.2627  2.9950
 1024MOL0     H38211   6.458   8.402   3.150  0.3426 -1.6075  0.6764
 1024MOL0     H38212   6.482   8.591   2.907  1.4792  0.5928  1.0961
 1024MOL0     H38213   6.340   8.492   2.926  0.1174  0.4936  0.0595
 1024MOL0     H38214   6.430   8.660   3.158 -1.2781 -1.7688  1.1408
 1024MOL0     H38215   6.273   8.601   3.133 -2.0547  5.4505 -0.4197
 1024MOL0     H38216   6.279   8.730   2.899  2.0201 -1.2156  0.3706
 1024MOL0     H38217   6.214   8.808   3.042  0.4885  0.8275 -0.1287
 1024MOL0     H38218   6.376   8.933   2.889 -2.2190 -0.9450  1.1109
 1024MOL0     H38219   6.507   8.833   2.957  0.6164 -0.3149 -0.3672
 1024MOL0     H38220   6.441   8.901   3.192 -1.1384  1.0945  1.7726
 1024MOL0     H38221   6.346   9.036   3.118 -1.8802 -1.7767 -0.6062
 1024MOL0     H38222   6.860   8.041   3.019  3.1447  0.2782  2.0710
 1024MOL0     H38223   7.009   8.021   2.842  0.3256  1.0249 -5.3039
 1024MOL0     H38224   7.162   7.913   2.643  0.7031  0.9525  0.1941
 1024MOL0     H38225   7.034   7.703   2.580  0.1215  1.0536  2.4017
 1024MOL0     H38226   7.033   5.752   1.819 -1.3453  0.9866 -1.6975
 1024MOL0     H38227   7.224   5.674   1.722  1.9001 -0.0702  2.8156
 1024MOL0     H38228   7.660   5.809   1.576 -0.0041  1.7965 -0.6560
 1024MOL0     H38229   7.849   5.692   1.467 -0.8766 -0.3737  0.5598
 1024MOL0     H38230   8.051   5.520   1.202  1.0696 -2.3331  1.4265
 1024MOL0     H38231   8.028   5.638   1.332  1.1206  0.5852 -1.8527
 1024MOL0     H38232   7.861   5.388   1.306  1.6273 -0.2862 -1.9764
 1024MOL0     H38233   7.905   5.476   1.454 -0.1586 -0.1585 -1.3740
 1024MOL0     H38234   8.145   5.391   1.392 -0.1706 -0.0693 -0.7712
 1024MOL0     H38235   8.066   5.273   1.289  1.4467 -2.6626  1.9809
 1024MOL0     H38236   7.992   5.296   1.577 -0.0477 -0.6074 -0.3693
 1024MOL0     H38237   8.132   5.204   1.515 -0.3062 -1.5076 -0.8062
 1024MOL0     H38238   7.816   4.936   1.446 -0.9382 -0.2096  0.1909
 1024MOL0     H38239   7.615   5.618   1.121  1.8610 -2.9164  1.8547
 1024MOL0     H38240   7.423   5.729   1.222 -0.0512  2.8718  1.6703
  11.44870  11.44870  11.44870
